Protein in INSANE! Membrane UpperLeaflet>POPC=1.0 LowerLeaflet>POPC=1.0
248799
    1AU     AUC    1  41.902  20.841   7.531
    1AU     AUC    2  42.154  20.829   7.367
    1AU     AUC    3  42.158  20.846   7.689
    1AU     AUC    4  41.639  20.827   7.379
    1AU     AUC    5  41.647  20.866   7.696
    1AU     AUC    6  41.753  21.098   7.507
    1AU     AUC    7  42.071  21.095   7.507
    1AU     AUC    8  41.740  20.586   7.559
    1AU     AUC    9  42.056  20.581   7.547
    1AU     AUC   10  41.901  20.707   7.803
    1AU     AUC   11  41.915  21.026   7.775
    1AU     AUC   12  41.896  20.660   7.286
    1AU     AUC   13  41.899  20.976   7.259
    1AU     AUC   14  42.409  20.828   7.203
    1AU     AUC   15  42.410  20.828   7.526
    1AU     AUC   16  42.412  20.834   7.850
    1AU     AUC   17  41.382  20.802   7.225
    1AU     AUC   18  41.379  20.855   7.547
    1AU     AUC   19  41.400  20.903   7.864
    1AU     AUC   20  41.602  21.353   7.471
    1AU     AUC   21  41.940  21.355   7.468
    1AU     AUC   22  42.255  21.349   7.482
    1AU     AUC   23  41.575  20.334   7.587
    1AU     AUC   24  41.905  20.323   7.565
    1AU     AUC   25  42.220  20.320   7.564
    1AU     AUC   26  41.902  20.573   8.076
    1AU     AUC   27  41.908  20.897   8.061
    1AU     AUC   28  41.937  21.215   8.016
    1AU     AUC   29  41.910  20.483   7.040
    1AU     AUC   30  41.889  20.794   7.010
    1AU     AUC   31  41.891  21.106   6.988
    1AU     AUC   32  42.153  20.699   7.967
    1AU     AUC   33  42.182  21.021   7.941
    1AU     AUC   34  42.168  20.662   7.109
    1AU     AUC   35  42.152  20.978   7.089
    1AU     AUC   36  41.649  20.741   7.977
    1AU     AUC   37  41.657  21.065   7.943
    1AU     AUC   38  41.634  20.629   7.135
    1AU     AUC   39  41.626  20.950   7.097
    1AU     AUC   40  42.333  21.084   7.348
    1AU     AUC   41  42.333  21.105   7.672
    1AU     AUC   42  41.479  21.095   7.339
    1AU     AUC   43  41.490  21.141   7.668
    1AU     AUC   44  42.309  20.559   7.377
    1AU     AUC   45  42.314  20.576   7.707
    1AU     AUC   46  41.468  20.563   7.418
    1AU     AUC   47  41.475  20.602   7.734
    1AU     AUC   48  41.767  21.285   7.760
    1AU     AUC   49  42.107  21.282   7.750
    1AU     AUC   50  41.740  20.450   7.835
    1AU     AUC   51  42.057  20.434   7.823
    1AU     AUC   52  41.739  21.240   7.230
    1AU     AUC   53  42.076  21.243   7.232
    1AU     AUC   54  41.737  20.392   7.310
    1AU     AUC   55  42.074  20.403   7.293
    1AU    AUSL   56  42.325  20.809   8.161
    1AU    AUSL   57  42.207  20.462   8.155
    1AU     AUL   58  42.594  20.629   8.286
    1AU    AUSL   59  42.008  20.727   8.295
    1AU    AUSL   60  41.792  21.090   8.273
    1AU     AUL   61  42.057  21.008   8.567
    1AU    AUSL   62  42.128  21.101   8.231
    1AU    AUSL   63  42.488  21.085   8.013
    1AU     AUL   64  42.459  21.022   8.409
    1AU    AUSL   65  42.328  20.874   6.893
    1AU    AUSL   66  42.208  21.224   6.907
    1AU     AUL   67  42.583  21.051   6.751
    1AU    AUSL   68  42.112  20.626   6.806
    1AU    AUSL   69  42.480  20.582   7.040
    1AU     AUL   70  42.469  20.632   6.660
    1AU    AUSL   71  41.985  20.937   6.776
    1AU    AUSL   72  41.767  20.605   6.821
    1AU     AUL   73  41.977  20.477   6.585
    1AU    AUSL   74  41.472  21.019   8.159
    1AU    AUSL   75  41.651  21.352   8.037
    1AU     AUL   76  41.619  21.380   8.368
    1AU    AUSL   77  41.661  20.752   8.264
    1AU    AUSL   78  41.400  20.635   8.047
    1AU     AUL   79  41.204  20.819   8.205
    1AU    AUSL   80  41.448  20.672   6.913
    1AU    AUSL   81  41.605  20.341   7.028
    1AU     AUL   82  41.593  20.339   6.678
    1AU    AUSL   83  41.634  20.934   6.820
    1AU    AUSL   84  41.352  21.064   7.033
    1AU     AUL   85  41.183  20.796   6.897
    1AU    AUSL   86  42.572  21.260   7.431
    1AU    AUSL   87  42.478  21.108   7.107
    1AU     AUL   88  42.811  21.036   7.068
    1AU    AUSL   89  42.666  20.935   7.363
    1AU    AUSL   90  42.653  20.689   7.685
    1AU     AUL   91  42.978  20.787   7.528
    1AU    AUSL   92  42.550  21.019   7.676
    1AU    AUSL   93  42.452  21.370   7.747
    1AU     AUL   94  42.768  21.078   7.789
    1AU    AUSL   95  41.317  21.331   7.492
    1AU    AUSL   96  41.332  21.216   7.913
    1AU     AUL   97  41.012  21.360   7.674
    1AU    AUSL   98  41.178  21.010   7.317
    1AU    AUSL   99  41.451  21.384   7.173
    1AU     AUL  100  41.084  21.315   7.213
    1AU    AUSL  101  41.170  21.023   7.689
    1AU    AUSL  102  41.153  20.698   7.439
    1AU     AUL  103  40.871  20.984   7.481
    1AU    AUSL  104  42.518  20.377   7.617
    1AU    AUSL  105  42.464  20.555   7.947
    1AU     AUL  106  42.800  20.618   7.940
    1AU    AUSL  107  42.525  20.621   7.376
    1AU    AUSL  108  42.408  20.292   7.275
    1AU     AUL  109  42.760  20.537   7.287
    1AU    AUSL  110  41.247  20.391   7.580
    1AU    AUSL  111  41.314  20.507   7.176
    1AU     AUL  112  40.976  20.516   7.245
    1AU    AUSL  113  41.181  20.695   7.787
    1AU    AUSL  114  41.447  20.321   7.890
    1AU     AUL  115  41.147  20.380   7.951
    1AU    AUSL  116  41.954  21.520   7.926
    1AU    AUSL  117  41.499  21.491   7.747
    1AU     AUL  118  41.693  21.722   8.018
    1AU    AUSL  119  41.813  21.465   7.608
    1AU    AUSL  120  42.061  21.597   7.317
    1AU     AUL  121  41.804  21.781   7.607
    1AU    AUSL  122  42.172  21.573   7.637
    1AU    AUSL  123  42.236  21.333   8.018
    1AU     AUL  124  42.285  21.654   7.959
    1AU    AUSL  125  41.936  20.255   8.007
    1AU    AUSL  126  42.277  20.261   7.872
    1AU     AUL  127  42.068  20.183   8.284
    1AU    AUSL  128  41.706  20.151   7.765
    1AU    AUSL  129  41.674  20.427   8.151
    1AU     AUL  130  41.633  20.051   8.085
    1AU    AUSL  131  42.025  20.092   7.701
    1AU    AUSL  132  41.768  20.098   7.424
    1AU     AUL  133  41.565  19.921   7.635
    1AU    AUSL  134  41.923  21.396   7.064
    1AU    AUSL  135  42.328  21.408   7.212
    1AU     AUL  136  42.122  21.575   6.913
    1AU    AUSL  137  41.710  21.573   7.294
    1AU    AUSL  138  41.642  21.252   6.915
    1AU     AUL  139  41.701  21.577   6.909
    1AU    AUSL  140  41.909  20.194   7.115
    1AU    AUSL  141  41.452  20.225   7.341
    1AU     AUL  142  41.640  19.978   7.108
    1AU    AUSL  143  42.131  20.117   7.379
    1AU    AUSL  144  42.200  20.368   7.002
    1AU     AUL  145  42.185  20.061   6.996
    1AU       S  146  42.562  20.099   8.313
    1AU     LIG  147  42.672  19.633   8.333
    1AU     LIG  148  42.783  19.195   8.372
    1AU     LIG  149  43.193  19.018   8.502
    1AU       S  150  42.304  20.552   8.694
    1AU     LIG  151  42.522  20.768   9.054
    1AU     LIG  152  42.815  20.793   9.419
    1AU     LIG  153  42.989  20.663   9.837
    1AU       S  154  41.967  20.516   8.691
    1AU     LIG  155  42.049  20.542   9.152
    1AU     LIG  156  42.407  20.457   9.464
    1AU     LIG  157  42.774  20.226   9.668
    1AU       S  158  41.582  21.021   8.741
    1AU     LIG  159  41.414  20.954   9.151
    1AU     LIG  160  41.107  20.738   9.400
    1AU     LIG  161  40.869  20.766   9.806
    1AU       S  162  42.166  21.509   8.509
    1AU     LIG  163  42.407  21.718   8.826
    1AU     LIG  164  42.707  21.559   9.101
    1AU     LIG  165  43.055  21.287   9.139
    1AU       S  166  42.815  21.363   8.212
    1AU     LIG  167  43.021  21.458   8.628
    1AU     LIG  168  43.219  21.775   8.895
    1AU     LIG  169  43.302  22.226   9.035
    1AU       S  170  42.269  21.066   6.359
    1AU     LIG  171  42.389  21.132   5.924
    1AU     LIG  172  42.755  20.917   5.754
    1AU     LIG  173  42.743  20.512   5.557
    1AU       S  174  42.586  21.566   6.738
    1AU     LIG  175  42.707  21.992   6.639
    1AU     LIG  176  42.951  22.057   6.282
    1AU     LIG  177  43.237  22.146   5.936
    1AU       S  178  42.801  20.269   6.860
    1AU     LIG  179  43.091  20.045   6.598
    1AU     LIG  180  43.066  19.663   6.363
    1AU     LIG  181  42.781  19.376   6.136
    1AU       S  182  42.143  20.832   6.280
    1AU     LIG  183  42.310  20.627   5.902
    1AU     LIG  184  42.240  20.433   5.503
    1AU     LIG  185  42.325  20.511   5.072
    1AU       S  186  41.618  20.744   6.327
    1AU     LIG  187  41.776  20.586   5.903
    1AU     LIG  188  41.738  20.492   5.446
    1AU     LIG  189  41.394  20.538   5.139
    1AU       S  190  41.995  21.082   6.403
    1AU     LIG  191  41.826  21.085   5.966
    1AU     LIG  192  42.032  20.921   5.580
    1AU     LIG  193  42.437  20.905   5.369
    1AU       S  194  41.325  21.043   8.634
    1AU     LIG  195  41.047  20.758   8.826
    1AU     LIG  196  40.916  20.408   9.029
    1AU     LIG  197  40.779  20.337   9.429
    1AU       S  198  41.207  21.653   8.192
    1AU     LIG  199  40.878  21.931   8.395
    1AU     LIG  200  40.693  21.876   8.839
    1AU     LIG  201  40.461  22.117   9.181
    1AU       S  202  41.247  20.400   8.485
    1AU     LIG  203  40.807  20.390   8.527
    1AU     LIG  204  40.575  20.085   8.734
    1AU     LIG  205  40.426  19.722   8.980
    1AU       S  206  41.531  20.770   8.656
    1AU     LIG  207  41.450  20.470   8.998
    1AU     LIG  208  41.289  20.253   9.368
    1AU     LIG  209  41.144  20.335   9.811
    1AU       S  210  41.334  20.713   6.423
    1AU     LIG  211  41.302  20.429   6.078
    1AU     LIG  212  41.283  20.567   5.667
    1AU     LIG  213  40.989  20.792   5.409
    1AU       S  214  41.222  20.018   6.836
    1AU     LIG  215  41.256  19.753   6.449
    1AU     LIG  216  41.040  19.569   6.064
    1AU     LIG  217  40.682  19.411   5.783
    1AU       S  218  41.118  21.243   6.669
    1AU     LIG  219  40.795  21.560   6.620
    1AU     LIG  220  40.689  21.847   6.294
    1AU     LIG  221  40.655  22.100   5.931
    1AU       S  222  41.509  20.984   6.444
    1AU     LIG  223  41.205  21.123   6.160
    1AU     LIG  224  41.236  21.113   5.730
    1AU     LIG  225  41.535  20.959   5.444
    1AU       S  226  42.770  21.527   6.946
    1AU     LIG  227  43.109  21.677   6.651
    1AU     LIG  228  43.338  21.718   6.239
    1AU     LIG  229  43.685  21.892   5.962
    1AU       S  230  42.876  21.529   7.443
    1AU     LIG  231  43.207  21.849   7.524
    1AU     LIG  232  43.627  21.716   7.413
    1AU     LIG  233  44.040  21.697   7.642
    1AU       S  234  43.103  21.291   7.381
    1AU     LIG  235  43.542  21.135   7.443
    1AU     LIG  236  43.942  21.282   7.307
    1AU     LIG  237  44.023  21.675   7.094
    1AU       S  238  43.017  20.251   7.683
    1AU     LIG  239  43.359  20.192   7.962
    1AU     LIG  240  43.634  19.862   7.950
    1AU     LIG  241  43.912  19.771   7.641
    1AU       S  242  42.794  21.584   7.973
    1AU     LIG  243  43.169  21.766   8.194
    1AU     LIG  244  43.272  22.119   8.498
    1AU     LIG  245  42.973  22.422   8.669
    1AU       S  246  43.071  21.393   7.601
    1AU     LIG  247  43.469  21.472   7.828
    1AU     LIG  248  43.896  21.241   7.842
    1AU     LIG  249  44.242  21.067   8.146
    1AU       S  250  41.079  21.387   8.204
    1AU     LIG  251  40.727  21.458   8.458
    1AU     LIG  252  40.360  21.734   8.474
    1AU     LIG  253  40.163  21.799   8.892
    1AU       S  254  41.198  21.799   7.409
    1AU     LIG  255  41.182  22.217   7.292
    1AU     LIG  256  40.912  22.352   6.946
    1AU     LIG  257  40.586  22.047   6.758
    1AU       S  258  40.725  21.019   6.989
    1AU     LIG  259  40.260  20.975   7.087
    1AU     LIG  260  39.880  21.233   7.169
    1AU     LIG  261  39.732  21.699   7.173
    1AU       S  262  41.211  21.693   6.888
    1AU     LIG  263  41.088  22.021   6.593
    1AU     LIG  264  40.806  22.346   6.408
    1AU     LIG  265  40.550  22.577   6.116
    1AU       S  266  40.681  20.510   7.647
    1AU     LIG  267  40.273  20.643   7.523
    1AU     LIG  268  39.903  20.653   7.296
    1AU     LIG  269  39.584  20.371   7.188
    1AU       S  270  40.765  21.035   8.000
    1AU     LIG  271  40.372  21.246   8.166
    1AU     LIG  272  40.030  21.524   8.027
    1AU     LIG  273  39.789  21.451   7.634
    1AU       S  274  42.753  20.039   7.598
    1AU     LIG  275  42.968  19.627   7.496
    1AU     LIG  276  43.342  19.501   7.666
    1AU     LIG  277  43.633  19.491   7.317
    1AU       S  278  42.738  20.132   8.096
    1AU     LIG  279  43.028  19.806   7.975
    1AU     LIG  280  43.189  19.540   8.282
    1AU     LIG  281  43.036  19.488   8.715
    1AU       S  282  42.961  20.137   7.476
    1AU     LIG  283  43.378  19.963   7.473
    1AU     LIG  284  43.737  20.011   7.230
    1AU     LIG  285  44.052  19.734   7.104
    1AU       S  286  42.699  20.040   7.073
    1AU     LIG  287  42.943  19.685   6.937
    1AU     LIG  288  42.743  19.399   6.660
    1AU     LIG  289  42.284  19.426   6.580
    1AU       S  290  41.070  20.177   6.892
    1AU     LIG  291  40.801  19.969   6.529
    1AU     LIG  292  40.553  19.668   6.238
    1AU     LIG  293  40.239  19.340   6.096
    1AU       S  294  40.767  20.253   7.649
    1AU     LIG  295  40.307  20.144   7.665
    1AU     LIG  296  40.029  20.123   7.299
    1AU     LIG  297  39.690  19.850   7.114
    1AU       S  298  41.239  20.153   8.382
    1AU     LIG  299  40.832  19.942   8.262
    1AU     LIG  300  40.645  19.526   8.266
    1AU     LIG  301  40.457  19.396   8.600
    1AU       S  302  40.714  20.574   7.807
    1AU     LIG  303  40.471  20.391   8.123
    1AU     LIG  304  40.036  20.332   8.092
    1AU     LIG  305  39.813  20.354   7.711
    1AU       S  306  41.200  21.803   7.902
    1AU     LIG  307  40.864  22.138   7.871
    1AU     LIG  308  40.566  22.307   8.174
    1AU     LIG  309  40.478  22.254   8.583
    1AU       S  310  42.061  22.093   7.923
    1AU     LIG  311  42.263  22.405   8.143
    1AU     LIG  312  42.061  22.714   8.380
    1AU     LIG  313  41.760  22.983   8.589
    1AU       S  314  42.064  22.269   7.667
    1AU     LIG  315  41.868  22.626   7.856
    1AU     LIG  316  41.737  23.011   8.062
    1AU     LIG  317  41.558  23.366   8.310
    1AU       S  318  42.051  22.021   7.208
    1AU     LIG  319  41.875  22.480   7.252
    1AU     LIG  320  41.872  22.922   7.166
    1AU     LIG  321  42.083  23.275   6.976
    1AU       S  322  42.630  21.540   8.298
    1AU     LIG  323  42.795  21.909   8.548
    1AU     LIG  324  42.802  22.051   8.989
    1AU     LIG  325  43.008  21.884   9.368
    1AU       S  326  42.303  22.045   7.633
    1AU     LIG  327  42.476  22.530   7.687
    1AU     LIG  328  42.295  22.898   7.952
    1AU     LIG  329  42.150  23.208   8.295
    1AU       S  330  42.076  19.718   8.088
    1AU     LIG  331  42.310  19.303   8.155
    1AU     LIG  332  42.313  18.837   8.296
    1AU     LIG  333  42.216  18.388   8.420
    1AU       S  334  42.506  19.982   8.018
    1AU     LIG  335  42.588  19.583   7.821
    1AU     LIG  336  42.918  19.299   7.901
    1AU     LIG  337  43.312  19.123   8.026
    1AU       S  338  41.869  19.621   7.908
    1AU     LIG  339  41.837  19.162   8.009
    1AU     LIG  340  41.650  18.753   8.143
    1AU     LIG  341  41.369  18.593   8.473
    1AU       S  342  41.506  20.283   8.536
    1AU     LIG  343  41.200  20.028   8.848
    1AU     LIG  344  40.895  19.680   8.742
    1AU     LIG  345  40.766  19.308   8.994
    1AU       S  346  41.901  19.618   7.389
    1AU     LIG  347  41.697  19.265   7.152
    1AU     LIG  348  41.982  19.065   6.884
    1AU     LIG  349  42.129  18.632   6.883
    1AU       S  350  42.110  19.727   7.838
    1AU     LIG  351  42.192  19.306   7.648
    1AU     LIG  352  42.265  18.921   7.807
    1AU     LIG  353  42.052  18.541   7.916
    1AU       S  354  41.903  22.025   6.989
    1AU     LIG  355  41.945  22.420   6.747
    1AU     LIG  356  42.002  22.869   6.665
    1AU     LIG  357  42.052  23.257   6.427
    1AU       S  358  42.593  21.717   7.081
    1AU     LIG  359  42.991  21.980   7.070
    1AU     LIG  360  43.238  22.185   6.726
    1AU     LIG  361  43.501  22.181   6.366
    1AU       S  362  41.661  22.017   7.179
    1AU     LIG  363  41.462  22.313   6.885
    1AU     LIG  364  41.523  22.761   6.829
    1AU     LIG  365  41.619  23.238   6.769
    1AU       S  366  41.319  21.425   6.619
    1AU     LIG  367  41.161  21.630   6.254
    1AU     LIG  368  41.139  22.048   6.069
    1AU     LIG  369  41.020  22.478   5.940
    1AU       S  370  41.124  19.987   7.155
    1AU     LIG  371  40.887  19.644   6.923
    1AU     LIG  372  40.867  19.420   6.549
    1AU     LIG  373  40.761  19.162   6.219
    1AU       S  374  42.027  19.622   7.152
    1AU     LIG  375  41.808  19.538   6.732
    1AU     LIG  376  41.834  19.229   6.402
    1AU     LIG  377  41.984  18.825   6.430
    1AU       S  378  42.230  19.720   7.375
    1AU     LIG  379  42.546  19.553   7.234
    1AU     LIG  380  42.431  19.246   7.027
    1AU     LIG  381  42.460  18.974   6.696
    1AU       S  382  42.609  20.112   6.754
    1AU     LIG  383  42.567  19.826   6.387
    1AU     LIG  384  42.305  19.549   6.096
    1AU     LIG  385  42.336  19.093   6.162
    2AU     AUC  386  29.262  40.000   7.535
    2AU     AUC  387  29.513  39.987   7.370
    2AU     AUC  388  29.517  40.002   7.692
    2AU     AUC  389  28.999  39.989   7.383
    2AU     AUC  390  29.007  40.025   7.699
    2AU     AUC  391  29.116  40.257   7.510
    2AU     AUC  392  29.433  40.253   7.510
    2AU     AUC  393  29.098  39.745   7.561
    2AU     AUC  394  29.413  39.739   7.550
    2AU     AUC  395  29.258  39.864   7.806
    2AU     AUC  396  29.276  40.183   7.778
    2AU     AUC  397  29.254  39.820   7.289
    2AU     AUC  398  29.259  40.135   7.262
    2AU     AUC  399  29.767  39.986   7.206
    2AU     AUC  400  29.769  39.984   7.530
    2AU     AUC  401  29.770  39.988   7.854
    2AU     AUC  402  28.741  39.970   7.230
    2AU     AUC  403  28.740  40.020   7.551
    2AU     AUC  404  28.758  40.061   7.866
    2AU     AUC  405  28.967  40.514   7.474
    2AU     AUC  406  29.306  40.513   7.471
    2AU     AUC  407  29.620  40.507   7.484
    2AU     AUC  408  28.934  39.492   7.589
    2AU     AUC  409  29.261  39.480   7.566
    2AU     AUC  410  29.576  39.477   7.564
    2AU     AUC  411  29.257  39.727   8.076
    2AU     AUC  412  29.265  40.052   8.064
    2AU     AUC  413  29.299  40.371   8.020
    2AU     AUC  414  29.260  39.642   7.043
    2AU     AUC  415  29.243  39.952   7.014
    2AU     AUC  416  29.251  40.265   6.992
    2AU     AUC  417  29.510  39.853   7.970
    2AU     AUC  418  29.542  40.176   7.945
    2AU     AUC  419  29.523  39.821   7.112
    2AU     AUC  420  29.510  40.136   7.092
    2AU     AUC  421  29.004  39.897   7.978
    2AU     AUC  422  29.016  40.222   7.946
    2AU     AUC  423  28.988  39.789   7.140
    2AU     AUC  424  28.984  40.111   7.102
    2AU     AUC  425  29.695  40.241   7.351
    2AU     AUC  426  29.695  40.261   7.675
    2AU     AUC  427  28.841  40.259   7.343
    2AU     AUC  428  28.852  40.303   7.671
    2AU     AUC  429  29.665  39.717   7.379
    2AU     AUC  430  29.671  39.731   7.710
    2AU     AUC  431  28.829  39.727   7.422
    2AU     AUC  432  28.832  39.762   7.736
    2AU     AUC  433  29.131  40.442   7.765
    2AU     AUC  434  29.472  40.438   7.754
    2AU     AUC  435  29.096  39.604   7.835
    2AU     AUC  436  29.414  39.589   7.824
    2AU     AUC  437  29.103  40.400   7.233
    2AU     AUC  438  29.441  40.402   7.235
    2AU     AUC  439  29.093  39.551   7.313
    2AU     AUC  440  29.428  39.563   7.294
    2AU    AUSL  441  29.682  39.960   8.166
    2AU    AUSL  442  29.560  39.613   8.157
    2AU     AUL  443  29.942  39.763   8.297
    2AU    AUSL  444  29.363  39.880   8.297
    2AU    AUSL  445  29.148  40.245   8.276
    2AU     AUL  446  29.412  40.163   8.568
    2AU    AUSL  447  29.485  40.255   8.233
    2AU    AUSL  448  29.848  40.234   8.018
    2AU     AUL  449  29.808  40.165   8.417
    2AU    AUSL  450  29.679  40.030   6.895
    2AU    AUSL  451  29.569  40.381   6.908
    2AU     AUL  452  29.944  40.179   6.759
    2AU    AUSL  453  29.456  39.787   6.812
    2AU    AUSL  454  29.835  39.742   7.041
    2AU     AUL  455  29.806  39.776   6.660
    2AU    AUSL  456  29.338  40.100   6.779
    2AU    AUSL  457  29.111  39.756   6.823
    2AU     AUL  458  29.332  39.641   6.586
    2AU    AUSL  459  28.828  40.175   8.160
    2AU    AUSL  460  29.014  40.508   8.042
    2AU     AUL  461  28.963  40.532   8.374
    2AU    AUSL  462  29.015  39.907   8.262
    2AU    AUSL  463  28.750  39.786   8.049
    2AU     AUL  464  28.561  39.986   8.202
    2AU    AUSL  465  28.793  39.835   6.923
    2AU    AUSL  466  28.953  39.497   7.037
    2AU     AUL  467  28.913  39.494   6.690
    2AU    AUSL  468  28.988  40.090   6.829
    2AU    AUSL  469  28.714  40.232   7.035
    2AU     AUL  470  28.531  39.979   6.907
    2AU    AUSL  471  29.935  40.415   7.432
    2AU    AUSL  472  29.837  40.261   7.108
    2AU     AUL  473  30.171  40.189   7.072
    2AU    AUSL  474  30.028  40.088   7.369
    2AU    AUSL  475  30.007  39.842   7.689
    2AU     AUL  476  30.337  39.924   7.538
    2AU    AUSL  477  29.915  40.177   7.682
    2AU    AUSL  478  29.817  40.527   7.751
    2AU     AUL  479  30.137  40.245   7.788
    2AU    AUSL  480  28.683  40.500   7.493
    2AU    AUSL  481  28.694  40.377   7.915
    2AU     AUL  482  28.377  40.526   7.673
    2AU    AUSL  483  28.539  40.186   7.320
    2AU    AUSL  484  28.819  40.548   7.173
    2AU     AUL  485  28.452  40.491   7.208
    2AU    AUSL  486  28.530  40.185   7.691
    2AU    AUSL  487  28.519  39.876   7.446
    2AU     AUL  488  28.232  40.158   7.477
    2AU    AUSL  489  29.873  39.532   7.616
    2AU    AUSL  490  29.821  39.707   7.952
    2AU     AUL  491  30.161  39.760   7.939
    2AU    AUSL  492  29.880  39.777   7.378
    2AU    AUSL  493  29.763  39.452   7.274
    2AU     AUL  494  30.113  39.701   7.287
    2AU    AUSL  495  28.604  39.567   7.568
    2AU    AUSL  496  28.673  39.668   7.192
    2AU     AUL  497  28.348  39.773   7.219
    2AU    AUSL  498  28.535  39.856   7.791
    2AU    AUSL  499  28.805  39.478   7.885
    2AU     AUL  500  28.499  39.522   7.931
    2AU    AUSL  501  29.319  40.677   7.930
    2AU    AUSL  502  28.869  40.654   7.752
    2AU     AUL  503  29.065  40.873   8.043
    2AU    AUSL  504  29.180  40.615   7.611
    2AU    AUSL  505  29.428  40.755   7.322
    2AU     AUL  506  29.177  40.926   7.627
    2AU    AUSL  507  29.536  40.730   7.641
    2AU    AUSL  508  29.601  40.489   8.022
    2AU     AUL  509  29.652  40.818   7.953
    2AU    AUSL  510  29.290  39.409   8.003
    2AU    AUSL  511  29.634  39.416   7.873
    2AU     AUL  512  29.419  39.339   8.284
    2AU    AUSL  513  29.060  39.296   7.763
    2AU    AUSL  514  29.028  39.580   8.152
    2AU     AUL  515  28.989  39.204   8.084
    2AU    AUSL  516  29.384  39.246   7.698
    2AU    AUSL  517  29.132  39.256   7.423
    2AU     AUL  518  28.942  39.048   7.612
    2AU    AUSL  519  29.288  40.555   7.068
    2AU    AUSL  520  29.695  40.566   7.212
    2AU     AUL  521  29.490  40.747   6.926
    2AU    AUSL  522  29.077  40.732   7.300
    2AU    AUSL  523  29.008  40.411   6.915
    2AU     AUL  524  29.074  40.733   6.911
    2AU    AUSL  525  29.260  39.353   7.113
    2AU    AUSL  526  28.813  39.382   7.354
    2AU     AUL  527  28.987  39.125   7.114
    2AU    AUSL  528  29.489  39.281   7.375
    2AU    AUSL  529  29.554  39.531   7.007
    2AU     AUL  530  29.523  39.231   6.987
    2AU       S  531  29.906  39.222   8.312
    2AU     LIG  532  29.916  38.713   8.349
    2AU     LIG  533  29.936  38.199   8.448
    2AU     LIG  534  30.354  37.985   8.604
    2AU       S  535  29.650  39.711   8.709
    2AU     LIG  536  29.842  39.905   9.116
    2AU     LIG  537  30.052  39.972   9.548
    2AU     LIG  538  30.296  39.949   9.969
    2AU       S  539  29.316  39.670   8.692
    2AU     LIG  540  29.342  39.713   9.157
    2AU     LIG  541  29.645  39.624   9.521
    2AU     LIG  542  29.888  39.613   9.930
    2AU       S  543  28.938  40.167   8.744
    2AU     LIG  544  28.896  40.075   9.177
    2AU     LIG  545  28.609  39.878   9.478
    2AU     LIG  546  28.411  39.918   9.909
    2AU       S  547  29.519  40.666   8.516
    2AU     LIG  548  29.650  40.830   8.931
    2AU     LIG  549  30.003  40.704   9.169
    2AU     LIG  550  30.287  40.349   9.194
    2AU       S  551  30.166  40.497   8.232
    2AU     LIG  552  30.267  40.545   8.693
    2AU     LIG  553  30.450  40.847   8.953
    2AU     LIG  554  30.691  41.208   9.109
    2AU       S  555  29.631  40.248   6.372
    2AU     LIG  556  29.843  40.203   5.966
    2AU     LIG  557  30.114  39.846   5.885
    2AU     LIG  558  30.038  39.421   5.734
    2AU       S  559  29.931  40.690   6.700
    2AU     LIG  560  30.043  41.071   6.475
    2AU     LIG  561  30.191  41.316   6.124
    2AU     LIG  562  30.554  41.479   5.938
    2AU       S  563  30.153  39.427   6.863
    2AU     LIG  564  30.353  39.358   6.458
    2AU     LIG  565  30.335  39.103   6.090
    2AU     LIG  566  30.424  38.670   6.002
    2AU       S  567  29.488  40.009   6.289
    2AU     LIG  568  29.596  39.751   5.936
    2AU     LIG  569  29.559  39.558   5.538
    2AU     LIG  570  29.874  39.472   5.219
    2AU       S  571  28.961  39.899   6.345
    2AU     LIG  572  29.089  39.913   5.920
    2AU     LIG  573  29.059  39.721   5.510
    2AU     LIG  574  28.716  39.812   5.193
    2AU       S  575  29.342  40.248   6.405
    2AU     LIG  576  29.332  40.353   5.947
    2AU     LIG  577  29.459  40.104   5.585
    2AU     LIG  578  29.872  39.948   5.450
    2AU       S  579  28.683  40.183   8.643
    2AU     LIG  580  28.448  39.932   8.924
    2AU     LIG  581  28.287  39.609   9.168
    2AU     LIG  582  28.214  39.537   9.614
    2AU       S  583  28.568  40.817   8.177
    2AU     LIG  584  28.330  40.992   8.513
    2AU     LIG  585  28.061  40.855   8.858
    2AU     LIG  586  27.765  41.085   9.139
    2AU       S  587  28.572  39.559   8.468
    2AU     LIG  588  28.100  39.480   8.387
    2AU     LIG  589  27.777  39.153   8.279
    2AU     LIG  590  27.585  38.784   8.498
    2AU       S  591  28.881  39.916   8.653
    2AU     LIG  592  28.839  39.607   9.002
    2AU     LIG  593  28.698  39.378   9.373
    2AU     LIG  594  28.686  39.469   9.822
    2AU       S  595  28.671  39.880   6.433
    2AU     LIG  596  28.611  39.716   6.029
    2AU     LIG  597  28.623  39.949   5.674
    2AU     LIG  598  28.420  40.286   5.469
    2AU       S  599  28.538  39.195   6.894
    2AU     LIG  600  28.295  38.913   6.632
    2AU     LIG  601  28.263  38.911   6.170
    2AU     LIG  602  27.886  38.843   5.911
    2AU       S  603  28.481  40.420   6.660
    2AU     LIG  604  28.156  40.768   6.618
    2AU     LIG  605  27.974  41.177   6.431
    2AU     LIG  606  27.940  41.546   6.114
    2AU       S  607  28.859  40.133   6.452
    2AU     LIG  608  28.682  40.281   6.093
    2AU     LIG  609  28.867  40.403   5.718
    2AU     LIG  610  28.997  40.198   5.364
    2AU       S  611  30.128  40.668   6.912
    2AU     LIG  612  30.466  40.819   6.621
    2AU     LIG  613  30.625  41.014   6.214
    2AU     LIG  614  31.036  41.075   5.994
    2AU       S  615  30.247  40.657   7.410
    2AU     LIG  616  30.600  40.837   7.152
    2AU     LIG  617  31.050  40.922   7.279
    2AU     LIG  618  31.286  40.981   7.672
    2AU       S  619  30.473  40.414   7.398
    2AU     LIG  620  30.862  40.369   7.163
    2AU     LIG  621  31.288  40.466   7.238
    2AU     LIG  622  31.617  40.776   7.341
    2AU       S  623  30.356  39.383   7.675
    2AU     LIG  624  30.682  39.315   7.916
    2AU     LIG  625  31.130  39.296   7.817
    2AU     LIG  626  31.509  39.188   8.044
    2AU       S  627  30.157  40.731   8.002
    2AU     LIG  628  30.437  40.921   8.346
    2AU     LIG  629  30.449  41.277   8.651
    2AU     LIG  630  30.398  41.615   8.981
    2AU       S  631  30.427  40.583   7.601
    2AU     LIG  632  30.924  40.551   7.635
    2AU     LIG  633  31.391  40.465   7.731
    2AU     LIG  634  31.710  40.750   7.886
    2AU       S  635  28.424  40.553   8.203
    2AU     LIG  636  27.987  40.639   8.362
    2AU     LIG  637  27.622  40.854   8.565
    2AU     LIG  638  27.400  41.183   8.786
    2AU       S  639  28.571  40.972   7.400
    2AU     LIG  640  28.313  41.340   7.431
    2AU     LIG  641  27.969  41.386   7.138
    2AU     LIG  642  27.819  41.009   6.921
    2AU       S  643  28.068  40.222   6.995
    2AU     LIG  644  27.591  40.206   7.151
    2AU     LIG  645  27.190  40.456   7.153
    2AU     LIG  646  27.131  40.892   6.995
    2AU       S  647  28.590  40.862   6.878
    2AU     LIG  648  28.404  41.249   6.710
    2AU     LIG  649  28.119  41.613   6.696
    2AU     LIG  650  27.805  41.871   6.501
    2AU       S  651  28.047  39.674   7.609
    2AU     LIG  652  27.618  39.811   7.508
    2AU     LIG  653  27.318  39.759   7.181
    2AU     LIG  654  27.169  39.380   7.015
    2AU       S  655  28.126  40.186   7.988
    2AU     LIG  656  27.793  40.166   8.288
    2AU     LIG  657  27.441  40.447   8.263
    2AU     LIG  658  27.155  40.471   7.910
    2AU       S  659  30.107  39.193   7.598
    2AU     LIG  660  30.434  38.868   7.664
    2AU     LIG  661  30.843  38.850   7.839
    2AU     LIG  662  31.273  38.795   7.757
    2AU       S  663  30.093  39.278   8.101
    2AU     LIG  664  30.374  38.931   8.153
    2AU     LIG  665  30.706  38.778   8.434
    2AU     LIG  666  30.612  38.877   8.878
    2AU       S  667  30.319  39.295   7.448
    2AU     LIG  668  30.757  39.176   7.413
    2AU     LIG  669  31.190  39.074   7.345
    2AU     LIG  670  31.559  38.979   7.089
    2AU       S  671  30.025  39.190   7.083
    2AU     LIG  672  30.393  38.987   6.975
    2AU     LIG  673  30.417  38.839   6.555
    2AU     LIG  674  30.135  38.554   6.410
    2AU       S  675  28.400  39.341   6.982
    2AU     LIG  676  28.173  39.400   6.576
    2AU     LIG  677  27.851  39.145   6.359
    2AU     LIG  678  27.514  38.840   6.280
    2AU       S  679  28.151  39.429   7.571
    2AU     LIG  680  27.704  39.308   7.678
    2AU     LIG  681  27.283  39.272   7.506
    2AU     LIG  682  27.052  38.894   7.579
    2AU       S  683  28.590  39.310   8.373
    2AU     LIG  684  28.268  38.999   8.247
    2AU     LIG  685  28.058  38.610   8.382
    2AU     LIG  686  28.006  38.189   8.586
    2AU       S  687  28.071  39.727   7.783
    2AU     LIG  688  27.689  39.711   8.015
    2AU     LIG  689  27.261  39.642   7.852
    2AU     LIG  690  26.889  39.371   7.821
    2AU       S  691  28.588  40.968   7.889
    2AU     LIG  692  28.189  41.172   7.923
    2AU     LIG  693  27.907  41.140   8.249
    2AU     LIG  694  27.906  41.298   8.674
    2AU       S  695  29.417  41.259   7.944
    2AU     LIG  696  29.693  41.564   8.176
    2AU     LIG  697  29.628  41.967   8.420
    2AU     LIG  698  29.200  42.192   8.365
    2AU       S  699  29.361  41.432   7.677
    2AU     LIG  700  29.036  41.699   7.819
    2AU     LIG  701  28.878  42.115   7.944
    2AU     LIG  702  29.039  42.547   8.002
    2AU       S  703  29.383  41.188   7.218
    2AU     LIG  704  29.232  41.654   7.231
    2AU     LIG  705  29.563  41.982   7.200
    2AU     LIG  706  29.821  42.155   6.865
    2AU       S  707  29.975  40.678   8.304
    2AU     LIG  708  30.012  40.997   8.620
    2AU     LIG  709  30.080  41.195   9.022
    2AU     LIG  710  30.290  41.084   9.417
    2AU       S  711  29.635  41.223   7.641
    2AU     LIG  712  29.739  41.725   7.681
    2AU     LIG  713  29.466  41.981   7.950
    2AU     LIG  714  29.594  42.408   8.132
    2AU       S  715  29.440  38.877   8.083
    2AU     LIG  716  29.541  38.424   8.167
    2AU     LIG  717  29.413  38.088   8.432
    2AU     LIG  718  29.628  37.741   8.655
    2AU       S  719  29.874  39.132   8.025
    2AU     LIG  720  29.981  38.729   7.840
    2AU     LIG  721  30.016  38.296   7.943
    2AU     LIG  722  30.360  37.994   8.078
    2AU       S  723  29.236  38.774   7.911
    2AU     LIG  724  29.121  38.308   7.894
    2AU     LIG  725  29.127  37.857   8.053
    2AU     LIG  726  29.129  37.632   8.462
    2AU       S  727  28.844  39.436   8.530
    2AU     LIG  728  28.496  39.252   8.854
    2AU     LIG  729  28.095  39.034   8.735
    2AU     LIG  730  27.917  38.628   8.878
    2AU       S  731  29.319  38.789   7.378
    2AU     LIG  732  29.165  38.386   7.382
    2AU     LIG  733  29.145  38.123   7.051
    2AU     LIG  734  29.317  37.782   6.873
    2AU       S  735  29.490  38.884   7.832
    2AU     LIG  736  29.573  38.470   7.671
    2AU     LIG  737  29.534  38.028   7.765
    2AU     LIG  738  29.670  37.772   8.137
    2AU       S  739  29.237  41.190   6.994
    2AU     LIG  740  29.083  41.449   6.624
    2AU     LIG  741  29.244  41.780   6.293
    2AU     LIG  742  29.621  42.067   6.376
    2AU       S  743  29.977  40.852   7.045
    2AU     LIG  744  30.278  41.190   6.917
    2AU     LIG  745  30.511  41.390   6.544
    2AU     LIG  746  30.916  41.487   6.302
    2AU       S  747  29.017  41.162   7.205
    2AU     LIG  748  28.718  41.442   7.079
    2AU     LIG  749  28.809  41.808   6.859
    2AU     LIG  750  29.248  41.928   6.770
    2AU       S  751  28.697  40.588   6.611
    2AU     LIG  752  28.534  40.871   6.297
    2AU     LIG  753  28.410  41.300   6.179
    2AU     LIG  754  28.386  41.747   6.267
    2AU       S  755  28.459  39.161   7.220
    2AU     LIG  756  28.016  39.032   7.102
    2AU     LIG  757  27.789  38.834   6.767
    2AU     LIG  758  27.939  38.592   6.397
    2AU       S  759  29.406  38.779   7.138
    2AU     LIG  760  29.598  38.711   6.687
    2AU     LIG  761  29.670  38.353   6.398
    2AU     LIG  762  29.560  37.906   6.453
    2AU       S  763  29.643  38.886   7.367
    2AU     LIG  764  30.067  38.735   7.316
    2AU     LIG  765  30.013  38.568   6.931
    2AU     LIG  766  29.661  38.241   6.916
    2AU       S  767  29.970  39.263   6.787
    2AU     LIG  768  29.939  39.030   6.423
    2AU     LIG  769  29.908  38.807   6.030
    2AU     LIG  770  29.977  38.377   5.937
    3AU     AUC  771  16.019  33.434   7.530
    3AU     AUC  772  16.269  33.427   7.362
    3AU     AUC  773  16.278  33.436   7.683
    3AU     AUC  774  15.754  33.421   7.382
    3AU     AUC  775  15.767  33.453   7.700
    3AU     AUC  776  15.868  33.688   7.514
    3AU     AUC  777  16.187  33.689   7.509
    3AU     AUC  778  15.857  33.177   7.556
    3AU     AUC  779  16.173  33.174   7.537
    3AU     AUC  780  16.023  33.294   7.799
    3AU     AUC  781  16.037  33.612   7.778
    3AU     AUC  782  16.009  33.260   7.282
    3AU     AUC  783  16.012  33.576   7.261
    3AU     AUC  784  16.523  33.434   7.193
    3AU     AUC  785  16.529  33.423   7.515
    3AU     AUC  786  16.536  33.421   7.838
    3AU     AUC  787  15.496  33.393   7.229
    3AU     AUC  788  15.494  33.437   7.554
    3AU     AUC  789  15.523  33.486   7.874
    3AU     AUC  790  15.713  33.942   7.486
    3AU     AUC  791  16.053  33.948   7.479
    3AU     AUC  792  16.368  33.945   7.488
    3AU     AUC  793  15.698  32.922   7.586
    3AU     AUC  794  16.019  32.914   7.551
    3AU     AUC  795  16.335  32.912   7.542
    3AU     AUC  796  16.029  33.155   8.068
    3AU     AUC  797  16.035  33.478   8.061
    3AU     AUC  798  16.064  33.796   8.024
    3AU     AUC  799  16.019  33.090   7.032
    3AU     AUC  800  16.003  33.403   7.009
    3AU     AUC  801  15.999  33.714   6.993
    3AU     AUC  802  16.278  33.282   7.957
    3AU     AUC  803  16.307  33.606   7.940
    3AU     AUC  804  16.279  33.269   7.101
    3AU     AUC  805  16.263  33.586   7.089
    3AU     AUC  806  15.773  33.323   7.980
    3AU     AUC  807  15.782  33.647   7.951
    3AU     AUC  808  15.745  33.232   7.135
    3AU     AUC  809  15.739  33.551   7.100
    3AU     AUC  810  16.446  33.685   7.347
    3AU     AUC  811  16.453  33.696   7.669
    3AU     AUC  812  15.592  33.686   7.351
    3AU     AUC  813  15.610  33.728   7.679
    3AU     AUC  814  16.423  33.157   7.361
    3AU     AUC  815  16.435  33.166   7.691
    3AU     AUC  816  15.581  33.158   7.418
    3AU     AUC  817  15.601  33.190   7.744
    3AU     AUC  818  15.888  33.869   7.772
    3AU     AUC  819  16.228  33.869   7.756
    3AU     AUC  820  15.862  33.034   7.831
    3AU     AUC  821  16.180  33.021   7.807
    3AU     AUC  822  15.847  33.837   7.241
    3AU     AUC  823  16.185  33.845   7.239
    3AU     AUC  824  15.848  32.990   7.301
    3AU     AUC  825  16.182  33.001   7.277
    3AU    AUSL  826  16.451  33.388   8.149
    3AU    AUSL  827  16.335  33.043   8.139
    3AU     AUL  828  16.726  33.212   8.265
    3AU    AUSL  829  16.137  33.303   8.288
    3AU    AUSL  830  15.923  33.663   8.278
    3AU     AUL  831  16.185  33.576   8.568
    3AU    AUSL  832  16.259  33.678   8.235
    3AU    AUSL  833  16.615  33.666   8.005
    3AU     AUL  834  16.591  33.589   8.402
    3AU    AUSL  835  16.443  33.497   6.889
    3AU    AUSL  836  16.310  33.842   6.913
    3AU     AUL  837  16.677  33.710   6.741
    3AU    AUSL  838  16.234  33.246   6.803
    3AU    AUSL  839  16.580  33.189   7.021
    3AU     AUL  840  16.598  33.289   6.652
    3AU    AUSL  841  16.098  33.553   6.775
    3AU    AUSL  842  15.889  33.218   6.818
    3AU     AUL  843  16.116  33.091   6.586
    3AU    AUSL  844  15.601  33.599   8.170
    3AU    AUSL  845  15.779  33.933   8.052
    3AU     AUL  846  15.770  33.953   8.387
    3AU    AUSL  847  15.788  33.329   8.264
    3AU    AUSL  848  15.518  33.210   8.049
    3AU     AUL  849  15.334  33.398   8.214
    3AU    AUSL  850  15.570  33.271   6.913
    3AU    AUSL  851  15.708  32.957   7.021
    3AU     AUL  852  15.787  32.921   6.696
    3AU    AUSL  853  15.749  33.544   6.820
    3AU    AUSL  854  15.472  33.667   7.046
    3AU     AUL  855  15.314  33.446   6.880
    3AU    AUSL  856  16.683  33.862   7.429
    3AU    AUSL  857  16.585  33.724   7.107
    3AU     AUL  858  16.913  33.664   7.051
    3AU    AUSL  859  16.782  33.537   7.347
    3AU    AUSL  860  16.772  33.279   7.665
    3AU     AUL  861  17.097  33.372   7.498
    3AU    AUSL  862  16.675  33.612   7.667
    3AU    AUSL  863  16.570  33.961   7.751
    3AU     AUL  864  16.899  33.682   7.772
    3AU    AUSL  865  15.425  33.918   7.505
    3AU    AUSL  866  15.458  33.799   7.931
    3AU     AUL  867  15.135  33.954   7.709
    3AU    AUSL  868  15.302  33.574   7.326
    3AU    AUSL  869  15.555  33.981   7.190
    3AU     AUL  870  15.184  33.878   7.214
    3AU    AUSL  871  15.297  33.613   7.699
    3AU    AUSL  872  15.246  33.264   7.441
    3AU     AUL  873  15.013  33.637   7.490
    3AU    AUSL  874  16.634  32.969   7.589
    3AU    AUSL  875  16.590  33.139   7.928
    3AU     AUL  876  16.932  33.187   7.906
    3AU    AUSL  877  16.644  33.219   7.354
    3AU    AUSL  878  16.516  32.892   7.248
    3AU     AUL  879  16.872  33.127   7.255
    3AU    AUSL  880  15.399  32.991   7.619
    3AU    AUSL  881  15.408  33.118   7.172
    3AU     AUL  882  15.205  32.868   7.393
    3AU    AUSL  883  15.296  33.287   7.793
    3AU    AUSL  884  15.572  32.894   7.908
    3AU     AUL  885  15.237  32.963   7.951
    3AU    AUSL  886  16.079  34.102   7.935
    3AU    AUSL  887  15.620  34.076   7.765
    3AU     AUL  888  15.833  34.301   8.042
    3AU    AUSL  889  15.931  34.047   7.621
    3AU    AUSL  890  16.164  34.193   7.333
    3AU     AUL  891  15.911  34.359   7.635
    3AU    AUSL  892  16.290  34.165   7.646
    3AU    AUSL  893  16.362  33.917   8.025
    3AU     AUL  894  16.402  34.248   7.966
    3AU    AUSL  895  16.061  32.841   7.986
    3AU    AUSL  896  16.399  32.848   7.849
    3AU     AUL  897  16.187  32.764   8.261
    3AU    AUSL  898  15.823  32.733   7.752
    3AU    AUSL  899  15.806  33.006   8.151
    3AU     AUL  900  15.778  32.628   8.082
    3AU    AUSL  901  16.142  32.681   7.676
    3AU    AUSL  902  15.874  32.691   7.406
    3AU     AUL  903  15.682  32.499   7.615
    3AU    AUSL  904  16.024  34.000   7.081
    3AU    AUSL  905  16.432  34.016   7.221
    3AU     AUL  906  16.216  34.182   6.919
    3AU    AUSL  907  15.811  34.168   7.319
    3AU    AUSL  908  15.748  33.860   6.923
    3AU     AUL  909  15.802  34.191   6.936
    3AU    AUSL  910  16.005  32.789   7.095
    3AU    AUSL  911  15.561  32.835   7.325
    3AU     AUL  912  15.702  32.583   7.088
    3AU    AUSL  913  16.240  32.714   7.353
    3AU    AUSL  914  16.296  32.970   6.984
    3AU     AUL  915  16.288  32.655   6.983
    3AU       S  916  16.682  32.689   8.296
    3AU     LIG  917  16.679  32.234   8.371
    3AU     LIG  918  16.721  31.830   8.554
    3AU     LIG  919  17.057  31.826   8.827
    3AU       S  920  16.438  33.113   8.674
    3AU     LIG  921  16.582  33.346   9.054
    3AU     LIG  922  16.796  33.536   9.420
    3AU     LIG  923  17.086  33.471   9.783
    3AU       S  924  16.098  33.082   8.684
    3AU     LIG  925  16.125  33.109   9.155
    3AU     LIG  926  16.460  33.096   9.506
    3AU     LIG  927  16.766  33.019   9.864
    3AU       S  928  15.708  33.581   8.750
    3AU     LIG  929  15.555  33.495   9.178
    3AU     LIG  930  15.307  33.580   9.554
    3AU     LIG  931  15.215  33.490  10.011
    3AU       S  932  16.315  34.074   8.531
    3AU     LIG  933  16.444  34.243   8.947
    3AU     LIG  934  16.784  34.171   9.230
    3AU     LIG  935  17.176  33.962   9.203
    3AU       S  936  16.940  33.936   8.215
    3AU     LIG  937  17.089  34.028   8.655
    3AU     LIG  938  17.226  34.379   8.882
    3AU     LIG  939  17.538  34.667   9.042
    3AU       S  940  16.371  33.684   6.344
    3AU     LIG  941  16.563  33.603   5.914
    3AU     LIG  942  16.805  33.243   5.744
    3AU     LIG  943  16.906  32.853   5.512
    3AU       S  944  16.690  34.229   6.777
    3AU     LIG  945  16.831  34.543   6.482
    3AU     LIG  946  16.979  34.607   6.054
    3AU     LIG  947  17.365  34.806   5.959
    3AU       S  948  16.892  32.880   6.804
    3AU     LIG  949  17.089  32.655   6.438
    3AU     LIG  950  17.083  32.219   6.283
    3AU     LIG  951  17.180  31.769   6.369
    3AU       S  952  16.245  33.451   6.279
    3AU     LIG  953  16.325  33.138   5.948
    3AU     LIG  954  16.389  32.991   5.509
    3AU     LIG  955  16.628  33.017   5.112
    3AU       S  956  15.719  33.323   6.347
    3AU     LIG  957  15.625  33.312   5.927
    3AU     LIG  958  15.789  33.117   5.558
    3AU     LIG  959  15.562  33.074   5.166
    3AU       S  960  16.091  33.694   6.398
    3AU     LIG  961  15.972  33.680   5.936
    3AU     LIG  962  16.186  33.468   5.586
    3AU     LIG  963  16.579  33.472   5.351
    3AU       S  964  15.452  33.630   8.639
    3AU     LIG  965  15.183  33.334   8.833
    3AU     LIG  966  15.165  33.113   9.208
    3AU     LIG  967  15.141  33.112   9.661
    3AU       S  968  15.353  34.225   8.227
    3AU     LIG  969  15.001  34.456   8.397
    3AU     LIG  970  14.866  34.604   8.802
    3AU     LIG  971  14.500  34.698   9.045
    3AU       S  972  15.361  32.970   8.479
    3AU     LIG  973  14.913  32.814   8.546
    3AU     LIG  974  14.600  32.481   8.418
    3AU     LIG  975  14.331  32.105   8.381
    3AU       S  976  15.658  33.339   8.654
    3AU     LIG  977  15.629  33.037   8.985
    3AU     LIG  978  15.620  33.013   9.432
    3AU     LIG  979  15.627  33.252   9.809
    3AU       S  980  15.448  33.245   6.440
    3AU     LIG  981  15.328  32.909   6.162
    3AU     LIG  982  15.300  32.952   5.708
    3AU     LIG  983  15.304  33.359   5.519
    3AU       S  984  15.308  32.783   6.746
    3AU     LIG  985  15.174  32.470   6.421
    3AU     LIG  986  14.903  32.207   6.123
    3AU     LIG  987  14.588  32.213   5.774
    3AU       S  988  15.245  33.877   6.650
    3AU     LIG  989  14.862  34.090   6.650
    3AU     LIG  990  14.708  34.443   6.420
    3AU     LIG  991  14.800  34.558   5.986
    3AU       S  992  15.612  33.567   6.442
    3AU     LIG  993  15.415  33.781   6.141
    3AU     LIG  994  15.503  33.803   5.712
    3AU     LIG  995  15.741  33.603   5.396
    3AU       S  996  16.863  34.167   6.968
    3AU     LIG  997  17.247  34.277   6.770
    3AU     LIG  998  17.364  34.374   6.329
    3AU     LIG  999  17.602  34.355   5.925
    3AU       S 1000  16.985  34.133   7.438
    3AU     LIG 1001  17.273  34.496   7.353
    3AU     LIG 1002  17.630  34.637   7.610
    3AU     LIG 1003  17.990  34.630   7.907
    3AU       S 1004  17.216  33.892   7.374
    3AU     LIG 1005  17.564  34.125   7.166
    3AU     LIG 1006  18.012  34.114   7.121
    3AU     LIG 1007  18.362  34.359   6.968
    3AU       S 1008  17.123  32.811   7.641
    3AU     LIG 1009  17.463  32.619   7.864
    3AU     LIG 1010  17.907  32.574   7.809
    3AU     LIG 1011  18.328  32.577   7.983
    3AU       S 1012  16.910  34.172   7.987
    3AU     LIG 1013  17.178  34.420   8.286
    3AU     LIG 1014  17.181  34.795   8.570
    3AU     LIG 1015  17.167  35.012   8.980
    3AU       S 1016  17.167  34.037   7.584
    3AU     LIG 1017  17.610  34.128   7.677
    3AU     LIG 1018  18.072  34.085   7.721
    3AU     LIG 1019  18.471  34.321   7.811
    3AU       S 1020  15.216  33.967   8.235
    3AU     LIG 1021  14.916  33.962   8.548
    3AU     LIG 1022  14.558  34.223   8.615
    3AU     LIG 1023  14.157  34.375   8.772
    3AU       S 1024  15.294  34.382   7.442
    3AU     LIG 1025  15.224  34.784   7.298
    3AU     LIG 1026  14.996  34.709   6.942
    3AU     LIG 1027  14.624  34.423   6.940
    3AU       S 1028  14.854  33.376   7.081
    3AU     LIG 1029  14.477  33.371   6.820
    3AU     LIG 1030  14.132  33.678   6.850
    3AU     LIG 1031  14.164  34.117   7.003
    3AU       S 1032  15.307  34.287   6.928
    3AU     LIG 1033  15.413  34.635   6.669
    3AU     LIG 1034  15.081  34.793   6.423
    3AU     LIG 1035  15.059  35.001   6.059
    3AU       S 1036  14.798  33.168   7.535
    3AU     LIG 1037  14.404  33.309   7.335
    3AU     LIG 1038  14.070  33.184   7.075
    3AU     LIG 1039  13.744  33.007   7.243
    3AU       S 1040  14.903  33.621   8.018
    3AU     LIG 1041  14.593  33.605   8.316
    3AU     LIG 1042  14.291  33.909   8.294
    3AU     LIG 1043  14.309  34.333   8.168
    3AU       S 1044  16.854  32.620   7.568
    3AU     LIG 1045  17.075  32.208   7.563
    3AU     LIG 1046  17.478  32.128   7.709
    3AU     LIG 1047  17.799  32.016   7.414
    3AU       S 1048  16.858  32.707   8.074
    3AU     LIG 1049  17.112  32.321   8.079
    3AU     LIG 1050  17.480  32.136   8.261
    3AU     LIG 1051  17.809  32.026   8.617
    3AU       S 1052  17.050  32.705   7.418
    3AU     LIG 1053  17.451  32.506   7.363
    3AU     LIG 1054  17.890  32.506   7.308
    3AU     LIG 1055  18.101  32.290   7.000
    3AU       S 1056  16.799  32.658   7.001
    3AU     LIG 1057  16.938  32.301   6.796
    3AU     LIG 1058  16.877  31.878   6.783
    3AU     LIG 1059  16.758  31.525   6.546
    3AU       S 1060  15.114  32.941   6.890
    3AU     LIG 1061  14.928  32.991   6.490
    3AU     LIG 1062  14.765  32.701   6.203
    3AU     LIG 1063  14.407  32.426   6.204
    3AU       S 1064  14.800  32.958   7.668
    3AU     LIG 1065  14.481  32.800   7.291
    3AU     LIG 1066  14.058  32.652   7.062
    3AU     LIG 1067  13.624  32.526   7.222
    3AU       S 1068  15.380  32.724   8.374
    3AU     LIG 1069  15.098  32.368   8.307
    3AU     LIG 1070  14.815  31.998   8.292
    3AU     LIG 1071  14.647  31.596   8.446
    3AU       S 1072  14.821  33.208   7.774
    3AU     LIG 1073  14.395  33.366   7.847
    3AU     LIG 1074  14.020  33.136   7.685
    3AU     LIG 1075  14.040  32.706   7.561
    3AU       S 1076  15.347  34.381   7.935
    3AU     LIG 1077  15.087  34.714   7.940
    3AU     LIG 1078  14.669  34.681   8.075
    3AU     LIG 1079  14.468  34.715   8.497
    3AU       S 1080  16.181  34.689   7.913
    3AU     LIG 1081  16.366  35.071   8.022
    3AU     LIG 1082  16.072  35.328   8.234
    3AU     LIG 1083  15.613  35.419   8.390
    3AU       S 1084  16.111  34.861   7.642
    3AU     LIG 1085  15.773  35.086   7.846
    3AU     LIG 1086  15.726  35.524   7.911
    3AU     LIG 1087  15.988  35.818   8.170
    3AU       S 1088  16.165  34.594   7.223
    3AU     LIG 1089  16.463  34.882   7.049
    3AU     LIG 1090  16.240  35.262   7.009
    3AU     LIG 1091  16.217  35.626   6.775
    3AU       S 1092  16.751  34.108   8.292
    3AU     LIG 1093  16.771  34.442   8.600
    3AU     LIG 1094  16.806  34.637   9.008
    3AU     LIG 1095  17.105  34.594   9.352
    3AU       S 1096  16.403  34.649   7.636
    3AU     LIG 1097  16.468  35.150   7.490
    3AU     LIG 1098  16.365  35.509   7.764
    3AU     LIG 1099  16.528  35.815   8.069
    3AU       S 1100  16.208  32.307   8.052
    3AU     LIG 1101  16.329  31.911   8.205
    3AU     LIG 1102  16.336  31.500   8.443
    3AU     LIG 1103  16.005  31.194   8.587
    3AU       S 1104  16.632  32.572   7.999
    3AU     LIG 1105  16.692  32.152   7.872
    3AU     LIG 1106  16.878  31.821   8.066
    3AU     LIG 1107  17.152  31.621   8.353
    3AU       S 1108  16.001  32.204   7.874
    3AU     LIG 1109  15.900  31.759   7.934
    3AU     LIG 1110  15.672  31.487   8.263
    3AU     LIG 1111  15.519  31.064   8.421
    3AU       S 1112  15.628  32.854   8.528
    3AU     LIG 1113  15.296  32.646   8.859
    3AU     LIG 1114  14.933  32.331   8.792
    3AU     LIG 1115  14.604  31.990   8.788
    3AU       S 1116  16.027  32.220   7.361
    3AU     LIG 1117  15.960  31.777   7.352
    3AU     LIG 1118  16.068  31.530   7.018
    3AU     LIG 1119  16.266  31.169   6.935
    3AU       S 1120  16.238  32.321   7.801
    3AU     LIG 1121  16.345  31.878   7.663
    3AU     LIG 1122  16.454  31.528   7.924
    3AU     LIG 1123  16.089  31.290   8.053
    3AU       S 1124  15.993  34.632   7.065
    3AU     LIG 1125  16.001  34.887   6.729
    3AU     LIG 1126  16.281  35.135   6.503
    3AU     LIG 1127  16.363  35.513   6.290
    3AU       S 1128  16.675  34.362   7.116
    3AU     LIG 1129  16.992  34.689   6.944
    3AU     LIG 1130  17.380  34.759   6.660
    3AU     LIG 1131  17.743  34.724   6.318
    3AU       S 1132  15.753  34.622   7.229
    3AU     LIG 1133  15.596  35.016   7.030
    3AU     LIG 1134  15.755  35.340   6.765
    3AU     LIG 1135  15.852  35.368   6.326
    3AU       S 1136  15.435  34.043   6.629
    3AU     LIG 1137  15.204  34.285   6.314
    3AU     LIG 1138  15.334  34.581   6.000
    3AU     LIG 1139  15.578  34.991   5.998
    3AU       S 1140  15.203  32.641   6.946
    3AU     LIG 1141  14.781  32.521   6.741
    3AU     LIG 1142  14.630  32.111   6.544
    3AU     LIG 1143  14.447  31.906   6.170
    3AU       S 1144  16.089  32.223   7.118
    3AU     LIG 1145  16.354  31.957   6.835
    3AU     LIG 1146  16.266  31.615   6.550
    3AU     LIG 1147  16.038  31.219   6.453
    3AU       S 1148  16.341  32.290   7.332
    3AU     LIG 1149  16.655  32.004   7.241
    3AU     LIG 1150  16.613  31.550   7.100
    3AU     LIG 1151  16.768  31.162   6.888
    3AU       S 1152  16.670  32.762   6.693
    3AU     LIG 1153  16.611  32.423   6.416
    3AU     LIG 1154  16.625  31.983   6.352
    3AU     LIG 1155  16.768  31.677   6.041
    4AU     AUC 1156  22.074  10.624   7.526
    4AU     AUC 1157  22.326  10.612   7.363
    4AU     AUC 1158  22.329  10.627   7.685
    4AU     AUC 1159  21.811  10.612   7.374
    4AU     AUC 1160  21.819  10.646   7.691
    4AU     AUC 1161  21.926  10.880   7.505
    4AU     AUC 1162  22.243  10.878   7.504
    4AU     AUC 1163  21.913  10.368   7.550
    4AU     AUC 1164  22.229  10.363   7.540
    4AU     AUC 1165  22.071  10.486   7.796
    4AU     AUC 1166  22.087  10.805   7.772
    4AU     AUC 1167  22.069  10.445   7.279
    4AU     AUC 1168  22.071  10.760   7.255
    4AU     AUC 1169  22.581  10.614   7.201
    4AU     AUC 1170  22.581  10.612   7.525
    4AU     AUC 1171  22.581  10.613   7.848
    4AU     AUC 1172  21.552  10.592   7.223
    4AU     AUC 1173  21.552  10.640   7.543
    4AU     AUC 1174  21.571  10.679   7.860
    4AU     AUC 1175  21.775  11.137   7.472
    4AU     AUC 1176  22.114  11.137   7.468
    4AU     AUC 1177  22.429  11.132   7.479
    4AU     AUC 1178  21.753  10.114   7.573
    4AU     AUC 1179  22.081  10.104   7.551
    4AU     AUC 1180  22.395  10.103   7.553
    4AU     AUC 1181  22.070  10.346   8.066
    4AU     AUC 1182  22.076  10.672   8.057
    4AU     AUC 1183  22.109  10.992   8.016
    4AU     AUC 1184  22.080  10.269   7.031
    4AU     AUC 1185  22.056  10.578   7.004
    4AU     AUC 1186  22.062  10.890   6.984
    4AU     AUC 1187  22.322  10.475   7.962
    4AU     AUC 1188  22.353  10.799   7.939
    4AU     AUC 1189  22.340  10.448   7.103
    4AU     AUC 1190  22.322  10.761   7.085
    4AU     AUC 1191  21.817  10.515   7.969
    4AU     AUC 1192  21.827  10.842   7.940
    4AU     AUC 1193  21.804  10.413   7.129
    4AU     AUC 1194  21.796  10.737   7.095
    4AU     AUC 1195  22.505  10.867   7.345
    4AU     AUC 1196  22.505  10.887   7.670
    4AU     AUC 1197  21.652  10.882   7.337
    4AU     AUC 1198  21.662  10.923   7.666
    4AU     AUC 1199  22.482  10.344   7.371
    4AU     AUC 1200  22.485  10.357   7.703
    4AU     AUC 1201  21.643  10.349   7.410
    4AU     AUC 1202  21.647  10.381   7.724
    4AU     AUC 1203  21.941  11.064   7.761
    4AU     AUC 1204  22.281  11.062   7.750
    4AU     AUC 1205  21.912  10.225   7.822
    4AU     AUC 1206  22.230  10.212   7.811
    4AU     AUC 1207  21.911  11.024   7.229
    4AU     AUC 1208  22.249  11.026   7.229
    4AU     AUC 1209  21.913  10.176   7.299
    4AU     AUC 1210  22.250  10.190   7.282
    4AU    AUSL 1211  22.492  10.583   8.158
    4AU    AUSL 1212  22.372  10.234   8.147
    4AU     AUL 1213  22.761  10.398   8.282
    4AU    AUSL 1214  22.174  10.500   8.288
    4AU    AUSL 1215  21.958  10.859   8.270
    4AU     AUL 1216  22.224  10.777   8.563
    4AU    AUSL 1217  22.295  10.877   8.229
    4AU    AUSL 1218  22.663  10.858   8.011
    4AU     AUL 1219  22.623  10.792   8.408
    4AU    AUSL 1220  22.492  10.653   6.888
    4AU    AUSL 1221  22.380  11.003   6.901
    4AU     AUL 1222  22.759  10.800   6.756
    4AU    AUSL 1223  22.269  10.410   6.800
    4AU    AUSL 1224  22.662  10.375   7.040
    4AU     AUL 1225  22.623  10.395   6.661
    4AU    AUSL 1226  22.152  10.725   6.770
    4AU    AUSL 1227  21.921  10.383   6.811
    4AU     AUL 1228  22.133  10.268   6.573
    4AU    AUSL 1229  21.638  10.789   8.155
    4AU    AUSL 1230  21.825  11.129   8.039
    4AU     AUL 1231  21.779  11.144   8.371
    4AU    AUSL 1232  21.825  10.520   8.254
    4AU    AUSL 1233  21.565  10.400   8.037
    4AU     AUL 1234  21.369  10.590   8.194
    4AU    AUSL 1235  21.608  10.471   6.920
    4AU    AUSL 1236  21.776  10.120   7.023
    4AU     AUL 1237  21.688  10.141   6.681
    4AU    AUSL 1238  21.803  10.720   6.814
    4AU    AUSL 1239  21.522  10.853   7.028
    4AU     AUL 1240  21.347  10.592   6.885
    4AU    AUSL 1241  22.742  11.043   7.425
    4AU    AUSL 1242  22.648  10.886   7.101
    4AU     AUL 1243  22.985  10.817   7.070
    4AU    AUSL 1244  22.841  10.718   7.365
    4AU    AUSL 1245  22.821  10.472   7.688
    4AU     AUL 1246  23.149  10.563   7.546
    4AU    AUSL 1247  22.719  10.805   7.675
    4AU    AUSL 1248  22.628  11.153   7.746
    4AU     AUL 1249  22.949  10.867   7.772
    4AU    AUSL 1250  21.491  11.121   7.491
    4AU    AUSL 1251  21.506  10.996   7.913
    4AU     AUL 1252  21.187  11.144   7.677
    4AU    AUSL 1253  21.353  10.808   7.317
    4AU    AUSL 1254  21.624  11.171   7.172
    4AU     AUL 1255  21.257  11.110   7.208
    4AU    AUSL 1256  21.343  10.803   7.689
    4AU    AUSL 1257  21.325  10.495   7.433
    4AU     AUL 1258  21.050  10.799   7.477
    4AU    AUSL 1259  22.691  10.159   7.613
    4AU    AUSL 1260  22.632  10.330   7.944
    4AU     AUL 1261  22.972  10.383   7.939
    4AU    AUSL 1262  22.693  10.408   7.378
    4AU    AUSL 1263  22.589  10.082   7.266
    4AU     AUL 1264  22.933  10.334   7.296
    4AU    AUSL 1265  21.420  10.186   7.555
    4AU    AUSL 1266  21.491  10.285   7.178
    4AU     AUL 1267  21.161  10.362   7.204
    4AU    AUSL 1268  21.351  10.472   7.779
    4AU    AUSL 1269  21.624  10.093   7.871
    4AU     AUL 1270  21.318  10.135   7.917
    4AU    AUSL 1271  22.130  11.298   7.927
    4AU    AUSL 1272  21.675  11.273   7.750
    4AU     AUL 1273  21.873  11.500   8.027
    4AU    AUSL 1274  21.988  11.243   7.609
    4AU    AUSL 1275  22.236  11.378   7.317
    4AU     AUL 1276  21.981  11.556   7.615
    4AU    AUSL 1277  22.346  11.353   7.638
    4AU    AUSL 1278  22.412  11.108   8.018
    4AU     AUL 1279  22.464  11.433   7.960
    4AU    AUSL 1280  22.107  10.031   7.985
    4AU    AUSL 1281  22.449  10.038   7.862
    4AU     AUL 1282  22.226   9.949   8.265
    4AU    AUSL 1283  21.880   9.919   7.742
    4AU    AUSL 1284  21.844  10.196   8.139
    4AU     AUL 1285  21.819   9.819   8.062
    4AU    AUSL 1286  22.203   9.870   7.679
    4AU    AUSL 1287  21.955   9.881   7.402
    4AU     AUL 1288  21.758   9.678   7.590
    4AU    AUSL 1289  22.096  11.178   7.064
    4AU    AUSL 1290  22.500  11.189   7.204
    4AU     AUL 1291  22.292  11.362   6.913
    4AU    AUSL 1292  21.884  11.355   7.296
    4AU    AUSL 1293  21.813  11.036   6.915
    4AU     AUL 1294  21.878  11.356   6.906
    4AU    AUSL 1295  22.090   9.982   7.095
    4AU    AUSL 1296  21.634  10.003   7.340
    4AU     AUL 1297  21.824   9.757   7.089
    4AU    AUSL 1298  22.314   9.906   7.359
    4AU    AUSL 1299  22.383  10.163   6.997
    4AU     AUL 1300  22.366   9.862   6.968
    4AU       S 1301  22.718   9.866   8.308
    4AU     LIG 1302  22.771   9.378   8.321
    4AU     LIG 1303  23.007   8.992   8.449
    4AU     LIG 1304  23.342   8.780   8.735
    4AU       S 1305  22.467  10.314   8.682
    4AU     LIG 1306  22.738  10.522   9.003
    4AU     LIG 1307  22.827  10.686   9.411
    4AU     LIG 1308  22.812  10.501   9.842
    4AU       S 1309  22.129  10.285   8.683
    4AU     LIG 1310  22.253  10.323   9.145
    4AU     LIG 1311  22.599  10.217   9.448
    4AU     LIG 1312  22.853   9.987   9.784
    4AU       S 1313  21.748  10.776   8.734
    4AU     LIG 1314  21.827  10.629   9.143
    4AU     LIG 1315  21.542  10.551   9.476
    4AU     LIG 1316  21.162  10.737   9.629
    4AU       S 1317  22.331  11.281   8.512
    4AU     LIG 1318  22.583  11.511   8.827
    4AU     LIG 1319  22.900  11.395   9.122
    4AU     LIG 1320  23.179  11.029   9.119
    4AU       S 1321  22.986  11.120   8.210
    4AU     LIG 1322  23.193  11.126   8.590
    4AU     LIG 1323  23.305  11.457   8.815
    4AU     LIG 1324  23.524  11.804   8.875
    4AU       S 1325  22.455  10.869   6.363
    4AU     LIG 1326  22.633  10.795   5.928
    4AU     LIG 1327  22.844  10.429   5.741
    4AU     LIG 1328  22.907  10.277   5.313
    4AU       S 1329  22.739  11.313   6.696
    4AU     LIG 1330  22.924  11.577   6.386
    4AU     LIG 1331  23.090  11.778   6.007
    4AU     LIG 1332  23.391  12.083   5.885
    4AU       S 1333  22.998  10.075   6.872
    4AU     LIG 1334  23.356   9.968   6.657
    4AU     LIG 1335  23.438   9.608   6.414
    4AU     LIG 1336  23.441   9.157   6.526
    4AU       S 1337  22.324  10.628   6.290
    4AU     LIG 1338  22.304  10.386   5.913
    4AU     LIG 1339  22.404  10.231   5.504
    4AU     LIG 1340  22.431  10.391   5.098
    4AU       S 1341  21.773  10.533   6.324
    4AU     LIG 1342  21.673  10.586   5.889
    4AU     LIG 1343  21.860  10.427   5.517
    4AU     LIG 1344  21.669  10.313   5.120
    4AU       S 1345  22.166  10.866   6.392
    4AU     LIG 1346  22.081  10.875   5.923
    4AU     LIG 1347  22.283  10.735   5.533
    4AU     LIG 1348  22.692  10.741   5.368
    4AU       S 1349  21.489  10.797   8.631
    4AU     LIG 1350  21.312  10.712   9.032
    4AU     LIG 1351  21.099  10.382   9.247
    4AU     LIG 1352  21.049  10.231   9.663
    4AU       S 1353  21.381  11.430   8.191
    4AU     LIG 1354  21.042  11.597   8.468
    4AU     LIG 1355  20.856  11.530   8.886
    4AU     LIG 1356  20.762  11.818   9.253
    4AU       S 1357  21.385  10.149   8.448
    4AU     LIG 1358  20.916   9.992   8.365
    4AU     LIG 1359  20.497   9.789   8.501
    4AU     LIG 1360  20.349   9.483   8.825
    4AU       S 1361  21.681  10.522   8.644
    4AU     LIG 1362  21.533  10.246   8.982
    4AU     LIG 1363  21.474  10.047   9.412
    4AU     LIG 1364  21.512  10.205   9.865
    4AU       S 1365  21.490  10.540   6.405
    4AU     LIG 1366  21.361  10.226   6.090
    4AU     LIG 1367  21.310  10.299   5.638
    4AU     LIG 1368  21.403  10.668   5.404
    4AU       S 1369  21.371   9.769   6.885
    4AU     LIG 1370  21.282   9.421   6.567
    4AU     LIG 1371  21.126   9.450   6.129
    4AU     LIG 1372  20.739   9.373   5.894
    4AU       S 1373  21.281  11.044   6.666
    4AU     LIG 1374  20.934  11.377   6.681
    4AU     LIG 1375  20.780  11.705   6.386
    4AU     LIG 1376  20.728  12.047   6.074
    4AU       S 1377  21.678  10.780   6.441
    4AU     LIG 1378  21.433  10.988   6.146
    4AU     LIG 1379  21.532  11.077   5.725
    4AU     LIG 1380  21.833  10.954   5.430
    4AU       S 1381  22.928  11.291   6.909
    4AU     LIG 1382  23.302  11.342   6.661
    4AU     LIG 1383  23.432  11.451   6.226
    4AU     LIG 1384  23.736  11.720   5.997
    4AU       S 1385  23.046  11.293   7.401
    4AU     LIG 1386  23.401  11.486   7.183
    4AU     LIG 1387  23.770  11.318   7.401
    4AU     LIG 1388  24.136  11.115   7.476
    4AU       S 1389  23.293  11.046   7.391
    4AU     LIG 1390  23.604  11.013   7.023
    4AU     LIG 1391  24.090  10.910   6.995
    4AU     LIG 1392  24.541  11.031   6.879
    4AU       S 1393  23.188  10.016   7.682
    4AU     LIG 1394  23.529   9.790   7.860
    4AU     LIG 1395  23.945   9.824   7.970
    4AU     LIG 1396  24.088  10.158   7.776
    4AU       S 1397  22.975  11.355   8.005
    4AU     LIG 1398  23.340  11.553   8.274
    4AU     LIG 1399  23.394  12.010   8.434
    4AU     LIG 1400  23.298  12.282   8.819
    4AU       S 1401  23.213  11.227   7.587
    4AU     LIG 1402  23.545  11.313   7.870
    4AU     LIG 1403  24.000  11.190   7.962
    4AU     LIG 1404  24.366  11.464   7.858
    4AU       S 1405  21.236  11.161   8.206
    4AU     LIG 1406  20.783  11.178   8.345
    4AU     LIG 1407  20.473  11.461   8.529
    4AU     LIG 1408  20.197  11.689   8.800
    4AU       S 1409  21.374  11.596   7.406
    4AU     LIG 1410  21.227  12.046   7.351
    4AU     LIG 1411  20.865  12.182   7.097
    4AU     LIG 1412  20.682  11.824   6.868
    4AU       S 1413  20.887  10.815   6.994
    4AU     LIG 1414  20.461  10.642   7.178
    4AU     LIG 1415  20.075  10.872   7.263
    4AU     LIG 1416  20.130  11.293   7.133
    4AU       S 1417  21.392  11.490   6.885
    4AU     LIG 1418  21.184  11.873   6.711
    4AU     LIG 1419  20.877  12.188   6.564
    4AU     LIG 1420  20.591  12.453   6.345
    4AU       S 1421  20.847  10.331   7.602
    4AU     LIG 1422  20.428  10.532   7.675
    4AU     LIG 1423  20.034  10.430   7.525
    4AU     LIG 1424  19.788  10.454   7.111
    4AU       S 1425  20.927  10.803   7.987
    4AU     LIG 1426  20.464  10.859   8.082
    4AU     LIG 1427  20.236  11.243   8.128
    4AU     LIG 1428  20.304  11.649   7.933
    4AU       S 1429  22.926   9.826   7.595
    4AU     LIG 1430  23.108   9.435   7.459
    4AU     LIG 1431  23.520   9.383   7.538
    4AU     LIG 1432  23.833   9.714   7.458
    4AU       S 1433  22.904   9.894   8.094
    4AU     LIG 1434  23.159   9.497   8.003
    4AU     LIG 1435  23.484   9.306   8.253
    4AU     LIG 1436  23.550   9.244   8.706
    4AU       S 1437  23.140   9.936   7.480
    4AU     LIG 1438  23.380   9.820   7.171
    4AU     LIG 1439  23.788   9.877   6.978
    4AU     LIG 1440  24.127   9.578   7.080
    4AU       S 1441  22.874   9.828   7.080
    4AU     LIG 1442  23.070   9.443   6.936
    4AU     LIG 1443  23.005   9.004   6.758
    4AU     LIG 1444  22.952   8.638   6.458
    4AU       S 1445  21.233   9.934   6.965
    4AU     LIG 1446  20.942   9.800   6.613
    4AU     LIG 1447  20.624   9.628   6.349
    4AU     LIG 1448  20.303   9.647   6.018
    4AU       S 1449  20.945  10.076   7.584
    4AU     LIG 1450  20.524   9.966   7.770
    4AU     LIG 1451  20.249   9.677   7.550
    4AU     LIG 1452  20.051   9.511   7.140
    4AU       S 1453  21.419   9.899   8.348
    4AU     LIG 1454  21.190   9.571   8.127
    4AU     LIG 1455  20.786   9.513   8.191
    4AU     LIG 1456  20.380   9.534   8.033
    4AU       S 1457  20.894  10.353   7.780
    4AU     LIG 1458  20.610  10.360   8.124
    4AU     LIG 1459  20.160  10.370   8.084
    4AU     LIG 1460  19.974  10.031   7.858
    4AU       S 1461  21.384  11.581   7.902
    4AU     LIG 1462  20.971  11.770   7.975
    4AU     LIG 1463  20.636  11.876   8.278
    4AU     LIG 1464  20.625  11.958   8.734
    4AU       S 1465  22.242  11.878   7.926
    4AU     LIG 1466  22.544  12.069   8.235
    4AU     LIG 1467  22.505  12.412   8.554
    4AU     LIG 1468  22.294  12.832   8.532
    4AU       S 1469  22.217  12.043   7.648
    4AU     LIG 1470  22.007  12.405   7.742
    4AU     LIG 1471  22.020  12.682   8.088
    4AU     LIG 1472  22.212  13.064   8.080
    4AU       S 1473  22.211  11.803   7.205
    4AU     LIG 1474  22.057  12.265   7.222
    4AU     LIG 1475  22.114  12.703   7.176
    4AU     LIG 1476  22.456  12.899   6.949
    4AU       S 1477  22.797  11.304   8.309
    4AU     LIG 1478  22.919  11.708   8.500
    4AU     LIG 1479  23.003  11.868   8.914
    4AU     LIG 1480  23.236  11.790   9.308
    4AU       S 1481  22.464  11.821   7.629
    4AU     LIG 1482  22.628  12.273   7.753
    4AU     LIG 1483  22.585  12.590   8.089
    4AU     LIG 1484  22.946  12.663   8.394
    4AU       S 1485  22.260   9.487   8.054
    4AU     LIG 1486  22.452   9.034   8.098
    4AU     LIG 1487  22.412   8.693   8.433
    4AU     LIG 1488  22.035   8.558   8.712
    4AU       S 1489  22.678   9.756   8.009
    4AU     LIG 1490  22.740   9.356   7.789
    4AU     LIG 1491  22.933   8.968   7.802
    4AU     LIG 1492  23.303   8.872   8.062
    4AU       S 1493  22.060   9.394   7.869
    4AU     LIG 1494  21.976   8.968   7.894
    4AU     LIG 1495  21.852   8.789   8.294
    4AU     LIG 1496  21.645   8.941   8.693
    4AU       S 1497  21.667  10.041   8.516
    4AU     LIG 1498  21.353   9.797   8.819
    4AU     LIG 1499  20.940   9.608   8.721
    4AU     LIG 1500  20.771   9.520   9.135
    4AU       S 1501  22.122   9.410   7.342
    4AU     LIG 1502  21.858   9.141   7.063
    4AU     LIG 1503  22.049   8.874   6.738
    4AU     LIG 1504  22.054   8.426   6.656
    4AU       S 1505  22.286   9.507   7.796
    4AU     LIG 1506  22.381   9.076   7.587
    4AU     LIG 1507  22.386   8.683   7.686
    4AU     LIG 1508  22.191   8.506   8.019
    4AU       S 1509  22.055  11.806   7.001
    4AU     LIG 1510  22.038  12.154   6.720
    4AU     LIG 1511  22.179  12.580   6.663
    4AU     LIG 1512  22.364  12.914   6.417
    4AU       S 1513  22.774  11.481   7.038
    4AU     LIG 1514  23.084  11.772   6.852
    4AU     LIG 1515  23.335  11.883   6.479
    4AU     LIG 1516  23.681  12.134   6.319
    4AU       S 1517  21.821  11.791   7.193
    4AU     LIG 1518  21.595  12.107   6.982
    4AU     LIG 1519  21.718  12.535   6.868
    4AU     LIG 1520  21.713  12.718   6.448
    4AU       S 1521  21.490  11.218   6.620
    4AU     LIG 1522  21.282  11.480   6.323
    4AU     LIG 1523  21.219  11.901   6.178
    4AU     LIG 1524  21.174  12.346   6.156
    4AU       S 1525  21.296   9.766   7.220
    4AU     LIG 1526  20.913   9.566   7.086
    4AU     LIG 1527  20.868   9.238   6.813
    4AU     LIG 1528  20.798   9.157   6.381
    4AU       S 1529  22.262   9.414   7.139
    4AU     LIG 1530  22.509   9.238   6.762
    4AU     LIG 1531  22.473   8.876   6.454
    4AU     LIG 1532  22.288   8.529   6.190
    4AU       S 1533  22.482   9.515   7.345
    4AU     LIG 1534  22.735   9.134   7.218
    4AU     LIG 1535  22.599   8.767   6.946
    4AU     LIG 1536  22.546   8.410   6.663
    4AU       S 1537  22.821   9.902   6.777
    4AU     LIG 1538  22.918   9.559   6.474
    4AU     LIG 1539  22.882   9.135   6.277
    4AU     LIG 1540  22.712   8.769   6.006
    5AU     AUC 1541  13.476   2.698   7.525
    5AU     AUC 1542  13.728   2.689   7.360
    5AU     AUC 1543  13.733   2.702   7.682
    5AU     AUC 1544  13.211   2.683   7.374
    5AU     AUC 1545  13.222   2.719   7.691
    5AU     AUC 1546  13.325   2.953   7.504
    5AU     AUC 1547  13.643   2.953   7.502
    5AU     AUC 1548  13.315   2.441   7.551
    5AU     AUC 1549  13.632   2.438   7.537
    5AU     AUC 1550  13.477   2.561   7.796
    5AU     AUC 1551  13.490   2.880   7.770
    5AU     AUC 1552  13.470   2.519   7.279
    5AU     AUC 1553  13.470   2.834   7.254
    5AU     AUC 1554  13.982   2.696   7.195
    5AU     AUC 1555  13.985   2.689   7.519
    5AU     AUC 1556  13.989   2.688   7.842
    5AU     AUC 1557  12.950   2.655   7.222
    5AU     AUC 1558  12.951   2.705   7.544
    5AU     AUC 1559  12.978   2.754   7.862
    5AU     AUC 1560  13.172   3.207   7.470
    5AU     AUC 1561  13.509   3.211   7.466
    5AU     AUC 1562  13.824   3.208   7.479
    5AU     AUC 1563  13.158   2.185   7.579
    5AU     AUC 1564  13.482   2.178   7.554
    5AU     AUC 1565  13.797   2.179   7.549
    5AU     AUC 1566  13.478   2.425   8.066
    5AU     AUC 1567  13.485   2.749   8.055
    5AU     AUC 1568  13.516   3.067   8.013
    5AU     AUC 1569  13.486   2.345   7.031
    5AU     AUC 1570  13.461   2.656   7.005
    5AU     AUC 1571  13.458   2.967   6.985
    5AU     AUC 1572  13.729   2.551   7.958
    5AU     AUC 1573  13.759   2.874   7.936
    5AU     AUC 1574  13.742   2.527   7.100
    5AU     AUC 1575  13.723   2.842   7.084
    5AU     AUC 1576  13.224   2.593   7.972
    5AU     AUC 1577  13.234   2.918   7.939
    5AU     AUC 1578  13.205   2.487   7.130
    5AU     AUC 1579  13.195   2.807   7.093
    5AU     AUC 1580  13.904   2.946   7.343
    5AU     AUC 1581  13.907   2.962   7.666
    5AU     AUC 1582  13.050   2.949   7.338
    5AU     AUC 1583  13.064   2.994   7.666
    5AU     AUC 1584  13.884   2.422   7.365
    5AU     AUC 1585  13.891   2.433   7.697
    5AU     AUC 1586  13.040   2.418   7.411
    5AU     AUC 1587  13.055   2.456   7.731
    5AU     AUC 1588  13.342   3.139   7.758
    5AU     AUC 1589  13.681   3.137   7.747
    5AU     AUC 1590  13.320   2.300   7.827
    5AU     AUC 1591  13.634   2.287   7.810
    5AU     AUC 1592  13.306   3.096   7.229
    5AU     AUC 1593  13.644   3.103   7.229
    5AU     AUC 1594  13.313   2.251   7.299
    5AU     AUC 1595  13.650   2.263   7.280
    5AU    AUSL 1596  13.904   2.656   8.154
    5AU    AUSL 1597  13.781   2.310   8.141
    5AU     AUL 1598  14.164   2.454   8.282
    5AU    AUSL 1599  13.584   2.576   8.286
    5AU    AUSL 1600  13.371   2.943   8.269
    5AU     AUL 1601  13.633   2.855   8.561
    5AU    AUSL 1602  13.708   2.949   8.226
    5AU    AUSL 1603  14.065   2.936   8.006
    5AU     AUL 1604  14.039   2.865   8.402
    5AU    AUSL 1605  13.901   2.748   6.885
    5AU    AUSL 1606  13.773   3.091   6.904
    5AU     AUL 1607  14.151   2.941   6.745
    5AU    AUSL 1608  13.688   2.497   6.801
    5AU    AUSL 1609  14.052   2.455   7.030
    5AU     AUL 1610  14.044   2.518   6.650
    5AU    AUSL 1611  13.554   2.805   6.772
    5AU    AUSL 1612  13.344   2.467   6.814
    5AU     AUL 1613  13.561   2.348   6.576
    5AU    AUSL 1614  13.053   2.876   8.154
    5AU    AUSL 1615  13.229   3.202   8.032
    5AU     AUL 1616  13.205   3.238   8.362
    5AU    AUSL 1617  13.236   2.607   8.256
    5AU    AUSL 1618  12.970   2.481   8.048
    5AU     AUL 1619  12.782   2.691   8.189
    5AU    AUSL 1620  13.024   2.526   6.908
    5AU    AUSL 1621  13.181   2.201   7.022
    5AU     AUL 1622  13.194   2.193   6.674
    5AU    AUSL 1623  13.204   2.793   6.815
    5AU    AUSL 1624  12.920   2.920   7.032
    5AU     AUL 1625  12.763   2.662   6.882
    5AU    AUSL 1626  14.139   3.125   7.425
    5AU    AUSL 1627  14.047   2.978   7.102
    5AU     AUL 1628  14.382   2.924   7.060
    5AU    AUSL 1629  14.242   2.802   7.353
    5AU    AUSL 1630  14.231   2.548   7.678
    5AU     AUL 1631  14.556   2.648   7.519
    5AU    AUSL 1632  14.126   2.878   7.667
    5AU    AUSL 1633  14.025   3.225   7.743
    5AU     AUL 1634  14.348   2.946   7.778
    5AU    AUSL 1635  12.887   3.185   7.490
    5AU    AUSL 1636  12.910   3.072   7.912
    5AU     AUL 1637  12.590   3.219   7.677
    5AU    AUSL 1638  12.753   2.859   7.320
    5AU    AUSL 1639  13.017   3.239   7.172
    5AU     AUL 1640  12.647   3.163   7.209
    5AU    AUSL 1641  12.746   2.873   7.695
    5AU    AUSL 1642  12.708   2.546   7.434
    5AU     AUL 1643  12.454   2.875   7.493
    5AU    AUSL 1644  14.095   2.237   7.602
    5AU    AUSL 1645  14.040   2.405   7.935
    5AU     AUL 1646  14.377   2.456   7.932
    5AU    AUSL 1647  14.099   2.488   7.367
    5AU    AUSL 1648  13.987   2.160   7.259
    5AU     AUL 1649  14.333   2.411   7.274
    5AU    AUSL 1650  12.840   2.244   7.586
    5AU    AUSL 1651  12.876   2.367   7.167
    5AU     AUL 1652  12.566   2.250   7.313
    5AU    AUSL 1653  12.761   2.542   7.783
    5AU    AUSL 1654  13.043   2.179   7.888
    5AU     AUL 1655  12.746   2.188   7.919
    5AU    AUSL 1656  13.533   3.373   7.925
    5AU    AUSL 1657  13.073   3.347   7.745
    5AU     AUL 1658  13.271   3.566   8.028
    5AU    AUSL 1659  13.387   3.320   7.608
    5AU    AUSL 1660  13.623   3.455   7.316
    5AU     AUL 1661  13.365   3.635   7.610
    5AU    AUSL 1662  13.742   3.431   7.633
    5AU    AUSL 1663  13.814   3.186   8.017
    5AU     AUL 1664  13.873   3.507   7.941
    5AU    AUSL 1665  13.508   2.107   7.989
    5AU    AUSL 1666  13.852   2.114   7.856
    5AU     AUL 1667  13.642   2.040   8.271
    5AU    AUSL 1668  13.277   1.981   7.753
    5AU    AUSL 1669  13.256   2.281   8.154
    5AU     AUL 1670  13.210   1.909   8.093
    5AU    AUSL 1671  13.600   1.947   7.680
    5AU    AUSL 1672  13.352   1.963   7.407
    5AU     AUL 1673  13.152   1.758   7.573
    5AU    AUSL 1674  13.485   3.252   7.067
    5AU    AUSL 1675  13.891   3.272   7.209
    5AU     AUL 1676  13.675   3.431   6.906
    5AU    AUSL 1677  13.273   3.428   7.297
    5AU    AUSL 1678  13.207   3.109   6.912
    5AU     AUL 1679  13.267   3.433   6.909
    5AU    AUSL 1680  13.490   2.053   7.098
    5AU    AUSL 1681  13.026   2.082   7.327
    5AU     AUL 1682  13.219   1.834   7.097
    5AU    AUSL 1683  13.716   1.976   7.363
    5AU    AUSL 1684  13.777   2.232   6.986
    5AU     AUL 1685  13.778   1.917   6.989
    5AU       S 1686  14.129   1.919   8.282
    5AU     LIG 1687  14.167   1.430   8.311
    5AU     LIG 1688  14.299   1.030   8.547
    5AU     LIG 1689  14.591   0.700   8.774
    5AU       S 1690  13.868   2.398   8.691
    5AU     LIG 1691  14.045   2.573   9.090
    5AU     LIG 1692  14.272   2.722   9.474
    5AU     LIG 1693  14.500   2.852   9.870
    5AU       S 1694  13.529   2.366   8.687
    5AU     LIG 1695  13.551   2.409   9.161
    5AU     LIG 1696  13.867   2.365   9.543
    5AU     LIG 1697  14.268   2.324   9.817
    5AU       S 1698  13.154   2.877   8.730
    5AU     LIG 1699  13.158   2.792   9.160
    5AU     LIG 1700  12.843   2.662   9.450
    5AU     LIG 1701  12.543   2.785   9.777
    5AU       S 1702  13.747   3.355   8.511
    5AU     LIG 1703  13.984   3.581   8.828
    5AU     LIG 1704  14.334   3.513   9.097
    5AU     LIG 1705  14.723   3.308   9.184
    5AU       S 1706  14.393   3.212   8.215
    5AU     LIG 1707  14.559   3.358   8.644
    5AU     LIG 1708  14.843   3.660   8.815
    5AU     LIG 1709  15.039   4.061   8.953
    5AU       S 1710  13.834   2.950   6.356
    5AU     LIG 1711  13.968   2.978   5.917
    5AU     LIG 1712  14.152   2.693   5.616
    5AU     LIG 1713  14.272   2.313   5.384
    5AU       S 1714  14.141   3.465   6.742
    5AU     LIG 1715  14.266   3.909   6.599
    5AU     LIG 1716  14.473   4.059   6.212
    5AU     LIG 1717  14.806   4.129   5.882
    5AU       S 1718  14.389   2.159   6.839
    5AU     LIG 1719  14.709   1.906   6.635
    5AU     LIG 1720  14.717   1.514   6.423
    5AU     LIG 1721  14.588   1.093   6.300
    5AU       S 1722  13.709   2.718   6.283
    5AU     LIG 1723  13.733   2.505   5.896
    5AU     LIG 1724  13.765   2.316   5.483
    5AU     LIG 1725  13.823   2.180   5.046
    5AU       S 1726  13.182   2.598   6.330
    5AU     LIG 1727  13.094   2.597   5.904
    5AU     LIG 1728  13.271   2.467   5.531
    5AU     LIG 1729  13.128   2.409   5.103
    5AU       S 1730  13.550   2.954   6.393
    5AU     LIG 1731  13.448   2.960   5.922
    5AU     LIG 1732  13.651   2.831   5.512
    5AU     LIG 1733  13.926   2.692   5.152
    5AU       S 1734  12.897   2.908   8.623
    5AU     LIG 1735  12.670   2.702   8.939
    5AU     LIG 1736  12.507   2.370   9.189
    5AU     LIG 1737  12.462   2.286   9.642
    5AU       S 1738  12.786   3.509   8.190
    5AU     LIG 1739  12.486   3.702   8.488
    5AU     LIG 1740  12.325   3.609   8.917
    5AU     LIG 1741  11.938   3.664   9.188
    5AU       S 1742  12.788   2.265   8.455
    5AU     LIG 1743  12.316   2.274   8.370
    5AU     LIG 1744  11.932   2.028   8.275
    5AU     LIG 1745  11.697   1.672   8.457
    5AU       S 1746  13.093   2.625   8.647
    5AU     LIG 1747  13.031   2.334   8.997
    5AU     LIG 1748  12.927   2.156   9.397
    5AU     LIG 1749  12.931   2.318   9.831
    5AU       S 1750  12.906   2.552   6.413
    5AU     LIG 1751  12.776   2.223   6.126
    5AU     LIG 1752  12.747   2.282   5.676
    5AU     LIG 1753  12.800   2.653   5.440
    5AU       S 1754  12.797   1.899   6.813
    5AU     LIG 1755  12.797   1.755   6.378
    5AU     LIG 1756  12.463   1.582   6.113
    5AU     LIG 1757  12.105   1.338   5.945
    5AU       S 1758  12.668   3.108   6.664
    5AU     LIG 1759  12.342   3.462   6.671
    5AU     LIG 1760  12.362   3.913   6.532
    5AU     LIG 1761  12.166   4.082   6.142
    5AU       S 1762  13.067   2.835   6.439
    5AU     LIG 1763  12.892   3.036   6.098
    5AU     LIG 1764  13.008   3.073   5.649
    5AU     LIG 1765  13.211   2.917   5.256
    5AU       S 1766  14.326   3.416   6.949
    5AU     LIG 1767  14.637   3.547   6.619
    5AU     LIG 1768  14.843   3.708   6.219
    5AU     LIG 1769  15.138   3.732   5.834
    5AU       S 1770  14.440   3.418   7.442
    5AU     LIG 1771  14.729   3.739   7.702
    5AU     LIG 1772  15.189   3.708   7.757
    5AU     LIG 1773  15.485   3.670   7.404
    5AU       S 1774  14.680   3.157   7.387
    5AU     LIG 1775  15.151   3.256   7.472
    5AU     LIG 1776  15.579   3.198   7.232
    5AU     LIG 1777  15.988   3.364   7.052
    5AU       S 1778  14.601   2.100   7.664
    5AU     LIG 1779  14.847   1.972   8.043
    5AU     LIG 1780  15.274   1.876   8.125
    5AU     LIG 1781  15.350   2.039   7.719
    5AU       S 1782  14.378   3.438   7.986
    5AU     LIG 1783  14.718   3.665   8.238
    5AU     LIG 1784  14.783   4.069   8.496
    5AU     LIG 1785  14.681   4.418   8.814
    5AU       S 1786  14.616   3.284   7.568
    5AU     LIG 1787  14.872   3.284   7.927
    5AU     LIG 1788  15.301   3.256   8.006
    5AU     LIG 1789  15.622   3.251   7.730
    5AU       S 1790  12.667   3.253   8.205
    5AU     LIG 1791  12.416   3.201   8.549
    5AU     LIG 1792  12.033   3.430   8.539
    5AU     LIG 1793  11.675   3.504   8.763
    5AU       S 1794  12.763   3.660   7.396
    5AU     LIG 1795  12.565   4.078   7.300
    5AU     LIG 1796  12.173   4.201   7.084
    5AU     LIG 1797  11.888   3.964   6.802
    5AU       S 1798  12.295   2.812   7.017
    5AU     LIG 1799  11.839   2.783   6.938
    5AU     LIG 1800  11.511   3.071   7.040
    5AU     LIG 1801  11.558   3.323   7.422
    5AU       S 1802  12.781   3.547   6.887
    5AU     LIG 1803  12.821   4.003   6.830
    5AU     LIG 1804  12.563   4.372   6.769
    5AU     LIG 1805  12.197   4.482   6.489
    5AU       S 1806  12.246   2.435   7.662
    5AU     LIG 1807  11.853   2.562   7.513
    5AU     LIG 1808  11.476   2.605   7.277
    5AU     LIG 1809  11.078   2.493   7.081
    5AU       S 1810  12.339   2.914   8.015
    5AU     LIG 1811  12.011   2.937   8.354
    5AU     LIG 1812  11.621   3.178   8.345
    5AU     LIG 1813  11.518   3.268   7.926
    5AU       S 1814  14.329   1.917   7.579
    5AU     LIG 1815  14.393   1.547   7.376
    5AU     LIG 1816  14.789   1.502   7.485
    5AU     LIG 1817  15.125   1.565   7.750
    5AU       S 1818  14.317   1.963   8.074
    5AU     LIG 1819  14.582   1.555   7.993
    5AU     LIG 1820  14.717   1.277   8.334
    5AU     LIG 1821  14.739   1.214   8.810
    5AU       S 1822  14.540   2.012   7.453
    5AU     LIG 1823  14.806   1.872   7.145
    5AU     LIG 1824  15.211   1.726   7.258
    5AU     LIG 1825  15.530   1.527   7.006
    5AU       S 1826  14.292   1.924   7.036
    5AU     LIG 1827  14.472   1.528   6.886
    5AU     LIG 1828  14.382   1.105   6.800
    5AU     LIG 1829  14.277   0.745   6.540
    5AU       S 1830  12.651   2.096   6.838
    5AU     LIG 1831  12.359   1.989   6.462
    5AU     LIG 1832  11.996   1.795   6.203
    5AU     LIG 1833  11.699   1.409   6.274
    5AU       S 1834  12.286   2.189   7.740
    5AU     LIG 1835  11.865   2.054   7.752
    5AU     LIG 1836  11.537   2.127   7.449
    5AU     LIG 1837  11.124   1.994   7.341
    5AU       S 1838  12.802   2.012   8.379
    5AU     LIG 1839  12.404   1.792   8.211
    5AU     LIG 1840  12.030   1.542   8.090
    5AU     LIG 1841  11.755   1.191   8.225
    5AU       S 1842  12.319   2.453   7.862
    5AU     LIG 1843  11.922   2.512   8.052
    5AU     LIG 1844  11.532   2.414   7.886
    5AU     LIG 1845  11.301   1.989   7.878
    5AU       S 1846  12.790   3.662   7.892
    5AU     LIG 1847  12.364   3.803   7.986
    5AU     LIG 1848  12.023   3.880   8.289
    5AU     LIG 1849  11.969   3.934   8.742
    5AU       S 1850  13.631   3.932   7.941
    5AU     LIG 1851  13.915   4.196   8.138
    5AU     LIG 1852  13.770   4.484   8.458
    5AU     LIG 1853  13.545   4.867   8.612
    5AU       S 1854  13.561   4.129   7.736
    5AU     LIG 1855  13.403   4.337   8.101
    5AU     LIG 1856  13.358   4.722   8.169
    5AU     LIG 1857  13.455   5.097   7.996
    5AU       S 1858  13.621   3.864   7.210
    5AU     LIG 1859  13.534   4.297   7.268
    5AU     LIG 1860  13.635   4.599   7.039
    5AU     LIG 1861  13.903   4.876   7.171
    5AU       S 1862  14.199   3.388   8.295
    5AU     LIG 1863  14.308   3.795   8.502
    5AU     LIG 1864  14.450   3.969   8.904
    5AU     LIG 1865  14.699   3.855   9.292
    5AU       S 1866  13.834   3.926   7.642
    5AU     LIG 1867  13.906   4.433   7.593
    5AU     LIG 1868  13.797   4.653   7.935
    5AU     LIG 1869  13.908   4.913   8.237
    5AU       S 1870  13.648   1.581   8.064
    5AU     LIG 1871  13.667   1.173   8.229
    5AU     LIG 1872  13.481   0.759   8.312
    5AU     LIG 1873  13.706   0.437   8.523
    5AU       S 1874  14.085   1.824   7.991
    5AU     LIG 1875  14.158   1.409   7.796
    5AU     LIG 1876  14.336   1.035   8.000
    5AU     LIG 1877  14.629   0.779   8.260
    5AU       S 1878  13.430   1.484   7.890
    5AU     LIG 1879  13.261   1.125   7.656
    5AU     LIG 1880  13.301   0.728   7.815
    5AU     LIG 1881  13.006   0.608   8.140
    5AU       S 1882  13.054   2.143   8.535
    5AU     LIG 1883  12.664   2.000   8.854
    5AU     LIG 1884  12.253   1.806   8.703
    5AU     LIG 1885  12.089   1.375   8.598
    5AU       S 1886  13.526   1.468   7.369
    5AU     LIG 1887  13.570   1.003   7.252
    5AU     LIG 1888  13.569   0.601   7.052
    5AU     LIG 1889  13.560   0.146   6.997
    5AU       S 1890  13.687   1.579   7.818
    5AU     LIG 1891  13.762   1.126   7.724
    5AU     LIG 1892  13.871   0.775   7.979
    5AU     LIG 1893  13.659   0.389   7.991
    5AU       S 1894  13.461   3.879   7.002
    5AU     LIG 1895  13.340   4.241   6.785
    5AU     LIG 1896  13.537   4.565   6.534
    5AU     LIG 1897  13.632   4.595   6.081
    5AU       S 1898  14.132   3.595   7.088
    5AU     LIG 1899  14.452   3.903   7.075
    5AU     LIG 1900  14.773   4.017   6.766
    5AU     LIG 1901  14.945   4.204   6.381
    5AU       S 1902  13.221   3.873   7.184
    5AU     LIG 1903  13.033   4.291   7.209
    5AU     LIG 1904  13.102   4.656   6.955
    5AU     LIG 1905  13.029   4.607   6.517
    5AU       S 1906  12.886   3.279   6.615
    5AU     LIG 1907  12.680   3.508   6.283
    5AU     LIG 1908  12.659   3.925   6.088
    5AU     LIG 1909  12.656   4.354   6.248
    5AU       S 1910  12.710   1.818   7.081
    5AU     LIG 1911  12.304   1.722   6.912
    5AU     LIG 1912  12.158   1.495   6.569
    5AU     LIG 1913  12.292   1.142   6.381
    5AU       S 1914  13.601   1.485   7.144
    5AU     LIG 1915  13.849   1.236   6.849
    5AU     LIG 1916  13.746   0.862   6.591
    5AU     LIG 1917  13.426   0.488   6.575
    5AU       S 1918  13.851   1.557   7.359
    5AU     LIG 1919  14.067   1.144   7.300
    5AU     LIG 1920  14.039   0.780   7.003
    5AU     LIG 1921  13.937   0.408   6.737
    5AU       S 1922  14.191   2.011   6.735
    5AU     LIG 1923  14.223   1.667   6.466
    5AU     LIG 1924  14.101   1.239   6.395
    5AU     LIG 1925  14.128   0.909   6.084
    6AU     AUC 1926  44.200  32.809   7.512
    6AU     AUC 1927  44.455  32.786   7.354
    6AU     AUC 1928  44.452  32.799   7.676
    6AU     AUC 1929  43.941  32.809   7.353
    6AU     AUC 1930  43.943  32.842   7.671
    6AU     AUC 1931  44.062  33.071   7.488
    6AU     AUC 1932  44.381  33.055   7.497
    6AU     AUC 1933  44.026  32.562   7.533
    6AU     AUC 1934  44.340  32.541   7.527
    6AU     AUC 1935  44.187  32.671   7.782
    6AU     AUC 1936  44.215  32.989   7.759
    6AU     AUC 1937  44.191  32.633   7.264
    6AU     AUC 1938  44.211  32.949   7.243
    6AU     AUC 1939  44.713  32.778   7.196
    6AU     AUC 1940  44.707  32.770   7.520
    6AU     AUC 1941  44.702  32.770   7.843
    6AU     AUC 1942  43.689  32.790   7.192
    6AU     AUC 1943  43.675  32.838   7.511
    6AU     AUC 1944  43.695  32.891   7.831
    6AU     AUC 1945  43.919  33.332   7.450
    6AU     AUC 1946  44.257  33.321   7.463
    6AU     AUC 1947  44.575  33.300   7.482
    6AU     AUC 1948  43.854  32.317   7.561
    6AU     AUC 1949  44.173  32.291   7.536
    6AU     AUC 1950  44.487  32.271   7.539
    6AU     AUC 1951  44.176  32.535   8.053
    6AU     AUC 1952  44.196  32.858   8.044
    6AU     AUC 1953  44.240  33.174   8.004
    6AU     AUC 1954  44.201  32.460   7.015
    6AU     AUC 1955  44.198  32.773   6.990
    6AU     AUC 1956  44.216  33.085   6.973
    6AU     AUC 1957  44.433  32.647   7.951
    6AU     AUC 1958  44.479  32.971   7.932
    6AU     AUC 1959  44.465  32.625   7.093
    6AU     AUC 1960  44.467  32.943   7.080
    6AU     AUC 1961  43.936  32.717   7.954
    6AU     AUC 1962  43.953  33.037   7.920
    6AU     AUC 1963  43.931  32.618   7.108
    6AU     AUC 1964  43.944  32.937   7.071
    6AU     AUC 1965  44.647  33.033   7.345
    6AU     AUC 1966  44.640  33.046   7.668
    6AU     AUC 1967  43.794  33.080   7.311
    6AU     AUC 1968  43.796  33.122   7.637
    6AU     AUC 1969  44.593  32.509   7.360
    6AU     AUC 1970  44.593  32.519   7.692
    6AU     AUC 1971  43.755  32.553   7.387
    6AU     AUC 1972  43.766  32.590   7.711
    6AU     AUC 1973  44.076  33.252   7.746
    6AU     AUC 1974  44.417  33.234   7.748
    6AU     AUC 1975  44.011  32.420   7.810
    6AU     AUC 1976  44.328  32.390   7.798
    6AU     AUC 1977  44.063  33.220   7.214
    6AU     AUC 1978  44.401  33.207   7.226
    6AU     AUC 1979  44.018  32.374   7.278
    6AU     AUC 1980  44.352  32.365   7.266
    6AU    AUSL 1981  44.606  32.744   8.150
    6AU    AUSL 1982  44.469  32.402   8.136
    6AU     AUL 1983  44.862  32.545   8.276
    6AU    AUSL 1984  44.284  32.678   8.276
    6AU    AUSL 1985  44.080  33.059   8.253
    6AU     AUL 1986  44.328  32.957   8.551
    6AU    AUSL 1987  44.418  33.050   8.217
    6AU    AUSL 1988  44.782  33.016   8.013
    6AU     AUL 1989  44.730  32.946   8.410
    6AU    AUSL 1990  44.641  32.839   6.886
    6AU    AUSL 1991  44.539  33.190   6.903
    6AU     AUL 1992  44.907  32.998   6.751
    6AU    AUSL 1993  44.419  32.602   6.794
    6AU    AUSL 1994  44.770  32.534   7.027
    6AU     AUL 1995  44.771  32.609   6.643
    6AU    AUSL 1996  44.308  32.920   6.758
    6AU    AUSL 1997  44.077  32.591   6.792
    6AU     AUL 1998  44.307  32.479   6.549
    6AU    AUSL 1999  43.761  32.996   8.133
    6AU    AUSL 2000  43.951  33.321   8.008
    6AU     AUL 2001  43.913  33.357   8.337
    6AU    AUSL 2002  43.940  32.726   8.244
    6AU    AUSL 2003  43.688  32.626   8.010
    6AU     AUL 2004  43.488  32.796   8.173
    6AU    AUSL 2005  43.761  32.663   6.882
    6AU    AUSL 2006  43.885  32.345   6.997
    6AU     AUL 2007  43.973  32.293   6.678
    6AU    AUSL 2008  43.957  32.926   6.792
    6AU    AUSL 2009  43.691  33.069   7.007
    6AU     AUL 2010  43.516  32.859   6.854
    6AU    AUSL 2011  44.890  33.192   7.435
    6AU    AUSL 2012  44.799  33.056   7.107
    6AU     AUL 2013   0.126  32.965   7.072
    6AU    AUSL 2014  44.973  32.864   7.365
    6AU    AUSL 2015  44.935  32.612   7.680
    6AU     AUL 2016   0.271  32.685   7.538
    6AU    AUSL 2017  44.863  32.950   7.680
    6AU    AUSL 2018  44.768  33.300   7.745
    6AU     AUL 2019   0.078  33.016   7.805
    6AU    AUSL 2020  43.625  33.315   7.443
    6AU    AUSL 2021  43.632  33.196   7.887
    6AU     AUL 2022  43.336  33.366   7.642
    6AU    AUSL 2023  43.493  32.974   7.268
    6AU    AUSL 2024  43.787  33.382   7.146
    6AU     AUL 2025  43.405  33.291   7.148
    6AU    AUSL 2026  43.482  33.025   7.638
    6AU    AUSL 2027  43.424  32.673   7.398
    6AU     AUL 2028  43.200  33.043   7.427
    6AU    AUSL 2029  44.786  32.310   7.600
    6AU    AUSL 2030  44.735  32.484   7.934
    6AU     AUL 2031   0.080  32.514   7.930
    6AU    AUSL 2032  44.812  32.559   7.365
    6AU    AUSL 2033  44.682  32.241   7.253
    6AU     AUL 2034   0.044  32.467   7.283
    6AU    AUSL 2035  43.560  32.399   7.590
    6AU    AUSL 2036  43.588  32.519   7.137
    6AU     AUL 2037  43.380  32.281   7.359
    6AU    AUSL 2038  43.467  32.706   7.747
    6AU    AUSL 2039  43.714  32.297   7.883
    6AU     AUL 2040  43.399  32.432   7.935
    6AU    AUSL 2041  44.276  33.475   7.943
    6AU    AUSL 2042  43.796  33.463   7.710
    6AU     AUL 2043  43.993  33.676   7.957
    6AU    AUSL 2044  44.124  33.432   7.616
    6AU    AUSL 2045  44.404  33.556   7.319
    6AU     AUL 2046  44.152  33.744   7.610
    6AU    AUSL 2047  44.474  33.522   7.647
    6AU    AUSL 2048  44.552  33.286   8.018
    6AU     AUL 2049  44.651  33.606   7.881
    6AU    AUSL 2050  44.193  32.220   7.969
    6AU    AUSL 2051  44.533  32.202   7.847
    6AU     AUL 2052  44.306  32.127   8.250
    6AU    AUSL 2053  43.954  32.116   7.730
    6AU    AUSL 2054  43.947  32.402   8.132
    6AU     AUL 2055  43.904  32.030   8.068
    6AU    AUSL 2056  44.273  32.053   7.663
    6AU    AUSL 2057  44.029  32.079   7.383
    6AU     AUL 2058  43.800  31.917   7.561
    6AU    AUSL 2059  44.258  33.372   7.062
    6AU    AUSL 2060  44.661  33.359   7.212
    6AU     AUL 2061  44.465  33.543   6.912
    6AU    AUSL 2062  44.049  33.553   7.295
    6AU    AUSL 2063  43.984  33.244   6.889
    6AU     AUL 2064  44.051  33.581   6.916
    6AU    AUSL 2065  44.175  32.162   7.075
    6AU    AUSL 2066  43.726  32.232   7.296
    6AU     AUL 2067  43.860  31.978   7.058
    6AU    AUSL 2068  44.394  32.077   7.347
    6AU    AUSL 2069  44.480  32.327   6.977
    6AU     AUL 2070  44.465  32.009   6.980
    6AU       S 2071  44.793  32.020   8.297
    6AU     LIG 2072  44.798  31.553   8.366
    6AU     LIG 2073   0.036  31.178   8.319
    6AU     LIG 2074   0.441  30.989   8.460
    6AU       S 2075  44.565  32.492   8.684
    6AU     LIG 2076  44.778  32.677   9.085
    6AU     LIG 2077   0.016  32.788   9.495
    6AU     LIG 2078   0.289  32.724   9.888
    6AU       S 2079  44.228  32.464   8.667
    6AU     LIG 2080  44.289  32.482   9.139
    6AU     LIG 2081  44.583  32.449   9.517
    6AU     LIG 2082  44.957  32.343   9.777
    6AU       S 2083  43.847  33.005   8.714
    6AU     LIG 2084  43.623  32.907   9.104
    6AU     LIG 2085  43.566  32.627   9.457
    6AU     LIG 2086  43.314  32.591   9.842
    6AU       S 2087  44.451  33.460   8.508
    6AU     LIG 2088  44.605  33.663   8.894
    6AU     LIG 2089  44.915  33.625   9.215
    6AU     LIG 2090   0.215  33.293   9.308
    6AU       S 2091   0.096  33.277   8.258
    6AU     LIG 2092   0.107  33.423   8.741
    6AU     LIG 2093   0.345  33.735   8.961
    6AU     LIG 2094   0.641  34.081   9.074
    6AU       S 2095  44.603  33.067   6.357
    6AU     LIG 2096  44.865  32.994   5.971
    6AU     LIG 2097   0.104  32.662   5.743
    6AU     LIG 2098   0.089  32.337   5.419
    6AU       S 2099  44.933  33.514   6.741
    6AU     LIG 2100   0.124  33.820   6.464
    6AU     LIG 2101   0.319  34.054   6.110
    6AU     LIG 2102   0.524  34.223   5.734
    6AU       S 2103   0.086  32.229   6.837
    6AU     LIG 2104   0.381  32.035   6.566
    6AU     LIG 2105   0.403  31.649   6.344
    6AU     LIG 2106   0.417  31.207   6.363
    6AU       S 2107  44.463  32.844   6.258
    6AU     LIG 2108  44.596  32.557   5.906
    6AU     LIG 2109  44.560  32.393   5.466
    6AU     LIG 2110  44.752  32.523   5.055
    6AU       S 2111  43.893  32.688   6.321
    6AU     LIG 2112  43.787  32.620   5.880
    6AU     LIG 2113  43.908  32.450   5.482
    6AU     LIG 2114  43.723  32.412   5.058
    6AU       S 2115  44.300  33.070   6.385
    6AU     LIG 2116  44.070  33.040   5.971
    6AU     LIG 2117  44.278  32.836   5.617
    6AU     LIG 2118  44.729  32.872   5.462
    6AU       S 2119  43.590  33.041   8.594
    6AU     LIG 2120  43.275  32.758   8.745
    6AU     LIG 2121  43.271  32.454   9.054
    6AU     LIG 2122  43.211  32.243   9.439
    6AU       S 2123  43.514  33.641   8.144
    6AU     LIG 2124  43.208  33.767   8.425
    6AU     LIG 2125  43.213  33.704   8.859
    6AU     LIG 2126  43.159  34.042   9.140
    6AU       S 2127  43.505  32.369   8.446
    6AU     LIG 2128  43.082  32.298   8.584
    6AU     LIG 2129  42.704  32.107   8.658
    6AU     LIG 2130  42.630  31.755   8.909
    6AU       S 2131  43.791  32.746   8.629
    6AU     LIG 2132  43.789  32.446   8.972
    6AU     LIG 2133  43.694  32.150   9.309
    6AU     LIG 2134  43.589  32.145   9.777
    6AU       S 2135  43.633  32.613   6.433
    6AU     LIG 2136  43.433  32.314   6.170
    6AU     LIG 2137  43.402  32.293   5.723
    6AU     LIG 2138  43.424  32.645   5.422
    6AU       S 2139  43.475  32.194   6.717
    6AU     LIG 2140  43.496  31.858   6.414
    6AU     LIG 2141  43.383  31.816   5.968
    6AU     LIG 2142  42.966  31.920   5.812
    6AU       S 2143  43.474  33.274   6.591
    6AU     LIG 2144  43.070  33.120   6.402
    6AU     LIG 2145  42.670  33.352   6.390
    6AU     LIG 2146  42.526  33.593   6.022
    6AU       S 2147  43.811  32.940   6.405
    6AU     LIG 2148  43.464  32.949   6.112
    6AU     LIG 2149  43.566  33.074   5.707
    6AU     LIG 2150  43.842  32.954   5.364
    6AU       S 2151   0.115  33.460   6.952
    6AU     LIG 2152   0.505  33.587   6.728
    6AU     LIG 2153   0.648  33.728   6.334
    6AU     LIG 2154   0.826  33.886   5.964
    6AU       S 2155   0.207  33.436   7.441
    6AU     LIG 2156   0.584  33.631   7.235
    6AU     LIG 2157   1.036  33.657   7.326
    6AU     LIG 2158   1.286  33.721   7.710
    6AU       S 2159   0.416  33.185   7.413
    6AU     LIG 2160   0.784  32.978   7.341
    6AU     LIG 2161   1.160  33.145   7.294
    6AU     LIG 2162   1.332  33.406   6.985
    6AU       S 2163   0.266  32.129   7.674
    6AU     LIG 2164   0.605  31.888   7.817
    6AU     LIG 2165   1.033  32.021   7.781
    6AU     LIG 2166   1.319  32.208   7.458
    6AU       S 2167   0.123  33.492   8.030
    6AU     LIG 2168   0.355  33.717   8.384
    6AU     LIG 2169   0.353  34.122   8.620
    6AU     LIG 2170   0.314  34.467   8.940
    6AU       S 2171   0.377  33.345   7.619
    6AU     LIG 2172   0.849  33.348   7.691
    6AU     LIG 2173   1.286  33.229   7.843
    6AU     LIG 2174   1.719  33.471   7.939
    6AU       S 2175  43.373  33.368   8.171
    6AU     LIG 2176  43.002  33.271   8.432
    6AU     LIG 2177  42.749  33.556   8.688
    6AU     LIG 2178  42.726  33.768   9.096
    6AU       S 2179  43.525  33.805   7.354
    6AU     LIG 2180  43.249  34.223   7.365
    6AU     LIG 2181  42.741  34.140   7.183
    6AU     LIG 2182  42.578  33.977   6.750
    6AU       S 2183  43.042  32.783   7.018
    6AU     LIG 2184  42.881  33.165   6.862
    6AU     LIG 2185  42.467  33.348   6.876
    6AU     LIG 2186  42.378  33.707   7.179
    6AU       S 2187  43.567  33.685   6.851
    6AU     LIG 2188  43.495  33.882   6.456
    6AU     LIG 2189  43.117  34.065   6.378
    6AU     LIG 2190  42.965  34.431   6.434
    6AU       S 2191  42.962  32.577   7.475
    6AU     LIG 2192  42.529  32.446   7.336
    6AU     LIG 2193  42.184  32.535   7.014
    6AU     LIG 2194  41.720  32.486   7.130
    6AU       S 2195  43.072  33.031   7.942
    6AU     LIG 2196  42.677  33.129   8.024
    6AU     LIG 2197  42.664  33.537   8.143
    6AU     LIG 2198  42.424  33.765   8.369
    6AU       S 2199  44.996  31.972   7.587
    6AU     LIG 2200   0.086  31.557   7.491
    6AU     LIG 2201   0.509  31.444   7.554
    6AU     LIG 2202   0.875  31.670   7.433
    6AU       S 2203  44.970  32.035   8.086
    6AU     LIG 2204   0.195  31.646   7.997
    6AU     LIG 2205   0.434  31.503   8.327
    6AU     LIG 2206   0.281  31.403   8.746
    6AU       S 2207   0.216  32.045   7.451
    6AU     LIG 2208   0.512  31.946   7.123
    6AU     LIG 2209   0.964  31.928   7.005
    6AU     LIG 2210   1.335  31.754   7.207
    6AU       S 2211  44.978  31.997   7.029
    6AU     LIG 2212   0.190  31.651   6.850
    6AU     LIG 2213   0.004  31.290   6.692
    6AU     LIG 2214  44.992  30.918   6.426
    6AU       S 2215  43.290  32.354   6.856
    6AU     LIG 2216  43.086  32.529   6.503
    6AU     LIG 2217  42.916  32.200   6.261
    6AU     LIG 2218  42.557  31.902   6.230
    6AU       S 2219  42.987  32.379   7.644
    6AU     LIG 2220  42.717  32.096   7.738
    6AU     LIG 2221  42.502  31.938   7.465
    6AU     LIG 2222  42.172  31.678   7.285
    6AU       S 2223  43.474  32.105   8.312
    6AU     LIG 2224  43.159  31.949   7.965
    6AU     LIG 2225  42.885  31.881   8.201
    6AU     LIG 2226  43.017  31.725   8.549
    6AU       S 2227  42.970  32.615   7.716
    6AU     LIG 2228  42.837  32.392   8.134
    6AU     LIG 2229  42.445  32.164   8.223
    6AU     LIG 2230  42.046  32.388   8.196
    6AU       S 2231  43.515  33.810   7.854
    6AU     LIG 2232  43.121  34.003   7.942
    6AU     LIG 2233  42.818  34.050   8.255
    6AU     LIG 2234  42.898  34.066   8.692
    6AU       S 2235  44.389  33.938   8.151
    6AU     LIG 2236  44.521  34.366   8.323
    6AU     LIG 2237  44.285  34.623   8.611
    6AU     LIG 2238  44.209  34.953   8.888
    6AU       S 2239  44.248  34.161   7.959
    6AU     LIG 2240  44.022  34.447   8.163
    6AU     LIG 2241  44.182  34.829   8.165
    6AU     LIG 2242  44.276  35.098   7.874
    6AU       S 2243  44.478  33.952   7.259
    6AU     LIG 2244  44.423  34.363   7.377
    6AU     LIG 2245  44.165  34.567   7.139
    6AU     LIG 2246  44.213  34.853   6.839
    6AU       S 2247  44.896  33.471   8.296
    6AU     LIG 2248  44.886  33.869   8.525
    6AU     LIG 2249  44.947  34.072   8.937
    6AU     LIG 2250   0.191  34.087   9.331
    6AU       S 2251  44.497  34.072   7.793
    6AU     LIG 2252  44.494  34.571   7.837
    6AU     LIG 2253  44.690  34.883   8.101
    6AU     LIG 2254  44.532  35.083   8.477
    6AU       S 2255  44.284  31.670   8.030
    6AU     LIG 2256  44.305  31.263   8.165
    6AU     LIG 2257  44.525  30.988   8.434
    6AU     LIG 2258  44.395  30.604   8.680
    6AU       S 2259  44.735  31.893   7.995
    6AU     LIG 2260  44.748  31.432   7.872
    6AU     LIG 2261   0.084  31.149   7.808
    6AU     LIG 2262   0.516  31.136   7.965
    6AU       S 2263  44.054  31.587   7.845
    6AU     LIG 2264  43.763  31.264   8.005
    6AU     LIG 2265  43.706  31.024   8.367
    6AU     LIG 2266  44.075  30.771   8.265
    6AU       S 2267  43.748  32.261   8.500
    6AU     LIG 2268  43.491  32.048   8.830
    6AU     LIG 2269  43.109  31.951   9.004
    6AU     LIG 2270  43.089  31.506   8.984
    6AU       S 2271  44.141  31.609   7.340
    6AU     LIG 2272  43.902  31.263   7.359
    6AU     LIG 2273  44.218  31.028   7.152
    6AU     LIG 2274  44.235  30.830   6.745
    6AU       S 2275  44.324  31.680   7.792
    6AU     LIG 2276  44.342  31.224   7.639
    6AU     LIG 2277  44.435  30.858   7.889
    6AU     LIG 2278  44.519  30.541   8.188
    6AU       S 2279  44.289  34.007   7.024
    6AU     LIG 2280  43.916  34.161   6.739
    6AU     LIG 2281  43.915  34.538   6.514
    6AU     LIG 2282  44.290  34.775   6.346
    6AU       S 2283  44.942  33.652   7.083
    6AU     LIG 2284   0.262  33.967   6.956
    6AU     LIG 2285   0.499  34.153   6.595
    6AU     LIG 2286   0.759  34.322   6.233
    6AU       S 2287  44.065  34.022   7.205
    6AU     LIG 2288  43.714  34.330   7.181
    6AU     LIG 2289  43.715  34.736   6.969
    6AU     LIG 2290  43.802  35.033   6.595
    6AU       S 2291  43.706  33.419   6.580
    6AU     LIG 2292  43.612  33.431   6.137
    6AU     LIG 2293  43.584  33.801   5.941
    6AU     LIG 2294  43.817  34.174   6.094
    6AU       S 2295  43.364  32.039   6.921
    6AU     LIG 2296  43.213  31.617   6.790
    6AU     LIG 2297  42.844  31.374   6.675
    6AU     LIG 2298  42.642  31.378   6.290
    6AU       S 2299  44.218  31.595   7.107
    6AU     LIG 2300  44.479  31.384   6.801
    6AU     LIG 2301  44.533  31.127   6.438
    6AU     LIG 2302  44.486  30.689   6.288
    6AU       S 2303  44.465  31.642   7.334
    6AU     LIG 2304  44.701  31.281   7.249
    6AU     LIG 2305  44.708  30.938   6.923
    6AU     LIG 2306  44.770  30.556   6.697
    6AU       S 2307  44.880  32.092   6.725
    6AU     LIG 2308  44.912  31.774   6.430
    6AU     LIG 2309  44.941  31.390   6.196
    6AU     LIG 2310  44.779  31.024   5.962
    7AU     AUC 2311  36.274   7.812   7.517
    7AU     AUC 2312  36.526   7.801   7.354
    7AU     AUC 2313  36.529   7.814   7.676
    7AU     AUC 2314  36.011   7.801   7.364
    7AU     AUC 2315  36.019   7.836   7.680
    7AU     AUC 2316  36.127   8.070   7.495
    7AU     AUC 2317  36.444   8.066   7.497
    7AU     AUC 2318  36.110   7.557   7.541
    7AU     AUC 2319  36.426   7.551   7.530
    7AU     AUC 2320  36.271   7.674   7.787
    7AU     AUC 2321  36.288   7.993   7.763
    7AU     AUC 2322  36.267   7.634   7.270
    7AU     AUC 2323  36.273   7.950   7.247
    7AU     AUC 2324  36.782   7.804   7.192
    7AU     AUC 2325  36.782   7.798   7.515
    7AU     AUC 2326  36.783   7.799   7.838
    7AU     AUC 2327  35.753   7.777   7.208
    7AU     AUC 2328  35.749   7.826   7.529
    7AU     AUC 2329  35.773   7.874   7.848
    7AU     AUC 2330  35.978   8.327   7.461
    7AU     AUC 2331  36.315   8.326   7.461
    7AU     AUC 2332  36.630   8.319   7.475
    7AU     AUC 2333  35.950   7.301   7.567
    7AU     AUC 2334  36.275   7.292   7.544
    7AU     AUC 2335  36.591   7.290   7.543
    7AU     AUC 2336  36.269   7.537   8.058
    7AU     AUC 2337  36.278   7.860   8.048
    7AU     AUC 2338  36.312   8.178   8.008
    7AU     AUC 2339  36.281   7.460   7.022
    7AU     AUC 2340  36.263   7.772   6.996
    7AU     AUC 2341  36.266   8.083   6.977
    7AU     AUC 2342  36.522   7.663   7.952
    7AU     AUC 2343  36.555   7.984   7.932
    7AU     AUC 2344  36.540   7.638   7.095
    7AU     AUC 2345  36.526   7.954   7.079
    7AU     AUC 2346  36.017   7.707   7.960
    7AU     AUC 2347  36.031   8.034   7.930
    7AU     AUC 2348  36.004   7.605   7.118
    7AU     AUC 2349  36.000   7.926   7.082
    7AU     AUC 2350  36.706   8.056   7.339
    7AU     AUC 2351  36.706   8.073   7.663
    7AU     AUC 2352  35.855   8.070   7.326
    7AU     AUC 2353  35.866   8.115   7.654
    7AU     AUC 2354  36.679   7.531   7.360
    7AU     AUC 2355  36.685   7.544   7.692
    7AU     AUC 2356  35.835   7.538   7.397
    7AU     AUC 2357  35.849   7.573   7.718
    7AU     AUC 2358  36.143   8.254   7.750
    7AU     AUC 2359  36.483   8.248   7.742
    7AU     AUC 2360  36.110   7.415   7.816
    7AU     AUC 2361  36.428   7.401   7.803
    7AU     AUC 2362  36.113   8.214   7.220
    7AU     AUC 2363  36.451   8.217   7.224
    7AU     AUC 2364  36.106   7.366   7.289
    7AU     AUC 2365  36.444   7.376   7.273
    7AU    AUSL 2366  36.693   7.769   8.149
    7AU    AUSL 2367  36.575   7.425   8.138
    7AU     AUL 2368  36.962   7.588   8.273
    7AU    AUSL 2369  36.373   7.688   8.280
    7AU    AUSL 2370  36.163   8.048   8.259
    7AU     AUL 2371  36.413   7.966   8.559
    7AU    AUSL 2372  36.500   8.060   8.226
    7AU    AUSL 2373  36.866   8.041   8.005
    7AU     AUL 2374  36.829   7.972   8.402
    7AU    AUSL 2375  36.701   7.855   6.883
    7AU    AUSL 2376  36.583   8.201   6.898
    7AU     AUL 2377  36.964   8.012   6.749
    7AU    AUSL 2378  36.489   7.607   6.793
    7AU    AUSL 2379  36.849   7.560   7.025
    7AU     AUL 2380  36.844   7.617   6.646
    7AU    AUSL 2381  36.360   7.919   6.763
    7AU    AUSL 2382  36.145   7.584   6.804
    7AU     AUL 2383  36.363   7.469   6.560
    7AU    AUSL 2384  35.845   7.989   8.143
    7AU    AUSL 2385  36.029   8.324   8.027
    7AU     AUL 2386  36.016   8.345   8.359
    7AU    AUSL 2387  36.023   7.714   8.244
    7AU    AUSL 2388  35.760   7.595   8.025
    7AU     AUL 2389  35.573   7.796   8.177
    7AU    AUSL 2390  35.826   7.647   6.895
    7AU    AUSL 2391  35.974   7.319   7.008
    7AU     AUL 2392  36.002   7.313   6.659
    7AU    AUSL 2393  36.010   7.913   6.805
    7AU    AUSL 2394  35.729   8.044   7.018
    7AU     AUL 2395  35.566   7.786   6.875
    7AU    AUSL 2396  36.942   8.232   7.422
    7AU    AUSL 2397  36.852   8.084   7.098
    7AU     AUL 2398  37.190   8.020   7.065
    7AU    AUSL 2399  37.040   7.907   7.355
    7AU    AUSL 2400  37.023   7.657   7.671
    7AU     AUL 2401  37.354   7.749   7.516
    7AU    AUSL 2402  36.922   7.991   7.667
    7AU    AUSL 2403  36.829   8.337   7.744
    7AU     AUL 2404  37.152   8.050   7.769
    7AU    AUSL 2405  35.695   8.309   7.476
    7AU    AUSL 2406  35.712   8.194   7.903
    7AU     AUL 2407  35.403   8.355   7.669
    7AU    AUSL 2408  35.559   7.984   7.304
    7AU    AUSL 2409  35.828   8.362   7.159
    7AU     AUL 2410  35.460   8.292   7.194
    7AU    AUSL 2411  35.549   8.004   7.677
    7AU    AUSL 2412  35.501   7.670   7.411
    7AU     AUL 2413  35.262   8.016   7.469
    7AU    AUSL 2414  36.888   7.347   7.597
    7AU    AUSL 2415  36.836   7.520   7.932
    7AU     AUL 2416  37.177   7.574   7.919
    7AU    AUSL 2417  36.894   7.594   7.361
    7AU    AUSL 2418  36.779   7.266   7.254
    7AU     AUL 2419  37.128   7.517   7.270
    7AU    AUSL 2420  35.637   7.371   7.575
    7AU    AUSL 2421  35.673   7.490   7.152
    7AU     AUL 2422  35.382   7.344   7.316
    7AU    AUSL 2423  35.551   7.673   7.762
    7AU    AUSL 2424  35.825   7.281   7.874
    7AU     AUL 2425  35.516   7.330   7.897
    7AU    AUSL 2426  36.334   8.483   7.918
    7AU    AUSL 2427  35.877   8.467   7.735
    7AU     AUL 2428  36.084   8.698   7.998
    7AU    AUSL 2429  36.192   8.437   7.601
    7AU    AUSL 2430  36.435   8.570   7.316
    7AU     AUL 2431  36.178   8.755   7.605
    7AU    AUSL 2432  36.553   8.539   7.633
    7AU    AUSL 2433  36.613   8.289   8.012
    7AU     AUL 2434  36.653   8.610   7.970
    7AU    AUSL 2435  36.305   7.224   7.981
    7AU    AUSL 2436  36.648   7.229   7.852
    7AU     AUL 2437  36.430   7.145   8.259
    7AU    AUSL 2438  36.077   7.106   7.742
    7AU    AUSL 2439  36.040   7.389   8.136
    7AU     AUL 2440  36.017   7.012   8.072
    7AU    AUSL 2441  36.399   7.060   7.673
    7AU    AUSL 2442  36.138   7.072   7.399
    7AU     AUL 2443  35.950   6.865   7.595
    7AU    AUSL 2444  36.297   8.371   7.062
    7AU    AUSL 2445  36.699   8.382   7.204
    7AU     AUL 2446  36.490   8.556   6.911
    7AU    AUSL 2447  36.083   8.548   7.290
    7AU    AUSL 2448  36.021   8.230   6.901
    7AU     AUL 2449  36.082   8.559   6.905
    7AU    AUSL 2450  36.277   7.168   7.091
    7AU    AUSL 2451  35.816   7.201   7.313
    7AU     AUL 2452  36.006   6.946   7.086
    7AU    AUSL 2453  36.503   7.090   7.352
    7AU    AUSL 2454  36.570   7.344   6.985
    7AU     AUL 2455  36.552   7.034   6.968
    7AU       S 2456  36.923   7.062   8.299
    7AU     LIG 2457  37.052   6.604   8.323
    7AU     LIG 2458  37.086   6.161   8.406
    7AU     LIG 2459  37.146   5.720   8.581
    7AU       S 2460  36.668   7.512   8.682
    7AU     LIG 2461  36.850   7.683   9.099
    7AU     LIG 2462  37.138   7.851   9.448
    7AU     LIG 2463  37.444   7.784   9.818
    7AU       S 2464  36.330   7.473   8.668
    7AU     LIG 2465  36.376   7.451   9.135
    7AU     LIG 2466  36.658   7.401   9.509
    7AU     LIG 2467  37.053   7.421   9.751
    7AU       S 2468  35.932   7.971   8.723
    7AU     LIG 2469  35.770   7.843   9.137
    7AU     LIG 2470  35.382   7.848   9.364
    7AU     LIG 2471  35.204   7.680   9.767
    7AU       S 2472  36.555   8.460   8.513
    7AU     LIG 2473  36.755   8.663   8.870
    7AU     LIG 2474  37.026   8.523   9.201
    7AU     LIG 2475  37.429   8.323   9.216
    7AU       S 2476  37.193   8.303   8.213
    7AU     LIG 2477  37.385   8.410   8.637
    7AU     LIG 2478  37.590   8.720   8.893
    7AU     LIG 2479  37.661   9.164   9.040
    7AU       S 2480  36.654   8.079   6.359
    7AU     LIG 2481  36.842   8.045   5.932
    7AU     LIG 2482  37.082   7.703   5.753
    7AU     LIG 2483  37.094   7.278   5.570
    7AU       S 2484  36.944   8.525   6.709
    7AU     LIG 2485  37.072   8.926   6.564
    7AU     LIG 2486  37.258   9.118   6.206
    7AU     LIG 2487  37.401   8.953   5.813
    7AU       S 2488  37.177   7.247   6.848
    7AU     LIG 2489  37.497   7.021   6.643
    7AU     LIG 2490  37.509   6.704   6.327
    7AU     LIG 2491  37.407   6.272   6.350
    7AU       S 2492  36.527   7.839   6.277
    7AU     LIG 2493  36.590   7.584   5.914
    7AU     LIG 2494  36.561   7.373   5.513
    7AU     LIG 2495  36.803   7.216   5.152
    7AU       S 2496  35.984   7.720   6.317
    7AU     LIG 2497  35.943   7.796   5.876
    7AU     LIG 2498  36.087   7.626   5.490
    7AU     LIG 2499  35.833   7.479   5.140
    7AU       S 2500  36.364   8.070   6.386
    7AU     LIG 2501  36.325   8.126   5.912
    7AU     LIG 2502  36.516   7.918   5.534
    7AU     LIG 2503  36.868   7.723   5.297
    7AU       S 2504  35.692   8.033   8.601
    7AU     LIG 2505  35.374   7.885   8.809
    7AU     LIG 2506  35.384   7.497   8.964
    7AU     LIG 2507  35.238   7.345   9.357
    7AU       S 2508  35.606   8.633   8.190
    7AU     LIG 2509  35.324   8.932   8.417
    7AU     LIG 2510  35.010   8.983   8.749
    7AU     LIG 2511  34.777   9.209   9.092
    7AU       S 2512  35.552   7.359   8.431
    7AU     LIG 2513  35.081   7.260   8.302
    7AU     LIG 2514  34.754   6.902   8.270
    7AU     LIG 2515  34.600   6.539   8.520
    7AU       S 2516  35.869   7.721   8.626
    7AU     LIG 2517  35.900   7.403   8.932
    7AU     LIG 2518  35.740   7.278   9.271
    7AU     LIG 2519  35.678   7.521   9.623
    7AU       S 2520  35.708   7.674   6.406
    7AU     LIG 2521  35.585   7.436   6.046
    7AU     LIG 2522  35.570   7.533   5.600
    7AU     LIG 2523  35.679   7.920   5.387
    7AU       S 2524  35.593   7.042   6.788
    7AU     LIG 2525  35.500   6.661   6.547
    7AU     LIG 2526  35.242   6.525   6.200
    7AU     LIG 2527  34.895   6.333   5.963
    7AU       S 2528  35.485   8.229   6.650
    7AU     LIG 2529  35.143   8.559   6.676
    7AU     LIG 2530  35.091   8.936   6.433
    7AU     LIG 2531  35.007   9.168   6.037
    7AU       S 2532  35.878   7.954   6.429
    7AU     LIG 2533  35.622   8.123   6.123
    7AU     LIG 2534  35.764   8.304   5.736
    7AU     LIG 2535  36.103   8.216   5.436
    7AU       S 2536  37.124   8.503   6.924
    7AU     LIG 2537  37.475   8.601   6.674
    7AU     LIG 2538  37.614   8.746   6.250
    7AU     LIG 2539  37.895   8.778   5.879
    7AU       S 2540  37.249   8.501   7.410
    7AU     LIG 2541  37.654   8.752   7.309
    7AU     LIG 2542  38.058   8.766   7.520
    7AU     LIG 2543  38.242   8.747   7.934
    7AU       S 2544  37.478   8.260   7.393
    7AU     LIG 2545  37.913   8.309   7.274
    7AU     LIG 2546  38.337   8.459   7.217
    7AU     LIG 2547  38.582   8.620   7.532
    7AU       S 2548  37.377   7.198   7.659
    7AU     LIG 2549  37.785   7.052   7.677
    7AU     LIG 2550  38.233   7.126   7.666
    7AU     LIG 2551  38.536   7.047   7.340
    7AU       S 2552  37.159   8.542   7.995
    7AU     LIG 2553  37.525   8.712   8.211
    7AU     LIG 2554  37.604   9.063   8.503
    7AU     LIG 2555  37.331   9.372   8.695
    7AU       S 2556  37.399   8.425   7.590
    7AU     LIG 2557  37.786   8.435   7.789
    7AU     LIG 2558  38.217   8.290   7.708
    7AU     LIG 2559  38.604   8.329   7.956
    7AU       S 2560  35.468   8.376   8.203
    7AU     LIG 2561  35.067   8.478   8.394
    7AU     LIG 2562  34.674   8.706   8.475
    7AU     LIG 2563  34.458   9.042   8.715
    7AU       S 2564  35.578   8.790   7.386
    7AU     LIG 2565  35.402   9.104   7.077
    7AU     LIG 2566  35.003   9.022   6.958
    7AU     LIG 2567  34.858   8.594   7.126
    7AU       S 2568  35.099   7.956   6.993
    7AU     LIG 2569  34.657   7.792   6.955
    7AU     LIG 2570  34.309   8.007   7.133
    7AU     LIG 2571  34.333   8.452   7.224
    7AU       S 2572  35.596   8.668   6.863
    7AU     LIG 2573  35.570   9.053   6.599
    7AU     LIG 2574  35.240   9.381   6.642
    7AU     LIG 2575  34.803   9.371   6.450
    7AU       S 2576  35.032   7.580   7.605
    7AU     LIG 2577  34.632   7.718   7.459
    7AU     LIG 2578  34.306   7.483   7.242
    7AU     LIG 2579  33.998   7.152   7.104
    7AU       S 2580  35.145   8.047   7.992
    7AU     LIG 2581  34.728   8.132   8.169
    7AU     LIG 2582  34.396   8.435   8.100
    7AU     LIG 2583  34.430   8.867   8.058
    7AU       S 2584  37.118   7.006   7.575
    7AU     LIG 2585  37.362   6.625   7.468
    7AU     LIG 2586  37.739   6.540   7.629
    7AU     LIG 2587  38.017   6.707   7.967
    7AU       S 2588  37.106   7.092   8.079
    7AU     LIG 2589  37.422   6.772   7.978
    7AU     LIG 2590  37.568   6.516   8.324
    7AU     LIG 2591  37.702   6.633   8.777
    7AU       S 2592  37.329   7.113   7.441
    7AU     LIG 2593  37.626   6.926   7.154
    7AU     LIG 2594  38.081   6.990   7.087
    7AU     LIG 2595  38.477   7.061   6.833
    7AU       S 2596  37.066   7.004   7.047
    7AU     LIG 2597  37.249   6.608   6.871
    7AU     LIG 2598  37.161   6.147   6.783
    7AU     LIG 2599  37.123   5.822   6.422
    7AU       S 2600  35.435   7.232   6.822
    7AU     LIG 2601  35.208   7.067   6.424
    7AU     LIG 2602  34.836   6.840   6.222
    7AU     LIG 2603  34.490   6.506   6.253
    7AU       S 2604  35.059   7.341   7.710
    7AU     LIG 2605  34.649   7.157   7.798
    7AU     LIG 2606  34.344   7.036   7.491
    7AU     LIG 2607  34.263   6.643   7.259
    7AU       S 2608  35.585   7.092   8.327
    7AU     LIG 2609  35.255   6.798   8.154
    7AU     LIG 2610  34.961   6.438   8.131
    7AU     LIG 2611  34.818   6.088   8.384
    7AU       S 2612  35.094   7.598   7.820
    7AU     LIG 2613  34.671   7.655   7.965
    7AU     LIG 2614  34.280   7.532   7.771
    7AU     LIG 2615  34.050   7.189   7.891
    7AU       S 2616  35.590   8.797   7.891
    7AU     LIG 2617  35.181   9.032   7.933
    7AU     LIG 2618  34.870   9.173   8.236
    7AU     LIG 2619  34.837   9.439   8.610
    7AU       S 2620  36.476   9.060   7.890
    7AU     LIG 2621  36.639   9.286   8.222
    7AU     LIG 2622  36.365   9.399   8.558
    7AU     LIG 2623  36.010   9.698   8.560
    7AU       S 2624  36.452   9.250   7.676
    7AU     LIG 2625  36.161   9.445   8.011
    7AU     LIG 2626  35.917   9.803   8.059
    7AU     LIG 2627  35.796  10.172   7.842
    7AU       S 2628  36.424   8.999   7.216
    7AU     LIG 2629  36.274   9.455   7.260
    7AU     LIG 2630  36.217   9.853   7.083
    7AU     LIG 2631  36.569   9.999   6.870
    7AU       S 2632  37.008   8.485   8.296
    7AU     LIG 2633  37.129   8.850   8.554
    7AU     LIG 2634  37.166   8.976   8.995
    7AU     LIG 2635  37.411   8.838   9.374
    7AU       S 2636  36.704   8.982   7.620
    7AU     LIG 2637  36.911   9.407   7.732
    7AU     LIG 2638  36.593   9.690   7.910
    7AU     LIG 2639  36.448   9.821   8.300
    7AU       S 2640  36.461   6.687   8.054
    7AU     LIG 2641  36.666   6.282   8.142
    7AU     LIG 2642  36.665   5.855   8.360
    7AU     LIG 2643  36.511   5.408   8.511
    7AU       S 2644  36.886   6.953   8.004
    7AU     LIG 2645  36.994   6.552   7.811
    7AU     LIG 2646  37.072   6.110   7.812
    7AU     LIG 2647  37.102   5.746   8.072
    7AU       S 2648  36.265   6.593   7.881
    7AU     LIG 2649  36.201   6.157   7.922
    7AU     LIG 2650  36.197   5.744   8.128
    7AU     LIG 2651  35.888   5.480   8.365
    7AU       S 2652  35.809   7.239   8.489
    7AU     LIG 2653  35.448   7.004   8.787
    7AU     LIG 2654  35.109   6.638   8.678
    7AU     LIG 2655  34.840   6.269   8.877
    7AU       S 2656  36.313   6.589   7.362
    7AU     LIG 2657  36.233   6.128   7.347
    7AU     LIG 2658  36.414   5.826   7.062
    7AU     LIG 2659  36.417   5.402   6.871
    7AU       S 2660  36.511   6.697   7.802
    7AU     LIG 2661  36.611   6.272   7.638
    7AU     LIG 2662  36.610   5.872   7.821
    7AU     LIG 2663  36.651   5.478   8.027
    7AU       S 2664  36.272   9.003   7.015
    7AU     LIG 2665  36.101   9.323   6.767
    7AU     LIG 2666  36.286   9.673   6.580
    7AU     LIG 2667  36.457  10.015   6.315
    7AU       S 2668  36.962   8.692   7.059
    7AU     LIG 2669  37.318   8.991   7.006
    7AU     LIG 2670  37.565   9.099   6.628
    7AU     LIG 2671  37.826   9.245   6.249
    7AU       S 2672  36.019   9.004   7.186
    7AU     LIG 2673  35.780   9.442   7.138
    7AU     LIG 2674  35.785   9.749   6.765
    7AU     LIG 2675  36.078  10.123   6.658
    7AU       S 2676  35.710   8.401   6.601
    7AU     LIG 2677  35.479   8.602   6.281
    7AU     LIG 2678  35.480   8.966   6.049
    7AU     LIG 2679  35.469   9.392   6.176
    7AU       S 2680  35.500   6.942   7.033
    7AU     LIG 2681  35.112   6.786   6.856
    7AU     LIG 2682  34.901   6.495   6.594
    7AU     LIG 2683  34.854   6.107   6.415
    7AU       S 2684  36.401   6.592   7.136
    7AU     LIG 2685  36.657   6.278   6.887
    7AU     LIG 2686  36.641   6.010   6.502
    7AU     LIG 2687  36.640   5.545   6.411
    7AU       S 2688  36.648   6.688   7.336
    7AU     LIG 2689  36.965   6.372   7.292
    7AU     LIG 2690  36.914   5.941   7.253
    7AU     LIG 2691  36.863   5.731   6.850
    7AU       S 2692  36.988   7.110   6.752
    7AU     LIG 2693  37.032   6.834   6.449
    7AU     LIG 2694  36.925   6.421   6.391
    7AU     LIG 2695  36.967   6.130   6.037
    8AU     AUC 2696  29.207  22.521   7.524
    8AU     AUC 2697  29.459  22.502   7.359
    8AU     AUC 2698  29.462  22.515   7.681
    8AU     AUC 2699  28.944  22.519   7.372
    8AU     AUC 2700  28.953  22.551   7.690
    8AU     AUC 2701  29.067  22.781   7.505
    8AU     AUC 2702  29.385  22.770   7.504
    8AU     AUC 2703  29.035  22.271   7.547
    8AU     AUC 2704  29.351  22.255   7.534
    8AU     AUC 2705  29.200  22.381   7.793
    8AU     AUC 2706  29.226  22.700   7.771
    8AU     AUC 2707  29.195  22.344   7.275
    8AU     AUC 2708  29.209  22.660   7.254
    8AU     AUC 2709  29.715  22.496   7.196
    8AU     AUC 2710  29.715  22.489   7.518
    8AU     AUC 2711  29.714  22.492   7.842
    8AU     AUC 2712  28.687  22.511   7.219
    8AU     AUC 2713  28.687  22.555   7.543
    8AU     AUC 2714  28.707  22.591   7.861
    8AU     AUC 2715  28.924  23.044   7.476
    8AU     AUC 2716  29.262  23.033   7.469
    8AU     AUC 2717  29.576  23.020   7.482
    8AU     AUC 2718  28.863  22.022   7.569
    8AU     AUC 2719  29.190  22.001   7.547
    8AU     AUC 2720  29.504  21.988   7.545
    8AU     AUC 2721  29.193  22.240   8.063
    8AU     AUC 2722  29.212  22.565   8.055
    8AU     AUC 2723  29.255  22.884   8.017
    8AU     AUC 2724  29.201  22.171   7.025
    8AU     AUC 2725  29.193  22.483   7.002
    8AU     AUC 2726  29.204  22.794   6.985
    8AU     AUC 2727  29.450  22.363   7.957
    8AU     AUC 2728  29.491  22.687   7.937
    8AU     AUC 2729  29.466  22.340   7.098
    8AU     AUC 2730  29.461  22.657   7.085
    8AU     AUC 2731  28.946  22.417   7.968
    8AU     AUC 2732  28.969  22.742   7.942
    8AU     AUC 2733  28.932  22.326   7.125
    8AU     AUC 2734  28.934  22.646   7.092
    8AU     AUC 2735  29.646  22.752   7.345
    8AU     AUC 2736  29.646  22.769   7.668
    8AU     AUC 2737  28.795  22.795   7.339
    8AU     AUC 2738  28.807  22.833   7.669
    8AU     AUC 2739  29.604  22.227   7.363
    8AU     AUC 2740  29.608  22.239   7.695
    8AU     AUC 2741  28.765  22.264   7.406
    8AU     AUC 2742  28.771  22.292   7.722
    8AU     AUC 2743  29.089  22.962   7.763
    8AU     AUC 2744  29.427  22.952   7.751
    8AU     AUC 2745  29.029  22.126   7.819
    8AU     AUC 2746  29.347  22.104   7.807
    8AU     AUC 2747  29.056  22.929   7.230
    8AU     AUC 2748  29.394  22.922   7.230
    8AU     AUC 2749  29.025  22.082   7.294
    8AU     AUC 2750  29.361  22.081   7.276
    8AU    AUSL 2751  29.623  22.466   8.152
    8AU    AUSL 2752  29.495  22.124   8.143
    8AU     AUL 2753  29.891  22.288   8.272
    8AU    AUSL 2754  29.305  22.391   8.286
    8AU    AUSL 2755  29.104  22.752   8.273
    8AU     AUL 2756  29.373  22.663   8.561
    8AU    AUSL 2757  29.439  22.765   8.226
    8AU    AUSL 2758  29.796  22.740   8.009
    8AU     AUL 2759  29.762  22.667   8.406
    8AU    AUSL 2760  29.633  22.553   6.889
    8AU    AUSL 2761  29.524  22.904   6.905
    8AU     AUL 2762  29.897  22.722   6.753
    8AU    AUSL 2763  29.413  22.313   6.792
    8AU    AUSL 2764  29.773  22.249   7.027
    8AU     AUL 2765  29.779  22.324   6.654
    8AU    AUSL 2766  29.292  22.627   6.769
    8AU    AUSL 2767  29.065  22.299   6.810
    8AU     AUL 2768  29.267  22.177   6.566
    8AU    AUSL 2769  28.781  22.697   8.157
    8AU    AUSL 2770  28.976  23.021   8.045
    8AU     AUL 2771  28.934  23.044   8.377
    8AU    AUSL 2772  28.958  22.420   8.253
    8AU    AUSL 2773  28.688  22.312   8.039
    8AU     AUL 2774  28.505  22.514   8.197
    8AU    AUSL 2775  28.748  22.376   6.904
    8AU    AUSL 2776  28.888  22.038   7.014
    8AU     AUL 2777  28.884  22.039   6.664
    8AU    AUSL 2778  28.943  22.633   6.814
    8AU    AUSL 2779  28.664  22.772   7.028
    8AU     AUL 2780  28.491  22.510   6.888
    8AU    AUSL 2781  29.888  22.920   7.431
    8AU    AUSL 2782  29.790  22.777   7.104
    8AU     AUL 2783  30.127  22.718   7.071
    8AU    AUSL 2784  29.976  22.590   7.358
    8AU    AUSL 2785  29.945  22.338   7.676
    8AU     AUL 2786  30.276  22.400   7.512
    8AU    AUSL 2787  29.862  22.677   7.673
    8AU    AUSL 2788  29.773  23.032   7.749
    8AU     AUL 2789  30.084  22.737   7.788
    8AU    AUSL 2790  28.644  23.040   7.500
    8AU    AUSL 2791  28.653  22.907   7.916
    8AU     AUL 2792  28.341  23.074   7.684
    8AU    AUSL 2793  28.497  22.732   7.317
    8AU    AUSL 2794  28.772  23.085   7.177
    8AU     AUL 2795  28.409  23.039   7.218
    8AU    AUSL 2796  28.481  22.725   7.690
    8AU    AUSL 2797  28.454  22.422   7.433
    8AU     AUL 2798  28.189  22.738   7.475
    8AU    AUSL 2799  29.801  22.031   7.599
    8AU    AUSL 2800  29.758  22.209   7.938
    8AU     AUL 2801  30.106  22.244   7.912
    8AU    AUSL 2802  29.830  22.277   7.361
    8AU    AUSL 2803  29.690  21.956   7.253
    8AU     AUL 2804  30.055  22.166   7.267
    8AU    AUSL 2805  28.535  22.105   7.552
    8AU    AUSL 2806  28.612  22.220   7.170
    8AU     AUL 2807  28.281  22.281   7.214
    8AU    AUSL 2808  28.481  22.393   7.779
    8AU    AUSL 2809  28.735  22.008   7.866
    8AU     AUL 2810  28.436  22.052   7.912
    8AU    AUSL 2811  29.279  23.193   7.927
    8AU    AUSL 2812  28.836  23.182   7.763
    8AU     AUL 2813  29.039  23.379   8.074
    8AU    AUSL 2814  29.140  23.136   7.608
    8AU    AUSL 2815  29.388  23.273   7.320
    8AU     AUL 2816  29.137  23.447   7.621
    8AU    AUSL 2817  29.497  23.246   7.640
    8AU    AUSL 2818  29.556  23.002   8.021
    8AU     AUL 2819  29.619  23.332   7.946
    8AU    AUSL 2820  29.215  21.925   7.983
    8AU    AUSL 2821  29.558  21.926   7.857
    8AU     AUL 2822  29.330  21.851   8.262
    8AU    AUSL 2823  28.984  21.820   7.742
    8AU    AUSL 2824  28.958  22.096   8.137
    8AU     AUL 2825  28.905  21.726   8.063
    8AU    AUSL 2826  29.306  21.765   7.674
    8AU    AUSL 2827  29.050  21.784   7.401
    8AU     AUL 2828  28.851  21.587   7.587
    8AU    AUSL 2829  29.242  23.080   7.067
    8AU    AUSL 2830  29.650  23.080   7.211
    8AU     AUL 2831  29.442  23.256   6.916
    8AU    AUSL 2832  29.037  23.261   7.300
    8AU    AUSL 2833  28.958  22.949   6.915
    8AU     AUL 2834  29.023  23.267   6.913
    8AU    AUSL 2835  29.185  21.878   7.093
    8AU    AUSL 2836  28.735  21.924   7.325
    8AU     AUL 2837  28.904  21.661   7.092
    8AU    AUSL 2838  29.410  21.792   7.353
    8AU    AUSL 2839  29.483  22.048   6.986
    8AU     AUL 2840  29.445  21.741   6.970
    8AU       S 2841  29.820  21.765   8.328
    8AU     LIG 2842  29.972  21.322   8.442
    8AU     LIG 2843  30.234  20.959   8.596
    8AU     LIG 2844  30.573  20.639   8.655
    8AU       S 2845  29.599  22.192   8.678
    8AU     LIG 2846  29.805  22.402   9.053
    8AU     LIG 2847  30.076  22.462   9.437
    8AU     LIG 2848  30.391  22.391   9.793
    8AU       S 2849  29.258  22.174   8.678
    8AU     LIG 2850  29.291  22.251   9.132
    8AU     LIG 2851  29.612  22.184   9.488
    8AU     LIG 2852  29.978  22.053   9.763
    8AU       S 2853  28.899  22.670   8.740
    8AU     LIG 2854  28.808  22.585   9.169
    8AU     LIG 2855  28.487  22.387   9.434
    8AU     LIG 2856  28.282  22.358   9.859
    8AU       S 2857  29.475  23.167   8.517
    8AU     LIG 2858  29.658  23.362   8.887
    8AU     LIG 2859  30.031  23.259   9.104
    8AU     LIG 2860  30.293  22.888   9.160
    8AU       S 2861  30.123  23.001   8.226
    8AU     LIG 2862  30.275  23.073   8.663
    8AU     LIG 2863  30.488  23.382   8.904
    8AU     LIG 2864  30.745  23.722   9.080
    8AU       S 2865  29.586  22.769   6.361
    8AU     LIG 2866  29.749  22.764   5.925
    8AU     LIG 2867  30.089  22.502   5.761
    8AU     LIG 2868  30.142  22.085   5.570
    8AU       S 2869  29.894  23.241   6.711
    8AU     LIG 2870  29.971  23.618   6.425
    8AU     LIG 2871  30.226  23.818   6.093
    8AU     LIG 2872  30.525  24.153   6.137
    8AU       S 2873  30.075  21.916   6.822
    8AU     LIG 2874  30.243  21.755   6.401
    8AU     LIG 2875  30.241  21.381   6.138
    8AU     LIG 2876  30.365  20.956   6.227
    8AU       S 2877  29.464  22.529   6.278
    8AU     LIG 2878  29.670  22.249   5.966
    8AU     LIG 2879  29.606  22.032   5.568
    8AU     LIG 2880  29.831  22.024   5.164
    8AU       S 2881  28.904  22.451   6.325
    8AU     LIG 2882  28.788  22.411   5.894
    8AU     LIG 2883  28.982  22.195   5.556
    8AU     LIG 2884  29.034  22.275   5.120
    8AU       S 2885  29.304  22.775   6.399
    8AU     LIG 2886  29.148  22.761   5.962
    8AU     LIG 2887  29.372  22.520   5.644
    8AU     LIG 2888  29.750  22.493   5.381
    8AU       S 2889  28.642  22.705   8.638
    8AU     LIG 2890  28.375  22.473   8.887
    8AU     LIG 2891  28.222  22.114   9.061
    8AU     LIG 2892  28.085  22.047   9.487
    8AU       S 2893  28.539  23.339   8.197
    8AU     LIG 2894  28.275  23.632   8.416
    8AU     LIG 2895  28.111  23.611   8.850
    8AU     LIG 2896  27.717  23.773   9.034
    8AU       S 2897  28.495  22.080   8.456
    8AU     LIG 2898  28.010  22.077   8.364
    8AU     LIG 2899  27.581  21.833   8.338
    8AU     LIG 2900  27.391  21.392   8.383
    8AU       S 2901  28.824  22.425   8.644
    8AU     LIG 2902  28.748  22.118   8.985
    8AU     LIG 2903  28.584  21.884   9.352
    8AU     LIG 2904  28.604  21.945   9.814
    8AU       S 2905  28.626  22.423   6.410
    8AU     LIG 2906  28.489  22.063   6.139
    8AU     LIG 2907  28.481  22.058   5.666
    8AU     LIG 2908  28.559  22.417   5.368
    8AU       S 2909  28.481  21.765   6.838
    8AU     LIG 2910  28.404  21.411   6.581
    8AU     LIG 2911  28.214  21.347   6.179
    8AU     LIG 2912  27.852  21.115   6.024
    8AU       S 2913  28.447  22.964   6.667
    8AU     LIG 2914  28.083  23.196   6.708
    8AU     LIG 2915  27.805  23.423   6.456
    8AU     LIG 2916  27.931  23.549   6.044
    8AU       S 2917  28.815  22.692   6.439
    8AU     LIG 2918  28.569  22.866   6.126
    8AU     LIG 2919  28.623  22.851   5.673
    8AU     LIG 2920  28.969  22.723   5.402
    8AU       S 2921  30.077  23.202   6.925
    8AU     LIG 2922  30.385  23.472   6.703
    8AU     LIG 2923  30.650  23.675   6.362
    8AU     LIG 2924  31.076  23.778   6.214
    8AU       S 2925  30.206  23.164   7.414
    8AU     LIG 2926  30.611  23.370   7.266
    8AU     LIG 2927  31.068  23.315   7.349
    8AU     LIG 2928  31.483  23.370   7.515
    8AU       S 2929  30.436  22.903   7.419
    8AU     LIG 2930  30.900  22.820   7.478
    8AU     LIG 2931  31.357  22.877   7.367
    8AU     LIG 2932  31.525  23.166   7.032
    8AU       S 2933  30.270  21.839   7.672
    8AU     LIG 2934  30.674  21.753   7.817
    8AU     LIG 2935  31.106  21.641   7.843
    8AU     LIG 2936  31.473  21.547   7.616
    8AU       S 2937  30.117  23.228   8.011
    8AU     LIG 2938  30.435  23.435   8.308
    8AU     LIG 2939  30.494  23.822   8.614
    8AU     LIG 2940  30.503  24.158   8.973
    8AU       S 2941  30.358  23.088   7.603
    8AU     LIG 2942  30.746  23.216   7.776
    8AU     LIG 2943  31.189  23.081   7.828
    8AU     LIG 2944  31.642  22.960   7.818
    8AU       S 2945  28.399  23.081   8.214
    8AU     LIG 2946  28.042  23.176   8.475
    8AU     LIG 2947  27.729  23.510   8.525
    8AU     LIG 2948  27.296  23.595   8.641
    8AU       S 2949  28.545  23.518   7.427
    8AU     LIG 2950  28.315  23.828   7.200
    8AU     LIG 2951  28.043  23.662   6.901
    8AU     LIG 2952  27.680  23.381   6.965
    8AU       S 2953  28.051  22.756   6.979
    8AU     LIG 2954  27.716  22.451   7.063
    8AU     LIG 2955  27.379  22.689   7.145
    8AU     LIG 2956  27.224  23.108   6.943
    8AU       S 2957  28.541  23.417   6.893
    8AU     LIG 2958  28.455  23.829   6.665
    8AU     LIG 2959  28.039  23.866   6.444
    8AU     LIG 2960  27.898  24.061   6.032
    8AU       S 2961  27.977  22.284   7.620
    8AU     LIG 2962  27.578  22.203   7.509
    8AU     LIG 2963  27.497  21.797   7.392
    8AU     LIG 2964  27.345  21.499   7.067
    8AU       S 2965  28.071  22.750   7.998
    8AU     LIG 2966  27.682  22.814   8.289
    8AU     LIG 2967  27.328  23.123   8.345
    8AU     LIG 2968  27.404  23.508   8.136
    8AU       S 2969  29.994  21.665   7.595
    8AU     LIG 2970  30.208  21.245   7.627
    8AU     LIG 2971  30.613  21.210   7.795
    8AU     LIG 2972  30.820  21.401   7.481
    8AU       S 2973  29.997  21.781   8.107
    8AU     LIG 2974  30.314  21.492   8.084
    8AU     LIG 2975  30.613  21.197   8.324
    8AU     LIG 2976  30.657  21.173   8.789
    8AU       S 2977  30.207  21.739   7.446
    8AU     LIG 2978  30.632  21.832   7.290
    8AU     LIG 2979  31.099  21.788   7.321
    8AU     LIG 2980  31.489  21.722   7.115
    8AU       S 2981  29.954  21.684   7.028
    8AU     LIG 2982  30.064  21.300   6.777
    8AU     LIG 2983  30.115  20.840   6.692
    8AU     LIG 2984  30.143  20.513   6.359
    8AU       S 2985  28.344  21.926   6.873
    8AU     LIG 2986  28.113  21.816   6.463
    8AU     LIG 2987  27.755  21.578   6.267
    8AU     LIG 2988  27.440  21.229   6.336
    8AU       S 2989  28.053  22.018   7.589
    8AU     LIG 2990  27.753  21.861   7.870
    8AU     LIG 2991  27.554  21.477   7.900
    8AU     LIG 2992  27.267  21.369   7.583
    8AU       S 2993  28.493  21.826   8.349
    8AU     LIG 2994  28.065  21.576   8.264
    8AU     LIG 2995  27.838  21.160   8.206
    8AU     LIG 2996  27.937  20.716   8.225
    8AU       S 2997  28.024  22.303   7.793
    8AU     LIG 2998  27.681  22.348   8.051
    8AU     LIG 2999  27.306  22.183   7.952
    8AU     LIG 3000  27.188  21.814   7.813
    8AU       S 3001  28.569  23.498   7.917
    8AU     LIG 3002  28.226  23.768   7.857
    8AU     LIG 3003  27.909  23.902   8.142
    8AU     LIG 3004  27.908  24.000   8.581
    8AU       S 3005  29.370  23.770   7.952
    8AU     LIG 3006  29.450  24.204   8.121
    8AU     LIG 3007  29.150  24.524   8.306
    8AU     LIG 3008  28.676  24.543   8.434
    8AU       S 3009  29.287  23.959   7.690
    8AU     LIG 3010  28.972  24.190   7.940
    8AU     LIG 3011  28.804  24.620   7.948
    8AU     LIG 3012  28.865  24.984   8.249
    8AU       S 3013  29.385  23.688   7.217
    8AU     LIG 3014  29.346  24.136   7.219
    8AU     LIG 3015  29.437  24.536   7.237
    8AU     LIG 3016  29.396  24.805   6.881
    8AU       S 3017  29.930  23.186   8.309
    8AU     LIG 3018  30.041  23.534   8.605
    8AU     LIG 3019  30.144  23.753   8.993
    8AU     LIG 3020  30.335  23.612   9.388
    8AU       S 3021  29.578  23.755   7.658
    8AU     LIG 3022  29.665  24.258   7.624
    8AU     LIG 3023  29.383  24.607   7.801
    8AU     LIG 3024  29.387  24.968   8.152
    8AU       S 3025  29.341  21.392   8.053
    8AU     LIG 3026  29.402  20.948   8.138
    8AU     LIG 3027  29.303  20.673   8.480
    8AU     LIG 3028  29.555  20.354   8.656
    8AU       S 3029  29.780  21.642   8.035
    8AU     LIG 3030  29.843  21.218   7.967
    8AU     LIG 3031  30.202  21.003   8.091
    8AU     LIG 3032  30.312  20.603   8.233
    8AU       S 3033  29.148  21.301   7.872
    8AU     LIG 3034  28.997  20.873   7.845
    8AU     LIG 3035  28.995  20.502   8.098
    8AU     LIG 3036  28.730  20.287   8.371
    8AU       S 3037  28.762  21.951   8.511
    8AU     LIG 3038  28.460  21.702   8.828
    8AU     LIG 3039  28.189  21.301   8.742
    8AU     LIG 3040  28.173  20.818   8.714
    8AU       S 3041  29.206  21.295   7.357
    8AU     LIG 3042  29.116  20.827   7.333
    8AU     LIG 3043  29.248  20.484   7.051
    8AU     LIG 3044  29.521  20.135   6.931
    8AU       S 3045  29.408  21.401   7.799
    8AU     LIG 3046  29.511  20.979   7.632
    8AU     LIG 3047  29.391  20.565   7.741
    8AU     LIG 3048  29.485  20.352   8.133
    8AU       S 3049  29.220  23.708   7.006
    8AU     LIG 3050  29.079  24.003   6.691
    8AU     LIG 3051  29.299  24.362   6.515
    8AU     LIG 3052  29.436  24.765   6.344
    8AU       S 3053  29.917  23.381   7.070
    8AU     LIG 3054  30.031  23.800   6.908
    8AU     LIG 3055  30.330  23.987   6.611
    8AU     LIG 3056  30.781  24.148   6.603
    8AU       S 3057  28.990  23.705   7.204
    8AU     LIG 3058  28.766  24.090   7.086
    8AU     LIG 3059  29.014  24.448   6.941
    8AU     LIG 3060  28.948  24.723   6.585
    8AU       S 3061  28.634  23.147   6.617
    8AU     LIG 3062  28.362  23.417   6.337
    8AU     LIG 3063  28.429  23.832   6.131
    8AU     LIG 3064  28.702  24.177   6.300
    8AU       S 3065  28.373  21.728   7.142
    8AU     LIG 3066  27.999  21.534   6.891
    8AU     LIG 3067  27.922  21.192   6.571
    8AU     LIG 3068  28.168  20.841   6.364
    8AU       S 3069  29.299  21.294   7.116
    8AU     LIG 3070  29.585  21.063   6.773
    8AU     LIG 3071  29.652  20.635   6.540
    8AU     LIG 3072  29.607  20.160   6.429
    8AU       S 3073  29.535  21.389   7.331
    8AU     LIG 3074  29.836  21.089   7.222
    8AU     LIG 3075  29.774  20.656   7.045
    8AU     LIG 3076  29.982  20.322   6.790
    8AU       S 3077  29.861  21.796   6.719
    8AU     LIG 3078  29.788  21.492   6.391
    8AU     LIG 3079  29.858  21.055   6.294
    8AU     LIG 3080  29.956  20.750   5.958
    9AU     AUC 3081  12.129  23.281   7.531
    9AU     AUC 3082  12.378  23.268   7.361
    9AU     AUC 3083  12.389  23.279   7.682
    9AU     AUC 3084  11.863  23.272   7.385
    9AU     AUC 3085  11.879  23.306   7.703
    9AU     AUC 3086  11.983  23.539   7.514
    9AU     AUC 3087  12.301  23.533   7.508
    9AU     AUC 3088  11.964  23.027   7.559
    9AU     AUC 3089  12.278  23.018   7.537
    9AU     AUC 3090  12.133  23.142   7.801
    9AU     AUC 3091  12.151  23.461   7.777
    9AU     AUC 3092  12.115  23.106   7.283
    9AU     AUC 3093  12.122  23.421   7.261
    9AU     AUC 3094  12.630  23.271   7.190
    9AU     AUC 3095  12.637  23.259   7.512
    9AU     AUC 3096  12.647  23.257   7.836
    9AU     AUC 3097  11.603  23.246   7.233
    9AU     AUC 3098  11.606  23.293   7.560
    9AU     AUC 3099  11.639  23.346   7.878
    9AU     AUC 3100  11.832  23.795   7.484
    9AU     AUC 3101  12.171  23.795   7.477
    9AU     AUC 3102  12.486  23.784   7.485
    9AU     AUC 3103  11.803  22.774   7.593
    9AU     AUC 3104  12.121  22.760   7.555
    9AU     AUC 3105  12.435  22.753   7.542
    9AU     AUC 3106  12.139  23.005   8.070
    9AU     AUC 3107  12.149  23.328   8.062
    9AU     AUC 3108  12.183  23.646   8.021
    9AU     AUC 3109  12.119  22.935   7.035
    9AU     AUC 3110  12.107  23.248   7.009
    9AU     AUC 3111  12.110  23.558   6.992
    9AU     AUC 3112  12.389  23.126   7.957
    9AU     AUC 3113  12.422  23.448   7.938
    9AU     AUC 3114  12.383  23.110   7.100
    9AU     AUC 3115  12.373  23.427   7.087
    9AU     AUC 3116  11.886  23.179   7.984
    9AU     AUC 3117  11.899  23.504   7.951
    9AU     AUC 3118  11.849  23.081   7.138
    9AU     AUC 3119  11.847  23.400   7.102
    9AU     AUC 3120  12.559  23.522   7.344
    9AU     AUC 3121  12.568  23.535   7.667
    9AU     AUC 3122  11.706  23.538   7.352
    9AU     AUC 3123  11.725  23.583   7.680
    9AU     AUC 3124  12.526  22.996   7.359
    9AU     AUC 3125  12.540  23.004   7.690
    9AU     AUC 3126  11.688  23.010   7.424
    9AU     AUC 3127  11.711  23.047   7.750
    9AU     AUC 3128  12.006  23.723   7.768
    9AU     AUC 3129  12.346  23.714   7.753
    9AU     AUC 3130  11.969  22.885   7.836
    9AU     AUC 3131  12.285  22.865   7.809
    9AU     AUC 3132  11.962  23.685   7.240
    9AU     AUC 3133  12.300  23.687   7.237
    9AU     AUC 3134  11.949  22.839   7.306
    9AU     AUC 3135  12.284  22.844   7.278
    9AU    AUSL 3136  12.568  23.226   8.149
    9AU    AUSL 3137  12.442  22.883   8.138
    9AU     AUL 3138  12.837  23.037   8.262
    9AU    AUSL 3139  12.251  23.150   8.288
    9AU    AUSL 3140  12.043  23.523   8.277
    9AU     AUL 3141  12.308  23.423   8.565
    9AU    AUSL 3142  12.378  23.520   8.231
    9AU    AUSL 3143  12.730  23.504   8.003
    9AU     AUL 3144  12.709  23.428   8.400
    9AU    AUSL 3145  12.548  23.334   6.885
    9AU    AUSL 3146  12.425  23.681   6.910
    9AU     AUL 3147  12.793  23.530   6.739
    9AU    AUSL 3148  12.330  23.090   6.805
    9AU    AUSL 3149  12.683  23.026   7.017
    9AU     AUL 3150  12.683  23.116   6.640
    9AU    AUSL 3151  12.204  23.400   6.773
    9AU    AUSL 3152  11.988  23.063   6.818
    9AU     AUL 3153  12.222  22.945   6.578
    9AU    AUSL 3154  11.720  23.461   8.171
    9AU    AUSL 3155  11.899  23.794   8.045
    9AU     AUL 3156  11.889  23.821   8.375
    9AU    AUSL 3157  11.903  23.190   8.268
    9AU    AUSL 3158  11.632  23.072   8.061
    9AU     AUL 3159  11.446  23.271   8.216
    9AU    AUSL 3160  11.672  23.120   6.918
    9AU    AUSL 3161  11.808  22.803   7.028
    9AU     AUL 3162  11.892  22.767   6.701
    9AU    AUSL 3163  11.853  23.391   6.820
    9AU    AUSL 3164  11.579  23.519   7.050
    9AU     AUL 3165  11.417  23.301   6.880
    9AU    AUSL 3166  12.801  23.694   7.427
    9AU    AUSL 3167  12.699  23.557   7.103
    9AU     AUL 3168  13.030  23.491   7.053
    9AU    AUSL 3169  12.892  23.367   7.346
    9AU    AUSL 3170  12.877  23.110   7.660
    9AU     AUL 3171  13.205  23.196   7.496
    9AU    AUSL 3172  12.786  23.445   7.665
    9AU    AUSL 3173  12.691  23.797   7.749
    9AU     AUL 3174  13.010  23.505   7.771
    9AU    AUSL 3175  11.543  23.772   7.505
    9AU    AUSL 3176  11.576  23.661   7.933
    9AU     AUL 3177  11.257  23.817   7.713
    9AU    AUSL 3178  11.414  23.430   7.333
    9AU    AUSL 3179  11.673  23.834   7.189
    9AU     AUL 3180  11.300  23.737   7.220
    9AU    AUSL 3181  11.409  23.473   7.707
    9AU    AUSL 3182  11.359  23.124   7.454
    9AU     AUL 3183  11.125  23.499   7.496
    9AU    AUSL 3184  12.733  22.802   7.585
    9AU    AUSL 3185  12.698  22.973   7.925
    9AU     AUL 3186  13.042  23.007   7.895
    9AU    AUSL 3187  12.746  23.052   7.350
    9AU    AUSL 3188  12.613  22.730   7.244
    9AU     AUL 3189  12.974  22.958   7.254
    9AU    AUSL 3190  11.508  22.845   7.626
    9AU    AUSL 3191  11.511  22.972   7.178
    9AU     AUL 3192  11.294  22.741   7.396
    9AU    AUSL 3193  11.413  23.147   7.804
    9AU    AUSL 3194  11.687  22.757   7.917
    9AU     AUL 3195  11.370  22.816   7.956
    9AU    AUSL 3196  12.203  23.952   7.931
    9AU    AUSL 3197  11.738  23.933   7.759
    9AU     AUL 3198  11.956  24.167   8.018
    9AU    AUSL 3199  12.051  23.907   7.619
    9AU    AUSL 3200  12.287  24.038   7.329
    9AU     AUL 3201  12.054  24.226   7.629
    9AU    AUSL 3202  12.417  24.004   7.641
    9AU    AUSL 3203  12.481  23.758   8.022
    9AU     AUL 3204  12.523  24.083   7.972
    9AU    AUSL 3205  12.163  22.691   7.988
    9AU    AUSL 3206  12.500  22.687   7.848
    9AU     AUL 3207  12.292  22.606   8.262
    9AU    AUSL 3208  11.921  22.576   7.761
    9AU    AUSL 3209  11.917  22.865   8.163
    9AU     AUL 3210  11.880  22.492   8.101
    9AU    AUSL 3211  12.238  22.525   7.679
    9AU    AUSL 3212  11.974  22.542   7.413
    9AU     AUL 3213  11.776  22.352   7.610
    9AU    AUSL 3214  12.141  23.843   7.079
    9AU    AUSL 3215  12.550  23.851   7.218
    9AU     AUL 3216  12.335  24.026   6.922
    9AU    AUSL 3217  11.934  24.017   7.313
    9AU    AUSL 3218  11.860  23.706   6.924
    9AU     AUL 3219  11.924  24.029   6.923
    9AU    AUSL 3220  12.105  22.636   7.101
    9AU    AUSL 3221  11.659  22.685   7.333
    9AU     AUL 3222  11.808  22.429   7.099
    9AU    AUSL 3223  12.339  22.555   7.357
    9AU    AUSL 3224  12.395  22.812   6.981
    9AU     AUL 3225  12.377  22.497   6.979
    9AU       S 3226  12.783  22.511   8.284
    9AU     LIG 3227  12.708  22.059   8.386
    9AU     LIG 3228  12.936  21.709   8.606
    9AU     LIG 3229  13.371  21.656   8.793
    9AU       S 3230  12.551  22.961   8.678
    9AU     LIG 3231  12.742  23.182   9.057
    9AU     LIG 3232  12.975  23.245   9.461
    9AU     LIG 3233  13.045  23.257   9.928
    9AU       S 3234  12.208  22.932   8.680
    9AU     LIG 3235  12.243  23.001   9.133
    9AU     LIG 3236  12.559  22.923   9.485
    9AU     LIG 3237  12.920  22.778   9.756
    9AU       S 3238  11.836  23.461   8.743
    9AU     LIG 3239  11.841  23.357   9.160
    9AU     LIG 3240  11.521  23.199   9.411
    9AU     LIG 3241  11.278  23.367   9.743
    9AU       S 3242  12.430  23.922   8.525
    9AU     LIG 3243  12.583  24.167   8.882
    9AU     LIG 3244  12.952  24.051   9.097
    9AU     LIG 3245  13.157  23.639   9.125
    9AU       S 3246  13.060  23.770   8.206
    9AU     LIG 3247  13.232  23.845   8.639
    9AU     LIG 3248  13.410  24.162   8.898
    9AU     LIG 3249  13.597  24.554   9.042
    9AU       S 3250  12.479  23.534   6.348
    9AU     LIG 3251  12.683  23.500   5.920
    9AU     LIG 3252  12.914  23.170   5.664
    9AU     LIG 3253  12.975  22.707   5.557
    9AU       S 3254  12.801  24.054   6.755
    9AU     LIG 3255  12.954  24.348   6.424
    9AU     LIG 3256  13.065  24.518   5.993
    9AU     LIG 3257  13.330  24.870   5.851
    9AU       S 3258  12.984  22.716   6.807
    9AU     LIG 3259  13.269  22.509   6.534
    9AU     LIG 3260  13.366  22.076   6.442
    9AU     LIG 3261  13.333  21.645   6.371
    9AU       S 3262  12.332  23.309   6.267
    9AU     LIG 3263  12.424  23.056   5.880
    9AU     LIG 3264  12.508  22.963   5.430
    9AU     LIG 3265  12.854  22.980   5.143
    9AU       S 3266  11.815  23.167   6.351
    9AU     LIG 3267  11.932  23.198   5.925
    9AU     LIG 3268  12.007  22.997   5.539
    9AU     LIG 3269  11.735  22.941   5.171
    9AU       S 3270  12.189  23.545   6.397
    9AU     LIG 3271  12.153  23.650   5.934
    9AU     LIG 3272  12.319  23.449   5.560
    9AU     LIG 3273  12.692  23.453   5.293
    9AU       S 3274  11.584  23.494   8.640
    9AU     LIG 3275  11.340  23.287   8.923
    9AU     LIG 3276  11.172  22.938   9.113
    9AU     LIG 3277  11.104  22.899   9.560
    9AU       S 3278  11.476  24.102   8.219
    9AU     LIG 3279  11.129  24.304   8.475
    9AU     LIG 3280  10.960  24.385   8.890
    9AU     LIG 3281  10.716  24.651   9.181
    9AU       S 3282  11.462  22.842   8.485
    9AU     LIG 3283  10.994  22.764   8.402
    9AU     LIG 3284  10.688  22.422   8.386
    9AU     LIG 3285  10.596  22.056   8.647
    9AU       S 3286  11.775  23.204   8.659
    9AU     LIG 3287  11.689  22.907   8.993
    9AU     LIG 3288  11.549  22.681   9.348
    9AU     LIG 3289  11.575  22.827   9.769
    9AU       S 3290  11.549  23.084   6.448
    9AU     LIG 3291  11.491  22.922   6.031
    9AU     LIG 3292  11.508  23.098   5.618
    9AU     LIG 3293  11.376  23.362   5.279
    9AU       S 3294  11.421  22.607   6.765
    9AU     LIG 3295  11.298  22.222   6.500
    9AU     LIG 3296  11.092  21.922   6.194
    9AU     LIG 3297  10.734  21.929   5.890
    9AU       S 3298  11.324  23.741   6.672
    9AU     LIG 3299  10.946  23.988   6.809
    9AU     LIG 3300  10.662  24.233   6.575
    9AU     LIG 3301  10.764  24.318   6.140
    9AU       S 3302  11.704  23.421   6.439
    9AU     LIG 3303  11.497  23.449   6.048
    9AU     LIG 3304  11.675  23.593   5.669
    9AU     LIG 3305  11.882  23.436   5.317
    9AU       S 3306  12.975  23.986   6.953
    9AU     LIG 3307  13.318  24.072   6.672
    9AU     LIG 3308  13.449  24.287   6.286
    9AU     LIG 3309  13.729  24.613   6.160
    9AU       S 3310  13.108  23.960   7.431
    9AU     LIG 3311  13.437  24.300   7.429
    9AU     LIG 3312  13.873  24.341   7.366
    9AU     LIG 3313  14.268  24.130   7.415
    9AU       S 3314  13.339  23.711   7.379
    9AU     LIG 3315  13.813  23.779   7.358
    9AU     LIG 3316  14.265  23.639   7.265
    9AU     LIG 3317  14.564  23.914   7.031
    9AU       S 3318  13.211  22.628   7.615
    9AU     LIG 3319  13.468  22.513   7.911
    9AU     LIG 3320  13.896  22.475   7.815
    9AU     LIG 3321  14.270  22.286   7.928
    9AU       S 3322  13.030  24.004   7.980
    9AU     LIG 3323  13.357  24.202   8.253
    9AU     LIG 3324  13.411  24.570   8.555
    9AU     LIG 3325  13.383  24.971   8.818
    9AU       S 3326  13.286  23.852   7.587
    9AU     LIG 3327  13.665  23.995   7.797
    9AU     LIG 3328  14.113  23.820   7.788
    9AU     LIG 3329  14.573  23.758   7.660
    9AU       S 3330  11.339  23.840   8.239
    9AU     LIG 3331  10.940  23.830   8.435
    9AU     LIG 3332  10.616  24.116   8.563
    9AU     LIG 3333  10.475  24.224   9.001
    9AU       S 3334  11.417  24.234   7.434
    9AU     LIG 3335  11.405  24.649   7.367
    9AU     LIG 3336  11.157  24.632   7.019
    9AU     LIG 3337  10.729  24.444   7.034
    9AU       S 3338  10.969  23.204   7.107
    9AU     LIG 3339  10.564  23.123   6.973
    9AU     LIG 3340  10.369  23.481   7.096
    9AU     LIG 3341  10.544  23.948   7.143
    9AU       S 3342  11.431  24.152   6.924
    9AU     LIG 3343  11.191  24.383   6.574
    9AU     LIG 3344  11.118  24.850   6.555
    9AU     LIG 3345  10.897  25.110   6.235
    9AU       S 3346  10.915  23.037   7.590
    9AU     LIG 3347  10.528  23.192   7.492
    9AU     LIG 3348  10.214  22.949   7.305
    9AU     LIG 3349   9.960  22.600   7.185
    9AU       S 3350  11.003  23.506   8.029
    9AU     LIG 3351  10.561  23.665   8.112
    9AU     LIG 3352  10.243  24.004   8.108
    9AU     LIG 3353  10.198  24.427   7.970
    9AU       S 3354  12.940  22.442   7.554
    9AU     LIG 3355  13.181  22.066   7.649
    9AU     LIG 3356  13.584  22.045   7.788
    9AU     LIG 3357  13.960  22.037   7.549
    9AU       S 3358  12.957  22.529   8.061
    9AU     LIG 3359  13.186  22.137   8.153
    9AU     LIG 3360  13.596  21.967   8.319
    9AU     LIG 3361  13.852  22.060   8.691
    9AU       S 3362  13.140  22.523   7.401
    9AU     LIG 3363  13.518  22.270   7.319
    9AU     LIG 3364  13.912  22.252   7.085
    9AU     LIG 3365  14.346  22.137   7.183
    9AU       S 3366  12.884  22.486   6.992
    9AU     LIG 3367  13.185  22.182   6.933
    9AU     LIG 3368  13.225  21.755   6.865
    9AU     LIG 3369  13.096  21.333   6.699
    9AU       S 3370  11.230  22.782   6.882
    9AU     LIG 3371  11.015  22.667   6.486
    9AU     LIG 3372  10.793  22.309   6.325
    9AU     LIG 3373  10.420  22.065   6.294
    9AU       S 3374  10.922  22.828   7.728
    9AU     LIG 3375  10.596  22.509   7.683
    9AU     LIG 3376  10.332  22.255   7.367
    9AU     LIG 3377   9.973  22.033   7.152
    9AU       S 3378  11.473  22.578   8.383
    9AU     LIG 3379  11.145  22.299   8.176
    9AU     LIG 3380  10.800  21.992   8.096
    9AU     LIG 3381  10.664  21.648   8.357
    9AU       S 3382  10.956  23.075   7.817
    9AU     LIG 3383  10.578  23.147   8.008
    9AU     LIG 3384  10.205  22.996   7.840
    9AU     LIG 3385  10.089  22.584   7.688
    9AU       S 3386  11.463  24.255   7.926
    9AU     LIG 3387  11.153  24.568   8.041
    9AU     LIG 3388  10.724  24.545   8.215
    9AU     LIG 3389  10.579  24.620   8.646
    9AU       S 3390  12.350  24.541   7.895
    9AU     LIG 3391  12.408  24.852   8.220
    9AU     LIG 3392  12.180  25.228   8.378
    9AU     LIG 3393  11.934  25.651   8.396
    9AU       S 3394  12.368  24.735   7.622
    9AU     LIG 3395  12.084  25.001   7.849
    9AU     LIG 3396  12.007  25.417   7.939
    9AU     LIG 3397  11.617  25.652   7.984
    9AU       S 3398  12.285  24.463   7.215
    9AU     LIG 3399  12.345  24.942   7.149
    9AU     LIG 3400  12.551  25.349   7.033
    9AU     LIG 3401  12.452  25.613   6.693
    9AU       S 3402  12.876  23.946   8.294
    9AU     LIG 3403  12.973  24.290   8.583
    9AU     LIG 3404  13.066  24.540   8.957
    9AU     LIG 3405  13.220  24.439   9.385
    9AU       S 3406  12.580  24.448   7.616
    9AU     LIG 3407  12.789  24.841   7.838
    9AU     LIG 3408  12.536  25.249   7.917
    9AU     LIG 3409  12.430  25.622   8.169
    9AU       S 3410  12.294  22.144   8.058
    9AU     LIG 3411  12.394  21.690   8.157
    9AU     LIG 3412  12.183  21.390   8.446
    9AU     LIG 3413  11.785  21.322   8.674
    9AU       S 3414  12.725  22.396   7.990
    9AU     LIG 3415  12.747  21.969   7.869
    9AU     LIG 3416  12.921  21.701   8.093
    9AU     LIG 3417  13.359  21.634   8.024
    9AU       S 3418  12.071  22.060   7.901
    9AU     LIG 3419  11.872  21.722   8.158
    9AU     LIG 3420  11.771  21.284   8.131
    9AU     LIG 3421  11.661  20.917   8.374
    9AU       S 3422  11.728  22.721   8.540
    9AU     LIG 3423  11.391  22.502   8.857
    9AU     LIG 3424  11.114  22.159   8.681
    9AU     LIG 3425  10.996  21.714   8.759
    9AU       S 3426  12.112  22.058   7.361
    9AU     LIG 3427  12.031  21.593   7.236
    9AU     LIG 3428  12.135  21.267   6.938
    9AU     LIG 3429  12.292  20.850   7.012
    9AU       S 3430  12.311  22.164   7.805
    9AU     LIG 3431  12.339  21.720   7.648
    9AU     LIG 3432  12.101  21.333   7.761
    9AU     LIG 3433  12.225  21.013   8.103
    9AU       S 3434  12.112  24.474   7.045
    9AU     LIG 3435  12.215  24.737   6.705
    9AU     LIG 3436  12.479  25.088   6.615
    9AU     LIG 3437  12.635  25.352   6.275
    9AU       S 3438  12.797  24.181   7.108
    9AU     LIG 3439  13.161  24.442   7.027
    9AU     LIG 3440  13.335  24.594   6.697
    9AU     LIG 3441  13.294  24.788   6.356
    9AU       S 3442  11.868  24.449   7.214
    9AU     LIG 3443  11.687  24.738   6.928
    9AU     LIG 3444  11.912  25.123   6.887
    9AU     LIG 3445  12.044  25.342   6.522
    9AU       S 3446  11.541  23.888   6.634
    9AU     LIG 3447  11.404  23.938   6.200
    9AU     LIG 3448  11.247  24.276   5.942
    9AU     LIG 3449  11.138  24.687   6.083
    9AU       S 3450  11.310  22.476   6.972
    9AU     LIG 3451  10.917  22.257   6.840
    9AU     LIG 3452  10.776  21.855   6.638
    9AU     LIG 3453  10.696  21.591   6.281
    9AU       S 3454  12.194  22.067   7.136
    9AU     LIG 3455  12.495  21.838   6.866
    9AU     LIG 3456  12.507  21.437   6.612
    9AU     LIG 3457  12.308  21.017   6.519
    9AU       S 3458  12.449  22.139   7.341
    9AU     LIG 3459  12.843  21.944   7.261
    9AU     LIG 3460  12.827  21.528   7.093
    9AU     LIG 3461  12.702  21.122   6.948
    9AU       S 3462  12.769  22.592   6.692
    9AU     LIG 3463  12.852  22.194   6.536
    9AU     LIG 3464  12.863  21.767   6.484
    9AU     LIG 3465  12.908  21.377   6.219
   10AU     AUC 3466  25.395  31.179   7.535
   10AU     AUC 3467  25.647  31.169   7.370
   10AU     AUC 3468  25.650  31.176   7.693
   10AU     AUC 3469  25.133  31.174   7.383
   10AU     AUC 3470  25.140  31.201   7.701
   10AU     AUC 3471  25.250  31.436   7.519
   10AU     AUC 3472  25.567  31.432   7.518
   10AU     AUC 3473  25.230  30.925   7.555
   10AU     AUC 3474  25.545  30.917   7.542
   10AU     AUC 3475  25.391  31.036   7.803
   10AU     AUC 3476  25.410  31.355   7.785
   10AU     AUC 3477  25.388  31.006   7.285
   10AU     AUC 3478  25.394  31.323   7.266
   10AU     AUC 3479  25.903  31.170   7.207
   10AU     AUC 3480  25.902  31.159   7.529
   10AU     AUC 3481  25.902  31.156   7.854
   10AU     AUC 3482  24.876  31.159   7.231
   10AU     AUC 3483  24.874  31.201   7.554
   10AU     AUC 3484  24.893  31.235   7.871
   10AU     AUC 3485  25.103  31.696   7.494
   10AU     AUC 3486  25.441  31.693   7.486
   10AU     AUC 3487  25.752  31.685   7.499
   10AU     AUC 3488  25.065  30.671   7.573
   10AU     AUC 3489  25.391  30.659   7.553
   10AU     AUC 3490  25.706  30.655   7.551
   10AU     AUC 3491  25.387  30.893   8.072
   10AU     AUC 3492  25.399  31.216   8.068
   10AU     AUC 3493  25.435  31.536   8.034
   10AU     AUC 3494  25.398  30.837   7.033
   10AU     AUC 3495  25.381  31.150   7.013
   10AU     AUC 3496  25.385  31.463   7.000
   10AU     AUC 3497  25.641  31.021   7.967
   10AU     AUC 3498  25.675  31.345   7.951
   10AU     AUC 3499  25.659  31.011   7.107
   10AU     AUC 3500  25.646  31.327   7.097
   10AU     AUC 3501  25.136  31.064   7.978
   10AU     AUC 3502  25.152  31.390   7.956
   10AU     AUC 3503  25.125  30.983   7.134
   10AU     AUC 3504  25.119  31.305   7.105
   10AU     AUC 3505  25.827  31.422   7.358
   10AU     AUC 3506  25.826  31.434   7.683
   10AU     AUC 3507  24.977  31.446   7.354
   10AU     AUC 3508  24.989  31.481   7.685
   10AU     AUC 3509  25.800  30.898   7.371
   10AU     AUC 3510  25.803  30.904   7.703
   10AU     AUC 3511  24.960  30.912   7.413
   10AU     AUC 3512  24.965  30.939   7.729
   10AU     AUC 3513  25.268  31.614   7.781
   10AU     AUC 3514  25.606  31.610   7.768
   10AU     AUC 3515  25.228  30.777   7.825
   10AU     AUC 3516  25.544  30.762   7.814
   10AU     AUC 3517  25.236  31.590   7.246
   10AU     AUC 3518  25.573  31.589   7.245
   10AU     AUC 3519  25.225  30.739   7.300
   10AU     AUC 3520  25.562  30.748   7.282
   10AU    AUSL 3521  25.812  31.125   8.163
   10AU    AUSL 3522  25.692  30.782   8.149
   10AU     AUL 3523  26.088  30.958   8.277
   10AU    AUSL 3524  25.495  31.041   8.297
   10AU    AUSL 3525  25.286  31.398   8.290
   10AU     AUL 3526  25.558  31.312   8.576
   10AU    AUSL 3527  25.620  31.417   8.243
   10AU    AUSL 3528  25.981  31.401   8.024
   10AU     AUL 3529  25.948  31.326   8.419
   10AU    AUSL 3530  25.819  31.229   6.900
   10AU    AUSL 3531  25.704  31.577   6.921
   10AU     AUL 3532  26.081  31.397   6.766
   10AU    AUSL 3533  25.601  30.989   6.803
   10AU    AUSL 3534  25.970  30.931   7.034
   10AU     AUL 3535  25.957  31.004   6.655
   10AU    AUSL 3536  25.476  31.301   6.783
   10AU    AUSL 3537  25.257  30.965   6.818
   10AU     AUL 3538  25.469  30.850   6.576
   10AU    AUSL 3539  24.966  31.339   8.169
   10AU    AUSL 3540  25.154  31.668   8.065
   10AU     AUL 3541  25.102  31.682   8.400
   10AU    AUSL 3542  25.146  31.065   8.262
   10AU    AUSL 3543  24.878  30.955   8.047
   10AU     AUL 3544  24.693  31.163   8.201
   10AU    AUSL 3545  24.940  31.030   6.915
   10AU    AUSL 3546  25.091  30.696   7.019
   10AU     AUL 3547  25.095  30.699   6.670
   10AU    AUSL 3548  25.126  31.296   6.830
   10AU    AUSL 3549  24.847  31.425   7.044
   10AU     AUL 3550  24.677  31.155   6.909
   10AU    AUSL 3551  26.062  31.593   7.447
   10AU    AUSL 3552  25.974  31.453   7.119
   10AU     AUL 3553  26.310  31.388   7.085
   10AU    AUSL 3554  26.160  31.268   7.373
   10AU    AUSL 3555  26.139  31.013   7.685
   10AU     AUL 3556  26.470  31.090   7.522
   10AU    AUSL 3557  26.040  31.347   7.686
   10AU    AUSL 3558  25.948  31.695   7.769
   10AU     AUL 3559  26.266  31.400   7.794
   10AU    AUSL 3560  24.826  31.686   7.520
   10AU    AUSL 3561  24.833  31.550   7.931
   10AU     AUL 3562  24.520  31.716   7.697
   10AU    AUSL 3563  24.681  31.374   7.332
   10AU    AUSL 3564  24.949  31.737   7.197
   10AU     AUL 3565  24.587  31.680   7.246
   10AU    AUSL 3566  24.663  31.367   7.702
   10AU    AUSL 3567  24.643  31.059   7.440
   10AU     AUL 3568  24.367  31.353   7.481
   10AU    AUSL 3569  26.003  30.703   7.605
   10AU    AUSL 3570  25.954  30.874   7.945
   10AU     AUL 3571  26.302  30.916   7.919
   10AU    AUSL 3572  26.023  30.951   7.370
   10AU    AUSL 3573  25.895  30.632   7.255
   10AU     AUL 3574  26.255  30.849   7.279
   10AU    AUSL 3575  24.735  30.745   7.555
   10AU    AUSL 3576  24.804  30.865   7.177
   10AU     AUL 3577  24.459  30.900   7.237
   10AU    AUSL 3578  24.673  31.033   7.785
   10AU    AUSL 3579  24.943  30.656   7.870
   10AU     AUL 3580  24.652  30.680   7.897
   10AU    AUSL 3581  25.453  31.844   7.944
   10AU    AUSL 3582  25.016  31.831   7.785
   10AU     AUL 3583  25.221  32.022   8.107
   10AU    AUSL 3584  25.317  31.788   7.625
   10AU    AUSL 3585  25.562  31.937   7.341
   10AU     AUL 3586  25.310  32.098   7.644
   10AU    AUSL 3587  25.673  31.907   7.660
   10AU    AUSL 3588  25.733  31.656   8.040
   10AU     AUL 3589  25.784  31.985   7.978
   10AU    AUSL 3590  25.416  30.581   7.986
   10AU    AUSL 3591  25.759  30.588   7.861
   10AU     AUL 3592  25.528  30.505   8.264
   10AU    AUSL 3593  25.188  30.466   7.745
   10AU    AUSL 3594  25.155  30.743   8.147
   10AU     AUL 3595  25.115  30.376   8.071
   10AU    AUSL 3596  25.511  30.423   7.679
   10AU    AUSL 3597  25.259  30.442   7.404
   10AU     AUL 3598  25.061  30.234   7.580
   10AU    AUSL 3599  25.417  31.753   7.081
   10AU    AUSL 3600  25.826  31.752   7.227
   10AU     AUL 3601  25.618  31.928   6.932
   10AU    AUSL 3602  25.210  31.921   7.324
   10AU    AUSL 3603  25.137  31.614   6.929
   10AU     AUL 3604  25.184  31.952   6.950
   10AU    AUSL 3605  25.393  30.545   7.100
   10AU    AUSL 3606  24.941  30.572   7.327
   10AU     AUL 3607  25.120  30.319   7.089
   10AU    AUSL 3608  25.619  30.463   7.360
   10AU    AUSL 3609  25.685  30.722   6.989
   10AU     AUL 3610  25.654  30.412   6.974
   10AU       S 3611  26.020  30.439   8.327
   10AU     LIG 3612  26.018  30.007   8.461
   10AU     LIG 3613  26.360  29.738   8.566
   10AU     LIG 3614  26.555  29.440   8.850
   10AU       S 3615  25.800  30.845   8.683
   10AU     LIG 3616  26.015  31.048   9.061
   10AU     LIG 3617  26.277  31.138   9.452
   10AU     LIG 3618  26.584  31.101   9.824
   10AU       S 3619  25.457  30.822   8.688
   10AU     LIG 3620  25.521  30.889   9.148
   10AU     LIG 3621  25.847  30.824   9.503
   10AU     LIG 3622  26.248  30.695   9.742
   10AU       S 3623  25.086  31.297   8.753
   10AU     LIG 3624  25.029  31.148   9.166
   10AU     LIG 3625  24.679  31.162   9.440
   10AU     LIG 3626  24.485  31.324   9.822
   10AU       S 3627  25.655  31.818   8.537
   10AU     LIG 3628  25.857  32.037   8.890
   10AU     LIG 3629  26.161  31.925   9.205
   10AU     LIG 3630  26.576  31.762   9.142
   10AU       S 3631  26.310  31.661   8.232
   10AU     LIG 3632  26.534  31.788   8.609
   10AU     LIG 3633  26.706  32.150   8.797
   10AU     LIG 3634  26.921  32.528   8.926
   10AU       S 3635  25.771  31.446   6.372
   10AU     LIG 3636  26.020  31.311   5.988
   10AU     LIG 3637  26.205  30.905   5.845
   10AU     LIG 3638  26.138  30.456   5.985
   10AU       S 3639  26.081  31.910   6.750
   10AU     LIG 3640  26.265  32.272   6.587
   10AU     LIG 3641  26.379  32.496   6.244
   10AU     LIG 3642  26.679  32.478   5.922
   10AU       S 3643  26.284  30.619   6.823
   10AU     LIG 3644  26.460  30.434   6.422
   10AU     LIG 3645  26.482  30.022   6.245
   10AU     LIG 3646  26.596  29.598   6.385
   10AU       S 3647  25.620  31.222   6.286
   10AU     LIG 3648  25.706  30.889   5.976
   10AU     LIG 3649  25.808  30.686   5.572
   10AU     LIG 3650  26.080  30.761   5.191
   10AU       S 3651  25.092  31.112   6.337
   10AU     LIG 3652  24.920  31.104   5.913
   10AU     LIG 3653  25.031  30.901   5.544
   10AU     LIG 3654  25.315  30.971   5.204
   10AU       S 3655  25.478  31.463   6.416
   10AU     LIG 3656  25.278  31.457   5.986
   10AU     LIG 3657  25.478  31.217   5.651
   10AU     LIG 3658  25.918  31.176   5.493
   10AU       S 3659  24.833  31.316   8.654
   10AU     LIG 3660  24.533  31.218   8.935
   10AU     LIG 3661  24.302  30.926   9.177
   10AU     LIG 3662  24.228  30.922   9.628
   10AU       S 3663  24.717  31.987   8.214
   10AU     LIG 3664  24.516  32.346   8.423
   10AU     LIG 3665  24.182  32.373   8.741
   10AU     LIG 3666  23.935  32.295   9.124
   10AU       S 3667  24.671  30.719   8.437
   10AU     LIG 3668  24.190  30.698   8.382
   10AU     LIG 3669  23.849  30.352   8.384
   10AU     LIG 3670  23.683  29.912   8.483
   10AU       S 3671  25.004  31.047   8.652
   10AU     LIG 3672  24.766  30.765   8.958
   10AU     LIG 3673  24.674  30.642   9.399
   10AU     LIG 3674  24.718  30.820   9.817
   10AU       S 3675  24.814  31.073   6.431
   10AU     LIG 3676  24.628  30.745   6.159
   10AU     LIG 3677  24.538  30.805   5.709
   10AU     LIG 3678  24.549  31.198   5.484
   10AU       S 3679  24.699  30.411   6.820
   10AU     LIG 3680  24.542  30.241   6.412
   10AU     LIG 3681  24.386  29.989   6.046
   10AU     LIG 3682  24.005  29.862   5.825
   10AU       S 3683  24.620  31.602   6.681
   10AU     LIG 3684  24.240  31.791   6.531
   10AU     LIG 3685  24.122  32.159   6.250
   10AU     LIG 3686  24.177  32.181   5.766
   10AU       S 3687  24.996  31.345   6.452
   10AU     LIG 3688  24.697  31.499   6.173
   10AU     LIG 3689  24.782  31.582   5.755
   10AU     LIG 3690  25.045  31.400   5.436
   10AU       S 3691  26.266  31.879   6.961
   10AU     LIG 3692  26.669  32.027   6.792
   10AU     LIG 3693  26.755  32.156   6.345
   10AU     LIG 3694  27.062  32.137   5.984
   10AU       S 3695  26.356  31.853   7.447
   10AU     LIG 3696  26.691  32.109   7.308
   10AU     LIG 3697  27.018  32.027   7.583
   10AU     LIG 3698  27.360  32.193   7.851
   10AU       S 3699  26.590  31.612   7.434
   10AU     LIG 3700  26.941  31.664   7.211
   10AU     LIG 3701  27.355  31.701   7.348
   10AU     LIG 3702  27.650  31.983   7.264
   10AU       S 3703  26.486  30.522   7.675
   10AU     LIG 3704  26.839  30.335   7.934
   10AU     LIG 3705  27.320  30.258   7.904
   10AU     LIG 3706  27.659  30.502   7.669
   10AU       S 3707  26.283  31.892   8.033
   10AU     LIG 3708  26.613  32.145   8.231
   10AU     LIG 3709  26.657  32.556   8.464
   10AU     LIG 3710  26.500  32.802   8.815
   10AU       S 3711  26.521  31.774   7.627
   10AU     LIG 3712  26.810  31.735   7.954
   10AU     LIG 3713  27.266  31.675   7.880
   10AU     LIG 3714  27.694  31.797   7.748
   10AU       S 3715  24.571  31.725   8.226
   10AU     LIG 3716  24.194  31.944   8.393
   10AU     LIG 3717  23.828  32.232   8.400
   10AU     LIG 3718  23.577  32.396   8.734
   10AU       S 3719  24.715  32.160   7.447
   10AU     LIG 3720  24.668  32.485   7.170
   10AU     LIG 3721  24.336  32.638   6.968
   10AU     LIG 3722  24.199  32.223   6.787
   10AU       S 3723  24.241  31.414   6.982
   10AU     LIG 3724  23.901  31.130   7.021
   10AU     LIG 3725  23.519  31.338   7.050
   10AU     LIG 3726  23.496  31.802   6.958
   10AU       S 3727  24.690  32.039   6.901
   10AU     LIG 3728  24.670  32.381   6.622
   10AU     LIG 3729  24.331  32.602   6.458
   10AU     LIG 3730  24.136  32.979   6.540
   10AU       S 3731  24.168  30.900   7.653
   10AU     LIG 3732  23.762  30.874   7.474
   10AU     LIG 3733  23.514  30.813   7.098
   10AU     LIG 3734  23.126  31.004   6.968
   10AU       S 3735  24.258  31.384   8.000
   10AU     LIG 3736  23.924  31.494   8.291
   10AU     LIG 3737  23.576  31.802   8.271
   10AU     LIG 3738  23.502  32.147   7.971
   10AU       S 3739  26.206  30.354   7.598
   10AU     LIG 3740  26.379  29.942   7.671
   10AU     LIG 3741  26.772  29.847   7.796
   10AU     LIG 3742  26.996  30.086   7.516
   10AU       S 3743  26.202  30.451   8.108
   10AU     LIG 3744  26.439  30.095   8.152
   10AU     LIG 3745  26.792  29.913   8.314
   10AU     LIG 3746  26.873  29.828   8.755
   10AU       S 3747  26.405  30.414   7.443
   10AU     LIG 3748  26.712  30.279   7.135
   10AU     LIG 3749  27.197  30.363   7.128
   10AU     LIG 3750  27.657  30.251   7.027
   10AU       S 3751  26.169  30.373   7.018
   10AU     LIG 3752  26.341  29.989   6.816
   10AU     LIG 3753  26.282  29.524   6.803
   10AU     LIG 3754  26.179  29.239   6.425
   10AU       S 3755  24.559  30.551   6.901
   10AU     LIG 3756  24.173  30.476   6.691
   10AU     LIG 3757  24.025  30.288   6.294
   10AU     LIG 3758  23.767  30.307   5.900
   10AU       S 3759  24.234  30.652   7.633
   10AU     LIG 3760  23.898  30.505   7.889
   10AU     LIG 3761  23.635  30.393   7.585
   10AU     LIG 3762  23.548  30.301   7.152
   10AU       S 3763  24.695  30.469   8.338
   10AU     LIG 3764  24.308  30.274   8.140
   10AU     LIG 3765  24.025  29.944   8.095
   10AU     LIG 3766  24.110  29.545   8.292
   10AU       S 3767  24.222  30.924   7.836
   10AU     LIG 3768  23.838  30.996   8.040
   10AU     LIG 3769  23.460  30.803   7.896
   10AU     LIG 3770  23.177  30.480   7.926
   10AU       S 3771  24.756  32.142   7.934
   10AU     LIG 3772  24.537  32.521   7.924
   10AU     LIG 3773  24.130  32.532   8.126
   10AU     LIG 3774  23.961  32.772   8.495
   10AU       S 3775  25.548  32.423   7.956
   10AU     LIG 3776  25.504  32.820   8.141
   10AU     LIG 3777  25.282  33.063   8.429
   10AU     LIG 3778  24.837  33.113   8.598
   10AU       S 3779  25.476  32.617   7.675
   10AU     LIG 3780  25.067  32.573   7.923
   10AU     LIG 3781  24.910  32.897   8.109
   10AU     LIG 3782  25.190  33.167   7.902
   10AU       S 3783  25.570  32.348   7.247
   10AU     LIG 3784  25.783  32.756   7.272
   10AU     LIG 3785  25.694  33.171   7.087
   10AU     LIG 3786  25.616  33.480   6.751
   10AU       S 3787  26.112  31.840   8.327
   10AU     LIG 3788  26.227  32.212   8.566
   10AU     LIG 3789  26.288  32.366   8.985
   10AU     LIG 3790  26.594  32.263   9.321
   10AU       S 3791  25.766  32.405   7.685
   10AU     LIG 3792  25.883  32.891   7.772
   10AU     LIG 3793  25.694  33.274   7.994
   10AU     LIG 3794  25.731  33.646   8.270
   10AU       S 3795  25.548  30.043   8.062
   10AU     LIG 3796  25.583  29.578   8.151
   10AU     LIG 3797  25.588  29.210   8.440
   10AU     LIG 3798  25.583  28.757   8.608
   10AU       S 3799  25.983  30.297   8.031
   10AU     LIG 3800  26.024  29.819   7.996
   10AU     LIG 3801  26.399  29.593   8.077
   10AU     LIG 3802  26.725  29.406   8.358
   10AU       S 3803  25.357  29.955   7.877
   10AU     LIG 3804  25.212  29.536   7.788
   10AU     LIG 3805  25.207  29.159   8.030
   10AU     LIG 3806  25.177  28.834   8.309
   10AU       S 3807  24.926  30.580   8.515
   10AU     LIG 3808  24.490  30.355   8.756
   10AU     LIG 3809  24.176  29.988   8.620
   10AU     LIG 3810  23.937  29.562   8.767
   10AU       S 3811  25.436  29.961   7.359
   10AU     LIG 3812  25.365  29.505   7.292
   10AU     LIG 3813  25.456  29.140   7.071
   10AU     LIG 3814  25.502  28.717   7.091
   10AU       S 3815  25.614  30.057   7.807
   10AU     LIG 3816  25.699  29.635   7.650
   10AU     LIG 3817  25.625  29.203   7.750
   10AU     LIG 3818  25.666  28.855   8.097
   10AU       S 3819  25.413  32.386   7.040
   10AU     LIG 3820  25.182  32.704   6.769
   10AU     LIG 3821  25.355  33.043   6.465
   10AU     LIG 3822  25.395  33.497   6.282
   10AU       S 3823  26.094  32.074   7.090
   10AU     LIG 3824  26.423  32.438   7.033
   10AU     LIG 3825  26.779  32.534   6.712
   10AU     LIG 3826  27.072  32.571   6.320
   10AU       S 3827  25.189  32.392   7.247
   10AU     LIG 3828  25.274  32.862   7.249
   10AU     LIG 3829  25.204  33.204   6.924
   10AU     LIG 3830  24.972  33.359   6.545
   10AU       S 3831  24.823  31.790   6.633
   10AU     LIG 3832  24.634  31.998   6.278
   10AU     LIG 3833  24.557  32.377   6.054
   10AU     LIG 3834  24.208  32.663   5.973
   10AU       S 3835  24.592  30.355   7.143
   10AU     LIG 3836  24.376  30.024   6.867
   10AU     LIG 3837  24.225  29.808   6.498
   10AU     LIG 3838  24.169  29.504   6.147
   10AU       S 3839  25.530  29.971   7.151
   10AU     LIG 3840  25.835  29.816   6.848
   10AU     LIG 3841  25.757  29.416   6.652
   10AU     LIG 3842  25.638  28.952   6.605
   10AU       S 3843  25.773  30.073   7.347
   10AU     LIG 3844  26.057  29.762   7.308
   10AU     LIG 3845  25.886  29.405   7.168
   10AU     LIG 3846  26.028  29.067   6.904
   10AU       S 3847  26.072  30.488   6.727
   10AU     LIG 3848  26.010  30.162   6.454
   10AU     LIG 3849  26.078  29.740   6.378
   10AU     LIG 3850  26.246  29.539   6.001
   11POPC   NC3 3851  29.988  14.844   9.463
   11POPC   PO4 3852  30.391  15.421   9.581
   11POPC   GL1 3853  30.079  15.279   9.222
   11POPC   GL2 3854  29.723  15.482   9.226
   11POPC   C1A 3855  29.845  15.145   8.856
   11POPC   D2A 3856  29.956  15.279   8.446
   11POPC   C3A 3857  30.059  15.027   8.076
   11POPC   C4A 3858  30.181  15.012   7.620
   11POPC   C1B 3859  29.523  15.581   8.839
   11POPC   C2B 3860  29.467  15.456   8.413
   11POPC   C3B 3861  29.728  15.512   8.045
   11POPC   C4B 3862  29.721  15.207   7.713
   12POPC   NC3 3863   7.000  40.590   9.473
   12POPC   PO4 3864   7.682  40.678   9.247
   12POPC   GL1 3865   7.510  40.933   9.029
   12POPC   GL2 3866   7.215  40.938   9.175
   12POPC   C1A 3867   7.566  40.921   8.627
   12POPC   D2A 3868   7.324  40.925   8.302
   12POPC   C3A 3869   7.571  40.882   7.930
   12POPC   C4A 3870   7.536  40.535   7.652
   12POPC   C1B 3871   7.170  40.617   8.811
   12POPC   C2B 3872   7.085  40.352   8.445
   12POPC   C3B 3873   7.039  40.546   8.048
   12POPC   C4B 3874   7.074  40.949   7.866
   13POPC   NC3 3875  15.199   9.840   9.585
   13POPC   PO4 3876  15.242   9.171   9.504
   13POPC   GL1 3877  15.171   9.521   9.176
   13POPC   GL2 3878  14.988   9.868   9.144
   13POPC   C1A 3879  15.369   9.516   8.750
   13POPC   D2A 3880  15.518   9.497   8.298
   13POPC   C3A 3881  15.299   9.647   7.944
   13POPC   C4A 3882  15.310  10.062   7.744
   13POPC   C1B 3883  14.912   9.770   8.747
   13POPC   C2B 3884  15.132   9.867   8.399
   13POPC   C3B 3885  14.892   9.940   8.064
   13POPC   C4B 3886  14.773   9.640   7.817
   14POPC   NC3 3887  39.010  43.666   9.887
   14POPC   PO4 3888  39.209  44.249   9.689
   14POPC   GL1 3889  39.101  44.065   9.261
   14POPC   GL2 3890  38.839  44.260   9.218
   14POPC   C1A 3891  39.262  43.915   8.819
   14POPC   D2A 3892  39.152  43.729   8.383
   14POPC   C3A 3893  39.265  43.926   7.977
   14POPC   C4A 3894  39.445  43.673   7.650
   14POPC   C1B 3895  39.043  44.389   8.835
   14POPC   C2B 3896  39.119  44.231   8.430
   14POPC   C3B 3897  39.056  44.426   8.072
   14POPC   C4B 3898  38.937  44.244   7.720
   15POPC   NC3 3899  44.453   1.653   9.426
   15POPC   PO4 3900   0.072   1.790   9.280
   15POPC   GL1 3901  44.747   1.704   9.016
   15POPC   GL2 3902  44.605   2.021   9.089
   15POPC   C1A 3903  44.586   1.824   8.623
   15POPC   D2A 3904  44.830   1.946   8.273
   15POPC   C3A 3905  44.745   1.646   7.963
   15POPC   C4A 3906  44.511   1.778   7.625
   15POPC   C1B 3907  44.854   2.275   8.766
   15POPC   C2B 3908  44.805   2.527   8.388
   15POPC   C3B 3909  44.812   2.400   7.960
   15POPC   C4B 3910  44.540   2.272   7.632
   16POPC   NC3 3911  19.827  20.074   9.508
   16POPC   PO4 3912  19.728  19.418   9.545
   16POPC   GL1 3913  19.770  19.613   9.158
   16POPC   GL2 3914  19.644  19.913   9.054
   16POPC   C1A 3915  19.881  19.558   8.742
   16POPC   D2A 3916  20.092  19.712   8.394
   16POPC   C3A 3917  19.864  19.584   8.050
   16POPC   C4A 3918  19.956  19.641   7.675
   16POPC   C1B 3919  19.770  20.069   8.658
   16POPC   C2B 3920  19.713  20.048   8.220
   16POPC   C3B 3921  20.074  20.049   7.945
   16POPC   C4B 3922  20.035  20.135   7.498
   17POPC   NC3 3923  26.957  43.138   9.395
   17POPC   PO4 3924  26.483  42.756   9.439
   17POPC   GL1 3925  26.664  42.972   9.025
   17POPC   GL2 3926  26.787  43.378   9.001
   17POPC   C1A 3927  26.651  43.093   8.611
   17POPC   D2A 3928  26.912  43.016   8.290
   17POPC   C3A 3929  26.613  42.977   8.009
   17POPC   C4A 3930  26.736  42.897   7.662
   17POPC   C1B 3931  27.023  43.557   8.670
   17POPC   C2B 3932  26.777  43.499   8.291
   17POPC   C3B 3933  26.805  43.415   7.849
   17POPC   C4B 3934  26.926  43.358   7.447
   18POPC   NC3 3935  22.712  33.218   9.410
   18POPC   PO4 3936  23.065  32.466   9.452
   18POPC   GL1 3937  23.156  32.678   9.036
   18POPC   GL2 3938  22.869  32.878   9.093
   18POPC   C1A 3939  23.129  33.087   8.715
   18POPC   D2A 3940  22.771  33.280   8.432
   18POPC   C3A 3941  22.911  33.252   8.000
   18POPC   C4A 3942  23.249  32.968   7.933
   18POPC   C1B 3943  22.767  32.716   8.704
   18POPC   C2B 3944  22.928  32.792   8.314
   18POPC   C3B 3945  22.707  32.786   7.969
   18POPC   C4B 3946  22.357  32.829   7.708
   19POPC   NC3 3947   4.081  21.888   9.587
   19POPC   PO4 3948   3.651  22.422   9.674
   19POPC   GL1 3949   3.626  22.211   9.219
   19POPC   GL2 3950   3.813  21.886   9.154
   19POPC   C1A 3951   3.468  22.140   8.755
   19POPC   D2A 3952   3.597  22.299   8.298
   19POPC   C3A 3953   3.255  22.354   7.953
   19POPC   C4A 3954   3.024  22.055   7.665
   19POPC   C1B 3955   3.673  21.675   8.805
   19POPC   C2B 3956   3.723  21.801   8.410
   19POPC   C3B 3957   3.736  21.792   7.992
   19POPC   C4B 3958   3.548  22.071   7.679
   20POPC   NC3 3959  18.711  28.218   9.341
   20POPC   PO4 3960  18.076  28.060   9.389
   20POPC   GL1 3961  18.211  28.290   9.022
   20POPC   GL2 3962  18.553  28.413   8.913
   20POPC   C1A 3963  18.108  28.471   8.637
   20POPC   D2A 3964  17.833  28.367   8.306
   20POPC   C3A 3965  18.034  28.462   7.928
   20POPC   C4A 3966  17.958  28.481   7.488
   20POPC   C1B 3967  18.491  28.088   8.649
   20POPC   C2B 3968  18.316  28.151   8.263
   20POPC   C3B 3969  18.479  28.222   7.885
   20POPC   C4B 3970  18.446  28.633   7.690
   21POPC   NC3 3971  39.388   1.043   9.482
   21POPC   PO4 3972  38.852   1.385   9.331
   21POPC   GL1 3973  38.940   0.986   9.033
   21POPC   GL2 3974  39.273   0.872   9.020
   21POPC   C1A 3975  38.965   0.907   8.558
   21POPC   D2A 3976  38.829   1.127   8.156
   21POPC   C3A 3977  39.118   1.339   7.878
   21POPC   C4A 3978  39.219   1.143   7.491
   21POPC   C1B 3979  39.303   1.231   8.759
   21POPC   C2B 3980  39.391   1.151   8.323
   21POPC   C3B 3981  39.609   1.158   7.956
   21POPC   C4B 3982  39.610   1.433   7.647
   22POPC   NC3 3983   3.871  34.065   9.546
   22POPC   PO4 3984   3.166  34.081   9.497
   22POPC   GL1 3985   3.484  33.868   9.253
   22POPC   GL2 3986   3.441  33.492   9.258
   22POPC   C1A 3987   3.773  33.773   8.893
   22POPC   D2A 3988   3.924  33.935   8.490
   22POPC   C3A 3989   3.743  33.868   8.060
   22POPC   C4A 3990   3.744  34.203   7.740
   22POPC   C1B 3991   3.276  33.616   8.865
   22POPC   C2B 3992   3.418  33.648   8.446
   22POPC   C3B 3993   3.188  33.843   8.103
   22POPC   C4B 3994   3.245  34.132   7.769
   23POPC   NC3 3995   2.603   4.828   9.539
   23POPC   PO4 3996   3.076   5.311   9.560
   23POPC   GL1 3997   2.867   5.193   9.164
   23POPC   GL2 3998   2.849   4.862   9.097
   23POPC   C1A 3999   2.956   5.185   8.712
   23POPC   D2A 4000   3.174   5.144   8.305
   23POPC   C3A 4001   2.934   5.227   7.924
   23POPC   C4A 4002   2.882   5.131   7.459
   23POPC   C1B 4003   2.811   4.664   8.714
   23POPC   C2B 4004   2.677   4.924   8.361
   23POPC   C3B 4005   2.487   5.000   7.989
   23POPC   C4B 4006   2.776   4.727   7.764
   24POPC   NC3 4007  35.197  21.758   9.718
   24POPC   PO4 4008  34.502  21.588   9.611
   24POPC   GL1 4009  34.473  21.374   9.264
   24POPC   GL2 4010  34.253  21.677   9.154
   24POPC   C1A 4011  34.766  21.167   8.952
   24POPC   D2A 4012  34.645  20.941   8.572
   24POPC   C3A 4013  34.764  21.093   8.166
   24POPC   C4A 4014  34.582  21.243   7.797
   24POPC   C1B 4015  34.614  21.671   8.880
   24POPC   C2B 4016  34.679  21.478   8.502
   24POPC   C3B 4017  34.508  21.646   8.106
   24POPC   C4B 4018  34.385  21.985   7.797
   25POPC   NC3 4019  16.920  43.526   9.431
   25POPC   PO4 4020  16.599  44.220   9.418
   25POPC   GL1 4021  16.652  43.847   9.149
   25POPC   GL2 4022  16.494  43.474   9.165
   25POPC   C1A 4023  16.897  43.790   8.787
   25POPC   D2A 4024  16.922  44.055   8.403
   25POPC   C3A 4025  16.843  43.905   7.993
   25POPC   C4A 4026  16.975  43.887   7.552
   25POPC   C1B 4027  16.398  43.460   8.747
   25POPC   C2B 4028  16.581  43.643   8.391
   25POPC   C3B 4029  16.384  43.664   8.022
   25POPC   C4B 4030  16.519  43.671   7.666
   26POPC   NC3 4031  41.121   3.795   9.569
   26POPC   PO4 4032  41.617   3.387   9.736
   26POPC   GL1 4033  41.479   3.477   9.301
   26POPC   GL2 4034  41.503   3.849   9.233
   26POPC   C1A 4035  41.639   3.480   8.874
   26POPC   D2A 4036  41.886   3.485   8.489
   26POPC   C3A 4037  41.655   3.274   8.169
   26POPC   C4A 4038  41.595   3.354   7.745
   26POPC   C1B 4039  41.302   3.875   8.836
   26POPC   C2B 4040  41.352   3.622   8.452
   26POPC   C3B 4041  41.326   3.711   8.003
   26POPC   C4B 4042  41.437   3.805   7.565
   27POPC   NC3 4043  41.848  14.149   9.515
   27POPC   PO4 4044  41.150  14.036   9.418
   27POPC   GL1 4045  41.484  14.257   9.189
   27POPC   GL2 4046  41.745  14.066   9.003
   27POPC   C1A 4047  41.515  14.495   8.818
   27POPC   D2A 4048  41.394  14.448   8.370
   27POPC   C3A 4049  41.752  14.367   8.138
   27POPC   C4A 4050  41.750  14.510   7.723
   27POPC   C1B 4051  41.421  14.007   8.638
   27POPC   C2B 4052  41.311  13.934   8.193
   27POPC   C3B 4053  41.381  14.173   7.812
   27POPC   C4B 4054  41.579  14.195   7.371
   28POPC   NC3 4055  25.473   3.276   9.468
   28POPC   PO4 4056  24.781   3.456   9.523
   28POPC   GL1 4057  25.077   3.385   9.175
   28POPC   GL2 4058  25.311   3.681   9.201
   28POPC   C1A 4059  25.359   3.360   8.794
   28POPC   D2A 4060  25.252   3.601   8.441
   28POPC   C3A 4061  25.273   3.449   8.026
   28POPC   C4A 4062  25.577   3.508   7.725
   28POPC   C1B 4063  25.016   3.850   8.909
   28POPC   C2B 4064  24.834   3.877   8.519
   28POPC   C3B 4065  24.927   3.882   8.085
   28POPC   C4B 4066  25.176   3.868   7.719
   29POPC   NC3 4067  20.872  13.918   9.541
   29POPC   PO4 4068  20.378  13.380   9.521
   29POPC   GL1 4069  20.624  13.344   9.123
   29POPC   GL2 4070  20.843  13.592   9.138
   29POPC   C1A 4071  20.668  13.422   8.665
   29POPC   D2A 4072  20.832  13.593   8.302
   29POPC   C3A 4073  20.655  13.449   7.901
   29POPC   C4A 4074  20.435  13.434   7.472
   29POPC   C1B 4075  20.811  13.913   8.823
   29POPC   C2B 4076  20.940  14.095   8.432
   29POPC   C3B 4077  20.876  14.004   8.005
   29POPC   C4B 4078  20.748  13.859   7.606
   30POPC   NC3 4079  36.329  24.308   9.437
   30POPC   PO4 4080  35.825  24.768   9.541
   30POPC   GL1 4081  35.927  24.563   9.168
   30POPC   GL2 4082  35.843  24.204   9.185
   30POPC   C1A 4083  36.170  24.549   8.782
   30POPC   D2A 4084  36.043  24.687   8.380
   30POPC   C3A 4085  36.082  24.520   7.961
   30POPC   C4A 4086  36.116  24.620   7.511
   30POPC   C1B 4087  35.999  24.019   8.791
   30POPC   C2B 4088  36.181  23.976   8.390
   30POPC   C3B 4089  36.034  23.993   7.978
   30POPC   C4B 4090  35.985  24.144   7.578
   31POPC   NC3 4091  27.972  27.656   9.731
   31POPC   PO4 4092  28.542  27.776   9.637
   31POPC   GL1 4093  28.304  27.526   9.293
   31POPC   GL2 4094  28.503  27.243   9.149
   31POPC   C1A 4095  28.192  27.555   8.819
   31POPC   D2A 4096  28.187  27.356   8.385
   31POPC   C3A 4097  28.227  27.585   7.997
   31POPC   C4A 4098  28.582  27.880   7.926
   31POPC   C1B 4099  28.668  27.384   8.741
   31POPC   C2B 4100  28.682  27.503   8.290
   31POPC   C3B 4101  28.661  27.373   7.846
   31POPC   C4B 4102  28.761  27.586   7.447
   32POPC   NC3 4103  30.952   3.364   9.470
   32POPC   PO4 4104  30.267   3.698   9.405
   32POPC   GL1 4105  30.622   3.604   9.125
   32POPC   GL2 4106  30.569   3.264   9.122
   32POPC   C1A 4107  30.790   3.632   8.679
   32POPC   D2A 4108  30.771   3.716   8.219
   32POPC   C3A 4109  31.068   3.778   7.885
   32POPC   C4A 4110  30.778   3.622   7.532
   32POPC   C1B 4111  30.668   3.121   8.744
   32POPC   C2B 4112  30.563   3.275   8.350
   32POPC   C3B 4113  30.599   3.327   7.916
   32POPC   C4B 4114  30.402   3.210   7.531
   33POPC   NC3 4115  37.585  33.859   9.434
   33POPC   PO4 4116  38.090  34.166   9.309
   33POPC   GL1 4117  37.953  33.889   9.069
   33POPC   GL2 4118  37.994  33.563   9.188
   33POPC   C1A 4119  37.881  33.902   8.671
   33POPC   D2A 4120  37.869  33.777   8.277
   33POPC   C3A 4121  37.498  33.800   8.096
   33POPC   C4A 4122  37.415  33.989   7.715
   33POPC   C1B 4123  37.664  33.468   8.860
   33POPC   C2B 4124  37.665  33.320   8.423
   33POPC   C3B 4125  37.733  33.361   7.987
   33POPC   C4B 4126  37.429  33.468   7.662
   34POPC   NC3 4127   0.940  14.921   9.456
   34POPC   PO4 4128   0.314  15.231   9.613
   34POPC   GL1 4129   0.477  15.134   9.158
   34POPC   GL2 4130   0.622  14.780   9.080
   34POPC   C1A 4131   0.537  15.270   8.696
   34POPC   D2A 4132   0.752  15.444   8.303
   34POPC   C3A 4133   0.581  15.348   7.888
   34POPC   C4A 4134   0.377  15.218   7.510
   34POPC   C1B 4135   0.765  14.804   8.643
   34POPC   C2B 4136   0.694  14.928   8.209
   34POPC   C3B 4137   0.639  14.845   7.759
   34POPC   C4B 4138   0.706  14.732   7.311
   35POPC   NC3 4139  21.805  40.026   9.534
   35POPC   PO4 4140  21.187  40.261   9.562
   35POPC   GL1 4141  21.363  40.015   9.239
   35POPC   GL2 4142  21.585  40.166   9.065
   35POPC   C1A 4143  21.193  39.876   8.874
   35POPC   D2A 4144  21.353  40.077   8.518
   35POPC   C3A 4145  21.296  39.898   8.134
   35POPC   C4A 4146  21.093  39.836   7.786
   35POPC   C1B 4147  21.684  39.773   8.858
   35POPC   C2B 4148  21.773  39.782   8.426
   35POPC   C3B 4149  21.791  39.984   8.018
   35POPC   C4B 4150  21.586  39.691   7.759
   36POPC   NC3 4151  39.168  27.852   9.530
   36POPC   PO4 4152  39.285  27.194   9.477
   36POPC   GL1 4153  39.245  27.516   9.131
   36POPC   GL2 4154  38.980  27.786   9.070
   36POPC   C1A 4155  39.255  27.638   8.681
   36POPC   D2A 4156  39.161  27.680   8.283
   36POPC   C3A 4157  39.427  27.689   7.979
   36POPC   C4A 4158  39.361  27.579   7.553
   36POPC   C1B 4159  38.940  28.041   8.657
   36POPC   C2B 4160  38.710  27.902   8.258
   36POPC   C3B 4161  38.897  27.739   7.839
   36POPC   C4B 4162  38.945  28.073   7.535
   37POPC   NC3 4163  12.213  34.793   9.494
   37POPC   PO4 4164  11.609  34.379   9.441
   37POPC   GL1 4165  11.978  34.434   9.190
   37POPC   GL2 4166  12.003  34.766   9.024
   37POPC   C1A 4167  12.130  34.274   8.821
   37POPC   D2A 4168  12.283  34.231   8.388
   37POPC   C3A 4169  12.109  34.537   8.125
   37POPC   C4A 4170  11.973  34.858   7.851
   37POPC   C1B 4171  12.233  34.731   8.634
   37POPC   C2B 4172  12.300  34.969   8.291
   37POPC   C3B 4173  12.494  34.862   7.916
   37POPC   C4B 4174  12.373  34.591   7.597
   38POPC   NC3 4175  20.530  30.986   9.396
   38POPC   PO4 4176  20.718  30.372   9.374
   38POPC   GL1 4177  20.684  30.621   9.048
   38POPC   GL2 4178  20.341  30.629   9.068
   38POPC   C1A 4179  20.832  30.767   8.650
   38POPC   D2A 4180  21.022  30.826   8.262
   38POPC   C3A 4181  20.958  30.558   7.880
   38POPC   C4A 4182  20.925  30.797   7.472
   38POPC   C1B 4183  20.409  30.508   8.629
   38POPC   C2B 4184  20.540  30.587   8.213
   38POPC   C3B 4185  20.549  30.829   7.852
   38POPC   C4B 4186  20.418  30.679   7.416
   39POPC   NC3 4187  38.937  26.881   9.600
   39POPC   PO4 4188  39.546  26.542   9.482
   39POPC   GL1 4189  39.170  26.746   9.175
   39POPC   GL2 4190  38.920  27.100   9.135
   39POPC   C1A 4191  38.907  26.745   8.787
   39POPC   D2A 4192  38.928  26.900   8.380
   39POPC   C3A 4193  39.155  26.725   8.025
   39POPC   C4A 4194  38.925  26.538   7.695
   39POPC   C1B 4195  39.207  27.146   8.771
   39POPC   C2B 4196  39.336  27.198   8.340
   39POPC   C3B 4197  39.186  27.229   7.908
   39POPC   C4B 4198  39.262  26.922   7.563
   40POPC   NC3 4199  26.369  43.700   9.543
   40POPC   PO4 4200  25.717  44.035   9.514
   40POPC   GL1 4201  25.852  44.017   9.118
   40POPC   GL2 4202  26.168  43.960   9.095
   40POPC   C1A 4203  25.845  43.735   8.730
   40POPC   D2A 4204  25.727  43.863   8.343
   40POPC   C3A 4205  25.837  43.592   8.052
   40POPC   C4A 4206  25.977  43.564   7.648
   40POPC   C1B 4207  26.045  44.187   8.678
   40POPC   C2B 4208  26.234  43.907   8.363
   40POPC   C3B 4209  26.131  43.986   7.962
   40POPC   C4B 4210  26.102  44.410   7.830
   41POPC   NC3 4211  12.723  37.225   9.632
   41POPC   PO4 4212  13.187  36.764   9.601
   41POPC   GL1 4213  12.982  36.818   9.222
   41POPC   GL2 4214  13.205  37.090   9.188
   41POPC   C1A 4215  12.869  36.613   8.795
   41POPC   D2A 4216  13.051  36.606   8.354
   41POPC   C3A 4217  12.792  36.587   7.931
   41POPC   C4A 4218  12.708  36.930   7.647
   41POPC   C1B 4219  13.011  37.098   8.803
   41POPC   C2B 4220  12.888  37.169   8.423
   41POPC   C3B 4221  13.010  37.035   8.044
   41POPC   C4B 4222  13.217  36.795   7.728
   42POPC   NC3 4223  32.168  39.639   9.754
   42POPC   PO4 4224  32.159  38.984   9.671
   42POPC   GL1 4225  32.120  39.275   9.312
   42POPC   GL2 4226  32.418  39.423   9.144
   42POPC   C1A 4227  31.899  39.235   8.908
   42POPC   D2A 4228  31.795  39.052   8.495
   42POPC   C3A 4229  32.011  39.202   8.154
   42POPC   C4A 4230  32.213  39.220   7.791
   42POPC   C1B 4231  32.366  39.235   8.705
   42POPC   C2B 4232  32.505  39.329   8.277
   42POPC   C3B 4233  32.593  39.537   7.899
   42POPC   C4B 4234  32.695  39.188   7.626
   43POPC   NC3 4235   0.197  12.442   9.442
   43POPC   PO4 4236   0.686  13.008   9.487
   43POPC   GL1 4237   0.503  12.992   9.107
   43POPC   GL2 4238   0.555  12.653   9.098
   43POPC   C1A 4239   0.229  12.877   8.755
   43POPC   D2A 4240   0.003  13.121   8.438
   43POPC   C3A 4241   0.199  13.064   8.042
   43POPC   C4A 4242   0.374  12.707   7.829
   43POPC   C1B 4243   0.727  12.705   8.695
   43POPC   C2B 4244   0.532  12.524   8.327
   43POPC   C3B 4245   0.730  12.381   7.971
   43POPC   C4B 4246   0.914  12.640   7.679
   44POPC   NC3 4247  38.953  25.151   9.470
   44POPC   PO4 4248  39.615  24.926   9.601
   44POPC   GL1 4249  39.395  25.109   9.232
   44POPC   GL2 4250  39.363  25.475   9.261
   44POPC   C1A 4251  39.110  25.261   8.858
   44POPC   D2A 4252  39.076  25.523   8.486
   44POPC   C3A 4253  38.962  25.330   8.112
   44POPC   C4A 4254  39.262  25.267   7.774
   44POPC   C1B 4255  39.608  25.360   8.861
   44POPC   C2B 4256  39.604  25.605   8.529
   44POPC   C3B 4257  39.494  25.609   8.128
   44POPC   C4B 4258  39.748  25.540   7.795
   45POPC   NC3 4259  11.348  12.878   9.726
   45POPC   PO4 4260  10.943  12.426   9.739
   45POPC   GL1 4261  11.330  12.514   9.341
   45POPC   GL2 4262  11.367  12.880   9.224
   45POPC   C1A 4263  11.369  12.583   8.820
   45POPC   D2A 4264  11.106  12.537   8.390
   45POPC   C3A 4265  11.186  12.591   7.926
   45POPC   C4A 4266  11.579  12.698   7.770
   45POPC   C1B 4267  11.306  13.085   8.833
   45POPC   C2B 4268  11.149  13.040   8.467
   45POPC   C3B 4269  11.351  13.025   8.099
   45POPC   C4B 4270  11.264  13.091   7.701
   46POPC   NC3 4271  11.172  21.693   9.500
   46POPC   PO4 4272  11.595  21.289   9.678
   46POPC   GL1 4273  11.348  21.259   9.266
   46POPC   GL2 4274  11.444  21.553   9.070
   46POPC   C1A 4275  11.320  21.112   8.818
   46POPC   D2A 4276  11.347  21.315   8.397
   46POPC   C3A 4277  11.330  21.079   7.967
   46POPC   C4A 4278  11.108  21.320   7.610
   46POPC   C1B 4279  11.487  21.759   8.657
   46POPC   C2B 4280  11.228  21.788   8.288
   46POPC   C3B 4281  11.398  21.617   7.910
   46POPC   C4B 4282  11.780  21.722   7.655
   47POPC   NC3 4283  25.075  14.851   9.542
   47POPC   PO4 4284  25.553  15.323   9.466
   47POPC   GL1 4285  25.429  14.983   9.203
   47POPC   GL2 4286  25.158  15.185   9.114
   47POPC   C1A 4287  25.504  14.981   8.770
   47POPC   D2A 4288  25.347  15.126   8.402
   47POPC   C3A 4289  25.524  15.037   8.032
   47POPC   C4A 4290  25.465  15.427   7.874
   47POPC   C1B 4291  24.973  15.049   8.739
   47POPC   C2B 4292  24.843  15.112   8.328
   47POPC   C3B 4293  24.999  15.169   7.869
   47POPC   C4B 4294  25.014  15.371   7.421
   48POPC   NC3 4295   3.426  10.279   9.655
   48POPC   PO4 4296   3.813  10.785   9.397
   48POPC   GL1 4297   3.672  10.458   9.169
   48POPC   GL2 4298   3.318  10.384   9.164
   48POPC   C1A 4299   3.875  10.324   8.796
   48POPC   D2A 4300   3.737  10.438   8.403
   48POPC   C3A 4301   3.939  10.492   8.060
   48POPC   C4A 4302   3.763  10.441   7.644
   48POPC   C1B 4303   3.367  10.351   8.741
   48POPC   C2B 4304   3.221  10.582   8.378
   48POPC   C3B 4305   3.414  10.520   7.995
   48POPC   C4B 4306   3.313  10.188   7.688
   49POPC   NC3 4307  12.949  34.884   9.433
   49POPC   PO4 4308  12.424  34.371   9.468
   49POPC   GL1 4309  12.678  34.499   9.155
   49POPC   GL2 4310  12.523  34.793   9.065
   49POPC   C1A 4311  12.635  34.421   8.729
   49POPC   D2A 4312  12.684  34.644   8.368
   49POPC   C3A 4313  12.618  34.392   8.033
   49POPC   C4A 4314  12.884  34.512   7.730
   49POPC   C1B 4315  12.905  34.829   8.796
   49POPC   C2B 4316  13.173  34.869   8.452
   49POPC   C3B 4317  13.165  34.965   8.027
   49POPC   C4B 4318  12.917  35.111   7.706
   50POPC   NC3 4319  25.543  23.544   9.516
   50POPC   PO4 4320  25.004  23.868   9.499
   50POPC   GL1 4321  25.287  24.002   9.207
   50POPC   GL2 4322  25.285  23.650   9.104
   50POPC   C1A 4323  25.430  23.998   8.790
   50POPC   D2A 4324  25.336  23.752   8.453
   50POPC   C3A 4325  25.384  23.983   8.086
   50POPC   C4A 4326  25.195  23.989   7.713
   50POPC   C1B 4327  25.184  23.368   8.804
   50POPC   C2B 4328  25.232  23.248   8.392
   50POPC   C3B 4329  25.265  23.461   8.005
   50POPC   C4B 4330  25.061  23.527   7.606
   51POPC   NC3 4331  41.558   0.671   9.616
   51POPC   PO4 4332  42.012   0.245   9.641
   51POPC   GL1 4333  41.787   0.432   9.220
   51POPC   GL2 4334  41.406   0.554   9.157
   51POPC   C1A 4335  41.710   0.543   8.757
   51POPC   D2A 4336  41.623   0.760   8.372
   51POPC   C3A 4337  41.746   0.468   8.058
   51POPC   C4A 4338  41.898   0.420   7.675
   51POPC   C1B 4339  41.248   0.779   8.783
   51POPC   C2B 4340  41.091   0.736   8.357
   51POPC   C3B 4341  41.258   0.591   7.922
   51POPC   C4B 4342  41.423   0.246   7.684
   52POPC   NC3 4343  26.500   4.428   9.743
   52POPC   PO4 4344  26.907   4.055   9.471
   52POPC   GL1 4345  26.682   4.302   9.143
   52POPC   GL2 4346  26.791   4.033   8.941
   52POPC   C1A 4347  26.792   4.550   8.752
   52POPC   D2A 4348  26.811   4.657   8.301
   52POPC   C3A 4349  27.091   4.388   8.078
   52POPC   C4A 4350  27.110   4.246   7.692
   52POPC   C1B 4351  26.519   4.131   8.622
   52POPC   C2B 4352  26.630   4.180   8.205
   52POPC   C3B 4353  26.588   4.285   7.787
   52POPC   C4B 4354  26.425   4.077   7.417
   53POPC   NC3 4355  32.585  41.795   9.533
   53POPC   PO4 4356  32.919  41.214   9.631
   53POPC   GL1 4357  33.157  41.218   9.243
   53POPC   GL2 4358  33.061  41.578   9.156
   53POPC   C1A 4359  33.174  41.241   8.780
   53POPC   D2A 4360  32.887  41.228   8.416
   53POPC   C3A 4361  32.977  41.537   8.098
   53POPC   C4A 4362  33.291  41.570   7.776
   53POPC   C1B 4363  32.831  41.619   8.762
   53POPC   C2B 4364  32.570  41.650   8.374
   53POPC   C3B 4365  32.540  41.845   7.949
   53POPC   C4B 4366  32.747  41.631   7.598
   54POPC   NC3 4367  30.735  19.258   9.615
   54POPC   PO4 4368  31.179  18.901   9.203
   54POPC   GL1 4369  30.831  19.115   9.094
   54POPC   GL2 4370  30.595  18.907   9.228
   54POPC   C1A 4371  30.857  19.035   8.646
   54POPC   D2A 4372  30.791  18.668   8.367
   54POPC   C3A 4373  30.849  18.853   7.944
   54POPC   C4A 4374  30.695  19.270   7.862
   54POPC   C1B 4375  30.416  18.842   8.822
   54POPC   C2B 4376  30.397  19.057   8.428
   54POPC   C3B 4377  30.372  18.873   8.057
   54POPC   C4B 4378  30.299  18.972   7.668
   55POPC   NC3 4379  25.037  20.714   9.665
   55POPC   PO4 4380  25.347  20.158   9.480
   55POPC   GL1 4381  25.102  20.486   9.198
   55POPC   GL2 4382  25.222  20.852   9.196
   55POPC   C1A 4383  25.118  20.608   8.748
   55POPC   D2A 4384  25.390  20.536   8.417
   55POPC   C3A 4385  25.174  20.611   8.056
   55POPC   C4A 4386  25.476  20.491   7.762
   55POPC   C1B 4387  25.290  21.102   8.794
   55POPC   C2B 4388  25.229  21.061   8.332
   55POPC   C3B 4389  25.478  20.988   7.950
   55POPC   C4B 4390  25.452  20.927   7.475
   56POPC   NC3 4391  32.725  37.469   9.532
   56POPC   PO4 4392  32.896  38.137   9.676
   56POPC   GL1 4393  32.815  37.875   9.214
   56POPC   GL2 4394  32.914  37.503   9.069
   56POPC   C1A 4395  32.910  37.873   8.724
   56POPC   D2A 4396  33.110  37.686   8.352
   56POPC   C3A 4397  32.938  37.793   7.945
   56POPC   C4A 4398  33.194  37.589   7.612
   56POPC   C1B 4399  32.641  37.441   8.708
   56POPC   C2B 4400  32.628  37.516   8.267
   56POPC   C3B 4401  32.847  37.304   7.944
   56POPC   C4B 4402  32.790  37.308   7.502
   57POPC   NC3 4403  34.634  15.623   9.802
   57POPC   PO4 4404  34.717  16.112   9.215
   57POPC   GL1 4405  34.396  15.939   8.998
   57POPC   GL2 4406  34.525  15.596   8.854
   57POPC   C1A 4407  34.328  15.992   8.569
   57POPC   D2A 4408  34.588  15.747   8.308
   57POPC   C3A 4409  34.725  15.974   7.980
   57POPC   C4A 4410  34.865  15.843   7.563
   57POPC   C1B 4411  34.080  15.586   8.815
   57POPC   C2B 4412  33.917  15.723   8.443
   57POPC   C3B 4413  34.140  15.753   8.049
   57POPC   C4B 4414  34.346  15.915   7.670
   58POPC   NC3 4415  37.902  11.026   9.519
   58POPC   PO4 4416  37.626  11.699   9.574
   58POPC   GL1 4417  37.704  11.507   9.192
   58POPC   GL2 4418  37.555  11.182   9.189
   58POPC   C1A 4419  37.752  11.609   8.748
   58POPC   D2A 4420  37.849  11.394   8.375
   58POPC   C3A 4421  37.515  11.337   8.110
   58POPC   C4A 4422  37.417  11.454   7.694
   58POPC   C1B 4423  37.807  11.107   8.849
   58POPC   C2B 4424  37.764  10.912   8.479
   58POPC   C3B 4425  37.862  10.933   8.067
   58POPC   C4B 4426  37.692  10.995   7.689
   59POPC   NC3 4427   3.628  35.371   9.452
   59POPC   PO4 4428   3.048  35.068   9.385
   59POPC   GL1 4429   3.237  35.382   9.112
   59POPC   GL2 4430   3.589  35.268   8.959
   59POPC   C1A 4431   3.256  35.537   8.683
   59POPC   D2A 4432   3.593  35.406   8.424
   59POPC   C3A 4433   3.503  35.299   7.999
   59POPC   C4A 4434   3.811  35.250   7.693
   59POPC   C1B 4435   3.762  35.686   8.847
   59POPC   C2B 4436   3.922  35.825   8.456
   59POPC   C3B 4437   3.954  35.613   8.063
   59POPC   C4B 4438   3.798  35.798   7.702
   60POPC   NC3 4439   5.008  24.124   9.560
   60POPC   PO4 4440   4.889  23.472   9.512
   60POPC   GL1 4441   4.816  23.763   9.205
   60POPC   GL2 4442   5.155  23.806   9.162
   60POPC   C1A 4443   4.781  23.882   8.766
   60POPC   D2A 4444   4.642  23.913   8.291
   60POPC   C3A 4445   4.966  23.758   8.016
   60POPC   C4A 4446   5.236  23.424   7.881
   60POPC   C1B 4447   5.315  24.001   8.811
   60POPC   C2B 4448   5.154  24.056   8.416
   60POPC   C3B 4449   5.371  24.049   8.071
   60POPC   C4B 4450   5.303  23.935   7.661
   61POPC   NC3 4451   4.484  24.747   9.418
   61POPC   PO4 4452   4.172  24.167   9.461
   61POPC   GL1 4453   4.294  24.381   9.086
   61POPC   GL2 4454   4.607  24.242   9.094
   61POPC   C1A 4455   4.506  24.698   8.768
   61POPC   D2A 4456   4.474  24.960   8.381
   61POPC   C3A 4457   4.157  24.820   8.136
   61POPC   C4A 4458   4.010  24.746   7.732
   61POPC   C1B 4459   4.417  24.214   8.627
   61POPC   C2B 4460   4.347  24.336   8.151
   61POPC   C3B 4461   4.371  24.363   7.681
   61POPC   C4B 4462   4.550  24.284   7.247
   62POPC   NC3 4463   0.563   3.405   9.526
   62POPC   PO4 4464   0.191   2.752   9.543
   62POPC   GL1 4465   0.375   2.604   9.192
   62POPC   GL2 4466   0.600   2.868   9.134
   62POPC   C1A 4467   0.319   2.567   8.772
   62POPC   D2A 4468   0.377   2.791   8.413
   62POPC   C3A 4469   0.265   2.658   8.034
   62POPC   C4A 4470   0.479   2.728   7.657
   62POPC   C1B 4471   0.769   2.897   8.734
   62POPC   C2B 4472   0.893   2.897   8.326
   62POPC   C3B 4473   0.612   3.038   8.033
   62POPC   C4B 4474   0.633   3.256   7.689
   63POPC   NC3 4475  38.051  11.835   9.788
   63POPC   PO4 4476  38.464  12.169   9.298
   63POPC   GL1 4477  38.503  11.956   8.969
   63POPC   GL2 4478  38.737  11.712   8.956
   63POPC   C1A 4479  38.240  11.910   8.632
   63POPC   D2A 4480  38.018  11.853   8.281
   63POPC   C3A 4481  38.265  11.986   7.951
   63POPC   C4A 4482  38.274  12.154   7.536
   63POPC   C1B 4483  38.760  11.998   8.560
   63POPC   C2B 4484  38.731  12.342   8.266
   63POPC   C3B 4485  38.729  12.186   7.860
   63POPC   C4B 4486  38.815  11.750   7.757
   64POPC   NC3 4487  11.677  27.988   9.917
   64POPC   PO4 4488  12.085  27.567   9.481
   64POPC   GL1 4489  11.988  27.657   9.101
   64POPC   GL2 4490  11.850  27.327   9.054
   64POPC   C1A 4491  11.745  27.690   8.744
   64POPC   D2A 4492  11.952  27.775   8.365
   64POPC   C3A 4493  11.808  27.753   7.953
   64POPC   C4A 4494  12.139  27.852   7.644
   64POPC   C1B 4495  12.268  27.433   8.785
   64POPC   C2B 4496  12.415  27.521   8.380
   64POPC   C3B 4497  12.218  27.457   7.986
   64POPC   C4B 4498  12.197  27.308   7.570
   65POPC   NC3 4499  34.094  39.724   9.390
   65POPC   PO4 4500  34.487  40.192   9.568
   65POPC   GL1 4501  34.551  40.013   9.175
   65POPC   GL2 4502  34.505  40.310   8.976
   65POPC   C1A 4503  34.502  39.847   8.742
   65POPC   D2A 4504  34.245  39.678   8.390
   65POPC   C3A 4505  34.411  39.816   7.998
   65POPC   C4A 4506  34.774  39.923   7.783
   65POPC   C1B 4507  34.490  40.348   8.548
   65POPC   C2B 4508  34.405  40.540   8.191
   65POPC   C3B 4509  34.522  40.343   7.851
   65POPC   C4B 4510  34.397  40.134   7.476
   66POPC   NC3 4511  19.206  27.350   9.305
   66POPC   PO4 4512  19.518  27.904   9.576
   66POPC   GL1 4513  19.230  27.957   9.180
   66POPC   GL2 4514  19.103  27.640   8.923
   66POPC   C1A 4515  19.020  28.092   8.764
   66POPC   D2A 4516  18.886  28.091   8.314
   66POPC   C3A 4517  19.086  27.744   8.079
   66POPC   C4A 4518  19.211  27.727   7.655
   66POPC   C1B 4519  19.427  27.391   8.654
   66POPC   C2B 4520  19.550  27.463   8.214
   66POPC   C3B 4521  19.358  27.290   7.870
   66POPC   C4B 4522  18.893  27.349   7.793
   67POPC   NC3 4523  33.846  26.641   9.539
   67POPC   PO4 4524  33.864  25.937   9.696
   67POPC   GL1 4525  33.875  26.073   9.222
   67POPC   GL2 4526  33.805  26.388   8.998
   67POPC   C1A 4527  33.771  25.931   8.776
   67POPC   D2A 4528  33.735  26.133   8.368
   67POPC   C3A 4529  33.796  25.833   8.013
   67POPC   C4A 4530  33.923  25.760   7.561
   67POPC   C1B 4531  33.386  26.251   8.748
   67POPC   C2B 4532  33.235  26.349   8.328
   67POPC   C3B 4533  33.434  26.190   7.952
   67POPC   C4B 4534  33.764  26.221   7.663
   68POPC   NC3 4535   8.697  22.522   9.548
   68POPC   PO4 4536   9.126  21.915   9.646
   68POPC   GL1 4537   8.941  22.161   9.293
   68POPC   GL2 4538   8.605  22.138   9.183
   68POPC   C1A 4539   8.983  22.123   8.837
   68POPC   D2A 4540   9.165  22.184   8.442
   68POPC   C3A 4541   8.944  22.113   8.136
   68POPC   C4A 4542   9.037  22.195   7.739
   68POPC   C1B 4543   8.445  22.104   8.773
   68POPC   C2B 4544   8.474  21.941   8.354
   68POPC   C3B 4545   8.471  22.223   8.004
   68POPC   C4B 4546   8.587  22.394   7.631
   69POPC   NC3 4547   3.331  44.321   9.615
   69POPC   PO4 4548   3.918  44.604   9.525
   69POPC   GL1 4549   3.748  44.547   9.131
   69POPC   GL2 4550   3.390  44.524   9.150
   69POPC   C1A 4551   3.614  44.566   8.697
   69POPC   D2A 4552   3.756  44.415   8.331
   69POPC   C3A 4553   3.566  44.653   8.027
   69POPC   C4A 4554   3.871  44.825   7.792
   69POPC   C1B 4555   3.230  44.237   8.811
   69POPC   C2B 4556   3.223  44.396   8.348
   69POPC   C3B 4557   3.213  44.332   7.866
   69POPC   C4B 4558   3.071  44.365   7.407
   70POPC   NC3 4559  15.203  21.638   9.618
   70POPC   PO4 4560  15.591  21.110   9.550
   70POPC   GL1 4561  15.278  21.361   9.208
   70POPC   GL2 4562  15.049  21.610   9.116
   70POPC   C1A 4563  15.170  21.198   8.812
   70POPC   D2A 4564  15.099  21.319   8.411
   70POPC   C3A 4565  15.388  21.289   8.101
   70POPC   C4A 4566  15.076  21.221   7.807
   70POPC   C1B 4567  15.238  21.704   8.717
   70POPC   C2B 4568  15.383  21.787   8.290
   70POPC   C3B 4569  15.178  21.736   7.894
   70POPC   C4B 4570  14.911  21.907   7.556
   71POPC   NC3 4571  39.383  18.161   9.456
   71POPC   PO4 4572  38.764  18.367   9.598
   71POPC   GL1 4573  39.009  18.479   9.233
   71POPC   GL2 4574  38.959  18.151   9.136
   71POPC   C1A 4575  39.291  18.421   8.850
   71POPC   D2A 4576  39.517  18.072   8.610
   71POPC   C3A 4577  39.475  18.113   8.139
   71POPC   C4A 4578  39.344  18.497   7.931
   71POPC   C1B 4579  39.032  17.992   8.762
   71POPC   C2B 4580  39.062  18.222   8.409
   71POPC   C3B 4581  38.973  18.102   8.020
   71POPC   C4B 4582  38.985  18.276   7.641
   72POPC   NC3 4583  15.681  25.154   9.807
   72POPC   PO4 4584  16.259  24.953   9.501
   72POPC   GL1 4585  16.089  25.283   9.196
   72POPC   GL2 4586  15.769  25.423   9.153
   72POPC   C1A 4587  16.033  25.434   8.724
   72POPC   D2A 4588  15.834  25.434   8.331
   72POPC   C3A 4589  15.964  25.471   7.906
   72POPC   C4A 4590  15.966  25.024   7.822
   72POPC   C1B 4591  15.670  25.098   8.784
   72POPC   C2B 4592  15.507  25.009   8.382
   72POPC   C3B 4593  15.465  25.211   8.001
   72POPC   C4B 4594  15.581  25.295   7.591
   73POPC   NC3 4595  44.088  41.991   9.527
   73POPC   PO4 4596  43.686  42.501   9.426
   73POPC   GL1 4597  43.934  42.280   9.140
   73POPC   GL2 4598  44.301  42.258   9.144
   73POPC   C1A 4599  43.968  42.139   8.748
   73POPC   D2A 4600  43.749  42.284   8.417
   73POPC   C3A 4601  43.747  41.993   8.118
   73POPC   C4A 4602  43.669  41.974   7.682
   73POPC   C1B 4603  44.381  42.453   8.735
   73POPC   C2B 4604  44.290  42.382   8.301
   73POPC   C3B 4605  44.026  42.386   7.940
   73POPC   C4B 4606  44.114  42.341   7.515
   74POPC   NC3 4607  11.684  13.765   9.412
   74POPC   PO4 4608  11.227  13.315   9.623
   74POPC   GL1 4609  11.382  13.408   9.208
   74POPC   GL2 4610  11.073  13.517   9.043
   74POPC   C1A 4611  11.530  13.531   8.772
   74POPC   D2A 4612  11.357  13.481   8.349
   74POPC   C3A 4613  11.558  13.465   7.936
   74POPC   C4A 4614  11.438  13.513   7.482
   74POPC   C1B 4615  11.109  13.806   8.708
   74POPC   C2B 4616  11.212  13.955   8.307
   74POPC   C3B 4617  11.217  13.862   7.856
   74POPC   C4B 4618  11.339  14.133   7.529
   75POPC   NC3 4619  27.361  39.286   9.517
   75POPC   PO4 4620  26.699  39.437   9.586
   75POPC   GL1 4621  26.696  39.160   9.213
   75POPC   GL2 4622  26.358  39.189   9.112
   75POPC   C1A 4623  26.765  39.209   8.762
   75POPC   D2A 4624  26.930  39.260   8.337
   75POPC   C3A 4625  26.852  38.906   8.060
   75POPC   C4A 4626  26.572  38.984   7.728
   75POPC   C1B 4627  26.461  39.619   8.897
   75POPC   C2B 4628  26.450  39.814   8.459
   75POPC   C3B 4629  26.498  39.649   8.032
   75POPC   C4B 4630  26.434  39.522   7.610
   76POPC   NC3 4631  31.670  30.471   9.492
   76POPC   PO4 4632  31.319  30.993   9.785
   76POPC   GL1 4633  31.499  30.910   9.302
   76POPC   GL2 4634  31.431  30.581   9.072
   76POPC   C1A 4635  31.379  31.036   8.867
   76POPC   D2A 4636  31.420  30.968   8.423
   76POPC   C3A 4637  31.115  30.946   8.111
   76POPC   C4A 4638  31.327  30.869   7.736
   76POPC   C1B 4639  31.589  30.384   8.698
   76POPC   C2B 4640  31.724  30.561   8.311
   76POPC   C3B 4641  31.650  30.481   7.853
   76POPC   C4B 4642  31.800  30.378   7.371
   77POPC   NC3 4643  37.768  21.632   9.476
   77POPC   PO4 4644  37.306  22.224   9.504
   77POPC   GL1 4645  37.435  22.060   9.139
   77POPC   GL2 4646  37.378  21.719   9.144
   77POPC   C1A 4647  37.642  22.172   8.755
   77POPC   D2A 4648  38.003  22.022   8.526
   77POPC   C3A 4649  37.965  22.043   8.081
   77POPC   C4A 4650  38.021  22.357   7.720
   77POPC   C1B 4651  37.584  21.644   8.785
   77POPC   C2B 4652  37.510  21.815   8.389
   77POPC   C3B 4653  37.320  21.641   8.051
   77POPC   C4B 4654  37.435  21.542   7.675
   78POPC   NC3 4655  34.975   5.569   9.503
   78POPC   PO4 4656  34.876   6.189   9.706
   78POPC   GL1 4657  35.116   6.050   9.261
   78POPC   GL2 4658  35.316   5.739   9.162
   78POPC   C1A 4659  35.282   6.056   8.776
   78POPC   D2A 4660  35.295   5.897   8.335
   78POPC   C3A 4661  35.575   5.677   8.000
   78POPC   C4A 4662  35.864   5.856   7.680
   78POPC   C1B 4663  35.074   5.565   8.813
   78POPC   C2B 4664  34.892   5.571   8.403
   78POPC   C3B 4665  35.033   5.640   7.990
   78POPC   C4B 4666  35.108   5.626   7.579
   79POPC   NC3 4667   4.820  17.890   9.568
   79POPC   PO4 4668   5.224  18.534   9.538
   79POPC   GL1 4669   5.090  18.221   9.222
   79POPC   GL2 4670   4.758  18.162   9.149
   79POPC   C1A 4671   5.079  18.293   8.779
   79POPC   D2A 4672   4.959  18.180   8.384
   79POPC   C3A 4673   5.171  18.278   7.999
   79POPC   C4A 4674   5.153  18.632   7.783
   79POPC   C1B 4675   4.542  18.318   8.763
   79POPC   C2B 4676   4.435  18.347   8.334
   79POPC   C3B 4677   4.688  18.454   7.998
   79POPC   C4B 4678   4.793  18.312   7.590
   80POPC   NC3 4679  37.977  30.734   9.843
   80POPC   PO4 4680  38.559  30.879   9.518
   80POPC   GL1 4681  38.524  30.681   9.129
   80POPC   GL2 4682  38.189  30.477   9.036
   80POPC   C1A 4683  38.431  30.833   8.748
   80POPC   D2A 4684  38.338  30.529   8.511
   80POPC   C3A 4685  38.311  30.692   8.132
   80POPC   C4A 4686  38.259  30.581   7.741
   80POPC   C1B 4687  38.537  30.234   8.909
   80POPC   C2B 4688  38.575  30.080   8.541
   80POPC   C3B 4689  38.480  30.214   8.123
   80POPC   C4B 4690  38.557  30.173   7.708
   81POPC   NC3 4691  32.825  39.432   9.468
   81POPC   PO4 4692  32.988  38.787   9.542
   81POPC   GL1 4693  32.964  39.055   9.180
   81POPC   GL2 4694  33.213  39.254   9.144
   81POPC   C1A 4695  32.862  39.310   8.800
   81POPC   D2A 4696  32.917  39.074   8.451
   81POPC   C3A 4697  32.981  39.263   8.066
   81POPC   C4A 4698  33.080  39.513   7.708
   81POPC   C1B 4699  33.347  39.061   8.790
   81POPC   C2B 4700  33.504  38.919   8.417
   81POPC   C3B 4701  33.421  39.029   8.072
   81POPC   C4B 4702  33.389  39.108   7.708
   82POPC   NC3 4703  21.939  37.721   9.743
   82POPC   PO4 4704  22.462  37.435   9.489
   82POPC   GL1 4705  22.251  37.735   9.270
   82POPC   GL2 4706  21.964  37.548   9.260
   82POPC   C1A 4707  22.275  37.837   8.831
   82POPC   D2A 4708  22.341  37.658   8.427
   82POPC   C3A 4709  22.232  37.746   7.985
   82POPC   C4A 4710  22.385  37.862   7.578
   82POPC   C1B 4711  21.998  37.365   8.865
   82POPC   C2B 4712  22.072  37.210   8.469
   82POPC   C3B 4713  22.320  37.234   8.113
   82POPC   C4B 4714  22.408  37.359   7.696
   83POPC   NC3 4715   8.347  27.041   9.486
   83POPC   PO4 4716   8.374  26.270   9.405
   83POPC   GL1 4717   8.117  26.432   9.103
   83POPC   GL2 4718   8.097  26.802   9.116
   83POPC   C1A 4719   8.301  26.474   8.721
   83POPC   D2A 4720   8.446  26.654   8.397
   83POPC   C3A 4721   8.343  26.544   7.989
   83POPC   C4A 4722   8.285  26.794   7.622
   83POPC   C1B 4723   7.989  26.869   8.690
   83POPC   C2B 4724   7.979  26.801   8.268
   83POPC   C3B 4725   7.922  26.997   7.911
   83POPC   C4B 4726   7.886  27.030   7.411
   84POPC   NC3 4727  37.443  16.535   9.532
   84POPC   PO4 4728  37.908  16.973   9.732
   84POPC   GL1 4729  37.835  16.763   9.250
   84POPC   GL2 4730  37.510  16.608   9.049
   84POPC   C1A 4731  37.832  16.865   8.760
   84POPC   D2A 4732  37.690  16.986   8.314
   84POPC   C3A 4733  37.797  16.677   7.976
   84POPC   C4A 4734  38.067  16.576   7.620
   84POPC   C1B 4735  37.318  16.875   8.719
   84POPC   C2B 4736  37.185  16.765   8.293
   84POPC   C3B 4737  37.337  16.889   7.897
   84POPC   C4B 4738  37.444  16.718   7.508
   85POPC   NC3 4739  40.167  29.417   9.452
   85POPC   PO4 4740  39.752  28.918   9.456
   85POPC   GL1 4741  39.848  29.066   9.105
   85POPC   GL2 4742  40.155  29.043   9.074
   85POPC   C1A 4743  39.783  29.140   8.692
   85POPC   D2A 4744  39.828  29.374   8.339
   85POPC   C3A 4745  39.875  29.159   7.955
   85POPC   C4A 4746  39.645  28.897   7.709
   85POPC   C1B 4747  40.291  29.203   8.703
   85POPC   C2B 4748  40.165  28.948   8.367
   85POPC   C3B 4749  40.369  29.014   7.990
   85POPC   C4B 4750  40.268  29.459   7.834
   86POPC   NC3 4751  21.130  33.133   9.537
   86POPC   PO4 4752  21.752  32.865   9.445
   86POPC   GL1 4753  21.456  32.807   9.113
   86POPC   GL2 4754  21.176  33.023   9.057
   86POPC   C1A 4755  21.397  32.813   8.672
   86POPC   D2A 4756  21.470  33.094   8.369
   86POPC   C3A 4757  21.303  32.968   8.004
   86POPC   C4A 4758  21.352  32.662   7.663
   86POPC   C1B 4759  21.147  33.329   8.756
   86POPC   C2B 4760  20.981  33.239   8.364
   86POPC   C3B 4761  21.037  33.416   7.993
   86POPC   C4B 4762  21.262  33.500   7.635
   87POPC   NC3 4763  31.704  31.541   9.689
   87POPC   PO4 4764  32.008  31.433   9.115
   87POPC   GL1 4765  31.661  31.661   8.950
   87POPC   GL2 4766  31.364  31.831   9.108
   87POPC   C1A 4767  31.556  31.437   8.613
   87POPC   D2A 4768  31.679  31.428   8.225
   87POPC   C3A 4769  31.509  31.346   7.856
   87POPC   C4A 4770  31.762  31.194   7.554
   87POPC   C1B 4771  31.123  31.687   8.765
   87POPC   C2B 4772  31.103  31.413   8.420
   87POPC   C3B 4773  31.234  31.671   8.122
   87POPC   C4B 4774  31.145  31.712   7.719
   88POPC   NC3 4775  28.746  31.957   9.428
   88POPC   PO4 4776  29.382  32.209   9.599
   88POPC   GL1 4777  29.050  32.330   9.267
   88POPC   GL2 4778  28.786  32.586   9.197
   88POPC   C1A 4779  29.066  32.289   8.818
   88POPC   D2A 4780  29.317  32.077   8.504
   88POPC   C3A 4781  29.272  32.264   8.107
   88POPC   C4A 4782  29.131  32.091   7.741
   88POPC   C1B 4783  28.820  32.740   8.743
   88POPC   C2B 4784  28.973  32.717   8.304
   88POPC   C3B 4785  28.804  32.458   7.940
   88POPC   C4B 4786  28.828  32.377   7.467
   89POPC   NC3 4787  26.259  11.177   9.469
   89POPC   PO4 4788  25.871  11.703   9.564
   89POPC   GL1 4789  26.106  11.628   9.190
   89POPC   GL2 4790  25.816  11.825   9.047
   89POPC   C1A 4791  26.187  11.285   8.839
   89POPC   D2A 4792  25.943  11.125   8.495
   89POPC   C3A 4793  26.085  11.173   8.081
   89POPC   C4A 4794  26.003  11.206   7.656
   89POPC   C1B 4795  26.058  11.749   8.705
   89POPC   C2B 4796  26.234  11.576   8.360
   89POPC   C3B 4797  26.047  11.670   7.996
   89POPC   C4B 4798  26.003  11.718   7.610
   90POPC   NC3 4799  28.042  19.190   9.727
   90POPC   PO4 4800  27.412  18.972   9.750
   90POPC   GL1 4801  27.404  19.093   9.275
   90POPC   GL2 4802  27.546  18.780   9.190
   90POPC   C1A 4803  27.327  19.010   8.790
   90POPC   D2A 4804  27.572  19.142   8.466
   90POPC   C3A 4805  27.450  19.031   8.079
   90POPC   C4A 4806  27.345  19.244   7.712
   90POPC   C1B 4807  27.798  18.824   8.826
   90POPC   C2B 4808  27.773  18.693   8.400
   90POPC   C3B 4809  27.953  18.871   8.047
   90POPC   C4B 4810  27.768  18.946   7.659
   91POPC   NC3 4811  28.728   5.309   9.467
   91POPC   PO4 4812  28.073   5.350   9.505
   91POPC   GL1 4813  28.290   5.078   9.193
   91POPC   GL2 4814  28.616   4.867   9.224
   91POPC   C1A 4815  28.245   4.811   8.842
   91POPC   D2A 4816  28.102   4.913   8.428
   91POPC   C3A 4817  28.083   5.332   8.261
   91POPC   C4A 4818  28.219   5.245   7.856
   91POPC   C1B 4819  28.668   5.107   8.795
   91POPC   C2B 4820  28.582   5.193   8.322
   91POPC   C3B 4821  28.696   5.015   7.892
   91POPC   C4B 4822  28.855   5.057   7.447
   92POPC   NC3 4823  13.962  18.753   9.510
   92POPC   PO4 4824  13.412  19.183   9.524
   92POPC   GL1 4825  13.462  18.955   9.125
   92POPC   GL2 4826  13.786  18.853   9.053
   92POPC   C1A 4827  13.494  19.074   8.668
   92POPC   D2A 4828  13.302  19.214   8.265
   92POPC   C3A 4829  13.544  19.043   7.946
   92POPC   C4A 4830  13.405  18.819   7.583
   92POPC   C1B 4831  14.071  18.735   8.723
   92POPC   C2B 4832  13.966  18.829   8.321
   92POPC   C3B 4833  14.072  18.938   7.916
   92POPC   C4B 4834  13.942  18.847   7.496
   93POPC   NC3 4835   6.338  31.453   9.469
   93POPC   PO4 4836   7.095  31.358   9.564
   93POPC   GL1 4837   6.810  31.403   9.195
   93POPC   GL2 4838   6.659  31.077   9.248
   93POPC   C1A 4839   6.684  31.539   8.750
   93POPC   D2A 4840   6.885  31.677   8.331
   93POPC   C3A 4841   6.732  31.587   7.936
   93POPC   C4A 4842   6.359  31.666   7.738
   93POPC   C1B 4843   6.473  30.966   8.853
   93POPC   C2B 4844   6.612  31.089   8.461
   93POPC   C3B 4845   6.661  31.101   8.033
   93POPC   C4B 4846   6.896  31.177   7.660
   94POPC   NC3 4847   9.799  26.369   9.291
   94POPC   PO4 4848   9.818  27.024   9.508
   94POPC   GL1 4849   9.848  26.863   9.118
   94POPC   GL2 4850   9.503  26.784   9.125
   94POPC   C1A 4851  10.045  26.793   8.709
   94POPC   D2A 4852  10.118  26.979   8.298
   94POPC   C3A 4853   9.987  26.718   7.947
   94POPC   C4A 4854   9.987  26.772   7.511
   94POPC   C1B 4855   9.411  26.571   8.756
   94POPC   C2B 4856   9.619  26.614   8.376
   94POPC   C3B 4857   9.540  26.906   8.063
   94POPC   C4B 4858   9.445  26.776   7.676
   95POPC   NC3 4859   2.950  16.217   9.567
   95POPC   PO4 4860   2.590  15.800   9.285
   95POPC   GL1 4861   2.677  16.060   8.992
   95POPC   GL2 4862   3.043  16.041   9.090
   95POPC   C1A 4863   2.551  15.918   8.590
   95POPC   D2A 4864   2.695  15.569   8.347
   95POPC   C3A 4865   2.552  15.825   8.017
   95POPC   C4A 4866   2.490  16.120   7.734
   95POPC   C1B 4867   3.040  15.828   8.680
   95POPC   C2B 4868   2.996  15.966   8.252
   95POPC   C3B 4869   3.000  15.974   7.786
   95POPC   C4B 4870   3.074  15.735   7.420
   96POPC   NC3 4871   1.536  22.875   9.642
   96POPC   PO4 4872   0.937  22.846   9.744
   96POPC   GL1 4873   0.999  22.833   9.275
   96POPC   GL2 4874   1.295  22.613   9.212
   96POPC   C1A 4875   0.955  23.054   8.861
   96POPC   D2A 4876   1.260  23.130   8.501
   96POPC   C3A 4877   1.085  23.062   8.088
   96POPC   C4A 4878   1.009  22.813   7.751
   96POPC   C1B 4879   1.236  22.659   8.756
   96POPC   C2B 4880   1.305  22.636   8.312
   96POPC   C3B 4881   1.575  22.891   8.058
   96POPC   C4B 4882   1.459  23.129   7.704
   97POPC   NC3 4883  20.887  14.700   9.475
   97POPC   PO4 4884  20.447  14.154   9.521
   97POPC   GL1 4885  20.715  14.290   9.185
   97POPC   GL2 4886  20.482  14.544   9.169
   97POPC   C1A 4887  20.665  14.408   8.732
   97POPC   D2A 4888  20.501  14.354   8.326
   97POPC   C3A 4889  20.693  14.484   7.948
   97POPC   C4A 4890  20.568  14.317   7.548
   97POPC   C1B 4891  20.194  14.673   8.843
   97POPC   C2B 4892  20.064  14.665   8.402
   97POPC   C3B 4893  20.322  14.810   8.080
   97POPC   C4B 4894  20.403  14.794   7.641
   98POPC   NC3 4895  33.126  19.237   9.501
   98POPC   PO4 4896  32.812  18.621   9.534
   98POPC   GL1 4897  32.898  18.874   9.150
   98POPC   GL2 4898  32.793  19.261   9.140
   98POPC   C1A 4899  33.063  18.769   8.728
   98POPC   D2A 4900  32.992  19.049   8.375
   98POPC   C3A 4901  32.909  18.943   7.983
   98POPC   C4A 4902  33.172  18.889   7.651
   98POPC   C1B 4903  33.064  19.293   8.810
   98POPC   C2B 4904  33.248  19.537   8.494
   98POPC   C3B 4905  33.128  19.474   8.075
   98POPC   C4B 4906  32.939  19.363   7.703
   99POPC   NC3 4907  15.116  44.192   9.532
   99POPC   PO4 4908  15.191  44.817   9.531
   99POPC   GL1 4909  15.380  44.536   9.238
   99POPC   GL2 4910  15.557  44.164   9.267
   99POPC   C1A 4911  15.126  44.624   8.880
   99POPC   D2A 4912  15.060  44.907   8.545
   99POPC   C3A 4913  14.992  44.707   8.157
   99POPC   C4A 4914  14.786  44.875   7.813
   99POPC   C1B 4915  15.497  44.277   8.836
   99POPC   C2B 4916  15.408  44.489   8.463
   99POPC   C3B 4917  15.413  44.425   8.022
   99POPC   C4B 4918  15.470  44.775   7.744
  100POPC   NC3 4919  12.466  33.092   9.491
  100POPC   PO4 4920  13.132  32.843   9.440
  100POPC   GL1 4921  12.869  32.839   9.126
  100POPC   GL2 4922  12.892  33.189   9.069
  100POPC   C1A 4923  12.674  32.880   8.718
  100POPC   D2A 4924  12.377  32.813   8.394
  100POPC   C3A 4925  12.548  32.835   7.981
  100POPC   C4A 4926  12.579  32.978   7.579
  100POPC   C1B 4927  13.056  33.221   8.661
  100POPC   C2B 4928  12.871  33.096   8.276
  100POPC   C3B 4929  12.779  33.338   7.903
  100POPC   C4B 4930  13.013  33.650   7.690
  101POPC   NC3 4931  11.288   0.812   9.561
  101POPC   PO4 4932  11.516   0.124   9.719
  101POPC   GL1 4933  11.267   0.269   9.317
  101POPC   GL2 4934  11.174   0.573   9.151
  101POPC   C1A 4935  11.388   0.271   8.831
  101POPC   D2A 4936  11.410   0.111   8.416
  101POPC   C3A 4937  11.565   0.389   8.061
  101POPC   C4A 4938  11.398   0.378   7.651
  101POPC   C1B 4939  11.098   0.745   8.770
  101POPC   C2B 4940  11.189   0.571   8.357
  101POPC   C3B 4941  11.000   0.610   7.932
  101POPC   C4B 4942  11.049   0.700   7.437
  102POPC   NC3 4943  43.361  10.418   9.546
  102POPC   PO4 4944  42.666  10.255   9.513
  102POPC   GL1 4945  42.834  10.499   9.168
  102POPC   GL2 4946  43.190  10.569   9.102
  102POPC   C1A 4947  42.826  10.530   8.731
  102POPC   D2A 4948  42.935  10.656   8.337
  102POPC   C3A 4949  42.889  10.394   8.016
  102POPC   C4A 4950  43.160  10.230   7.751
  102POPC   C1B 4951  43.284  10.746   8.732
  102POPC   C2B 4952  43.456  10.588   8.369
  102POPC   C3B 4953  43.349  10.672   7.979
  102POPC   C4B 4954  43.499  10.717   7.589
  103POPC   NC3 4955  15.901  20.963   9.855
  103POPC   PO4 4956  16.182  20.430   9.679
  103POPC   GL1 4957  15.973  20.665   9.319
  103POPC   GL2 4958  16.227  20.505   9.162
  103POPC   C1A 4959  15.833  20.691   8.847
  103POPC   D2A 4960  15.531  20.883   8.510
  103POPC   C3A 4961  15.551  20.788   8.040
  103POPC   C4A 4962  15.833  20.708   7.694
  103POPC   C1B 4963  16.347  20.745   8.808
  103POPC   C2B 4964  16.175  20.566   8.442
  103POPC   C3B 4965  16.205  20.681   8.035
  103POPC   C4B 4966  16.368  20.518   7.682
  104POPC   NC3 4967  21.079  26.970   9.491
  104POPC   PO4 4968  20.448  26.750   9.610
  104POPC   GL1 4969  20.640  26.850   9.233
  104POPC   GL2 4970  20.555  26.525   9.122
  104POPC   C1A 4971  20.774  26.887   8.803
  104POPC   D2A 4972  20.623  27.019   8.412
  104POPC   C3A 4973  20.831  26.940   8.031
  104POPC   C4A 4974  20.670  26.896   7.642
  104POPC   C1B 4975  20.336  26.622   8.760
  104POPC   C2B 4976  20.161  26.810   8.423
  104POPC   C3B 4977  20.319  26.783   8.007
  104POPC   C4B 4978  20.230  26.574   7.614
  105POPC   NC3 4979   2.075  34.086   9.616
  105POPC   PO4 4980   1.693  33.519   9.662
  105POPC   GL1 4981   1.875  33.733   9.272
  105POPC   GL2 4982   2.195  33.585   9.179
  105POPC   C1A 4983   1.982  33.902   8.828
  105POPC   D2A 4984   2.212  34.025   8.425
  105POPC   C3A 4985   2.024  33.898   8.014
  105POPC   C4A 4986   1.756  34.151   7.754
  105POPC   C1B 4987   2.328  33.538   8.735
  105POPC   C2B 4988   2.133  33.510   8.333
  105POPC   C3B 4989   2.269  33.454   7.907
  105POPC   C4B 4990   2.432  33.615   7.510
  106POPC   NC3 4991   1.810  23.837   9.624
  106POPC   PO4 4992   2.199  23.351   9.690
  106POPC   GL1 4993   2.141  23.701   9.266
  106POPC   GL2 4994   1.810  23.650   9.087
  106POPC   C1A 4995   2.188  23.744   8.761
  106POPC   D2A 4996   2.359  23.802   8.303
  106POPC   C3A 4997   2.208  23.527   7.956
  106POPC   C4A 4998   2.047  23.600   7.505
  106POPC   C1B 4999   1.673  23.437   8.707
  106POPC   C2B 5000   1.708  23.339   8.278
  106POPC   C3B 5001   1.709  23.570   7.888
  106POPC   C4B 5002   1.544  23.589   7.476
  107POPC   NC3 5003  34.815  30.425   9.488
  107POPC   PO4 5004  34.437  31.004   9.600
  107POPC   GL1 5005  34.496  30.719   9.232
  107POPC   GL2 5006  34.814  30.850   9.134
  107POPC   C1A 5007  34.646  30.524   8.809
  107POPC   D2A 5008  34.946  30.584   8.471
  107POPC   C3A 5009  34.714  30.422   8.123
  107POPC   C4A 5010  34.349  30.562   7.859
  107POPC   C1B 5011  34.523  31.036   8.837
  107POPC   C2B 5012  34.578  30.968   8.403
  107POPC   C3B 5013  34.722  30.920   7.988
  107POPC   C4B 5014  34.613  30.970   7.570
  108POPC   NC3 5015  23.282   7.105   9.541
  108POPC   PO4 5016  23.857   7.543   9.403
  108POPC   GL1 5017  23.548   7.327   9.144
  108POPC   GL2 5018  23.648   6.958   9.153
  108POPC   C1A 5019  23.481   7.513   8.721
  108POPC   D2A 5020  23.829   7.550   8.411
  108POPC   C3A 5021  23.647   7.504   7.988
  108POPC   C4A 5022  23.952   7.553   7.636
  108POPC   C1B 5023  23.791   7.110   8.747
  108POPC   C2B 5024  23.567   7.125   8.367
  108POPC   C3B 5025  23.666   6.985   7.982
  108POPC   C4B 5026  23.630   7.166   7.592
  109POPC   NC3 5027  14.126  36.138   9.505
  109POPC   PO4 5028  14.710  35.828   9.706
  109POPC   GL1 5029  14.687  35.970   9.259
  109POPC   GL2 5030  14.498  36.243   9.180
  109POPC   C1A 5031  14.530  35.927   8.804
  109POPC   D2A 5032  14.617  35.744   8.391
  109POPC   C3A 5033  14.468  35.985   8.052
  109POPC   C4A 5034  14.113  35.988   7.812
  109POPC   C1B 5035  14.220  36.325   8.820
  109POPC   C2B 5036  14.063  36.221   8.412
  109POPC   C3B 5037  14.197  36.431   8.057
  109POPC   C4B 5038  14.456  36.398   7.703
  110POPC   NC3 5039  16.881  15.165   9.620
  110POPC   PO4 5040  16.718  15.874   9.719
  110POPC   GL1 5041  16.773  15.582   9.283
  110POPC   GL2 5042  16.746  15.183   9.138
  110POPC   C1A 5043  16.676  15.542   8.813
  110POPC   D2A 5044  16.861  15.252   8.507
  110POPC   C3A 5045  16.733  15.399   8.080
  110POPC   C4A 5046  16.722  15.417   7.626
  110POPC   C1B 5047  16.441  15.063   8.782
  110POPC   C2B 5048  16.440  15.014   8.333
  110POPC   C3B 5049  16.761  14.866   8.044
  110POPC   C4B 5050  16.698  14.880   7.603
  111POPC   NC3 5051   4.210   6.090   9.893
  111POPC   PO4 5052   4.533   5.615   9.470
  111POPC   GL1 5053   4.339   5.812   9.132
  111POPC   GL2 5054   4.482   6.114   9.169
  111POPC   C1A 5055   4.133   5.941   8.734
  111POPC   D2A 5056   4.006   5.714   8.356
  111POPC   C3A 5057   4.100   5.944   8.000
  111POPC   C4A 5058   4.109   6.053   7.575
  111POPC   C1B 5059   4.632   6.069   8.755
  111POPC   C2B 5060   4.498   5.929   8.340
  111POPC   C3B 5061   4.567   6.076   7.906
  111POPC   C4B 5062   4.556   6.242   7.471
  112POPC   NC3 5063   1.358  27.083   9.338
  112POPC   PO4 5064   0.985  26.506   9.504
  112POPC   GL1 5065   1.026  26.713   9.118
  112POPC   GL2 5066   1.375  26.659   8.996
  112POPC   C1A 5067   0.993  26.834   8.701
  112POPC   D2A 5068   1.321  26.849   8.439
  112POPC   C3A 5069   1.214  26.751   8.061
  112POPC   C4A 5070   1.270  26.938   7.709
  112POPC   C1B 5071   1.552  26.441   8.613
  112POPC   C2B 5072   1.714  26.525   8.202
  112POPC   C3B 5073   1.555  26.497   7.769
  112POPC   C4B 5074   1.354  26.551   7.343
  113POPC   NC3 5075  10.049   4.792   9.348
  113POPC   PO4 5076   9.442   5.102   9.454
  113POPC   GL1 5077   9.547   5.328   9.130
  113POPC   GL2 5078   9.875   5.237   9.120
  113POPC   C1A 5079   9.511   5.231   8.708
  113POPC   D2A 5080   9.548   5.456   8.368
  113POPC   C3A 5081   9.457   5.273   7.994
  113POPC   C4A 5082   9.602   5.179   7.608
  113POPC   C1B 5083  10.030   5.145   8.743
  113POPC   C2B 5084  10.047   5.352   8.373
  113POPC   C3B 5085   9.979   5.171   7.993
  113POPC   C4B 5086   9.974   4.835   7.727
  114POPC   NC3 5087  43.894   7.827   9.617
  114POPC   PO4 5088  44.371   7.278   9.670
  114POPC   GL1 5089  44.047   7.337   9.334
  114POPC   GL2 5090  44.037   7.665   9.153
  114POPC   C1A 5091  43.944   7.250   8.866
  114POPC   D2A 5092  43.860   7.505   8.459
  114POPC   C3A 5093  43.882   7.350   8.077
  114POPC   C4A 5094  43.632   7.299   7.701
  114POPC   C1B 5095  44.245   7.656   8.754
  114POPC   C2B 5096  44.315   7.767   8.318
  114POPC   C3B 5097  44.341   7.550   7.952
  114POPC   C4B 5098  44.032   7.619   7.671
  115POPC   NC3 5099   7.149  44.973   9.375
  115POPC   PO4 5100   7.421   0.517   9.654
  115POPC   GL1 5101   7.341   0.410   9.214
  115POPC   GL2 5102   7.581   0.145   9.133
  115POPC   C1A 5103   7.274   0.253   8.759
  115POPC   D2A 5104   7.197   0.421   8.345
  115POPC   C3A 5105   7.338   0.244   7.979
  115POPC   C4A 5106   7.212   0.516   7.678
  115POPC   C1B 5107   7.730   0.523   8.902
  115POPC   C2B 5108   7.719   0.521   8.458
  115POPC   C3B 5109   7.603   0.681   8.063
  115POPC   C4B 5110   7.767   0.599   7.659
  116POPC   NC3 5111  25.739  26.632   9.474
  116POPC   PO4 5112  26.320  27.058   9.481
  116POPC   GL1 5113  26.202  26.989   9.074
  116POPC   GL2 5114  26.140  26.658   9.097
  116POPC   C1A 5115  26.148  26.898   8.611
  116POPC   D2A 5116  26.289  26.762   8.198
  116POPC   C3A 5117  26.171  27.022   7.847
  116POPC   C4A 5118  25.847  26.955   7.529
  116POPC   C1B 5119  25.796  26.588   8.808
  116POPC   C2B 5120  25.899  26.480   8.381
  116POPC   C3B 5121  25.855  26.607   7.931
  116POPC   C4B 5122  25.945  26.457   7.466
  117POPC   NC3 5123  14.036   8.327   9.512
  117POPC   PO4 5124  13.282   8.445   9.735
  117POPC   GL1 5125  13.583   8.172   9.331
  117POPC   GL2 5126  13.852   8.245   9.064
  117POPC   C1A 5127  13.489   8.018   8.834
  117POPC   D2A 5128  13.297   8.215   8.472
  117POPC   C3A 5129  13.440   8.138   8.027
  117POPC   C4A 5130  13.439   8.252   7.573
  117POPC   C1B 5131  13.986   8.121   8.647
  117POPC   C2B 5132  13.936   8.246   8.195
  117POPC   C3B 5133  13.842   8.495   7.807
  117POPC   C4B 5134  13.988   8.393   7.364
  118POPC   NC3 5135  39.371  22.044   9.466
  118POPC   PO4 5136  38.852  22.545   9.540
  118POPC   GL1 5137  38.925  22.397   9.126
  118POPC   GL2 5138  39.279  22.432   9.155
  118POPC   C1A 5139  39.109  22.292   8.704
  118POPC   D2A 5140  38.971  22.245   8.297
  118POPC   C3A 5141  39.087  21.955   7.964
  118POPC   C4A 5142  38.970  22.033   7.517
  118POPC   C1B 5143  39.334  22.737   8.818
  118POPC   C2B 5144  39.113  22.758   8.417
  118POPC   C3B 5145  39.031  22.629   7.982
  118POPC   C4B 5146  39.271  22.381   7.754
  119POPC   NC3 5147  15.765  40.875   9.831
  119POPC   PO4 5148  16.193  40.616   9.444
  119POPC   GL1 5149  15.932  40.847   9.176
  119POPC   GL2 5150  15.612  40.945   9.331
  119POPC   C1A 5151  15.984  40.875   8.732
  119POPC   D2A 5152  15.919  40.771   8.299
  119POPC   C3A 5153  16.251  40.910   8.032
  119POPC   C4A 5154  16.338  40.768   7.657
  119POPC   C1B 5155  15.594  41.121   8.905
  119POPC   C2B 5156  15.644  41.198   8.483
  119POPC   C3B 5157  15.668  41.165   8.044
  119POPC   C4B 5158  15.831  40.888   7.744
  120POPC   NC3 5159   0.328  13.358   9.534
  120POPC   PO4 5160   0.842  13.713   9.435
  120POPC   GL1 5161   0.613  13.507   9.145
  120POPC   GL2 5162   0.339  13.757   9.183
  120POPC   C1A 5163   0.344  13.407   8.797
  120POPC   D2A 5164   0.267  13.571   8.382
  120POPC   C3A 5165   0.525  13.475   8.023
  120POPC   C4A 5166   0.235  13.483   7.698
  120POPC   C1B 5167   0.269  13.929   8.772
  120POPC   C2B 5168   0.255  14.162   8.392
  120POPC   C3B 5169   0.233  13.933   7.983
  120POPC   C4B 5170   0.345  13.933   7.488
  121POPC   NC3 5171   5.199   8.398   9.550
  121POPC   PO4 5172   4.931   7.911   9.184
  121POPC   GL1 5173   5.153   8.202   9.084
  121POPC   GL2 5174   4.890   8.446   9.080
  121POPC   C1A 5175   5.423   8.202   8.762
  121POPC   D2A 5176   5.410   8.280   8.313
  121POPC   C3A 5177   5.155   8.087   7.996
  121POPC   C4A 5178   5.179   8.295   7.601
  121POPC   C1B 5179   4.916   8.327   8.630
  121POPC   C2B 5180   4.862   8.438   8.189
  121POPC   C3B 5181   4.715   8.231   7.793
  121POPC   C4B 5182   4.686   8.393   7.391
  122POPC   NC3 5183  41.881  36.508   9.400
  122POPC   PO4 5184  42.335  37.098   9.499
  122POPC   GL1 5185  42.441  36.864   9.161
  122POPC   GL2 5186  42.663  37.078   9.022
  122POPC   C1A 5187  42.231  36.748   8.784
  122POPC   D2A 5188  41.996  36.537   8.458
  122POPC   C3A 5189  42.128  36.621   8.048
  122POPC   C4A 5190  42.055  36.725   7.623
  122POPC   C1B 5191  42.458  37.255   8.675
  122POPC   C2B 5192  42.413  37.511   8.331
  122POPC   C3B 5193  42.192  37.439   7.992
  122POPC   C4B 5194  42.265  37.225   7.606
  123POPC   NC3 5195  38.771  43.618   9.394
  123POPC   PO4 5196  38.386  44.144   9.586
  123POPC   GL1 5197  38.417  43.967   9.184
  123POPC   GL2 5198  38.283  43.624   9.224
  123POPC   C1A 5199  38.742  43.941   8.836
  123POPC   D2A 5200  38.640  44.035   8.441
  123POPC   C3A 5201  38.749  43.863   8.059
  123POPC   C4A 5202  38.472  43.987   7.733
  123POPC   C1B 5203  38.294  43.703   8.761
  123POPC   C2B 5204  38.318  43.656   8.324
  123POPC   C3B 5205  38.104  43.715   7.961
  123POPC   C4B 5206  38.021  43.522   7.567
  124POPC   NC3 5207   9.887   6.408   9.461
  124POPC   PO4 5208  10.034   6.999   9.647
  124POPC   GL1 5209   9.773   6.867   9.208
  124POPC   GL2 5210   9.518   6.538   9.154
  124POPC   C1A 5211   9.810   6.731   8.725
  124POPC   D2A 5212   9.830   6.816   8.244
  124POPC   C3A 5213   9.832   6.569   7.839
  124POPC   C4A 5214  10.150   6.436   7.504
  124POPC   C1B 5215   9.316   6.657   8.798
  124POPC   C2B 5216   9.369   6.823   8.446
  124POPC   C3B 5217   9.363   6.660   8.066
  124POPC   C4B 5218   9.384   6.848   7.709
  125POPC   NC3 5219  20.480   4.517   9.614
  125POPC   PO4 5220  20.742   4.046   9.887
  125POPC   GL1 5221  20.735   4.118   9.348
  125POPC   GL2 5222  20.732   4.436   9.196
  125POPC   C1A 5223  20.736   4.052   8.854
  125POPC   D2A 5224  20.672   3.934   8.370
  125POPC   C3A 5225  20.289   4.032   8.055
  125POPC   C4A 5226  20.327   4.344   7.697
  125POPC   C1B 5227  20.873   4.587   8.807
  125POPC   C2B 5228  20.930   4.505   8.398
  125POPC   C3B 5229  20.664   4.367   8.092
  125POPC   C4B 5230  20.751   4.019   7.784
  126POPC   NC3 5231  34.752  29.655   9.490
  126POPC   PO4 5232  34.409  30.191   9.411
  126POPC   GL1 5233  34.527  30.071   9.010
  126POPC   GL2 5234  34.657  29.748   8.992
  126POPC   C1A 5235  34.511  29.997   8.560
  126POPC   D2A 5236  34.432  29.582   8.326
  126POPC   C3A 5237  34.336  29.660   7.922
  126POPC   C4A 5238  34.500  30.049   7.837
  126POPC   C1B 5239  34.857  29.627   8.600
  126POPC   C2B 5240  34.899  29.879   8.232
  126POPC   C3B 5241  34.890  29.695   7.842
  126POPC   C4B 5242  34.943  29.795   7.419
  127POPC   NC3 5243  39.182   7.870   9.534
  127POPC   PO4 5244  39.585   8.391   9.638
  127POPC   GL1 5245  39.472   8.241   9.219
  127POPC   GL2 5246  39.413   7.889   9.043
  127POPC   C1A 5247  39.346   8.358   8.802
  127POPC   D2A 5248  39.342   8.207   8.372
  127POPC   C3A 5249  39.110   8.459   8.075
  127POPC   C4A 5250  39.006   8.367   7.649
  127POPC   C1B 5251  39.090   7.671   8.812
  127POPC   C2B 5252  38.916   7.725   8.395
  127POPC   C3B 5253  38.981   7.969   8.039
  127POPC   C4B 5254  39.370   8.077   7.865
  128POPC   NC3 5255  11.779   6.269   9.361
  128POPC   PO4 5256  12.065   5.644   9.512
  128POPC   GL1 5257  11.914   5.812   9.128
  128POPC   GL2 5258  11.808   6.109   8.895
  128POPC   C1A 5259  12.131   5.771   8.754
  128POPC   D2A 5260  12.136   5.961   8.356
  128POPC   C3A 5261  12.247   5.688   7.995
  128POPC   C4A 5262  12.096   5.550   7.591
  128POPC   C1B 5263  12.248   6.276   8.766
  128POPC   C2B 5264  12.479   6.346   8.353
  128POPC   C3B 5265  12.329   6.185   7.938
  128POPC   C4B 5266  11.875   6.042   7.918
  129POPC   NC3 5267  34.045  12.139   9.409
  129POPC   PO4 5268  33.410  12.128   9.594
  129POPC   GL1 5269  33.588  11.952   9.169
  129POPC   GL2 5270  33.821  11.670   9.175
  129POPC   C1A 5271  33.910  12.013   8.771
  129POPC   D2A 5272  34.107  12.063   8.333
  129POPC   C3A 5273  33.835  12.205   8.005
  129POPC   C4A 5274  33.439  12.116   7.808
  129POPC   C1B 5275  33.585  11.637   8.737
  129POPC   C2B 5276  33.581  11.804   8.246
  129POPC   C3B 5277  33.744  11.727   7.784
  129POPC   C4B 5278  33.510  11.823   7.365
  130POPC   NC3 5279  16.615   8.777   9.488
  130POPC   PO4 5280  17.118   9.253   9.478
  130POPC   GL1 5281  16.879   9.057   9.154
  130POPC   GL2 5282  17.047   8.757   9.135
  130POPC   C1A 5283  16.568   9.233   8.803
  130POPC   D2A 5284  16.360   9.353   8.379
  130POPC   C3A 5285  16.450   9.150   7.982
  130POPC   C4A 5286  16.604   8.773   7.754
  130POPC   C1B 5287  16.753   8.748   8.772
  130POPC   C2B 5288  16.700   8.927   8.366
  130POPC   C3B 5289  16.953   9.075   8.005
  130POPC   C4B 5290  17.092   8.906   7.629
  131POPC   NC3 5291   9.989  20.094   9.352
  131POPC   PO4 5292   9.472  19.663   9.348
  131POPC   GL1 5293   9.623  19.857   8.969
  131POPC   GL2 5294   9.621  20.215   8.991
  131POPC   C1A 5295   9.871  19.778   8.603
  131POPC   D2A 5296   9.916  19.587   8.233
  131POPC   C3A 5297   9.952  19.787   7.879
  131POPC   C4A 5298   9.690  20.099   8.052
  131POPC   C1B 5299  10.003  20.254   8.694
  131POPC   C2B 5300  10.151  20.105   8.258
  131POPC   C3B 5301  10.088  20.286   7.830
  131POPC   C4B 5302   9.837  20.138   7.472
  132POPC   NC3 5303  41.913  29.819   9.722
  132POPC   PO4 5304  42.448  30.279   9.706
  132POPC   GL1 5305  42.356  30.051   9.290
  132POPC   GL2 5306  41.989  29.957   9.194
  132POPC   C1A 5307  42.421  30.111   8.812
  132POPC   D2A 5308  42.196  30.200   8.404
  132POPC   C3A 5309  42.369  30.143   7.982
  132POPC   C4A 5310  42.736  29.991   7.745
  132POPC   C1B 5311  42.045  29.787   8.733
  132POPC   C2B 5312  42.403  29.730   8.435
  132POPC   C3B 5313  42.435  29.595   8.012
  132POPC   C4B 5314  42.011  29.443   7.918
  133POPC   NC3 5315   7.117   2.573   9.441
  133POPC   PO4 5316   7.626   3.046   9.423
  133POPC   GL1 5317   7.551   2.668   9.167
  133POPC   GL2 5318   7.267   2.684   8.970
  133POPC   C1A 5319   7.657   2.444   8.808
  133POPC   D2A 5320   7.452   2.656   8.448
  133POPC   C3A 5321   7.680   2.689   8.052
  133POPC   C4A 5322   7.609   2.807   7.619
  133POPC   C1B 5323   7.301   3.058   8.804
  133POPC   C2B 5324   7.125   3.186   8.440
  133POPC   C3B 5325   7.181   2.927   8.086
  133POPC   C4B 5326   7.126   2.994   7.628
  134POPC   NC3 5327  39.572  44.215   9.410
  134POPC   PO4 5328  40.110  43.799   9.507
  134POPC   GL1 5329  40.088  44.033   9.114
  134POPC   GL2 5330  40.420  44.162   8.987
  134POPC   C1A 5331  39.808  43.908   8.748
  134POPC   D2A 5332  39.657  43.883   8.311
  134POPC   C3A 5333  39.848  43.648   7.976
  134POPC   C4A 5334  40.036  43.716   7.553
  134POPC   C1B 5335  40.150  44.273   8.638
  134POPC   C2B 5336  40.007  44.282   8.212
  134POPC   C3B 5337  39.885  44.134   7.814
  134POPC   C4B 5338  40.080  44.218   7.404
  135POPC   NC3 5339   5.851  12.165   9.989
  135POPC   PO4 5340   5.643  11.760   9.483
  135POPC   GL1 5341   5.752  12.066   9.145
  135POPC   GL2 5342   6.122  12.101   9.152
  135POPC   C1A 5343   5.540  12.117   8.739
  135POPC   D2A 5344   5.617  12.321   8.325
  135POPC   C3A 5345   5.489  12.142   7.944
  135POPC   C4A 5346   5.607  12.009   7.536
  135POPC   C1B 5347   6.029  12.289   8.756
  135POPC   C2B 5348   6.177  12.439   8.361
  135POPC   C3B 5349   6.035  12.342   7.977
  135POPC   C4B 5350   5.973  11.934   7.879
  136POPC   NC3 5351  32.978   8.907   9.615
  136POPC   PO4 5352  33.406   9.286   9.394
  136POPC   GL1 5353  33.188   9.015   9.149
  136POPC   GL2 5354  32.824   9.054   9.138
  136POPC   C1A 5355  33.177   8.984   8.735
  136POPC   D2A 5356  33.033   9.018   8.348
  136POPC   C3A 5357  33.188   9.274   8.027
  136POPC   C4A 5358  33.261   9.095   7.615
  136POPC   C1B 5359  32.642   9.072   8.716
  136POPC   C2B 5360  32.602   9.260   8.272
  136POPC   C3B 5361  32.776   8.997   7.901
  136POPC   C4B 5362  32.624   8.749   7.556
  137POPC   NC3 5363  23.108   6.423   9.545
  137POPC   PO4 5364  22.501   6.640   9.589
  137POPC   GL1 5365  22.691   6.651   9.190
  137POPC   GL2 5366  22.767   6.326   9.149
  137POPC   C1A 5367  22.792   6.841   8.773
  137POPC   D2A 5368  22.669   6.783   8.347
  137POPC   C3A 5369  22.689   7.060   7.984
  137POPC   C4A 5370  22.755   6.869   7.576
  137POPC   C1B 5371  23.013   6.375   8.788
  137POPC   C2B 5372  23.148   6.628   8.424
  137POPC   C3B 5373  23.033   6.639   7.998
  137POPC   C4B 5374  23.280   6.771   7.652
  138POPC   NC3 5375  25.802  36.635   9.400
  138POPC   PO4 5376  25.870  35.925   9.592
  138POPC   GL1 5377  26.089  36.100   9.206
  138POPC   GL2 5378  26.287  36.441   9.215
  138POPC   C1A 5379  26.158  35.913   8.783
  138POPC   D2A 5380  26.229  36.114   8.362
  138POPC   C3A 5381  25.950  36.008   8.008
  138POPC   C4A 5382  26.065  35.710   7.738
  138POPC   C1B 5383  26.192  36.675   8.824
  138POPC   C2B 5384  25.943  36.563   8.464
  138POPC   C3B 5385  26.107  36.489   8.045
  138POPC   C4B 5386  26.219  36.359   7.614
  139POPC   NC3 5387  10.023  38.745   9.471
  139POPC   PO4 5388   9.499  39.190   9.357
  139POPC   GL1 5389   9.745  39.130   9.017
  139POPC   GL2 5390  10.092  39.122   9.133
  139POPC   C1A 5391   9.729  39.275   8.599
  139POPC   D2A 5392   9.728  39.627   8.324
  139POPC   C3A 5393   9.793  39.533   7.873
  139POPC   C4A 5394   9.582  39.592   7.413
  139POPC   C1B 5395  10.098  38.846   8.792
  139POPC   C2B 5396   9.935  38.856   8.423
  139POPC   C3B 5397   9.744  39.047   8.109
  139POPC   C4B 5398   9.895  39.060   7.738
  140POPC   NC3 5399  10.538   7.123   9.706
  140POPC   PO4 5400  10.771   6.589   9.572
  140POPC   GL1 5401  10.583   6.670   9.186
  140POPC   GL2 5402  10.377   6.955   9.258
  140POPC   C1A 5403  10.297   6.517   8.846
  140POPC   D2A 5404  10.094   6.399   8.434
  140POPC   C3A 5405  10.279   6.588   8.081
  140POPC   C4A 5406  10.569   6.561   7.764
  140POPC   C1B 5407  10.184   7.019   8.897
  140POPC   C2B 5408  10.283   6.924   8.480
  140POPC   C3B 5409  10.201   7.107   8.066
  140POPC   C4B 5410  10.191   6.930   7.694
  141POPC   NC3 5411  43.355   4.821   9.452
  141POPC   PO4 5412  43.078   4.159   9.455
  141POPC   GL1 5413  43.191   4.292   9.084
  141POPC   GL2 5414  43.499   4.461   9.086
  141POPC   C1A 5415  43.123   4.612   8.768
  141POPC   D2A 5416  42.887   4.620   8.386
  141POPC   C3A 5417  43.045   4.471   7.991
  141POPC   C4A 5418  43.206   4.603   7.571
  141POPC   C1B 5419  43.501   4.255   8.677
  141POPC   C2B 5420  43.360   4.158   8.257
  141POPC   C3B 5421  43.546   4.259   7.830
  141POPC   C4B 5422  43.474   4.170   7.378
  142POPC   NC3 5423  35.228  25.844   9.597
  142POPC   PO4 5424  35.411  26.491   9.534
  142POPC   GL1 5425  35.245  26.214   9.203
  142POPC   GL2 5426  35.073  25.853   9.128
  142POPC   C1A 5427  35.360  26.171   8.768
  142POPC   D2A 5428  35.201  26.050   8.371
  142POPC   C3A 5429  35.488  26.050   8.010
  142POPC   C4A 5430  35.697  26.397   7.799
  142POPC   C1B 5431  35.236  25.664   8.750
  142POPC   C2B 5432  35.356  25.549   8.319
  142POPC   C3B 5433  35.203  25.640   7.912
  142POPC   C4B 5434  35.255  25.768   7.506
  143POPC   NC3 5435  35.409  40.341   9.427
  143POPC   PO4 5436  34.979  40.830   9.370
  143POPC   GL1 5437  35.285  40.723   9.077
  143POPC   GL2 5438  35.596  40.792   9.249
  143POPC   C1A 5439  35.309  40.669   8.643
  143POPC   D2A 5440  35.422  40.452   8.288
  143POPC   C3A 5441  35.374  40.813   8.008
  143POPC   C4A 5442  35.130  40.958   7.634
  143POPC   C1B 5443  35.745  40.602   8.869
  143POPC   C2B 5444  35.857  40.719   8.439
  143POPC   C3B 5445  35.846  40.552   8.024
  143POPC   C4B 5446  35.542  40.402   7.769
  144POPC   NC3 5447  38.260  27.303   9.548
  144POPC   PO4 5448  38.732  27.747   9.649
  144POPC   GL1 5449  38.526  27.620   9.225
  144POPC   GL2 5450  38.169  27.735   9.243
  144POPC   C1A 5451  38.642  27.621   8.739
  144POPC   D2A 5452  38.772  27.382   8.358
  144POPC   C3A 5453  38.502  27.473   8.038
  144POPC   C4A 5454  38.405  27.876   7.806
  144POPC   C1B 5455  38.161  27.501   8.857
  144POPC   C2B 5456  38.140  27.403   8.430
  144POPC   C3B 5457  38.018  27.586   8.038
  144POPC   C4B 5458  38.150  27.450   7.610
  145POPC   NC3 5459  22.514  19.934   9.409
  145POPC   PO4 5460  23.195  19.684   9.440
  145POPC   GL1 5461  22.896  19.583   9.136
  145POPC   GL2 5462  22.867  19.923   9.017
  145POPC   C1A 5463  22.614  19.549   8.770
  145POPC   D2A 5464  22.552  19.618   8.318
  145POPC   C3A 5465  22.743  19.371   7.971
  145POPC   C4A 5466  22.952  19.573   7.613
  145POPC   C1B 5467  22.939  19.985   8.568
  145POPC   C2B 5468  22.734  20.204   8.202
  145POPC   C3B 5469  22.796  20.138   7.749
  145POPC   C4B 5470  23.190  20.031   7.561
  146POPC   NC3 5471  36.159  22.024   9.773
  146POPC   PO4 5472  36.519  21.828   9.216
  146POPC   GL1 5473  36.267  22.091   8.968
  146POPC   GL2 5474  36.104  22.316   9.226
  146POPC   C1A 5475  36.022  21.852   8.664
  146POPC   D2A 5476  35.922  21.689   8.291
  146POPC   C3A 5477  36.142  21.975   8.068
  146POPC   C4A 5478  36.129  22.159   7.695
  146POPC   C1B 5479  35.839  22.313   8.808
  146POPC   C2B 5480  35.746  22.181   8.374
  146POPC   C3B 5481  35.723  22.293   7.948
  146POPC   C4B 5482  35.841  22.552   7.573
  147POPC   NC3 5483  24.498  25.425   9.482
  147POPC   PO4 5484  24.899  24.863   9.520
  147POPC   GL1 5485  24.505  24.990   9.200
  147POPC   GL2 5486  24.357  25.345   9.014
  147POPC   C1A 5487  24.566  24.994   8.743
  147POPC   D2A 5488  24.547  25.352   8.439
  147POPC   C3A 5489  24.498  25.164   8.073
  147POPC   C4A 5490  24.482  25.344   7.708
  147POPC   C1B 5491  24.096  25.288   8.635
  147POPC   C2B 5492  24.081  25.410   8.196
  147POPC   C3B 5493  24.012  25.515   7.757
  147POPC   C4B 5494  24.143  25.453   7.322
  148POPC   NC3 5495  23.914   1.374   9.465
  148POPC   PO4 5496  24.572   1.409   9.538
  148POPC   GL1 5497  24.642   1.230   9.161
  148POPC   GL2 5498  24.314   1.108   9.155
  148POPC   C1A 5499  24.780   1.366   8.797
  148POPC   D2A 5500  24.644   1.570   8.456
  148POPC   C3A 5501  24.779   1.383   8.095
  148POPC   C4A 5502  24.636   1.227   7.696
  148POPC   C1B 5503  24.253   1.295   8.732
  148POPC   C2B 5504  24.127   1.442   8.314
  148POPC   C3B 5505  24.191   1.468   7.851
  148POPC   C4B 5506  24.077   1.604   7.444
  149POPC   NC3 5507  10.557  40.200   9.541
  149POPC   PO4 5508  10.318  39.520   9.492
  149POPC   GL1 5509  10.344  39.873   9.201
  149POPC   GL2 5510  10.695  39.894   9.159
  149POPC   C1A 5511  10.429  39.863   8.738
  149POPC   D2A 5512  10.180  39.818   8.409
  149POPC   C3A 5513  10.356  39.909   8.047
  149POPC   C4A 5514  10.714  39.754   7.844
  149POPC   C1B 5515  10.898  40.130   8.826
  149POPC   C2B 5516  10.812  40.008   8.372
  149POPC   C3B 5517  10.719  40.276   8.007
  149POPC   C4B 5518  10.624  40.256   7.585
  150POPC   NC3 5519  36.876  37.820   9.698
  150POPC   PO4 5520  36.576  37.330   9.310
  150POPC   GL1 5521  36.855  37.595   9.145
  150POPC   GL2 5522  36.906  37.955   9.211
  150POPC   C1A 5523  36.898  37.704   8.736
  150POPC   D2A 5524  36.901  37.950   8.379
  150POPC   C3A 5525  37.029  37.743   8.061
  150POPC   C4A 5526  36.825  37.605   7.709
  150POPC   C1B 5527  37.225  38.056   8.887
  150POPC   C2B 5528  37.382  37.911   8.476
  150POPC   C3B 5529  37.446  38.060   8.066
  150POPC   C4B 5530  37.229  38.029   7.689
  151POPC   NC3 5531  14.892  17.075   9.539
  151POPC   PO4 5532  15.462  16.713   9.468
  151POPC   GL1 5533  15.190  16.783   9.119
  151POPC   GL2 5534  14.862  16.673   9.188
  151POPC   C1A 5535  15.037  16.615   8.691
  151POPC   D2A 5536  14.980  16.594   8.223
  151POPC   C3A 5537  15.315  16.681   7.951
  151POPC   C4A 5538  15.389  16.779   7.534
  151POPC   C1B 5539  14.826  17.055   8.891
  151POPC   C2B 5540  14.989  17.215   8.514
  151POPC   C3B 5541  15.063  17.090   8.128
  151POPC   C4B 5542  14.993  17.061   7.714
  152POPC   NC3 5543  26.104  15.792   9.521
  152POPC   PO4 5544  26.146  16.426   9.274
  152POPC   GL1 5545  25.922  16.050   9.053
  152POPC   GL2 5546  25.685  15.771   9.196
  152POPC   C1A 5547  25.962  15.829   8.631
  152POPC   D2A 5548  26.241  15.623   8.297
  152POPC   C3A 5549  26.253  15.905   7.929
  152POPC   C4A 5550  25.926  16.156   7.699
  152POPC   C1B 5551  25.608  15.485   8.828
  152POPC   C2B 5552  25.557  15.593   8.391
  152POPC   C3B 5553  25.780  15.798   8.079
  152POPC   C4B 5554  25.920  15.625   7.669
  153POPC   NC3 5555  25.257  38.132   9.836
  153POPC   PO4 5556  25.369  38.610   9.389
  153POPC   GL1 5557  25.391  38.537   8.995
  153POPC   GL2 5558  25.558  38.251   8.983
  153POPC   C1A 5559  25.325  38.576   8.587
  153POPC   D2A 5560  25.447  38.571   8.191
  153POPC   C3A 5561  25.097  38.559   7.993
  153POPC   C4A 5562  24.919  38.763   7.667
  153POPC   C1B 5563  25.640  38.172   8.560
  153POPC   C2B 5564  25.668  38.038   8.146
  153POPC   C3B 5565  25.516  38.245   7.795
  153POPC   C4B 5566  25.415  38.638   7.605
  154POPC   NC3 5567  24.378  18.040   9.303
  154POPC   PO4 5568  24.598  18.636   9.445
  154POPC   GL1 5569  24.597  18.462   9.060
  154POPC   GL2 5570  24.246  18.464   9.031
  154POPC   C1A 5571  24.706  18.207   8.706
  154POPC   D2A 5572  24.873  18.262   8.296
  154POPC   C3A 5573  24.675  18.092   7.889
  154POPC   C4A 5574  24.757  18.127   7.384
  154POPC   C1B 5575  24.103  18.438   8.647
  154POPC   C2B 5576  24.385  18.347   8.323
  154POPC   C3B 5577  24.551  18.596   8.028
  154POPC   C4B 5578  24.107  18.549   7.890
  155POPC   NC3 5579  24.981  24.378   9.484
  155POPC   PO4 5580  25.569  24.683   9.629
  155POPC   GL1 5581  25.406  24.572   9.230
  155POPC   GL2 5582  25.114  24.735   9.078
  155POPC   C1A 5583  25.538  24.610   8.811
  155POPC   D2A 5584  25.483  24.372   8.439
  155POPC   C3A 5585  25.516  24.568   8.050
  155POPC   C4A 5586  25.447  24.429   7.643
  155POPC   C1B 5587  25.064  24.342   8.831
  155POPC   C2B 5588  25.004  24.158   8.417
  155POPC   C3B 5589  25.038  24.361   8.017
  155POPC   C4B 5590  25.050  24.722   7.739
  156POPC   NC3 5591  30.258  37.148   9.558
  156POPC   PO4 5592  29.797  36.694   9.537
  156POPC   GL1 5593  30.106  36.725   9.259
  156POPC   GL2 5594  30.020  37.017   9.109
  156POPC   C1A 5595  30.117  36.613   8.820
  156POPC   D2A 5596  30.150  36.796   8.426
  156POPC   C3A 5597  29.983  36.652   8.057
  156POPC   C4A 5598  30.160  36.586   7.678
  156POPC   C1B 5599  29.903  37.158   8.678
  156POPC   C2B 5600  29.910  37.157   8.193
  156POPC   C3B 5601  29.969  37.121   7.761
  156POPC   C4B 5602  30.150  37.402   7.447
  157POPC   NC3 5603  18.016  16.018   9.605
  157POPC   PO4 5604  18.592  16.269   9.509
  157POPC   GL1 5605  18.352  16.030   9.175
  157POPC   GL2 5606  18.014  16.044   9.102
  157POPC   C1A 5607  18.447  16.079   8.734
  157POPC   D2A 5608  18.761  16.095   8.404
  157POPC   C3A 5609  18.545  16.225   8.033
  157POPC   C4A 5610  18.520  16.068   7.609
  157POPC   C1B 5611  17.916  16.180   8.705
  157POPC   C2B 5612  18.130  16.263   8.335
  157POPC   C3B 5613  18.054  16.187   7.895
  157POPC   C4B 5614  18.100  15.770   7.776
  158POPC   NC3 5615  16.686   4.652   9.499
  158POPC   PO4 5616  17.152   4.190   9.339
  158POPC   GL1 5617  16.849   4.346   9.113
  158POPC   GL2 5618  16.533   4.196   9.227
  158POPC   C1A 5619  16.989   4.337   8.713
  158POPC   D2A 5620  16.950   4.130   8.372
  158POPC   C3A 5621  17.034   4.417   8.065
  158POPC   C4A 5622  17.085   4.380   7.641
  158POPC   C1B 5623  16.532   4.111   8.779
  158POPC   C2B 5624  16.455   4.030   8.351
  158POPC   C3B 5625  16.677   4.061   7.937
  158POPC   C4B 5626  16.587   4.414   7.762
  159POPC   NC3 5627  10.457  18.567   9.782
  159POPC   PO4 5628  10.847  18.124   9.437
  159POPC   GL1 5629  10.611  18.212   9.136
  159POPC   GL2 5630  10.408  18.434   9.283
  159POPC   C1A 5631  10.360  18.156   8.766
  159POPC   D2A 5632  10.057  18.179   8.414
  159POPC   C3A 5633  10.184  18.063   7.995
  159POPC   C4A 5634  10.582  18.152   7.786
  159POPC   C1B 5635  10.426  18.634   8.922
  159POPC   C2B 5636  10.442  18.603   8.474
  159POPC   C3B 5637  10.651  18.653   8.049
  159POPC   C4B 5638  10.620  18.609   7.584
  160POPC   NC3 5639  24.500  37.558   9.717
  160POPC   PO4 5640  24.737  38.010   9.293
  160POPC   GL1 5641  24.365  37.775   9.104
  160POPC   GL2 5642  24.424  37.460   9.210
  160POPC   C1A 5643  24.139  37.628   8.758
  160POPC   D2A 5644  24.300  37.585   8.379
  160POPC   C3A 5645  24.285  37.906   8.096
  160POPC   C4A 5646  24.277  37.786   7.706
  160POPC   C1B 5647  24.642  37.513   8.782
  160POPC   C2B 5648  24.788  37.752   8.444
  160POPC   C3B 5649  24.712  37.635   8.023
  160POPC   C4B 5650  24.760  37.713   7.628
  161POPC   NC3 5651   6.412  18.625   9.801
  161POPC   PO4 5652   6.941  18.806   9.338
  161POPC   GL1 5653   6.802  19.096   8.997
  161POPC   GL2 5654   6.783  19.479   9.062
  161POPC   C1A 5655   6.663  19.009   8.551
  161POPC   D2A 5656   6.421  19.155   8.190
  161POPC   C3A 5657   6.451  18.880   7.888
  161POPC   C4A 5658   6.867  18.858   7.853
  161POPC   C1B 5659   6.900  19.471   8.621
  161POPC   C2B 5660   6.906  19.373   8.163
  161POPC   C3B 5661   6.709  19.324   7.738
  161POPC   C4B 5662   6.525  19.478   7.358
  162POPC   NC3 5663  16.584  28.587   9.556
  162POPC   PO4 5664  16.806  27.968   9.523
  162POPC   GL1 5665  16.750  28.230   9.120
  162POPC   GL2 5666  16.743  28.615   9.072
  162POPC   C1A 5667  16.635  28.334   8.665
  162POPC   D2A 5668  16.877  28.384   8.332
  162POPC   C3A 5669  16.798  28.125   7.986
  162POPC   C4A 5670  16.419  28.078   7.780
  162POPC   C1B 5671  16.919  28.865   8.700
  162POPC   C2B 5672  16.909  28.890   8.230
  162POPC   C3B 5673  16.654  28.640   7.952
  162POPC   C4B 5674  16.554  28.544   7.543
  163POPC   NC3 5675   1.555  28.619   9.404
  163POPC   PO4 5676   2.139  28.351   9.501
  163POPC   GL1 5677   1.959  28.222   9.105
  163POPC   GL2 5678   1.577  28.182   9.127
  163POPC   C1A 5679   2.100  27.990   8.686
  163POPC   D2A 5680   2.421  28.080   8.329
  163POPC   C3A 5681   2.241  28.323   8.008
  163POPC   C4A 5682   1.875  28.172   7.878
  163POPC   C1B 5683   1.704  28.396   8.706
  163POPC   C2B 5684   1.810  28.536   8.269
  163POPC   C3B 5685   1.888  28.701   7.844
  163POPC   C4B 5686   1.960  28.600   7.386
  164POPC   NC3 5687  11.188   6.767   9.629
  164POPC   PO4 5688  11.833   7.068   9.442
  164POPC   GL1 5689  11.536   6.690   9.204
  164POPC   GL2 5690  11.121   6.695   9.138
  164POPC   C1A 5691  11.397   6.441   8.809
  164POPC   D2A 5692  11.341   6.681   8.445
  164POPC   C3A 5693  11.529   6.615   8.071
  164POPC   C4A 5694  11.339   6.624   7.710
  164POPC   C1B 5695  10.885   6.415   8.820
  164POPC   C2B 5696  11.048   6.245   8.442
  164POPC   C3B 5697  10.997   6.441   8.052
  164POPC   C4B 5698  10.964   6.272   7.644
  165POPC   NC3 5699   4.343  44.766   9.591
  165POPC   PO4 5700   4.559  44.171   9.512
  165POPC   GL1 5701   4.289  44.439   9.181
  165POPC   GL2 5702   4.197  44.820   9.111
  165POPC   C1A 5703   4.110  44.477   8.766
  165POPC   D2A 5704   4.378  44.453   8.445
  165POPC   C3A 5705   4.238  44.596   8.070
  165POPC   C4A 5706   4.343  44.416   7.683
  165POPC   C1B 5707   4.526  44.847   8.746
  165POPC   C2B 5708   4.649  44.880   8.279
  165POPC   C3B 5709   4.628  44.819   7.823
  165POPC   C4B 5710   4.287  44.916   7.539
  166POPC   NC3 5711  21.177  17.407   9.742
  166POPC   PO4 5712  20.491  17.477   9.566
  166POPC   GL1 5713  20.469  17.307   9.172
  166POPC   GL2 5714  20.742  17.096   9.124
  166POPC   C1A 5715  20.594  17.513   8.788
  166POPC   D2A 5716  20.333  17.601   8.465
  166POPC   C3A 5717  20.500  17.805   8.172
  166POPC   C4A 5718  20.543  17.775   7.768
  166POPC   C1B 5719  20.568  17.020   8.720
  166POPC   C2B 5720  20.625  17.189   8.320
  166POPC   C3B 5721  20.477  17.285   7.929
  166POPC   C4B 5722  20.716  17.312   7.542
  167POPC   NC3 5723  35.496  31.920   9.482
  167POPC   PO4 5724  35.638  32.565   9.459
  167POPC   GL1 5725  35.465  32.349   9.149
  167POPC   GL2 5726  35.144  32.146   9.162
  167POPC   C1A 5727  35.265  32.461   8.778
  167POPC   D2A 5728  35.426  32.286   8.439
  167POPC   C3A 5729  35.306  32.479   8.100
  167POPC   C4A 5730  35.590  32.482   7.807
  167POPC   C1B 5731  35.424  31.960   8.828
  167POPC   C2B 5732  35.641  31.826   8.428
  167POPC   C3B 5733  35.438  31.963   8.016
  167POPC   C4B 5734  35.235  31.738   7.663
  168POPC   NC3 5735  19.296  34.244   9.628
  168POPC   PO4 5736  19.127  33.573   9.645
  168POPC   GL1 5737  19.307  33.668   9.242
  168POPC   GL2 5738  19.199  33.991   9.200
  168POPC   C1A 5739  19.290  33.708   8.802
  168POPC   D2A 5740  19.316  33.861   8.390
  168POPC   C3A 5741  19.200  33.688   7.944
  168POPC   C4A 5742  19.090  33.690   7.466
  168POPC   C1B 5743  19.151  34.229   8.817
  168POPC   C2B 5744  18.941  34.201   8.448
  168POPC   C3B 5745  19.074  34.198   8.052
  168POPC   C4B 5746  18.941  34.147   7.643
  169POPC   NC3 5747  21.593   9.331   9.647
  169POPC   PO4 5748  21.246   8.829   9.720
  169POPC   GL1 5749  21.097   9.036   9.339
  169POPC   GL2 5750  21.358   8.857   9.158
  169POPC   C1A 5751  21.240   9.303   8.984
  169POPC   D2A 5752  21.371   9.358   8.551
  169POPC   C3A 5753  21.363   9.034   8.225
  169POPC   C4A 5754  21.460   9.140   7.791
  169POPC   C1B 5755  21.022   8.850   8.839
  169POPC   C2B 5756  20.944   8.749   8.417
  169POPC   C3B 5757  21.053   8.680   7.998
  169POPC   C4B 5758  21.104   8.728   7.570
  170POPC   NC3 5759  40.544  15.882   9.588
  170POPC   PO4 5760  41.159  16.188   9.517
  170POPC   GL1 5761  40.771  16.149   9.219
  170POPC   GL2 5762  40.714  15.813   9.127
  170POPC   C1A 5763  40.513  16.133   8.802
  170POPC   D2A 5764  40.618  15.874   8.431
  170POPC   C3A 5765  40.511  16.113   8.078
  170POPC   C4A 5766  40.759  16.283   7.758
  170POPC   C1B 5767  41.010  15.913   8.815
  170POPC   C2B 5768  41.130  15.836   8.404
  170POPC   C3B 5769  40.934  15.773   8.014
  170POPC   C4B 5770  41.178  15.844   7.631
  171POPC   NC3 5771  34.813  25.004   9.444
  171POPC   PO4 5772  34.164  24.992   9.566
  171POPC   GL1 5773  34.416  25.187   9.213
  171POPC   GL2 5774  34.619  25.500   9.241
  171POPC   C1A 5775  34.595  25.129   8.816
  171POPC   D2A 5776  34.539  25.274   8.386
  171POPC   C3A 5777  34.669  25.040   8.011
  171POPC   C4A 5778  34.394  24.788   7.809
  171POPC   C1B 5779  34.713  25.632   8.824
  171POPC   C2B 5780  34.844  25.686   8.399
  171POPC   C3B 5781  34.722  25.544   7.994
  171POPC   C4B 5782  34.841  25.427   7.583
  172POPC   NC3 5783  19.069  24.536   9.472
  172POPC   PO4 5784  18.919  23.984   9.277
  172POPC   GL1 5785  18.952  24.392   8.994
  172POPC   GL2 5786  18.990  24.782   9.029
  172POPC   C1A 5787  19.003  24.463   8.552
  172POPC   D2A 5788  18.721  24.436   8.223
  172POPC   C3A 5789  18.916  24.567   7.858
  172POPC   C4A 5790  18.993  24.224   7.591
  172POPC   C1B 5791  19.340  24.810   8.724
  172POPC   C2B 5792  19.376  24.851   8.266
  172POPC   C3B 5793  19.298  24.891   7.806
  172POPC   C4B 5794  19.263  24.621   7.435
  173POPC   NC3 5795   6.316  36.497   9.752
  173POPC   PO4 5796   5.751  36.067   9.528
  173POPC   GL1 5797   5.627  36.170   9.148
  173POPC   GL2 5798   5.893  36.338   9.092
  173POPC   C1A 5799   5.727  35.981   8.760
  173POPC   D2A 5800   5.993  35.923   8.452
  173POPC   C3A 5801   5.726  36.004   8.185
  173POPC   C4A 5802   5.724  35.989   7.796
  173POPC   C1B 5803   5.732  36.516   8.740
  173POPC   C2B 5804   5.483  36.581   8.384
  173POPC   C3B 5805   5.687  36.479   7.988
  173POPC   C4B 5806   5.924  36.413   7.596
  174POPC   NC3 5807  44.392  25.277   9.457
  174POPC   PO4 5808  43.766  25.068   9.448
  174POPC   GL1 5809  43.968  25.279   9.139
  174POPC   GL2 5810  44.179  25.003   9.049
  174POPC   C1A 5811  43.856  25.305   8.724
  174POPC   D2A 5812  43.726  25.007   8.433
  174POPC   C3A 5813  43.924  25.088   8.079
  174POPC   C4A 5814  44.010  25.223   7.685
  174POPC   C1B 5815  44.257  24.977   8.584
  174POPC   C2B 5816  44.175  24.684   8.240
  174POPC   C3B 5817  44.321  24.816   7.819
  174POPC   C4B 5818  44.168  24.814   7.382
  175POPC   NC3 5819  38.732   7.088   9.606
  175POPC   PO4 5820  38.353   6.553   9.485
  175POPC   GL1 5821  38.326   6.550   9.085
  175POPC   GL2 5822  38.420   6.251   8.982
  175POPC   C1A 5823  38.516   6.692   8.707
  175POPC   D2A 5824  38.445   6.553   8.294
  175POPC   C3A 5825  38.541   6.802   7.942
  175POPC   C4A 5826  38.675   6.631   7.589
  175POPC   C1B 5827  38.115   6.361   8.648
  175POPC   C2B 5828  37.995   6.277   8.220
  175POPC   C3B 5829  38.325   6.309   7.850
  175POPC   C4B 5830  38.441   6.225   7.395
  176POPC   NC3 5831  28.714  33.532   9.625
  176POPC   PO4 5832  29.377  33.703   9.523
  176POPC   GL1 5833  29.261  33.767   9.128
  176POPC   GL2 5834  28.932  33.563   9.141
  176POPC   C1A 5835  29.258  33.821   8.693
  176POPC   D2A 5836  29.558  33.790   8.382
  176POPC   C3A 5837  29.398  33.753   7.991
  176POPC   C4A 5838  29.162  34.058   7.776
  176POPC   C1B 5839  28.829  33.973   8.963
  176POPC   C2B 5840  28.738  33.954   8.542
  176POPC   C3B 5841  28.889  33.791   8.151
  176POPC   C4B 5842  28.961  33.603   7.759
  177POPC   NC3 5843  10.884  32.517   9.477
  177POPC   PO4 5844  10.396  32.152   9.814
  177POPC   GL1 5845  10.423  32.249   9.331
  177POPC   GL2 5846  10.147  32.103   9.155
  177POPC   C1A 5847  10.576  32.329   8.863
  177POPC   D2A 5848  10.733  32.108   8.472
  177POPC   C3A 5849  10.815  32.376   8.125
  177POPC   C4A 5850  10.759  32.296   7.679
  177POPC   C1B 5851  10.079  32.269   8.735
  177POPC   C2B 5852  10.334  32.429   8.375
  177POPC   C3B 5853  10.319  32.291   7.944
  177POPC   C4B 5854  10.282  32.200   7.504
  178POPC   NC3 5855  36.304  30.739   9.681
  178POPC   PO4 5856  35.629  30.667   9.772
  178POPC   GL1 5857  35.893  30.708   9.311
  178POPC   GL2 5858  36.065  30.402   9.275
  178POPC   C1A 5859  35.782  30.643   8.853
  178POPC   D2A 5860  35.980  30.517   8.474
  178POPC   C3A 5861  35.886  30.690   8.078
  178POPC   C4A 5862  35.996  30.531   7.696
  178POPC   C1B 5863  36.297  30.576   8.923
  178POPC   C2B 5864  36.492  30.493   8.515
  178POPC   C3B 5865  36.386  30.509   8.073
  178POPC   C4B 5866  36.443  30.761   7.695
  179POPC   NC3 5867  19.769  16.276   9.552
  179POPC   PO4 5868  20.224  15.701   9.398
  179POPC   GL1 5869  20.001  15.985   9.140
  179POPC   GL2 5870  19.646  16.040   9.106
  179POPC   C1A 5871  20.106  16.104   8.751
  179POPC   D2A 5872  20.087  15.929   8.370
  179POPC   C3A 5873  19.822  16.100   8.082
  179POPC   C4A 5874  19.908  16.112   7.657
  179POPC   C1B 5875  19.662  15.848   8.691
  179POPC   C2B 5876  19.572  15.662   8.278
  179POPC   C3B 5877  19.591  15.733   7.832
  179POPC   C4B 5878  19.361  16.006   7.546
  180POPC   NC3 5879  13.754  38.683   9.510
  180POPC   PO4 5880  13.351  38.122   9.515
  180POPC   GL1 5881  13.580  38.241   9.181
  180POPC   GL2 5882  13.482  38.535   9.088
  180POPC   C1A 5883  13.805  38.199   8.820
  180POPC   D2A 5884  13.651  38.368   8.462
  180POPC   C3A 5885  13.907  38.451   8.112
  180POPC   C4A 5886  13.748  38.261   7.743
  180POPC   C1B 5887  13.580  38.806   8.749
  180POPC   C2B 5888  13.693  38.861   8.322
  180POPC   C3B 5889  13.638  38.855   7.903
  180POPC   C4B 5890  13.488  38.661   7.550
  181POPC   NC3 5891  40.012  14.150   9.460
  181POPC   PO4 5892  39.963  14.802   9.288
  181POPC   GL1 5893  39.983  14.460   9.033
  181POPC   GL2 5894  40.313  14.426   9.125
  181POPC   C1A 5895  40.119  14.100   8.780
  181POPC   D2A 5896  40.252  14.126   8.360
  181POPC   C3A 5897  39.892  14.281   8.138
  181POPC   C4A 5898  39.732  14.111   7.767
  181POPC   C1B 5899  40.441  14.718   8.791
  181POPC   C2B 5900  40.690  14.734   8.386
  181POPC   C3B 5901  40.510  14.502   8.067
  181POPC   C4B 5902  40.118  14.603   7.822
  182POPC   NC3 5903  19.565  32.313   9.822
  182POPC   PO4 5904  20.214  32.386   9.548
  182POPC   GL1 5905  19.954  32.234   9.196
  182POPC   GL2 5906  19.587  32.124   9.142
  182POPC   C1A 5907  20.060  32.391   8.797
  182POPC   D2A 5908  19.900  32.557   8.436
  182POPC   C3A 5909  19.970  32.367   8.077
  182POPC   C4A 5910  20.033  32.521   7.701
  182POPC   C1B 5911  19.540  32.390   8.776
  182POPC   C2B 5912  19.547  32.205   8.391
  182POPC   C3B 5913  19.464  32.266   7.990
  182POPC   C4B 5914  19.683  32.120   7.690
  183POPC   NC3 5915  26.186  29.116   9.547
  183POPC   PO4 5916  25.739  29.439   9.214
  183POPC   GL1 5917  26.103  29.232   8.959
  183POPC   GL2 5918  26.149  28.896   9.076
  183POPC   C1A 5919  26.238  29.244   8.482
  183POPC   D2A 5920  25.994  29.276   8.089
  183POPC   C3A 5921  26.112  29.345   7.640
  183POPC   C4A 5922  26.367  29.227   7.233
  183POPC   C1B 5923  26.097  28.782   8.649
  183POPC   C2B 5924  26.161  28.798   8.225
  183POPC   C3B 5925  26.062  28.856   7.773
  183POPC   C4B 5926  25.865  28.940   7.379
  184POPC   NC3 5927   9.495   2.386   9.557
  184POPC   PO4 5928  10.056   2.777   9.457
  184POPC   GL1 5929  10.035   2.462   9.162
  184POPC   GL2 5930   9.747   2.643   9.019
  184POPC   C1A 5931  10.064   2.366   8.718
  184POPC   D2A 5932   9.949   2.737   8.468
  184POPC   C3A 5933   9.945   2.797   8.006
  184POPC   C4A 5934   9.638   2.588   7.740
  184POPC   C1B 5935   9.597   3.007   8.745
  184POPC   C2B 5936   9.239   3.002   8.421
  184POPC   C3B 5937   9.431   2.982   8.016
  184POPC   C4B 5938   9.505   3.211   7.661
  185POPC   NC3 5939  20.687   5.341   9.426
  185POPC   PO4 5940  20.865   5.907   9.689
  185POPC   GL1 5941  20.723   5.848   9.209
  185POPC   GL2 5942  20.524   5.583   9.026
  185POPC   C1A 5943  20.553   6.042   8.810
  185POPC   D2A 5944  20.342   6.078   8.403
  185POPC   C3A 5945  20.480   6.193   7.983
  185POPC   C4A 5946  20.463   5.822   7.742
  185POPC   C1B 5947  20.814   5.584   8.786
  185POPC   C2B 5948  20.895   5.755   8.447
  185POPC   C3B 5949  20.738   5.588   8.104
  185POPC   C4B 5950  20.844   5.504   7.710
  186POPC   NC3 5951  25.448   9.972   9.541
  186POPC   PO4 5952  24.937   9.586   9.612
  186POPC   GL1 5953  25.125   9.716   9.200
  186POPC   GL2 5954  25.337   9.986   9.052
  186POPC   C1A 5955  25.291   9.538   8.796
  186POPC   D2A 5956  25.505   9.482   8.402
  186POPC   C3A 5957  25.311   9.400   8.015
  186POPC   C4A 5958  25.342   9.721   7.717
  186POPC   C1B 5959  25.654  10.252   8.826
  186POPC   C2B 5960  25.640  10.188   8.371
  186POPC   C3B 5961  25.373  10.161   7.989
  186POPC   C4B 5962  25.444  10.212   7.527
  187POPC   NC3 5963   6.752   5.941   9.366
  187POPC   PO4 5964   6.119   5.724   9.373
  187POPC   GL1 5965   6.436   5.856   8.976
  187POPC   GL2 5966   6.527   6.216   8.994
  187POPC   C1A 5967   6.852   5.960   8.667
  187POPC   D2A 5968   7.196   5.807   8.379
  187POPC   C3A 5969   6.929   5.682   8.012
  187POPC   C4A 5970   6.646   5.527   7.690
  187POPC   C1B 5971   6.447   6.219   8.565
  187POPC   C2B 5972   6.482   6.272   8.163
  187POPC   C3B 5973   6.599   6.162   7.794
  187POPC   C4B 5974   6.499   6.131   7.397
  188POPC   NC3 5975  32.921  21.599   9.769
  188POPC   PO4 5976  32.978  21.080   9.314
  188POPC   GL1 5977  33.016  21.295   8.996
  188POPC   GL2 5978  33.197  21.587   9.103
  188POPC   C1A 5979  32.817  21.408   8.641
  188POPC   D2A 5980  32.614  21.239   8.309
  188POPC   C3A 5981  32.720  21.559   8.029
  188POPC   C4A 5982  32.831  21.570   7.579
  188POPC   C1B 5983  33.348  21.482   8.667
  188POPC   C2B 5984  33.170  21.615   8.269
  188POPC   C3B 5985  33.241  21.551   7.833
  188POPC   C4B 5986  33.290  21.440   7.371
  189POPC   NC3 5987   7.917  21.519   9.517
  189POPC   PO4 5988   8.453  21.176   9.664
  189POPC   GL1 5989   8.368  21.469   9.238
  189POPC   GL2 5990   8.091  21.278   9.064
  189POPC   C1A 5991   8.242  21.633   8.764
  189POPC   D2A 5992   8.102  21.337   8.434
  189POPC   C3A 5993   8.020  21.430   7.978
  189POPC   C4A 5994   8.217  21.602   7.579
  189POPC   C1B 5995   8.497  21.198   8.810
  189POPC   C2B 5996   8.625  21.335   8.377
  189POPC   C3B 5997   8.524  21.380   7.938
  189POPC   C4B 5998   8.501  21.049   7.621
  190POPC   NC3 5999  13.930  30.993   9.501
  190POPC   PO4 6000  14.180  30.361   9.489
  190POPC   GL1 6001  13.761  30.497   9.210
  190POPC   GL2 6002  13.703  30.884   9.073
  190POPC   C1A 6003  13.423  30.552   8.852
  190POPC   D2A 6004  13.531  30.894   8.566
  190POPC   C3A 6005  13.668  30.753   8.180
  190POPC   C4A 6006  13.692  30.736   7.736
  190POPC   C1B 6007  14.007  30.907   8.734
  190POPC   C2B 6008  14.160  30.723   8.380
  190POPC   C3B 6009  14.127  30.884   7.978
  190POPC   C4B 6010  14.080  31.148   7.622
  191POPC   NC3 6011   5.396  14.733   9.690
  191POPC   PO4 6012   4.877  14.335   9.634
  191POPC   GL1 6013   5.134  14.293   9.264
  191POPC   GL2 6014   5.305  14.605   9.205
  191POPC   C1A 6015   5.108  14.304   8.815
  191POPC   D2A 6016   4.960  14.159   8.418
  191POPC   C3A 6017   5.130  14.356   8.080
  191POPC   C4A 6018   4.889  14.326   7.776
  191POPC   C1B 6019   5.500  14.695   8.813
  191POPC   C2B 6020   5.513  14.772   8.387
  191POPC   C3B 6021   5.578  14.677   7.981
  191POPC   C4B 6022   5.281  14.660   7.665
  192POPC   NC3 6023  17.219  27.900   9.278
  192POPC   PO4 6024  17.547  27.467   9.673
  192POPC   GL1 6025  17.676  27.561   9.204
  192POPC   GL2 6026  17.730  27.902   9.064
  192POPC   C1A 6027  17.580  27.541   8.723
  192POPC   D2A 6028  17.437  27.245   8.390
  192POPC   C3A 6029  17.539  27.360   7.972
  192POPC   C4A 6030  17.552  27.648   7.629
  192POPC   C1B 6031  17.971  27.955   8.675
  192POPC   C2B 6032  17.880  27.864   8.256
  192POPC   C3B 6033  17.876  28.000   7.820
  192POPC   C4B 6034  18.016  27.842   7.415
  193POPC   NC3 6035   9.610   2.953   9.413
  193POPC   PO4 6036   9.654   3.691   9.512
  193POPC   GL1 6037   9.666   3.418   9.152
  193POPC   GL2 6038   9.953   3.184   9.133
  193POPC   C1A 6039   9.745   3.505   8.721
  193POPC   D2A 6040   9.543   3.397   8.353
  193POPC   C3A 6041   9.572   3.623   7.991
  193POPC   C4A 6042   9.652   3.694   7.541
  193POPC   C1B 6043  10.123   3.159   8.740
  193POPC   C2B 6044  10.022   3.225   8.310
  193POPC   C3B 6045  10.011   3.400   7.892
  193POPC   C4B 6046  10.009   3.122   7.578
  194POPC   NC3 6047  42.303  30.737   9.644
  194POPC   PO4 6048  42.756  30.433   9.254
  194POPC   GL1 6049  42.336  30.546   9.175
  194POPC   GL2 6050  42.248  30.912   9.148
  194POPC   C1A 6051  42.083  30.520   8.821
  194POPC   D2A 6052  42.071  30.695   8.431
  194POPC   C3A 6053  42.365  30.667   8.174
  194POPC   C4A 6054  42.359  30.660   7.773
  194POPC   C1B 6055  42.528  30.823   8.783
  194POPC   C2B 6056  42.763  30.879   8.409
  194POPC   C3B 6057  42.756  30.943   7.958
  194POPC   C4B 6058  42.885  31.070   7.541
  195POPC   NC3 6059  35.914  27.831   9.284
  195POPC   PO4 6060  36.403  27.665   9.749
  195POPC   GL1 6061  36.405  27.580   9.294
  195POPC   GL2 6062  36.136  27.355   9.162
  195POPC   C1A 6063  36.374  27.715   8.848
  195POPC   D2A 6064  36.390  27.519   8.467
  195POPC   C3A 6065  36.356  27.718   8.116
  195POPC   C4A 6066  36.337  27.504   7.767
  195POPC   C1B 6067  35.937  27.400   8.729
  195POPC   C2B 6068  35.880  27.650   8.330
  195POPC   C3B 6069  35.759  27.717   7.881
  195POPC   C4B 6070  35.964  27.662   7.465
  196POPC   NC3 6071  21.798   5.361   9.490
  196POPC   PO4 6072  21.140   5.071   9.656
  196POPC   GL1 6073  21.359   5.154   9.305
  196POPC   GL2 6074  21.125   5.376   9.154
  196POPC   C1A 6075  21.461   5.071   8.896
  196POPC   D2A 6076  21.325   4.814   8.538
  196POPC   C3A 6077  21.507   4.855   8.121
  196POPC   C4A 6078  21.754   4.893   7.733
  196POPC   C1B 6079  21.291   5.501   8.724
  196POPC   C2B 6080  21.562   5.288   8.421
  196POPC   C3B 6081  21.669   5.330   7.984
  196POPC   C4B 6082  21.656   5.344   7.491
  197POPC   NC3 6083   8.410  17.751   9.541
  197POPC   PO4 6084   7.982  17.279   9.765
  197POPC   GL1 6085   8.170  17.312   9.334
  197POPC   GL2 6086   7.902  17.224   9.122
  197POPC   C1A 6087   8.327  17.304   8.871
  197POPC   D2A 6088   8.041  17.251   8.529
  197POPC   C3A 6089   8.123  17.232   8.105
  197POPC   C4A 6090   8.420  17.178   7.780
  197POPC   C1B 6091   7.919  17.624   8.863
  197POPC   C2B 6092   8.101  17.771   8.425
  197POPC   C3B 6093   7.935  17.718   7.981
  197POPC   C4B 6094   7.970  17.410   7.635
  198POPC   NC3 6095  22.346  32.390   9.509
  198POPC   PO4 6096  21.804  32.153   9.774
  198POPC   GL1 6097  21.802  32.216   9.288
  198POPC   GL2 6098  22.115  32.116   9.141
  198POPC   C1A 6099  21.845  32.470   8.875
  198POPC   D2A 6100  21.835  32.654   8.435
  198POPC   C3A 6101  22.134  32.559   8.100
  198POPC   C4A 6102  22.150  32.273   7.789
  198POPC   C1B 6103  22.287  31.884   8.785
  198POPC   C2B 6104  22.169  31.718   8.392
  198POPC   C3B 6105  22.344  31.807   7.972
  198POPC   C4B 6106  22.529  32.001   7.630
  199POPC   NC3 6107  44.634  40.476   9.487
  199POPC   PO4 6108   0.089  40.965   9.466
  199POPC   GL1 6109  44.844  40.788   9.142
  199POPC   GL2 6110  44.517  40.893   9.191
  199POPC   C1A 6111  44.911  40.566   8.745
  199POPC   D2A 6112  44.724  40.502   8.361
  199POPC   C3A 6113  44.738  40.754   8.078
  199POPC   C4A 6114  44.907  40.651   7.691
  199POPC   C1B 6115  44.433  40.704   8.820
  199POPC   C2B 6116  44.357  40.858   8.463
  199POPC   C3B 6117  44.224  40.872   8.075
  199POPC   C4B 6118  44.352  40.754   7.729
  200POPC   NC3 6119  41.795  33.872   9.585
  200POPC   PO4 6120  41.196  34.070   9.475
  200POPC   GL1 6121  41.455  33.970   9.162
  200POPC   GL2 6122  41.506  33.631   9.185
  200POPC   C1A 6123  41.460  33.941   8.724
  200POPC   D2A 6124  41.674  34.223   8.438
  200POPC   C3A 6125  41.546  33.900   8.162
  200POPC   C4A 6126  41.602  33.626   7.842
  200POPC   C1B 6127  41.713  33.479   8.816
  200POPC   C2B 6128  41.689  33.427   8.362
  200POPC   C3B 6129  41.670  33.166   8.020
  200POPC   C4B 6130  41.841  33.213   7.632
  201POPC   NC3 6131   6.442  21.024   9.484
  201POPC   PO4 6132   6.804  21.600   9.667
  201POPC   GL1 6133   6.739  21.398   9.233
  201POPC   GL2 6134   6.908  21.068   9.168
  201POPC   C1A 6135   6.787  21.510   8.756
  201POPC   D2A 6136   6.483  21.657   8.392
  201POPC   C3A 6137   6.537  21.514   7.969
  201POPC   C4A 6138   6.363  21.268   7.632
  201POPC   C1B 6139   6.823  20.973   8.740
  201POPC   C2B 6140   6.826  21.197   8.327
  201POPC   C3B 6141   6.779  21.047   7.905
  201POPC   C4B 6142   6.962  21.037   7.508
  202POPC   NC3 6143  27.459   8.194   9.558
  202POPC   PO4 6144  27.986   8.075   9.913
  202POPC   GL1 6145  27.882   8.069   9.317
  202POPC   GL2 6146  27.692   8.430   9.182
  202POPC   C1A 6147  27.883   8.128   8.845
  202POPC   D2A 6148  27.650   7.981   8.532
  202POPC   C3A 6149  27.777   8.067   8.163
  202POPC   C4A 6150  27.491   7.886   7.864
  202POPC   C1B 6151  27.422   8.398   8.769
  202POPC   C2B 6152  27.503   8.485   8.317
  202POPC   C3B 6153  27.575   8.415   7.850
  202POPC   C4B 6154  27.587   8.544   7.380
  203POPC   NC3 6155  18.201  39.569   9.608
  203POPC   PO4 6156  18.595  39.082   9.474
  203POPC   GL1 6157  18.363  39.299   9.193
  203POPC   GL2 6158  18.057  39.140   9.177
  203POPC   C1A 6159  18.485  39.462   8.787
  203POPC   D2A 6160  18.661  39.211   8.446
  203POPC   C3A 6161  18.707  39.351   8.032
  203POPC   C4A 6162  18.523  39.108   7.726
  203POPC   C1B 6163  17.986  39.370   8.841
  203POPC   C2B 6164  18.121  39.464   8.431
  203POPC   C3B 6165  18.206  39.278   8.090
  203POPC   C4B 6166  18.007  39.128   7.746
  204POPC   NC3 6167   9.966  31.155   9.665
  204POPC   PO4 6168   9.821  31.801   9.448
  204POPC   GL1 6169   9.718  31.616   9.062
  204POPC   GL2 6170   9.796  31.299   9.166
  204POPC   C1A 6171   9.953  31.587   8.649
  204POPC   D2A 6172  10.179  31.379   8.274
  204POPC   C3A 6173   9.888  31.402   7.916
  204POPC   C4A 6174   9.501  31.660   7.804
  204POPC   C1B 6175   9.615  31.214   8.749
  204POPC   C2B 6176   9.493  31.015   8.365
  204POPC   C3B 6177   9.482  31.066   7.897
  204POPC   C4B 6178   9.535  30.944   7.415
  205POPC   NC3 6179  39.988   4.983   9.413
  205POPC   PO4 6180  40.366   5.611   9.508
  205POPC   GL1 6181  40.294   5.332   9.177
  205POPC   GL2 6182  39.973   5.416   9.116
  205POPC   C1A 6183  40.222   5.016   8.820
  205POPC   D2A 6184  40.183   5.147   8.422
  205POPC   C3A 6185  40.086   4.889   8.106
  205POPC   C4A 6186  39.890   4.945   7.739
  205POPC   C1B 6187  39.803   5.328   8.762
  205POPC   C2B 6188  39.631   5.327   8.400
  205POPC   C3B 6189  39.871   5.392   8.042
  205POPC   C4B 6190  39.933   5.414   7.588
  206POPC   NC3 6191  42.882  33.863   9.755
  206POPC   PO4 6192  42.244  33.835   9.694
  206POPC   GL1 6193  42.257  33.904   9.259
  206POPC   GL2 6194  42.030  33.646   9.198
  206POPC   C1A 6195  42.393  34.017   8.805
  206POPC   D2A 6196  42.241  34.265   8.435
  206POPC   C3A 6197  42.362  34.151   8.005
  206POPC   C4A 6198  42.605  33.859   7.744
  206POPC   C1B 6199  41.912  33.963   8.907
  206POPC   C2B 6200  41.958  33.819   8.507
  206POPC   C3B 6201  42.029  33.773   8.058
  206POPC   C4B 6202  41.867  34.085   7.804
  207POPC   NC3 6203   1.268  36.093   9.543
  207POPC   PO4 6204   1.330  36.694   9.346
  207POPC   GL1 6205   1.280  36.373   9.121
  207POPC   GL2 6206   0.969  36.317   9.167
  207POPC   C1A 6207   1.288  36.021   8.854
  207POPC   D2A 6208   1.390  35.798   8.488
  207POPC   C3A 6209   1.286  35.868   8.070
  207POPC   C4A 6210   1.391  36.186   7.802
  207POPC   C1B 6211   0.986  36.430   8.734
  207POPC   C2B 6212   1.154  36.307   8.352
  207POPC   C3B 6213   0.911  36.217   7.983
  207POPC   C4B 6214   0.926  36.136   7.557
  208POPC   NC3 6215  15.372  20.066   9.536
  208POPC   PO4 6216  14.816  19.747   9.537
  208POPC   GL1 6217  15.101  19.732   9.165
  208POPC   GL2 6218  15.325  19.998   9.059
  208POPC   C1A 6219  15.019  19.845   8.704
  208POPC   D2A 6220  14.960  20.061   8.310
  208POPC   C3A 6221  15.050  19.780   7.967
  208POPC   C4A 6222  15.106  19.947   7.563
  208POPC   C1B 6223  15.559  19.838   8.717
  208POPC   C2B 6224  15.439  19.854   8.298
  208POPC   C3B 6225  15.641  19.854   7.899
  208POPC   C4B 6226  15.593  19.909   7.473
  209POPC   NC3 6227  17.905  13.171   9.443
  209POPC   PO4 6228  18.350  13.699   9.517
  209POPC   GL1 6229  18.477  13.721   9.109
  209POPC   GL2 6230  18.415  13.359   9.052
  209POPC   C1A 6231  18.332  13.675   8.679
  209POPC   D2A 6232  18.314  13.386   8.346
  209POPC   C3A 6233  18.274  13.642   7.959
  209POPC   C4A 6234  18.559  13.704   7.577
  209POPC   C1B 6235  18.022  13.278   8.805
  209POPC   C2B 6236  17.823  13.267   8.410
  209POPC   C3B 6237  17.950  13.182   7.983
  209POPC   C4B 6238  18.256  13.264   7.628
  210POPC   NC3 6239  23.194  12.692   9.434
  210POPC   PO4 6240  22.891  13.248   9.406
  210POPC   GL1 6241  23.194  13.174   9.061
  210POPC   GL2 6242  23.168  12.845   8.947
  210POPC   C1A 6243  23.428  13.223   8.675
  210POPC   D2A 6244  23.534  13.118   8.251
  210POPC   C3A 6245  23.184  12.945   8.029
  210POPC   C4A 6246  22.999  12.623   7.777
  210POPC   C1B 6247  22.844  13.071   8.706
  210POPC   C2B 6248  22.686  13.103   8.293
  210POPC   C3B 6249  22.687  13.026   7.859
  210POPC   C4B 6250  22.423  12.734   7.606
  211POPC   NC3 6251  21.051  16.489   9.725
  211POPC   PO4 6252  21.656  16.681   9.555
  211POPC   GL1 6253  21.304  16.741   9.292
  211POPC   GL2 6254  21.322  16.458   9.112
  211POPC   C1A 6255  21.114  16.843   8.872
  211POPC   D2A 6256  21.252  16.612   8.494
  211POPC   C3A 6257  21.279  16.738   8.044
  211POPC   C4A 6258  21.270  17.137   7.811
  211POPC   C1B 6259  21.641  16.698   8.854
  211POPC   C2B 6260  21.853  16.780   8.439
  211POPC   C3B 6261  21.873  16.656   7.990
  211POPC   C4B 6262  21.619  16.697   7.651
  212POPC   NC3 6263  18.880  25.147   9.460
  212POPC   PO4 6264  19.291  25.707   9.524
  212POPC   GL1 6265  19.112  25.501   9.180
  212POPC   GL2 6266  18.773  25.567   9.037
  212POPC   C1A 6267  19.122  25.278   8.802
  212POPC   D2A 6268  18.822  25.413   8.455
  212POPC   C3A 6269  19.067  25.252   8.127
  212POPC   C4A 6270  19.190  25.413   7.762
  212POPC   C1B 6271  18.662  25.121   8.843
  212POPC   C2B 6272  18.726  24.916   8.438
  212POPC   C3B 6273  18.588  25.122   8.057
  212POPC   C4B 6274  18.773  25.101   7.651
  213POPC   NC3 6275  12.439  43.225   9.332
  213POPC   PO4 6276  13.090  42.991   9.513
  213POPC   GL1 6277  12.921  43.160   9.173
  213POPC   GL2 6278  12.763  42.845   9.145
  213POPC   C1A 6279  12.994  43.290   8.763
  213POPC   D2A 6280  12.723  43.280   8.427
  213POPC   C3A 6281  12.932  43.260   8.043
  213POPC   C4A 6282  12.694  43.272   7.707
  213POPC   C1B 6283  13.126  42.807   8.844
  213POPC   C2B 6284  13.114  42.931   8.415
  213POPC   C3B 6285  13.121  42.758   7.996
  213POPC   C4B 6286  12.962  42.860   7.606
  214POPC   NC3 6287  24.782  17.329   9.405
  214POPC   PO4 6288  24.176  17.660   9.467
  214POPC   GL1 6289  24.367  17.504   9.118
  214POPC   GL2 6290  24.309  17.143   9.139
  214POPC   C1A 6291  24.452  17.736   8.731
  214POPC   D2A 6292  24.596  17.821   8.339
  214POPC   C3A 6293  24.670  17.440   8.107
  214POPC   C4A 6294  24.882  17.585   7.792
  214POPC   C1B 6295  24.364  17.237   8.679
  214POPC   C2B 6296  24.196  17.496   8.350
  214POPC   C3B 6297  24.270  17.693   7.954
  214POPC   C4B 6298  24.248  17.306   7.828
  215POPC   NC3 6299   4.699  26.715   9.548
  215POPC   PO4 6300   4.070  26.991   9.674
  215POPC   GL1 6301   4.232  26.786   9.303
  215POPC   GL2 6302   4.213  27.048   9.051
  215POPC   C1A 6303   4.412  26.591   8.914
  215POPC   D2A 6304   4.210  26.728   8.556
  215POPC   C3A 6305   4.345  26.796   8.180
  215POPC   C4A 6306   4.323  26.547   7.860
  215POPC   C1B 6307   4.527  27.107   8.693
  215POPC   C2B 6308   4.585  27.238   8.264
  215POPC   C3B 6309   4.475  27.182   7.823
  215POPC   C4B 6310   4.439  27.019   7.433
  216POPC   NC3 6311  44.308  36.366   9.675
  216POPC   PO4 6312  44.723  35.886   9.459
  216POPC   GL1 6313  44.726  36.210   9.189
  216POPC   GL2 6314  44.430  36.385   9.162
  216POPC   C1A 6315  44.790  36.289   8.777
  216POPC   D2A 6316  44.603  36.154   8.360
  216POPC   C3A 6317  44.622  35.943   7.943
  216POPC   C4A 6318  44.589  35.916   7.461
  216POPC   C1B 6319  44.262  36.293   8.736
  216POPC   C2B 6320  44.219  36.487   8.352
  216POPC   C3B 6321  44.444  36.458   7.956
  216POPC   C4B 6322  44.306  36.596   7.533
  217POPC   NC3 6323   0.956  39.493   9.664
  217POPC   PO4 6324   1.236  38.909   9.540
  217POPC   GL1 6325   1.155  39.206   9.217
  217POPC   GL2 6326   0.812  39.232   9.241
  217POPC   C1A 6327   1.373  39.283   8.813
  217POPC   D2A 6328   1.359  39.494   8.407
  217POPC   C3A 6329   1.535  39.326   8.041
  217POPC   C4A 6330   1.451  39.307   7.629
  217POPC   C1B 6331   0.852  39.187   8.797
  217POPC   C2B 6332   0.992  39.150   8.391
  217POPC   C3B 6333   1.017  39.312   8.000
  217POPC   C4B 6334   1.037  39.026   7.674
  218POPC   NC3 6335  27.431  34.520   9.512
  218POPC   PO4 6336  28.085  34.756   9.417
  218POPC   GL1 6337  28.005  34.448   9.114
  218POPC   GL2 6338  27.650  34.466   9.060
  218POPC   C1A 6339  27.992  34.585   8.686
  218POPC   D2A 6340  27.672  34.630   8.379
  218POPC   C3A 6341  27.800  34.428   8.007
  218POPC   C4A 6342  27.830  34.374   7.538
  218POPC   C1B 6343  27.322  34.328   8.761
  218POPC   C2B 6344  27.149  34.581   8.444
  218POPC   C3B 6345  27.262  34.685   8.047
  218POPC   C4B 6346  27.345  34.398   7.745
  219POPC   NC3 6347  15.967  29.140   9.718
  219POPC   PO4 6348  15.448  28.719   9.432
  219POPC   GL1 6349  15.875  28.803   9.170
  219POPC   GL2 6350  16.063  29.137   9.203
  219POPC   C1A 6351  16.107  28.838   8.765
  219POPC   D2A 6352  16.443  28.830   8.468
  219POPC   C3A 6353  16.230  28.918   8.091
  219POPC   C4A 6354  15.825  28.874   7.890
  219POPC   C1B 6355  15.937  29.316   8.786
  219POPC   C2B 6356  15.841  29.141   8.374
  219POPC   C3B 6357  15.910  29.356   7.990
  219POPC   C4B 6358  15.714  29.753   7.859
  220POPC   NC3 6359  24.528  34.057   9.408
  220POPC   PO4 6360  24.043  33.644   9.544
  220POPC   GL1 6361  24.296  33.566   9.133
  220POPC   GL2 6362  24.654  33.678   9.113
  220POPC   C1A 6363  24.495  33.509   8.672
  220POPC   D2A 6364  24.659  33.806   8.347
  220POPC   C3A 6365  24.604  33.730   7.904
  220POPC   C4A 6366  24.557  33.581   7.457
  220POPC   C1B 6367  24.483  34.008   8.785
  220POPC   C2B 6368  24.651  34.328   8.506
  220POPC   C3B 6369  24.631  34.223   8.068
  220POPC   C4B 6370  24.233  34.080   7.846
  221POPC   NC3 6371  37.879  32.972   9.789
  221POPC   PO4 6372  37.463  32.684   9.380
  221POPC   GL1 6373  37.578  32.950   9.080
  221POPC   GL2 6374  37.910  33.044   9.140
  221POPC   C1A 6375  37.720  32.886   8.681
  221POPC   D2A 6376  37.714  32.764   8.261
  221POPC   C3A 6377  37.480  32.932   7.927
  221POPC   C4A 6378  37.479  32.607   7.669
  221POPC   C1B 6379  38.109  33.256   8.752
  221POPC   C2B 6380  38.176  33.378   8.305
  221POPC   C3B 6381  38.178  33.135   7.899
  221POPC   C4B 6382  37.976  32.716   7.809
  222POPC   NC3 6383  23.653   6.056   9.511
  222POPC   PO4 6384  23.655   5.333   9.512
  222POPC   GL1 6385  23.781   5.481   9.088
  222POPC   GL2 6386  23.809   5.853   9.074
  222POPC   C1A 6387  23.662   5.545   8.683
  222POPC   D2A 6388  23.774   5.852   8.418
  222POPC   C3A 6389  23.560   5.907   8.062
  222POPC   C4A 6390  23.708   5.621   7.794
  222POPC   C1B 6391  23.901   6.170   8.791
  222POPC   C2B 6392  24.089   6.261   8.395
  222POPC   C3B 6393  24.048   6.061   8.013
  222POPC   C4B 6394  23.827   6.114   7.659
  223POPC   NC3 6395  38.975   5.397   9.608
  223POPC   PO4 6396  39.159   6.014   9.730
  223POPC   GL1 6397  39.253   5.778   9.335
  223POPC   GL2 6398  38.978   5.988   9.201
  223POPC   C1A 6399  39.508   5.767   8.936
  223POPC   D2A 6400  39.398   6.020   8.528
  223POPC   C3A 6401  39.425   5.732   8.174
  223POPC   C4A 6402  39.585   5.733   7.759
  223POPC   C1B 6403  39.023   5.783   8.798
  223POPC   C2B 6404  38.881   5.540   8.414
  223POPC   C3B 6405  38.992   5.467   7.978
  223POPC   C4B 6406  39.082   5.888   7.840
  224POPC   NC3 6407   0.153  36.602   9.441
  224POPC   PO4 6408   0.529  37.106   9.390
  224POPC   GL1 6409   0.503  36.938   9.026
  224POPC   GL2 6410   0.544  36.618   9.064
  224POPC   C1A 6411   0.520  37.085   8.619
  224POPC   D2A 6412   0.719  37.369   8.309
  224POPC   C3A 6413   0.541  37.253   7.919
  224POPC   C4A 6414   0.725  36.869   7.882
  224POPC   C1B 6415   0.483  36.528   8.694
  224POPC   C2B 6416   0.706  36.662   8.371
  224POPC   C3B 6417   0.491  36.486   8.092
  224POPC   C4B 6418   0.516  36.420   7.714
  225POPC   NC3 6419   7.717  16.968   9.551
  225POPC   PO4 6420   7.060  17.015   9.482
  225POPC   GL1 6421   7.289  16.707   9.229
  225POPC   GL2 6422   7.651  16.749   9.097
  225POPC   C1A 6423   7.249  16.681   8.794
  225POPC   D2A 6424   7.523  16.601   8.446
  225POPC   C3A 6425   7.375  16.662   8.046
  225POPC   C4A 6426   7.615  16.516   7.706
  225POPC   C1B 6427   7.607  17.055   8.722
  225POPC   C2B 6428   7.653  17.060   8.244
  225POPC   C3B 6429   7.544  17.081   7.793
  225POPC   C4B 6430   7.206  16.864   7.591
  226POPC   NC3 6431  32.088  36.408   9.630
  226POPC   PO4 6432  32.731  36.185   9.529
  226POPC   GL1 6433  32.468  36.290   9.207
  226POPC   GL2 6434  32.166  36.100   9.225
  226POPC   C1A 6435  32.444  36.117   8.786
  226POPC   D2A 6436  32.221  36.251   8.427
  226POPC   C3A 6437  32.371  36.097   8.067
  226POPC   C4A 6438  32.373  36.325   7.706
  226POPC   C1B 6439  31.926  36.196   8.844
  226POPC   C2B 6440  31.808  35.941   8.477
  226POPC   C3B 6441  31.857  35.871   8.018
  226POPC   C4B 6442  32.108  35.897   7.645
  227POPC   NC3 6443  34.811  14.028   9.624
  227POPC   PO4 6444  34.350  13.637   9.372
  227POPC   GL1 6445  34.604  13.830   9.122
  227POPC   GL2 6446  34.903  13.694   9.177
  227POPC   C1A 6447  34.769  13.883   8.716
  227POPC   D2A 6448  34.827  14.098   8.364
  227POPC   C3A 6449  34.836  13.799   8.018
  227POPC   C4A 6450  34.808  13.843   7.556
  227POPC   C1B 6451  34.726  13.392   8.838
  227POPC   C2B 6452  34.588  13.481   8.424
  227POPC   C3B 6453  34.632  13.311   8.049
  227POPC   C4B 6454  34.829  13.363   7.683
  228POPC   NC3 6455  37.061  36.208   9.637
  228POPC   PO4 6456  36.560  35.888   9.741
  228POPC   GL1 6457  36.677  36.145   9.299
  228POPC   GL2 6458  37.025  36.075   9.150
  228POPC   C1A 6459  36.623  36.215   8.847
  228POPC   D2A 6460  36.772  36.362   8.442
  228POPC   C3A 6461  36.923  36.040   8.187
  228POPC   C4A 6462  36.787  36.111   7.782
  228POPC   C1B 6463  37.102  36.051   8.710
  228POPC   C2B 6464  37.297  36.367   8.455
  228POPC   C3B 6465  37.179  36.481   8.096
  228POPC   C4B 6466  37.273  36.232   7.768
  229POPC   NC3 6467  10.013  14.671   9.472
  229POPC   PO4 6468   9.613  14.088   9.480
  229POPC   GL1 6469   9.707  14.265   9.099
  229POPC   GL2 6470   9.855  14.598   8.990
  229POPC   C1A 6471   9.564  14.261   8.690
  229POPC   D2A 6472   9.503  14.591   8.418
  229POPC   C3A 6473   9.439  14.474   8.011
  229POPC   C4A 6474   9.417  14.651   7.623
  229POPC   C1B 6475  10.049  14.506   8.595
  229POPC   C2B 6476  10.003  14.180   8.279
  229POPC   C3B 6477   9.832  14.181   7.861
  229POPC   C4B 6478   9.999  14.535   7.626
  230POPC   NC3 6479  11.678  44.721   9.898
  230POPC   PO4 6480  12.051  44.832   9.403
  230POPC   GL1 6481  11.965  44.535   9.069
  230POPC   GL2 6482  12.267  44.515   9.036
  230POPC   C1A 6483  11.933  44.421   8.632
  230POPC   D2A 6484  12.197  44.507   8.307
  230POPC   C3A 6485  12.029  44.490   7.893
  230POPC   C4A 6486  12.037  44.687   7.493
  230POPC   C1B 6487  12.234  44.841   8.723
  230POPC   C2B 6488  12.399  44.953   8.338
  230POPC   C3B 6489  12.457  44.788   7.943
  230POPC   C4B 6490  12.386   0.057   7.607
  231POPC   NC3 6491  42.021  32.379   9.366
  231POPC   PO4 6492  42.594  32.126   9.557
  231POPC   GL1 6493  42.312  32.014   9.168
  231POPC   GL2 6494  42.360  32.318   8.987
  231POPC   C1A 6495  42.197  31.954   8.666
  231POPC   D2A 6496  42.049  31.789   8.225
  231POPC   C3A 6497  42.147  32.038   7.810
  231POPC   C4A 6498  42.081  32.184   7.366
  231POPC   C1B 6499  42.759  32.544   8.932
  231POPC   C2B 6500  42.787  32.768   8.535
  231POPC   C3B 6501  42.452  32.717   8.231
  231POPC   C4B 6502  42.412  32.490   7.826
  232POPC   NC3 6503  39.050  33.914   9.586
  232POPC   PO4 6504  39.697  33.822   9.651
  232POPC   GL1 6505  39.433  33.909   9.244
  232POPC   GL2 6506  39.185  33.627   9.206
  232POPC   C1A 6507  39.353  33.902   8.777
  232POPC   D2A 6508  39.609  34.044   8.389
  232POPC   C3A 6509  39.490  33.892   7.950
  232POPC   C4A 6510  39.158  34.097   7.697
  232POPC   C1B 6511  38.865  33.631   8.909
  232POPC   C2B 6512  38.949  33.728   8.466
  232POPC   C3B 6513  39.032  33.673   8.014
  232POPC   C4B 6514  38.806  33.720   7.631
  233POPC   NC3 6515  31.344  32.535   9.660
  233POPC   PO4 6516  31.571  31.958   9.555
  233POPC   GL1 6517  31.538  32.317   9.222
  233POPC   GL2 6518  31.292  32.671   9.186
  233POPC   C1A 6519  31.647  32.162   8.808
  233POPC   D2A 6520  31.612  31.908   8.464
  233POPC   C3A 6521  31.590  32.086   8.086
  233POPC   C4A 6522  31.479  32.084   7.694
  233POPC   C1B 6523  31.552  32.662   8.833
  233POPC   C2B 6524  31.494  32.476   8.432
  233POPC   C3B 6525  31.644  32.606   8.042
  233POPC   C4B 6526  31.860  32.435   7.702
  234POPC   NC3 6527   6.366  21.823   9.651
  234POPC   PO4 6528   5.898  22.360   9.523
  234POPC   GL1 6529   5.806  22.215   9.157
  234POPC   GL2 6530   5.516  21.996   9.285
  234POPC   C1A 6531   6.091  22.238   8.776
  234POPC   D2A 6532   6.338  22.201   8.367
  234POPC   C3A 6533   6.128  21.954   8.070
  234POPC   C4A 6534   5.845  22.095   7.745
  234POPC   C1B 6535   5.437  22.065   8.857
  234POPC   C2B 6536   5.675  22.072   8.487
  234POPC   C3B 6537   5.602  21.856   8.125
  234POPC   C4B 6538   5.338  21.983   7.784
  235POPC   NC3 6539  42.706  31.650   9.568
  235POPC   PO4 6540  42.246  31.195   9.629
  235POPC   GL1 6541  42.341  31.420   9.240
  235POPC   GL2 6542  42.664  31.241   9.153
  235POPC   C1A 6543  42.218  31.439   8.794
  235POPC   D2A 6544  42.327  31.136   8.436
  235POPC   C3A 6545  42.328  31.221   8.019
  235POPC   C4A 6546  42.076  31.494   7.768
  235POPC   C1B 6547  42.704  31.319   8.701
  235POPC   C2B 6548  42.506  31.625   8.407
  235POPC   C3B 6549  42.494  31.696   7.958
  235POPC   C4B 6550  42.564  31.468   7.565
  236POPC   NC3 6551   9.256  35.621   9.533
  236POPC   PO4 6552   9.367  34.943   9.494
  236POPC   GL1 6553   9.020  35.233   9.291
  236POPC   GL2 6554   8.681  35.438   9.265
  236POPC   C1A 6555   9.060  35.508   8.910
  236POPC   D2A 6556   8.950  35.396   8.497
  236POPC   C3A 6557   9.157  35.416   8.122
  236POPC   C4A 6558   9.003  35.141   7.834
  236POPC   C1B 6559   8.555  35.530   8.814
  236POPC   C2B 6560   8.509  35.637   8.366
  236POPC   C3B 6561   8.660  35.515   7.957
  236POPC   C4B 6562   8.689  35.595   7.503
  237POPC   NC3 6563   2.425  12.781   9.487
  237POPC   PO4 6564   2.946  13.172   9.574
  237POPC   GL1 6565   2.897  12.861   9.222
  237POPC   GL2 6566   2.694  12.518   9.165
  237POPC   C1A 6567   2.824  13.006   8.816
  237POPC   D2A 6568   2.570  13.146   8.486
  237POPC   C3A 6569   2.754  13.102   8.102
  237POPC   C4A 6570   2.578  13.080   7.726
  237POPC   C1B 6571   2.794  12.424   8.759
  237POPC   C2B 6572   2.745  12.663   8.398
  237POPC   C3B 6573   2.667  12.614   7.966
  237POPC   C4B 6574   3.056  12.792   7.761
  238POPC   NC3 6575  23.541  14.932   9.485
  238POPC   PO4 6576  23.884  15.518   9.716
  238POPC   GL1 6577  23.887  15.450   9.251
  238POPC   GL2 6578  23.568  15.421   9.093
  238POPC   C1A 6579  24.057  15.328   8.828
  238POPC   D2A 6580  23.957  14.960   8.551
  238POPC   C3A 6581  23.941  14.962   8.076
  238POPC   C4A 6582  23.516  14.882   7.879
  238POPC   C1B 6583  23.575  15.350   8.656
  238POPC   C2B 6584  23.816  15.430   8.290
  238POPC   C3B 6585  23.561  15.445   7.921
  238POPC   C4B 6586  23.241  15.611   7.599
  239POPC   NC3 6587   5.458  22.501   9.576
  239POPC   PO4 6588   5.213  21.837   9.668
  239POPC   GL1 6589   4.996  22.132   9.345
  239POPC   GL2 6590   5.185  22.383   9.171
  239POPC   C1A 6591   4.917  22.078   8.882
  239POPC   D2A 6592   5.135  22.032   8.454
  239POPC   C3A 6593   4.970  22.242   8.094
  239POPC   C4A 6594   4.888  22.171   7.665
  239POPC   C1B 6595   5.099  22.542   8.767
  239POPC   C2B 6596   5.337  22.560   8.392
  239POPC   C3B 6597   5.529  22.380   8.067
  239POPC   C4B 6598   5.293  22.474   7.732
  240POPC   NC3 6599   2.269   5.551   9.521
  240POPC   PO4 6600   1.645   5.910   9.496
  240POPC   GL1 6601   1.973   5.831   9.228
  240POPC   GL2 6602   1.846   5.507   9.232
  240POPC   C1A 6603   2.203   5.927   8.856
  240POPC   D2A 6604   2.144   6.157   8.480
  240POPC   C3A 6605   2.251   6.000   8.099
  240POPC   C4A 6606   2.069   6.234   7.794
  240POPC   C1B 6607   1.689   5.748   8.829
  240POPC   C2B 6608   1.686   5.923   8.426
  240POPC   C3B 6609   1.794   5.811   8.002
  240POPC   C4B 6610   1.677   5.965   7.594
  241POPC   NC3 6611   2.270  16.111   9.455
  241POPC   PO4 6612   1.847  15.552   9.477
  241POPC   GL1 6613   2.087  15.728   9.142
  241POPC   GL2 6614   2.005  16.073   9.029
  241POPC   C1A 6615   2.185  15.578   8.742
  241POPC   D2A 6616   2.188  15.589   8.305
  241POPC   C3A 6617   1.792  15.676   8.148
  241POPC   C4A 6618   1.648  15.597   7.719
  241POPC   C1B 6619   1.774  16.415   8.807
  241POPC   C2B 6620   1.833  16.380   8.358
  241POPC   C3B 6621   2.141  16.124   8.162
  241POPC   C4B 6622   1.983  15.985   7.792
  242POPC   NC3 6623   4.889  13.883   9.543
  242POPC   PO4 6624   5.440  13.473   9.491
  242POPC   GL1 6625   5.297  13.464   9.083
  242POPC   GL2 6626   5.406  13.824   9.102
  242POPC   C1A 6627   4.892  13.487   8.838
  242POPC   D2A 6628   4.777  13.665   8.436
  242POPC   C3A 6629   4.801  13.510   8.008
  242POPC   C4A 6630   5.190  13.414   7.804
  242POPC   C1B 6631   5.237  13.823   8.675
  242POPC   C2B 6632   5.227  13.780   8.222
  242POPC   C3B 6633   5.201  13.912   7.817
  242POPC   C4B 6634   5.533  13.848   7.493
  243POPC   NC3 6635   4.753   9.916   9.716
  243POPC   PO4 6636   4.338   9.314   9.622
  243POPC   GL1 6637   4.516   9.420   9.233
  243POPC   GL2 6638   4.707   9.726   9.226
  243POPC   C1A 6639   4.321   9.583   8.832
  243POPC   D2A 6640   4.096   9.587   8.392
  243POPC   C3A 6641   4.157   9.856   8.013
  243POPC   C4A 6642   4.191   9.702   7.576
  243POPC   C1B 6643   4.738   9.902   8.782
  243POPC   C2B 6644   4.594   9.701   8.420
  243POPC   C3B 6645   4.553   9.523   8.033
  243POPC   C4B 6646   4.679   9.924   7.947
  244POPC   NC3 6647  31.377   1.912   9.818
  244POPC   PO4 6648  31.773   2.172   9.319
  244POPC   GL1 6649  31.564   1.927   9.063
  244POPC   GL2 6650  31.264   1.928   9.197
  244POPC   C1A 6651  31.515   1.880   8.642
  244POPC   D2A 6652  31.774   1.784   8.306
  244POPC   C3A 6653  31.656   1.925   7.901
  244POPC   C4A 6654  31.846   1.595   7.719
  244POPC   C1B 6655  31.063   2.055   8.781
  244POPC   C2B 6656  31.086   1.824   8.367
  244POPC   C3B 6657  31.092   2.026   7.996
  244POPC   C4B 6658  31.163   2.116   7.564
  245POPC   NC3 6659  17.702  17.202   9.695
  245POPC   PO4 6660  17.092  17.502   9.705
  245POPC   GL1 6661  17.337  17.398   9.306
  245POPC   GL2 6662  17.716  17.412   9.225
  245POPC   C1A 6663  17.294  17.375   8.852
  245POPC   D2A 6664  17.215  17.190   8.430
  245POPC   C3A 6665  17.155  17.410   8.029
  245POPC   C4A 6666  17.465  17.406   7.669
  245POPC   C1B 6667  17.783  17.556   8.807
  245POPC   C2B 6668  17.934  17.658   8.420
  245POPC   C3B 6669  17.805  17.491   8.045
  245POPC   C4B 6670  17.949  17.558   7.633
  246POPC   NC3 6671  32.674  27.396   9.356
  246POPC   PO4 6672  32.255  27.902   9.569
  246POPC   GL1 6673  32.227  27.596   9.203
  246POPC   GL2 6674  31.960  27.688   8.983
  246POPC   C1A 6675  32.466  27.581   8.790
  246POPC   D2A 6676  32.627  27.782   8.451
  246POPC   C3A 6677  32.530  27.584   8.065
  246POPC   C4A 6678  32.419  27.517   7.614
  246POPC   C1B 6679  32.044  27.319   8.735
  246POPC   C2B 6680  32.166  27.309   8.317
  246POPC   C3B 6681  32.025  27.433   7.924
  246POPC   C4B 6682  31.911  27.182   7.555
  247POPC   NC3 6683  29.274  14.666   9.453
  247POPC   PO4 6684  28.893  14.050   9.443
  247POPC   GL1 6685  28.989  14.348   9.169
  247POPC   GL2 6686  29.340  14.231   9.154
  247POPC   C1A 6687  29.051  14.505   8.766
  247POPC   D2A 6688  28.948  14.344   8.363
  247POPC   C3A 6689  28.925  14.618   8.034
  247POPC   C4A 6690  28.950  14.541   7.643
  247POPC   C1B 6691  29.581  14.385   8.810
  247POPC   C2B 6692  29.469  14.394   8.421
  247POPC   C3B 6693  29.412  14.503   8.038
  247POPC   C4B 6694  29.443  14.370   7.637
  248POPC   NC3 6695  23.180  31.006   9.495
  248POPC   PO4 6696  22.682  30.564   9.512
  248POPC   GL1 6697  22.692  30.565   9.107
  248POPC   GL2 6698  23.038  30.706   9.093
  248POPC   C1A 6699  22.728  30.675   8.698
  248POPC   D2A 6700  22.807  30.436   8.336
  248POPC   C3A 6701  22.694  30.619   7.950
  248POPC   C4A 6702  22.822  30.304   7.604
  248POPC   C1B 6703  23.227  30.749   8.667
  248POPC   C2B 6704  23.050  30.872   8.264
  248POPC   C3B 6705  23.003  31.030   7.840
  248POPC   C4B 6706  23.260  31.089   7.464
  249POPC   NC3 6707  36.932  25.001   9.454
  249POPC   PO4 6708  37.113  25.678   9.406
  249POPC   GL1 6709  37.082  25.420   9.111
  249POPC   GL2 6710  36.771  25.346   9.113
  249POPC   C1A 6711  37.128  25.351   8.694
  249POPC   D2A 6712  36.943  25.037   8.416
  249POPC   C3A 6713  37.250  25.002   8.081
  249POPC   C4A 6714  37.294  25.354   7.785
  249POPC   C1B 6715  36.532  25.079   8.871
  249POPC   C2B 6716  36.414  25.015   8.457
  249POPC   C3B 6717  36.507  24.858   8.082
  249POPC   C4B 6718  36.830  25.010   7.813
  250POPC   NC3 6719  30.212   5.653   9.495
  250POPC   PO4 6720  29.598   6.097   9.496
  250POPC   GL1 6721  29.793   5.914   9.117
  250POPC   GL2 6722  30.155   5.990   9.087
  250POPC   C1A 6723  29.886   5.922   8.658
  250POPC   D2A 6724  29.903   5.640   8.313
  250POPC   C3A 6725  29.900   5.836   7.911
  250POPC   C4A 6726  29.603   6.141   7.815
  250POPC   C1B 6727  30.247   5.577   8.830
  250POPC   C2B 6728  30.341   5.401   8.397
  250POPC   C3B 6729  30.274   5.472   7.947
  250POPC   C4B 6730  30.220   5.685   7.515
  251POPC   NC3 6731   2.180  18.797   9.589
  251POPC   PO4 6732   1.897  18.179   9.447
  251POPC   GL1 6733   2.238  18.416   9.237
  251POPC   GL2 6734   2.022  18.631   9.133
  251POPC   C1A 6735   2.326  18.354   8.822
  251POPC   D2A 6736   2.084  18.108   8.526
  251POPC   C3A 6737   2.057  18.157   8.068
  251POPC   C4A 6738   1.653  18.021   7.897
  251POPC   C1B 6739   1.837  18.483   8.770
  251POPC   C2B 6740   1.907  18.555   8.358
  251POPC   C3B 6741   1.703  18.525   7.972
  251POPC   C4B 6742   1.938  18.534   7.607
  252POPC   NC3 6743  33.778   1.140   9.478
  252POPC   PO4 6744  33.651   1.736   9.719
  252POPC   GL1 6745  33.683   1.640   9.213
  252POPC   GL2 6746  33.969   1.484   9.093
  252POPC   C1A 6747  33.557   1.388   8.797
  252POPC   D2A 6748  33.735   1.123   8.464
  252POPC   C3A 6749  33.571   1.140   8.045
  252POPC   C4A 6750  33.585   0.978   7.624
  252POPC   C1B 6751  34.056   1.520   8.659
  252POPC   C2B 6752  34.154   1.356   8.247
  252POPC   C3B 6753  34.057   1.253   7.837
  252POPC   C4B 6754  34.254   1.545   7.537
  253POPC   NC3 6755  25.043  18.473   9.474
  253POPC   PO4 6756  25.405  17.955   9.699
  253POPC   GL1 6757  25.437  18.136   9.281
  253POPC   GL2 6758  25.572  18.500   9.315
  253POPC   C1A 6759  25.219  18.041   8.860
  253POPC   D2A 6760  25.106  17.825   8.460
  253POPC   C3A 6761  25.150  17.966   8.022
  253POPC   C4A 6762  25.419  18.056   7.677
  253POPC   C1B 6763  25.590  18.394   8.860
  253POPC   C2B 6764  25.359  18.334   8.458
  253POPC   C3B 6765  25.436  18.403   8.039
  253POPC   C4B 6766  25.600  18.543   7.658
  254POPC   NC3 6767  30.366  42.347   9.557
  254POPC   PO4 6768  29.776  42.267   9.557
  254POPC   GL1 6769  30.018  42.431   9.150
  254POPC   GL2 6770  30.259  42.725   9.145
  254POPC   C1A 6771  30.078  42.346   8.674
  254POPC   D2A 6772  30.276  42.364   8.234
  254POPC   C3A 6773  29.986  42.156   7.926
  254POPC   C4A 6774  29.663  42.285   7.619
  254POPC   C1B 6775  30.292  42.802   8.681
  254POPC   C2B 6776  29.992  42.766   8.347
  254POPC   C3B 6777  29.990  42.693   7.902
  254POPC   C4B 6778  29.952  42.647   7.462
  255POPC   NC3 6779  12.384  32.090   9.235
  255POPC   PO4 6780  12.807  32.258   9.765
  255POPC   GL1 6781  12.866  32.303   9.289
  255POPC   GL2 6782  13.070  31.999   9.192
  255POPC   C1A 6783  12.827  32.388   8.802
  255POPC   D2A 6784  12.970  32.586   8.375
  255POPC   C3A 6785  12.876  32.455   7.948
  255POPC   C4A 6786  12.550  32.294   7.759
  255POPC   C1B 6787  13.027  31.834   8.758
  255POPC   C2B 6788  13.155  31.992   8.333
  255POPC   C3B 6789  12.941  31.953   7.930
  255POPC   C4B 6790  12.911  32.087   7.485
  256POPC   NC3 6791   2.136  11.014   9.367
  256POPC   PO4 6792   1.737  11.486   9.498
  256POPC   GL1 6793   1.961  11.423   9.122
  256POPC   GL2 6794   2.332  11.488   9.181
  256POPC   C1A 6795   1.812  11.343   8.714
  256POPC   D2A 6796   1.608  11.458   8.349
  256POPC   C3A 6797   1.836  11.339   7.997
  256POPC   C4A 6798   1.942  11.133   7.624
  256POPC   C1B 6799   2.340  11.277   8.784
  256POPC   C2B 6800   2.178  10.997   8.461
  256POPC   C3B 6801   2.248  11.032   8.030
  256POPC   C4B 6802   2.317  11.457   7.867
  257POPC   NC3 6803  42.311   6.097   9.440
  257POPC   PO4 6804  42.671   5.579   9.432
  257POPC   GL1 6805  42.554   5.850   9.034
  257POPC   GL2 6806  42.172   5.882   9.006
  257POPC   C1A 6807  42.559   5.862   8.567
  257POPC   D2A 6808  42.734   6.090   8.195
  257POPC   C3A 6809  42.414   6.067   7.900
  257POPC   C4A 6810  42.255   5.635   7.923
  257POPC   C1B 6811  42.074   5.698   8.650
  257POPC   C2B 6812  42.113   6.022   8.347
  257POPC   C3B 6813  41.914   6.015   7.997
  257POPC   C4B 6814  41.751   5.657   7.804
  258POPC   NC3 6815  40.131  18.316   9.497
  258POPC   PO4 6816  39.646  17.917   9.735
  258POPC   GL1 6817  39.802  17.938   9.247
  258POPC   GL2 6818  39.757  18.287   9.065
  258POPC   C1A 6819  39.997  17.955   8.789
  258POPC   D2A 6820  39.947  18.188   8.361
  258POPC   C3A 6821  39.897  18.182   7.883
  258POPC   C4A 6822  39.917  18.120   7.425
  258POPC   C1B 6823  40.092  18.480   8.766
  258POPC   C2B 6824  40.281  18.549   8.307
  258POPC   C3B 6825  40.199  18.603   7.857
  258POPC   C4B 6826  40.196  18.577   7.379
  259POPC   NC3 6827  36.259  40.829   9.627
  259POPC   PO4 6828  35.853  40.361   9.498
  259POPC   GL1 6829  36.129  40.616   9.192
  259POPC   GL2 6830  36.060  40.989   9.179
  259POPC   C1A 6831  36.239  40.774   8.783
  259POPC   D2A 6832  36.306  41.037   8.473
  259POPC   C3A 6833  36.291  40.824   8.134
  259POPC   C4A 6834  36.289  40.590   7.798
  259POPC   C1B 6835  35.791  41.092   8.811
  259POPC   C2B 6836  35.852  41.246   8.412
  259POPC   C3B 6837  35.833  41.074   8.027
  259POPC   C4B 6838  35.650  41.069   7.627
  260POPC   NC3 6839  25.027  14.115   9.547
  260POPC   PO4 6840  25.541  14.567   9.557
  260POPC   GL1 6841  25.263  14.465   9.256
  260POPC   GL2 6842  25.352  14.142   9.141
  260POPC   C1A 6843  25.172  14.613   8.888
  260POPC   D2A 6844  25.326  14.608   8.461
  260POPC   C3A 6845  25.136  14.743   8.105
  260POPC   C4A 6846  25.156  14.593   7.721
  260POPC   C1B 6847  25.324  14.144   8.690
  260POPC   C2B 6848  25.236  14.040   8.264
  260POPC   C3B 6849  25.169  14.104   7.830
  260POPC   C4B 6850  25.449  14.240   7.486
  261POPC   NC3 6851  43.524  36.520   9.297
  261POPC   PO4 6852  42.974  36.349   9.643
  261POPC   GL1 6853  43.107  36.135   9.240
  261POPC   GL2 6854  43.152  36.353   9.006
  261POPC   C1A 6855  43.180  35.919   8.794
  261POPC   D2A 6856  42.932  35.947   8.443
  261POPC   C3A 6857  43.059  36.033   8.016
  261POPC   C4A 6858  42.946  36.262   7.677
  261POPC   C1B 6859  43.310  36.522   8.686
  261POPC   C2B 6860  43.319  36.349   8.333
  261POPC   C3B 6861  43.429  36.403   7.929
  261POPC   C4B 6862  43.457  36.121   7.638
  262POPC   NC3 6863  19.315  36.611   9.410
  262POPC   PO4 6864  18.709  36.416   9.485
  262POPC   GL1 6865  18.905  36.684   9.108
  262POPC   GL2 6866  19.232  36.932   9.027
  262POPC   C1A 6867  18.864  36.846   8.698
  262POPC   D2A 6868  18.659  36.993   8.362
  262POPC   C3A 6869  18.886  36.941   8.024
  262POPC   C4A 6870  19.064  36.840   7.666
  262POPC   C1B 6871  19.428  37.159   8.680
  262POPC   C2B 6872  19.295  37.110   8.256
  262POPC   C3B 6873  19.477  37.093   7.844
  262POPC   C4B 6874  19.414  37.026   7.365
  263POPC   NC3 6875  23.555  24.035   9.399
  263POPC   PO4 6876  23.936  23.555   9.312
  263POPC   GL1 6877  23.864  23.868   9.027
  263POPC   GL2 6878  24.015  24.170   9.168
  263POPC   C1A 6879  23.778  23.750   8.633
  263POPC   D2A 6880  23.542  23.497   8.370
  263POPC   C3A 6881  23.834  23.337   8.088
  263POPC   C4A 6882  23.612  23.386   7.719
  263POPC   C1B 6883  24.149  24.159   8.711
  263POPC   C2B 6884  23.950  24.102   8.301
  263POPC   C3B 6885  23.745  23.827   7.975
  263POPC   C4B 6886  23.848  23.803   7.525
  264POPC   NC3 6887   9.031  39.901   9.364
  264POPC   PO4 6888   8.560  40.391   9.446
  264POPC   GL1 6889   8.824  40.292   9.092
  264POPC   GL2 6890   8.708  39.936   8.985
  264POPC   C1A 6891   8.941  40.242   8.653
  264POPC   D2A 6892   8.663  40.007   8.379
  264POPC   C3A 6893   8.866  40.007   7.984
  264POPC   C4A 6894   9.203  40.192   7.764
  264POPC   C1B 6895   8.886  39.652   8.711
  264POPC   C2B 6896   8.901  39.542   8.309
  264POPC   C3B 6897   8.968  39.506   7.892
  264POPC   C4B 6898   9.128  39.725   7.569
  265POPC   NC3 6899  20.085  13.770   9.522
  265POPC   PO4 6900  19.573  13.238   9.503
  265POPC   GL1 6901  19.761  13.339   9.109
  265POPC   GL2 6902  20.109  13.357   9.099
  265POPC   C1A 6903  19.859  13.502   8.688
  265POPC   D2A 6904  19.649  13.801   8.409
  265POPC   C3A 6905  19.837  13.804   7.991
  265POPC   C4A 6906  20.124  13.465   7.878
  265POPC   C1B 6907  20.311  13.702   8.894
  265POPC   C2B 6908  20.321  13.738   8.445
  265POPC   C3B 6909  20.393  13.884   8.048
  265POPC   C4B 6910  20.239  13.922   7.645
  266POPC   NC3 6911  41.204  19.022   9.818
  266POPC   PO4 6912  40.571  18.887   9.534
  266POPC   GL1 6913  40.564  18.834   9.105
  266POPC   GL2 6914  40.307  19.094   9.024
  266POPC   C1A 6915  40.900  18.860   8.773
  266POPC   D2A 6916  40.835  19.054   8.367
  266POPC   C3A 6917  41.065  19.042   7.963
  266POPC   C4A 6918  40.966  19.354   7.649
  266POPC   C1B 6919  40.400  18.911   8.631
  266POPC   C2B 6920  40.342  19.042   8.217
  266POPC   C3B 6921  40.533  19.169   7.855
  266POPC   C4B 6922  40.486  19.335   7.439
  267POPC   NC3 6923  24.565  35.762   9.600
  267POPC   PO4 6924  24.321  36.374   9.427
  267POPC   GL1 6925  24.576  36.057   9.166
  267POPC   GL2 6926  24.797  35.726   9.155
  267POPC   C1A 6927  24.583  36.144   8.746
  267POPC   D2A 6928  24.215  36.218   8.468
  267POPC   C3A 6929  24.376  36.308   8.056
  267POPC   C4A 6930  24.614  36.306   7.661
  267POPC   C1B 6931  24.626  35.626   8.749
  267POPC   C2B 6932  24.503  35.841   8.332
  267POPC   C3B 6933  24.542  35.835   7.892
  267POPC   C4B 6934  24.497  35.739   7.480
  268POPC   NC3 6935  26.630  27.441   9.433
  268POPC   PO4 6936  27.021  28.022   9.510
  268POPC   GL1 6937  26.982  27.738   9.180
  268POPC   GL2 6938  26.680  27.892   9.117
  268POPC   C1A 6939  26.797  27.516   8.805
  268POPC   D2A 6940  26.884  27.681   8.426
  268POPC   C3A 6941  26.665  27.652   8.062
  268POPC   C4A 6942  26.740  27.287   7.861
  268POPC   C1B 6943  26.399  27.875   8.806
  268POPC   C2B 6944  26.319  27.856   8.403
  268POPC   C3B 6945  26.333  28.060   8.027
  268POPC   C4B 6946  26.649  28.097   7.757
  269POPC   NC3 6947  29.474  34.271   9.454
  269POPC   PO4 6948  28.919  34.587   9.426
  269POPC   GL1 6949  29.103  34.425   9.063
  269POPC   GL2 6950  29.409  34.575   9.033
  269POPC   C1A 6951  29.027  34.387   8.623
  269POPC   D2A 6952  28.925  34.305   8.197
  269POPC   C3A 6953  29.169  34.533   7.899
  269POPC   C4A 6954  29.044  34.526   7.461
  269POPC   C1B 6955  29.533  34.306   8.709
  269POPC   C2B 6956  29.441  34.273   8.277
  269POPC   C3B 6957  29.651  34.199   7.897
  269POPC   C4B 6958  29.530  34.384   7.511
  270POPC   NC3 6959   0.161  27.297   9.587
  270POPC   PO4 6960   0.820  27.478   9.680
  270POPC   GL1 6961   0.532  27.535   9.280
  270POPC   GL2 6962   0.231  27.488   9.130
  270POPC   C1A 6963   0.576  27.774   8.875
  270POPC   D2A 6964   0.637  27.614   8.444
  270POPC   C3A 6965   0.410  27.810   8.091
  270POPC   C4A 6966   0.533  28.011   7.712
  270POPC   C1B 6967   0.157  27.545   8.713
  270POPC   C2B 6968   0.203  27.348   8.333
  270POPC   C3B 6969   0.407  27.304   7.965
  270POPC   C4B 6970   0.537  27.527   7.619
  271POPC   NC3 6971  31.625  11.447   9.623
  271POPC   PO4 6972  31.060  11.068   9.509
  271POPC   GL1 6973  31.295  11.320   9.221
  271POPC   GL2 6974  31.570  11.091   9.249
  271POPC   C1A 6975  31.345  11.561   8.834
  271POPC   D2A 6976  31.375  11.355   8.431
  271POPC   C3A 6977  31.280  11.599   8.091
  271POPC   C4A 6978  30.897  11.857   8.116
  271POPC   C1B 6979  31.725  11.222   8.842
  271POPC   C2B 6980  31.860  11.279   8.415
  271POPC   C3B 6981  31.613  11.207   8.006
  271POPC   C4B 6982  31.698  11.427   7.623
  272POPC   NC3 6983  33.272   1.835   9.469
  272POPC   PO4 6984  32.621   2.080   9.550
  272POPC   GL1 6985  32.882   2.076   9.181
  272POPC   GL2 6986  33.050   2.415   9.145
  272POPC   C1A 6987  32.998   2.015   8.747
  272POPC   D2A 6988  32.953   1.788   8.367
  272POPC   C3A 6989  32.911   2.010   8.050
  272POPC   C4A 6990  32.635   2.207   7.850
  272POPC   C1B 6991  33.293   2.433   8.748
  272POPC   C2B 6992  33.187   2.378   8.306
  272POPC   C3B 6993  33.217   2.353   7.846
  272POPC   C4B 6994  33.375   2.426   7.428
  273POPC   NC3 6995  25.422  25.793   9.379
  273POPC   PO4 6996  25.267  26.418   9.491
  273POPC   GL1 6997  25.314  26.216   9.130
  273POPC   GL2 6998  25.071  25.945   9.011
  273POPC   C1A 6999  25.538  26.120   8.774
  273POPC   D2A 7000  25.302  26.067   8.421
  273POPC   C3A 7001  25.579  26.170   8.121
  273POPC   C4A 7002  25.630  26.169   7.725
  273POPC   C1B 7003  25.333  25.645   8.741
  273POPC   C2B 7004  25.455  25.564   8.314
  273POPC   C3B 7005  25.258  25.801   7.976
  273POPC   C4B 7006  25.338  25.807   7.535
  274POPC   NC3 7007  42.513  14.598   9.589
  274POPC   PO4 7008  41.884  14.646   9.530
  274POPC   GL1 7009  42.102  14.460   9.165
  274POPC   GL2 7010  42.487  14.412   9.114
  274POPC   C1A 7011  42.031  14.421   8.718
  274POPC   D2A 7012  42.200  14.650   8.377
  274POPC   C3A 7013  42.206  14.546   7.958
  274POPC   C4A 7014  42.610  14.493   7.807
  274POPC   C1B 7015  42.389  14.043   8.832
  274POPC   C2B 7016  42.304  14.082   8.396
  274POPC   C3B 7017  42.395  14.029   7.979
  274POPC   C4B 7018  42.056  14.108   7.713
  275POPC   NC3 7019  38.609  35.942   9.420
  275POPC   PO4 7020  38.360  36.535   9.396
  275POPC   GL1 7021  38.543  36.283   9.047
  275POPC   GL2 7022  38.805  35.984   8.968
  275POPC   C1A 7023  38.352  36.134   8.688
  275POPC   D2A 7024  38.198  36.406   8.350
  275POPC   C3A 7025  38.081  36.112   8.052
  275POPC   C4A 7026  38.216  35.857   7.699
  275POPC   C1B 7027  38.867  36.251   8.647
  275POPC   C2B 7028  38.657  36.201   8.258
  275POPC   C3B 7029  38.683  35.955   7.904
  275POPC   C4B 7030  38.977  36.105   7.629
  276POPC   NC3 7031   7.124  30.092   9.881
  276POPC   PO4 7032   7.613  30.005   9.435
  276POPC   GL1 7033   7.673  29.845   9.069
  276POPC   GL2 7034   7.316  29.765   9.004
  276POPC   C1A 7035   7.574  30.061   8.708
  276POPC   D2A 7036   7.365  30.001   8.326
  276POPC   C3A 7037   7.545  30.106   7.912
  276POPC   C4A 7038   7.132  30.258   7.736
  276POPC   C1B 7039   7.110  29.582   8.663
  276POPC   C2B 7040   7.281  29.499   8.255
  276POPC   C3B 7041   7.190  29.740   7.900
  276POPC   C4B 7042   7.126  29.688   7.466
  277POPC   NC3 7043  15.603  43.356   9.513
  277POPC   PO4 7044  16.014  42.851   9.743
  277POPC   GL1 7045  15.892  42.964   9.258
  277POPC   GL2 7046  16.181  43.040   9.004
  277POPC   C1A 7047  15.715  43.145   8.860
  277POPC   D2A 7048  15.961  43.190   8.472
  277POPC   C3A 7049  15.713  43.024   8.115
  277POPC   C4A 7050  15.651  43.221   7.724
  277POPC   C1B 7051  16.391  42.917   8.630
  277POPC   C2B 7052  16.467  43.171   8.304
  277POPC   C3B 7053  16.220  43.194   7.982
  277POPC   C4B 7054  16.069  42.888   7.770
  278POPC   NC3 7055   9.044  13.429   9.519
  278POPC   PO4 7056   8.881  14.062   9.514
  278POPC   GL1 7057   8.785  13.773   9.180
  278POPC   GL2 7058   9.102  13.606   9.049
  278POPC   C1A 7059   8.665  13.708   8.756
  278POPC   D2A 7060   8.848  13.742   8.344
  278POPC   C3A 7061   8.759  13.957   7.944
  278POPC   C4A 7062   8.917  13.775   7.556
  278POPC   C1B 7063   9.046  13.346   8.692
  278POPC   C2B 7064   8.880  13.231   8.303
  278POPC   C3B 7065   9.016  13.451   7.969
  278POPC   C4B 7066   9.259  13.435   7.657
  279POPC   NC3 7067  40.260   0.821   9.918
  279POPC   PO4 7068  40.328   0.345   9.489
  279POPC   GL1 7069  40.126   0.285   9.121
  279POPC   GL2 7070  39.868   0.046   9.183
  279POPC   C1A 7071  40.073   0.410   8.699
  279POPC   D2A 7072  40.165   0.149   8.351
  279POPC   C3A 7073  40.040   0.325   7.972
  279POPC   C4A 7074  40.235   0.470   7.628
  279POPC   C1B 7075  39.665   0.099   8.773
  279POPC   C2B 7076  39.664   0.283   8.350
  279POPC   C3B 7077  39.661   0.661   8.109
  279POPC   C4B 7078  39.800   0.757   7.696
  280POPC   NC3 7079   0.983  12.606   9.466
  280POPC   PO4 7080   1.554  13.042   9.423
  280POPC   GL1 7081   1.362  12.767   9.165
  280POPC   GL2 7082   1.027  12.941   9.077
  280POPC   C1A 7083   1.322  12.707   8.753
  280POPC   D2A 7084   1.190  12.927   8.396
  280POPC   C3A 7085   1.584  12.967   8.131
  280POPC   C4A 7086   1.606  12.688   7.776
  280POPC   C1B 7087   0.834  13.221   8.769
  280POPC   C2B 7088   0.559  13.123   8.424
  280POPC   C3B 7089   0.744  12.956   8.076
  280POPC   C4B 7090   1.145  13.030   7.890
  281POPC   NC3 7091  22.547   3.844   9.455
  281POPC   PO4 7092  23.064   3.437   9.389
  281POPC   GL1 7093  22.902   3.633   9.074
  281POPC   GL2 7094  22.850   3.308   8.884
  281POPC   C1A 7095  23.061   3.723   8.675
  281POPC   D2A 7096  23.254   3.434   8.410
  281POPC   C3A 7097  22.929   3.306   8.123
  281POPC   C4A 7098  22.945   3.374   7.690
  281POPC   C1B 7099  22.561   3.635   8.699
  281POPC   C2B 7100  22.512   3.908   8.361
  281POPC   C3B 7101  22.377   3.851   7.956
  281POPC   C4B 7102  22.597   3.717   7.600
  282POPC   NC3 7103  29.702   2.291   9.444
  282POPC   PO4 7104  30.230   1.999   9.674
  282POPC   GL1 7105  30.191   1.988   9.206
  282POPC   GL2 7106  29.843   1.886   9.153
  282POPC   C1A 7107  30.188   1.766   8.801
  282POPC   D2A 7108  29.902   1.697   8.467
  282POPC   C3A 7109  30.102   1.852   8.107
  282POPC   C4A 7110  30.149   1.663   7.710
  282POPC   C1B 7111  29.876   2.197   8.803
  282POPC   C2B 7112  29.610   2.371   8.479
  282POPC   C3B 7113  29.648   2.160   8.112
  282POPC   C4B 7114  29.554   2.216   7.711
  283POPC   NC3 7115  24.351   3.213   9.535
  283POPC   PO4 7116  24.230   3.866   9.475
  283POPC   GL1 7117  24.277   3.568   9.122
  283POPC   GL2 7118  24.558   3.320   9.082
  283POPC   C1A 7119  24.417   3.624   8.682
  283POPC   D2A 7120  24.416   3.815   8.247
  283POPC   C3A 7121  24.250   3.581   7.894
  283POPC   C4A 7122  24.214   3.552   7.448
  283POPC   C1B 7123  24.832   3.328   8.732
  283POPC   C2B 7124  24.942   3.190   8.332
  283POPC   C3B 7125  24.755   3.364   7.947
  283POPC   C4B 7126  24.688   3.701   7.651
  284POPC   NC3 7127   0.730  35.254   9.625
  284POPC   PO4 7128   1.240  35.645   9.612
  284POPC   GL1 7129   0.980  35.580   9.240
  284POPC   GL2 7130   1.016  35.221   9.180
  284POPC   C1A 7131   1.096  35.544   8.799
  284POPC   D2A 7132   1.326  35.268   8.495
  284POPC   C3A 7133   1.284  35.351   8.069
  284POPC   C4A 7134   1.263  35.226   7.645
  284POPC   C1B 7135   0.815  35.142   8.758
  284POPC   C2B 7136   0.831  35.345   8.334
  284POPC   C3B 7137   0.824  35.151   7.873
  284POPC   C4B 7138   0.837  35.269   7.383
  285POPC   NC3 7139  30.542  26.543   9.477
  285POPC   PO4 7140  30.853  27.155   9.483
  285POPC   GL1 7141  30.664  26.947   9.184
  285POPC   GL2 7142  30.918  26.672   9.169
  285POPC   C1A 7143  30.603  26.820   8.796
  285POPC   D2A 7144  30.830  26.997   8.499
  285POPC   C3A 7145  30.833  26.758   8.185
  285POPC   C4A 7146  30.784  26.740   7.782
  285POPC   C1B 7147  31.045  26.562   8.749
  285POPC   C2B 7148  31.061  26.325   8.375
  285POPC   C3B 7149  30.897  26.286   7.998
  285POPC   C4B 7150  31.041  26.306   7.594
  286POPC   NC3 7151  32.228  40.356   9.768
  286POPC   PO4 7152  32.590  39.809   9.589
  286POPC   GL1 7153  32.333  40.011   9.311
  286POPC   GL2 7154  32.045  39.806   9.278
  286POPC   C1A 7155  32.497  40.008   8.895
  286POPC   D2A 7156  32.645  39.764   8.532
  286POPC   C3A 7157  32.523  39.986   8.160
  286POPC   C4A 7158  32.283  40.133   7.816
  286POPC   C1B 7159  32.088  39.706   8.858
  286POPC   C2B 7160  32.152  39.628   8.452
  286POPC   C3B 7161  32.105  39.697   8.017
  286POPC   C4B 7162  31.915  39.623   7.632
  287POPC   NC3 7163   7.525  44.285   9.443
  287POPC   PO4 7164   7.415  43.704   9.570
  287POPC   GL1 7165   7.411  43.869   9.177
  287POPC   GL2 7166   7.139  44.080   9.124
  287POPC   C1A 7167   7.318  43.715   8.778
  287POPC   D2A 7168   7.187  43.903   8.412
  287POPC   C3A 7169   7.246  43.675   8.021
  287POPC   C4A 7170   7.382  43.768   7.601
  287POPC   C1B 7171   7.439  44.227   8.800
  287POPC   C2B 7172   7.516  44.307   8.387
  287POPC   C3B 7173   7.382  44.192   7.964
  287POPC   C4B 7174   7.144  44.399   7.632
  288POPC   NC3 7175  24.978   2.574   9.597
  288POPC   PO4 7176  24.339   2.716   9.550
  288POPC   GL1 7177  24.371   2.842   9.153
  288POPC   GL2 7178  24.101   3.000   9.130
  288POPC   C1A 7179  24.592   2.806   8.756
  288POPC   D2A 7180  24.543   2.622   8.355
  288POPC   C3A 7181  24.727   2.844   8.010
  288POPC   C4A 7182  24.866   2.991   7.581
  288POPC   C1B 7183  24.222   3.144   8.745
  288POPC   C2B 7184  24.425   3.155   8.376
  288POPC   C3B 7185  24.186   3.088   8.021
  288POPC   C4B 7186  24.372   3.116   7.663
  289POPC   NC3 7187  22.573  14.321   9.565
  289POPC   PO4 7188  23.157  14.651   9.475
  289POPC   GL1 7189  23.053  14.496   9.103
  289POPC   GL2 7190  22.906  14.229   9.119
  289POPC   C1A 7191  22.994  14.554   8.650
  289POPC   D2A 7192  22.803  14.888   8.385
  289POPC   C3A 7193  22.891  14.762   7.972
  289POPC   C4A 7194  23.145  14.432   7.773
  289POPC   C1B 7195  22.578  14.475   8.916
  289POPC   C2B 7196  22.466  14.500   8.488
  289POPC   C3B 7197  22.544  14.354   8.056
  289POPC   C4B 7198  22.603  14.465   7.657
  290POPC   NC3 7199  15.889   5.652   9.662
  290POPC   PO4 7200  15.945   6.255   9.477
  290POPC   GL1 7201  16.052   5.916   9.184
  290POPC   GL2 7202  15.733   5.762   9.167
  290POPC   C1A 7203  16.258   5.894   8.746
  290POPC   D2A 7204  16.346   6.051   8.297
  290POPC   C3A 7205  16.144   5.871   7.892
  290POPC   C4A 7206  16.253   5.865   7.406
  290POPC   C1B 7207  15.743   5.947   8.772
  290POPC   C2B 7208  15.885   5.753   8.395
  290POPC   C3B 7209  15.667   5.713   8.044
  290POPC   C4B 7210  15.676   6.092   7.844
  291POPC   NC3 7211   0.874  36.784   9.420
  291POPC   PO4 7212   1.329  37.327   9.575
  291POPC   GL1 7213   1.054  37.211   9.208
  291POPC   GL2 7214   1.370  37.115   9.066
  291POPC   C1A 7215   0.969  36.935   8.808
  291POPC   D2A 7216   1.291  36.815   8.530
  291POPC   C3A 7217   1.157  36.775   8.126
  291POPC   C4A 7218   1.126  36.603   7.718
  291POPC   C1B 7219   1.225  37.357   8.720
  291POPC   C2B 7220   1.222  37.277   8.283
  291POPC   C3B 7221   1.309  37.237   7.864
  291POPC   C4B 7222   0.973  37.174   7.562
  292POPC   NC3 7223  29.399  18.047   9.510
  292POPC   PO4 7224  28.750  18.292   9.549
  292POPC   GL1 7225  28.956  18.118   9.188
  292POPC   GL2 7226  29.272  18.257   9.050
  292POPC   C1A 7227  28.947  17.980   8.774
  292POPC   D2A 7228  29.200  18.114   8.446
  292POPC   C3A 7229  29.036  18.150   8.024
  292POPC   C4A 7230  29.283  18.306   7.689
  292POPC   C1B 7231  29.022  18.512   8.741
  292POPC   C2B 7232  29.085  18.623   8.295
  292POPC   C3B 7233  28.918  18.675   7.864
  292POPC   C4B 7234  28.817  18.600   7.406
  293POPC   NC3 7235  31.107  34.965   9.274
  293POPC   PO4 7236  30.868  35.393   9.754
  293POPC   GL1 7237  30.725  35.291   9.311
  293POPC   GL2 7238  30.962  35.474   9.241
  293POPC   C1A 7239  30.518  35.217   8.893
  293POPC   D2A 7240  30.697  35.064   8.486
  293POPC   C3A 7241  30.475  35.133   8.080
  293POPC   C4A 7242  30.553  34.971   7.650
  293POPC   C1B 7243  30.938  35.480   8.814
  293POPC   C2B 7244  30.676  35.609   8.484
  293POPC   C3B 7245  30.786  35.707   8.060
  293POPC   C4B 7246  30.687  35.465   7.721
  294POPC   NC3 7247  24.375  39.630   9.578
  294POPC   PO4 7248  24.682  40.214   9.457
  294POPC   GL1 7249  24.403  39.986   9.175
  294POPC   GL2 7250  24.465  39.617   9.085
  294POPC   C1A 7251  24.346  40.254   8.824
  294POPC   D2A 7252  24.594  40.358   8.458
  294POPC   C3A 7253  24.373  40.266   8.050
  294POPC   C4A 7254  24.573  40.118   7.688
  294POPC   C1B 7255  24.557  39.785   8.688
  294POPC   C2B 7256  24.564  39.863   8.263
  294POPC   C3B 7257  24.477  39.658   7.871
  294POPC   C4B 7258  24.424  39.584   7.421
  295POPC   NC3 7259  11.636   5.771   9.610
  295POPC   PO4 7260  11.312   6.299   9.440
  295POPC   GL1 7261  11.383   5.949   9.170
  295POPC   GL2 7262  11.054   5.844   9.106
  295POPC   C1A 7263  11.356   5.934   8.714
  295POPC   D2A 7264  11.550   5.900   8.320
  295POPC   C3A 7265  11.373   6.109   7.943
  295POPC   C4A 7266  11.474   6.185   7.491
  295POPC   C1B 7267  10.846   5.818   8.722
  295POPC   C2B 7268  11.052   5.736   8.334
  295POPC   C3B 7269  11.205   5.616   7.941
  295POPC   C4B 7270  11.124   5.812   7.565
  296POPC   NC3 7271  21.383  16.123   9.493
  296POPC   PO4 7272  21.200  15.390   9.432
  296POPC   GL1 7273  21.438  15.639   9.130
  296POPC   GL2 7274  21.431  15.964   9.035
  296POPC   C1A 7275  21.447  15.692   8.636
  296POPC   D2A 7276  21.650  15.824   8.255
  296POPC   C3A 7277  21.319  15.988   7.955
  296POPC   C4A 7278  21.107  15.943   7.530
  296POPC   C1B 7279  21.497  16.215   8.686
  296POPC   C2B 7280  21.624  16.328   8.277
  296POPC   C3B 7281  21.797  16.160   7.880
  296POPC   C4B 7282  21.558  16.205   7.510
  297POPC   NC3 7283  44.654  37.667   9.747
  297POPC   PO4 7284  44.523  38.054   9.223
  297POPC   GL1 7285  44.795  37.815   9.042
  297POPC   GL2 7286  44.781  37.523   9.251
  297POPC   C1A 7287  44.843  37.732   8.611
  297POPC   D2A 7288  44.581  37.707   8.255
  297POPC   C3A 7289  44.675  37.706   7.822
  297POPC   C4A 7290  44.484  37.940   7.475
  297POPC   C1B 7291  44.654  37.284   8.872
  297POPC   C2B 7292  44.855  37.191   8.474
  297POPC   C3B 7293  44.968  37.283   8.038
  297POPC   C4B 7294  44.640  37.205   7.731
  298POPC   NC3 7295  39.393  12.905   9.747
  298POPC   PO4 7296  39.556  12.603   9.200
  298POPC   GL1 7297  39.210  12.763   8.951
  298POPC   GL2 7298  38.967  12.833   9.177
  298POPC   C1A 7299  39.086  13.171   8.720
  298POPC   D2A 7300  39.200  13.314   8.311
  298POPC   C3A 7301  39.388  12.972   8.102
  298POPC   C4A 7302  39.410  12.806   7.706
  298POPC   C1B 7303  38.747  12.799   8.756
  298POPC   C2B 7304  38.895  12.842   8.300
  298POPC   C3B 7305  38.919  12.880   7.823
  298POPC   C4B 7306  38.959  12.847   7.340
  299POPC   NC3 7307  12.057  21.241   9.718
  299POPC   PO4 7308  12.235  20.540   9.507
  299POPC   GL1 7309  12.286  20.673   9.079
  299POPC   GL2 7310  11.918  20.643   9.025
  299POPC   C1A 7311  12.320  20.868   8.641
  299POPC   D2A 7312  12.511  20.586   8.334
  299POPC   C3A 7313  12.332  20.554   7.913
  299POPC   C4A 7314  12.390  20.869   7.610
  299POPC   C1B 7315  12.048  20.439   8.662
  299POPC   C2B 7316  11.985  20.557   8.269
  299POPC   C3B 7317  11.836  20.765   7.871
  299POPC   C4B 7318  11.994  20.566   7.491
  300POPC   NC3 7319  24.282  27.071   9.403
  300POPC   PO4 7320  24.577  26.506   9.576
  300POPC   GL1 7321  24.552  26.697   9.193
  300POPC   GL2 7322  24.182  26.610   9.149
  300POPC   C1A 7323  24.674  26.886   8.800
  300POPC   D2A 7324  24.498  26.788   8.394
  300POPC   C3A 7325  24.756  26.801   8.056
  300POPC   C4A 7326  24.942  26.696   7.688
  300POPC   C1B 7327  24.146  26.885   8.779
  300POPC   C2B 7328  24.090  27.084   8.367
  300POPC   C3B 7329  24.111  26.990   7.914
  300POPC   C4B 7330  24.463  26.926   7.664
  301POPC   NC3 7331  10.958   7.764  10.107
  301POPC   PO4 7332  10.389   7.575   9.720
  301POPC   GL1 7333  10.572   7.452   9.302
  301POPC   GL2 7334  10.457   7.722   9.116
  301POPC   C1A 7335  10.600   7.324   8.836
  301POPC   D2A 7336  10.445   7.425   8.397
  301POPC   C3A 7337  10.684   7.247   8.002
  301POPC   C4A 7338  10.577   7.289   7.536
  301POPC   C1B 7339  10.760   7.851   8.799
  301POPC   C2B 7340  10.808   7.784   8.362
  301POPC   C3B 7341  10.695   7.742   7.920
  301POPC   C4B 7342  10.992   7.908   7.658
  302POPC   NC3 7343  34.903  31.118   9.550
  302POPC   PO4 7344  34.550  31.627   9.763
  302POPC   GL1 7345  34.669  31.527   9.336
  302POPC   GL2 7346  34.916  31.717   9.336
  302POPC   C1A 7347  34.509  31.552   8.915
  302POPC   D2A 7348  34.637  31.724   8.526
  302POPC   C3A 7349  34.531  31.450   8.205
  302POPC   C4A 7350  34.552  31.430   7.775
  302POPC   C1B 7351  35.000  31.710   8.905
  302POPC   C2B 7352  35.146  31.703   8.456
  302POPC   C3B 7353  34.930  31.749   8.068
  302POPC   C4B 7354  34.738  31.931   7.703
  303POPC   NC3 7355  36.319   0.997   9.511
  303POPC   PO4 7356  35.815   1.445   9.439
  303POPC   GL1 7357  36.041   1.228   9.123
  303POPC   GL2 7358  36.382   1.320   9.026
  303POPC   C1A 7359  35.953   1.233   8.707
  303POPC   D2A 7360  36.025   1.084   8.312
  303POPC   C3A 7361  36.102   1.432   8.017
  303POPC   C4A 7362  35.954   1.337   7.598
  303POPC   C1B 7363  36.365   0.917   8.781
  303POPC   C2B 7364  36.486   0.810   8.338
  303POPC   C3B 7365  36.341   0.985   7.912
  303POPC   C4B 7366  36.437   1.071   7.487
  304POPC   NC3 7367  39.575  35.718   9.445
  304POPC   PO4 7368  39.129  35.267   9.665
  304POPC   GL1 7369  39.218  35.327   9.230
  304POPC   GL2 7370  39.266  34.986   9.062
  304POPC   C1A 7371  39.082  35.406   8.812
  304POPC   D2A 7372  39.125  35.112   8.479
  304POPC   C3A 7373  39.080  35.320   8.076
  304POPC   C4A 7374  39.030  35.586   7.720
  304POPC   C1B 7375  39.587  35.034   8.732
  304POPC   C2B 7376  39.608  35.082   8.298
  304POPC   C3B 7377  39.385  34.912   7.980
  304POPC   C4B 7378  39.374  35.178   7.652
  305POPC   NC3 7379  33.671  42.819   9.494
  305POPC   PO4 7380  34.130  43.243   9.539
  305POPC   GL1 7381  33.920  43.155   9.158
  305POPC   GL2 7382  34.004  42.830   9.069
  305POPC   C1A 7383  33.788  43.233   8.726
  305POPC   D2A 7384  33.747  43.084   8.319
  305POPC   C3A 7385  33.875  43.313   7.991
  305POPC   C4A 7386  33.694  43.747   7.917
  305POPC   C1B 7387  33.671  42.742   8.762
  305POPC   C2B 7388  33.561  42.600   8.369
  305POPC   C3B 7389  33.560  42.759   7.959
  305POPC   C4B 7390  33.816  42.929   7.629
  306POPC   NC3 7391  16.628  42.644   9.792
  306POPC   PO4 7392  16.811  43.095   9.293
  306POPC   GL1 7393  16.722  43.012   8.976
  306POPC   GL2 7394  16.595  42.676   9.071
  306POPC   C1A 7395  16.877  43.276   8.649
  306POPC   D2A 7396  17.076  43.556   8.369
  306POPC   C3A 7397  16.880  43.392   8.001
  306POPC   C4A 7398  16.950  43.396   7.573
  306POPC   C1B 7399  16.860  42.619   8.686
  306POPC   C2B 7400  16.888  42.880   8.314
  306POPC   C3B 7401  16.675  42.908   7.919
  306POPC   C4B 7402  16.901  42.901   7.566
  307POPC   NC3 7403  16.896  23.488   9.291
  307POPC   PO4 7404  17.532  23.788   9.338
  307POPC   GL1 7405  17.719  23.662   8.992
  307POPC   GL2 7406  17.554  23.370   9.014
  307POPC   C1A 7407  17.682  23.806   8.584
  307POPC   D2A 7408  17.297  23.925   8.398
  307POPC   C3A 7409  17.363  23.756   7.993
  307POPC   C4A 7410  17.746  23.891   7.791
  307POPC   C1B 7411  17.255  23.509   8.722
  307POPC   C2B 7412  17.443  23.417   8.366
  307POPC   C3B 7413  17.789  23.507   8.140
  307POPC   C4B 7414  17.675  23.379   7.740
  308POPC   NC3 7415  12.207  14.828   9.291
  308POPC   PO4 7416  12.085  15.377   9.421
  308POPC   GL1 7417  12.366  15.288   9.072
  308POPC   GL2 7418  12.608  15.004   9.025
  308POPC   C1A 7419  12.281  15.239   8.628
  308POPC   D2A 7420  11.931  15.397   8.349
  308POPC   C3A 7421  11.861  15.190   7.943
  308POPC   C4A 7422  11.994  15.371   7.557
  308POPC   C1B 7423  12.472  14.632   8.760
  308POPC   C2B 7424  12.241  14.722   8.419
  308POPC   C3B 7425  12.354  14.975   8.095
  308POPC   C4B 7426  12.275  14.937   7.689
  309POPC   NC3 7427  28.080   4.253   9.491
  309POPC   PO4 7428  28.724   4.338   9.507
  309POPC   GL1 7429  28.464   4.265   9.125
  309POPC   GL2 7430  28.157   4.063   9.026
  309POPC   C1A 7431  28.409   4.350   8.678
  309POPC   D2A 7432  28.562   4.684   8.419
  309POPC   C3A 7433  28.349   4.670   8.011
  309POPC   C4A 7434  28.626   4.581   7.625
  309POPC   C1B 7435  27.928   4.160   8.660
  309POPC   C2B 7436  28.062   4.168   8.211
  309POPC   C3B 7437  28.129   4.064   7.742
  309POPC   C4B 7438  27.961   4.147   7.271
  310POPC   NC3 7439  39.606  40.667   9.593
  310POPC   PO4 7440  38.985  40.657   9.485
  310POPC   GL1 7441  39.167  40.903   9.175
  310POPC   GL2 7442  39.506  41.006   9.227
  310POPC   C1A 7443  39.052  40.912   8.757
  310POPC   D2A 7444  38.997  40.631   8.433
  310POPC   C3A 7445  39.161  40.810   8.066
  310POPC   C4A 7446  39.142  40.739   7.674
  310POPC   C1B 7447  39.554  41.078   8.808
  310POPC   C2B 7448  39.718  41.205   8.428
  310POPC   C3B 7449  39.617  41.060   8.049
  310POPC   C4B 7450  39.369  41.196   7.736
  311POPC   NC3 7451  34.940  14.739   9.449
  311POPC   PO4 7452  34.429  14.289   9.622
  311POPC   GL1 7453  34.533  14.318   9.227
  311POPC   GL2 7454  34.519  14.656   9.157
  311POPC   C1A 7455  34.403  14.231   8.782
  311POPC   D2A 7456  34.137  14.398   8.451
  311POPC   C3A 7457  34.407  14.415   8.109
  311POPC   C4A 7458  34.559  14.178   7.820
  311POPC   C1B 7459  34.867  14.434   8.875
  311POPC   C2B 7460  35.021  14.559   8.489
  311POPC   C3B 7461  34.879  14.648   8.088
  311POPC   C4B 7462  34.884  14.530   7.681
  312POPC   NC3 7463   5.769  37.383   9.515
  312POPC   PO4 7464   5.949  36.696   9.520
  312POPC   GL1 7465   5.773  36.873   9.131
  312POPC   GL2 7466   5.889  37.213   9.051
  312POPC   C1A 7467   5.582  37.002   8.701
  312POPC   D2A 7468   5.467  37.217   8.333
  312POPC   C3A 7469   5.436  36.948   7.970
  312POPC   C4A 7470   5.496  36.710   7.586
  312POPC   C1B 7471   6.091  36.954   8.718
  312POPC   C2B 7472   5.930  36.825   8.311
  312POPC   C3B 7473   6.131  36.755   7.912
  312POPC   C4B 7474   5.979  36.904   7.502
  313POPC   NC3 7475  38.508  29.955   9.509
  313POPC   PO4 7476  38.785  29.448   9.717
  313POPC   GL1 7477  38.683  29.625   9.173
  313POPC   GL2 7478  38.295  29.819   9.089
  313POPC   C1A 7479  38.495  29.560   8.734
  313POPC   D2A 7480  38.394  29.683   8.314
  313POPC   C3A 7481  38.763  29.794   8.101
  313POPC   C4A 7482  38.579  29.674   7.740
  313POPC   C1B 7483  38.110  29.986   8.748
  313POPC   C2B 7484  38.023  30.137   8.365
  313POPC   C3B 7485  38.053  29.939   7.987
  313POPC   C4B 7486  38.052  30.145   7.606
  314POPC   NC3 7487  44.339  19.722   9.513
  314POPC   PO4 7488   0.001  19.933   9.425
  314POPC   GL1 7489  44.878  19.770   9.078
  314POPC   GL2 7490  44.550  19.892   9.070
  314POPC   C1A 7491  44.799  19.634   8.667
  314POPC   D2A 7492  44.663  19.438   8.302
  314POPC   C3A 7493  44.796  19.641   7.933
  314POPC   C4A 7494  44.384  19.688   7.801
  314POPC   C1B 7495  44.626  20.101   8.681
  314POPC   C2B 7496  44.508  19.957   8.270
  314POPC   C3B 7497  44.624  20.131   7.899
  314POPC   C4B 7498  44.796  20.157   7.526
  315POPC   NC3 7499   7.829  19.134   9.507
  315POPC   PO4 7500   8.516  18.906   9.574
  315POPC   GL1 7501   8.246  18.976   9.215
  315POPC   GL2 7502   8.362  18.689   9.091
  315POPC   C1A 7503   8.179  19.204   8.799
  315POPC   D2A 7504   8.458  19.308   8.435
  315POPC   C3A 7505   8.278  19.269   8.006
  315POPC   C4A 7506   8.343  19.169   7.567
  315POPC   C1B 7507   8.174  18.701   8.700
  315POPC   C2B 7508   8.290  18.825   8.301
  315POPC   C3B 7509   8.194  18.748   7.871
  315POPC   C4B 7510   8.107  18.750   7.428
  316POPC   NC3 7511  15.121  11.638   9.798
  316POPC   PO4 7512  14.726  11.291   9.373
  316POPC   GL1 7513  15.059  11.328   9.131
  316POPC   GL2 7514  14.846  11.445   8.890
  316POPC   C1A 7515  15.310  11.140   8.842
  316POPC   D2A 7516  15.356  11.185   8.395
  316POPC   C3A 7517  15.330  11.310   7.979
  316POPC   C4A 7518  15.084  11.365   7.630
  316POPC   C1B 7519  15.107  11.560   8.626
  316POPC   C2B 7520  15.074  11.654   8.237
  316POPC   C3B 7521  14.858  11.723   7.921
  316POPC   C4B 7522  14.564  11.559   7.676
  317POPC   NC3 7523  23.368  29.220   9.448
  317POPC   PO4 7524  22.780  28.856   9.455
  317POPC   GL1 7525  22.862  28.893   9.031
  317POPC   GL2 7526  22.940  29.204   9.062
  317POPC   C1A 7527  22.859  28.980   8.576
  317POPC   D2A 7528  23.139  29.084   8.256
  317POPC   C3A 7529  23.078  28.911   7.901
  317POPC   C4A 7530  23.277  29.162   7.665
  317POPC   C1B 7531  22.640  29.389   8.761
  317POPC   C2B 7532  22.808  29.474   8.348
  317POPC   C3B 7533  22.839  29.386   7.929
  317POPC   C4B 7534  22.506  29.417   7.661
  318POPC   NC3 7535  33.198  12.519   9.487
  318POPC   PO4 7536  33.349  13.140   9.555
  318POPC   GL1 7537  33.128  12.912   9.176
  318POPC   GL2 7538  32.776  12.800   9.215
  318POPC   C1A 7539  33.048  12.631   8.797
  318POPC   D2A 7540  33.075  12.846   8.389
  318POPC   C3A 7541  32.869  12.779   7.998
  318POPC   C4A 7542  32.950  12.975   7.603
  318POPC   C1B 7543  32.643  12.927   8.790
  318POPC   C2B 7544  32.528  12.957   8.350
  318POPC   C3B 7545  32.535  13.172   7.928
  318POPC   C4B 7546  32.503  13.248   7.455
  319POPC   NC3 7547  34.432  37.378   9.512
  319POPC   PO4 7548  35.020  37.073   9.530
  319POPC   GL1 7549  34.726  37.138   9.155
  319POPC   GL2 7550  34.473  36.875   9.002
  319POPC   C1A 7551  34.913  37.028   8.754
  319POPC   D2A 7552  35.113  37.101   8.362
  319POPC   C3A 7553  34.872  37.124   7.958
  319POPC   C4A 7554  34.632  36.839   7.681
  319POPC   C1B 7555  34.362  36.448   8.812
  319POPC   C2B 7556  34.176  36.311   8.390
  319POPC   C3B 7557  34.267  36.449   7.955
  319POPC   C4B 7558  34.372  36.439   7.485
  320POPC   NC3 7559  35.828  33.810   9.397
  320POPC   PO4 7560  36.468  33.567   9.430
  320POPC   GL1 7561  36.348  33.361   9.092
  320POPC   GL2 7562  36.050  33.552   9.005
  320POPC   C1A 7563  36.419  33.462   8.656
  320POPC   D2A 7564  36.171  33.601   8.347
  320POPC   C3A 7565  36.261  33.759   7.928
  320POPC   C4A 7566  36.145  33.504   7.526
  320POPC   C1B 7567  36.187  33.929   8.801
  320POPC   C2B 7568  36.045  34.150   8.454
  320POPC   C3B 7569  36.069  34.251   8.046
  320POPC   C4B 7570  35.917  34.061   7.684
  321POPC   NC3 7571  26.448  34.014   9.523
  321POPC   PO4 7572  25.753  34.086   9.527
  321POPC   GL1 7573  26.025  33.930   9.211
  321POPC   GL2 7574  26.240  34.195   9.065
  321POPC   C1A 7575  26.214  33.720   8.845
  321POPC   D2A 7576  26.232  33.847   8.398
  321POPC   C3A 7577  26.226  33.516   8.071
  321POPC   C4A 7578  26.433  33.452   7.663
  321POPC   C1B 7579  25.905  34.118   8.731
  321POPC   C2B 7580  25.799  34.149   8.284
  321POPC   C3B 7581  25.929  34.053   7.835
  321POPC   C4B 7582  25.804  34.154   7.371
  322POPC   NC3 7583  18.417  14.976   9.427
  322POPC   PO4 7584  18.237  15.630   9.511
  322POPC   GL1 7585  18.408  15.480   9.126
  322POPC   GL2 7586  18.128  15.272   9.030
  322POPC   C1A 7587  18.566  15.228   8.755
  322POPC   D2A 7588  18.782  15.032   8.391
  322POPC   C3A 7589  18.690  15.167   7.967
  322POPC   C4A 7590  18.527  15.000   7.561
  322POPC   C1B 7591  18.127  15.678   8.762
  322POPC   C2B 7592  18.297  15.776   8.345
  322POPC   C3B 7593  18.282  15.419   8.090
  322POPC   C4B 7594  18.091  15.249   7.726
  323POPC   NC3 7595  33.661  35.279   9.679
  323POPC   PO4 7596  33.400  35.715   9.277
  323POPC   GL1 7597  33.734  35.405   9.172
  323POPC   GL2 7598  33.869  35.088   9.263
  323POPC   C1A 7599  33.925  35.337   8.773
  323POPC   D2A 7600  33.639  35.421   8.434
  323POPC   C3A 7601  33.778  35.567   8.031
  323POPC   C4A 7602  33.513  35.792   7.746
  323POPC   C1B 7603  33.569  35.011   8.914
  323POPC   C2B 7604  33.682  34.918   8.487
  323POPC   C3B 7605  33.584  35.063   8.082
  323POPC   C4B 7606  33.805  35.163   7.693
  324POPC   NC3 7607  30.807  11.486   9.543
  324POPC   PO4 7608  30.330  11.031   9.665
  324POPC   GL1 7609  30.413  11.300   9.239
  324POPC   GL2 7610  30.765  11.292   9.083
  324POPC   C1A 7611  30.355  11.520   8.820
  324POPC   D2A 7612  30.494  11.618   8.377
  324POPC   C3A 7613  30.402  11.294   8.084
  324POPC   C4A 7614  30.498  11.098   7.689
  324POPC   C1B 7615  31.000  11.194   8.727
  324POPC   C2B 7616  30.916  11.199   8.274
  324POPC   C3B 7617  30.880  11.388   7.857
  324POPC   C4B 7618  30.702  11.508   7.465
  325POPC   NC3 7619  17.729  20.924   9.656
  325POPC   PO4 7620  18.420  20.898   9.676
  325POPC   GL1 7621  18.152  20.741   9.259
  325POPC   GL2 7622  18.215  20.370   9.141
  325POPC   C1A 7623  18.212  20.798   8.797
  325POPC   D2A 7624  18.028  20.912   8.386
  325POPC   C3A 7625  18.143  21.027   7.973
  325POPC   C4A 7626  18.162  20.779   7.614
  325POPC   C1B 7627  18.083  20.277   8.726
  325POPC   C2B 7628  17.932  20.381   8.346
  325POPC   C3B 7629  18.223  20.505   8.055
  325POPC   C4B 7630  18.250  20.223   7.746
  326POPC   NC3 7631  34.099  14.025   9.403
  326POPC   PO4 7632  33.681  13.628   9.675
  326POPC   GL1 7633  33.641  13.640   9.235
  326POPC   GL2 7634  33.961  13.535   9.048
  326POPC   C1A 7635  33.514  13.558   8.806
  326POPC   D2A 7636  33.757  13.288   8.559
  326POPC   C3A 7637  33.702  13.312   8.109
  326POPC   C4A 7638  33.794  13.561   7.765
  326POPC   C1B 7639  34.267  13.734   8.726
  326POPC   C2B 7640  34.358  13.910   8.282
  326POPC   C3B 7641  34.347  13.701   7.839
  326POPC   C4B 7642  34.172  13.505   7.432
  327POPC   NC3 7643  13.941   7.373   9.798
  327POPC   PO4 7644  13.360   7.485   9.464
  327POPC   GL1 7645  13.487   7.542   9.068
  327POPC   GL2 7646  13.454   7.190   9.010
  327POPC   C1A 7647  13.544   7.550   8.613
  327POPC   D2A 7648  13.683   7.329   8.232
  327POPC   C3A 7649  13.623   7.639   7.915
  327POPC   C4A 7650  13.257   7.788   7.660
  327POPC   C1B 7651  13.814   7.130   8.720
  327POPC   C2B 7652  14.121   7.031   8.436
  327POPC   C3B 7653  14.019   6.989   8.016
  327POPC   C4B 7654  13.839   7.215   7.691
  328POPC   NC3 7655   9.712   0.701   9.688
  328POPC   PO4 7656   9.442   1.251   9.387
  328POPC   GL1 7657   9.760   1.240   9.128
  328POPC   GL2 7658   9.826   0.913   9.166
  328POPC   C1A 7659  10.050   1.143   8.788
  328POPC   D2A 7660  10.128   0.992   8.429
  328POPC   C3A 7661   9.837   1.223   8.211
  328POPC   C4A 7662   9.866   1.295   7.790
  328POPC   C1B 7663   9.548   0.980   8.752
  328POPC   C2B 7664   9.378   1.041   8.356
  328POPC   C3B 7665   9.467   0.953   7.960
  328POPC   C4B 7666   9.389   1.169   7.603
  329POPC   NC3 7667   3.735  16.801   9.361
  329POPC   PO4 7668   3.023  16.985   9.468
  329POPC   GL1 7669   3.252  16.700   9.179
  329POPC   GL2 7670   3.373  16.997   9.083
  329POPC   C1A 7671   3.464  16.639   8.723
  329POPC   D2A 7672   3.708  16.668   8.305
  329POPC   C3A 7673   3.405  16.660   7.952
  329POPC   C4A 7674   3.197  16.429   7.653
  329POPC   C1B 7675   3.521  17.140   8.734
  329POPC   C2B 7676   3.380  17.062   8.331
  329POPC   C3B 7677   3.653  17.094   7.996
  329POPC   C4B 7678   3.605  16.990   7.554
  330POPC   NC3 7679  31.872  17.961   9.518
  330POPC   PO4 7680  31.284  18.258   9.497
  330POPC   GL1 7681  31.310  18.372   9.089
  330POPC   GL2 7682  31.659  18.266   9.076
  330POPC   C1A 7683  31.333  18.431   8.654
  330POPC   D2A 7684  31.665  18.282   8.413
  330POPC   C3A 7685  31.619  18.411   8.027
  330POPC   C4A 7686  31.504  18.398   7.619
  330POPC   C1B 7687  31.774  18.611   8.806
  330POPC   C2B 7688  31.668  18.798   8.417
  330POPC   C3B 7689  31.972  18.820   8.111
  330POPC   C4B 7690  32.025  18.589   7.727
  331POPC   NC3 7691  38.167  26.464  10.083
  331POPC   PO4 7692  38.429  26.853   9.564
  331POPC   GL1 7693  38.555  26.740   9.174
  331POPC   GL2 7694  38.366  27.062   9.096
  331POPC   C1A 7695  38.396  26.644   8.750
  331POPC   D2A 7696  38.568  26.448   8.403
  331POPC   C3A 7697  38.361  26.541   8.021
  331POPC   C4A 7698  38.429  26.672   7.606
  331POPC   C1B 7699  38.535  27.122   8.718
  331POPC   C2B 7700  38.427  26.976   8.304
  331POPC   C3B 7701  38.686  26.980   7.929
  331POPC   C4B 7702  38.681  27.281   7.610
  332POPC   NC3 7703  39.424  44.575   9.925
  332POPC   PO4 7704  38.982  44.918   9.585
  332POPC   GL1 7705  38.990  44.779   9.205
  332POPC   GL2 7706  39.260  44.583   9.247
  332POPC   C1A 7707  39.172  44.930   8.836
  332POPC   D2A 7708  39.261  44.718   8.478
  332POPC   C3A 7709  39.342  44.935   8.145
  332POPC   C4A 7710  39.233  44.807   7.764
  332POPC   C1B 7711  39.559  44.592   8.884
  332POPC   C2B 7712  39.607  44.338   8.533
  332POPC   C3B 7713  39.551  44.444   8.081
  332POPC   C4B 7714  39.423  44.339   7.657
  333POPC   NC3 7715  33.442  17.637   9.513
  333POPC   PO4 7716  33.078  17.084   9.598
  333POPC   GL1 7717  33.088  17.441   9.207
  333POPC   GL2 7718  33.333  17.246   9.166
  333POPC   C1A 7719  32.980  17.715   8.822
  333POPC   D2A 7720  32.747  17.585   8.471
  333POPC   C3A 7721  32.768  17.703   8.063
  333POPC   C4A 7722  32.938  17.631   7.683
  333POPC   C1B 7723  33.403  17.430   8.775
  333POPC   C2B 7724  33.261  17.301   8.395
  333POPC   C3B 7725  33.253  17.414   7.999
  333POPC   C4B 7726  33.158  17.182   7.649
  334POPC   NC3 7727  10.690   1.276   9.507
  334POPC   PO4 7728   9.985   1.083   9.630
  334POPC   GL1 7729  10.254   1.212   9.239
  334POPC   GL2 7730  10.510   1.014   9.091
  334POPC   C1A 7731  10.435   1.451   8.835
  334POPC   D2A 7732  10.537   1.321   8.415
  334POPC   C3A 7733  10.332   1.241   8.032
  334POPC   C4A 7734  10.411   1.347   7.624
  334POPC   C1B 7735  10.569   0.847   8.673
  334POPC   C2B 7736  10.833   0.920   8.332
  334POPC   C3B 7737  10.859   1.174   8.000
  334POPC   C4B 7738  10.691   0.948   7.715
  335POPC   NC3 7739  32.297   1.775   9.683
  335POPC   PO4 7740  32.376   1.111   9.526
  335POPC   GL1 7741  32.291   1.000   9.120
  335POPC   GL2 7742  32.273   1.344   9.032
  335POPC   C1A 7743  32.002   0.961   8.730
  335POPC   D2A 7744  31.884   1.201   8.357
  335POPC   C3A 7745  32.166   1.348   8.072
  335POPC   C4A 7746  32.256   1.043   7.774
  335POPC   C1B 7747  32.291   1.400   8.613
  335POPC   C2B 7748  32.605   1.274   8.349
  335POPC   C3B 7749  32.697   1.127   7.988
  335POPC   C4B 7750  32.743   1.296   7.554
  336POPC   NC3 7751  16.490  16.217   9.497
  336POPC   PO4 7752  17.048  16.041   9.310
  336POPC   GL1 7753  16.873  15.989   8.952
  336POPC   GL2 7754  16.527  15.976   9.056
  336POPC   C1A 7755  16.805  15.993   8.520
  336POPC   D2A 7756  17.018  16.218   8.204
  336POPC   C3A 7757  17.023  15.972   7.900
  336POPC   C4A 7758  16.772  15.917   7.592
  336POPC   C1B 7759  16.451  16.298   8.743
  336POPC   C2B 7760  16.272  16.265   8.331
  336POPC   C3B 7761  16.459  15.965   8.020
  336POPC   C4B 7762  16.282  15.769   7.639
  337POPC   NC3 7763   6.767  23.969   9.508
  337POPC   PO4 7764   6.139  23.594   9.592
  337POPC   GL1 7765   6.358  23.817   9.216
  337POPC   GL2 7766   6.702  23.805   9.044
  337POPC   C1A 7767   6.294  23.841   8.763
  337POPC   D2A 7768   6.592  23.786   8.431
  337POPC   C3A 7769   6.512  23.455   8.163
  337POPC   C4A 7770   6.601  23.562   7.746
  337POPC   C1B 7771   7.004  23.791   8.725
  337POPC   C2B 7772   7.268  23.725   8.404
  337POPC   C3B 7773   6.994  23.723   8.069
  337POPC   C4B 7774   7.014  23.887   7.686
  338POPC   NC3 7775   0.914  38.509   9.514
  338POPC   PO4 7776   1.516  38.255   9.569
  338POPC   GL1 7777   1.326  38.507   9.238
  338POPC   GL2 7778   1.176  38.238   9.146
  338POPC   C1A 7779   1.175  38.788   8.896
  338POPC   D2A 7780   1.386  38.855   8.508
  338POPC   C3A 7781   1.248  38.709   8.125
  338POPC   C4A 7782   1.372  38.648   7.717
  338POPC   C1B 7783   1.006  38.329   8.755
  338POPC   C2B 7784   1.131  38.250   8.352
  338POPC   C3B 7785   0.931  38.235   7.964
  338POPC   C4B 7786   1.167  38.188   7.598
  339POPC   NC3 7787   9.897  12.138   9.786
  339POPC   PO4 7788   9.445  11.716   9.603
  339POPC   GL1 7789   9.513  12.047   9.290
  339POPC   GL2 7790   9.874  12.135   9.278
  339POPC   C1A 7791   9.577  12.072   8.848
  339POPC   D2A 7792   9.807  11.817   8.549
  339POPC   C3A 7793   9.796  11.945   8.119
  339POPC   C4A 7794   9.846  11.673   7.775
  339POPC   C1B 7795  10.069  12.130   8.878
  339POPC   C2B 7796  10.032  12.293   8.456
  339POPC   C3B 7797  10.212  12.278   8.051
  339POPC   C4B 7798  10.091  12.096   7.655
  340POPC   NC3 7799  42.504  15.589   9.938
  340POPC   PO4 7800  42.060  15.968   9.601
  340POPC   GL1 7801  42.222  15.932   9.207
  340POPC   GL2 7802  42.460  15.705   9.190
  340POPC   C1A 7803  42.085  15.751   8.820
  340POPC   D2A 7804  42.160  16.004   8.464
  340POPC   C3A 7805  42.084  15.814   8.096
  340POPC   C4A 7806  42.266  15.918   7.704
  340POPC   C1B 7807  42.605  15.878   8.781
  340POPC   C2B 7808  42.833  15.872   8.383
  340POPC   C3B 7809  42.717  15.912   7.949
  340POPC   C4B 7810  42.715  15.683   7.548
  341POPC   NC3 7811  33.443  26.018   9.518
  341POPC   PO4 7812  32.730  25.995   9.540
  341POPC   GL1 7813  32.812  26.232   9.164
  341POPC   GL2 7814  33.119  26.070   9.135
  341POPC   C1A 7815  32.878  26.210   8.716
  341POPC   D2A 7816  33.010  25.897   8.433
  341POPC   C3A 7817  32.968  26.020   8.019
  341POPC   C4A 7818  32.864  26.114   7.637
  341POPC   C1B 7819  33.278  25.738   8.849
  341POPC   C2B 7820  33.469  25.659   8.438
  341POPC   C3B 7821  33.300  25.624   8.049
  341POPC   C4B 7822  33.302  25.803   7.648
  342POPC   NC3 7823  21.180  19.265   9.499
  342POPC   PO4 7824  21.604  18.770   9.453
  342POPC   GL1 7825  21.248  18.848   9.170
  342POPC   GL2 7826  21.341  19.185   9.031
  342POPC   C1A 7827  21.108  18.874   8.727
  342POPC   D2A 7828  21.350  18.984   8.363
  342POPC   C3A 7829  21.159  19.109   7.963
  342POPC   C4A 7830  21.272  18.918   7.568
  342POPC   C1B 7831  21.595  19.322   8.674
  342POPC   C2B 7832  21.512  19.452   8.228
  342POPC   C3B 7833  21.635  19.247   7.841
  342POPC   C4B 7834  21.667  19.200   7.374
  343POPC   NC3 7835   9.862  39.503   9.361
  343POPC   PO4 7836   9.485  40.081   9.355
  343POPC   GL1 7837   9.842  39.997   9.058
  343POPC   GL2 7838   9.956  39.664   8.894
  343POPC   C1A 7839   9.772  40.073   8.617
  343POPC   D2A 7840   9.551  40.221   8.249
  343POPC   C3A 7841   9.929  40.217   8.089
  343POPC   C4A 7842  10.123  40.277   7.723
  343POPC   C1B 7843   9.490  39.676   8.807
  343POPC   C2B 7844   9.275  39.848   8.459
  343POPC   C3B 7845   9.357  39.793   8.027
  343POPC   C4B 7846   9.656  39.982   7.745
  344POPC   NC3 7847  27.170  36.632   9.420
  344POPC   PO4 7848  27.743  36.983   9.367
  344POPC   GL1 7849  27.585  36.846   9.007
  344POPC   GL2 7850  27.236  36.893   8.978
  344POPC   C1A 7851  27.677  36.800   8.581
  344POPC   D2A 7852  27.534  37.004   8.246
  344POPC   C3A 7853  27.717  36.996   7.890
  344POPC   C4A 7854  27.374  37.000   7.631
  344POPC   C1B 7855  27.356  36.458   8.779
  344POPC   C2B 7856  27.458  36.422   8.312
  344POPC   C3B 7857  27.426  36.565   7.888
  344POPC   C4B 7858  27.306  36.533   7.420
  345POPC   NC3 7859   7.279  39.829   9.500
  345POPC   PO4 7860   7.424  40.494   9.692
  345POPC   GL1 7861   7.348  40.290   9.255
  345POPC   GL2 7862   7.658  40.125   9.265
  345POPC   C1A 7863   7.332  40.058   8.838
  345POPC   D2A 7864   7.601  39.901   8.475
  345POPC   C3A 7865   7.381  39.867   8.104
  345POPC   C4A 7866   7.188  40.126   7.807
  345POPC   C1B 7867   7.840  40.139   8.874
  345POPC   C2B 7868   7.648  40.404   8.568
  345POPC   C3B 7869   7.543  40.365   8.137
  345POPC   C4B 7870   7.718  40.088   7.785
  346POPC   NC3 7871   3.549  28.409   9.484
  346POPC   PO4 7872   4.025  27.860   9.454
  346POPC   GL1 7873   3.799  28.118   9.144
  346POPC   GL2 7874   3.423  28.089   9.125
  346POPC   C1A 7875   3.652  28.417   8.822
  346POPC   D2A 7876   3.713  28.437   8.402
  346POPC   C3A 7877   3.576  28.670   8.093
  346POPC   C4A 7878   3.692  28.528   7.669
  346POPC   C1B 7879   3.249  28.070   8.737
  346POPC   C2B 7880   3.456  28.007   8.366
  346POPC   C3B 7881   3.420  28.185   7.976
  346POPC   C4B 7882   3.415  28.129   7.494
  347POPC   NC3 7883  20.176   8.506   9.476
  347POPC   PO4 7884  19.810   7.880   9.462
  347POPC   GL1 7885  19.749   8.172   9.120
  347POPC   GL2 7886  20.069   8.187   9.104
  347POPC   C1A 7887  19.640   8.175   8.700
  347POPC   D2A 7888  19.703   7.915   8.342
  347POPC   C3A 7889  19.779   8.126   7.916
  347POPC   C4A 7890  19.523   8.422   7.724
  347POPC   C1B 7891  20.061   8.458   8.763
  347POPC   C2B 7892  20.042   8.323   8.344
  347POPC   C3B 7893  20.084   8.538   7.949
  347POPC   C4B 7894  19.994   8.443   7.517
  348POPC   NC3 7895   7.058  41.808   9.324
  348POPC   PO4 7896   6.403  41.792   9.302
  348POPC   GL1 7897   6.713  41.546   9.087
  348POPC   GL2 7898   6.505  41.356   9.020
  348POPC   C1A 7899   6.930  41.622   8.700
  348POPC   D2A 7900   6.693  41.809   8.380
  348POPC   C3A 7901   6.777  41.716   7.962
  348POPC   C4A 7902   6.935  41.408   7.713
  348POPC   C1B 7903   6.504  41.343   8.600
  348POPC   C2B 7904   6.226  41.469   8.320
  348POPC   C3B 7905   6.295  41.508   7.950
  348POPC   C4B 7906   6.390  41.665   7.593
  349POPC   NC3 7907  35.595  15.533   9.920
  349POPC   PO4 7908  35.152  15.238   9.431
  349POPC   GL1 7909  35.429  15.022   9.153
  349POPC   GL2 7910  35.156  14.854   9.000
  349POPC   C1A 7911  35.684  15.184   8.796
  349POPC   D2A 7912  35.528  15.525   8.517
  349POPC   C3A 7913  35.635  15.544   8.079
  349POPC   C4A 7914  35.749  15.125   8.024
  349POPC   C1B 7915  35.144  15.230   8.743
  349POPC   C2B 7916  35.033  15.459   8.361
  349POPC   C3B 7917  35.098  15.382   7.911
  349POPC   C4B 7918  35.017  15.369   7.464
  350POPC   NC3 7919  15.869   4.788   9.626
  350POPC   PO4 7920  16.200   5.313   9.695
  350POPC   GL1 7921  16.059   5.375   9.262
  350POPC   GL2 7922  15.791   5.146   9.257
  350POPC   C1A 7923  15.935   5.448   8.817
  350POPC   D2A 7924  15.880   5.172   8.447
  350POPC   C3A 7925  15.970   5.303   8.018
  350POPC   C4A 7926  15.808   5.007   7.749
  350POPC   C1B 7927  16.057   4.958   8.934
  350POPC   C2B 7928  16.097   4.708   8.561
  350POPC   C3B 7929  16.174   4.837   8.133
  350POPC   C4B 7930  16.351   4.892   7.715
  351POPC   NC3 7931  39.532  24.369   9.515
  351POPC   PO4 7932  38.961  24.680   9.341
  351POPC   GL1 7933  39.327  24.618   9.108
  351POPC   GL2 7934  39.375  24.268   9.045
  351POPC   C1A 7935  39.453  24.854   8.759
  351POPC   D2A 7936  39.197  24.999   8.423
  351POPC   C3A 7937  39.138  24.832   8.026
  351POPC   C4A 7938  39.056  24.733   7.642
  351POPC   C1B 7939  39.211  24.403   8.648
  351POPC   C2B 7940  39.422  24.481   8.266
  351POPC   C3B 7941  39.496  24.468   7.822
  351POPC   C4B 7942  39.335  24.382   7.416
  352POPC   NC3 7943  23.900   9.445   9.778
  352POPC   PO4 7944  24.123   8.910   9.637
  352POPC   GL1 7945  24.029   9.044   9.141
  352POPC   GL2 7946  23.927   8.735   8.961
  352POPC   C1A 7947  24.027   9.082   8.635
  352POPC   D2A 7948  23.752   8.852   8.333
  352POPC   C3A 7949  23.774   9.023   7.915
  352POPC   C4A 7950  24.002   9.349   7.751
  352POPC   C1B 7951  23.805   8.464   8.667
  352POPC   C2B 7952  23.994   8.362   8.322
  352POPC   C3B 7953  24.092   8.622   8.008
  352POPC   C4B 7954  23.969   8.678   7.577
  353POPC   NC3 7955   1.768   2.309   9.497
  353POPC   PO4 7956   2.282   1.788   9.590
  353POPC   GL1 7957   2.140   2.024   9.223
  353POPC   GL2 7958   1.796   1.894   9.187
  353POPC   C1A 7959   2.374   2.110   8.812
  353POPC   D2A 7960   2.204   1.991   8.421
  353POPC   C3A 7961   2.262   2.183   8.023
  353POPC   C4A 7962   2.077   1.963   7.653
  353POPC   C1B 7963   1.848   2.137   8.809
  353POPC   C2B 7964   1.666   1.989   8.435
  353POPC   C3B 7965   1.546   2.010   8.004
  353POPC   C4B 7966   1.571   1.961   7.566
  354POPC   NC3 7967   5.500  18.138   9.521
  354POPC   PO4 7968   5.948  18.591   9.387
  354POPC   GL1 7969   5.880  18.170   9.162
  354POPC   GL2 7970   5.546  18.099   9.015
  354POPC   C1A 7971   6.028  18.140   8.745
  354POPC   D2A 7972   5.853  18.319   8.371
  354POPC   C3A 7973   5.835  18.072   7.988
  354POPC   C4A 7974   6.108  18.077   7.615
  354POPC   C1B 7975   5.562  18.468   8.792
  354POPC   C2B 7976   5.372  18.564   8.377
  354POPC   C3B 7977   5.626  18.572   7.976
  354POPC   C4B 7978   5.703  18.385   7.581
  355POPC   NC3 7979  35.643  29.971   9.817
  355POPC   PO4 7980  36.227  29.943   9.481
  355POPC   GL1 7981  36.032  29.902   9.116
  355POPC   GL2 7982  35.857  29.596   9.226
  355POPC   C1A 7983  36.173  30.091   8.720
  355POPC   D2A 7984  36.354  30.016   8.296
  355POPC   C3A 7985  36.190  30.078   7.867
  355POPC   C4A 7986  35.899  30.030   7.497
  355POPC   C1B 7987  35.809  29.613   8.760
  355POPC   C2B 7988  35.940  29.555   8.327
  355POPC   C3B 7989  35.823  29.673   7.902
  355POPC   C4B 7990  36.024  29.504   7.510
  356POPC   NC3 7991  16.386  22.117   9.658
  356POPC   PO4 7992  16.923  22.483   9.676
  356POPC   GL1 7993  16.761  22.317   9.314
  356POPC   GL2 7994  16.478  22.480   9.290
  356POPC   C1A 7995  16.621  22.131   8.922
  356POPC   D2A 7996  16.772  22.172   8.500
  356POPC   C3A 7997  16.699  21.864   8.174
  356POPC   C4A 7998  16.786  21.942   7.766
  356POPC   C1B 7999  16.320  22.560   8.866
  356POPC   C2B 8000  16.253  22.361   8.454
  356POPC   C3B 8001  16.493  22.329   8.103
  356POPC   C4B 8002  16.509  22.379   7.716
  357POPC   NC3 8003  35.171  42.844   9.484
  357POPC   PO4 8004  35.850  43.077   9.362
  357POPC   GL1 8005  35.524  42.922   9.105
  357POPC   GL2 8006  35.241  43.166   9.080
  357POPC   C1A 8007  35.551  43.032   8.672
  357POPC   D2A 8008  35.430  42.854   8.304
  357POPC   C3A 8009  35.629  43.071   7.996
  357POPC   C4A 8010  35.514  43.106   7.596
  357POPC   C1B 8011  35.062  42.898   8.762
  357POPC   C2B 8012  34.941  43.011   8.349
  357POPC   C3B 8013  35.102  43.009   7.919
  357POPC   C4B 8014  34.849  43.162   7.583
  358POPC   NC3 8015   9.935  10.459   9.634
  358POPC   PO4 8016   9.268  10.825   9.559
  358POPC   GL1 8017   9.668  10.796   9.300
  358POPC   GL2 8018   9.764  10.463   9.164
  358POPC   C1A 8019   9.792  10.871   8.855
  358POPC   D2A 8020   9.676  10.979   8.419
  358POPC   C3A 8021   9.695  10.734   8.054
  358POPC   C4A 8022   9.681  10.640   7.592
  358POPC   C1B 8023  10.012  10.379   8.810
  358POPC   C2B 8024   9.855  10.316   8.398
  358POPC   C3B 8025   9.814  10.270   7.949
  358POPC   C4B 8026  10.115  10.337   7.670
  359POPC   NC3 8027  10.214  28.750   9.506
  359POPC   PO4 8028  10.717  29.199   9.698
  359POPC   GL1 8029  10.554  29.344   9.252
  359POPC   GL2 8030  10.434  29.031   9.138
  359POPC   C1A 8031  10.646  29.253   8.757
  359POPC   D2A 8032  10.483  29.045   8.387
  359POPC   C3A 8033  10.689  29.066   7.991
  359POPC   C4A 8034  10.651  29.239   7.595
  359POPC   C1B 8035  10.188  28.864   8.809
  359POPC   C2B 8036  10.030  28.790   8.418
  359POPC   C3B 8037  10.176  28.732   7.997
  359POPC   C4B 8038  10.426  28.790   7.639
  360POPC   NC3 8039  24.830   0.988   9.576
  360POPC   PO4 8040  25.448   1.220   9.742
  360POPC   GL1 8041  25.392   1.234   9.296
  360POPC   GL2 8042  25.298   0.899   9.298
  360POPC   C1A 8043  25.393   1.286   8.820
  360POPC   D2A 8044  25.177   1.502   8.481
  360POPC   C3A 8045  25.300   1.412   8.062
  360POPC   C4A 8046  25.095   1.482   7.690
  360POPC   C1B 8047  25.050   0.941   8.929
  360POPC   C2B 8048  24.994   1.014   8.472
  360POPC   C3B 8049  25.046   0.944   8.024
  360POPC   C4B 8050  25.098   0.950   7.588
  361POPC   NC3 8051  33.680  39.594   9.799
  361POPC   PO4 8052  33.490  40.241   9.635
  361POPC   GL1 8053  33.753  40.061   9.261
  361POPC   GL2 8054  34.064  40.261   9.242
  361POPC   C1A 8055  33.880  39.918   8.817
  361POPC   D2A 8056  33.669  39.834   8.444
  361POPC   C3A 8057  33.535  40.120   8.145
  361POPC   C4A 8058  33.518  39.991   7.725
  361POPC   C1B 8059  34.047  40.398   8.804
  361POPC   C2B 8060  34.054  40.167   8.361
  361POPC   C3B 8061  34.024  40.120   7.871
  361POPC   C4B 8062  33.912  40.215   7.406
  362POPC   NC3 8063  41.068  39.369   9.362
  362POPC   PO4 8064  40.437  39.223   9.599
  362POPC   GL1 8065  40.553  39.445   9.218
  362POPC   GL2 8066  40.711  39.099   9.148
  362POPC   C1A 8067  40.756  39.526   8.799
  362POPC   D2A 8068  40.783  39.318   8.408
  362POPC   C3A 8069  40.560  39.337   8.028
  362POPC   C4A 8070  40.725  39.277   7.661
  362POPC   C1B 8071  40.910  38.990   8.787
  362POPC   C2B 8072  40.807  38.773   8.419
  362POPC   C3B 8073  40.615  38.802   8.040
  362POPC   C4B 8074  40.792  38.776   7.649
  363POPC   NC3 8075  20.479  35.467   9.559
  363POPC   PO4 8076  20.583  34.833   9.419
  363POPC   GL1 8077  20.601  35.171   9.162
  363POPC   GL2 8078  20.758  35.521   9.148
  363POPC   C1A 8079  20.849  35.184   8.797
  363POPC   D2A 8080  20.826  35.018   8.434
  363POPC   C3A 8081  20.798  35.316   8.144
  363POPC   C4A 8082  20.778  35.345   7.704
  363POPC   C1B 8083  20.417  35.429   8.782
  363POPC   C2B 8084  20.322  35.312   8.356
  363POPC   C3B 8085  20.410  35.602   7.986
  363POPC   C4B 8086  20.416  35.904   7.630
  364POPC   NC3 8087  42.856  30.088   9.527
  364POPC   PO4 8088  43.257  29.614   9.534
  364POPC   GL1 8089  43.109  29.785   9.126
  364POPC   GL2 8090  43.195  30.100   9.145
  364POPC   C1A 8091  42.917  29.952   8.707
  364POPC   D2A 8092  42.809  29.934   8.239
  364POPC   C3A 8093  43.162  29.824   7.949
  364POPC   C4A 8094  43.120  29.693   7.491
  364POPC   C1B 8095  43.387  30.184   8.752
  364POPC   C2B 8096  43.236  30.182   8.335
  364POPC   C3B 8097  43.300  30.316   7.903
  364POPC   C4B 8098  43.168  30.200   7.474
  365POPC   NC3 8099  19.804  38.948   9.510
  365POPC   PO4 8100  19.661  39.564   9.706
  365POPC   GL1 8101  19.732  39.561   9.242
  365POPC   GL2 8102  19.363  39.552   9.233
  365POPC   C1A 8103  19.969  39.479   8.837
  365POPC   D2A 8104  19.993  39.164   8.473
  365POPC   C3A 8105  20.228  39.258   8.076
  365POPC   C4A 8106  19.991  39.193   7.691
  365POPC   C1B 8107  19.470  39.330   8.855
  365POPC   C2B 8108  19.588  39.494   8.466
  365POPC   C3B 8109  19.718  39.379   8.087
  365POPC   C4B 8110  19.577  39.485   7.694
  366POPC   NC3 8111  31.615   1.528   9.419
  366POPC   PO4 8112  31.273   0.998   9.537
  366POPC   GL1 8113  31.448   1.088   9.127
  366POPC   GL2 8114  31.796   1.170   9.126
  366POPC   C1A 8115  31.384   0.971   8.692
  366POPC   D2A 8116  31.137   0.869   8.314
  366POPC   C3A 8117  31.261   1.057   7.914
  366POPC   C4A 8118  31.708   1.118   7.860
  366POPC   C1B 8119  31.653   1.408   8.754
  366POPC   C2B 8120  31.419   1.392   8.337
  366POPC   C3B 8121  31.326   1.558   7.943
  366POPC   C4B 8122  31.355   1.636   7.517
  367POPC   NC3 8123  41.607  11.887   9.409
  367POPC   PO4 8124  41.525  11.159   9.405
  367POPC   GL1 8125  41.690  11.421   9.102
  367POPC   GL2 8126  41.379  11.416   8.976
  367POPC   C1A 8127  41.789  11.220   8.701
  367POPC   D2A 8128  41.610  11.182   8.288
  367POPC   C3A 8129  41.824  11.471   7.997
  367POPC   C4A 8130  41.859  11.572   7.564
  367POPC   C1B 8131  41.202  11.266   8.621
  367POPC   C2B 8132  41.159  10.918   8.367
  367POPC   C3B 8133  41.173  11.114   7.953
  367POPC   C4B 8134  41.377  11.431   7.729
  368POPC   NC3 8135  42.107   9.268   9.411
  368POPC   PO4 8136  41.530   8.894   9.410
  368POPC   GL1 8137  41.525   8.640   9.095
  368POPC   GL2 8138  41.260   8.728   8.905
  368POPC   C1A 8139  41.786   8.757   8.771
  368POPC   D2A 8140  41.642   8.788   8.395
  368POPC   C3A 8141  41.772   8.967   8.006
  368POPC   C4A 8142  41.619   8.835   7.593
  368POPC   C1B 8143  41.279   9.118   8.652
  368POPC   C2B 8144  41.311   9.125   8.213
  368POPC   C3B 8145  41.340   8.692   7.998
  368POPC   C4B 8146  41.156   8.578   7.601
  369POPC   NC3 8147  33.405   2.690   9.472
  369POPC   PO4 8148  32.888   3.044   9.519
  369POPC   GL1 8149  33.084   2.964   9.165
  369POPC   GL2 8150  33.397   3.121   9.173
  369POPC   C1A 8151  32.943   2.796   8.802
  369POPC   D2A 8152  32.666   2.793   8.470
  369POPC   C3A 8153  32.834   2.696   8.068
  369POPC   C4A 8154  32.850   3.025   7.754
  369POPC   C1B 8155  33.464   2.920   8.792
  369POPC   C2B 8156  33.239   2.917   8.407
  369POPC   C3B 8157  33.317   2.833   8.007
  369POPC   C4B 8158  33.365   3.055   7.661
  370POPC   NC3 8159  42.734  24.529   9.382
  370POPC   PO4 8160  43.266  24.218   9.613
  370POPC   GL1 8161  43.280  24.267   9.198
  370POPC   GL2 8162  43.238  24.623   9.161
  370POPC   C1A 8163  43.104  24.256   8.788
  370POPC   D2A 8164  43.070  24.462   8.402
  370POPC   C3A 8165  43.204  24.260   8.051
  370POPC   C4A 8166  42.963  24.322   7.665
  370POPC   C1B 8167  43.381  24.713   8.727
  370POPC   C2B 8168  43.228  24.952   8.319
  370POPC   C3B 8169  43.088  24.739   7.940
  370POPC   C4B 8170  43.336  24.652   7.559
  371POPC   NC3 8171  40.092  30.156   9.711
  371POPC   PO4 8172  39.662  29.762   9.437
  371POPC   GL1 8173  40.012  29.876   9.171
  371POPC   GL2 8174  40.133  30.206   9.200
  371POPC   C1A 8175  40.247  29.824   8.769
  371POPC   D2A 8176  40.220  29.703   8.302
  371POPC   C3A 8177  40.157  29.965   7.900
  371POPC   C4A 8178  40.207  29.804   7.469
  371POPC   C1B 8179  39.944  30.268   8.775
  371POPC   C2B 8180  39.874  30.158   8.319
  371POPC   C3B 8181  39.693  30.228   7.878
  371POPC   C4B 8182  39.856  30.172   7.460
  372POPC   NC3 8183  26.959  15.986   9.515
  372POPC   PO4 8184  26.329  16.127   9.746
  372POPC   GL1 8185  26.528  16.080   9.257
  372POPC   GL2 8186  26.873  15.969   9.016
  372POPC   C1A 8187  26.514  16.224   8.799
  372POPC   D2A 8188  26.395  16.081   8.410
  372POPC   C3A 8189  26.693  16.119   8.061
  372POPC   C4A 8190  26.524  16.293   7.685
  372POPC   C1B 8191  27.170  15.705   8.706
  372POPC   C2B 8192  27.283  15.552   8.292
  372POPC   C3B 8193  27.274  15.715   7.864
  372POPC   C4B 8194  26.969  16.005   7.649
  373POPC   NC3 8195  14.328   8.746  10.292
  373POPC   PO4 8196  14.510   8.705   9.597
  373POPC   GL1 8197  14.419   8.773   9.196
  373POPC   GL2 8198  14.353   9.112   9.112
  373POPC   C1A 8199  14.242   8.522   8.880
  373POPC   D2A 8200  14.353   8.448   8.462
  373POPC   C3A 8201  14.193   8.715   8.163
  373POPC   C4A 8202  14.286   8.775   7.756
  373POPC   C1B 8203  14.546   8.917   8.719
  373POPC   C2B 8204  14.677   8.955   8.281
  373POPC   C3B 8205  14.516   9.203   7.919
  373POPC   C4B 8206  14.095   9.247   7.725
  374POPC   NC3 8207  38.365  16.909   9.632
  374POPC   PO4 8208  38.265  16.246   9.504
  374POPC   GL1 8209  38.423  16.560   9.187
  374POPC   GL2 8210  38.477  16.933   9.149
  374POPC   C1A 8211  38.288  16.649   8.772
  374POPC   D2A 8212  38.220  16.852   8.383
  374POPC   C3A 8213  38.343  16.633   8.041
  374POPC   C4A 8214  38.597  16.638   7.660
  374POPC   C1B 8215  38.702  16.954   8.774
  374POPC   C2B 8216  38.659  17.166   8.418
  374POPC   C3B 8217  38.698  17.009   8.025
  374POPC   C4B 8218  39.020  16.919   7.744
  375POPC   NC3 8219  13.711  16.339   9.344
  375POPC   PO4 8220  13.693  16.930   9.739
  375POPC   GL1 8221  13.584  16.837   9.294
  375POPC   GL2 8222  13.874  16.837   9.098
  375POPC   C1A 8223  13.497  16.906   8.803
  375POPC   D2A 8224  13.622  16.720   8.388
  375POPC   C3A 8225  13.667  16.936   7.975
  375POPC   C4A 8226  13.423  16.962   7.598
  375POPC   C1B 8227  13.998  16.578   8.768
  375POPC   C2B 8228  14.134  16.651   8.346
  375POPC   C3B 8229  13.909  16.458   7.993
  375POPC   C4B 8230  13.474  16.441   7.849
  376POPC   NC3 8231  40.410  31.878   9.563
  376POPC   PO4 8232  40.837  32.472   9.499
  376POPC   GL1 8233  40.685  32.167   9.215
  376POPC   GL2 8234  40.327  32.128   9.147
  376POPC   C1A 8235  40.791  32.123   8.790
  376POPC   D2A 8236  40.909  32.459   8.548
  376POPC   C3A 8237  40.791  32.473   8.100
  376POPC   C4A 8238  40.818  32.221   7.697
  376POPC   C1B 8239  40.335  31.914   8.794
  376POPC   C2B 8240  40.606  31.715   8.502
  376POPC   C3B 8241  40.648  31.922   8.107
  376POPC   C4B 8242  40.374  31.988   7.752
  377POPC   NC3 8243  41.777   6.708   9.554
  377POPC   PO4 8244  42.117   7.254   9.511
  377POPC   GL1 8245  41.856   6.954   9.107
  377POPC   GL2 8246  41.549   6.677   9.112
  377POPC   C1A 8247  41.697   6.760   8.648
  377POPC   D2A 8248  41.643   6.390   8.337
  377POPC   C3A 8249  41.533   6.525   7.920
  377POPC   C4A 8250  41.704   6.731   7.548
  377POPC   C1B 8251  41.344   6.402   8.799
  377POPC   C2B 8252  41.154   6.176   8.454
  377POPC   C3B 8253  41.040   6.328   8.037
  377POPC   C4B 8254  41.123   6.226   7.628
  378POPC   NC3 8255  43.601   4.043   9.367
  378POPC   PO4 8256  43.840   4.711   9.382
  378POPC   GL1 8257  44.006   4.431   9.087
  378POPC   GL2 8258  43.919   4.103   8.947
  378POPC   C1A 8259  43.912   4.544   8.675
  378POPC   D2A 8260  43.817   4.411   8.274
  378POPC   C3A 8261  44.008   4.629   7.959
  378POPC   C4A 8262  44.041   4.561   7.510
  378POPC   C1B 8263  44.264   4.189   8.634
  378POPC   C2B 8264  44.334   4.308   8.219
  378POPC   C3B 8265  44.123   4.142   7.861
  378POPC   C4B 8266  44.336   4.046   7.457
  379POPC   NC3 8267  44.793  22.017   9.597
  379POPC   PO4 8268  44.321  22.440   9.733
  379POPC   GL1 8269  44.618  22.423   9.309
  379POPC   GL2 8270  44.922  22.245   9.153
  379POPC   C1A 8271  44.706  22.549   8.838
  379POPC   D2A 8272  44.832  22.369   8.399
  379POPC   C3A 8273  44.697  22.558   7.979
  379POPC   C4A 8274  44.668  22.567   7.498
  379POPC   C1B 8275  44.764  22.029   8.827
  379POPC   C2B 8276  44.687  21.851   8.442
  379POPC   C3B 8277  44.869  21.808   8.047
  379POPC   C4B 8278  44.747  22.117   7.731
  380POPC   NC3 8279  14.230   5.774   9.707
  380POPC   PO4 8280  14.617   6.237   9.439
  380POPC   GL1 8281  14.350   6.034   9.107
  380POPC   GL2 8282  14.177   5.712   9.203
  380POPC   C1A 8283  14.296   6.045   8.626
  380POPC   D2A 8284  14.198   6.152   8.175
  380POPC   C3A 8285  14.466   6.127   7.841
  380POPC   C4A 8286  14.451   5.852   7.455
  380POPC   C1B 8287  14.172   5.587   8.774
  380POPC   C2B 8288  14.047   5.702   8.338
  380POPC   C3B 8289  14.228   5.689   7.922
  380POPC   C4B 8290  14.037   5.551   7.533
  381POPC   NC3 8291   3.880   3.702   9.274
  381POPC   PO4 8292   3.410   3.291   9.501
  381POPC   GL1 8293   3.514   3.384   9.095
  381POPC   GL2 8294   3.436   3.746   9.009
  381POPC   C1A 8295   3.478   3.306   8.678
  381POPC   D2A 8296   3.232   3.357   8.292
  381POPC   C3A 8297   3.505   3.307   7.929
  381POPC   C4A 8298   3.703   3.375   7.527
  381POPC   C1B 8299   3.618   3.966   8.647
  381POPC   C2B 8300   3.560   4.121   8.234
  381POPC   C3B 8301   3.370   3.832   8.005
  381POPC   C4B 8302   3.356   3.711   7.605
  382POPC   NC3 8303  14.832  28.356   9.634
  382POPC   PO4 8304  14.336  27.962   9.557
  382POPC   GL1 8305  14.388  28.213   9.147
  382POPC   GL2 8306  14.304  28.555   9.079
  382POPC   C1A 8307  14.257  28.226   8.703
  382POPC   D2A 8308  14.310  28.484   8.376
  382POPC   C3A 8309  14.115  28.428   7.997
  382POPC   C4A 8310  14.242  28.442   7.569
  382POPC   C1B 8311  14.650  28.561   8.759
  382POPC   C2B 8312  14.794  28.620   8.311
  382POPC   C3B 8313  14.700  28.481   7.862
  382POPC   C4B 8314  14.716  28.551   7.376
  383POPC   NC3 8315   3.537   1.761   9.593
  383POPC   PO4 8316   3.211   2.371   9.462
  383POPC   GL1 8317   3.447   2.087   9.199
  383POPC   GL2 8318   3.787   2.080   9.276
  383POPC   C1A 8319   3.452   1.870   8.815
  383POPC   D2A 8320   3.443   1.996   8.396
  383POPC   C3A 8321   3.637   1.759   8.070
  383POPC   C4A 8322   3.431   2.028   7.778
  383POPC   C1B 8323   3.840   2.253   8.871
  383POPC   C2B 8324   3.934   2.105   8.474
  383POPC   C3B 8325   3.825   2.256   8.074
  383POPC   C4B 8326   3.956   2.018   7.751
  384POPC   NC3 8327  38.161  36.318   9.782
  384POPC   PO4 8328  37.525  36.110   9.605
  384POPC   GL1 8329  37.713  36.119   9.233
  384POPC   GL2 8330  38.054  36.163   9.203
  384POPC   C1A 8331  37.580  36.180   8.838
  384POPC   D2A 8332  37.783  36.101   8.467
  384POPC   C3A 8333  37.556  35.963   8.120
  384POPC   C4A 8334  37.722  36.018   7.707
  384POPC   C1B 8335  37.997  36.471   8.842
  384POPC   C2B 8336  37.749  36.608   8.501
  384POPC   C3B 8337  37.681  36.469   8.072
  384POPC   C4B 8338  37.923  36.505   7.710
  385POPC   NC3 8339   0.930  10.167   9.579
  385POPC   PO4 8340   1.330  10.665   9.641
  385POPC   GL1 8341   1.272  10.387   9.268
  385POPC   GL2 8342   0.974  10.559   9.175
  385POPC   C1A 8343   1.357  10.464   8.799
  385POPC   D2A 8344   1.056  10.623   8.436
  385POPC   C3A 8345   1.221  10.699   8.001
  385POPC   C4A 8346   1.171  10.460   7.600
  385POPC   C1B 8347   0.940  10.191   8.894
  385POPC   C2B 8348   1.115  10.074   8.485
  385POPC   C3B 8349   1.055  10.229   8.071
  385POPC   C4B 8350   0.772  10.148   7.736
  386POPC   NC3 8351  38.127   1.883   9.553
  386POPC   PO4 8352  38.757   2.283   9.550
  386POPC   GL1 8353  38.571   2.049   9.155
  386POPC   GL2 8354  38.225   1.896   9.054
  386POPC   C1A 8355  38.652   1.809   8.792
  386POPC   D2A 8356  38.368   1.753   8.452
  386POPC   C3A 8357  38.555   1.862   8.064
  386POPC   C4A 8358  38.936   1.816   7.832
  386POPC   C1B 8359  38.292   2.198   8.708
  386POPC   C2B 8360  38.351   2.288   8.275
  386POPC   C3B 8361  38.255   2.209   7.852
  386POPC   C4B 8362  38.115   2.102   7.430
  387POPC   NC3 8363   8.859  25.183   9.466
  387POPC   PO4 8364   8.835  25.866   9.711
  387POPC   GL1 8365   8.801  25.649   9.250
  387POPC   GL2 8366   9.087  25.416   9.059
  387POPC   C1A 8367   8.655  25.551   8.807
  387POPC   D2A 8368   8.578  25.360   8.386
  387POPC   C3A 8369   8.770  25.536   7.994
  387POPC   C4A 8370   9.238  25.489   7.868
  387POPC   C1B 8371   9.264  24.971   8.966
  387POPC   C2B 8372   9.164  24.740   8.605
  387POPC   C3B 8373   8.971  24.959   8.259
  387POPC   C4B 8374   8.931  25.074   7.828
  388POPC   NC3 8375  27.033  35.872   9.353
  388POPC   PO4 8376  26.719  36.444   9.488
  388POPC   GL1 8377  26.834  36.288   9.142
  388POPC   GL2 8378  26.594  35.992   9.116
  388POPC   C1A 8379  26.987  36.118   8.766
  388POPC   D2A 8380  26.945  36.291   8.388
  388POPC   C3A 8381  26.963  35.988   8.076
  388POPC   C4A 8382  27.073  36.217   7.749
  388POPC   C1B 8383  26.501  36.279   8.763
  388POPC   C2B 8384  26.502  36.551   8.389
  388POPC   C3B 8385  26.613  36.376   7.977
  388POPC   C4B 8386  26.512  35.965   7.804
  389POPC   NC3 8387   3.238  15.023   9.724
  389POPC   PO4 8388   3.599  15.569   9.536
  389POPC   GL1 8389   3.594  15.332   9.163
  389POPC   GL2 8390   3.282  15.267   9.128
  389POPC   C1A 8391   3.572  15.109   8.745
  389POPC   D2A 8392   3.708  15.304   8.372
  389POPC   C3A 8393   3.541  15.186   7.994
  389POPC   C4A 8394   3.613  15.034   7.559
  389POPC   C1B 8395   3.101  15.331   8.779
  389POPC   C2B 8396   3.190  15.381   8.385
  389POPC   C3B 8397   3.187  15.554   8.003
  389POPC   C4B 8398   3.174  15.290   7.681
  390POPC   NC3 8399   9.548  44.232   9.749
  390POPC   PO4 8400   9.524  43.567   9.777
  390POPC   GL1 8401   9.627  43.675   9.318
  390POPC   GL2 8402   9.561  44.033   9.263
  390POPC   C1A 8403   9.793  43.811   8.861
  390POPC   D2A 8404   9.911  43.984   8.418
  390POPC   C3A 8405   9.842  43.726   8.034
  390POPC   C4A 8406   9.487  43.556   7.780
  390POPC   C1B 8407   9.398  44.192   8.853
  390POPC   C2B 8408   9.456  44.284   8.455
  390POPC   C3B 8409   9.520  44.119   8.095
  390POPC   C4B 8410   9.910  44.182   7.843
  391POPC   NC3 8411  18.550  36.902   9.466
  391POPC   PO4 8412  17.922  36.766   9.461
  391POPC   GL1 8413  18.103  36.949   9.115
  391POPC   GL2 8414  18.441  36.873   8.982
  391POPC   C1A 8415  17.997  36.820   8.741
  391POPC   D2A 8416  18.215  36.738   8.410
  391POPC   C3A 8417  18.019  36.671   8.041
  391POPC   C4A 8418  18.084  36.818   7.664
  391POPC   C1B 8419  18.376  37.209   8.728
  391POPC   C2B 8420  18.185  37.234   8.330
  391POPC   C3B 8421  18.392  37.151   7.940
  391POPC   C4B 8422  18.784  37.312   7.709
  392POPC   NC3 8423  44.559   9.212   9.454
  392POPC   PO4 8424   0.116   8.788   9.479
  392POPC   GL1 8425  44.901   8.688   9.092
  392POPC   GL2 8426  44.576   8.876   9.057
  392POPC   C1A 8427   0.039   8.700   8.681
  392POPC   D2A 8428   0.123   8.966   8.349
  392POPC   C3A 8429   0.035   8.960   7.890
  392POPC   C4A 8430  44.818   9.088   7.498
  392POPC   C1B 8431  44.625   8.972   8.618
  392POPC   C2B 8432  44.623   8.806   8.221
  392POPC   C3B 8433  44.472   8.969   7.835
  392POPC   C4B 8434  44.379   8.811   7.426
  393POPC   NC3 8435   6.746  38.303   9.584
  393POPC   PO4 8436   6.379  38.871   9.368
  393POPC   GL1 8437   6.685  38.607   9.177
  393POPC   GL2 8438   6.424  38.365   9.171
  393POPC   C1A 8439   6.955  38.452   8.844
  393POPC   D2A 8440   6.891  38.250   8.437
  393POPC   C3A 8441   6.723  38.395   8.014
  393POPC   C4A 8442   6.899  38.519   7.592
  393POPC   C1B 8443   6.515  38.169   8.788
  393POPC   C2B 8444   6.366  38.122   8.359
  393POPC   C3B 8445   6.204  38.154   7.937
  393POPC   C4B 8446   6.460  38.235   7.573
  394POPC   NC3 8447  21.731   7.555   9.496
  394POPC   PO4 8448  21.119   7.324   9.554
  394POPC   GL1 8449  21.296   7.247   9.153
  394POPC   GL2 8450  21.373   7.559   9.131
  394POPC   C1A 8451  21.505   7.067   8.794
  394POPC   D2A 8452  21.332   7.130   8.403
  394POPC   C3A 8453  21.534   7.155   8.034
  394POPC   C4A 8454  21.248   7.075   7.768
  394POPC   C1B 8455  21.387   7.546   8.701
  394POPC   C2B 8456  21.130   7.612   8.322
  394POPC   C3B 8457  21.211   7.555   7.901
  394POPC   C4B 8458  21.656   7.643   7.879
  395POPC   NC3 8459  34.143  34.430   9.457
  395POPC   PO4 8460  33.621  34.808   9.686
  395POPC   GL1 8461  33.685  34.630   9.214
  395POPC   GL2 8462  33.954  34.407   9.000
  395POPC   C1A 8463  33.517  34.517   8.811
  395POPC   D2A 8464  33.756  34.410   8.451
  395POPC   C3A 8465  33.458  34.548   8.163
  395POPC   C4A 8466  33.462  34.676   7.743
  395POPC   C1B 8467  34.057  34.813   8.824
  395POPC   C2B 8468  34.172  34.837   8.362
  395POPC   C3B 8469  33.944  34.732   7.976
  395POPC   C4B 8470  33.946  34.717   7.497
  396POPC   NC3 8471  20.993  23.845   9.510
  396POPC   PO4 8472  20.378  23.562   9.475
  396POPC   GL1 8473  20.580  23.747   9.136
  396POPC   GL2 8474  20.845  23.527   9.119
  396POPC   C1A 8475  20.692  23.942   8.725
  396POPC   D2A 8476  20.893  23.754   8.347
  396POPC   C3A 8477  20.815  23.966   7.962
  396POPC   C4A 8478  20.445  23.773   7.812
  396POPC   C1B 8479  20.656  23.446   8.709
  396POPC   C2B 8480  20.333  23.283   8.476
  396POPC   C3B 8481  20.395  23.311   8.052
  396POPC   C4B 8482  20.832  23.451   7.903
  397POPC   NC3 8483  44.262  18.023   9.547
  397POPC   PO4 8484  43.720  18.483   9.615
  397POPC   GL1 8485  44.007  18.368   9.284
  397POPC   GL2 8486  43.803  18.482   9.050
  397POPC   C1A 8487  44.099  18.091   8.897
  397POPC   D2A 8488  44.058  18.093   8.437
  397POPC   C3A 8489  43.680  18.111   8.174
  397POPC   C4A 8490  43.704  17.986   7.724
  397POPC   C1B 8491  43.651  18.440   8.623
  397POPC   C2B 8492  43.593  18.677   8.233
  397POPC   C3B 8493  43.646  18.509   7.809
  397POPC   C4B 8494  43.431  18.605   7.431
  398POPC   NC3 8495  21.609  20.869   9.748
  398POPC   PO4 8496  21.205  20.375   9.485
  398POPC   GL1 8497  21.300  20.589   9.168
  398POPC   GL2 8498  21.090  20.385   8.951
  398POPC   C1A 8499  21.510  20.630   8.784
  398POPC   D2A 8500  21.746  20.893   8.508
  398POPC   C3A 8501  21.649  20.849   8.084
  398POPC   C4A 8502  21.619  20.516   7.780
  398POPC   C1B 8503  21.013  20.779   8.792
  398POPC   C2B 8504  21.225  20.862   8.429
  398POPC   C3B 8505  21.188  20.624   8.057
  398POPC   C4B 8506  21.094  20.422   7.666
  399POPC   NC3 8507  32.025  21.327   9.579
  399POPC   PO4 8508  31.382  21.386   9.734
  399POPC   GL1 8509  31.560  21.232   9.316
  399POPC   GL2 8510  31.274  21.128   9.124
  399POPC   C1A 8511  31.715  21.241   8.845
  399POPC   D2A 8512  31.837  21.403   8.411
  399POPC   C3A 8513  31.642  21.259   8.006
  399POPC   C4A 8514  31.615  21.030   7.620
  399POPC   C1B 8515  31.232  21.230   8.650
  399POPC   C2B 8516  31.135  21.210   8.195
  399POPC   C3B 8517  31.145  21.126   7.763
  399POPC   C4B 8518  31.243  21.207   7.300
  400POPC   NC3 8519  14.058  17.118   9.500
  400POPC   PO4 8520  13.583  17.685   9.500
  400POPC   GL1 8521  13.859  17.547   9.232
  400POPC   GL2 8522  13.692  17.306   9.107
  400POPC   C1A 8523  13.956  17.689   8.807
  400POPC   D2A 8524  13.791  17.893   8.427
  400POPC   C3A 8525  13.879  17.650   8.095
  400POPC   C4A 8526  13.999  17.720   7.704
  400POPC   C1B 8527  13.371  17.526   8.859
  400POPC   C2B 8528  13.157  17.590   8.455
  400POPC   C3B 8529  13.332  17.611   8.043
  400POPC   C4B 8530  13.591  17.426   7.721
  401POPC   NC3 8531  31.998  27.034   9.566
  401POPC   PO4 8532  32.658  26.991   9.584
  401POPC   GL1 8533  32.386  26.759   9.306
  401POPC   GL2 8534  32.402  27.039   9.060
  401POPC   C1A 8535  32.071  26.686   8.969
  401POPC   D2A 8536  32.173  26.848   8.565
  401POPC   C3A 8537  31.989  26.813   8.180
  401POPC   C4A 8538  32.079  26.581   7.845
  401POPC   C1B 8539  32.576  26.635   8.805
  401POPC   C2B 8540  32.735  26.543   8.347
  401POPC   C3B 8541  32.595  26.691   7.928
  401POPC   C4B 8542  32.313  27.033   7.823
  402POPC   NC3 8543  30.830  28.017   9.374
  402POPC   PO4 8544  30.827  28.652   9.567
  402POPC   GL1 8545  30.773  28.493   9.167
  402POPC   GL2 8546  30.472  28.324   9.078
  402POPC   C1A 8547  30.856  28.371   8.761
  402POPC   D2A 8548  30.686  28.380   8.360
  402POPC   C3A 8549  31.002  28.371   8.049
  402POPC   C4A 8550  30.804  28.427   7.664
  402POPC   C1B 8551  30.408  28.087   8.698
  402POPC   C2B 8552  30.255  28.118   8.314
  402POPC   C3B 8553  30.351  28.353   7.956
  402POPC   C4B 8554  30.392  28.124   7.602
  403POPC   NC3 8555  42.704  41.255   9.693
  403POPC   PO4 8556  43.243  41.023   9.657
  403POPC   GL1 8557  43.265  40.784   9.241
  403POPC   GL2 8558  43.553  40.579   9.216
  403POPC   C1A 8559  43.082  40.819   8.806
  403POPC   D2A 8560  42.838  40.696   8.430
  403POPC   C3A 8561  42.954  40.889   8.069
  403POPC   C4A 8562  42.836  40.926   7.660
  403POPC   C1B 8563  43.540  40.505   8.772
  403POPC   C2B 8564  43.334  40.590   8.376
  403POPC   C3B 8565  43.450  40.672   7.975
  403POPC   C4B 8566  43.344  41.007   7.751
  404POPC   NC3 8567  20.435  17.875   9.316
  404POPC   PO4 8568  20.904  18.381   9.455
  404POPC   GL1 8569  20.626  18.305   9.115
  404POPC   GL2 8570  20.722  18.614   8.997
  404POPC   C1A 8571  20.540  18.106   8.702
  404POPC   D2A 8572  20.408  18.302   8.329
  404POPC   C3A 8573  20.655  18.244   7.952
  404POPC   C4A 8574  20.751  18.195   7.517
  404POPC   C1B 8575  20.334  18.611   8.765
  404POPC   C2B 8576  20.297  18.804   8.353
  404POPC   C3B 8577  20.363  18.663   7.964
  404POPC   C4B 8578  20.320  18.429   7.599
  405POPC   NC3 8579  18.965   0.046   9.511
  405POPC   PO4 8580  19.397   0.587   9.501
  405POPC   GL1 8581  19.264   0.577   9.096
  405POPC   GL2 8582  19.055   0.282   9.042
  405POPC   C1A 8583  19.003   0.727   8.754
  405POPC   D2A 8584  18.861   0.445   8.418
  405POPC   C3A 8585  19.094   0.389   8.045
  405POPC   C4A 8586  19.041   0.566   7.654
  405POPC   C1B 8587  18.690   0.106   8.773
  405POPC   C2B 8588  18.464   0.115   8.389
  405POPC   C3B 8589  18.623   0.130   8.015
  405POPC   C4B 8590  18.739   0.164   7.616
  406POPC   NC3 8591  41.245   6.366   9.463
  406POPC   PO4 8592  40.616   6.579   9.514
  406POPC   GL1 8593  40.683   6.742   9.124
  406POPC   GL2 8594  41.021   6.733   9.156
  406POPC   C1A 8595  40.823   6.547   8.713
  406POPC   D2A 8596  40.650   6.395   8.340
  406POPC   C3A 8597  40.594   6.624   7.951
  406POPC   C4A 8598  40.716   6.976   7.726
  406POPC   C1B 8599  41.190   6.887   8.797
  406POPC   C2B 8600  41.241   6.717   8.388
  406POPC   C3B 8601  41.116   6.827   7.997
  406POPC   C4B 8602  41.174   6.742   7.583
  407POPC   NC3 8603  29.610  43.450   9.942
  407POPC   PO4 8604  29.193  43.306   9.502
  407POPC   GL1 8605  29.129  43.212   9.122
  407POPC   GL2 8606  29.207  43.545   9.065
  407POPC   C1A 8607  29.053  43.147   8.718
  407POPC   D2A 8608  29.048  42.882   8.393
  407POPC   C3A 8609  29.035  43.081   8.022
  407POPC   C4A 8610  28.842  42.908   7.660
  407POPC   C1B 8611  29.477  43.418   8.742
  407POPC   C2B 8612  29.310  43.434   8.331
  407POPC   C3B 8613  29.469  43.370   7.921
  407POPC   C4B 8614  29.201  43.284   7.564
  408POPC   NC3 8615  25.520   5.476   9.373
  408POPC   PO4 8616  25.874   6.069   9.432
  408POPC   GL1 8617  26.125   6.008   9.042
  408POPC   GL2 8618  26.459   6.186   9.080
  408POPC   C1A 8619  25.979   5.888   8.607
  408POPC   D2A 8620  25.885   5.958   8.153
  408POPC   C3A 8621  26.014   5.666   7.839
  408POPC   C4A 8622  26.199   5.433   7.504
  408POPC   C1B 8623  26.367   6.214   8.644
  408POPC   C2B 8624  26.380   5.975   8.276
  408POPC   C3B 8625  26.293   6.112   7.871
  408POPC   C4B 8626  26.509   6.325   7.559
  409POPC   NC3 8627  28.915   7.105   9.842
  409POPC   PO4 8628  29.036   6.581   9.431
  409POPC   GL1 8629  29.008   6.840   9.123
  409POPC   GL2 8630  29.253   6.638   8.964
  409POPC   C1A 8631  28.947   6.950   8.709
  409POPC   D2A 8632  29.136   6.728   8.375
  409POPC   C3A 8633  28.903   6.612   7.999
  409POPC   C4A 8634  29.069   6.253   7.765
  409POPC   C1B 8635  29.359   6.323   8.658
  409POPC   C2B 8636  29.305   6.254   8.224
  409POPC   C3B 8637  29.397   6.594   7.895
  409POPC   C4B 8638  29.370   6.913   7.544
  410POPC   NC3 8639  44.584  13.229   9.338
  410POPC   PO4 8640  44.765  12.618   9.500
  410POPC   GL1 8641  44.579  12.691   9.108
  410POPC   GL2 8642  44.268  12.839   9.195
  410POPC   C1A 8643  44.744  12.701   8.672
  410POPC   D2A 8644   0.019  12.601   8.307
  410POPC   C3A 8645  44.866  12.671   7.879
  410POPC   C4A 8646  44.635  12.600   7.497
  410POPC   C1B 8647  44.352  13.065   8.770
  410POPC   C2B 8648  44.489  13.056   8.354
  410POPC   C3B 8649  44.293  13.165   7.978
  410POPC   C4B 8650  44.548  13.070   7.604
  411POPC   NC3 8651  15.849  40.322   9.324
  411POPC   PO4 8652  16.252  39.849   9.567
  411POPC   GL1 8653  16.178  39.921   9.154
  411POPC   GL2 8654  15.834  39.849   9.134
  411POPC   C1A 8655  16.096  40.086   8.746
  411POPC   D2A 8656  16.030  39.926   8.353
  411POPC   C3A 8657  16.097  40.283   8.124
  411POPC   C4A 8658  15.992  40.395   7.733
  411POPC   C1B 8659  15.564  40.055   8.808
  411POPC   C2B 8660  15.584  40.194   8.388
  411POPC   C3B 8661  15.667  40.018   7.965
  411POPC   C4B 8662  16.003  39.800   7.750
  412POPC   NC3 8663  39.590  30.228   9.346
  412POPC   PO4 8664  38.964  29.974   9.392
  412POPC   GL1 8665  39.145  29.788   9.014
  412POPC   GL2 8666  39.495  29.880   8.977
  412POPC   C1A 8667  39.023  29.848   8.571
  412POPC   D2A 8668  38.971  30.260   8.298
  412POPC   C3A 8669  39.056  30.174   7.880
  412POPC   C4A 8670  39.200  29.765   7.780
  412POPC   C1B 8671  39.415  30.174   8.641
  412POPC   C2B 8672  39.398  29.991   8.235
  412POPC   C3B 8673  39.689  29.739   8.020
  412POPC   C4B 8674  39.698  29.727   7.615
  413POPC   NC3 8675   7.193  31.742   9.322
  413POPC   PO4 8676   7.450  32.224   9.788
  413POPC   GL1 8677   7.482  32.213   9.320
  413POPC   GL2 8678   7.746  31.987   9.198
  413POPC   C1A 8679   7.265  32.312   8.929
  413POPC   D2A 8680   7.408  32.305   8.517
  413POPC   C3A 8681   7.411  32.620   8.189
  413POPC   C4A 8682   7.419  32.351   7.820
  413POPC   C1B 8683   7.540  31.872   8.804
  413POPC   C2B 8684   7.391  31.788   8.396
  413POPC   C3B 8685   7.561  31.893   8.012
  413POPC   C4B 8686   7.568  31.883   7.535
  414POPC   NC3 8687  32.661  20.784   9.520
  414POPC   PO4 8688  32.043  20.730   9.371
  414POPC   GL1 8689  32.371  20.603   9.101
  414POPC   GL2 8690  32.572  20.292   9.188
  414POPC   C1A 8691  32.184  20.452   8.713
  414POPC   D2A 8692  31.990  20.190   8.392
  414POPC   C3A 8693  31.906  20.499   8.099
  414POPC   C4A 8694  32.132  20.784   7.824
  414POPC   C1B 8695  32.681  20.373   8.742
  414POPC   C2B 8696  32.528  20.559   8.338
  414POPC   C3B 8697  32.406  20.355   7.947
  414POPC   C4B 8698  32.310  20.415   7.502
  415POPC   NC3 8699  10.522  39.546   9.907
  415POPC   PO4 8700  10.451  38.953   9.550
  415POPC   GL1 8701  10.591  39.110   9.086
  415POPC   GL2 8702  10.498  39.435   9.011
  415POPC   C1A 8703  10.765  39.200   8.666
  415POPC   D2A 8704  10.629  39.488   8.335
  415POPC   C3A 8705  10.693  39.187   8.017
  415POPC   C4A 8706  10.902  39.058   7.644
  415POPC   C1B 8707  10.251  39.323   8.666
  415POPC   C2B 8708  10.142  39.330   8.241
  415POPC   C3B 8709  10.286  39.417   7.850
  415POPC   C4B 8710  10.390  39.058   7.623
  416POPC   NC3 8711   9.546  20.937   9.479
  416POPC   PO4 8712  10.123  20.561   9.346
  416POPC   GL1 8713   9.965  20.806   9.033
  416POPC   GL2 8714   9.650  20.725   9.044
  416POPC   C1A 8715  10.105  20.819   8.639
  416POPC   D2A 8716  10.022  20.602   8.272
  416POPC   C3A 8717  10.075  20.802   7.889
  416POPC   C4A 8718   9.905  20.653   7.528
  416POPC   C1B 8719   9.637  20.590   8.642
  416POPC   C2B 8720   9.511  20.759   8.296
  416POPC   C3B 8721   9.615  20.593   7.949
  416POPC   C4B 8722   9.458  20.376   7.670
  417POPC   NC3 8723  19.995   9.288   9.486
  417POPC   PO4 8724  19.665   8.639   9.509
  417POPC   GL1 8725  19.801   8.695   9.140
  417POPC   GL2 8726  19.757   9.041   9.104
  417POPC   C1A 8727  19.619   8.708   8.749
  417POPC   D2A 8728  19.823   8.785   8.386
  417POPC   C3A 8729  19.506   8.789   8.092
  417POPC   C4A 8730  19.745   8.865   7.757
  417POPC   C1B 8731  20.094   9.014   8.795
  417POPC   C2B 8732  20.165   9.215   8.390
  417POPC   C3B 8733  20.144   9.077   7.971
  417POPC   C4B 8734  19.983   9.244   7.558
  418POPC   NC3 8735  28.478  20.444   9.642
  418POPC   PO4 8736  28.610  21.058   9.451
  418POPC   GL1 8737  28.496  20.707   9.198
  418POPC   GL2 8738  28.209  20.569   9.229
  418POPC   C1A 8739  28.570  20.510   8.819
  418POPC   D2A 8740  28.673  20.776   8.453
  418POPC   C3A 8741  28.514  20.704   8.040
  418POPC   C4A 8742  28.176  20.950   7.840
  418POPC   C1B 8743  28.076  20.318   8.866
  418POPC   C2B 8744  28.235  20.348   8.427
  418POPC   C3B 8745  28.193  20.326   7.963
  418POPC   C4B 8746  27.847  20.247   7.698
  419POPC   NC3 8747   3.745  19.178   9.359
  419POPC   PO4 8748   4.376  19.061   9.602
  419POPC   GL1 8749   4.209  19.002   9.214
  419POPC   GL2 8750   4.187  19.351   9.142
  419POPC   C1A 8751   4.273  19.004   8.780
  419POPC   D2A 8752   4.499  19.068   8.447
  419POPC   C3A 8753   4.389  18.842   8.138
  419POPC   C4A 8754   4.215  18.874   7.744
  419POPC   C1B 8755   4.121  19.479   8.693
  419POPC   C2B 8756   4.332  19.569   8.303
  419POPC   C3B 8757   4.199  19.343   7.944
  419POPC   C4B 8758   4.082  19.305   7.527
  420POPC   NC3 8759  29.102  30.451   9.619
  420POPC   PO4 8760  29.001  31.129   9.708
  420POPC   GL1 8761  29.244  30.908   9.378
  420POPC   GL2 8762  28.971  30.767   9.241
  420POPC   C1A 8763  29.296  30.871   8.896
  420POPC   D2A 8764  29.180  30.807   8.488
  420POPC   C3A 8765  29.400  30.605   8.166
  420POPC   C4A 8766  29.270  30.610   7.735
  420POPC   C1B 8767  28.886  30.550   8.884
  420POPC   C2B 8768  28.721  30.488   8.493
  420POPC   C3B 8769  28.888  30.543   8.119
  420POPC   C4B 8770  28.740  30.810   7.829
  421POPC   NC3 8771  19.289  43.372   9.501
  421POPC   PO4 8772  18.852  42.757   9.551
  421POPC   GL1 8773  18.919  43.002   9.162
  421POPC   GL2 8774  18.889  43.367   9.104
  421POPC   C1A 8775  18.985  42.963   8.713
  421POPC   D2A 8776  18.743  43.040   8.323
  421POPC   C3A 8777  18.983  43.237   8.029
  421POPC   C4A 8778  19.404  43.103   7.843
  421POPC   C1B 8779  19.003  43.464   8.660
  421POPC   C2B 8780  19.325  43.514   8.295
  421POPC   C3B 8781  19.265  43.600   7.839
  421POPC   C4B 8782  18.906  43.466   7.549
  422POPC   NC3 8783  43.562  18.138   9.370
  422POPC   PO4 8784  43.025  17.777   9.481
  422POPC   GL1 8785  43.130  18.018   9.093
  422POPC   GL2 8786  43.260  18.389   9.069
  422POPC   C1A 8787  43.247  18.077   8.655
  422POPC   D2A 8788  43.214  18.333   8.279
  422POPC   C3A 8789  43.070  18.176   7.900
  422POPC   C4A 8790  42.738  17.996   7.704
  422POPC   C1B 8791  43.077  18.565   8.708
  422POPC   C2B 8792  42.794  18.687   8.370
  422POPC   C3B 8793  42.773  18.805   7.951
  422POPC   C4B 8794  43.180  18.670   7.889
  423POPC   NC3 8795  15.601  22.545   9.750
  423POPC   PO4 8796  15.014  22.094   9.623
  423POPC   GL1 8797  15.012  22.113   9.198
  423POPC   GL2 8798  15.009  22.445   9.239
  423POPC   C1A 8799  15.141  22.189   8.764
  423POPC   D2A 8800  15.391  22.302   8.443
  423POPC   C3A 8801  15.319  22.247   8.004
  423POPC   C4A 8802  15.610  22.395   7.684
  423POPC   C1B 8803  14.827  22.585   8.882
  423POPC   C2B 8804  14.851  22.469   8.460
  423POPC   C3B 8805  14.900  22.612   8.082
  423POPC   C4B 8806  15.037  22.590   7.721
  424POPC   NC3 8807  24.767  11.751   9.553
  424POPC   PO4 8808  24.339  12.253   9.557
  424POPC   GL1 8809  24.408  12.232   9.116
  424POPC   GL2 8810  24.765  12.190   9.095
  424POPC   C1A 8811  24.332  12.131   8.669
  424POPC   D2A 8812  24.304  11.897   8.281
  424POPC   C3A 8813  24.264  12.016   7.855
  424POPC   C4A 8814  24.141  11.753   7.494
  424POPC   C1B 8815  24.852  12.161   8.658
  424POPC   C2B 8816  24.777  12.176   8.210
  424POPC   C3B 8817  24.735  11.817   7.950
  424POPC   C4B 8818  24.674  11.738   7.509
  425POPC   NC3 8819  39.656   3.191   9.367
  425POPC   PO4 8820  40.345   3.270   9.318
  425POPC   GL1 8821  40.214   3.376   8.969
  425POPC   GL2 8822  39.920   3.554   9.104
  425POPC   C1A 8823  40.189   3.687   8.678
  425POPC   D2A 8824  40.083   3.954   8.383
  425POPC   C3A 8825  40.228   3.845   7.979
  425POPC   C4A 8826  40.112   3.799   7.552
  425POPC   C1B 8827  39.764   3.372   8.718
  425POPC   C2B 8828  39.825   3.531   8.286
  425POPC   C3B 8829  39.871   3.462   7.850
  425POPC   C4B 8830  39.624   3.098   7.720
  426POPC   NC3 8831  25.715  35.246   9.567
  426POPC   PO4 8832  25.134  35.556   9.576
  426POPC   GL1 8833  25.336  35.314   9.223
  426POPC   GL2 8834  25.043  35.240   9.043
  426POPC   C1A 8835  25.468  35.388   8.797
  426POPC   D2A 8836  25.404  35.475   8.363
  426POPC   C3A 8837  25.175  35.190   8.070
  426POPC   C4A 8838  25.352  35.325   7.641
  426POPC   C1B 8839  25.013  35.243   8.606
  426POPC   C2B 8840  24.905  35.554   8.317
  426POPC   C3B 8841  25.015  35.629   7.913
  426POPC   C4B 8842  24.837  35.319   7.657
  427POPC   NC3 8843  37.785  35.666   9.565
  427POPC   PO4 8844  37.345  35.155   9.824
  427POPC   GL1 8845  37.458  35.291   9.341
  427POPC   GL2 8846  37.491  35.650   9.141
  427POPC   C1A 8847  37.587  35.220   8.890
  427POPC   D2A 8848  37.703  35.416   8.484
  427POPC   C3A 8849  37.731  35.147   8.121
  427POPC   C4A 8850  37.664  35.034   7.704
  427POPC   C1B 8851  37.879  35.766   8.850
  427POPC   C2B 8852  38.137  35.717   8.465
  427POPC   C3B 8853  37.983  35.603   8.075
  427POPC   C4B 8854  37.622  35.537   7.822
  428POPC   NC3 8855  26.356  12.704   9.488
  428POPC   PO4 8856  25.806  13.089   9.454
  428POPC   GL1 8857  25.946  12.816   9.141
  428POPC   GL2 8858  26.179  13.062   9.072
  428POPC   C1A 8859  25.825  12.769   8.704
  428POPC   D2A 8860  25.958  12.948   8.296
  428POPC   C3A 8861  25.738  12.898   7.924
  428POPC   C4A 8862  25.889  13.007   7.515
  428POPC   C1B 8863  26.304  12.934   8.666
  428POPC   C2B 8864  26.219  12.518   8.479
  428POPC   C3B 8865  26.289  12.435   8.057
  428POPC   C4B 8866  26.242  12.724   7.733
  429POPC   NC3 8867   7.572  28.368   9.597
  429POPC   PO4 8868   7.321  28.936   9.438
  429POPC   GL1 8869   7.313  28.522   9.175
  429POPC   GL2 8870   7.550  28.186   9.134
  429POPC   C1A 8871   7.245  28.437   8.753
  429POPC   D2A 8872   7.362  28.561   8.347
  429POPC   C3A 8873   7.268  28.159   8.136
  429POPC   C4A 8874   7.125  28.082   7.752
  429POPC   C1B 8875   7.746  28.315   8.760
  429POPC   C2B 8876   7.733  28.180   8.350
  429POPC   C3B 8877   7.696  28.395   7.969
  429POPC   C4B 8878   7.452  28.476   7.606
  430POPC   NC3 8879  14.863  11.751   9.324
  430POPC   PO4 8880  15.417  11.960   9.629
  430POPC   GL1 8881  15.247  12.120   9.236
  430POPC   GL2 8882  15.223  11.885   8.983
  430POPC   C1A 8883  15.089  12.363   8.871
  430POPC   D2A 8884  14.810  12.427   8.486
  430POPC   C3A 8885  14.970  12.163   8.170
  430POPC   C4A 8886  15.374  12.227   7.938
  430POPC   C1B 8887  15.303  12.011   8.539
  430POPC   C2B 8888  15.568  11.722   8.256
  430POPC   C3B 8889  15.685  11.694   7.857
  430POPC   C4B 8890  15.307  11.803   7.683
  431POPC   NC3 8891  36.160  23.369   9.747
  431POPC   PO4 8892  36.531  23.895   9.553
  431POPC   GL1 8893  36.341  23.578   9.271
  431POPC   GL2 8894  35.997  23.662   9.173
  431POPC   C1A 8895  36.362  23.593   8.803
  431POPC   D2A 8896  36.216  23.450   8.363
  431POPC   C3A 8897  36.446  23.678   8.036
  431POPC   C4A 8898  36.356  23.781   7.608
  431POPC   C1B 8899  35.858  23.494   8.761
  431POPC   C2B 8900  35.741  23.186   8.451
  431POPC   C3B 8901  35.644  23.298   8.041
  431POPC   C4B 8902  35.974  23.507   7.819
  432POPC   NC3 8903  20.231  28.759   9.448
  432POPC   PO4 8904  20.707  28.577   9.880
  432POPC   GL1 8905  20.673  28.578   9.262
  432POPC   GL2 8906  20.671  28.170   9.110
  432POPC   C1A 8907  20.475  28.478   8.796
  432POPC   D2A 8908  20.339  28.150   8.495
  432POPC   C3A 8909  20.532  28.270   8.135
  432POPC   C4A 8910  20.420  28.566   7.871
  432POPC   C1B 8911  20.997  28.317   8.867
  432POPC   C2B 8912  21.218  28.264   8.496
  432POPC   C3B 8913  21.043  28.245   8.092
  432POPC   C4B 8914  20.833  28.302   7.704
  433POPC   NC3 8915  25.579  43.629   9.289
  433POPC   PO4 8916  25.061  43.974   9.636
  433POPC   GL1 8917  25.095  43.768   9.227
  433POPC   GL2 8918  25.267  44.026   9.105
  433POPC   C1A 8919  25.145  43.608   8.783
  433POPC   D2A 8920  25.217  43.907   8.443
  433POPC   C3A 8921  25.333  43.694   8.065
  433POPC   C4A 8922  25.201  43.764   7.638
  433POPC   C1B 8923  25.513  44.220   8.815
  433POPC   C2B 8924  25.563  44.337   8.430
  433POPC   C3B 8925  25.652  44.292   8.047
  433POPC   C4B 8926  25.651  43.987   7.778
  434POPC   NC3 8927  14.261  16.659  10.194
  434POPC   PO4 8928  14.044  16.636   9.514
  434POPC   GL1 8929  14.328  16.660   9.199
  434POPC   GL2 8930  14.442  16.963   9.213
  434POPC   C1A 8931  14.526  16.536   8.826
  434POPC   D2A 8932  14.582  16.371   8.432
  434POPC   C3A 8933  14.435  16.423   8.016
  434POPC   C4A 8934  14.257  16.389   7.582
  434POPC   C1B 8935  14.305  16.985   8.794
  434POPC   C2B 8936  14.599  16.887   8.451
  434POPC   C3B 8937  14.586  16.915   8.017
  434POPC   C4B 8938  14.200  16.836   7.822
  435POPC   NC3 8939  27.986  33.598   9.821
  435POPC   PO4 8940  27.530  34.027   9.409
  435POPC   GL1 8941  27.678  33.977   8.975
  435POPC   GL2 8942  27.575  33.680   8.966
  435POPC   C1A 8943  27.758  34.132   8.570
  435POPC   D2A 8944  27.444  34.163   8.250
  435POPC   C3A 8945  27.471  33.917   7.847
  435POPC   C4A 8946  27.471  34.052   7.394
  435POPC   C1B 8947  27.314  33.813   8.618
  435POPC   C2B 8948  27.255  33.603   8.210
  435POPC   C3B 8949  27.368  33.394   7.833
  435POPC   C4B 8950  27.520  33.560   7.421
  436POPC   NC3 8951  15.837  11.801   9.545
  436POPC   PO4 8952  16.128  12.365   9.466
  436POPC   GL1 8953  15.780  12.195   9.239
  436POPC   GL2 8954  15.989  11.981   9.061
  436POPC   C1A 8955  15.604  12.286   8.870
  436POPC   D2A 8956  15.800  12.046   8.582
  436POPC   C3A 8957  15.843  12.133   8.147
  436POPC   C4A 8958  15.856  12.153   7.723
  436POPC   C1B 8959  16.307  12.069   8.715
  436POPC   C2B 8960  16.396  12.112   8.256
  436POPC   C3B 8961  16.316  11.924   7.847
  436POPC   C4B 8962  16.084  11.739   7.476
  437POPC   NC3 8963  26.244  10.416   9.817
  437POPC   PO4 8964  25.909  10.835   9.500
  437POPC   GL1 8965  26.067  10.607   9.185
  437POPC   GL2 8966  26.369  10.435   9.311
  437POPC   C1A 8967  26.062  10.632   8.742
  437POPC   D2A 8968  26.299  10.789   8.380
  437POPC   C3A 8969  26.111  10.678   7.997
  437POPC   C4A 8970  25.800  10.404   7.876
  437POPC   C1B 8971  26.146  10.136   9.025
  437POPC   C2B 8972  26.124  10.123   8.595
  437POPC   C3B 8973  26.153  10.159   8.166
  437POPC   C4B 8974  26.340  10.102   7.786
  438POPC   NC3 8975   3.080   3.191   9.804
  438POPC   PO4 8976   2.484   3.572   9.716
  438POPC   GL1 8977   2.641   3.451   9.304
  438POPC   GL2 8978   2.948   3.221   9.285
  438POPC   C1A 8979   2.588   3.649   8.883
  438POPC   D2A 8980   2.854   3.703   8.528
  438POPC   C3A 8981   2.656   3.671   8.147
  438POPC   C4A 8982   2.899   3.767   7.814
  438POPC   C1B 8983   2.907   3.229   8.808
  438POPC   C2B 8984   2.557   3.271   8.497
  438POPC   C3B 8985   2.501   3.166   8.064
  438POPC   C4B 8986   2.744   3.310   7.711
  439POPC   NC3 8987  18.471  18.935   9.423
  439POPC   PO4 8988  18.454  18.233   9.535
  439POPC   GL1 8989  18.349  18.026   9.163
  439POPC   GL2 8990  17.981  17.902   9.191
  439POPC   C1A 8991  18.457  18.187   8.736
  439POPC   D2A 8992  18.367  18.562   8.458
  439POPC   C3A 8993  18.413  18.446   8.011
  439POPC   C4A 8994  18.076  18.421   7.713
  439POPC   C1B 8995  17.947  18.061   8.766
  439POPC   C2B 8996  18.123  18.119   8.335
  439POPC   C3B 8997  17.999  17.975   7.937
  439POPC   C4B 8998  17.778  18.051   7.558
  440POPC   NC3 8999  30.059  30.271   9.709
  440POPC   PO4 9000  29.924  29.716   9.539
  440POPC   GL1 9001  29.998  30.031   9.243
  440POPC   GL2 9002  30.302  30.204   9.226
  440POPC   C1A 9003  29.823  30.164   8.858
  440POPC   D2A 9004  29.732  29.982   8.488
  440POPC   C3A 9005  29.644  30.161   8.129
  440POPC   C4A 9006  29.666  30.015   7.754
  440POPC   C1B 9007  30.289  29.935   8.842
  440POPC   C2B 9008  30.243  30.128   8.455
  440POPC   C3B 9009  30.182  29.964   8.083
  440POPC   C4B 9010  30.185  30.105   7.684
  441POPC   NC3 9011  43.878  12.673   9.567
  441POPC   PO4 9012  44.125  13.295   9.453
  441POPC   GL1 9013  43.797  13.026   9.165
  441POPC   GL2 9014  43.784  12.666   9.062
  441POPC   C1A 9015  43.707  13.024   8.713
  441POPC   D2A 9016  43.975  12.983   8.366
  441POPC   C3A 9017  43.850  12.745   8.040
  441POPC   C4A 9018  43.980  12.749   7.645
  441POPC   C1B 9019  44.102  12.635   8.749
  441POPC   C2B 9020  44.338  12.579   8.394
  441POPC   C3B 9021  44.362  12.668   7.979
  441POPC   C4B 9022  44.280  12.344   7.723
  442POPC   NC3 9023  24.726  44.382   9.634
  442POPC   PO4 9024  24.201  44.905   9.692
  442POPC   GL1 9025  24.417  44.867   9.228
  442POPC   GL2 9026  24.656  44.617   9.198
  442POPC   C1A 9027  24.541  44.917   8.742
  442POPC   D2A 9028  24.649  44.794   8.285
  442POPC   C3A 9029  24.363  44.798   7.874
  442POPC   C4A 9030  24.191  44.998   7.451
  442POPC   C1B 9031  24.514  44.435   8.869
  442POPC   C2B 9032  24.595  44.316   8.475
  442POPC   C3B 9033  24.691  44.165   8.092
  442POPC   C4B 9034  24.444  44.288   7.803
  443POPC   NC3 9035   3.399   6.412   9.685
  443POPC   PO4 9036   3.898   6.841   9.574
  443POPC   GL1 9037   3.580   6.842   9.227
  443POPC   GL2 9038   3.515   6.506   9.172
  443POPC   C1A 9039   3.300   6.940   8.925
  443POPC   D2A 9040   3.374   7.010   8.492
  443POPC   C3A 9041   3.474   6.630   8.268
  443POPC   C4A 9042   3.378   6.594   7.844
  443POPC   C1B 9043   3.638   6.346   8.747
  443POPC   C2B 9044   3.866   6.242   8.359
  443POPC   C3B 9045   3.830   6.376   7.914
  443POPC   C4B 9046   3.630   6.252   7.520
  444POPC   NC3 9047  31.092  19.553   9.333
  444POPC   PO4 9048  31.627  19.933   9.458
  444POPC   GL1 9049  31.698  19.739   9.114
  444POPC   GL2 9050  31.387  19.788   9.010
  444POPC   C1A 9051  31.826  19.632   8.735
  444POPC   D2A 9052  31.722  19.758   8.302
  444POPC   C3A 9053  31.734  19.681   7.906
  444POPC   C4A 9054  31.617  19.859   7.514
  444POPC   C1B 9055  31.456  19.967   8.675
  444POPC   C2B 9056  31.221  19.911   8.338
  444POPC   C3B 9057  31.240  19.659   8.025
  444POPC   C4B 9058  31.036  19.725   7.656
  445POPC   NC3 9059  30.946   8.723   9.397
  445POPC   PO4 9060  30.354   9.163   9.581
  445POPC   GL1 9061  30.515   9.008   9.197
  445POPC   GL2 9062  30.838   9.186   9.207
  445POPC   C1A 9063  30.553   8.849   8.758
  445POPC   D2A 9064  30.405   8.733   8.325
  445POPC   C3A 9065  30.696   8.705   7.972
  445POPC   C4A 9066  30.595   8.642   7.503
  445POPC   C1B 9067  31.021   9.042   8.833
  445POPC   C2B 9068  30.913   9.191   8.451
  445POPC   C3B 9069  31.048   9.086   8.050
  445POPC   C4B 9070  30.880   9.036   7.620
  446POPC   NC3 9071  18.105   0.557   9.535
  446POPC   PO4 9072  18.789   0.490   9.590
  446POPC   GL1 9073  18.567   0.345   9.210
  446POPC   GL2 9074  18.226   0.219   9.173
  446POPC   C1A 9075  18.453   0.556   8.809
  446POPC   D2A 9076  18.505   0.797   8.443
  446POPC   C3A 9077  18.408   0.569   8.106
  446POPC   C4A 9078  18.508   0.595   7.700
  446POPC   C1B 9079  17.953   0.441   8.871
  446POPC   C2B 9080  18.058   0.428   8.476
  446POPC   C3B 9081  17.926   0.384   8.098
  446POPC   C4B 9082  17.999   0.659   7.766
  447POPC   NC3 9083  36.354  29.404   9.405
  447POPC   PO4 9084  35.746  29.108   9.425
  447POPC   GL1 9085  36.037  29.145   9.073
  447POPC   GL2 9086  36.347  28.944   9.052
  447POPC   C1A 9087  35.955  29.132   8.659
  447POPC   D2A 9088  35.952  28.907   8.317
  447POPC   C3A 9089  35.968  29.157   7.965
  447POPC   C4A 9090  36.352  29.112   7.773
  447POPC   C1B 9091  36.445  29.241   8.727
  447POPC   C2B 9092  36.354  29.245   8.289
  447POPC   C3B 9093  36.324  29.580   7.968
  447POPC   C4B 9094  36.451  29.778   7.555
  448POPC   NC3 9095  27.335   5.899   9.478
  448POPC   PO4 9096  27.945   6.208   9.362
  448POPC   GL1 9097  27.659   6.031   9.091
  448POPC   GL2 9098  27.608   5.666   9.103
  448POPC   C1A 9099  27.567   5.916   8.670
  448POPC   D2A 9100  27.684   5.712   8.304
  448POPC   C3A 9101  27.489   6.005   8.051
  448POPC   C4A 9102  27.656   5.988   7.676
  448POPC   C1B 9103  27.307   5.482   8.776
  448POPC   C2B 9104  27.178   5.687   8.370
  448POPC   C3B 9105  27.295   5.555   7.933
  448POPC   C4B 9106  27.711   5.448   7.787
  449POPC   NC3 9107  31.763  19.485   9.561
  449POPC   PO4 9108  32.508  19.462   9.505
  449POPC   GL1 9109  32.284  19.726   9.213
  449POPC   GL2 9110  32.599  19.782   9.084
  449POPC   C1A 9111  32.237  19.930   8.780
  449POPC   D2A 9112  32.229  19.660   8.405
  449POPC   C3A 9113  32.224  19.869   8.024
  449POPC   C4A 9114  31.985  20.111   7.757
  449POPC   C1B 9115  32.565  19.526   8.775
  449POPC   C2B 9116  32.741  19.487   8.430
  449POPC   C3B 9117  32.606  19.520   8.048
  449POPC   C4B 9118  32.523  19.648   7.641
  450POPC   NC3 9119  10.406   2.984   9.668
  450POPC   PO4 9120  10.862   2.507   9.585
  450POPC   GL1 9121  10.543   2.712   9.259
  450POPC   GL2 9122  10.459   3.051   9.178
  450POPC   C1A 9123  10.419   2.708   8.822
  450POPC   D2A 9124  10.435   2.894   8.426
  450POPC   C3A 9125  10.745   2.799   8.142
  450POPC   C4A 9126  10.640   2.522   7.820
  450POPC   C1B 9127  10.624   3.209   8.822
  450POPC   C2B 9128  10.495   3.394   8.419
  450POPC   C3B 9129  10.474   3.225   8.021
  450POPC   C4B 9130  10.761   3.106   7.716
  451POPC   NC3 9131  22.601  25.262   9.472
  451POPC   PO4 9132  23.309  25.516   9.517
  451POPC   GL1 9133  23.010  25.552   9.202
  451POPC   GL2 9134  22.928  25.198   9.088
  451POPC   C1A 9135  22.824  25.606   8.799
  451POPC   D2A 9136  22.767  25.284   8.479
  451POPC   C3A 9137  22.984  25.410   8.131
  451POPC   C4A 9138  22.951  25.525   7.716
  451POPC   C1B 9139  23.206  25.224   8.731
  451POPC   C2B 9140  23.191  24.983   8.322
  451POPC   C3B 9141  23.257  25.078   7.859
  451POPC   C4B 9142  23.193  24.983   7.431
  452POPC   NC3 9143  37.523   3.348   9.539
  452POPC   PO4 9144  37.881   3.898   9.346
  452POPC   GL1 9145  37.521   3.675   9.105
  452POPC   GL2 9146  37.482   3.318   9.047
  452POPC   C1A 9147  37.291   3.649   8.701
  452POPC   D2A 9148  37.259   3.897   8.311
  452POPC   C3A 9149  37.501   3.704   8.000
  452POPC   C4A 9150  37.553   3.805   7.610
  452POPC   C1B 9151  37.733   3.236   8.741
  452POPC   C2B 9152  37.621   3.335   8.358
  452POPC   C3B 9153  37.595   3.111   8.011
  452POPC   C4B 9154  37.618   3.293   7.600
  453POPC   NC3 9155  32.854  32.610   9.454
  453POPC   PO4 9156  33.340  32.157   9.501
  453POPC   GL1 9157  33.150  32.314   9.140
  453POPC   GL2 9158  32.838  32.231   9.071
  453POPC   C1A 9159  33.214  32.256   8.703
  453POPC   D2A 9160  33.051  32.408   8.328
  453POPC   C3A 9161  33.201  32.207   7.989
  453POPC   C4A 9162  32.843  32.053   7.805
  453POPC   C1B 9163  32.866  32.622   8.787
  453POPC   C2B 9164  32.585  32.664   8.415
  453POPC   C3B 9165  32.614  32.469   8.037
  453POPC   C4B 9166  32.890  32.589   7.789
  454POPC   NC3 9167   4.643  33.170   9.354
  454POPC   PO4 9168   4.238  33.604   9.604
  454POPC   GL1 9169   4.187  33.772   9.202
  454POPC   GL2 9170   4.446  33.539   9.091
  454POPC   C1A 9171   4.361  33.936   8.810
  454POPC   D2A 9172   4.577  33.963   8.415
  454POPC   C3A 9173   4.264  34.016   8.097
  454POPC   C4A 9174   4.241  34.095   7.667
  454POPC   C1B 9175   4.151  33.441   8.779
  454POPC   C2B 9176   3.902  33.424   8.390
  454POPC   C3B 9177   4.010  33.415   7.959
  454POPC   C4B 9178   4.349  33.605   7.805
  455POPC   NC3 9179  24.073  24.725   9.432
  455POPC   PO4 9180  24.533  24.302   9.429
  455POPC   GL1 9181  24.636  24.506   9.069
  455POPC   GL2 9182  24.302  24.565   9.006
  455POPC   C1A 9183  24.591  24.458   8.600
  455POPC   D2A 9184  24.465  24.197   8.228
  455POPC   C3A 9185  24.574  24.371   7.806
  455POPC   C4A 9186  24.554  24.805   7.723
  455POPC   C1B 9187  24.112  24.751   8.682
  455POPC   C2B 9188  24.104  24.892   8.278
  455POPC   C3B 9189  24.104  24.567   7.987
  455POPC   C4B 9190  24.126  24.138   7.823
  456POPC   NC3 9191  35.578  35.323   9.490
  456POPC   PO4 9192  34.911  35.500   9.477
  456POPC   GL1 9193  35.163  35.346   9.110
  456POPC   GL2 9194  35.498  35.150   9.013
  456POPC   C1A 9195  35.373  35.613   8.800
  456POPC   D2A 9196  35.643  35.681   8.447
  456POPC   C3A 9197  35.406  35.492   8.143
  456POPC   C4A 9198  35.484  35.438   7.737
  456POPC   C1B 9199  35.575  35.186   8.568
  456POPC   C2B 9200  35.478  34.892   8.266
  456POPC   C3B 9201  35.547  34.899   7.867
  456POPC   C4B 9202  35.793  35.069   7.571
  457POPC   NC3 9203   5.979  38.121   9.312
  457POPC   PO4 9204   5.637  38.649   9.693
  457POPC   GL1 9205   5.660  38.622   9.237
  457POPC   GL2 9206   5.983  38.616   9.106
  457POPC   C1A 9207   5.565  38.479   8.812
  457POPC   D2A 9208   5.545  38.173   8.501
  457POPC   C3A 9209   5.594  38.385   8.157
  457POPC   C4A 9210   5.701  38.664   7.843
  457POPC   C1B 9211   6.054  38.437   8.673
  457POPC   C2B 9212   6.056  38.629   8.247
  457POPC   C3B 9213   6.201  38.648   7.818
  457POPC   C4B 9214   5.994  38.439   7.461
  458POPC   NC3 9215   8.022   3.325   9.469
  458POPC   PO4 9216   8.713   3.609   9.587
  458POPC   GL1 9217   8.427   3.589   9.279
  458POPC   GL2 9218   8.538   3.276   9.142
  458POPC   C1A 9219   8.195   3.567   8.898
  458POPC   D2A 9220   7.963   3.488   8.527
  458POPC   C3A 9221   8.111   3.605   8.136
  458POPC   C4A 9222   8.167   3.542   7.715
  458POPC   C1B 9223   8.320   3.098   8.749
  458POPC   C2B 9224   8.155   3.057   8.349
  458POPC   C3B 9225   8.303   3.116   7.965
  458POPC   C4B 9226   8.486   3.128   7.598
  459POPC   NC3 9227  28.724   3.584   9.862
  459POPC   PO4 9228  28.303   3.827   9.449
  459POPC   GL1 9229  28.300   3.562   9.124
  459POPC   GL2 9230  28.595   3.429   9.152
  459POPC   C1A 9231  28.013   3.503   8.811
  459POPC   D2A 9232  27.990   3.671   8.417
  459POPC   C3A 9233  28.257   3.450   8.143
  459POPC   C4A 9234  28.329   3.537   7.730
  459POPC   C1B 9235  28.501   3.241   8.742
  459POPC   C2B 9236  28.696   3.239   8.313
  459POPC   C3B 9237  28.793   3.595   7.994
  459POPC   C4B 9238  28.759   3.677   7.514
  460POPC   NC3 9239  19.107  27.712   9.691
  460POPC   PO4 9240  19.128  28.379   9.491
  460POPC   GL1 9241  19.102  28.520   9.085
  460POPC   GL2 9242  19.443  28.648   9.059
  460POPC   C1A 9243  18.945  28.568   8.651
  460POPC   D2A 9244  18.639  28.598   8.322
  460POPC   C3A 9245  18.891  28.501   7.959
  460POPC   C4A 9246  19.169  28.197   7.855
  460POPC   C1B 9247  19.447  28.380   8.732
  460POPC   C2B 9248  19.315  28.398   8.307
  460POPC   C3B 9249  19.558  28.508   7.943
  460POPC   C4B 9250  19.405  28.489   7.500
  461POPC   NC3 9251  24.929  28.271   9.227
  461POPC   PO4 9252  24.275  28.141   9.427
  461POPC   GL1 9253  24.439  28.291   9.075
  461POPC   GL2 9254  24.234  28.527   8.985
  461POPC   C1A 9255  24.619  28.297   8.658
  461POPC   D2A 9256  24.426  28.262   8.298
  461POPC   C3A 9257  24.642  28.157   7.927
  461POPC   C4A 9258  24.654  28.213   7.494
  461POPC   C1B 9259  24.230  28.678   8.565
  461POPC   C2B 9260  23.976  28.565   8.228
  461POPC   C3B 9261  24.187  28.421   7.896
  461POPC   C4B 9262  24.471  28.652   7.728
  462POPC   NC3 9263   4.941   0.200   9.487
  462POPC   PO4 9264   5.334   0.756   9.547
  462POPC   GL1 9265   4.950   0.707   9.259
  462POPC   GL2 9266   4.918   0.373   9.031
  462POPC   C1A 9267   5.082   0.789   8.831
  462POPC   D2A 9268   5.172   0.431   8.571
  462POPC   C3A 9269   5.228   0.521   8.173
  462POPC   C4A 9270   5.412   0.552   7.831
  462POPC   C1B 9271   4.666   0.484   8.670
  462POPC   C2B 9272   4.745   0.397   8.246
  462POPC   C3B 9273   4.916   0.240   7.858
  462POPC   C4B 9274   4.680   0.208   7.445
  463POPC   NC3 9275   1.918   1.493   9.675
  463POPC   PO4 9276   2.288   1.098   9.308
  463POPC   GL1 9277   2.113   1.479   9.203
  463POPC   GL2 9278   1.756   1.363   9.201
  463POPC   C1A 9279   2.123   1.652   8.816
  463POPC   D2A 9280   2.082   1.293   8.534
  463POPC   C3A 9281   2.078   1.297   8.085
  463POPC   C4A 9282   2.300   1.435   7.687
  463POPC   C1B 9283   1.642   1.450   8.788
  463POPC   C2B 9284   1.572   1.269   8.387
  463POPC   C3B 9285   1.476   1.477   8.012
  463POPC   C4B 9286   1.800   1.546   7.749
  464POPC   NC3 9287  16.333  23.852   9.304
  464POPC   PO4 9288  16.112  23.302   9.661
  464POPC   GL1 9289  15.930  23.516   9.241
  464POPC   GL2 9290  15.868  23.882   9.130
  464POPC   C1A 9291  15.934  23.452   8.760
  464POPC   D2A 9292  15.729  23.640   8.383
  464POPC   C3A 9293  15.836  23.598   7.912
  464POPC   C4A 9294  15.926  23.450   7.464
  464POPC   C1B 9295  16.065  23.932   8.719
  464POPC   C2B 9296  16.268  23.764   8.332
  464POPC   C3B 9297  16.229  23.952   7.910
  464POPC   C4B 9298  16.020  24.004   7.506
  465POPC   NC3 9299  28.030  43.767  10.130
  465POPC   PO4 9300  28.443  43.601   9.592
  465POPC   GL1 9301  28.460  43.882   9.220
  465POPC   GL2 9302  28.198  44.135   9.088
  465POPC   C1A 9303  28.523  43.925   8.775
  465POPC   D2A 9304  28.274  44.157   8.465
  465POPC   C3A 9305  28.432  44.182   8.033
  465POPC   C4A 9306  28.689  43.914   7.739
  465POPC   C1B 9307  28.034  43.806   8.776
  465POPC   C2B 9308  28.146  43.644   8.340
  465POPC   C3B 9309  28.233  43.724   7.888
  465POPC   C4B 9310  28.235  44.054   7.548
  466POPC   NC3 9311  32.736  17.408   9.563
  466POPC   PO4 9312  32.254  17.819   9.744
  466POPC   GL1 9313  32.273  17.661   9.314
  466POPC   GL2 9314  32.598  17.757   9.188
  466POPC   C1A 9315  32.195  17.725   8.850
  466POPC   D2A 9316  32.336  17.904   8.451
  466POPC   C3A 9317  32.227  17.704   8.094
  466POPC   C4A 9318  32.356  17.606   7.714
  466POPC   C1B 9319  32.560  17.383   8.911
  466POPC   C2B 9320  32.302  17.325   8.504
  466POPC   C3B 9321  32.320  17.177   8.061
  466POPC   C4B 9322  32.694  17.219   7.825
  467POPC   NC3 9323  16.498  12.070   9.435
  467POPC   PO4 9324  17.084  12.221   9.719
  467POPC   GL1 9325  16.963  12.084   9.209
  467POPC   GL2 9326  16.670  12.303   9.017
  467POPC   C1A 9327  16.872  11.928   8.760
  467POPC   D2A 9328  17.115  11.967   8.365
  467POPC   C3A 9329  16.866  11.975   7.989
  467POPC   C4A 9330  16.660  12.350   7.811
  467POPC   C1B 9331  17.014  12.413   8.718
  467POPC   C2B 9332  17.065  12.641   8.373
  467POPC   C3B 9333  17.201  12.481   8.025
  467POPC   C4B 9334  17.118  12.540   7.626
  468POPC   NC3 9335  34.288  14.685   9.823
  468POPC   PO4 9336  33.713  14.637   9.470
  468POPC   GL1 9337  33.698  14.463   9.105
  468POPC   GL2 9338  34.032  14.436   9.040
  468POPC   C1A 9339  33.521  14.408   8.714
  468POPC   D2A 9340  33.658  14.237   8.324
  468POPC   C3A 9341  33.798  14.496   8.011
  468POPC   C4A 9342  34.104  14.806   8.010
  468POPC   C1B 9343  33.873  14.046   8.785
  468POPC   C2B 9344  33.868  13.774   8.401
  468POPC   C3B 9345  33.933  13.974   8.001
  468POPC   C4B 9346  33.558  14.105   7.801
  469POPC   NC3 9347   6.081  28.756   9.753
  469POPC   PO4 9348   5.617  28.251   9.535
  469POPC   GL1 9349   5.821  28.349   9.184
  469POPC   GL2 9350   5.840  28.650   9.306
  469POPC   C1A 9351   5.874  28.236   8.760
  469POPC   D2A 9352   6.006  28.212   8.332
  469POPC   C3A 9353   5.746  28.351   8.000
  469POPC   C4A 9354   5.357  28.196   7.861
  469POPC   C1B 9355   5.699  28.740   8.877
  469POPC   C2B 9356   5.600  28.592   8.461
  469POPC   C3B 9357   5.475  28.800   8.083
  469POPC   C4B 9358   5.722  28.816   7.725
  470POPC   NC3 9359  34.023  21.531   9.599
  470POPC   PO4 9360  33.333  21.728   9.601
  470POPC   GL1 9361  33.695  21.604   9.231
  470POPC   GL2 9362  33.941  21.260   9.163
  470POPC   C1A 9363  33.861  21.577   8.791
  470POPC   D2A 9364  33.799  21.273   8.480
  470POPC   C3A 9365  33.638  21.443   8.126
  470POPC   C4A 9366  33.590  21.185   7.762
  470POPC   C1B 9367  34.276  21.270   8.802
  470POPC   C2B 9368  34.284  21.218   8.336
  470POPC   C3B 9369  34.091  21.270   7.960
  470POPC   C4B 9370  33.999  21.663   7.798
  471POPC   NC3 9371   4.206   5.244   9.482
  471POPC   PO4 9372   4.318   4.659   9.347
  471POPC   GL1 9373   4.350   4.977   9.027
  471POPC   GL2 9374   4.529   5.286   9.085
  471POPC   C1A 9375   4.376   4.973   8.579
  471POPC   D2A 9376   4.014   4.918   8.355
  471POPC   C3A 9377   4.084   4.980   7.936
  471POPC   C4A 9378   4.497   5.066   7.779
  471POPC   C1B 9379   4.416   5.491   8.715
  471POPC   C2B 9380   4.617   5.414   8.326
  471POPC   C3B 9381   4.481   5.553   7.987
  471POPC   C4B 9382   4.112   5.480   7.792
  472POPC   NC3 9383   6.257  15.769   9.458
  472POPC   PO4 9384   6.370  16.394   9.353
  472POPC   GL1 9385   6.606  16.057   9.163
  472POPC   GL2 9386   6.778  15.729   9.254
  472POPC   C1A 9387   6.527  15.852   8.787
  472POPC   D2A 9388   6.781  15.966   8.436
  472POPC   C3A 9389   6.574  15.944   8.072
  472POPC   C4A 9390   6.668  16.086   7.695
  472POPC   C1B 9391   7.018  15.752   8.843
  472POPC   C2B 9392   7.129  15.586   8.423
  472POPC   C3B 9393   7.109  15.785   8.029
  472POPC   C4B 9394   6.940  15.660   7.658
  473POPC   NC3 9395  10.423   0.312   9.506
  473POPC   PO4 9396  10.830   0.803   9.459
  473POPC   GL1 9397  10.665   0.531   9.111
  473POPC   GL2 9398  10.795   0.195   9.133
  473POPC   C1A 9399  10.385   0.387   8.779
  473POPC   D2A 9400  10.192   0.467   8.357
  473POPC   C3A 9401  10.425   0.714   8.083
  473POPC   C4A 9402  10.422   0.534   7.692
  473POPC   C1B 9403  10.894   0.299   8.718
  473POPC   C2B 9404  10.707   0.404   8.371
  473POPC   C3B 9405  10.631   0.215   8.006
  473POPC   C4B 9406  10.866   0.260   7.611
  474POPC   NC3 9407   0.645  37.546   9.509
  474POPC   PO4 9408   0.076  37.883   9.761
  474POPC   GL1 9409   0.232  37.816   9.314
  474POPC   GL2 9410   0.545  37.857   9.135
  474POPC   C1A 9411   0.212  37.531   8.923
  474POPC   D2A 9412   0.263  37.496   8.465
  474POPC   C3A 9413   0.122  37.752   8.128
  474POPC   C4A 9414   0.220  37.606   7.699
  474POPC   C1B 9415   0.694  37.703   8.742
  474POPC   C2B 9416   0.596  37.878   8.316
  474POPC   C3B 9417   0.701  37.741   7.925
  474POPC   C4B 9418   0.669  37.818   7.465
  475POPC   NC3 9419   5.421   3.731   9.531
  475POPC   PO4 9420   5.997   3.319   9.446
  475POPC   GL1 9421   5.978   3.519   9.096
  475POPC   GL2 9422   5.660   3.619   9.093
  475POPC   C1A 9423   6.161   3.452   8.716
  475POPC   D2A 9424   6.038   3.307   8.312
  475POPC   C3A 9425   6.121   3.630   7.998
  475POPC   C4A 9426   5.851   3.590   7.661
  475POPC   C1B 9427   5.876   3.879   8.774
  475POPC   C2B 9428   5.789   3.740   8.395
  475POPC   C3B 9429   5.635   3.877   8.026
  475POPC   C4B 9430   5.838   4.141   7.745
  476POPC   NC3 9431  25.308  25.074   9.572
  476POPC   PO4 9432  24.971  25.671   9.431
  476POPC   GL1 9433  25.229  25.385   9.178
  476POPC   GL2 9434  24.952  25.214   9.170
  476POPC   C1A 9435  25.398  25.133   8.834
  476POPC   D2A 9436  25.552  24.959   8.419
  476POPC   C3A 9437  25.327  25.051   8.047
  476POPC   C4A 9438  25.402  25.360   7.779
  476POPC   C1B 9439  24.882  25.409   8.815
  476POPC   C2B 9440  25.052  25.286   8.435
  476POPC   C3B 9441  24.941  25.402   8.019
  476POPC   C4B 9442  24.944  25.204   7.613
  477POPC   NC3 9443  22.415   1.776   9.715
  477POPC   PO4 9444  21.936   2.131   9.576
  477POPC   GL1 9445  22.043   1.949   9.192
  477POPC   GL2 9446  22.304   1.701   9.203
  477POPC   C1A 9447  22.196   2.103   8.774
  477POPC   D2A 9448  22.339   2.290   8.373
  477POPC   C3A 9449  22.162   2.134   7.972
  477POPC   C4A 9450  22.329   2.218   7.564
  477POPC   C1B 9451  22.115   1.586   8.789
  477POPC   C2B 9452  22.207   1.745   8.359
  477POPC   C3B 9453  22.462   1.714   7.987
  477POPC   C4B 9454  22.307   1.729   7.570
  478POPC   NC3 9455  44.796  11.536   9.575
  478POPC   PO4 9456  44.410  11.061   9.430
  478POPC   GL1 9457  44.595  11.374   9.119
  478POPC   GL2 9458  44.929  11.514   9.099
  478POPC   C1A 9459  44.601  11.368   8.668
  478POPC   D2A 9460  44.232  11.269   8.390
  478POPC   C3A 9461  44.308  11.006   8.017
  478POPC   C4A 9462  44.396  11.168   7.608
  478POPC   C1B 9463  44.851  11.813   8.812
  478POPC   C2B 9464  44.936  11.724   8.403
  478POPC   C3B 9465  44.767  11.744   8.018
  478POPC   C4B 9466  44.808  11.394   7.762
  479POPC   NC3 9467  17.475  38.175   9.209
  479POPC   PO4 9468  17.303  37.550   9.421
  479POPC   GL1 9469  17.185  37.589   9.026
  479POPC   GL2 9470  17.078  37.922   8.967
  479POPC   C1A 9471  17.368  37.674   8.627
  479POPC   D2A 9472  17.687  37.921   8.393
  479POPC   C3A 9473  17.599  37.814   7.963
  479POPC   C4A 9474  17.195  37.582   7.821
  479POPC   C1B 9475  17.039  38.253   8.631
  479POPC   C2B 9476  17.123  38.285   8.185
  479POPC   C3B 9477  17.209  38.100   7.792
  479POPC   C4B 9478  17.141  37.863   7.388
  480POPC   NC3 9479  29.146   3.102   9.602
  480POPC   PO4 9480  29.263   2.461   9.517
  480POPC   GL1 9481  29.048   2.623   9.157
  480POPC   GL2 9482  28.915   2.990   9.148
  480POPC   C1A 9483  29.190   2.614   8.725
  480POPC   D2A 9484  29.242   2.719   8.317
  480POPC   C3A 9485  29.350   2.586   7.972
  480POPC   C4A 9486  29.471   2.952   7.820
  480POPC   C1B 9487  28.708   2.770   8.796
  480POPC   C2B 9488  28.740   2.707   8.358
  480POPC   C3B 9489  28.872   2.845   7.957
  480POPC   C4B 9490  28.751   3.185   7.717
  481POPC   NC3 9491  16.523  24.552   9.550
  481POPC   PO4 9492  16.773  23.914   9.480
  481POPC   GL1 9493  16.812  24.372   9.176
  481POPC   GL2 9494  17.152  24.502   9.088
  481POPC   C1A 9495  16.779  24.662   8.741
  481POPC   D2A 9496  16.528  24.775   8.344
  481POPC   C3A 9497  16.513  24.621   7.885
  481POPC   C4A 9498  16.645  24.876   7.479
  481POPC   C1B 9499  17.059  24.234   8.746
  481POPC   C2B 9500  16.959  24.367   8.348
  481POPC   C3B 9501  17.066  24.552   7.965
  481POPC   C4B 9502  16.904  24.450   7.572
  482POPC   NC3 9503  29.355  13.785   9.439
  482POPC   PO4 9504  29.037  13.363   9.851
  482POPC   GL1 9505  29.106  13.380   9.290
  482POPC   GL2 9506  28.969  13.668   9.108
  482POPC   C1A 9507  29.213  13.323   8.813
  482POPC   D2A 9508  29.357  13.216   8.347
  482POPC   C3A 9509  29.372  13.532   8.005
  482POPC   C4A 9510  28.994  13.603   7.772
  482POPC   C1B 9511  29.116  13.960   8.772
  482POPC   C2B 9512  29.288  13.922   8.348
  482POPC   C3B 9513  29.149  14.072   7.939
  482POPC   C4B 9514  28.797  14.066   7.672
  483POPC   NC3 9515  23.819  35.263   9.797
  483POPC   PO4 9516  23.339  35.045   9.351
  483POPC   GL1 9517  23.666  35.110   9.108
  483POPC   GL2 9518  23.782  35.430   9.246
  483POPC   C1A 9519  23.779  34.958   8.711
  483POPC   D2A 9520  23.813  35.254   8.371
  483POPC   C3A 9521  23.917  35.074   7.960
  483POPC   C4A 9522  23.698  35.202   7.572
  483POPC   C1B 9523  23.652  35.573   8.807
  483POPC   C2B 9524  23.488  35.692   8.386
  483POPC   C3B 9525  23.684  35.555   7.977
  483POPC   C4B 9526  23.719  35.753   7.594
  484POPC   NC3 9527  33.279   4.964   9.545
  484POPC   PO4 9528  33.054   5.582   9.536
  484POPC   GL1 9529  33.174   5.278   9.179
  484POPC   GL2 9530  32.862   5.089   9.121
  484POPC   C1A 9531  33.214   5.126   8.758
  484POPC   D2A 9532  33.036   5.239   8.377
  484POPC   C3A 9533  33.147   5.051   7.998
  484POPC   C4A 9534  33.464   5.207   7.773
  484POPC   C1B 9535  32.711   4.990   8.688
  484POPC   C2B 9536  32.788   4.783   8.294
  484POPC   C3B 9537  32.754   4.748   7.869
  484POPC   C4B 9538  32.883   4.989   7.531
  485POPC   NC3 9539  19.491  26.793   9.607
  485POPC   PO4 9540  18.907  27.114   9.556
  485POPC   GL1 9541  19.129  26.823   9.208
  485POPC   GL2 9542  19.433  26.537   9.175
  485POPC   C1A 9543  19.121  26.912   8.765
  485POPC   D2A 9544  19.235  27.001   8.335
  485POPC   C3A 9545  18.990  26.829   8.007
  485POPC   C4A 9546  19.216  26.838   7.669
  485POPC   C1B 9547  19.291  26.432   8.783
  485POPC   C2B 9548  19.330  26.204   8.390
  485POPC   C3B 9549  19.352  26.418   8.004
  485POPC   C4B 9550  19.348  26.380   7.571
  486POPC   NC3 9551  10.110  35.998   9.382
  486POPC   PO4 9552   9.441  36.014   9.390
  486POPC   GL1 9553   9.679  36.203   9.122
  486POPC   GL2 9554   9.571  36.547   9.153
  486POPC   C1A 9555   9.903  36.063   8.757
  486POPC   D2A 9556   9.835  35.976   8.335
  486POPC   C3A 9557  10.146  36.075   8.035
  486POPC   C4A 9558   9.939  36.139   7.636
  486POPC   C1B 9559   9.759  36.556   8.770
  486POPC   C2B 9560   9.661  36.629   8.391
  486POPC   C3B 9561   9.802  36.462   8.028
  486POPC   C4B 9562   9.544  36.478   7.720
  487POPC   NC3 9563   7.090  24.837   9.590
  487POPC   PO4 9564   7.163  24.195   9.604
  487POPC   GL1 9565   7.297  24.381   9.228
  487POPC   GL2 9566   7.175  24.040   9.123
  487POPC   C1A 9567   7.278  24.751   8.895
  487POPC   D2A 9568   7.199  24.666   8.420
  487POPC   C3A 9569   7.505  24.646   8.068
  487POPC   C4A 9570   7.379  24.655   7.647
  487POPC   C1B 9571   7.107  24.291   8.765
  487POPC   C2B 9572   6.987  24.161   8.360
  487POPC   C3B 9573   7.072  24.351   7.963
  487POPC   C4B 9574   6.972  24.367   7.515
  488POPC   NC3 9575  15.062  40.922   9.512
  488POPC   PO4 9576  15.444  40.379   9.560
  488POPC   GL1 9577  15.337  40.523   9.143
  488POPC   GL2 9578  15.190  40.871   9.040
  488POPC   C1A 9579  15.455  40.612   8.718
  488POPC   D2A 9580  15.199  40.920   8.507
  488POPC   C3A 9581  15.286  40.812   8.115
  488POPC   C4A 9582  15.316  40.956   7.724
  488POPC   C1B 9583  14.868  40.668   8.827
  488POPC   C2B 9584  14.621  40.727   8.463
  488POPC   C3B 9585  14.780  40.773   8.079
  488POPC   C4B 9586  14.998  40.550   7.716
  489POPC   NC3 9587   4.048  11.542   9.636
  489POPC   PO4 9588   4.591  11.180   9.612
  489POPC   GL1 9589   4.427  11.349   9.281
  489POPC   GL2 9590   4.154  11.213   9.256
  489POPC   C1A 9591   4.570  11.326   8.854
  489POPC   D2A 9592   4.401  11.288   8.460
  489POPC   C3A 9593   4.592  11.252   8.063
  489POPC   C4A 9594   4.669  11.294   7.629
  489POPC   C1B 9595   4.087  11.444   8.866
  489POPC   C2B 9596   3.886  11.317   8.507
  489POPC   C3B 9597   4.047  11.327   8.092
  489POPC   C4B 9598   4.152  11.165   7.703
  490POPC   NC3 9599   6.376   8.883   9.552
  490POPC   PO4 9600   6.917   9.290   9.747
  490POPC   GL1 9601   6.872   9.163   9.281
  490POPC   GL2 9602   6.729   8.825   9.195
  490POPC   C1A 9603   6.965   9.048   8.804
  490POPC   D2A 9604   6.899   9.120   8.319
  490POPC   C3A 9605   6.885   8.780   7.972
  490POPC   C4A 9606   6.897   8.922   7.504
  490POPC   C1B 9607   6.338   8.805   8.909
  490POPC   C2B 9608   6.208   8.766   8.473
  490POPC   C3B 9609   6.261   8.842   8.039
  490POPC   C4B 9610   6.446   8.713   7.674
  491POPC   NC3 9611   6.305  27.225   9.722
  491POPC   PO4 9612   6.898  26.893   9.491
  491POPC   GL1 9613   6.757  26.715   9.125
  491POPC   GL2 9614   6.397  26.703   9.198
  491POPC   C1A 9615   6.893  26.833   8.730
  491POPC   D2A 9616   6.700  26.835   8.344
  491POPC   C3A 9617   6.962  26.846   8.025
  491POPC   C4A 9618   6.729  26.952   7.655
  491POPC   C1B 9619   6.401  26.669   8.740
  491POPC   C2B 9620   6.206  26.644   8.310
  491POPC   C3B 9621   6.293  26.746   7.864
  491POPC   C4B 9622   6.331  26.763   7.364
  492POPC   NC3 9623  31.476   2.517   9.369
  492POPC   PO4 9624  31.305   3.066   9.392
  492POPC   GL1 9625  31.635   3.006   9.072
  492POPC   GL2 9626  31.781   2.657   8.988
  492POPC   C1A 9627  31.626   3.003   8.638
  492POPC   D2A 9628  31.443   2.754   8.330
  492POPC   C3A 9629  31.382   2.915   7.947
  492POPC   C4A 9630  31.754   2.864   7.725
  492POPC   C1B 9631  31.455   2.415   8.719
  492POPC   C2B 9632  31.458   2.238   8.292
  492POPC   C3B 9633  31.548   2.419   7.895
  492POPC   C4B 9634  31.467   2.526   7.475
  493POPC   NC3 9635   8.778   3.090   9.576
  493POPC   PO4 9636   9.232   2.644   9.265
  493POPC   GL1 9637   8.886   2.870   9.107
  493POPC   GL2 9638   9.129   2.999   8.921
  493POPC   C1A 9639   8.673   2.696   8.721
  493POPC   D2A 9640   8.769   2.513   8.292
  493POPC   C3A 9641   9.152   2.554   8.080
  493POPC   C4A 9642   9.141   2.698   7.664
  493POPC   C1B 9643   8.819   3.191   8.722
  493POPC   C2B 9644   8.675   3.060   8.339
  493POPC   C3B 9645   8.825   2.974   7.948
  493POPC   C4B 9646   8.985   3.198   7.563
  494POPC   NC3 9647  43.947  15.593   9.600
  494POPC   PO4 9648  43.714  16.234   9.489
  494POPC   GL1 9649  44.026  15.985   9.255
  494POPC   GL2 9650  43.772  15.784   9.103
  494POPC   C1A 9651  44.237  15.975   8.824
  494POPC   D2A 9652  44.060  15.935   8.367
  494POPC   C3A 9653  44.083  16.225   7.985
  494POPC   C4A 9654  43.945  16.211   7.519
  494POPC   C1B 9655  43.521  15.560   8.789
  494POPC   C2B 9656  43.580  15.481   8.352
  494POPC   C3B 9657  43.640  15.822   8.069
  494POPC   C4B 9658  43.518  16.007   7.703
  495POPC   NC3 9659  14.208  43.776   9.487
  495POPC   PO4 9660  14.870  43.825   9.433
  495POPC   GL1 9661  14.578  43.924   9.155
  495POPC   GL2 9662  14.399  43.637   9.042
  495POPC   C1A 9663  14.458  44.061   8.753
  495POPC   D2A 9664  14.613  43.958   8.331
  495POPC   C3A 9665  14.447  43.990   7.899
  495POPC   C4A 9666  14.318  43.984   7.438
  495POPC   C1B 9667  14.402  43.565   8.607
  495POPC   C2B 9668  14.058  43.449   8.419
  495POPC   C3B 9669  14.136  43.557   8.054
  495POPC   C4B 9670  14.311  43.505   7.668
  496POPC   NC3 9671  39.698  17.469   9.643
  496POPC   PO4 9672  40.291  17.263   9.354
  496POPC   GL1 9673  40.000  17.433   9.125
  496POPC   GL2 9674  39.770  17.219   9.207
  496POPC   C1A 9675  40.063  17.453   8.706
  496POPC   D2A 9676  40.250  17.710   8.426
  496POPC   C3A 9677  39.986  17.735   8.117
  496POPC   C4A 9678  40.066  17.712   7.699
  496POPC   C1B 9679  39.687  17.122   8.819
  496POPC   C2B 9680  39.743  17.219   8.380
  496POPC   C3B 9681  39.896  17.257   7.953
  496POPC   C4B 9682  39.813  17.311   7.509
  497POPC   NC3 9683  27.816  17.800   9.162
  497POPC   PO4 9684  27.388  17.439   9.543
  497POPC   GL1 9685  27.491  17.402   9.123
  497POPC   GL2 9686  27.877  17.295   9.114
  497POPC   C1A 9687  27.415  17.581   8.669
  497POPC   D2A 9688  27.725  17.599   8.328
  497POPC   C3A 9689  27.611  17.912   8.029
  497POPC   C4A 9690  27.283  17.945   7.724
  497POPC   C1B 9691  27.718  17.183   8.721
  497POPC   C2B 9692  27.519  17.123   8.349
  497POPC   C3B 9693  27.747  17.181   7.976
  497POPC   C4B 9694  27.429  17.447   7.877
  498POPC   NC3 9695  43.527   1.511   9.433
  498POPC   PO4 9696  44.068   1.893   9.345
  498POPC   GL1 9697  43.928   1.988   8.979
  498POPC   GL2 9698  43.694   2.256   9.057
  498POPC   C1A 9699  44.054   1.849   8.562
  498POPC   D2A 9700  44.278   1.763   8.175
  498POPC   C3A 9701  44.090   1.960   7.827
  498POPC   C4A 9702  43.781   1.903   7.536
  498POPC   C1B 9703  43.846   2.331   8.621
  498POPC   C2B 9704  43.814   2.168   8.209
  498POPC   C3B 9705  43.665   2.312   7.796
  498POPC   C4B 9706  43.406   2.188   7.393
  499POPC   NC3 9707  13.188  31.534   9.447
  499POPC   PO4 9708  12.566  31.666   9.280
  499POPC   GL1 9709  12.740  31.297   9.088
  499POPC   GL2 9710  13.079  31.355   8.995
  499POPC   C1A 9711  12.722  31.290   8.641
  499POPC   D2A 9712  12.899  31.530   8.304
  499POPC   C3A 9713  12.760  31.445   7.898
  499POPC   C4A 9714  12.534  31.776   7.660
  499POPC   C1B 9715  13.276  31.360   8.607
  499POPC   C2B 9716  13.210  31.104   8.232
  499POPC   C3B 9717  13.166  31.083   7.805
  499POPC   C4B 9718  13.146  31.411   7.545
  500POPC   NC3 9719  41.315  12.581   9.498
  500POPC   PO4 9720  41.843  12.990   9.531
  500POPC   GL1 9721  41.629  12.828   9.151
  500POPC   GL2 9722  41.279  12.718   9.026
  500POPC   C1A 9723  41.733  12.718   8.752
  500POPC   D2A 9724  41.763  12.570   8.371
  500POPC   C3A 9725  41.835  12.833   8.018
  500POPC   C4A 9726  41.802  12.890   7.570
  500POPC   C1B 9727  41.225  12.670   8.580
  500POPC   C2B 9728  41.129  12.701   8.134
  500POPC   C3B 9729  41.335  12.778   7.737
  500POPC   C4B 9730  41.353  12.865   7.274
  501POPC   NC3 9731  11.310  36.397   9.615
  501POPC   PO4 9732  11.633  36.924   9.651
  501POPC   GL1 9733  11.390  36.832   9.237
  501POPC   GL2 9734  11.479  36.513   9.147
  501POPC   C1A 9735  11.375  36.985   8.801
  501POPC   D2A 9736  11.594  36.809   8.460
  501POPC   C3A 9737  11.562  37.060   8.082
  501POPC   C4A 9738  11.205  37.047   7.845
  501POPC   C1B 9739  11.260  36.494   8.787
  501POPC   C2B 9740  11.118  36.634   8.401
  501POPC   C3B 9741  11.304  36.578   7.998
  501POPC   C4B 9742  11.148  36.606   7.594
  502POPC   NC3 9743   5.209  32.880   9.455
  502POPC   PO4 9744   4.914  33.511   9.446
  502POPC   GL1 9745   5.126  33.293   9.144
  502POPC   GL2 9746   5.489  33.326   9.197
  502POPC   C1A 9747   5.053  32.947   8.825
  502POPC   D2A 9748   4.909  32.714   8.470
  502POPC   C3A 9749   5.085  32.764   8.075
  502POPC   C4A 9750   4.933  33.002   7.745
  502POPC   C1B 9751   5.448  33.277   8.744
  502POPC   C2B 9752   5.475  33.395   8.340
  502POPC   C3B 9753   5.301  33.228   7.996
  502POPC   C4B 9754   5.191  33.448   7.617
  503POPC   NC3 9755  36.482  17.626   9.691
  503POPC   PO4 9756  35.835  17.639   9.525
  503POPC   GL1 9757  36.171  17.672   9.263
  503POPC   GL2 9758  36.321  17.348   9.292
  503POPC   C1A 9759  36.029  17.741   8.852
  503POPC   D2A 9760  35.873  17.619   8.475
  503POPC   C3A 9761  36.011  17.712   8.081
  503POPC   C4A 9762  36.076  17.452   7.749
  503POPC   C1B 9763  36.429  17.422   8.867
  503POPC   C2B 9764  36.296  17.321   8.444
  503POPC   C3B 9765  36.482  17.404   8.083
  503POPC   C4B 9766  36.620  17.590   7.734
  504POPC   NC3 9767   6.719  11.441   9.695
  504POPC   PO4 9768   6.278  10.998   9.613
  504POPC   GL1 9769   6.668  11.046   9.291
  504POPC   GL2 9770   6.787  11.407   9.179
  504POPC   C1A 9771   6.782  11.041   8.814
  504POPC   D2A 9772   6.819  11.305   8.407
  504POPC   C3A 9773   6.643  11.170   7.986
  504POPC   C4A 9774   6.376  11.100   7.624
  504POPC   C1B 9775   6.913  11.669   8.815
  504POPC   C2B 9776   6.759  11.829   8.395
  504POPC   C3B 9777   6.827  11.660   7.982
  504POPC   C4B 9778   6.753  11.475   7.564
  505POPC   NC3 9779  40.297  44.889   9.554
  505POPC   PO4 9780  39.676  44.665   9.542
  505POPC   GL1 9781  40.011  44.554   9.185
  505POPC   GL2 9782  40.374  44.656   9.119
  505POPC   C1A 9783  40.046  44.768   8.756
  505POPC   D2A 9784  39.789  44.784   8.398
  505POPC   C3A 9785  39.943  44.811   8.012
  505POPC   C4A 9786  39.858  44.615   7.650
  505POPC   C1B 9787  40.527  44.616   8.704
  505POPC   C2B 9788  40.340  44.653   8.288
  505POPC   C3B 9789  40.327  44.497   7.817
  505POPC   C4B 9790  40.387  44.597   7.314
  506POPC   NC3 9791  42.705  35.955   9.523
  506POPC   PO4 9792  42.058  36.189   9.713
  506POPC   GL1 9793  42.271  36.198   9.302
  506POPC   GL2 9794  42.590  36.364   9.248
  506POPC   C1A 9795  42.200  36.233   8.866
  506POPC   D2A 9796  42.146  35.958   8.517
  506POPC   C3A 9797  42.011  36.111   8.140
  506POPC   C4A 9798  42.256  36.203   7.754
  506POPC   C1B 9799  42.697  36.134   8.869
  506POPC   C2B 9800  42.544  36.292   8.453
  506POPC   C3B 9801  42.528  35.989   8.123
  506POPC   C4B 9802  42.642  35.848   7.726
  507POPC   NC3 9803   8.277  11.669   9.617
  507POPC   PO4 9804   8.279  10.964   9.517
  507POPC   GL1 9805   8.201  11.234   9.190
  507POPC   GL2 9806   8.142  11.566   9.145
  507POPC   C1A 9807   8.172  11.073   8.816
  507POPC   D2A 9808   7.939  10.975   8.474
  507POPC   C3A 9809   8.038  11.260   8.201
  507POPC   C4A 9810   8.060  11.095   7.841
  507POPC   C1B 9811   8.452  11.563   8.842
  507POPC   C2B 9812   8.492  11.323   8.487
  507POPC   C3B 9813   8.543  11.152   8.112
  507POPC   C4B 9814   8.442  11.451   7.858
  508POPC   NC3 9815  35.030  20.397   9.594
  508POPC   PO4 9816  35.243  20.962   9.468
  508POPC   GL1 9817  35.403  20.662   9.148
  508POPC   GL2 9818  35.675  20.412   9.157
  508POPC   C1A 9819  35.351  20.558   8.717
  508POPC   D2A 9820  35.087  20.733   8.395
  508POPC   C3A 9821  35.369  20.589   8.072
  508POPC   C4A 9822  35.540  20.663   7.683
  508POPC   C1B 9823  35.747  20.199   8.756
  508POPC   C2B 9824  35.542  20.169   8.343
  508POPC   C3B 9825  35.683  20.202   7.891
  508POPC   C4B 9826  35.712  20.269   7.388
  509POPC   NC3 9827   1.885  24.784   9.513
  509POPC   PO4 9828   1.639  24.267   9.734
  509POPC   GL1 9829   1.792  24.367   9.260
  509POPC   GL2 9830   1.979  24.143   9.051
  509POPC   C1A 9831   1.956  24.627   8.871
  509POPC   D2A 9832   1.890  24.652   8.406
  509POPC   C3A 9833   2.159  24.716   8.036
  509POPC   C4A 9834   1.942  24.898   7.711
  509POPC   C1B 9835   2.131  24.221   8.590
  509POPC   C2B 9836   2.075  24.210   8.118
  509POPC   C3B 9837   1.882  24.065   7.713
  509POPC   C4B 9838   2.081  24.166   7.321
  510POPC   NC3 9839   3.727  26.677   9.724
  510POPC   PO4 9840   3.107  26.763   9.825
  510POPC   GL1 9841   3.348  26.753   9.399
  510POPC   GL2 9842   3.690  26.913   9.266
  510POPC   C1A 9843   3.310  26.716   8.944
  510POPC   D2A 9844   3.497  26.858   8.559
  510POPC   C3A 9845   3.304  26.755   8.168
  510POPC   C4A 9846   3.421  26.731   7.760
  510POPC   C1B 9847   3.840  26.654   8.897
  510POPC   C2B 9848   3.794  26.489   8.409
  510POPC   C3B 9849   3.842  26.730   8.079
  510POPC   C4B 9850   4.015  26.936   7.726
  511POPC   NC3 9851  35.424  30.888  10.132
  511POPC   PO4 9852  35.189  30.724   9.476
  511POPC   GL1 9853  35.325  30.744   9.121
  511POPC   GL2 9854  35.130  30.431   9.052
  511POPC   C1A 9855  35.299  30.872   8.745
  511POPC   D2A 9856  35.478  30.695   8.400
  511POPC   C3A 9857  35.396  30.921   8.028
  511POPC   C4A 9858  35.559  30.800   7.642
  511POPC   C1B 9859  35.004  30.138   8.756
  511POPC   C2B 9860  35.290  30.181   8.422
  511POPC   C3B 9861  35.230  30.388   8.060
  511POPC   C4B 9862  34.980  30.193   7.741
  512POPC   NC3 9863   3.963  27.383   9.438
  512POPC   PO4 9864   3.269  27.335   9.427
  512POPC   GL1 9865   3.567  27.601   9.188
  512POPC   GL2 9866   3.296  27.620   8.981
  512POPC   C1A 9867   3.720  27.785   8.765
  512POPC   D2A 9868   3.761  27.589   8.336
  512POPC   C3A 9869   3.549  27.686   7.929
  512POPC   C4A 9870   3.699  27.700   7.484
  512POPC   C1B 9871   3.449  27.337   8.734
  512POPC   C2B 9872   3.296  27.269   8.347
  512POPC   C3B 9873   3.586  27.171   8.055
  512POPC   C4B 9874   3.604  27.223   7.643
  513POPC   NC3 9875   0.661   5.473   9.354
  513POPC   PO4 9876   0.409   4.868   9.614
  513POPC   GL1 9877   0.447   5.029   9.192
  513POPC   GL2 9878   0.213   5.286   9.077
  513POPC   C1A 9879   0.675   5.090   8.799
  513POPC   D2A 9880   0.626   4.918   8.381
  513POPC   C3A 9881   0.613   5.130   7.984
  513POPC   C4A 9882   0.605   5.025   7.521
  513POPC   C1B 9883   0.183   5.030   8.665
  513POPC   C2B 9884   0.148   5.034   8.184
  513POPC   C3B 9885   0.177   5.194   7.739
  513POPC   C4B 9886   0.281   5.360   7.291
  514POPC   NC3 9887  21.651  21.653   9.535
  514POPC   PO4 9888  21.150  21.123   9.652
  514POPC   GL1 9889  21.210  21.316   9.222
  514POPC   GL2 9890  21.089  21.635   9.050
  514POPC   C1A 9891  21.404  21.169   8.824
  514POPC   D2A 9892  21.440  21.329   8.399
  514POPC   C3A 9893  21.184  21.221   8.082
  514POPC   C4A 9894  21.092  21.511   7.776
  514POPC   C1B 9895  21.506  21.689   8.821
  514POPC   C2B 9896  21.636  21.831   8.395
  514POPC   C3B 9897  21.569  21.635   7.984
  514POPC   C4B 9898  21.593  21.254   7.785
  515POPC   NC3 9899  24.679  10.042   9.587
  515POPC   PO4 9900  23.987   9.888   9.693
  515POPC   GL1 9901  24.267   9.887   9.272
  515POPC   GL2 9902  24.571   9.669   9.247
  515POPC   C1A 9903  24.273   9.652   8.827
  515POPC   D2A 9904  24.517   9.769   8.429
  515POPC   C3A 9905  24.397   9.580   8.029
  515POPC   C4A 9906  24.337   9.722   7.599
  515POPC   C1B 9907  24.777   9.600   8.845
  515POPC   C2B 9908  24.950   9.497   8.427
  515POPC   C3B 9909  24.891   9.683   8.022
  515POPC   C4B 9910  24.873   9.545   7.585
  516POPC   NC3 9911   1.533  41.125   9.377
  516POPC   PO4 9912   1.833  40.557   9.392
  516POPC   GL1 9913   1.950  40.856   9.104
  516POPC   GL2 9914   1.634  40.871   8.962
  516POPC   C1A 9915   2.099  40.925   8.672
  516POPC   D2A 9916   2.177  41.104   8.256
  516POPC   C3A 9917   2.240  40.754   7.972
  516POPC   C4A 9918   2.012  40.438   7.761
  516POPC   C1B 9919   1.610  40.801   8.541
  516POPC   C2B 9920   1.815  40.633   8.225
  516POPC   C3B 9921   1.769  40.881   7.888
  516POPC   C4B 9922   1.491  41.161   7.802
  517POPC   NC3 9923   2.916  31.026   9.392
  517POPC   PO4 9924   2.430  30.550   9.432
  517POPC   GL1 9925   2.604  30.675   9.088
  517POPC   GL2 9926   2.576  30.344   8.943
  517POPC   C1A 9927   2.879  30.812   8.754
  517POPC   D2A 9928   3.097  30.949   8.380
  517POPC   C3A 9929   2.988  30.727   7.983
  517POPC   C4A 9930   3.265  30.852   7.657
  517POPC   C1B 9931   2.390  30.652   8.633
  517POPC   C2B 9932   2.595  30.853   8.311
  517POPC   C3B 9933   2.555  30.991   7.892
  517POPC   C4B 9934   2.339  30.669   7.710
  518POPC   NC3 9935  20.640  28.890  10.223
  518POPC   PO4 9936  20.547  29.096   9.525
  518POPC   GL1 9937  20.666  29.213   9.100
  518POPC   GL2 9938  20.453  28.945   9.002
  518POPC   C1A 9939  20.683  29.266   8.636
  518POPC   D2A 9940  20.458  29.081   8.294
  518POPC   C3A 9941  20.596  29.204   7.899
  518POPC   C4A 9942  20.462  29.358   7.505
  518POPC   C1B 9943  20.858  28.815   8.833
  518POPC   C2B 9944  20.868  28.638   8.422
  518POPC   C3B 9945  20.893  28.734   7.985
  518POPC   C4B 9946  20.723  28.835   7.569
  519POPC   NC3 9947   5.582  29.102   9.455
  519POPC   PO4 9948   6.218  29.251   9.783
  519POPC   GL1 9949   5.951  29.407   9.346
  519POPC   GL2 9950   6.016  29.088   9.177
  519POPC   C1A 9951   5.873  29.400   8.835
  519POPC   D2A 9952   5.741  29.102   8.494
  519POPC   C3A 9953   5.795  29.249   8.060
  519POPC   C4A 9954   5.556  29.283   7.693
  519POPC   C1B 9955   6.211  28.724   8.974
  519POPC   C2B 9956   6.135  28.634   8.552
  519POPC   C3B 9957   5.998  28.784   8.166
  519POPC   C4B 9958   6.199  28.962   7.803
  520POPC   NC3 9959  34.439   6.070   9.764
  520POPC   PO4 9960  34.521   5.496   9.391
  520POPC   GL1 9961  34.699   5.775   9.131
  520POPC   GL2 9962  34.580   6.060   9.270
  520POPC   C1A 9963  34.603   5.796   8.745
  520POPC   D2A 9964  34.370   5.604   8.444
  520POPC   C3A 9965  34.515   5.786   8.094
  520POPC   C4A 9966  34.629   5.792   7.687
  520POPC   C1B 9967  34.330   6.186   8.897
  520POPC   C2B 9968  34.290   6.143   8.417
  520POPC   C3B 9969  34.483   6.278   7.989
  520POPC   C4B 9970  34.691   6.546   7.650
  521POPC   NC3 9971  10.942  29.037   9.324
  521POPC   PO4 9972  11.514  29.341   9.429
  521POPC   GL1 9973  11.282  29.340   9.045
  521POPC   GL2 9974  10.994  29.514   9.071
  521POPC   C1A 9975  11.119  29.069   8.693
  521POPC   D2A 9976  10.954  28.812   8.367
  521POPC   C3A 9977  11.206  28.946   8.034
  521POPC   C4A 9978  11.533  29.301   8.010
  521POPC   C1B 9979  11.041  29.575   8.634
  521POPC   C2B 9980  11.018  29.401   8.212
  521POPC   C3B 9981  11.105  29.345   7.758
  521POPC   C4B 9982  11.065  29.269   7.310
  522POPC   NC3 9983  27.082  37.551   9.440
  522POPC   PO4 9984  26.478  37.924   9.526
  522POPC   GL1 9985  26.718  37.793   9.150
  522POPC   GL2 9986  26.703  37.417   9.147
  522POPC   C1A 9987  26.808  37.790   8.677
  522POPC   D2A 9988  26.908  37.697   8.242
  522POPC   C3A 9989  26.588  37.747   7.966
  522POPC   C4A 9990  26.505  38.005   7.674
  522POPC   C1B 9991  27.035  37.361   8.820
  522POPC   C2B 9992  27.133  37.280   8.402
  522POPC   C3B 9993  27.239  37.359   7.987
  522POPC   C4B 9994  27.031  37.636   7.715
  523POPC   NC3 9995  31.772  27.986   9.359
  523POPC   PO4 9996  31.751  27.314   9.313
  523POPC   GL1 9997  31.463  27.573   9.071
  523POPC   GL2 9998  31.130  27.568   9.174
  523POPC   C1A 9999  31.410  27.747   8.640
  523POPC   D2A10000  31.707  27.674   8.277
  523POPC   C3A10001  31.742  27.856   7.831
  523POPC   C4A10002  31.754  27.644   7.432
  523POPC   C1B10003  31.079  27.358   8.786
  523POPC   C2B10004  31.196  27.351   8.361
  523POPC   C3B10005  31.138  27.626   8.060
  523POPC   C4B10006  31.040  27.532   7.661
  524POPC   NC310007  12.413  41.045   9.447
  524POPC   PO410008  11.732  40.955   9.525
  524POPC   GL110009  11.807  40.817   9.131
  524POPC   GL210010  12.032  41.113   9.108
  524POPC   C1A10011  12.098  40.655   8.796
  524POPC   D2A10012  12.406  40.756   8.463
  524POPC   C3A10013  12.305  40.728   8.013
  524POPC   C4A10014  12.118  40.455   7.635
  524POPC   C1B10015  11.861  41.111   8.707
  524POPC   C2B10016  11.902  40.844   8.333
  524POPC   C3B10017  11.907  41.015   7.924
  524POPC   C4B10018  11.652  41.097   7.609
  525POPC   NC310019  40.722  38.843   9.603
  525POPC   PO410020  41.047  38.197   9.567
  525POPC   GL110021  40.962  38.524   9.266
  525POPC   GL210022  40.644  38.577   9.164
  525POPC   C1A10023  40.982  38.475   8.809
  525POPC   D2A10024  40.692  38.267   8.500
  525POPC   C3A10025  40.810  38.334   8.077
  525POPC   C4A10026  41.006  38.314   7.680
  525POPC   C1B10027  40.465  38.683   8.788
  525POPC   C2B10028  40.275  38.569   8.393
  525POPC   C3B10029  40.257  38.380   8.031
  525POPC   C4B10030  40.501  38.322   7.681
  526POPC   NC310031  41.985  11.061   9.340
  526POPC   PO410032  42.600  11.271   9.502
  526POPC   GL110033  42.315  11.533   9.205
  526POPC   GL210034  42.304  11.286   8.940
  526POPC   C1A10035  42.036  11.693   8.837
  526POPC   D2A10036  42.120  11.832   8.401
  526POPC   C3A10037  42.320  11.524   8.128
  526POPC   C4A10038  42.376  11.563   7.672
  526POPC   C1B10039  42.674  11.028   8.717
  526POPC   C2B10040  42.876  11.147   8.327
  526POPC   C3B10041  42.664  11.202   7.915
  526POPC   C4B10042  42.197  11.091   7.812
  527POPC   NC310043  44.604  22.805   9.698
  527POPC   PO410044   0.241  22.997   9.584
  527POPC   GL110045  44.858  23.032   9.282
  527POPC   GL210046  44.533  22.905   9.200
  527POPC   C1A10047  44.901  23.013   8.834
  527POPC   D2A10048  44.698  22.884   8.446
  527POPC   C3A10049  44.768  23.178   8.130
  527POPC   C4A10050  44.708  23.027   7.732
  527POPC   C1B10051  44.300  22.888   8.841
  527POPC   C2B10052  44.201  23.036   8.452
  527POPC   C3B10053  44.275  23.115   8.045
  527POPC   C4B10054  44.210  22.849   7.700
  528POPC   NC310055  18.747  35.079   9.661
  528POPC   PO410056  19.317  35.375   9.692
  528POPC   GL110057  19.150  35.261   9.296
  528POPC   GL210058  19.172  35.584   9.192
  528POPC   C1A10059  18.970  35.278   8.845
  528POPC   D2A10060  18.879  35.483   8.428
  528POPC   C3A10061  19.092  35.388   8.055
  528POPC   C4A10062  19.156  35.105   7.713
  528POPC   C1B10063  19.399  35.566   8.818
  528POPC   C2B10064  19.367  35.699   8.401
  528POPC   C3B10065  19.499  35.678   7.992
  528POPC   C4B10066  19.327  35.599   7.587
  529POPC   NC310067  20.996   3.784   9.608
  529POPC   PO410068  20.319   3.821   9.413
  529POPC   GL110069  20.483   3.542   9.150
  529POPC   GL210070  20.777   3.424   9.303
  529POPC   C1A10071  20.535   3.585   8.714
  529POPC   D2A10072  20.486   3.359   8.343
  529POPC   C3A10073  20.553   3.590   8.000
  529POPC   C4A10074  20.539   3.416   7.648
  529POPC   C1B10075  20.922   3.321   8.901
  529POPC   C2B10076  21.000   3.450   8.470
  529POPC   C3B10077  20.945   3.272   8.075
  529POPC   C4B10078  21.026   3.541   7.709
  530POPC   NC310079  30.496   0.110   9.419
  530POPC   PO410080  30.653  44.438   9.416
  530POPC   GL110081  30.692  44.592   9.046
  530POPC   GL210082  30.799  44.933   9.037
  530POPC   C1A10083  30.544  44.443   8.687
  530POPC   D2A10084  30.638  44.217   8.357
  530POPC   C3A10085  30.781  44.506   8.060
  530POPC   C4A10086  30.558  44.395   7.704
  530POPC   C1B10087  30.389  44.928   8.773
  530POPC   C2B10088  30.352   0.087   8.333
  530POPC   C3B10089  30.400  44.903   7.916
  530POPC   C4B10090  30.371   0.066   7.493
  531POPC   NC310091  44.898  28.179   9.529
  531POPC   PO410092  44.288  28.462   9.546
  531POPC   GL110093  44.615  28.538   9.229
  531POPC   GL210094  44.575  28.207   9.147
  531POPC   C1A10095  44.777  28.467   8.768
  531POPC   D2A10096  44.633  28.672   8.383
  531POPC   C3A10097  44.635  28.484   7.984
  531POPC   C4A10098  44.471  28.591   7.588
  531POPC   C1B10099  44.364  28.139   8.784
  531POPC   C2B10100  44.529  28.135   8.360
  531POPC   C3B10101  44.295  28.091   7.998
  531POPC   C4B10102  44.292  28.083   7.585
  532POPC   NC310103   1.003  41.279   9.776
  532POPC   PO410104   1.107  41.848   9.524
  532POPC   GL110105   1.139  41.488   9.225
  532POPC   GL210106   0.831  41.317   9.151
  532POPC   C1A10107   1.155  41.534   8.759
  532POPC   D2A10108   1.326  41.640   8.334
  532POPC   C3A10109   1.184  41.854   7.950
  532POPC   C4A10110   1.287  41.707   7.515
  532POPC   C1B10111   0.732  41.224   8.701
  532POPC   C2B10112   1.019  41.195   8.293
  532POPC   C3B10113   1.027  41.374   7.836
  532POPC   C4B10114   0.844  41.463   7.383
  533POPC   NC310115   0.821   6.984   9.520
  533POPC   PO410116   0.864   7.591   9.519
  533POPC   GL110117   1.122   7.509   9.191
  533POPC   GL210118   1.216   7.186   9.235
  533POPC   C1A10119   1.242   7.562   8.774
  533POPC   D2A10120   1.072   7.834   8.483
  533POPC   C3A10121   1.141   7.643   8.106
  533POPC   C4A10122   1.183   7.740   7.683
  533POPC   C1B10123   1.094   7.085   8.810
  533POPC   C2B10124   1.356   7.231   8.419
  533POPC   C3B10125   1.513   7.308   8.015
  533POPC   C4B10126   1.245   7.218   7.697
  534POPC   NC310127  14.859  26.814   9.354
  534POPC   PO410128  14.295  26.408   9.563
  534POPC   GL110129  14.350  26.604   9.161
  534POPC   GL210130  14.385  26.916   9.149
  534POPC   C1A10131  14.572  26.624   8.761
  534POPC   D2A10132  14.582  26.797   8.346
  534POPC   C3A10133  14.768  26.580   8.027
  534POPC   C4A10134  14.735  26.661   7.613
  534POPC   C1B10135  14.257  27.054   8.706
  534POPC   C2B10136  14.248  27.171   8.260
  534POPC   C3B10137  14.374  26.974   7.841
  534POPC   C4B10138  14.220  27.030   7.365
  535POPC   NC310139  34.171   3.621   9.580
  535POPC   PO410140  33.511   3.824   9.581
  535POPC   GL110141  33.715   3.537   9.278
  535POPC   GL210142  33.979   3.714   9.134
  535POPC   C1A10143  33.750   3.343   8.868
  535POPC   D2A10144  33.533   3.348   8.486
  535POPC   C3A10145  33.679   3.212   8.112
  535POPC   C4A10146  33.582   3.508   7.807
  535POPC   C1B10147  34.242   3.502   8.839
  535POPC   C2B10148  34.096   3.357   8.452
  535POPC   C3B10149  34.171   3.423   8.028
  535POPC   C4B10150  34.042   3.705   7.709
  536POPC   NC310151  34.844  33.678   9.407
  536POPC   PO410152  34.216  33.464   9.350
  536POPC   GL110153  34.491  33.637   9.037
  536POPC   GL210154  34.572  33.999   9.102
  536POPC   C1A10155  34.702  33.757   8.668
  536POPC   D2A10156  34.858  33.607   8.294
  536POPC   C3A10157  34.564  33.571   7.981
  536POPC   C4A10158  34.463  33.807   7.658
  536POPC   C1B10159  34.826  34.248   8.798
  536POPC   C2B10160  34.729  34.160   8.348
  536POPC   C3B10161  34.472  34.209   7.975
  536POPC   C4B10162  34.625  34.276   7.556
  537POPC   NC310163  31.103  41.994   9.352
  537POPC   PO410164  31.472  42.608   9.569
  537POPC   GL110165  31.527  42.297   9.286
  537POPC   GL210166  31.858  42.355   9.166
  537POPC   C1A10167  31.408  42.329   8.851
  537POPC   D2A10168  31.261  42.546   8.479
  537POPC   C3A10169  31.386  42.406   8.101
  537POPC   C4A10170  31.651  42.292   7.796
  537POPC   C1B10171  31.859  42.564   8.762
  537POPC   C2B10172  31.892  42.469   8.304
  537POPC   C3B10173  31.752  42.744   7.963
  537POPC   C4B10174  31.778  42.819   7.492
  538POPC   NC310175   9.397  42.137   9.581
  538POPC   PO410176   9.974  42.352   9.476
  538POPC   GL110177   9.731  42.296   9.120
  538POPC   GL210178   9.411  42.470   9.206
  538POPC   C1A10179   9.864  42.267   8.682
  538POPC   D2A10180   9.719  42.101   8.274
  538POPC   C3A10181   9.865  42.265   7.859
  538POPC   C4A10182   9.980  42.180   7.398
  538POPC   C1B10183   9.333  42.442   8.793
  538POPC   C2B10184   9.512  42.541   8.426
  538POPC   C3B10185   9.393  42.522   8.014
  538POPC   C4B10186   9.411  42.338   7.630
  539POPC   NC310187  40.652  10.140   9.369
  539POPC   PO410188  40.925   9.455   9.495
  539POPC   GL110189  41.065   9.570   9.109
  539POPC   GL210190  40.762   9.763   9.064
  539POPC   C1A10191  41.040   9.629   8.676
  539POPC   D2A10192  40.683   9.726   8.437
  539POPC   C3A10193  40.870   9.803   8.113
  539POPC   C4A10194  41.043   9.564   7.773
  539POPC   C1B10195  40.794  10.107   8.750
  539POPC   C2B10196  40.500  10.199   8.388
  539POPC   C3B10197  40.614  10.261   7.969
  539POPC   C4B10198  40.838  10.047   7.693
  540POPC   NC310199   8.358  35.905   9.566
  540POPC   PO410200   7.629  35.877   9.715
  540POPC   GL110201   7.863  35.957   9.296
  540POPC   GL210202   8.199  36.166   9.146
  540POPC   C1A10203   7.832  35.991   8.843
  540POPC   D2A10204   8.197  36.027   8.577
  540POPC   C3A10205   8.169  36.197   8.154
  540POPC   C4A10206   8.140  35.935   7.785
  540POPC   C1B10207   8.433  36.434   8.782
  540POPC   C2B10208   8.516  36.654   8.375
  540POPC   C3B10209   8.597  36.495   7.970
  540POPC   C4B10210   8.626  36.057   7.800
  541POPC   NC310211  44.595  13.952   9.503
  541POPC   PO410212  44.752  14.531   9.749
  541POPC   GL110213  44.664  14.458   9.284
  541POPC   GL210214  44.406  14.233   9.146
  541POPC   C1A10215  44.680  14.561   8.855
  541POPC   D2A10216  44.867  14.522   8.458
  541POPC   C3A10217  44.699  14.454   8.077
  541POPC   C4A10218  44.988  14.322   7.781
  541POPC   C1B10219  44.268  14.099   8.763
  541POPC   C2B10220  44.404  14.151   8.388
  541POPC   C3B10221  44.262  14.178   8.019
  541POPC   C4B10222  44.439  14.166   7.649
  542POPC   NC310223  20.061  15.254   9.376
  542POPC   PO410224  19.616  14.745   9.392
  542POPC   GL110225  19.580  15.145   9.111
  542POPC   GL210226  19.729  15.519   9.093
  542POPC   C1A10227  19.655  15.219   8.669
  542POPC   D2A10228  19.618  14.955   8.315
  542POPC   C3A10229  19.674  15.217   7.957
  542POPC   C4A10230  20.111  15.186   7.804
  542POPC   C1B10231  20.064  15.534   8.751
  542POPC   C2B10232  20.016  15.430   8.300
  542POPC   C3B10233  20.090  15.677   7.915
  542POPC   C4B10234  20.214  15.710   7.487
  543POPC   NC310235  16.401  27.567   9.476
  543POPC   PO410236  15.790  27.794   9.594
  543POPC   GL110237  15.798  27.778   9.177
  543POPC   GL210238  15.930  27.435   9.188
  543POPC   C1A10239  16.039  27.901   8.828
  543POPC   D2A10240  16.337  27.937   8.493
  543POPC   C3A10241  16.025  27.971   8.171
  543POPC   C4A10242  15.926  28.040   7.768
  543POPC   C1B10243  15.801  27.448   8.760
  543POPC   C2B10244  16.090  27.502   8.403
  543POPC   C3B10245  16.187  27.546   7.951
  543POPC   C4B10246  15.816  27.556   7.740
  544POPC   NC310247   1.952  28.890   9.795
  544POPC   PO410248   1.594  29.166   9.305
  544POPC   GL110249   2.089  29.143   9.159
  544POPC   GL210250   2.336  29.455   9.188
  544POPC   C1A10251   2.102  29.188   8.710
  544POPC   D2A10252   1.672  29.081   8.533
  544POPC   C3A10253   1.495  29.368   8.248
  544POPC   C4A10254   1.706  29.292   7.854
  544POPC   C1B10255   2.557  29.432   8.778
  544POPC   C2B10256   2.424  29.465   8.326
  544POPC   C3B10257   2.310  29.349   7.868
  544POPC   C4B10258   2.347  29.450   7.388
  545POPC   NC310259  20.126  27.085   9.595
  545POPC   PO410260  19.830  26.467   9.594
  545POPC   GL110261  19.864  26.786   9.249
  545POPC   GL210262  20.148  26.912   9.122
  545POPC   C1A10263  19.812  26.634   8.815
  545POPC   D2A10264  19.612  26.650   8.436
  545POPC   C3A10265  19.843  26.605   8.080
  545POPC   C4A10266  19.742  26.727   7.684
  545POPC   C1B10267  19.909  27.126   8.786
  545POPC   C2B10268  19.982  27.283   8.386
  545POPC   C3B10269  19.912  27.132   7.970
  545POPC   C4B10270  20.195  27.090   7.608
  546POPC   NC310271  14.144   0.701   9.945
  546POPC   PO410272  14.434   0.163   9.655
  546POPC   GL110273  14.521   0.296   9.209
  546POPC   GL210274  14.194   0.247   9.049
  546POPC   C1A10275  14.637   0.092   8.796
  546POPC   D2A10276  14.572  44.951   8.351
  546POPC   C3A10277  14.577   0.278   8.036
  546POPC   C4A10278  14.604   0.633   7.787
  546POPC   C1B10279  14.243   0.357   8.595
  546POPC   C2B10280  14.101   0.269   8.189
  546POPC   C3B10281  14.115   0.398   7.743
  546POPC   C4B10282  13.889   0.678   7.479
  547POPC   NC310283  14.526  15.854   9.663
  547POPC   PO410284  14.118  16.134  10.157
  547POPC   GL110285  14.165  16.165   9.560
  547POPC   GL210286  14.556  16.255   9.371
  547POPC   C1A10287  14.219  16.145   9.012
  547POPC   D2A10288  14.126  16.152   8.515
  547POPC   C3A10289  14.359  15.943   8.166
  547POPC   C4A10290  14.189  15.891   7.746
  547POPC   C1B10291  14.744  16.087   8.954
  547POPC   C2B10292  14.791  15.935   8.518
  547POPC   C3B10293  14.884  16.097   8.096
  547POPC   C4B10294  14.668  16.091   7.719
  548POPC   NC310295  16.675   0.316   9.636
  548POPC   PO410296  17.281   0.538   9.541
  548POPC   GL110297  16.984   0.356   9.240
  548POPC   GL210298  16.636   0.499   9.179
  548POPC   C1A10299  16.916   0.332   8.787
  548POPC   D2A10300  17.067   0.551   8.408
  548POPC   C3A10301  16.891   0.443   8.017
  548POPC   C4A10302  17.123   0.177   7.802
  548POPC   C1B10303  16.432   0.547   8.792
  548POPC   C2B10304  16.558   0.589   8.381
  548POPC   C3B10305  16.397   0.747   7.995
  548POPC   C4B10306  16.337   0.652   7.548
  549POPC   NC310307  11.872   7.930   9.731
  549POPC   PO410308  12.286   8.416   9.650
  549POPC   GL110309  11.951   8.325   9.339
  549POPC   GL210310  12.023   8.031   9.201
  549POPC   C1A10311  11.855   8.384   8.885
  549POPC   D2A10312  12.118   8.330   8.507
  549POPC   C3A10313  11.994   8.428   8.074
  549POPC   C4A10314  12.281   8.724   7.832
  549POPC   C1B10315  11.978   7.889   8.757
  549POPC   C2B10316  11.960   7.884   8.308
  549POPC   C3B10317  11.867   7.934   7.916
  549POPC   C4B10318  11.826   7.871   7.442
  550POPC   NC310319  34.409  22.094   9.498
  550POPC   PO410320  35.016  22.173   9.676
  550POPC   GL110321  34.909  22.385   9.263
  550POPC   GL210322  34.771  22.085   9.156
  550POPC   C1A10323  34.843  22.533   8.812
  550POPC   D2A10324  34.748  22.407   8.386
  550POPC   C3A10325  34.400  22.420   8.080
  550POPC   C4A10326  34.412  22.484   7.630
  550POPC   C1B10327  34.989  22.039   8.804
  550POPC   C2B10328  34.932  21.898   8.384
  550POPC   C3B10329  34.840  22.098   8.004
  550POPC   C4B10330  34.870  22.244   7.608
  551POPC   NC310331  10.402  38.557   9.815
  551POPC   PO410332   9.712  38.371   9.612
  551POPC   GL110333   9.615  38.562   9.223
  551POPC   GL210334   9.931  38.403   9.097
  551POPC   C1A10335   9.624  38.655   8.791
  551POPC   D2A10336   9.801  38.374   8.469
  551POPC   C3A10337   9.679  38.545   8.093
  551POPC   C4A10338   9.473  38.754   7.749
  551POPC   C1B10339  10.200  38.213   8.799
  551POPC   C2B10340  10.180  38.031   8.391
  551POPC   C3B10341  10.106  38.259   8.009
  551POPC   C4B10342   9.940  38.540   7.668
  552POPC   NC310343  20.975  34.604   9.466
  552POPC   PO410344  21.627  34.380   9.495
  552POPC   GL110345  21.407  34.520   9.154
  552POPC   GL210346  21.152  34.361   9.014
  552POPC   C1A10347  21.542  34.491   8.732
  552POPC   D2A10348  21.545  34.782   8.402
  552POPC   C3A10349  21.434  34.552   8.063
  552POPC   C4A10350  21.411  34.696   7.674
  552POPC   C1B10351  21.040  34.549   8.587
  552POPC   C2B10352  20.922  34.614   8.151
  552POPC   C3B10353  20.975  34.385   7.794
  552POPC   C4B10354  21.109  34.414   7.366
  553POPC   NC310355   7.536  41.851   9.698
  553POPC   PO410356   7.029  41.392   9.498
  553POPC   GL110357   7.394  41.416   9.242
  553POPC   GL210358   7.541  41.727   9.165
  553POPC   C1A10359   7.383  41.372   8.812
  553POPC   D2A10360   7.566  41.392   8.418
  553POPC   C3A10361   7.288  41.447   8.092
  553POPC   C4A10362   7.471  41.358   7.719
  553POPC   C1B10363   7.390  41.897   8.769
  553POPC   C2B10364   7.142  42.106   8.453
  553POPC   C3B10365   7.227  42.001   8.031
  553POPC   C4B10366   7.239  41.797   7.639
  554POPC   NC310367  20.036   5.101   9.543
  554POPC   PO410368  19.451   5.440   9.505
  554POPC   GL110369  19.753   5.462   9.149
  554POPC   GL210370  20.096   5.332   9.104
  554POPC   C1A10371  19.786   5.351   8.704
  554POPC   D2A10372  19.937   5.189   8.340
  554POPC   C3A10373  19.746   4.964   8.024
  554POPC   C4A10374  19.836   5.248   7.715
  554POPC   C1B10375  20.009   4.924   8.882
  554POPC   C2B10376  20.115   4.712   8.488
  554POPC   C3B10377  20.245   4.850   8.082
  554POPC   C4B10378  20.126   4.822   7.682
  555POPC   NC310379  17.728  42.912   9.661
  555POPC   PO410380  17.010  42.933   9.763
  555POPC   GL110381  17.308  43.162   9.389
  555POPC   GL210382  17.536  42.951   9.173
  555POPC   C1A10383  17.335  43.370   8.933
  555POPC   D2A10384  17.562  43.423   8.535
  555POPC   C3A10385  17.346  43.158   8.216
  555POPC   C4A10386  17.319  43.124   7.783
  555POPC   C1B10387  17.496  42.928   8.705
  555POPC   C2B10388  17.803  42.987   8.348
  555POPC   C3B10389  17.814  43.043   7.897
  555POPC   C4B10390  17.727  42.802   7.486
  556POPC   NC310391  20.434   3.475   9.699
  556POPC   PO410392  19.819   3.667   9.817
  556POPC   GL110393  19.946   3.489   9.325
  556POPC   GL210394  19.668   3.567   9.103
  556POPC   C1A10395  20.043   3.465   8.806
  556POPC   D2A10396  19.976   3.321   8.328
  556POPC   C3A10397  20.032   3.587   7.931
  556POPC   C4A10398  20.066   3.453   7.485
  556POPC   C1B10399  19.464   3.448   8.722
  556POPC   C2B10400  19.426   3.263   8.315
  556POPC   C3B10401  19.667   3.206   7.920
  556POPC   C4B10402  19.578   3.418   7.527
  557POPC   NC310403  34.327  16.331   9.343
  557POPC   PO410404  34.647  16.793   9.665
  557POPC   GL110405  34.523  16.861   9.227
  557POPC   GL210406  34.701  17.100   9.024
  557POPC   C1A10407  34.504  16.679   8.806
  557POPC   D2A10408  34.727  16.671   8.415
  557POPC   C3A10409  34.651  16.503   7.991
  557POPC   C4A10410  34.497  16.737   7.649
  557POPC   C1B10411  34.947  17.295   8.695
  557POPC   C2B10412  34.837  17.318   8.298
  557POPC   C3B10413  34.698  17.045   8.012
  557POPC   C4B10414  34.785  17.207   7.608
  558POPC   NC310415  20.789  37.738   9.860
  558POPC   PO410416  21.469  37.707   9.612
  558POPC   GL110417  21.246  37.604   9.229
  558POPC   GL210418  21.522  37.559   9.007
  558POPC   C1A10419  21.082  37.487   8.790
  558POPC   D2A10420  21.309  37.755   8.478
  558POPC   C3A10421  21.319  37.601   8.054
  558POPC   C4A10422  21.056  37.372   7.761
  558POPC   C1B10423  21.774  37.778   8.709
  558POPC   C2B10424  21.840  37.715   8.296
  558POPC   C3B10425  21.741  37.814   7.857
  558POPC   C4B10426  21.900  37.928   7.449
  559POPC   NC310427  28.923   9.486   9.430
  559POPC   PO410428  29.538   9.705   9.501
  559POPC   GL110429  29.245   9.811   9.157
  559POPC   GL210430  29.100   9.507   8.979
  559POPC   C1A10431  29.348   9.830   8.716
  559POPC   D2A10432  29.240   9.673   8.372
  559POPC   C3A10433  29.303   9.842   8.013
  559POPC   C4A10434  29.326   9.634   7.646
  559POPC   C1B10435  28.827   9.525   8.659
  559POPC   C2B10436  28.743   9.730   8.304
  559POPC   C3B10437  28.811   9.666   7.897
  559POPC   C4B10438  28.677   9.313   7.743
  560POPC   NC310439   5.349  35.796   9.503
  560POPC   PO410440   5.024  36.387   9.601
  560POPC   GL110441   5.121  36.201   9.231
  560POPC   GL210442   4.876  35.961   9.214
  560POPC   C1A10443   5.265  36.240   8.797
  560POPC   D2A10444   5.051  36.291   8.421
  560POPC   C3A10445   5.259  36.216   8.097
  560POPC   C4A10446   5.237  36.121   7.713
  560POPC   C1B10447   5.014  35.789   8.825
  560POPC   C2B10448   5.256  35.839   8.455
  560POPC   C3B10449   5.318  35.714   8.035
  560POPC   C4B10450   5.041  35.640   7.688
  561POPC   NC310451  34.205  31.432   9.504
  561POPC   PO410452  33.642  31.218   9.667
  561POPC   GL110453  33.743  31.343   9.256
  561POPC   GL210454  33.416  31.357   9.151
  561POPC   C1A10455  33.808  31.552   8.853
  561POPC   D2A10456  33.628  31.472   8.452
  561POPC   C3A10457  33.903  31.544   8.097
  561POPC   C4A10458  34.031  31.445   7.680
  561POPC   C1B10459  33.449  31.100   8.807
  561POPC   C2B10460  33.513  30.977   8.388
  561POPC   C3B10461  33.557  31.172   7.997
  561POPC   C4B10462  33.604  31.060   7.576
  562POPC   NC310463  44.585  24.300   9.543
  562POPC   PO410464   0.114  24.439   9.419
  562POPC   GL110465  44.889  24.179   9.123
  562POPC   GL210466  44.496  24.229   9.063
  562POPC   C1A10467  44.896  24.418   8.753
  562POPC   D2A10468  44.871  24.843   8.554
  562POPC   C3A10469  44.728  24.935   8.126
  562POPC   C4A10470  44.861  24.857   7.691
  562POPC   C1B10471  44.408  24.504   8.704
  562POPC   C2B10472  44.625  24.452   8.303
  562POPC   C3B10473  44.643  24.409   7.860
  562POPC   C4B10474  44.585  24.516   7.422
  563POPC   NC310475  32.924  36.608   9.545
  563POPC   PO410476  33.235  37.297   9.439
  563POPC   GL110477  33.024  36.995   9.202
  563POPC   GL210478  33.174  36.686   9.111
  563POPC   C1A10479  32.854  36.961   8.785
  563POPC   D2A10480  33.012  37.172   8.424
  563POPC   C3A10481  33.192  36.927   8.090
  563POPC   C4A10482  33.220  37.097   7.681
  563POPC   C1B10483  32.862  36.445   8.874
  563POPC   C2B10484  32.713  36.409   8.443
  563POPC   C3B10485  32.501  36.633   8.112
  563POPC   C4B10486  32.690  36.835   7.742
  564POPC   NC310487  27.293  18.544   9.579
  564POPC   PO410488  27.792  18.073   9.533
  564POPC   GL110489  27.665  18.285   9.156
  564POPC   GL210490  27.302  18.312   9.122
  564POPC   C1A10491  27.918  18.332   8.774
  564POPC   D2A10492  27.939  18.132   8.377
  564POPC   C3A10493  27.859  18.364   8.010
  564POPC   C4A10494  27.695  18.228   7.609
  564POPC   C1B10495  27.426  18.479   8.714
  564POPC   C2B10496  27.392  18.362   8.253
  564POPC   C3B10497  27.429  18.577   7.843
  564POPC   C4B10498  27.530  18.620   7.359
  565POPC   NC310499  22.866  39.869   9.502
  565POPC   PO410500  23.279  40.327   9.258
  565POPC   GL110501  23.048  40.048   9.045
  565POPC   GL210502  23.148  39.712   9.091
  565POPC   C1A10503  23.053  39.939   8.614
  565POPC   D2A10504  22.772  40.049   8.306
  565POPC   C3A10505  23.014  40.247   8.067
  565POPC   C4A10506  22.851  40.360   7.731
  565POPC   C1B10507  23.058  39.452   8.722
  565POPC   C2B10508  23.006  39.541   8.271
  565POPC   C3B10509  22.991  39.762   7.877
  565POPC   C4B10510  23.277  40.066   7.684
  566POPC   NC310511  14.440  13.464   9.406
  566POPC   PO410512  13.916  13.873   9.415
  566POPC   GL110513  14.253  13.808   9.085
  566POPC   GL210514  14.519  14.005   9.274
  566POPC   C1A10515  14.342  13.543   8.693
  566POPC   D2A10516  14.600  13.356   8.323
  566POPC   C3A10517  14.371  13.310   7.920
  566POPC   C4A10518  14.099  13.670   7.834
  566POPC   C1B10519  14.651  14.101   8.851
  566POPC   C2B10520  14.606  13.926   8.452
  566POPC   C3B10521  14.722  14.034   8.061
  566POPC   C4B10522  14.586  13.756   7.753
  567POPC   NC310523   9.482  11.257   9.563
  567POPC   PO410524  10.118  10.975   9.617
  567POPC   GL110525   9.993  11.208   9.210
  567POPC   GL210526   9.849  11.569   9.276
  567POPC   C1A10527   9.972  11.338   8.742
  567POPC   D2A10528   9.970  11.396   8.272
  567POPC   C3A10529   9.765  11.192   7.888
  567POPC   C4A10530   9.723  11.272   7.425
  567POPC   C1B10531   9.511  11.565   8.954
  567POPC   C2B10532   9.474  11.415   8.557
  567POPC   C3B10533   9.488  11.526   8.161
  567POPC   C4B10534   9.339  11.484   7.792
  568POPC   NC310535   9.402  32.750   9.454
  568POPC   PO410536   9.745  33.353   9.640
  568POPC   GL110537   9.700  33.296   9.177
  568POPC   GL210538   9.396  33.195   9.192
  568POPC   C1A10539   9.669  33.085   8.745
  568POPC   D2A10540   9.858  33.167   8.346
  568POPC   C3A10541   9.824  32.971   7.958
  568POPC   C4A10542   9.645  32.738   7.622
  568POPC   C1B10543   9.303  33.449   8.830
  568POPC   C2B10544   9.181  33.276   8.439
  568POPC   C3B10545   9.404  33.273   8.079
  568POPC   C4B10546   9.614  33.384   7.709
  569POPC   NC310547   1.470   3.760   9.754
  569POPC   PO410548   1.048   3.215   9.692
  569POPC   GL110549   1.376   3.420   9.337
  569POPC   GL210550   1.405   3.751   9.107
  569POPC   C1A10551   1.495   3.294   8.889
  569POPC   D2A10552   1.206   3.283   8.529
  569POPC   C3A10553   1.189   3.624   8.222
  569POPC   C4A10554   1.067   3.587   7.785
  569POPC   C1B10555   1.176   3.905   8.699
  569POPC   C2B10556   0.796   3.964   8.425
  569POPC   C3B10557   0.694   4.152   8.024
  569POPC   C4B10558   0.985   4.093   7.696
  570POPC   NC310559  28.779  44.912   9.316
  570POPC   PO410560  28.936  44.412   9.642
  570POPC   GL110561  29.137  44.536   9.222
  570POPC   GL210562  29.401  44.800   9.214
  570POPC   C1A10563  29.036  44.696   8.778
  570POPC   D2A10564  29.141  44.492   8.415
  570POPC   C3A10565  29.162  44.717   8.039
  570POPC   C4A10566  28.969   0.039   7.839
  570POPC   C1B10567  29.375   0.070   8.878
  570POPC   C2B10568  29.360  44.996   8.439
  570POPC   C3B10569  29.460   0.149   8.022
  570POPC   C4B10570  29.448   0.036   7.596
  571POPC   NC310571  40.639  11.914   9.658
  571POPC   PO410572  41.317  12.133   9.694
  571POPC   GL110573  41.112  12.145   9.280
  571POPC   GL210574  40.738  12.051   9.185
  571POPC   C1A10575  41.043  12.268   8.862
  571POPC   D2A10576  40.853  12.128   8.516
  571POPC   C3A10577  41.104  12.119   8.168
  571POPC   C4A10578  41.063  12.278   7.772
  571POPC   C1B10579  40.480  12.234   8.855
  571POPC   C2B10580  40.294  12.196   8.449
  571POPC   C3B10581  40.517  12.055   8.088
  571POPC   C4B10582  40.359  12.040   7.690
  572POPC   NC310583  27.084  11.803   9.478
  572POPC   PO410584  26.628  12.333   9.388
  572POPC   GL110585  26.804  12.072   9.113
  572POPC   GL210586  26.688  11.759   9.141
  572POPC   C1A10587  26.955  11.994   8.712
  572POPC   D2A10588  27.125  12.200   8.363
  572POPC   C3A10589  26.822  12.311   8.055
  572POPC   C4A10590  27.042  12.194   7.708
  572POPC   C1B10591  26.570  11.644   8.752
  572POPC   C2B10592  26.755  11.565   8.349
  572POPC   C3B10593  26.920  11.786   8.003
  572POPC   C4B10594  26.934  11.684   7.562
  573POPC   NC310595  11.746   1.317   9.382
  573POPC   PO410596  11.168   1.269   9.593
  573POPC   GL110597  11.062   1.139   9.164
  573POPC   GL210598  11.391   1.050   9.066
  573POPC   C1A10599  10.932   1.224   8.735
  573POPC   D2A10600  11.301   1.095   8.461
  573POPC   C3A10601  11.323   0.976   8.038
  573POPC   C4A10602  11.230   1.133   7.622
  573POPC   C1B10603  11.365   1.462   8.822
  573POPC   C2B10604  11.209   1.582   8.383
  573POPC   C3B10605  11.396   1.490   7.986
  573POPC   C4B10606  11.525   1.613   7.562
  574POPC   NC310607   5.382  19.840   9.296
  574POPC   PO410608   5.804  19.742   9.792
  574POPC   GL110609   5.906  19.704   9.345
  574POPC   GL210610   5.856  20.042   9.239
  574POPC   C1A10611   5.868  19.601   8.872
  574POPC   D2A10612   5.686  19.677   8.415
  574POPC   C3A10613   5.769  19.874   7.950
  574POPC   C4A10614   5.827  19.629   7.515
  574POPC   C1B10615   5.811  20.104   8.774
  574POPC   C2B10616   6.073  19.989   8.430
  574POPC   C3B10617   6.206  20.134   8.061
  574POPC   C4B10618   5.958  20.406   7.827
  575POPC   NC310619  31.253   4.317   9.528
  575POPC   PO410620  31.983   4.439   9.424
  575POPC   GL110621  31.647   4.504   9.108
  575POPC   GL210622  31.254   4.533   9.060
  575POPC   C1A10623  31.609   4.608   8.679
  575POPC   D2A10624  31.388   4.396   8.337
  575POPC   C3A10625  31.655   4.292   7.986
  575POPC   C4A10626  31.922   4.613   7.773
  575POPC   C1B10627  31.358   4.131   8.838
  575POPC   C2B10628  31.176   3.926   8.462
  575POPC   C3B10629  30.935   4.204   8.173
  575POPC   C4B10630  31.056   4.437   7.796
  576POPC   NC310631  18.474  14.150   9.465
  576POPC   PO410632  18.026  14.652   9.517
  576POPC   GL110633  18.261  14.506   9.138
  576POPC   GL210634  18.183  14.147   9.045
  576POPC   C1A10635  18.244  14.690   8.725
  576POPC   D2A10636  18.229  15.002   8.403
  576POPC   C3A10637  18.251  14.842   7.986
  576POPC   C4A10638  18.317  14.474   7.744
  576POPC   C1B10639  18.346  14.186   8.610
  576POPC   C2B10640  18.391  14.123   8.141
  576POPC   C3B10641  18.690  14.131   7.791
  576POPC   C4B10642  18.688  14.132   7.304
  577POPC   NC310643  17.652   3.271   9.487
  577POPC   PO410644  17.499   3.935   9.675
  577POPC   GL110645  17.558   3.728   9.263
  577POPC   GL210646  17.378   3.498   9.106
  577POPC   C1A10647  17.762   3.668   8.842
  577POPC   D2A10648  17.840   3.823   8.451
  577POPC   C3A10649  17.638   3.702   8.098
  577POPC   C4A10650  17.694   3.815   7.705
  577POPC   C1B10651  17.341   3.352   8.714
  577POPC   C2B10652  17.458   3.218   8.290
  577POPC   C3B10653  17.670   3.233   7.881
  577POPC   C4B10654  17.544   3.005   7.504
  578POPC   NC310655  18.212  22.725   9.412
  578POPC   PO410656  18.440  22.000   9.508
  578POPC   GL110657  18.394  22.005   9.102
  578POPC   GL210658  18.444  22.362   9.089
  578POPC   C1A10659  18.141  21.840   8.785
  578POPC   D2A10660  18.043  22.017   8.403
  578POPC   C3A10661  18.298  22.009   8.055
  578POPC   C4A10662  18.271  22.069   7.639
  578POPC   C1B10663  18.460  22.255   8.659
  578POPC   C2B10664  18.668  22.318   8.297
  578POPC   C3B10665  18.630  22.357   7.865
  578POPC   C4B10666  18.832  22.450   7.493
  579POPC   NC310667  23.938  41.318   9.526
  579POPC   PO410668  23.784  40.642   9.567
  579POPC   GL110669  23.707  40.672   9.137
  579POPC   GL210670  23.653  41.045   9.170
  579POPC   C1A10671  23.548  40.784   8.730
  579POPC   D2A10672  23.657  40.668   8.326
  579POPC   C3A10673  23.625  40.929   7.955
  579POPC   C4A10674  23.751  40.763   7.549
  579POPC   C1B10675  23.841  41.288   8.850
  579POPC   C2B10676  23.978  41.194   8.445
  579POPC   C3B10677  24.225  41.100   8.108
  579POPC   C4B10678  24.062  41.137   7.709
  580POPC   NC310679  42.790   9.787   9.527
  580POPC   PO410680  43.467   9.817   9.673
  580POPC   GL110681  43.279   9.691   9.239
  580POPC   GL210682  43.000   9.477   9.203
  580POPC   C1A10683  42.976   9.843   8.852
  580POPC   D2A10684  42.826  10.079   8.447
  580POPC   C3A10685  42.866   9.873   8.025
  580POPC   C4A10686  43.210   9.739   7.740
  580POPC   C1B10687  42.778   9.362   8.804
  580POPC   C2B10688  42.712   9.530   8.391
  580POPC   C3B10689  42.619   9.421   7.954
  580POPC   C4B10690  42.744   9.637   7.568
  581POPC   NC310691  24.048  20.718   9.506
  581POPC   PO410692  24.667  20.453   9.542
  581POPC   GL110693  24.540  20.519   9.138
  581POPC   GL210694  24.670  20.225   9.025
  581POPC   C1A10695  24.489  20.539   8.669
  581POPC   D2A10696  24.707  20.606   8.274
  581POPC   C3A10697  24.434  20.619   7.900
  581POPC   C4A10698  24.045  20.774   7.746
  581POPC   C1B10699  24.514  20.017   8.667
  581POPC   C2B10700  24.459  20.095   8.264
  581POPC   C3B10701  24.706  20.194   7.954
  581POPC   C4B10702  24.572  20.214   7.549
  582POPC   NC310703  10.276  20.994   9.386
  582POPC   PO410704  10.758  20.757   9.799
  582POPC   GL110705  10.736  20.681   9.335
  582POPC   GL210706  10.872  20.976   9.169
  582POPC   C1A10707  10.659  20.393   8.957
  582POPC   D2A10708  10.443  20.450   8.542
  582POPC   C3A10709  10.497  20.471   8.086
  582POPC   C4A10710  10.508  20.552   7.678
  582POPC   C1B10711  10.589  20.888   8.814
  582POPC   C2B10712  10.647  20.859   8.364
  582POPC   C3B10713  10.514  21.006   7.980
  582POPC   C4B10714  10.766  20.976   7.646
  583POPC   NC310715  35.964  27.822   9.802
  583POPC   PO410716  36.195  28.218   9.343
  583POPC   GL110717  36.127  28.477   9.066
  583POPC   GL210718  35.928  28.677   9.227
  583POPC   C1A10719  36.316  28.518   8.699
  583POPC   D2A10720  36.291  28.099   8.473
  583POPC   C3A10721  36.032  28.102   8.085
  583POPC   C4A10722  36.320  28.090   7.752
  583POPC   C1B10723  35.757  28.683   8.805
  583POPC   C2B10724  35.882  28.431   8.450
  583POPC   C3B10725  36.277  28.530   8.179
  583POPC   C4B10726  36.108  28.614   7.790
  584POPC   NC310727  18.123  38.787   9.528
  584POPC   PO410728  18.584  38.318   9.616
  584POPC   GL110729  18.476  38.436   9.205
  584POPC   GL210730  18.436  38.765   9.132
  584POPC   C1A10731  18.335  38.433   8.769
  584POPC   D2A10732  18.420  38.197   8.401
  584POPC   C3A10733  18.181  38.175   8.010
  584POPC   C4A10734  18.498  38.230   7.719
  584POPC   C1B10735  18.322  38.966   8.760
  584POPC   C2B10736  18.187  38.835   8.361
  584POPC   C3B10737  18.294  38.693   7.942
  584POPC   C4B10738  18.225  38.757   7.484
  585POPC   NC310739  39.503   8.821   9.767
  585POPC   PO410740  38.985   9.191   9.632
  585POPC   GL110741  39.364   9.089   9.299
  585POPC   GL210742  39.622   8.790   9.274
  585POPC   C1A10743  39.490   9.097   8.821
  585POPC   D2A10744  39.467   9.183   8.340
  585POPC   C3A10745  39.361   8.890   8.045
  585POPC   C4A10746  39.007   8.862   7.752
  585POPC   C1B10747  39.770   8.666   8.872
  585POPC   C2B10748  39.638   8.632   8.445
  585POPC   C3B10749  39.646   8.467   8.036
  585POPC   C4B10750  39.470   8.552   7.638
  586POPC   NC310751   6.579  25.695   9.645
  586POPC   PO410752   6.880  25.151   9.336
  586POPC   GL110753   6.613  25.261   9.063
  586POPC   GL210754   6.614  25.573   9.159
  586POPC   C1A10755   6.581  25.376   8.657
  586POPC   D2A10756   6.443  25.342   8.253
  586POPC   C3A10757   6.796  25.335   7.961
  586POPC   C4A10758   7.085  24.988   7.898
  586POPC   C1B10759   6.369  25.793   8.877
  586POPC   C2B10760   6.415  25.846   8.443
  586POPC   C3B10761   6.208  25.728   8.065
  586POPC   C4B10762   6.368  25.486   7.750
  587POPC   NC310763   1.685  15.099   9.520
  587POPC   PO410764   1.101  15.420   9.412
  587POPC   GL110765   1.337  15.195   9.163
  587POPC   GL210766   1.062  15.054   8.986
  587POPC   C1A10767   1.453  15.275   8.759
  587POPC   D2A10768   1.185  15.187   8.440
  587POPC   C3A10769   1.384  15.321   8.117
  587POPC   C4A10770   1.112  15.419   7.831
  587POPC   C1B10771   1.289  14.782   8.721
  587POPC   C2B10772   1.163  14.690   8.310
  587POPC   C3B10773   1.112  14.897   7.920
  587POPC   C4B10774   1.183  14.749   7.488
  588POPC   NC310775   4.140  18.650   9.642
  588POPC   PO410776   4.372  18.060   9.541
  588POPC   GL110777   4.244  18.171   9.166
  588POPC   GL210778   4.401  18.517   9.222
  588POPC   C1A10779   4.157  17.972   8.756
  588POPC   D2A10780   3.967  18.068   8.349
  588POPC   C3A10781   4.220  17.961   8.016
  588POPC   C4A10782   4.100  17.835   7.600
  588POPC   C1B10783   4.070  18.572   8.929
  588POPC   C2B10784   4.016  18.614   8.502
  588POPC   C3B10785   4.002  18.529   8.077
  588POPC   C4B10786   4.254  18.372   7.733
  589POPC   NC310787  43.635  24.611   9.522
  589POPC   PO410788  44.158  24.160   9.527
  589POPC   GL110789  44.068  24.490   9.208
  589POPC   GL210790  43.781  24.313   9.122
  589POPC   C1A10791  43.905  24.660   8.785
  589POPC   D2A10792  43.713  24.424   8.449
  589POPC   C3A10793  43.585  24.628   8.087
  589POPC   C4A10794  43.821  24.707   7.747
  589POPC   C1B10795  44.048  24.160   8.780
  589POPC   C2B10796  44.245  24.108   8.389
  589POPC   C3B10797  44.038  24.206   8.028
  589POPC   C4B10798  44.162  24.349   7.663
  590POPC   NC310799   5.569   1.928   9.536
  590POPC   PO410800   4.972   2.079   9.686
  590POPC   GL110801   5.100   2.147   9.247
  590POPC   GL210802   4.819   2.362   9.170
  590POPC   C1A10803   5.192   1.990   8.817
  590POPC   D2A10804   5.406   1.681   8.551
  590POPC   C3A10805   5.277   1.718   8.114
  590POPC   C4A10806   5.113   1.778   7.697
  590POPC   C1B10807   4.700   2.065   8.893
  590POPC   C2B10808   4.779   2.241   8.478
  590POPC   C3B10809   4.837   2.061   8.082
  590POPC   C4B10810   4.827   2.196   7.676
  591POPC   NC310811  32.336  12.326   9.360
  591POPC   PO410812  31.936  11.825   9.556
  591POPC   GL110813  32.174  11.878   9.179
  591POPC   GL210814  31.942  12.147   9.080
  591POPC   C1A10815  32.484  11.883   8.832
  591POPC   D2A10816  32.598  11.965   8.393
  591POPC   C3A10817  32.220  12.020   8.131
  591POPC   C4A10818  32.229  12.148   7.715
  591POPC   C1B10819  32.083  12.153   8.647
  591POPC   C2B10820  32.096  12.491   8.351
  591POPC   C3B10821  31.889  12.457   7.932
  591POPC   C4B10822  31.800  12.537   7.475
  592POPC   NC310823  31.109  12.132   9.346
  592POPC   PO410824  30.539  11.993   9.491
  592POPC   GL110825  30.722  11.844   9.100
  592POPC   GL210826  30.708  12.205   9.030
  592POPC   C1A10827  30.802  11.941   8.629
  592POPC   D2A10828  30.627  12.300   8.352
  592POPC   C3A10829  30.483  12.120   7.969
  592POPC   C4A10830  30.367  11.717   7.806
  592POPC   C1B10831  31.032  12.398   8.754
  592POPC   C2B10832  31.126  12.264   8.362
  592POPC   C3B10833  30.961  12.344   7.919
  592POPC   C4B10834  30.952  12.351   7.456
  593POPC   NC310835  19.028  31.507   9.644
  593POPC   PO410836  19.264  32.076   9.522
  593POPC   GL110837  19.114  31.770   9.213
  593POPC   GL210838  19.389  31.600   9.296
  593POPC   C1A10839  18.921  31.592   8.809
  593POPC   D2A10840  18.680  31.694   8.393
  593POPC   C3A10841  18.890  31.546   8.016
  593POPC   C4A10842  18.874  31.245   7.713
  593POPC   C1B10843  19.468  31.551   8.874
  593POPC   C2B10844  19.569  31.623   8.452
  593POPC   C3B10845  19.407  31.585   8.056
  593POPC   C4B10846  19.334  31.465   7.671
  594POPC   NC310847  25.686  22.726   9.439
  594POPC   PO410848  25.064  22.865   9.492
  594POPC   GL110849  25.293  22.815   9.125
  594POPC   GL210850  25.461  23.134   9.162
  594POPC   C1A10851  25.143  22.858   8.720
  594POPC   D2A10852  25.026  22.645   8.368
  594POPC   C3A10853  25.091  22.912   8.031
  594POPC   C4A10854  25.021  22.707   7.672
  594POPC   C1B10855  25.615  23.048   8.745
  594POPC   C2B10856  25.609  22.900   8.318
  594POPC   C3B10857  25.711  23.160   7.959
  594POPC   C4B10858  25.440  23.184   7.596
  595POPC   NC310859  32.424  13.151   9.439
  595POPC   PO410860  32.002  12.626   9.464
  595POPC   GL110861  32.257  12.791   9.134
  595POPC   GL210862  32.174  12.584   8.906
  595POPC   C1A10863  32.159  13.097   8.791
  595POPC   D2A10864  31.854  12.986   8.482
  595POPC   C3A10865  32.062  12.952   8.103
  595POPC   C4A10866  32.064  13.171   7.714
  595POPC   C1B10867  32.554  12.411   8.760
  595POPC   C2B10868  32.743  12.454   8.392
  595POPC   C3B10869  32.495  12.445   8.036
  595POPC   C4B10870  32.306  12.702   7.727
  596POPC   NC310871  44.181  13.599   9.795
  596POPC   PO410872  44.856  13.566   9.508
  596POPC   GL110873  44.696  13.680   9.099
  596POPC   GL210874  44.869  13.980   9.094
  596POPC   C1A10875  44.543  13.642   8.705
  596POPC   D2A10876  44.480  13.553   8.307
  596POPC   C3A10877  44.786  13.407   8.023
  596POPC   C4A10878  44.505  13.543   7.720
  596POPC   C1B10879  44.792  14.090   8.722
  596POPC   C2B10880  44.852  13.882   8.371
  596POPC   C3B10881  44.709  13.923   8.005
  596POPC   C4B10882  44.871  13.865   7.621
  597POPC   NC310883  36.419  15.984   9.593
  597POPC   PO410884  35.675  15.957   9.603
  597POPC   GL110885  35.968  15.989   9.235
  597POPC   GL210886  36.302  16.082   9.124
  597POPC   C1A10887  36.009  15.841   8.788
  597POPC   D2A10888  35.824  15.917   8.393
  597POPC   C3A10889  36.052  15.890   8.038
  597POPC   C4A10890  36.298  15.881   7.679
  597POPC   C1B10891  36.538  15.886   8.826
  597POPC   C2B10892  36.406  15.798   8.414
  597POPC   C3B10893  36.630  15.906   8.043
  597POPC   C4B10894  36.671  16.234   7.669
  598POPC   NC310895  32.344   0.665   9.626
  598POPC   PO410896  31.902   0.233   9.457
  598POPC   GL110897  32.108   0.460   9.104
  598POPC   GL210898  32.471   0.498   9.149
  598POPC   C1A10899  32.032   0.418   8.639
  598POPC   D2A10900  32.006   0.344   8.189
  598POPC   C3A10901  32.004   0.611   7.824
  598POPC   C4A10902  32.249   0.700   7.400
  598POPC   C1B10903  32.436   0.692   8.749
  598POPC   C2B10904  32.284   0.811   8.325
  598POPC   C3B10905  32.491   0.624   7.990
  598POPC   C4B10906  32.560   0.346   7.664
  599POPC   NC310907  37.273  17.462   9.459
  599POPC   PO410908  36.668  17.189   9.697
  599POPC   GL110909  36.835  17.223   9.282
  599POPC   GL210910  36.783  17.589   9.211
  599POPC   C1A10911  36.920  17.242   8.837
  599POPC   D2A10912  36.775  17.547   8.504
  599POPC   C3A10913  36.978  17.510   8.124
  599POPC   C4A10914  36.959  17.215   7.825
  599POPC   C1B10915  37.054  17.761   8.864
  599POPC   C2B10916  37.229  17.826   8.439
  599POPC   C3B10917  37.323  17.885   8.006
  599POPC   C4B10918  37.115  17.708   7.645
  600POPC   NC310919  42.183  27.391   9.626
  600POPC   PO410920  42.447  28.081   9.544
  600POPC   GL110921  42.328  27.750   9.228
  600POPC   GL210922  42.131  27.931   9.041
  600POPC   C1A10923  42.375  27.498   8.825
  600POPC   D2A10924  42.164  27.409   8.377
  600POPC   C3A10925  42.318  27.561   7.925
  600POPC   C4A10926  42.586  27.512   7.512
  600POPC   C1B10927  42.289  27.962   8.650
  600POPC   C2B10928  42.179  27.988   8.234
  600POPC   C3B10929  42.059  28.028   7.810
  600POPC   C4B10930  42.150  27.762   7.428
  601POPC   NC310931  27.254  33.636   9.364
  601POPC   PO410932  26.651  33.600   9.619
  601POPC   GL110933  26.750  33.693   9.151
  601POPC   GL210934  27.020  33.488   8.960
  601POPC   C1A10935  26.675  33.923   8.750
  601POPC   D2A10936  26.801  34.191   8.411
  601POPC   C3A10937  27.004  34.049   8.050
  601POPC   C4A10938  27.014  34.017   7.610
  601POPC   C1B10939  26.910  33.499   8.561
  601POPC   C2B10940  26.703  33.669   8.244
  601POPC   C3B10941  26.864  33.607   7.860
  601POPC   C4B10942  26.996  33.520   7.468
  602POPC   NC310943  23.468   3.670   9.429
  602POPC   PO410944  23.878   3.147   9.554
  602POPC   GL110945  23.770   3.380   9.161
  602POPC   GL210946  23.415   3.423   8.984
  602POPC   C1A10947  23.893   3.514   8.772
  602POPC   D2A10948  24.037   3.504   8.370
  602POPC   C3A10949  23.750   3.584   8.059
  602POPC   C4A10950  23.713   3.265   7.759
  602POPC   C1B10951  23.530   3.851   8.768
  602POPC   C2B10952  23.452   3.902   8.329
  602POPC   C3B10953  23.218   3.728   7.984
  602POPC   C4B10954  23.148   3.839   7.560
  603POPC   NC310955  27.939  13.013   9.439
  603POPC   PO410956  28.625  12.898   9.423
  603POPC   GL110957  28.536  12.774   9.018
  603POPC   GL210958  28.235  12.713   9.081
  603POPC   C1A10959  28.316  13.031   8.695
  603POPC   D2A10960  28.359  13.206   8.274
  603POPC   C3A10961  28.579  12.892   8.038
  603POPC   C4A10962  28.552  12.878   7.544
  603POPC   C1B10963  28.023  12.593   8.696
  603POPC   C2B10964  28.007  12.845   8.302
  603POPC   C3B10965  28.119  12.906   7.879
  603POPC   C4B10966  28.174  12.581   7.563
  604POPC   NC310967  40.171  35.032   9.361
  604POPC   PO410968  40.029  35.680   9.523
  604POPC   GL110969  39.996  35.474   9.152
  604POPC   GL210970  39.724  35.253   9.180
  604POPC   C1A10971  40.060  35.248   8.759
  604POPC   D2A10972  39.965  35.444   8.403
  604POPC   C3A10973  40.141  35.253   8.083
  604POPC   C4A10974  39.853  35.170   7.846
  604POPC   C1B10975  39.609  35.544   8.818
  604POPC   C2B10976  39.415  35.533   8.420
  604POPC   C3B10977  39.544  35.529   7.994
  604POPC   C4B10978  39.826  35.653   7.636
  605POPC   NC310979  40.768   0.322   9.627
  605POPC   PO410980  41.405   0.165   9.549
  605POPC   GL110981  41.032   0.192   9.192
  605POPC   GL210982  40.649   0.096   9.188
  605POPC   C1A10983  40.810   0.498   8.873
  605POPC   D2A10984  40.505   0.650   8.513
  605POPC   C3A10985  40.538   0.496   8.086
  605POPC   C4A10986  40.762   0.487   7.709
  605POPC   C1B10987  40.492   0.110   8.766
  605POPC   C2B10988  40.666   0.049   8.337
  605POPC   C3B10989  40.489   0.008   7.889
  605POPC   C4B10990  40.499   0.091   7.418
  606POPC   NC310991  16.383  10.361   9.388
  606POPC   PO410992  16.924  10.618   9.573
  606POPC   GL110993  16.860  10.384   9.202
  606POPC   GL210994  16.674  10.674   9.093
  606POPC   C1A10995  16.689  10.252   8.777
  606POPC   D2A10996  16.485  10.352   8.390
  606POPC   C3A10997  16.734  10.600   8.112
  606POPC   C4A10998  16.752  10.451   7.687
  606POPC   C1B10999  16.453  10.968   8.833
  606POPC   C2B11000  16.512  11.134   8.414
  606POPC   C3B11001  16.401  10.977   8.029
  606POPC   C4B11002  16.467  10.866   7.608
  607POPC   NC311003  19.964  17.026   9.405
  607POPC   PO411004  20.247  16.509   9.514
  607POPC   GL111005  19.910  16.508   9.143
  607POPC   GL211006  19.822  16.827   8.980
  607POPC   C1A11007  19.683  16.409   8.746
  607POPC   D2A11008  19.790  16.743   8.466
  607POPC   C3A11009  19.879  16.605   8.110
  607POPC   C4A11010  19.937  16.612   7.717
  607POPC   C1B11011  20.057  17.135   8.739
  607POPC   C2B11012  20.117  17.162   8.301
  607POPC   C3B11013  19.958  17.089   7.912
  607POPC   C4B11014  19.930  17.098   7.472
  608POPC   NC311015   7.050  10.725   9.511
  608POPC   PO411016   7.737  10.615   9.524
  608POPC   GL111017   7.622  10.543   9.120
  608POPC   GL211018   7.244  10.541   9.087
  608POPC   C1A11019   7.532  10.775   8.733
  608POPC   D2A11020   7.238  10.732   8.396
  608POPC   C3A11021   7.447  10.812   7.997
  608POPC   C4A11022   7.617  10.967   7.628
  608POPC   C1B11023   7.027  10.301   8.781
  608POPC   C2B11024   7.107  10.193   8.353
  608POPC   C3B11025   7.185  10.380   7.960
  608POPC   C4B11026   7.164  10.227   7.553
  609POPC   NC311027   5.666   2.911   9.381
  609POPC   PO411028   6.080   2.424   9.177
  609POPC   GL111029   5.891   2.718   8.943
  609POPC   GL211030   6.023   3.021   9.016
  609POPC   C1A11031   5.950   2.822   8.521
  609POPC   D2A11032   5.668   2.549   8.312
  609POPC   C3A11033   5.541   2.662   7.939
  609POPC   C4A11034   5.792   2.564   7.590
  609POPC   C1B11035   5.688   3.214   8.745
  609POPC   C2B11036   5.540   3.100   8.319
  609POPC   C3B11037   5.679   3.153   7.886
  609POPC   C4B11038   5.468   2.988   7.516
  610POPC   NC311039  18.777   4.199   9.496
  610POPC   PO411040  19.414   3.939   9.366
  610POPC   GL111041  19.184   4.229   9.109
  610POPC   GL211042  18.931   4.507   9.136
  610POPC   C1A11043  19.233   4.355   8.686
  610POPC   D2A11044  19.361   4.141   8.314
  610POPC   C3A11045  19.211   4.253   7.880
  610POPC   C4A11046  19.175   4.620   7.586
  610POPC   C1B11047  18.737   4.271   8.807
  610POPC   C2B11048  18.769   4.521   8.443
  610POPC   C3B11049  18.512   4.620   8.110
  610POPC   C4B11050  18.679   4.562   7.720
  611POPC   NC311051  41.764  36.391  10.009
  611POPC   PO411052  41.514  36.226   9.424
  611POPC   GL111053  41.715  36.030   9.125
  611POPC   GL211054  41.461  35.756   9.162
  611POPC   C1A11055  41.714  36.194   8.720
  611POPC   D2A11056  41.405  36.364   8.476
  611POPC   C3A11057  41.470  36.184   8.085
  611POPC   C4A11058  41.755  36.343   7.773
  611POPC   C1B11059  41.305  35.890   8.752
  611POPC   C2B11060  41.244  35.704   8.360
  611POPC   C3B11061  41.410  35.689   7.990
  611POPC   C4B11062  41.281  35.853   7.656
  612POPC   NC311063  13.315  12.056   9.528
  612POPC   PO411064  13.873  11.786   9.538
  612POPC   GL111065  13.692  11.984   9.180
  612POPC   GL211066  13.826  12.269   9.031
  612POPC   C1A11067  13.713  11.886   8.734
  612POPC   D2A11068  13.677  12.264   8.504
  612POPC   C3A11069  13.777  12.232   8.110
  612POPC   C4A11070  13.674  11.929   7.784
  612POPC   C1B11071  13.352  12.241   8.902
  612POPC   C2B11072  13.115  12.280   8.527
  612POPC   C3B11073  13.264  12.338   8.119
  612POPC   C4B11074  13.440  12.383   7.718
  613POPC   NC311075   4.719  32.285   9.660
  613POPC   PO411076   5.316  31.934   9.602
  613POPC   GL111077   5.078  32.106   9.249
  613POPC   GL211078   4.841  31.835   9.202
  613POPC   C1A11079   5.167  32.401   8.863
  613POPC   D2A11080   5.363  32.475   8.423
  613POPC   C3A11081   5.197  32.252   8.010
  613POPC   C4A11082   5.419  31.929   7.722
  613POPC   C1B11083   4.829  32.009   8.780
  613POPC   C2B11084   4.740  32.223   8.371
  613POPC   C3B11085   4.686  32.082   7.942
  613POPC   C4B11086   4.811  31.770   7.640
  614POPC   NC311087   5.585   0.300   9.590
  614POPC   PO411088   6.167   0.659   9.484
  614POPC   GL111089   5.888   0.524   9.194
  614POPC   GL211090   5.901   0.823   9.024
  614POPC   C1A11091   5.969   0.338   8.795
  614POPC   D2A11092   6.210   0.107   8.497
  614POPC   C3A11093   6.028   0.156   8.118
  614POPC   C4A11094   5.823   0.247   7.734
  614POPC   C1B11095   5.591   0.685   8.746
  614POPC   C2B11096   5.688   0.477   8.371
  614POPC   C3B11097   5.870   0.648   8.022
  614POPC   C4B11098   6.104   0.694   7.635
  615POPC   NC311099  20.677  32.415   9.582
  615POPC   PO411100  20.649  33.122   9.658
  615POPC   GL111101  20.691  33.084   9.207
  615POPC   GL211102  20.590  32.761   9.077
  615POPC   C1A11103  20.667  33.154   8.760
  615POPC   D2A11104  20.458  33.325   8.385
  615POPC   C3A11105  20.595  33.162   8.016
  615POPC   C4A11106  20.372  33.376   7.707
  615POPC   C1B11107  20.893  32.687   8.769
  615POPC   C2B11108  20.907  32.737   8.349
  615POPC   C3B11109  20.885  32.665   7.921
  615POPC   C4B11110  20.952  33.013   7.649
  616POPC   NC311111  34.120  27.117   9.929
  616POPC   PO411112  33.558  26.876   9.830
  616POPC   GL111113  33.617  27.060   9.381
  616POPC   GL211114  33.987  27.104   9.273
  616POPC   C1A11115  33.612  26.950   8.910
  616POPC   D2A11116  33.628  26.637   8.561
  616POPC   C3A11117  33.617  26.640   8.119
  616POPC   C4A11118  33.510  26.818   7.738
  616POPC   C1B11119  34.056  27.231   8.838
  616POPC   C2B11120  33.904  27.054   8.422
  616POPC   C3B11121  33.975  26.979   7.984
  616POPC   C4B11122  34.082  26.612   7.766
  617POPC   NC311123   3.571  30.333   9.693
  617POPC   PO411124   3.315  30.893   9.570
  617POPC   GL111125   3.553  30.877   9.215
  617POPC   GL211126   3.378  31.158   9.100
  617POPC   C1A11127   3.422  30.711   8.790
  617POPC   D2A11128   3.663  30.580   8.432
  617POPC   C3A11129   3.462  30.578   8.076
  617POPC   C4A11130   3.611  30.490   7.679
  617POPC   C1B11131   3.693  31.164   8.807
  617POPC   C2B11132   3.588  31.091   8.415
  617POPC   C3B11133   3.542  31.080   8.019
  617POPC   C4B11134   3.736  31.029   7.659
  618POPC   NC311135  21.068  39.808   9.575
  618POPC   PO411136  20.375  39.998   9.647
  618POPC   GL111137  20.609  40.044   9.249
  618POPC   GL211138  20.888  40.264   9.138
  618POPC   C1A11139  20.450  39.981   8.849
  618POPC   D2A11140  20.432  40.080   8.436
  618POPC   C3A11141  20.474  39.880   8.091
  618POPC   C4A11142  20.625  39.950   7.701
  618POPC   C1B11143  20.870  40.203   8.667
  618POPC   C2B11144  20.887  40.209   8.209
  618POPC   C3B11145  20.958  40.343   7.784
  618POPC   C4B11146  20.992  40.144   7.363
  619POPC   NC311147  41.094  37.735   9.599
  619POPC   PO411148  41.772  37.770   9.627
  619POPC   GL111149  41.667  37.821   9.208
  619POPC   GL211150  41.339  37.716   9.171
  619POPC   C1A11151  41.704  37.682   8.789
  619POPC   D2A11152  41.873  37.539   8.407
  619POPC   C3A11153  41.747  37.738   8.056
  619POPC   C4A11154  41.806  37.571   7.658
  619POPC   C1B11155  41.213  37.537   8.810
  619POPC   C2B11156  41.329  37.691   8.407
  619POPC   C3B11157  41.269  37.521   8.025
  619POPC   C4B11158  41.403  37.265   7.690
  620POPC   NC311159  10.645  25.864   9.460
  620POPC   PO411160  11.130  26.293   9.236
  620POPC   GL111161  10.715  26.230   9.022
  620POPC   GL211162  10.358  26.134   9.125
  620POPC   C1A11163  10.618  26.058   8.600
  620POPC   D2A11164  10.402  26.210   8.213
  620POPC   C3A11165  10.615  26.019   7.847
  620POPC   C4A11166  10.925  25.698   7.828
  620POPC   C1B11167  10.140  26.055   8.737
  620POPC   C2B11168  10.207  25.765   8.352
  620POPC   C3B11169  10.104  25.918   7.918
  620POPC   C4B11170   9.987  25.959   7.501
  621POPC   NC311171  30.455  32.903   9.526
  621POPC   PO411172  30.828  33.521   9.500
  621POPC   GL111173  30.851  33.288   9.114
  621POPC   GL211174  30.811  32.960   9.152
  621POPC   C1A11175  30.717  33.300   8.718
  621POPC   D2A11176  30.776  33.553   8.389
  621POPC   C3A11177  30.775  33.195   8.095
  621POPC   C4A11178  30.613  33.078   7.685
  621POPC   C1B11179  30.450  32.891   8.871
  621POPC   C2B11180  30.541  32.849   8.458
  621POPC   C3B11181  30.388  32.842   8.074
  621POPC   C4B11182  30.204  32.738   7.675
  622POPC   NC311183  28.110  31.911   9.621
  622POPC   PO411184  28.643  32.358   9.645
  622POPC   GL111185  28.402  32.277   9.247
  622POPC   GL211186  28.177  32.026   9.129
  622POPC   C1A11187  28.547  32.298   8.825
  622POPC   D2A11188  28.538  32.446   8.402
  622POPC   C3A11189  28.481  32.110   8.101
  622POPC   C4A11190  28.639  31.980   7.725
  622POPC   C1B11191  28.044  32.345   8.801
  622POPC   C2B11192  28.054  32.293   8.344
  622POPC   C3B11193  28.190  32.507   7.952
  622POPC   C4B11194  28.348  32.369   7.585
  623POPC   NC311195   0.341  29.540   9.604
  623POPC   PO411196   0.899  29.833   9.580
  623POPC   GL111197   0.651  29.686   9.215
  623POPC   GL211198   0.262  29.701   9.137
  623POPC   C1A11199   0.663  29.727   8.773
  623POPC   D2A11200   0.630  29.992   8.384
  623POPC   C3A11201   0.536  29.787   7.973
  623POPC   C4A11202   0.198  30.018   7.751
  623POPC   C1B11203   0.133  29.476   8.772
  623POPC   C2B11204   0.332  29.548   8.397
  623POPC   C3B11205   0.172  29.404   8.044
  623POPC   C4B11206   0.142  29.522   7.676
  624POPC   NC311207  17.628  36.414   9.520
  624POPC   PO411208  17.114  36.016   9.483
  624POPC   GL111209  17.274  36.001   9.077
  624POPC   GL211210  17.619  35.955   9.079
  624POPC   C1A11211  17.362  36.078   8.646
  624POPC   D2A11212  17.253  36.376   8.347
  624POPC   C3A11213  17.269  36.240   7.907
  624POPC   C4A11214  17.522  35.937   7.646
  624POPC   C1B11215  17.718  36.368   8.883
  624POPC   C2B11216  17.771  36.427   8.453
  624POPC   C3B11217  17.756  36.220   8.060
  624POPC   C4B11218  17.798  36.378   7.652
  625POPC   NC311219  35.009  18.030   9.502
  625POPC   PO411220  35.587  18.415   9.614
  625POPC   GL111221  35.559  18.337   9.187
  625POPC   GL211222  35.229  18.208   9.061
  625POPC   C1A11223  35.597  18.434   8.771
  625POPC   D2A11224  35.328  18.292   8.449
  625POPC   C3A11225  35.443  18.488   8.068
  625POPC   C4A11226  35.612  18.428   7.669
  625POPC   C1B11227  34.977  17.951   8.770
  625POPC   C2B11228  34.916  17.821   8.341
  625POPC   C3B11229  35.012  18.143   8.046
  625POPC   C4B11230  35.166  18.197   7.646
  626POPC   NC311231  19.434  41.805   9.414
  626POPC   PO411232  19.948  42.202   9.742
  626POPC   GL111233  20.118  42.118   9.347
  626POPC   GL211234  19.863  41.985   9.182
  626POPC   C1A11235  20.144  42.365   8.936
  626POPC   D2A11236  19.831  42.313   8.593
  626POPC   C3A11237  19.909  42.303   8.135
  626POPC   C4A11238  19.695  42.333   7.712
  626POPC   C1B11239  20.049  41.875   8.796
  626POPC   C2B11240  19.847  41.836   8.377
  626POPC   C3B11241  19.666  41.890   7.966
  626POPC   C4B11242  20.059  41.965   7.768
  627POPC   NC311243  23.595  25.168   9.429
  627POPC   PO411244  23.581  24.506   9.484
  627POPC   GL111245  23.553  24.415   9.071
  627POPC   GL211246  23.212  24.283   9.090
  627POPC   C1A11247  23.690  24.435   8.653
  627POPC   D2A11248  23.650  24.643   8.264
  627POPC   C3A11249  23.633  24.315   7.945
  627POPC   C4A11250  23.745  24.295   7.503
  627POPC   C1B11251  23.367  24.035   8.770
  627POPC   C2B11252  23.438  24.031   8.358
  627POPC   C3B11253  23.218  23.957   8.010
  627POPC   C4B11254  23.364  23.994   7.617
  628POPC   NC311255  42.473   7.049   9.260
  628POPC   PO411256  42.736   7.626   9.703
  628POPC   GL111257  42.489   7.642   9.288
  628POPC   GL211258  42.086   7.669   9.227
  628POPC   C1A11259  42.405   7.823   8.875
  628POPC   D2A11260  42.390   7.527   8.545
  628POPC   C3A11261  42.356   7.592   8.139
  628POPC   C4A11262  42.439   7.402   7.761
  628POPC   C1B11263  42.023   7.377   8.848
  628POPC   C2B11264  41.957   7.302   8.358
  628POPC   C3B11265  41.926   7.416   7.877
  628POPC   C4B11266  41.869   7.236   7.419
  629POPC   NC311267  19.386  41.349   9.966
  629POPC   PO411268  18.991  41.767   9.585
  629POPC   GL111269  19.063  41.561   9.179
  629POPC   GL211270  19.345  41.336   9.166
  629POPC   C1A11271  19.036  41.766   8.774
  629POPC   D2A11272  18.817  41.948   8.395
  629POPC   C3A11273  19.037  41.826   8.062
  629POPC   C4A11274  19.173  41.466   7.917
  629POPC   C1B11275  19.140  41.254   8.777
  629POPC   C2B11276  18.916  41.419   8.407
  629POPC   C3B11277  18.733  41.233   8.056
  629POPC   C4B11278  18.958  41.052   7.693
  630POPC   NC311279  14.538  38.591   9.630
  630POPC   PO411280  14.016  38.276   9.506
  630POPC   GL111281  14.441  38.283   9.232
  630POPC   GL211282  14.661  38.592   9.141
  630POPC   C1A11283  14.547  38.222   8.796
  630POPC   D2A11284  14.313  38.310   8.427
  630POPC   C3A11285  14.532  38.320   8.038
  630POPC   C4A11286  14.233  38.425   7.719
  630POPC   C1B11287  14.365  38.714   8.812
  630POPC   C2B11288  14.212  38.831   8.393
  630POPC   C3B11289  14.422  38.813   8.013
  630POPC   C4B11290  14.655  38.699   7.662
  631POPC   NC311291  21.375  18.352   9.481
  631POPC   PO411292  21.552  17.627   9.561
  631POPC   GL111293  21.643  18.001   9.200
  631POPC   GL211294  21.722  18.391   9.133
  631POPC   C1A11295  21.490  18.114   8.764
  631POPC   D2A11296  21.478  17.929   8.354
  631POPC   C3A11297  21.439  18.102   7.971
  631POPC   C4A11298  21.133  18.375   7.828
  631POPC   C1B11299  21.555  18.623   8.776
  631POPC   C2B11300  21.515  18.490   8.355
  631POPC   C3B11301  21.523  18.681   7.969
  631POPC   C4B11302  21.595  18.436   7.618
  632POPC   NC311303   3.292  37.903   9.503
  632POPC   PO411304   3.719  38.583   9.527
  632POPC   GL111305   3.443  38.382   9.227
  632POPC   GL211306   3.630  38.076   9.177
  632POPC   C1A11307   3.453  38.332   8.769
  632POPC   D2A11308   3.674  38.463   8.393
  632POPC   C3A11309   3.570  38.253   8.028
  632POPC   C4A11310   3.489  38.313   7.607
  632POPC   C1B11311   3.805  37.932   8.809
  632POPC   C2B11312   3.814  37.948   8.373
  632POPC   C3B11313   3.767  37.739   7.989
  632POPC   C4B11314   3.653  37.840   7.590
  633POPC   NC311315   4.474  27.780   9.563
  633POPC   PO411316   4.672  27.140   9.330
  633POPC   GL111317   4.497  27.508   9.121
  633POPC   GL211318   4.683  27.833   9.105
  633POPC   C1A11319   4.169  27.511   8.823
  633POPC   D2A11320   3.977  27.183   8.575
  633POPC   C3A11321   4.082  27.235   8.150
  633POPC   C4A11322   4.039  27.537   7.835
  633POPC   C1B11323   4.435  27.953   8.772
  633POPC   C2B11324   4.370  27.685   8.389
  633POPC   C3B11325   4.539  27.675   7.985
  633POPC   C4B11326   4.397  28.041   7.771
  634POPC   NC311327  35.589  26.927   9.561
  634POPC   PO411328  34.930  27.021   9.566
  634POPC   GL111329  35.231  26.987   9.185
  634POPC   GL211330  35.482  26.716   9.091
  634POPC   C1A11331  35.475  27.151   8.795
  634POPC   D2A11332  35.603  27.206   8.323
  634POPC   C3A11333  35.405  26.939   7.971
  634POPC   C4A11334  35.629  26.845   7.583
  634POPC   C1B11335  35.085  26.591   8.877
  634POPC   C2B11336  34.965  26.537   8.444
  634POPC   C3B11337  35.156  26.464   8.035
  634POPC   C4B11338  35.161  26.231   7.654
  635POPC   NC311339  25.891   0.165   9.413
  635POPC   PO411340  26.317   0.730   9.521
  635POPC   GL111341  26.123   0.537   9.140
  635POPC   GL211342  26.236   0.207   9.042
  635POPC   C1A11343  25.843   0.490   8.769
  635POPC   D2A11344  25.780   0.786   8.441
  635POPC   C3A11345  25.955   0.615   8.073
  635POPC   C4A11346  25.940   0.712   7.637
  635POPC   C1B11347  26.342   0.490   8.674
  635POPC   C2B11348  26.460   0.513   8.262
  635POPC   C3B11349  26.413   0.527   7.831
  635POPC   C4B11350  26.249   0.334   7.475
  636POPC   NC311351  28.190  26.964   9.497
  636POPC   PO411352  28.550  26.445   9.657
  636POPC   GL111353  28.638  26.597   9.214
  636POPC   GL211354  28.364  26.754   9.091
  636POPC   C1A11355  28.742  26.801   8.781
  636POPC   D2A11356  28.626  27.002   8.396
  636POPC   C3A11357  28.657  26.750   8.053
  636POPC   C4A11358  28.418  26.779   7.746
  636POPC   C1B11359  28.227  26.950   8.695
  636POPC   C2B11360  28.113  26.873   8.227
  636POPC   C3B11361  28.011  27.074   7.808
  636POPC   C4B11362  28.124  26.901   7.363
  637POPC   NC311363  12.699  11.564   9.523
  637POPC   PO411364  12.913  12.265   9.438
  637POPC   GL111365  12.954  11.899   9.156
  637POPC   GL211366  12.649  11.740   9.044
  637POPC   C1A11367  13.069  11.764   8.718
  637POPC   D2A11368  13.351  11.776   8.346
  637POPC   C3A11369  13.120  11.831   7.948
  637POPC   C4A11370  12.971  12.173   7.706
  637POPC   C1B11371  12.391  11.815   8.687
  637POPC   C2B11372  12.378  12.074   8.291
  637POPC   C3B11373  12.569  11.930   7.897
  637POPC   C4B11374  12.772  11.740   7.515
  638POPC   NC311375   2.531  37.906   9.489
  638POPC   PO411376   2.001  37.383   9.522
  638POPC   GL111377   2.069  37.710   9.234
  638POPC   GL211378   1.790  37.954   9.170
  638POPC   C1A11379   2.176  37.697   8.809
  638POPC   D2A11380   2.064  37.441   8.466
  638POPC   C3A11381   2.284  37.549   8.090
  638POPC   C4A11382   2.129  37.547   7.690
  638POPC   C1B11383   1.779  38.011   8.697
  638POPC   C2B11384   1.959  37.986   8.257
  638POPC   C3B11385   2.069  38.030   7.789
  638POPC   C4B11386   1.883  38.043   7.323
  639POPC   NC311387  23.170  17.476   9.609
  639POPC   PO411388  22.535  17.748   9.417
  639POPC   GL111389  22.964  17.662   9.149
  639POPC   GL211390  23.362  17.634   9.174
  639POPC   C1A11391  22.930  17.498   8.718
  639POPC   D2A11392  22.747  17.284   8.352
  639POPC   C3A11393  22.821  17.529   7.979
  639POPC   C4A11394  22.948  17.434   7.556
  639POPC   C1B11395  23.336  17.800   8.789
  639POPC   C2B11396  23.177  17.863   8.393
  639POPC   C3B11397  23.365  17.873   7.990
  639POPC   C4B11398  23.264  17.888   7.568
  640POPC   NC311399  15.648  42.642   9.565
  640POPC   PO411400  16.319  42.463   9.483
  640POPC   GL111401  16.094  42.511   9.140
  640POPC   GL211402  15.826  42.294   9.219
  640POPC   C1A11403  15.956  42.637   8.729
  640POPC   D2A11404  16.007  42.318   8.391
  640POPC   C3A11405  15.868  42.458   7.997
  640POPC   C4A11406  15.960  42.451   7.541
  640POPC   C1B11407  15.650  42.236   8.835
  640POPC   C2B11408  15.510  42.424   8.470
  640POPC   C3B11409  15.477  42.139   8.148
  640POPC   C4B11410  15.515  42.200   7.704
  641POPC   NC311411  25.853  34.620   9.568
  641POPC   PO411412  26.530  34.555   9.497
  641POPC   GL111413  26.168  34.701   9.173
  641POPC   GL211414  25.816  34.909   9.181
  641POPC   C1A11415  26.278  34.723   8.753
  641POPC   D2A11416  26.333  34.328   8.570
  641POPC   C3A11417  26.294  34.336   8.153
  641POPC   C4A11418  26.333  34.686   7.842
  641POPC   C1B11419  25.801  34.602   8.836
  641POPC   C2B11420  25.904  34.646   8.401
  641POPC   C3B11421  25.864  34.541   7.967
  641POPC   C4B11422  25.842  34.652   7.550
  642POPC   NC311423  29.592  26.990   9.691
  642POPC   PO411424  29.068  27.160   9.245
  642POPC   GL111425  29.136  26.690   9.134
  642POPC   GL211426  29.437  26.533   9.073
  642POPC   C1A11427  29.096  26.434   8.734
  642POPC   D2A11428  29.042  26.674   8.368
  642POPC   C3A11429  29.216  26.676   7.951
  642POPC   C4A11430  28.927  26.692   7.617
  642POPC   C1B11431  29.461  26.777   8.657
  642POPC   C2B11432  29.476  26.990   8.258
  642POPC   C3B11433  29.557  27.046   7.807
  642POPC   C4B11434  29.495  26.992   7.331
  643POPC   NC311435  37.942  17.400   9.582
  643POPC   PO411436  37.620  17.912   9.548
  643POPC   GL111437  37.688  17.628   9.190
  643POPC   GL211438  38.086  17.702   9.153
  643POPC   C1A11439  37.471  17.444   8.786
  643POPC   D2A11440  37.625  17.507   8.342
  643POPC   C3A11441  37.448  17.366   7.962
  643POPC   C4A11442  37.342  17.269   7.496
  643POPC   C1B11443  37.879  17.747   8.739
  643POPC   C2B11444  37.733  18.007   8.396
  643POPC   C3B11445  37.831  17.859   8.012
  643POPC   C4B11446  37.676  17.659   7.637
  644POPC   NC311447   0.088  39.064   9.416
  644POPC   PO411448   0.519  39.606   9.513
  644POPC   GL111449   0.371  39.464   9.130
  644POPC   GL211450   0.046  39.488   9.078
  644POPC   C1A11451   0.352  39.240   8.750
  644POPC   D2A11452   0.545  39.404   8.387
  644POPC   C3A11453   0.500  39.202   8.042
  644POPC   C4A11454   0.609  39.298   7.659
  644POPC   C1B11455  44.905  39.484   8.646
  644POPC   C2B11456   0.067  39.555   8.233
  644POPC   C3B11457   0.078  39.350   7.808
  644POPC   C4B11458  44.879  39.391   7.403
  645POPC   NC311459   7.750  17.670   9.901
  645POPC   PO411460   7.224  17.788   9.521
  645POPC   GL111461   7.324  17.564   9.166
  645POPC   GL211462   7.409  17.223   9.195
  645POPC   C1A11463   7.386  17.625   8.743
  645POPC   D2A11464   7.641  17.548   8.419
  645POPC   C3A11465   7.454  17.500   8.062
  645POPC   C4A11466   7.492  17.663   7.695
  645POPC   C1B11467   7.123  17.203   8.861
  645POPC   C2B11468   7.188  17.235   8.438
  645POPC   C3B11469   7.077  17.119   8.039
  645POPC   C4B11470   7.093  17.359   7.660
  646POPC   NC311471   1.448  31.013   9.182
  646POPC   PO411472   0.948  30.726   9.552
  646POPC   GL111473   1.165  30.582   9.151
  646POPC   GL211474   1.470  30.359   9.218
  646POPC   C1A11475   1.166  30.693   8.683
  646POPC   D2A11476   1.263  30.908   8.309
  646POPC   C3A11477   0.999  30.907   7.948
  646POPC   C4A11478   0.961  30.642   7.579
  646POPC   C1B11479   1.646  30.479   8.802
  646POPC   C2B11480   1.581  30.435   8.350
  646POPC   C3B11481   1.319  30.470   7.961
  646POPC   C4B11482   1.268  30.211   7.576
  647POPC   NC311483  41.743  34.864   9.473
  647POPC   PO411484  41.921  34.293   9.477
  647POPC   GL111485  41.707  34.429   9.144
  647POPC   GL211486  41.368  34.539   9.241
  647POPC   C1A11487  41.680  34.685   8.807
  647POPC   D2A11488  41.451  34.690   8.424
  647POPC   C3A11489  41.667  34.732   8.031
  647POPC   C4A11490  41.599  34.487   7.644
  647POPC   C1B11491  41.252  34.385   8.837
  647POPC   C2B11492  41.165  34.250   8.434
  647POPC   C3B11493  41.334  34.330   8.053
  647POPC   C4B11494  41.345  34.048   7.686
  648POPC   NC311495  24.821  12.523   9.477
  648POPC   PO411496  24.261  12.890   9.509
  648POPC   GL111497  24.221  12.935   9.105
  648POPC   GL211498  24.528  12.731   9.059
  648POPC   C1A11499  24.366  13.134   8.743
  648POPC   D2A11500  24.625  13.168   8.379
  648POPC   C3A11501  24.452  12.915   8.017
  648POPC   C4A11502  24.586  12.518   7.829
  648POPC   C1B11503  24.270  12.627   8.690
  648POPC   C2B11504  24.337  12.455   8.271
  648POPC   C3B11505  24.093  12.491   7.893
  648POPC   C4B11506  24.230  12.692   7.503
  649POPC   NC311507  15.031  26.698   9.817
  649POPC   PO411508  15.250  27.116   9.322
  649POPC   GL111509  15.154  26.903   8.951
  649POPC   GL211510  15.468  26.760   8.874
  649POPC   C1A11511  15.065  26.804   8.518
  649POPC   D2A11512  15.232  26.988   8.175
  649POPC   C3A11513  14.953  27.055   7.858
  649POPC   C4A11514  15.138  27.044   7.421
  649POPC   C1B11515  15.567  26.352   8.689
  649POPC   C2B11516  15.476  26.182   8.302
  649POPC   C3B11517  15.256  26.474   8.106
  649POPC   C4B11518  15.284  26.682   7.732
  650POPC   NC311519   9.179   3.687   9.655
  650POPC   PO411520   9.216   2.981   9.666
  650POPC   GL111521   9.113   3.351   9.281
  650POPC   GL211522   9.004   3.756   9.194
  650POPC   C1A11523   9.241   3.478   8.834
  650POPC   D2A11524   9.034   3.533   8.429
  650POPC   C3A11525   9.120   3.384   8.038
  650POPC   C4A11526   9.157   3.649   7.692
  650POPC   C1B11527   8.710   3.682   8.864
  650POPC   C2B11528   8.500   3.533   8.489
  650POPC   C3B11529   8.623   3.516   8.080
  650POPC   C4B11530   8.650   3.652   7.684
  651POPC   NC311531  37.171   1.521   9.526
  651POPC   PO411532  36.722   1.116   9.335
  651POPC   GL111533  36.938   1.064   9.047
  651POPC   GL211534  37.212   1.139   9.189
  651POPC   C1A11535  36.785   1.234   8.695
  651POPC   D2A11536  36.450   1.334   8.460
  651POPC   C3A11537  36.737   1.232   8.145
  651POPC   C4A11538  36.808   1.304   7.748
  651POPC   C1B11539  37.321   1.254   8.776
  651POPC   C2B11540  37.183   1.415   8.407
  651POPC   C3B11541  37.289   1.311   8.001
  651POPC   C4B11542  37.238   1.066   7.622
  652POPC   NC311543  37.466  28.571   9.659
  652POPC   PO411544  37.979  28.210   9.395
  652POPC   GL111545  37.725  28.436   9.146
  652POPC   GL211546  37.399  28.473   9.169
  652POPC   C1A11547  37.669  28.555   8.758
  652POPC   D2A11548  37.682  28.322   8.433
  652POPC   C3A11549  37.606  28.603   8.116
  652POPC   C4A11550  37.656  28.332   7.780
  652POPC   C1B11551  37.228  28.190   8.866
  652POPC   C2B11552  37.158  28.025   8.489
  652POPC   C3B11553  37.292  28.175   8.122
  652POPC   C4B11554  37.106  28.142   7.749
  653POPC   NC311555  44.380  27.324   9.537
  653POPC   PO411556  44.950  27.712   9.530
  653POPC   GL111557  44.815  27.765   9.138
  653POPC   GL211558  44.484  27.677   9.145
  653POPC   C1A11559  44.782  27.886   8.728
  653POPC   D2A11560  44.823  27.676   8.345
  653POPC   C3A11561  44.731  27.821   7.953
  653POPC   C4A11562   0.071  27.743   7.670
  653POPC   C1B11563  44.643  27.398   8.779
  653POPC   C2B11564  44.607  27.199   8.376
  653POPC   C3B11565  44.604  27.313   7.950
  653POPC   C4B11566  44.449  27.263   7.536
  654POPC   NC311567  25.602  12.682   9.522
  654POPC   PO411568  25.028  12.970   9.456
  654POPC   GL111569  25.363  12.955   9.147
  654POPC   GL211570  25.462  12.632   9.025
  654POPC   C1A11571  25.439  13.116   8.766
  654POPC   D2A11572  25.413  12.901   8.380
  654POPC   C3A11573  25.280  13.164   8.050
  654POPC   C4A11574  25.523  13.317   7.717
  654POPC   C1B11575  25.032  12.610   8.863
  654POPC   C2B11576  24.769  12.651   8.497
  654POPC   C3B11577  24.982  12.678   8.106
  654POPC   C4B11578  24.965  12.901   7.727
  655POPC   NC311579   0.633  18.866   9.290
  655POPC   PO411580   0.421  18.345   9.696
  655POPC   GL111581   0.324  18.181   9.261
  655POPC   GL211582   0.030  18.363   9.251
  655POPC   C1A11583   0.531  18.083   8.850
  655POPC   D2A11584   0.839  18.282   8.537
  655POPC   C3A11585   0.702  18.304   8.094
  655POPC   C4A11586   0.618  18.010   7.738
  655POPC   C1B11587   0.102  18.443   8.811
  655POPC   C2B11588   0.307  18.314   8.436
  655POPC   C3B11589   0.229  18.120   8.043
  655POPC   C4B11590   0.094  18.178   7.630
  656POPC   NC311591  44.267  17.294   9.606
  656POPC   PO411592  43.820  17.789   9.520
  656POPC   GL111593  43.851  17.468   9.266
  656POPC   GL211594  44.184  17.600   9.181
  656POPC   C1A11595  43.881  17.416   8.821
  656POPC   D2A11596  44.016  17.581   8.436
  656POPC   C3A11597  43.730  17.594   8.099
  656POPC   C4A11598  43.729  17.462   7.713
  656POPC   C1B11599  44.353  17.266   8.882
  656POPC   C2B11600  44.356  17.194   8.459
  656POPC   C3B11601  44.072  17.185   8.094
  656POPC   C4B11602  44.224  17.227   7.699
  657POPC   NC311603  33.699  37.238   9.498
  657POPC   PO411604  34.259  36.930   9.466
  657POPC   GL111605  34.012  36.661   9.174
  657POPC   GL211606  33.670  36.800   9.194
  657POPC   C1A11607  33.927  36.736   8.719
  657POPC   D2A11608  33.656  36.937   8.388
  657POPC   C3A11609  33.870  37.025   8.000
  657POPC   C4A11610  34.108  36.839   7.655
  657POPC   C1B11611  33.440  37.050   8.855
  657POPC   C2B11612  33.478  37.392   8.544
  657POPC   C3B11613  33.447  37.372   8.086
  657POPC   C4B11614  33.664  37.361   7.683
  658POPC   NC311615  16.729   6.952   9.344
  658POPC   PO411616  16.647   7.496   9.728
  658POPC   GL111617  16.590   7.485   9.258
  658POPC   GL211618  16.784   7.318   9.026
  658POPC   C1A11619  16.509   7.710   8.843
  658POPC   D2A11620  16.678   7.966   8.472
  658POPC   C3A11621  16.520   7.815   8.064
  658POPC   C4A11622  16.636   7.762   7.610
  658POPC   C1B11623  16.664   7.224   8.640
  658POPC   C2B11624  16.505   7.348   8.275
  658POPC   C3B11625  16.685   7.310   7.879
  658POPC   C4B11626  16.863   7.061   7.549
  659POPC   NC311627  15.628  44.958   9.472
  659POPC   PO411628  16.263   0.156   9.519
  659POPC   GL111629  16.017   0.317   9.190
  659POPC   GL211630  15.951   0.005   9.093
  659POPC   C1A11631  15.934   0.465   8.789
  659POPC   D2A11632  16.055   0.707   8.423
  659POPC   C3A11633  15.889   0.571   8.028
  659POPC   C4A11634  15.847   0.819   7.670
  659POPC   C1B11635  16.279   0.058   8.818
  659POPC   C2B11636  16.221   0.204   8.404
  659POPC   C3B11637  16.323   0.237   7.974
  659POPC   C4B11638  16.050   0.261   7.626
  660POPC   NC311639  11.815  20.317   9.422
  660POPC   PO411640  11.856  19.631   9.333
  660POPC   GL111641  12.192  19.837   9.134
  660POPC   GL211642  12.147  20.164   9.078
  660POPC   C1A11643  12.404  19.708   8.768
  660POPC   D2A11644  12.175  19.514   8.441
  660POPC   C3A11645  12.176  19.718   8.049
  660POPC   C4A11646  11.813  19.735   7.791
  660POPC   C1B11647  11.946  19.943   8.703
  660POPC   C2B11648  11.795  20.072   8.302
  660POPC   C3B11649  11.868  20.235   7.888
  660POPC   C4B11650  11.764  20.131   7.452
  661POPC   NC311651  21.968  38.623   9.403
  661POPC   PO411652  22.329  38.114   9.686
  661POPC   GL111653  22.292  38.258   9.251
  661POPC   GL211654  22.396  38.601   9.142
  661POPC   C1A11655  22.090  38.316   8.829
  661POPC   D2A11656  22.153  38.168   8.421
  661POPC   C3A11657  22.021  38.484   8.134
  661POPC   C4A11658  22.047  38.426   7.706
  661POPC   C1B11659  22.568  38.715   8.748
  661POPC   C2B11660  22.532  38.579   8.332
  661POPC   C3B11661  22.436  38.702   7.915
  661POPC   C4B11662  22.452  38.766   7.443
  662POPC   NC311663  32.721  31.803   9.484
  662POPC   PO411664  32.161  31.518   9.661
  662POPC   GL111665  32.468  31.442   9.265
  662POPC   GL211666  32.458  31.731   9.041
  662POPC   C1A11667  32.588  31.245   8.844
  662POPC   D2A11668  32.587  31.396   8.405
  662POPC   C3A11669  32.256  31.308   8.098
  662POPC   C4A11670  32.296  31.156   7.694
  662POPC   C1B11671  32.777  31.866   8.726
  662POPC   C2B11672  32.820  31.844   8.285
  662POPC   C3B11673  32.462  31.796   8.037
  662POPC   C4B11674  32.388  31.648   7.655
  663POPC   NC311675  12.266  12.575   9.725
  663POPC   PO411676  11.740  13.029   9.555
  663POPC   GL111677  11.868  12.757   9.211
  663POPC   GL211678  12.223  12.644   9.222
  663POPC   C1A11679  11.810  12.952   8.836
  663POPC   D2A11680  11.679  13.082   8.469
  663POPC   C3A11681  11.903  13.086   8.069
  663POPC   C4A11682  12.035  12.897   7.689
  663POPC   C1B11683  12.298  12.782   8.840
  663POPC   C2B11684  12.141  12.805   8.444
  663POPC   C3B11685  12.376  12.813   8.075
  663POPC   C4B11686  12.527  12.810   7.663
  664POPC   NC311687  20.051  27.781   9.544
  664POPC   PO411688  19.661  27.218   9.471
  664POPC   GL111689  19.943  27.409   9.199
  664POPC   GL211690  19.705  27.664   9.168
  664POPC   C1A11691  20.046  27.632   8.796
  664POPC   D2A11692  19.917  27.804   8.421
  664POPC   C3A11693  20.069  27.707   8.061
  664POPC   C4A11694  19.803  27.588   7.749
  664POPC   C1B11695  19.550  27.851   8.821
  664POPC   C2B11696  19.406  27.919   8.441
  664POPC   C3B11697  19.581  27.961   8.045
  664POPC   C4B11698  19.608  28.042   7.621
  665POPC   NC311699   6.784  39.101   9.426
  665POPC   PO411700   6.729  39.782   9.588
  665POPC   GL111701   6.730  39.548   9.173
  665POPC   GL211702   7.035  39.573   8.985
  665POPC   C1A11703   6.651  39.293   8.799
  665POPC   D2A11704   6.576  39.361   8.392
  665POPC   C3A11705   6.776  39.191   8.053
  665POPC   C4A11706   6.616  38.929   7.756
  665POPC   C1B11707   7.122  39.100   8.849
  665POPC   C2B11708   6.959  38.868   8.495
  665POPC   C3B11709   7.094  38.759   8.083
  665POPC   C4B11710   7.136  38.983   7.715
  666POPC   NC311711   0.182  35.906   9.517
  666POPC   PO411712   0.585  36.392   9.502
  666POPC   GL111713   0.526  36.084   9.186
  666POPC   GL211714   0.226  36.209   9.093
  666POPC   C1A11715   0.753  35.970   8.828
  666POPC   D2A11716   0.671  36.129   8.421
  666POPC   C3A11717   0.386  35.999   8.088
  666POPC   C4A11718   0.463  35.921   7.661
  666POPC   C1B11719   0.241  36.032   8.699
  666POPC   C2B11720   0.119  36.312   8.395
  666POPC   C3B11721  44.968  36.403   8.020
  666POPC   C4B11722  44.994  36.160   7.690
  667POPC   NC311723  19.013  16.478   9.514
  667POPC   PO411724  19.615  16.761   9.510
  667POPC   GL111725  19.348  16.900   9.170
  667POPC   GL211726  19.084  16.669   9.068
  667POPC   C1A11727  19.382  16.836   8.732
  667POPC   D2A11728  19.166  16.577   8.481
  667POPC   C3A11729  19.333  16.664   8.109
  667POPC   C4A11730  19.483  16.417   7.792
  667POPC   C1B11731  18.793  16.463   8.803
  667POPC   C2B11732  18.620  16.605   8.435
  667POPC   C3B11733  18.796  16.674   8.019
  667POPC   C4B11734  18.721  16.559   7.556
  668POPC   NC311735  30.758  20.364   9.575
  668POPC   PO411736  30.653  19.706   9.480
  668POPC   GL111737  30.599  19.729   9.101
  668POPC   GL211738  30.888  19.950   9.094
  668POPC   C1A11739  30.586  19.460   8.778
  668POPC   D2A11740  30.846  19.504   8.427
  668POPC   C3A11741  30.748  19.789   8.137
  668POPC   C4A11742  30.522  19.738   7.768
  668POPC   C1B11743  30.850  19.959   8.683
  668POPC   C2B11744  30.845  20.276   8.370
  668POPC   C3B11745  31.001  20.295   7.978
  668POPC   C4B11746  30.810  20.415   7.598
  669POPC   NC311747  23.159  41.756   9.479
  669POPC   PO411748  23.120  41.180   9.240
  669POPC   GL111749  22.857  41.562   9.126
  669POPC   GL211750  22.667  41.873   9.276
  669POPC   C1A11751  23.023  41.804   8.780
  669POPC   D2A11752  22.988  41.593   8.366
  669POPC   C3A11753  23.049  41.823   7.980
  669POPC   C4A11754  23.397  41.893   7.730
  669POPC   C1B11755  22.532  41.787   8.821
  669POPC   C2B11756  22.618  41.933   8.445
  669POPC   C3B11757  22.546  41.775   8.053
  669POPC   C4B11758  22.549  41.942   7.696
  670POPC   NC311759   1.857  40.131   9.581
  670POPC   PO411760   1.920  39.514   9.701
  670POPC   GL111761   1.913  39.691   9.251
  670POPC   GL211762   1.613  39.876   9.188
  670POPC   C1A11763   2.068  39.859   8.823
  670POPC   D2A11764   2.316  39.881   8.430
  670POPC   C3A11765   2.129  40.044   8.069
  670POPC   C4A11766   2.071  39.939   7.652
  670POPC   C1B11767   1.529  39.828   8.761
  670POPC   C2B11768   1.738  39.834   8.353
  670POPC   C3B11769   1.669  39.797   7.907
  670POPC   C4B11770   1.631  39.751   7.440
  671POPC   NC311771  35.886  38.828   9.344
  671POPC   PO411772  35.743  39.382   9.668
  671POPC   GL111773  35.886  39.368   9.242
  671POPC   GL211774  35.599  39.212   9.137
  671POPC   C1A11775  36.096  39.519   8.831
  671POPC   D2A11776  36.450  39.387   8.566
  671POPC   C3A11777  36.445  39.402   8.122
  671POPC   C4A11778  36.514  39.035   7.853
  671POPC   C1B11779  35.846  39.070   8.751
  671POPC   C2B11780  36.008  39.179   8.325
  671POPC   C3B11781  36.041  39.187   7.868
  671POPC   C4B11782  35.838  39.363   7.551
  672POPC   NC311783  44.091  38.189   9.155
  672POPC   PO411784  43.773  38.575   9.662
  672POPC   GL111785  43.970  38.672   9.178
  672POPC   GL211786  43.836  38.517   8.821
  672POPC   C1A11787  44.198  38.847   8.801
  672POPC   D2A11788  44.162  38.546   8.422
  672POPC   C3A11789  44.103  38.684   8.005
  672POPC   C4A11790  44.135  38.525   7.543
  672POPC   C1B11791  43.610  38.198   8.569
  672POPC   C2B11792  43.601  38.094   8.138
  672POPC   C3B11793  43.776  38.300   7.850
  672POPC   C4B11794  43.653  38.702   7.766
  673POPC   NC311795  14.946   8.523   9.574
  673POPC   PO411796  14.975   7.844   9.653
  673POPC   GL111797  14.881   7.914   9.212
  673POPC   GL211798  15.110   8.205   9.180
  673POPC   C1A11799  15.019   7.928   8.758
  673POPC   D2A11800  15.221   7.992   8.359
  673POPC   C3A11801  15.002   7.949   7.981
  673POPC   C4A11802  14.790   8.179   7.683
  673POPC   C1B11803  15.311   8.369   8.776
  673POPC   C2B11804  15.297   8.539   8.328
  673POPC   C3B11805  15.256   8.398   7.935
  673POPC   C4B11806  15.540   8.057   7.895
  674POPC   NC311807  16.530  23.546   9.743
  674POPC   PO411808  16.465  23.445   9.137
  674POPC   GL111809  16.515  23.725   8.827
  674POPC   GL211810  16.754  23.906   8.982
  674POPC   C1A11811  16.764  23.890   8.485
  674POPC   D2A11812  16.931  23.597   8.257
  674POPC   C3A11813  16.649  23.634   7.944
  674POPC   C4A11814  16.954  23.715   7.700
  674POPC   C1B11815  16.487  24.239   8.766
  674POPC   C2B11816  16.423  24.271   8.320
  674POPC   C3B11817  16.707  24.143   7.968
  674POPC   C4B11818  16.594  24.035   7.552
  675POPC   NC311819  27.719  13.761   9.514
  675POPC   PO411820  27.470  13.098   9.504
  675POPC   GL111821  27.572  13.388   9.140
  675POPC   GL211822  27.840  13.667   9.039
  675POPC   C1A11823  27.280  13.588   8.831
  675POPC   D2A11824  27.257  13.809   8.447
  675POPC   C3A11825  27.438  13.602   8.094
  675POPC   C4A11826  27.614  13.834   7.752
  675POPC   C1B11827  27.748  13.693   8.608
  675POPC   C2B11828  27.873  13.385   8.307
  675POPC   C3B11829  28.030  13.428   7.911
  675POPC   C4B11830  28.043  13.704   7.545
  676POPC   NC311831  14.749  12.802   9.414
  676POPC   PO411832  15.388  12.914   9.329
  676POPC   GL111833  15.090  12.916   9.055
  676POPC   GL211834  15.005  13.250   9.077
  676POPC   C1A11835  15.095  12.827   8.673
  676POPC   D2A11836  14.971  12.997   8.354
  676POPC   C3A11837  15.127  12.682   8.092
  676POPC   C4A11838  14.939  12.467   7.773
  676POPC   C1B11839  15.302  13.290   8.700
  676POPC   C2B11840  15.473  13.060   8.331
  676POPC   C3B11841  15.237  13.158   7.943
  676POPC   C4B11842  15.291  13.394   7.529
  677POPC   NC311843  27.180  16.961   9.507
  677POPC   PO411844  27.753  17.075   9.552
  677POPC   GL111845  27.554  16.893   9.169
  677POPC   GL211846  27.526  16.536   9.174
  677POPC   C1A11847  27.344  16.827   8.778
  677POPC   D2A11848  27.442  16.497   8.480
  677POPC   C3A11849  27.462  16.675   8.084
  677POPC   C4A11850  27.351  16.918   7.785
  677POPC   C1B11851  27.309  16.211   8.896
  677POPC   C2B11852  27.068  16.133   8.476
  677POPC   C3B11853  27.228  16.191   8.073
  677POPC   C4B11854  27.375  16.277   7.666
  678POPC   NC311855  20.588  41.110   9.895
  678POPC   PO411856  20.571  41.830   9.595
  678POPC   GL111857  20.670  41.576   9.239
  678POPC   GL211858  20.575  41.250   9.342
  678POPC   C1A11859  20.555  41.651   8.806
  678POPC   D2A11860  20.345  41.701   8.414
  678POPC   C3A11861  20.569  41.681   8.036
  678POPC   C4A11862  20.384  41.609   7.635
  678POPC   C1B11863  20.605  41.144   8.902
  678POPC   C2B11864  20.502  41.213   8.455
  678POPC   C3B11865  20.704  41.200   8.039
  678POPC   C4B11866  20.778  41.300   7.606
  679POPC   NC311867  23.076  31.959   9.440
  679POPC   PO411868  22.389  31.854   9.471
  679POPC   GL111869  22.644  32.054   9.128
  679POPC   GL211870  22.671  32.412   9.127
  679POPC   C1A11871  22.831  32.195   8.694
  679POPC   D2A11872  23.178  32.347   8.385
  679POPC   C3A11873  23.106  32.448   7.925
  679POPC   C4A11874  23.045  32.063   7.648
  679POPC   C1B11875  22.357  32.406   8.792
  679POPC   C2B11876  22.350  32.216   8.388
  679POPC   C3B11877  22.631  32.273   8.040
  679POPC   C4B11878  22.703  32.456   7.596
  680POPC   NC311879  16.706   7.926   9.570
  680POPC   PO411880  17.005   8.527   9.578
  680POPC   GL111881  16.787   8.326   9.251
  680POPC   GL211882  17.019   8.080   9.163
  680POPC   C1A11883  16.534   8.261   8.880
  680POPC   D2A11884  16.275   8.326   8.498
  680POPC   C3A11885  16.489   8.331   8.083
  680POPC   C4A11886  16.560   8.261   7.651
  680POPC   C1B11887  17.043   8.329   8.791
  680POPC   C2B11888  16.918   8.453   8.371
  680POPC   C3B11889  16.988   8.481   7.927
  680POPC   C4B11890  17.367   8.475   7.674
  681POPC   NC311891   9.125   6.363   9.519
  681POPC   PO411892   8.749   5.735   9.442
  681POPC   GL111893   8.846   5.658   9.037
  681POPC   GL211894   8.512   5.619   8.995
  681POPC   C1A11895   9.158   5.627   8.717
  681POPC   D2A11896   9.344   5.911   8.445
  681POPC   C3A11897   9.270   5.766   8.045
  681POPC   C4A11898   9.083   5.886   7.678
  681POPC   C1B11899   8.604   5.979   8.737
  681POPC   C2B11900   8.830   5.898   8.377
  681POPC   C3B11901   8.671   5.822   7.989
  681POPC   C4B11902   8.626   6.153   7.716
  682POPC   NC311903  31.146  42.349   9.781
  682POPC   PO411904  30.674  42.010   9.492
  682POPC   GL111905  30.755  42.352   9.176
  682POPC   GL211906  31.066  42.569   9.191
  682POPC   C1A11907  30.900  42.266   8.739
  682POPC   D2A11908  30.979  42.156   8.277
  682POPC   C3A11909  30.670  42.199   7.927
  682POPC   C4A11910  30.363  42.410   7.678
  682POPC   C1B11911  30.794  42.755   8.843
  682POPC   C2B11912  30.720  42.633   8.434
  682POPC   C3B11913  30.904  42.633   8.064
  682POPC   C4B11914  30.766  42.763   7.699
  683POPC   NC311915  30.516  15.879   9.556
  683POPC   PO411916  31.109  15.650   9.314
  683POPC   GL111917  30.772  15.855   9.121
  683POPC   GL211918  30.562  15.565   9.083
  683POPC   C1A11919  30.574  16.083   8.785
  683POPC   D2A11920  30.510  16.063   8.349
  683POPC   C3A11921  30.784  16.054   8.002
  683POPC   C4A11922  30.517  15.823   7.781
  683POPC   C1B11923  30.791  15.628   8.654
  683POPC   C2B11924  30.782  15.564   8.191
  683POPC   C3B11925  31.007  15.610   7.802
  683POPC   C4B11926  31.078  15.489   7.367
  684POPC   NC311927  27.053  43.892  10.042
  684POPC   PO411928  26.908  43.610   9.453
  684POPC   GL111929  26.829  44.036   9.258
  684POPC   GL211930  26.527  44.261   9.288
  684POPC   C1A11931  26.965  44.150   8.842
  684POPC   D2A11932  26.768  44.008   8.426
  684POPC   C3A11933  26.947  43.873   8.009
  684POPC   C4A11934  26.908  43.873   7.541
  684POPC   C1B11935  26.504  44.321   8.814
  684POPC   C2B11936  26.441  44.396   8.339
  684POPC   C3B11937  26.572  44.212   7.910
  684POPC   C4B11938  26.525  44.216   7.448
  685POPC   NC311939  23.180  28.530   9.580
  685POPC   PO411940  22.651  28.173   9.555
  685POPC   GL111941  22.776  28.391   9.179
  685POPC   GL211942  23.105  28.302   9.147
  685POPC   C1A11943  22.845  28.487   8.738
  685POPC   D2A11944  23.072  28.566   8.358
  685POPC   C3A11945  22.852  28.445   8.017
  685POPC   C4A11946  22.748  28.517   7.621
  685POPC   C1B11947  23.320  28.293   8.782
  685POPC   C2B11948  23.457  28.233   8.387
  685POPC   C3B11949  23.272  28.139   8.003
  685POPC   C4B11950  23.369  28.031   7.590
  686POPC   NC311951  19.702  39.976   9.521
  686POPC   PO411952  19.581  40.523   9.339
  686POPC   GL111953  19.666  40.181   9.071
  686POPC   GL211954  20.034  40.105   9.133
  686POPC   C1A11955  19.495  39.862   8.814
  686POPC   D2A11956  19.488  40.074   8.432
  686POPC   C3A11957  19.542  39.869   8.064
  686POPC   C4A11958  19.650  40.048   7.690
  686POPC   C1B11959  19.964  39.980   8.681
  686POPC   C2B11960  20.062  39.683   8.356
  686POPC   C3B11961  20.028  39.730   7.913
  686POPC   C4B11962  20.148  40.092   7.689
  687POPC   NC311963  32.716  42.535   9.494
  687POPC   PO411964  33.041  41.962   9.569
  687POPC   GL111965  32.884  42.111   9.197
  687POPC   GL211966  33.075  42.410   9.121
  687POPC   C1A11967  32.919  42.121   8.748
  687POPC   D2A11968  32.772  42.107   8.336
  687POPC   C3A11969  33.012  42.025   7.953
  687POPC   C4A11970  32.870  42.143   7.537
  687POPC   C1B11971  33.109  42.620   8.689
  687POPC   C2B11972  32.990  42.585   8.238
  687POPC   C3B11973  33.120  42.502   7.811
  687POPC   C4B11974  33.450  42.600   7.451
  688POPC   NC311975  35.377  33.429   9.747
  688POPC   PO411976  35.495  34.100   9.551
  688POPC   GL111977  35.312  34.036   9.092
  688POPC   GL211978  35.568  33.812   8.958
  688POPC   C1A11979  35.204  33.954   8.622
  688POPC   D2A11980  35.254  33.985   8.166
  688POPC   C3A11981  34.915  33.947   7.879
  688POPC   C4A11982  34.913  33.587   7.586
  688POPC   C1B11983  35.746  33.749   8.587
  688POPC   C2B11984  35.764  33.817   8.147
  688POPC   C3B11985  35.687  33.609   7.785
  688POPC   C4B11986  35.357  33.850   7.656
  689POPC   NC311987  37.243  20.916   9.514
  689POPC   PO411988  37.900  21.140   9.581
  689POPC   GL111989  37.845  21.143   9.154
  689POPC   GL211990  37.534  21.209   9.195
  689POPC   C1A11991  37.804  21.174   8.680
  689POPC   D2A11992  37.932  21.517   8.398
  689POPC   C3A11993  37.856  21.521   7.968
  689POPC   C4A11994  37.731  21.139   7.740
  689POPC   C1B11995  37.331  21.174   8.861
  689POPC   C2B11996  37.326  21.305   8.451
  689POPC   C3B11997  37.358  21.091   8.085
  689POPC   C4B11998  37.179  21.091   7.694
  690POPC   NC311999  32.266  23.988   9.635
  690POPC   PO412000  32.587  23.463   9.414
  690POPC   GL112001  32.300  23.738   9.148
  690POPC   GL212002  31.945  23.727   9.107
  690POPC   C1A12003  32.289  23.881   8.730
  690POPC   D2A12004  32.383  23.659   8.337
  690POPC   C3A12005  32.223  23.821   7.929
  690POPC   C4A12006  32.241  23.802   7.474
  690POPC   C1B12007  31.967  23.489   8.662
  690POPC   C2B12008  31.979  23.327   8.196
  690POPC   C3B12009  31.930  23.435   7.744
  690POPC   C4B12010  31.721  23.841   7.591
  691POPC   NC312011  27.464  30.046   9.671
  691POPC   PO412012  27.498  29.456   9.364
  691POPC   GL112013  27.729  29.677   9.035
  691POPC   GL212014  27.692  29.998   9.188
  691POPC   C1A12015  27.976  29.446   8.741
  691POPC   D2A12016  27.772  29.400   8.351
  691POPC   C3A12017  27.592  29.756   8.128
  691POPC   C4A12018  27.286  29.747   7.805
  691POPC   C1B12019  27.797  30.135   8.753
  691POPC   C2B12020  27.712  30.237   8.305
  691POPC   C3B12021  27.918  30.135   7.926
  691POPC   C4B12022  27.985  30.160   7.487
  692POPC   NC312023  23.063  44.502   9.469
  692POPC   PO412024  22.425  44.669   9.576
  692POPC   GL112025  22.624  44.587   9.129
  692POPC   GL212026  22.975  44.522   8.980
  692POPC   C1A12027  22.600  44.500   8.667
  692POPC   D2A12028  22.993  44.495   8.403
  692POPC   C3A12029  22.842  44.572   7.985
  692POPC   C4A12030  22.799  44.746   7.533
  692POPC   C1B12031  22.927  44.886   8.699
  692POPC   C2B12032  23.022   0.017   8.294
  692POPC   C3B12033  22.957   0.063   7.878
  692POPC   C4B12034  23.286  44.971   7.586
  693POPC   NC312035  33.287  30.979   9.486
  693POPC   PO412036  32.753  30.561   9.431
  693POPC   GL112037  32.911  30.881   9.133
  693POPC   GL212038  33.215  30.689   9.066
  693POPC   C1A12039  32.966  30.910   8.668
  693POPC   D2A12040  32.746  30.728   8.313
  693POPC   C3A12041  32.775  30.935   7.898
  693POPC   C4A12042  33.097  30.947   7.579
  693POPC   C1B12043  33.312  30.375   8.753
  693POPC   C2B12044  33.133  30.381   8.358
  693POPC   C3B12045  33.220  30.695   8.049
  693POPC   C4B12046  33.377  30.540   7.682
  694POPC   NC312047  37.948  20.680   9.721
  694POPC   PO412048  37.381  20.430   9.523
  694POPC   GL112049  37.651  20.664   9.272
  694POPC   GL212050  37.972  20.517   9.250
  694POPC   C1A12051  37.626  20.552   8.853
  694POPC   D2A12052  37.431  20.779   8.526
  694POPC   C3A12053  37.323  20.570   8.135
  694POPC   C4A12054  37.422  20.657   7.753
  694POPC   C1B12055  38.075  20.779   8.896
  694POPC   C2B12056  37.960  20.714   8.490
  694POPC   C3B12057  37.777  20.742   8.134
  694POPC   C4B12058  37.934  20.665   7.765
  695POPC   NC312059  29.769   3.798   9.371
  695POPC   PO412060  29.957   4.420   9.519
  695POPC   GL112061  29.933   4.237   9.141
  695POPC   GL212062  29.599   4.191   9.119
  695POPC   C1A12063  30.165   4.200   8.789
  695POPC   D2A12064  30.019   4.271   8.367
  695POPC   C3A12065  30.001   4.465   7.977
  695POPC   C4A12066  30.175   4.223   7.641
  695POPC   C1B12067  29.671   4.168   8.705
  695POPC   C2B12068  29.751   3.824   8.401
  695POPC   C3B12069  29.875   3.939   7.993
  695POPC   C4B12070  29.689   4.017   7.630
  696POPC   NC312071  44.161   0.124   9.453
  696POPC   PO412072  43.716   0.697   9.640
  696POPC   GL112073  44.009   0.719   9.209
  696POPC   GL212074  44.216   0.489   9.131
  696POPC   C1A12075  44.042   0.692   8.716
  696POPC   D2A12076  44.073   0.773   8.281
  696POPC   C3A12077  43.768   0.543   7.993
  696POPC   C4A12078  43.688   0.135   7.789
  696POPC   C1B12079  44.240   0.172   8.798
  696POPC   C2B12080  44.214   0.277   8.355
  696POPC   C3B12081  44.194   0.289   7.898
  696POPC   C4B12082  44.060   0.234   7.457
  697POPC   NC312083  39.540   4.091   9.465
  697POPC   PO412084  38.827   4.068   9.621
  697POPC   GL112085  39.107   4.084   9.217
  697POPC   GL212086  39.325   4.429   9.162
  697POPC   C1A12087  39.272   4.126   8.796
  697POPC   D2A12088  39.059   4.163   8.452
  697POPC   C3A12089  39.237   4.030   8.071
  697POPC   C4A12090  39.301   4.252   7.705
  697POPC   C1B12091  39.671   4.499   8.828
  697POPC   C2B12092  39.731   4.830   8.491
  697POPC   C3B12093  39.674   4.587   8.057
  697POPC   C4B12094  39.459   4.722   7.650
  698POPC   NC312095  21.833   8.360   9.678
  698POPC   PO412096  22.481   8.316   9.607
  698POPC   GL112097  22.271   8.248   9.205
  698POPC   GL212098  21.886   8.272   9.170
  698POPC   C1A12099  22.332   8.152   8.765
  698POPC   D2A12100  22.535   8.181   8.363
  698POPC   C3A12101  22.332   8.029   7.983
  698POPC   C4A12102  22.211   8.163   7.584
  698POPC   C1B12103  21.808   8.086   8.767
  698POPC   C2B12104  21.987   8.169   8.357
  698POPC   C3B12105  21.820   8.161   7.938
  698POPC   C4B12106  21.739   8.002   7.525
  699POPC   NC312107  14.705  21.774   9.466
  699POPC   PO412108  14.189  22.219   9.626
  699POPC   GL112109  14.459  22.157   9.250
  699POPC   GL212110  14.280  21.840   9.200
  699POPC   C1A12111  14.652  22.079   8.820
  699POPC   D2A12112  14.478  22.098   8.379
  699POPC   C3A12113  14.753  22.127   7.994
  699POPC   C4A12114  14.635  22.325   7.580
  699POPC   C1B12115  14.262  21.765   8.778
  699POPC   C2B12116  14.327  21.606   8.362
  699POPC   C3B12117  14.206  21.778   7.970
  699POPC   C4B12118  14.425  21.878   7.628
  700POPC   NC312119   3.887  14.966   9.379
  700POPC   PO412120   4.495  15.044   9.588
  700POPC   GL112121   4.374  15.104   9.192
  700POPC   GL212122   4.232  14.797   9.012
  700POPC   C1A12123   4.596  15.175   8.840
  700POPC   D2A12124   4.512  14.893   8.517
  700POPC   C3A12125   4.528  15.010   8.102
  700POPC   C4A12126   4.497  15.279   7.772
  700POPC   C1B12127   4.091  15.126   8.718
  700POPC   C2B12128   4.214  15.353   8.328
  700POPC   C3B12129   4.033  15.221   7.939
  700POPC   C4B12130   4.119  14.965   7.592
  701POPC   NC312131   3.878  43.488   9.526
  701POPC   PO412132   4.110  42.843   9.633
  701POPC   GL112133   4.084  43.124   9.244
  701POPC   GL212134   4.393  43.246   9.091
  701POPC   C1A12135   3.944  43.151   8.808
  701POPC   D2A12136   4.121  42.917   8.450
  701POPC   C3A12137   4.172  43.152   8.089
  701POPC   C4A12138   3.993  43.074   7.689
  701POPC   C1B12139   4.458  43.211   8.656
  701POPC   C2B12140   4.648  42.917   8.368
  701POPC   C3B12141   4.662  42.940   7.935
  701POPC   C4B12142   4.655  43.346   7.734
  702POPC   NC312143  16.270  41.125   9.444
  702POPC   PO412144  16.889  40.798   9.529
  702POPC   GL112145  16.574  40.786   9.167
  702POPC   GL212146  16.426  41.090   8.969
  702POPC   C1A12147  16.422  40.631   8.776
  702POPC   D2A12148  16.553  40.862   8.451
  702POPC   C3A12149  16.881  40.623   8.271
  702POPC   C4A12150  16.728  40.495   7.880
  702POPC   C1B12151  16.884  41.038   8.835
  702POPC   C2B12152  17.002  41.112   8.409
  702POPC   C3B12153  16.769  41.039   7.986
  702POPC   C4B12154  16.813  40.895   7.548
  703POPC   NC312155  32.724  16.750   9.597
  703POPC   PO412156  33.155  16.386   9.331
  703POPC   GL112157  33.115  16.782   9.171
  703POPC   GL212158  32.856  17.005   9.154
  703POPC   C1A12159  33.204  16.945   8.772
  703POPC   D2A12160  33.132  16.719   8.409
  703POPC   C3A12161  33.246  16.876   8.029
  703POPC   C4A12162  33.364  16.708   7.622
  703POPC   C1B12163  32.694  16.920   8.750
  703POPC   C2B12164  32.762  17.084   8.359
  703POPC   C3B12165  32.730  16.785   8.078
  703POPC   C4B12166  32.848  16.711   7.692
  704POPC   NC312167  33.746  33.515   9.377
  704POPC   PO412168  33.716  34.188   9.412
  704POPC   GL112169  33.713  33.916   9.049
  704POPC   GL212170  34.056  33.904   9.128
  704POPC   C1A12171  33.544  33.544   8.759
  704POPC   D2A12172  33.315  33.603   8.369
  704POPC   C3A12173  33.619  33.878   8.128
  704POPC   C4A12174  33.777  34.246   7.904
  704POPC   C1B12175  34.217  33.983   8.715
  704POPC   C2B12176  34.231  33.853   8.260
  704POPC   C3B12177  34.022  33.667   7.862
  704POPC   C4B12178  34.072  33.649   7.382
  705POPC   NC312179  40.373  35.998   9.522
  705POPC   PO412180  39.774  36.168   9.466
  705POPC   GL112181  39.816  36.211   9.090
  705POPC   GL212182  40.159  36.217   9.070
  705POPC   C1A12183  39.758  36.077   8.691
  705POPC   D2A12184  39.740  35.896   8.295
  705POPC   C3A12185  39.955  36.041   7.959
  705POPC   C4A12186  40.327  35.794   7.842
  705POPC   C1B12187  40.355  36.519   8.790
  705POPC   C2B12188  40.557  36.481   8.414
  705POPC   C3B12189  40.423  36.276   8.045
  705POPC   C4B12190  40.277  36.237   7.615
  706POPC   NC312191  36.433  19.140   9.488
  706POPC   PO412192  37.037  18.774   9.517
  706POPC   GL112193  36.813  18.938   9.139
  706POPC   GL212194  36.421  18.882   9.064
  706POPC   C1A12195  37.012  19.107   8.743
  706POPC   D2A12196  36.911  18.933   8.314
  706POPC   C3A12197  37.057  19.151   7.976
  706POPC   C4A12198  37.247  19.061   7.606
  706POPC   C1B12199  36.551  18.931   8.672
  706POPC   C2B12200  36.647  19.357   8.471
  706POPC   C3B12201  36.611  19.406   8.037
  706POPC   C4B12202  36.475  19.093   7.717
  707POPC   NC312203   6.730  35.672   9.366
  707POPC   PO412204   6.262  35.237   9.430
  707POPC   GL112205   6.467  35.339   9.053
  707POPC   GL212206   6.835  35.239   9.056
  707POPC   C1A12207   6.522  35.579   8.699
  707POPC   D2A12208   6.484  35.850   8.331
  707POPC   C3A12209   6.695  35.642   7.995
  707POPC   C4A12210   6.930  35.287   7.866
  707POPC   C1B12211   6.763  35.018   8.645
  707POPC   C2B12212   6.576  35.230   8.274
  707POPC   C3B12213   6.404  35.250   7.830
  707POPC   C4B12214   6.278  35.156   7.383
  708POPC   NC312215  38.328  38.194   9.603
  708POPC   PO412216  38.579  38.837   9.748
  708POPC   GL112217  38.436  38.768   9.311
  708POPC   GL212218  38.742  38.745   9.112
  708POPC   C1A12219  38.204  38.577   8.944
  708POPC   D2A12220  38.122  38.491   8.485
  708POPC   C3A12221  38.349  38.208   8.189
  708POPC   C4A12222  38.303  38.208   7.741
  708POPC   C1B12223  38.638  38.650   8.680
  708POPC   C2B12224  38.841  38.482   8.301
  708POPC   C3B12225  38.682  38.547   7.916
  708POPC   C4B12226  38.342  38.853   7.884
  709POPC   NC312227   6.850  29.112   9.332
  709POPC   PO412228   6.559  28.555   9.680
  709POPC   GL112229   6.527  28.329   9.266
  709POPC   GL212230   6.882  28.218   9.103
  709POPC   C1A12231   6.399  28.269   8.847
  709POPC   D2A12232   6.528  28.250   8.431
  709POPC   C3A12233   6.379  28.467   8.070
  709POPC   C4A12234   6.600  28.281   7.734
  709POPC   C1B12235   6.797  28.615   8.944
  709POPC   C2B12236   6.629  28.743   8.608
  709POPC   C3B12237   6.801  28.671   8.239
  709POPC   C4B12238   7.045  28.560   7.924
  710POPC   NC312239   5.973  41.927   9.453
  710POPC   PO412240   6.049  41.261   9.644
  710POPC   GL112241   6.028  41.429   9.223
  710POPC   GL212242   5.684  41.581   9.164
  710POPC   C1A12243   6.055  41.586   8.784
  710POPC   D2A12244   6.243  41.969   8.572
  710POPC   C3A12245   6.279  41.989   8.116
  710POPC   C4A12246   5.980  41.932   7.772
  710POPC   C1B12247   5.718  41.199   8.892
  710POPC   C2B12248   5.786  41.161   8.452
  710POPC   C3B12249   5.760  41.409   8.097
  710POPC   C4B12250   5.874  41.411   7.703
  711POPC   NC312251  17.271  10.898   9.623
  711POPC   PO412252  17.796  10.668   9.831
  711POPC   GL112253  17.710  10.679   9.380
  711POPC   GL212254  17.383  10.516   9.286
  711POPC   C1A12255  17.678  10.788   8.936
  711POPC   D2A12256  17.519  10.729   8.482
  711POPC   C3A12257  17.818  10.681   8.120
  711POPC   C4A12258  17.848  10.789   7.712
  711POPC   C1B12259  17.189  10.555   8.861
  711POPC   C2B12260  17.079  10.393   8.440
  711POPC   C3B12261  17.324  10.274   8.074
  711POPC   C4B12262  17.611  10.345   7.758
  712POPC   NC312263  42.311  23.983   9.506
  712POPC   PO412264  42.308  24.644   9.579
  712POPC   GL112265  42.305  24.660   9.120
  712POPC   GL212266  42.298  24.288   9.100
  712POPC   C1A12267  42.111  24.561   8.690
  712POPC   D2A12268  41.870  24.678   8.304
  712POPC   C3A12269  42.159  24.638   7.960
  712POPC   C4A12270  42.524  24.875   7.831
  712POPC   C1B12271  42.595  24.352   8.765
  712POPC   C2B12272  42.552  24.491   8.353
  712POPC   C3B12273  42.579  24.341   7.969
  712POPC   C4B12274  42.470  24.424   7.540
  713POPC   NC312275  18.170  22.961   9.959
  713POPC   PO412276  18.327  23.182   9.362
  713POPC   GL112277  18.287  23.031   8.986
  713POPC   GL212278  17.971  23.090   9.001
  713POPC   C1A12279  18.128  22.771   8.645
  713POPC   D2A12280  18.171  22.521   8.296
  713POPC   C3A12281  18.415  22.762   8.069
  713POPC   C4A12282  18.471  22.777   7.618
  713POPC   C1B12283  17.946  23.317   8.638
  713POPC   C2B12284  18.064  23.108   8.261
  713POPC   C3B12285  18.086  23.069   7.845
  713POPC   C4B12286  18.072  23.223   7.463
  714POPC   NC312287  22.356  16.024   9.649
  714POPC   PO412288  21.685  15.820   9.741
  714POPC   GL112289  21.876  15.938   9.288
  714POPC   GL212290  22.244  15.941   9.152
  714POPC   C1A12291  21.903  15.915   8.776
  714POPC   D2A12292  22.093  16.122   8.370
  714POPC   C3A12293  22.230  15.889   7.967
  714POPC   C4A12294  22.043  15.830   7.530
  714POPC   C1B12295  22.484  16.216   8.832
  714POPC   C2B12296  22.601  16.433   8.424
  714POPC   C3B12297  22.562  16.269   7.991
  714POPC   C4B12298  22.496  16.074   7.544
  715POPC   NC312299  32.787  43.287   9.511
  715POPC   PO412300  33.215  42.706   9.512
  715POPC   GL112301  32.959  42.926   9.183
  715POPC   GL212302  33.075  43.312   9.107
  715POPC   C1A12303  32.776  43.048   8.786
  715POPC   D2A12304  32.642  42.952   8.387
  715POPC   C3A12305  32.859  43.158   8.066
  715POPC   C4A12306  33.139  42.990   7.775
  715POPC   C1B12307  33.294  43.083   8.805
  715POPC   C2B12308  33.245  43.025   8.370
  715POPC   C3B12309  33.357  43.347   8.058
  715POPC   C4B12310  33.512  43.343   7.636
  716POPC   NC312311  13.225   8.893   9.367
  716POPC   PO412312  12.662   9.214   9.583
  716POPC   GL112313  12.742   9.099   9.146
  716POPC   GL212314  12.817   8.741   9.079
  716POPC   C1A12315  12.684   9.006   8.682
  716POPC   D2A12316  12.533   8.872   8.295
  716POPC   C3A12317  12.793   9.121   8.083
  716POPC   C4A12318  13.127   9.102   7.851
  716POPC   C1B12319  13.103   8.706   8.670
  716POPC   C2B12320  13.011   8.610   8.240
  716POPC   C3B12321  12.829   8.671   7.845
  716POPC   C4B12322  13.044   8.597   7.450
  717POPC   NC312323  11.182  44.818   9.590
  717POPC   PO412324  11.573  44.288   9.833
  717POPC   GL112325  11.568  44.582   9.354
  717POPC   GL212326  11.333  44.789   9.124
  717POPC   C1A12327  11.462  44.432   8.817
  717POPC   D2A12328  11.143  44.405   8.460
  717POPC   C3A12329  11.255  44.614   8.090
  717POPC   C4A12330  11.530  44.502   7.769
  717POPC   C1B12331  11.105  44.841   8.750
  717POPC   C2B12332  10.910  44.921   8.350
  717POPC   C3B12333  11.129   0.101   8.002
  717POPC   C4B12334  11.242  44.889   7.620
  718POPC   NC312335  15.952  35.907   9.456
  718POPC   PO412336  15.492  36.353   9.367
  718POPC   GL112337  15.853  36.310   9.143
  718POPC   GL212338  15.716  36.010   9.009
  718POPC   C1A12339  16.116  36.219   8.785
  718POPC   D2A12340  15.962  36.289   8.379
  718POPC   C3A12341  16.264  36.253   8.064
  718POPC   C4A12342  16.195  36.259   7.665
  718POPC   C1B12343  15.497  35.862   8.639
  718POPC   C2B12344  15.456  35.904   8.189
  718POPC   C3B12345  15.700  36.098   7.874
  718POPC   C4B12346  15.994  35.825   7.626
  719POPC   NC312347  16.999  37.896   9.474
  719POPC   PO412348  16.595  37.442   9.483
  719POPC   GL112349  16.689  37.497   9.099
  719POPC   GL212350  16.601  37.832   9.146
  719POPC   C1A12351  16.831  37.474   8.680
  719POPC   D2A12352  16.970  37.582   8.290
  719POPC   C3A12353  16.760  37.356   7.955
  719POPC   C4A12354  16.827  37.292   7.513
  719POPC   C1B12355  16.627  37.930   8.746
  719POPC   C2B12356  16.650  38.004   8.349
  719POPC   C3B12357  16.755  37.899   7.961
  719POPC   C4B12358  16.679  37.785   7.583
  720POPC   NC312359  25.863  19.138   9.540
  720POPC   PO412360  26.527  19.230   9.466
  720POPC   GL112361  26.261  18.992   9.135
  720POPC   GL212362  25.871  18.889   9.086
  720POPC   C1A12363  26.189  19.063   8.704
  720POPC   D2A12364  25.981  19.109   8.312
  720POPC   C3A12365  26.228  19.053   7.938
  720POPC   C4A12366  26.173  19.258   7.523
  720POPC   C1B12367  25.585  18.890   8.704
  720POPC   C2B12368  25.543  18.853   8.248
  720POPC   C3B12369  25.723  19.010   7.844
  720POPC   C4B12370  25.800  18.942   7.380
  721POPC   NC312371   8.202  13.228   9.500
  721POPC   PO412372   7.987  13.858   9.458
  721POPC   GL112373   8.197  13.912   9.104
  721POPC   GL212374   8.285  13.577   9.107
  721POPC   C1A12375   8.193  13.860   8.680
  721POPC   D2A12376   8.375  13.935   8.316
  721POPC   C3A12377   8.322  13.673   7.972
  721POPC   C4A12378   8.374  13.869   7.591
  721POPC   C1B12379   8.075  13.348   8.772
  721POPC   C2B12380   8.140  13.428   8.375
  721POPC   C3B12381   7.975  13.284   8.008
  721POPC   C4B12382   8.125  13.193   7.637
  722POPC   NC312383  22.650  15.312   9.450
  722POPC   PO412384  23.319  15.383   9.537
  722POPC   GL112385  23.124  15.117   9.191
  722POPC   GL212386  22.786  14.917   9.158
  722POPC   C1A12387  22.965  15.290   8.795
  722POPC   D2A12388  23.020  15.530   8.412
  722POPC   C3A12389  23.134  15.244   8.115
  722POPC   C4A12390  23.076  15.153   7.703
  722POPC   C1B12391  22.506  15.033   8.803
  722POPC   C2B12392  22.551  15.338   8.447
  722POPC   C3B12393  22.624  15.247   8.019
  722POPC   C4B12394  22.551  14.987   7.656
  723POPC   NC312395  40.868   5.440   9.473
  723POPC   PO412396  40.496   4.824   9.422
  723POPC   GL112397  40.689   5.017   9.086
  723POPC   GL212398  41.021   5.054   9.125
  723POPC   C1A12399  40.642   5.306   8.746
  723POPC   D2A12400  40.727   5.402   8.323
  723POPC   C3A12401  40.573   5.122   8.080
  723POPC   C4A12402  40.385   5.061   7.719
  723POPC   C1B12403  41.144   5.191   8.759
  723POPC   C2B12404  40.985   4.966   8.428
  723POPC   C3B12405  41.067   4.991   8.014
  723POPC   C4B12406  41.190   5.140   7.646
  724POPC   NC312407  44.186  28.850   9.322
  724POPC   PO412408  43.937  29.435   9.576
  724POPC   GL112409  43.863  29.275   9.180
  724POPC   GL212410  43.698  28.961   9.114
  724POPC   C1A12411  44.065  29.179   8.796
  724POPC   D2A12412  43.925  29.312   8.457
  724POPC   C3A12413  43.909  29.017   8.136
  724POPC   C4A12414  44.238  28.939   7.852
  724POPC   C1B12415  43.614  28.984   8.688
  724POPC   C2B12416  43.450  29.217   8.336
  724POPC   C3B12417  43.543  29.282   7.904
  724POPC   C4B12418  43.664  28.912   7.623
  725POPC   NC312419  38.555  20.232   9.437
  725POPC   PO412420  38.392  20.775   9.721
  725POPC   GL112421  38.536  20.741   9.286
  725POPC   GL212422  38.433  20.493   9.052
  725POPC   C1A12423  38.684  20.836   8.823
  725POPC   D2A12424  38.450  20.626   8.534
  725POPC   C3A12425  38.508  20.779   8.143
  725POPC   C4A12426  38.809  20.849   7.811
  725POPC   C1B12427  38.159  20.244   8.842
  725POPC   C2B12428  38.162  20.129   8.441
  725POPC   C3B12429  38.168  20.384   8.124
  725POPC   C4B12430  38.454  20.427   7.787
  726POPC   NC312431   6.382  24.894   9.336
  726POPC   PO412432   6.412  24.280   9.489
  726POPC   GL112433   6.680  24.315   9.139
  726POPC   GL212434   6.839  24.623   9.181
  726POPC   C1A12435   6.618  24.239   8.715
  726POPC   D2A12436   6.601  24.465   8.308
  726POPC   C3A12437   6.629  24.085   8.010
  726POPC   C4A12438   6.549  24.069   7.606
  726POPC   C1B12439   6.781  24.736   8.745
  726POPC   C2B12440   6.788  24.980   8.355
  726POPC   C3B12441   6.533  24.909   7.983
  726POPC   C4B12442   6.595  24.540   7.793
  727POPC   NC312443  11.713  17.985   9.432
  727POPC   PO412444  11.471  17.382   9.663
  727POPC   GL112445  11.394  17.605   9.220
  727POPC   GL212446  11.063  17.773   9.135
  727POPC   C1A12447  11.292  17.564   8.744
  727POPC   D2A12448  11.164  17.264   8.399
  727POPC   C3A12449  11.459  17.289   8.020
  727POPC   C4A12450  11.454  17.615   7.678
  727POPC   C1B12451  10.835  17.918   8.778
  727POPC   C2B12452  10.937  17.747   8.397
  727POPC   C3B12453  11.105  17.667   8.053
  727POPC   C4B12454  10.980  17.799   7.689
  728POPC   NC312455   4.066  13.318   9.294
  728POPC   PO412456   4.664  13.480   9.590
  728POPC   GL112457   4.564  13.675   9.197
  728POPC   GL212458   4.229  13.796   9.110
  728POPC   C1A12459   4.647  13.956   8.849
  728POPC   D2A12460   4.376  13.934   8.493
  728POPC   C3A12461   4.551  14.000   8.090
  728POPC   C4A12462   4.228  14.061   7.799
  728POPC   C1B12463   4.350  13.509   8.756
  728POPC   C2B12464   4.168  13.372   8.381
  728POPC   C3B12465   4.246  13.566   7.995
  728POPC   C4B12466   4.024  13.601   7.610
  729POPC   NC312467  23.317  13.465   9.453
  729POPC   PO412468  22.846  13.946   9.523
  729POPC   GL112469  22.934  13.700   9.150
  729POPC   GL212470  22.604  13.565   9.000
  729POPC   C1A12471  23.028  13.554   8.736
  729POPC   D2A12472  23.132  13.657   8.333
  729POPC   C3A12473  22.976  13.427   8.022
  729POPC   C4A12474  23.105  13.291   7.652
  729POPC   C1B12475  22.683  13.945   8.771
  729POPC   C2B12476  22.787  14.085   8.420
  729POPC   C3B12477  22.769  13.896   8.039
  729POPC   C4B12478  22.842  14.030   7.667
  730POPC   NC312479  21.926  31.777   9.547
  730POPC   PO412480  22.080  31.121   9.431
  730POPC   GL112481  22.252  31.402   9.080
  730POPC   GL212482  21.989  31.609   9.076
  730POPC   C1A12483  22.376  31.333   8.675
  730POPC   D2A12484  22.044  31.190   8.417
  730POPC   C3A12485  22.047  31.378   8.032
  730POPC   C4A12486  22.043  31.262   7.646
  730POPC   C1B12487  21.766  31.919   8.834
  730POPC   C2B12488  21.827  32.127   8.442
  730POPC   C3B12489  21.853  31.940   8.052
  730POPC   C4B12490  21.896  31.745   7.688
  731POPC   NC312491   8.545  15.119   9.474
  731POPC   PO412492   9.111  15.425   9.719
  731POPC   GL112493   9.113  15.380   9.241
  731POPC   GL212494   9.131  15.692   9.042
  731POPC   C1A12495   8.971  15.123   8.865
  731POPC   D2A12496   9.126  14.964   8.446
  731POPC   C3A12497   8.953  14.980   8.007
  731POPC   C4A12498   9.179  15.111   7.621
  731POPC   C1B12499   8.715  15.577   8.851
  731POPC   C2B12500   8.700  15.343   8.459
  731POPC   C3B12501   8.652  15.412   8.022
  731POPC   C4B12502   8.731  15.325   7.598
  732POPC   NC312503   5.080  10.070   9.317
  732POPC   PO412504   5.031   9.529   9.677
  732POPC   GL112505   5.079   9.368   9.239
  732POPC   GL212506   5.193   9.623   9.055
  732POPC   C1A12507   4.819   9.401   8.829
  732POPC   D2A12508   4.917   9.314   8.440
  732POPC   C3A12509   5.050   9.612   8.155
  732POPC   C4A12510   5.044   9.679   7.728
  732POPC   C1B12511   5.232   9.707   8.646
  732POPC   C2B12512   5.259  10.043   8.372
  732POPC   C3B12513   5.387   9.967   7.961
  732POPC   C4B12514   5.239  10.142   7.572
  733POPC   NC312515  44.105  16.573   9.479
  733POPC   PO412516  43.755  17.122   9.675
  733POPC   GL112517  43.727  16.958   9.272
  733POPC   GL212518  44.063  17.002   9.177
  733POPC   C1A12519  43.535  17.059   8.881
  733POPC   D2A12520  43.649  17.172   8.427
  733POPC   C3A12521  43.708  16.833   8.134
  733POPC   C4A12522  43.665  16.488   7.836
  733POPC   C1B12523  44.018  16.896   8.709
  733POPC   C2B12524  44.198  16.718   8.286
  733POPC   C3B12525  44.147  16.719   7.797
  733POPC   C4B12526  44.316  16.519   7.400
  734POPC   NC312527  38.126  30.865   9.364
  734POPC   PO412528  37.535  30.765   9.682
  734POPC   GL112529  37.648  30.924   9.248
  734POPC   GL212530  37.691  30.584   9.182
  734POPC   C1A12531  37.873  30.851   8.784
  734POPC   D2A12532  37.856  30.634   8.370
  734POPC   C3A12533  37.855  30.808   7.938
  734POPC   C4A12534  37.975  30.882   7.455
  734POPC   C1B12535  37.540  30.459   8.765
  734POPC   C2B12536  37.506  30.260   8.365
  734POPC   C3B12537  37.692  30.319   7.972
  734POPC   C4B12538  37.681  30.487   7.558
  735POPC   NC312539   0.536  18.887   9.796
  735POPC   PO412540   0.701  19.344   9.282
  735POPC   GL112541   0.372  19.200   9.006
  735POPC   GL212542   0.268  19.497   8.859
  735POPC   C1A12543   0.323  18.890   8.670
  735POPC   D2A12544   0.056  18.747   8.329
  735POPC   C3A12545   0.279  18.686   7.915
  735POPC   C4A12546   0.317  18.617   7.462
  735POPC   C1B12547   0.636  19.304   8.613
  735POPC   C2B12548   0.602  19.237   8.184
  735POPC   C3B12549   0.382  19.480   7.890
  735POPC   C4B12550   0.523  19.461   7.448
  736POPC   NC312551  27.930  33.784   9.354
  736POPC   PO412552  28.306  33.287   9.661
  736POPC   GL112553  28.338  33.492   9.264
  736POPC   GL212554  28.028  33.344   9.118
  736POPC   C1A12555  28.420  33.665   8.873
  736POPC   D2A12556  28.281  33.679   8.452
  736POPC   C3A12557  28.367  34.012   8.188
  736POPC   C4A12558  28.482  33.853   7.804
  736POPC   C1B12559  27.913  33.426   8.698
  736POPC   C2B12560  27.749  33.668   8.359
  736POPC   C3B12561  27.853  33.584   7.935
  736POPC   C4B12562  27.988  33.998   7.835
  737POPC   NC312563   4.793   9.137   9.594
  737POPC   PO412564   5.317   8.821   9.653
  737POPC   GL112565   5.165   8.841   9.275
  737POPC   GL212566   5.425   8.629   9.135
  737POPC   C1A12567   4.916   8.926   8.942
  737POPC   D2A12568   4.771   8.815   8.535
  737POPC   C3A12569   5.026   8.934   8.155
  737POPC   C4A12570   4.872   9.195   7.803
  737POPC   C1B12571   5.309   8.689   8.716
  737POPC   C2B12572   5.484   8.803   8.345
  737POPC   C3B12573   5.371   8.629   7.935
  737POPC   C4B12574   4.929   8.703   7.717
  738POPC   NC312575  26.286  17.264   9.589
  738POPC   PO412576  25.894  17.750   9.419
  738POPC   GL112577  26.062  17.445   9.112
  738POPC   GL212578  26.442  17.392   9.123
  738POPC   C1A12579  25.936  17.491   8.661
  738POPC   D2A12580  26.090  17.800   8.320
  738POPC   C3A12581  26.012  17.646   7.877
  738POPC   C4A12582  25.751  17.705   7.481
  738POPC   C1B12583  26.443  17.595   8.742
  738POPC   C2B12584  26.342  17.367   8.385
  738POPC   C3B12585  26.520  17.327   8.023
  738POPC   C4B12586  26.469  17.573   7.672
  739POPC   NC312587   0.754  27.917   9.505
  739POPC   PO412588   0.281  28.443   9.530
  739POPC   GL112589   0.531  28.282   9.220
  739POPC   GL212590   0.298  27.995   9.234
  739POPC   C1A12591   0.693  28.329   8.820
  739POPC   D2A12592   0.565  28.122   8.475
  739POPC   C3A12593   0.524  28.365   8.124
  739POPC   C4A12594   0.476  28.517   7.718
  739POPC   C1B12595   0.194  28.157   8.828
  739POPC   C2B12596   0.060  28.144   8.361
  739POPC   C3B12597   0.080  28.204   7.911
  739POPC   C4B12598  44.770  28.182   7.580
  740POPC   NC312599   1.577  10.332   9.838
  740POPC   PO412600   2.042  10.555   9.441
  740POPC   GL112601   1.760  10.478   9.150
  740POPC   GL212602   1.572  10.782   9.179
  740POPC   C1A12603   1.924  10.335   8.757
  740POPC   D2A12604   2.277  10.474   8.470
  740POPC   C3A12605   2.074  10.394   8.086
  740POPC   C4A12606   2.002  10.470   7.667
  740POPC   C1B12607   1.775  10.843   8.790
  740POPC   C2B12608   1.657  10.950   8.379
  740POPC   C3B12609   1.757  10.819   7.989
  740POPC   C4B12610   1.577  10.771   7.605
  741POPC   NC312611   6.268  23.128   9.558
  741POPC   PO412612   6.757  22.790   9.401
  741POPC   GL112613   6.571  22.964   9.097
  741POPC   GL212614   6.588  23.320   9.198
  741POPC   C1A12615   6.768  22.887   8.707
  741POPC   D2A12616   6.650  22.943   8.310
  741POPC   C3A12617   6.242  22.972   8.182
  741POPC   C4A12618   6.494  23.037   7.808
  741POPC   C1B12619   6.638  23.386   8.752
  741POPC   C2B12620   6.949  23.335   8.430
  741POPC   C3B12621   6.942  23.224   7.978
  741POPC   C4B12622   7.021  23.379   7.528
  742POPC   NC312623  44.519  43.526   9.638
  742POPC   PO412624  44.928  43.964   9.365
  742POPC   GL112625  44.807  43.676   9.074
  742POPC   GL212626  44.475  43.781   9.036
  742POPC   C1A12627  44.790  43.767   8.636
  742POPC   D2A12628  44.869  44.131   8.378
  742POPC   C3A12629  44.730  44.078   7.942
  742POPC   C4A12630  44.571  43.714   7.748
  742POPC   C1B12631  44.284  43.930   8.665
  742POPC   C2B12632  44.353  43.863   8.221
  742POPC   C3B12633  44.199  44.043   7.836
  742POPC   C4B12634  44.209  43.924   7.390
  743POPC   NC312635   8.785  20.927   9.457
  743POPC   PO412636   9.309  20.534   9.425
  743POPC   GL112637   9.160  20.832   9.136
  743POPC   GL212638   8.893  20.602   9.059
  743POPC   C1A12639   9.190  20.793   8.712
  743POPC   D2A12640   9.069  20.477   8.438
  743POPC   C3A12641   9.086  20.561   8.014
  743POPC   C4A12642   8.969  20.473   7.601
  743POPC   C1B12643   8.653  20.675   8.704
  743POPC   C2B12644   8.566  20.462   8.300
  743POPC   C3B12645   8.553  20.604   7.862
  743POPC   C4B12646   8.514  20.528   7.390
  744POPC   NC312647  33.458  10.979   9.555
  744POPC   PO412648  32.806  11.331   9.560
  744POPC   GL112649  32.743  11.260   9.124
  744POPC   GL212650  33.092  11.132   9.173
  744POPC   C1A12651  32.694  11.431   8.668
  744POPC   D2A12652  32.919  11.212   8.349
  744POPC   C3A12653  32.828  11.232   7.911
  744POPC   C4A12654  33.081  11.184   7.552
  744POPC   C1B12655  33.066  10.939   8.787
  744POPC   C2B12656  33.328  10.829   8.441
  744POPC   C3B12657  33.247  10.950   8.038
  744POPC   C4B12658  33.158  10.722   7.728
  745POPC   NC312659  40.166  27.896   9.474
  745POPC   PO412660  40.278  27.192   9.361
  745POPC   GL112661  40.122  27.524   9.129
  745POPC   GL212662  39.778  27.630   9.232
  745POPC   C1A12663  40.093  27.640   8.723
  745POPC   D2A12664  40.223  27.428   8.336
  745POPC   C3A12665  40.184  27.611   7.951
  745POPC   C4A12666  39.842  27.706   7.703
  745POPC   C1B12667  39.671  27.397   8.848
  745POPC   C2B12668  39.696  27.541   8.400
  745POPC   C3B12669  39.741  27.298   8.012
  745POPC   C4B12670  39.710  27.220   7.556
  746POPC   NC312671  38.834   1.825   9.512
  746POPC   PO412672  39.541   2.021   9.574
  746POPC   GL112673  39.502   1.992   9.154
  746POPC   GL212674  39.148   2.072   9.186
  746POPC   C1A12675  39.359   1.761   8.761
  746POPC   D2A12676  39.229   1.664   8.311
  746POPC   C3A12677  39.439   1.837   7.924
  746POPC   C4A12678  39.330   1.794   7.469
  746POPC   C1B12679  39.004   2.196   8.821
  746POPC   C2B12680  38.837   2.122   8.420
  746POPC   C3B12681  38.871   2.298   8.024
  746POPC   C4B12682  39.146   2.238   7.657
  747POPC   NC312683  21.279  15.545   9.854
  747POPC   PO412684  21.556  14.950   9.780
  747POPC   GL112685  21.487  14.998   9.283
  747POPC   GL212686  21.238  14.937   9.166
  747POPC   C1A12687  21.528  15.243   8.845
  747POPC   D2A12688  21.648  15.313   8.378
  747POPC   C3A12689  21.395  15.431   8.038
  747POPC   C4A12690  21.556  15.194   7.725
  747POPC   C1B12691  21.567  14.756   8.865
  747POPC   C2B12692  21.445  14.859   8.473
  747POPC   C3B12693  21.310  14.907   8.066
  747POPC   C4B12694  21.205  14.808   7.635
  748POPC   NC312695   1.289  40.472   9.486
  748POPC   PO412696   1.258  39.813   9.546
  748POPC   GL112697   1.086  39.729   9.195
  748POPC   GL212698   1.122  40.089   9.101
  748POPC   C1A12699   1.027  39.668   8.787
  748POPC   D2A12700   0.898  39.778   8.401
  748POPC   C3A12701   1.195  39.906   8.116
  748POPC   C4A12702   1.204  39.727   7.726
  748POPC   C1B12703   0.958  40.213   8.690
  748POPC   C2B12704   0.846  40.314   8.253
  748POPC   C3B12705   1.046  40.357   7.839
  748POPC   C4B12706   0.918  40.468   7.413
  749POPC   NC312707  42.813  23.534   9.452
  749POPC   PO412708  42.186  23.572   9.668
  749POPC   GL112709  42.067  23.648   9.218
  749POPC   GL212710  42.407  23.678   9.075
  749POPC   C1A12711  42.040  23.930   8.828
  749POPC   D2A12712  42.296  24.063   8.476
  749POPC   C3A12713  42.236  23.979   8.049
  749POPC   C4A12714  42.422  23.844   7.678
  749POPC   C1B12715  42.395  23.576   8.617
  749POPC   C2B12716  42.499  23.560   8.156
  749POPC   C3B12717  42.458  23.336   7.747
  749POPC   C4B12718  42.513  23.298   7.291
  750POPC   NC312719   3.209  37.181   9.612
  750POPC   PO412720   3.714  37.608   9.561
  750POPC   GL112721   3.621  37.562   9.161
  750POPC   GL212722   3.305  37.423   9.150
  750POPC   C1A12723   3.724  37.404   8.755
  750POPC   D2A12724   3.496  37.518   8.392
  750POPC   C3A12725   3.483  37.288   8.018
  750POPC   C4A12726   3.672  37.308   7.602
  750POPC   C1B12727   3.292  37.774   8.826
  750POPC   C2B12728   3.307  37.991   8.415
  750POPC   C3B12729   3.263  37.830   7.986
  750POPC   C4B12730   3.127  37.901   7.557
  751POPC   NC312731  22.580  18.277   9.503
  751POPC   PO412732  23.240  17.977   9.543
  751POPC   GL112733  22.999  18.167   9.197
  751POPC   GL212734  22.941  18.520   9.163
  751POPC   C1A12735  22.867  18.078   8.793
  751POPC   D2A12736  22.595  18.135   8.448
  751POPC   C3A12737  22.819  18.085   8.068
  751POPC   C4A12738  22.761  17.942   7.663
  751POPC   C1B12739  22.913  18.615   8.771
  751POPC   C2B12740  22.990  18.484   8.396
  751POPC   C3B12741  23.183  18.644   8.065
  751POPC   C4B12742  23.128  18.359   7.752
  752POPC   NC312743  38.509  37.200   9.790
  752POPC   PO412744  38.166  37.793   9.757
  752POPC   GL112745  38.234  37.762   9.257
  752POPC   GL212746  38.606  37.756   9.106
  752POPC   C1A12747  38.239  37.834   8.767
  752POPC   D2A12748  38.234  37.613   8.356
  752POPC   C3A12749  38.404  37.730   7.935
  752POPC   C4A12750  38.354  37.438   7.569
  752POPC   C1B12751  38.766  37.590   8.659
  752POPC   C2B12752  38.796  37.488   8.178
  752POPC   C3B12753  38.841  37.548   7.739
  752POPC   C4B12754  38.779  37.425   7.295
  753POPC   NC312755  10.766  13.819   9.510
  753POPC   PO412756  10.428  14.464   9.553
  753POPC   GL112757  10.680  14.404   9.230
  753POPC   GL212758  11.036  14.379   9.287
  753POPC   C1A12759  10.503  14.411   8.857
  753POPC   D2A12760  10.561  14.638   8.507
  753POPC   C3A12761  10.448  14.493   8.101
  753POPC   C4A12762  10.340  14.142   7.866
  753POPC   C1B12763  11.014  14.300   8.835
  753POPC   C2B12764  10.759  14.132   8.518
  753POPC   C3B12765  10.792  14.115   8.098
  753POPC   C4B12766  10.896  14.283   7.743
  754POPC   NC312767  39.223   2.443   9.536
  754POPC   PO412768  38.943   2.989   9.376
  754POPC   GL112769  39.058   2.651   9.060
  754POPC   GL212770  39.423   2.514   9.068
  754POPC   C1A12771  39.223   2.664   8.601
  754POPC   D2A12772  39.469   2.920   8.264
  754POPC   C3A12773  39.170   3.029   7.924
  754POPC   C4A12774  38.939   2.713   7.726
  754POPC   C1B12775  39.509   2.244   8.714
  754POPC   C2B12776  39.429   2.237   8.272
  754POPC   C3B12777  39.415   2.546   7.935
  754POPC   C4B12778  39.392   2.651   7.496
  755POPC   NC312779  15.727  31.591   9.730
  755POPC   PO412780  15.272  31.105   9.521
  755POPC   GL112781  15.100  31.301   9.134
  755POPC   GL212782  14.822  31.541   9.012
  755POPC   C1A12783  15.236  31.341   8.730
  755POPC   D2A12784  15.128  31.431   8.326
  755POPC   C3A12785  15.324  31.255   7.979
  755POPC   C4A12786  14.949  31.139   7.858
  755POPC   C1B12787  15.077  31.821   8.705
  755POPC   C2B12788  15.311  31.891   8.311
  755POPC   C3B12789  15.189  31.742   7.896
  755POPC   C4B12790  15.493  31.748   7.554
  756POPC   NC312791   1.905  10.042   9.394
  756POPC   PO412792   1.747   9.320   9.315
  756POPC   GL112793   1.955   9.593   9.070
  756POPC   GL212794   2.264   9.638   9.186
  756POPC   C1A12795   1.947   9.765   8.663
  756POPC   D2A12796   1.966   9.557   8.265
  756POPC   C3A12797   2.077   9.878   7.983
  756POPC   C4A12798   1.824   9.917   7.646
  756POPC   C1B12799   2.381   9.523   8.775
  756POPC   C2B12800   2.436   9.714   8.383
  756POPC   C3B12801   2.412   9.494   7.996
  756POPC   C4B12802   2.398   9.676   7.567
  757POPC   NC312803  27.590  24.580   9.499
  757POPC   PO412804  28.078  24.226   9.538
  757POPC   GL112805  27.815  24.307   9.136
  757POPC   GL212806  27.422  24.234   9.162
  757POPC   C1A12807  27.631  24.582   8.817
  757POPC   D2A12808  27.495  24.482   8.399
  757POPC   C3A12809  27.798  24.447   8.062
  757POPC   C4A12810  27.615  24.497   7.635
  757POPC   C1B12811  27.443  24.099   8.755
  757POPC   C2B12812  27.445  23.980   8.329
  757POPC   C3B12813  27.412  24.142   7.920
  757POPC   C4B12814  27.348  24.031   7.465
  758POPC   NC312815  40.117  28.641   9.426
  758POPC   PO412816  39.659  28.120   9.536
  758POPC   GL112817  39.876  28.243   9.153
  758POPC   GL212818  39.734  28.552   9.112
  758POPC   C1A12819  40.092  28.174   8.735
  758POPC   D2A12820  39.982  27.958   8.345
  758POPC   C3A12821  39.850  28.121   7.999
  758POPC   C4A12822  40.202  28.112   7.754
  758POPC   C1B12823  39.931  28.658   8.764
  758POPC   C2B12824  39.837  28.503   8.378
  758POPC   C3B12825  40.018  28.621   7.995
  758POPC   C4B12826  40.285  28.604   7.648
  759POPC   NC312827  23.090  36.165   9.576
  759POPC   PO412828  22.677  35.714   9.384
  759POPC   GL112829  22.872  36.064   9.128
  759POPC   GL212830  23.242  36.058   9.092
  759POPC   C1A12831  22.915  36.026   8.703
  759POPC   D2A12832  22.744  35.969   8.337
  759POPC   C3A12833  22.982  35.993   7.982
  759POPC   C4A12834  22.889  35.678   7.695
  759POPC   C1B12835  23.310  36.347   8.777
  759POPC   C2B12836  23.215  36.277   8.359
  759POPC   C3B12837  23.312  36.511   8.001
  759POPC   C4B12838  23.219  36.464   7.564
  760POPC   NC312839   5.515  36.503   9.526
  760POPC   PO412840   5.260  37.169   9.427
  760POPC   GL112841   5.215  37.023   9.031
  760POPC   GL212842   5.306  36.666   9.066
  760POPC   C1A12843   5.035  37.205   8.634
  760POPC   D2A12844   5.003  37.306   8.177
  760POPC   C3A12845   4.843  37.054   7.834
  760POPC   C4A12846   5.095  37.006   7.486
  760POPC   C1B12847   5.006  36.699   8.710
  760POPC   C2B12848   5.012  36.779   8.248
  760POPC   C3B12849   5.072  36.599   7.825
  760POPC   C4B12850   5.046  36.506   7.353
  761POPC   NC312851  18.345   8.783   9.482
  761POPC   PO412852  18.044   9.411   9.462
  761POPC   GL112853  18.098   9.105   9.140
  761POPC   GL212854  18.462   9.171   9.063
  761POPC   C1A12855  18.155   8.956   8.714
  761POPC   D2A12856  18.469   9.192   8.472
  761POPC   C3A12857  18.522   9.202   8.013
  761POPC   C4A12858  18.447   9.297   7.557
  761POPC   C1B12859  18.628   8.813   8.853
  761POPC   C2B12860  18.479   8.649   8.460
  761POPC   C3B12861  18.559   8.658   8.051
  761POPC   C4B12862  18.298   8.635   7.712
  762POPC   NC312863  21.740  13.843   9.508
  762POPC   PO412864  21.164  13.457   9.531
  762POPC   GL112865  21.355  13.568   9.148
  762POPC   GL212866  21.299  13.923   9.195
  762POPC   C1A12867  21.152  13.521   8.723
  762POPC   D2A12868  21.327  13.349   8.355
  762POPC   C3A12869  21.191  13.472   7.947
  762POPC   C4A12870  21.390  13.271   7.620
  762POPC   C1B12871  21.347  13.966   8.749
  762POPC   C2B12872  21.358  13.851   8.282
  762POPC   C3B12873  21.340  13.943   7.822
  762POPC   C4B12874  21.350  13.776   7.416
  763POPC   NC312875  31.180  33.182   9.482
  763POPC   PO412876  31.715  32.743   9.510
  763POPC   GL112877  31.710  33.024   9.179
  763POPC   GL212878  31.390  33.169   9.030
  763POPC   C1A12879  31.817  33.127   8.775
  763POPC   D2A12880  31.576  32.982   8.428
  763POPC   C3A12881  31.603  33.247   8.068
  763POPC   C4A12882  31.619  33.008   7.706
  763POPC   C1B12883  31.119  32.944   8.762
  763POPC   C2B12884  31.053  32.756   8.378
  763POPC   C3B12885  31.212  32.901   8.016
  763POPC   C4B12886  31.137  33.189   7.696
  764POPC   NC312887  38.714  40.258   9.607
  764POPC   PO412888  38.155  39.734   9.545
  764POPC   GL112889  38.339  40.104   9.237
  764POPC   GL212890  38.707  40.088   9.147
  764POPC   C1A12891  38.362  40.146   8.770
  764POPC   D2A12892  38.422  39.797   8.455
  764POPC   C3A12893  38.170  39.855   8.091
  764POPC   C4A12894  38.105  39.753   7.662
  764POPC   C1B12895  38.827  39.897   8.787
  764POPC   C2B12896  38.786  40.159   8.445
  764POPC   C3B12897  38.532  40.217   8.093
  764POPC   C4B12898  38.657  40.143   7.696
  765POPC   NC312899  33.259  14.567   9.411
  765POPC   PO412900  32.889  14.077   9.588
  765POPC   GL112901  32.802  14.237   9.167
  765POPC   GL212902  32.590  14.529   9.209
  765POPC   C1A12903  33.005  14.297   8.749
  765POPC   D2A12904  33.196  14.417   8.327
  765POPC   C3A12905  33.089  14.121   8.020
  765POPC   C4A12906  32.773  14.101   7.726
  765POPC   C1B12907  32.730  14.739   8.821
  765POPC   C2B12908  32.729  14.572   8.411
  765POPC   C3B12909  32.854  14.589   7.978
  765POPC   C4B12910  33.277  14.555   7.813
  766POPC   NC312911  13.277  28.290   9.488
  766POPC   PO412912  12.655  28.386   9.412
  766POPC   GL112913  12.935  28.281   9.069
  766POPC   GL212914  13.108  27.980   9.100
  766POPC   C1A12915  12.921  28.176   8.622
  766POPC   D2A12916  12.782  28.492   8.325
  766POPC   C3A12917  12.609  28.367   7.924
  766POPC   C4A12918  12.536  28.737   7.676
  766POPC   C1B12919  13.400  28.260   8.834
  766POPC   C2B12920  13.313  28.435   8.423
  766POPC   C3B12921  13.117  28.219   8.068
  766POPC   C4B12922  13.050  28.496   7.729
  767POPC   NC312923   0.334  42.915   9.862
  767POPC   PO412924   0.550  43.238   9.343
  767POPC   GL112925   0.344  43.165   9.034
  767POPC   GL212926   0.649  42.997   8.916
  767POPC   C1A12927   0.359  43.306   8.636
  767POPC   D2A12928   0.384  43.033   8.300
  767POPC   C3A12929   0.131  43.119   7.971
  767POPC   C4A12930   0.030  43.552   7.917
  767POPC   C1B12931   0.792  42.796   8.538
  767POPC   C2B12932   0.746  42.773   8.084
  767POPC   C3B12933   0.635  43.081   7.754
  767POPC   C4B12934   0.797  42.919   7.339
  768POPC   NC312935  34.284   2.793   9.518
  768POPC   PO412936  33.702   3.062   9.582
  768POPC   GL112937  33.865   2.912   9.214
  768POPC   GL212938  34.135   3.189   9.218
  768POPC   C1A12939  33.837   2.563   8.868
  768POPC   D2A12940  33.715   2.340   8.465
  768POPC   C3A12941  33.974   2.425   8.104
  768POPC   C4A12942  33.738   2.661   7.776
  768POPC   C1B12943  34.125   2.980   8.803
  768POPC   C2B12944  33.937   2.854   8.409
  768POPC   C3B12945  34.122   2.918   7.983
  768POPC   C4B12946  33.903   3.139   7.651
  769POPC   NC312947  35.798  43.578   9.379
  769POPC   PO412948  35.196  44.094   9.518
  769POPC   GL112949  35.144  44.176   9.122
  769POPC   GL212950  34.806  44.074   9.143
  769POPC   C1A12951  35.400  43.961   8.803
  769POPC   D2A12952  35.314  43.504   8.646
  769POPC   C3A12953  35.286  43.423   8.186
  769POPC   C4A12954  35.231  43.505   7.712
  769POPC   C1B12955  34.898  43.862   8.784
  769POPC   C2B12956  35.114  43.897   8.385
  769POPC   C3B12957  35.190  43.939   7.984
  769POPC   C4B12958  34.951  44.110   7.653
  770POPC   NC312959  34.790  18.806   9.534
  770POPC   PO412960  34.276  19.212   9.589
  770POPC   GL112961  34.545  19.162   9.230
  770POPC   GL212962  34.409  19.423   9.100
  770POPC   C1A12963  34.478  19.019   8.777
  770POPC   D2A12964  34.681  18.999   8.384
  770POPC   C3A12965  34.542  18.869   8.025
  770POPC   C4A12966  34.643  19.036   7.675
  770POPC   C1B12967  34.166  19.424   8.733
  770POPC   C2B12968  34.238  19.244   8.322
  770POPC   C3B12969  34.327  19.461   7.927
  770POPC   C4B12970  34.144  19.544   7.552
  771POPC   NC312971  37.137  14.094   9.321
  771POPC   PO412972  36.660  14.626   9.541
  771POPC   GL112973  36.834  14.674   9.140
  771POPC   GL212974  37.147  14.525   9.053
  771POPC   C1A12975  36.788  14.576   8.703
  771POPC   D2A12976  36.788  14.289   8.383
  771POPC   C3A12977  36.754  14.520   8.023
  771POPC   C4A12978  36.611  14.724   7.675
  771POPC   C1B12979  37.202  14.210   8.683
  771POPC   C2B12980  37.142  13.922   8.304
  771POPC   C3B12981  36.900  14.025   7.915
  771POPC   C4B12982  37.052  14.103   7.467
  772POPC   NC312983   0.082  41.418   9.545
  772POPC   PO412984  44.477  41.699   9.600
  772POPC   GL112985  44.692  41.733   9.243
  772POPC   GL212986  44.703  41.370   9.213
  772POPC   C1A12987  44.577  41.666   8.805
  772POPC   D2A12988  44.811  41.794   8.449
  772POPC   C3A12989  44.594  41.836   8.073
  772POPC   C4A12990  44.616  41.632   7.687
  772POPC   C1B12991  44.786  41.178   8.828
  772POPC   C2B12992  44.647  41.287   8.452
  772POPC   C3B12993  44.841  41.319   8.102
  772POPC   C4B12994  44.745  41.133   7.760
  773POPC   NC312995  11.177  30.123   9.579
  773POPC   PO412996  11.092  30.789   9.426
  773POPC   GL112997  11.503  30.699   9.180
  773POPC   GL212998  11.520  30.333   9.166
  773POPC   C1A12999  11.653  30.702   8.749
  773POPC   D2A13000  11.506  30.491   8.378
  773POPC   C3A13001  11.670  30.651   7.954
  773POPC   C4A13002  11.693  30.533   7.465
  773POPC   C1B13003  11.211  30.452   8.829
  773POPC   C2B13004  10.990  30.646   8.484
  773POPC   C3B13005  11.006  30.575   8.045
  773POPC   C4B13006  11.241  30.615   7.664
  774POPC   NC313007  41.737  23.449   9.620
  774POPC   PO413008  41.640  24.045   9.468
  774POPC   GL113009  41.593  23.820   9.096
  774POPC   GL213010  41.577  23.473   9.118
  774POPC   C1A13011  41.528  23.817   8.669
  774POPC   D2A13012  41.312  23.828   8.293
  774POPC   C3A13013  41.565  23.763   7.983
  774POPC   C4A13014  41.500  23.367   7.774
  774POPC   C1B13015  41.882  23.458   8.752
  774POPC   C2B13016  41.954  23.680   8.348
  774POPC   C3B13017  42.002  23.514   7.911
  774POPC   C4B13018  41.969  23.139   7.624
  775POPC   NC313019  32.063  17.412   9.880
  775POPC   PO413020  31.477  17.556   9.510
  775POPC   GL113021  31.492  17.499   9.067
  775POPC   GL213022  31.744  17.748   9.083
  775POPC   C1A13023  31.564  17.153   8.743
  775POPC   D2A13024  31.449  17.043   8.307
  775POPC   C3A13025  31.530  17.412   8.055
  775POPC   C4A13026  31.887  17.430   7.790
  775POPC   C1B13027  31.558  17.894   8.731
  775POPC   C2B13028  31.809  17.798   8.371
  775POPC   C3B13029  31.696  17.904   7.961
  775POPC   C4B13030  31.268  17.956   7.790
  776POPC   NC313031  44.159  10.127   9.499
  776POPC   PO413032  43.774  10.625   9.482
  776POPC   GL113033  43.781  10.391   9.165
  776POPC   GL213034  44.153  10.426   9.094
  776POPC   C1A13035  43.789  10.540   8.750
  776POPC   D2A13036  44.014  10.805   8.477
  776POPC   C3A13037  43.871  10.731   8.085
  776POPC   C4A13038  44.004  10.492   7.783
  776POPC   C1B13039  43.997  10.084   8.825
  776POPC   C2B13040  43.848  10.116   8.424
  776POPC   C3B13041  43.950  10.038   8.014
  776POPC   C4B13042  43.655  10.150   7.697
  777POPC   NC313043   9.696  34.746   9.776
  777POPC   PO413044   9.576  34.103   9.651
  777POPC   GL113045   9.587  34.449   9.331
  777POPC   GL213046   9.943  34.463   9.253
  777POPC   C1A13047   9.499  34.498   8.869
  777POPC   D2A13048   9.525  34.640   8.423
  777POPC   C3A13049   9.683  34.496   8.012
  777POPC   C4A13050   9.454  34.480   7.626
  777POPC   C1B13051  10.020  34.473   8.801
  777POPC   C2B13052  10.062  34.728   8.431
  777POPC   C3B13053   9.952  34.959   8.079
  777POPC   C4B13054   9.880  34.804   7.640
  778POPC   NC313055  10.905   5.228   9.624
  778POPC   PO413056  10.261   5.218   9.460
  778POPC   GL113057  10.448   5.114   9.115
  778POPC   GL213058  10.713   4.969   9.232
  778POPC   C1A13059  10.674   5.228   8.754
  778POPC   D2A13060  10.470   5.058   8.406
  778POPC   C3A13061  10.535   5.209   8.033
  778POPC   C4A13062  10.373   5.136   7.651
  778POPC   C1B13063  10.836   4.763   8.854
  778POPC   C2B13064  10.927   4.846   8.454
  778POPC   C3B13065  10.795   4.728   8.033
  778POPC   C4B13066  10.992   4.689   7.607
  779POPC   NC313067  34.584  28.892   9.495
  779POPC   PO413068  34.939  29.371   9.198
  779POPC   GL113069  34.502  29.251   9.096
  779POPC   GL213070  34.320  28.900   9.065
  779POPC   C1A13071  34.362  29.208   8.675
  779POPC   D2A13072  34.506  28.936   8.333
  779POPC   C3A13073  34.637  29.218   8.017
  779POPC   C4A13074  34.722  29.295   7.605
  779POPC   C1B13075  34.047  28.810   8.694
  779POPC   C2B13076  34.087  28.629   8.270
  779POPC   C3B13077  34.260  28.862   7.880
  779POPC   C4B13078  34.692  28.788   7.704
  780POPC   NC313079  43.518  14.231   9.396
  780POPC   PO413080  42.933  14.452   9.493
  780POPC   GL113081  43.041  14.464   9.109
  780POPC   GL213082  43.366  14.586   8.994
  780POPC   C1A13083  42.920  14.542   8.706
  780POPC   D2A13084  43.025  14.370   8.313
  780POPC   C3A13085  43.281  14.574   7.991
  780POPC   C4A13086  43.081  14.523   7.585
  780POPC   C1B13087  43.278  14.137   8.781
  780POPC   C2B13088  43.331  13.829   8.420
  780POPC   C3B13089  43.205  13.996   8.006
  780POPC   C4B13090  43.434  14.204   7.683
  781POPC   NC313091  15.763   6.682   9.567
  781POPC   PO413092  16.336   7.087   9.545
  781POPC   GL113093  16.239   6.667   9.329
  781POPC   GL213094  15.979   6.820   9.141
  781POPC   C1A13095  16.165   6.430   8.870
  781POPC   D2A13096  15.896   6.344   8.481
  781POPC   C3A13097  16.038   6.409   8.052
  781POPC   C4A13098  16.038   6.310   7.588
  781POPC   C1B13099  15.881   6.840   8.720
  781POPC   C2B13100  15.576   6.758   8.439
  781POPC   C3B13101  15.574   6.681   8.027
  781POPC   C4B13102  15.866   6.766   7.722
  782POPC   NC313103  37.656   2.379   9.365
  782POPC   PO413104  37.332   2.939   9.446
  782POPC   GL113105  37.738   2.902   9.220
  782POPC   GL213106  37.528   2.808   8.981
  782POPC   C1A13107  38.007   2.787   8.820
  782POPC   D2A13108  37.996   2.970   8.376
  782POPC   C3A13109  37.958   2.713   7.998
  782POPC   C4A13110  37.751   2.791   7.596
  782POPC   C1B13111  37.564   2.530   8.690
  782POPC   C2B13112  37.556   2.708   8.327
  782POPC   C3B13113  37.453   2.526   7.958
  782POPC   C4B13114  37.758   2.273   7.780
  783POPC   NC313115   8.995  20.202   9.392
  783POPC   PO413116   8.897  19.711   9.846
  783POPC   GL113117   8.943  19.698   9.312
  783POPC   GL213118   8.665  19.903   9.142
  783POPC   C1A13119   9.107  19.837   8.830
  783POPC   D2A13120   9.385  20.081   8.487
  783POPC   C3A13121   9.204  20.066   8.029
  783POPC   C4A13122   8.999  19.717   7.786
  783POPC   C1B13123   8.715  20.164   8.764
  783POPC   C2B13124   8.833  20.017   8.363
  783POPC   C3B13125   8.724  20.133   7.920
  783POPC   C4B13126   8.699  20.045   7.462
  784POPC   NC313127   3.452   5.423   9.820
  784POPC   PO413128   3.757   6.021   9.738
  784POPC   GL113129   3.645   5.743   9.340
  784POPC   GL213130   3.320   5.609   9.229
  784POPC   C1A13131   3.643   5.795   8.848
  784POPC   D2A13132   3.470   5.766   8.414
  784POPC   C3A13133   3.601   5.919   8.007
  784POPC   C4A13134   3.709   5.743   7.600
  784POPC   C1B13135   3.115   5.659   8.823
  784POPC   C2B13136   2.993   5.610   8.379
  784POPC   C3B13137   3.130   5.695   7.954
  784POPC   C4B13138   3.183   6.098   7.764
  785POPC   NC313139  20.890  41.442   9.692
  785POPC   PO413140  21.370  41.790   9.387
  785POPC   GL113141  21.433  41.365   9.225
  785POPC   GL213142  21.107  41.213   9.286
  785POPC   C1A13143  21.534  41.319   8.784
  785POPC   D2A13144  21.383  41.669   8.512
  785POPC   C3A13145  21.524  41.760   8.079
  785POPC   C4A13146  21.523  41.959   7.646
  785POPC   C1B13147  21.027  41.455   8.886
  785POPC   C2B13148  20.900  41.525   8.444
  785POPC   C3B13149  21.168  41.377   8.121
  785POPC   C4B13150  21.265  41.490   7.707
  786POPC   NC313151  34.260  27.945   9.493
  786POPC   PO413152  34.273  28.565   9.465
  786POPC   GL113153  34.514  28.419   9.141
  786POPC   GL213154  34.835  28.291   9.281
  786POPC   C1A13155  34.480  28.551   8.708
  786POPC   D2A13156  34.460  28.305   8.344
  786POPC   C3A13157  34.474  28.410   7.962
  786POPC   C4A13158  34.644  28.235   7.617
  786POPC   C1B13159  34.910  28.317   8.827
  786POPC   C2B13160  34.906  28.548   8.409
  786POPC   C3B13161  35.002  28.414   7.988
  786POPC   C4B13162  35.093  28.499   7.562
  787POPC   NC313163   0.102  16.524   9.426
  787POPC   PO413164  44.477  16.879   9.497
  787POPC   GL113165  44.635  16.916   9.098
  787POPC   GL213166  44.991  16.972   9.126
  787POPC   C1A13167  44.491  16.658   8.745
  787POPC   D2A13168  44.648  16.382   8.411
  787POPC   C3A13169  44.553  16.449   7.997
  787POPC   C4A13170  44.738  16.353   7.630
  787POPC   C1B13171  44.995  16.766   8.726
  787POPC   C2B13172  44.764  16.896   8.378
  787POPC   C3B13173  44.569  16.975   8.017
  787POPC   C4B13174  44.905  16.791   7.813
  788POPC   NC313175  39.627  38.290   9.460
  788POPC   PO413176  40.323  38.576   9.552
  788POPC   GL113177  40.121  38.551   9.164
  788POPC   GL213178  39.825  38.725   9.136
  788POPC   C1A13179  40.014  38.345   8.767
  788POPC   D2A13180  39.771  38.334   8.364
  788POPC   C3A13181  39.810  38.120   7.954
  788POPC   C4A13182  40.005  38.303   7.581
  788POPC   C1B13183  39.988  38.859   8.738
  788POPC   C2B13184  39.816  38.829   8.346
  788POPC   C3B13185  39.782  38.645   7.919
  788POPC   C4B13186  39.815  38.747   7.452
  789POPC   NC313187  44.076   2.347   9.397
  789POPC   PO413188  43.880   2.952   9.424
  789POPC   GL113189  43.787   2.766   9.050
  789POPC   GL213190  44.119   2.673   8.978
  789POPC   C1A13191  43.783   2.838   8.605
  789POPC   D2A13192  43.849   2.674   8.196
  789POPC   C3A13193  43.652   2.872   7.864
  789POPC   C4A13194  43.669   2.939   7.398
  789POPC   C1B13195  44.336   2.324   8.786
  789POPC   C2B13196  44.379   2.226   8.377
  789POPC   C3B13197  44.254   2.403   8.028
  789POPC   C4B13198  44.075   2.624   7.702
  790POPC   NC313199  13.173  40.738   9.792
  790POPC   PO413200  12.585  40.594   9.492
  790POPC   GL113201  12.862  40.818   9.252
  790POPC   GL213202  13.206  40.835   9.283
  790POPC   C1A13203  12.752  40.838   8.828
  790POPC   D2A13204  12.894  41.129   8.519
  790POPC   C3A13205  12.734  41.007   8.132
  790POPC   C4A13206  12.775  40.870   7.704
  790POPC   C1B13207  13.248  40.854   8.840
  790POPC   C2B13208  13.124  40.668   8.418
  790POPC   C3B13209  13.200  40.847   7.996
  790POPC   C4B13210  13.401  41.156   7.738
  791POPC   NC313211   4.534   2.160   9.613
  791POPC   PO413212   4.007   1.816   9.706
  791POPC   GL113213   4.250   1.877   9.298
  791POPC   GL213214   4.286   2.247   9.183
  791POPC   C1A13215   4.182   1.858   8.864
  791POPC   D2A13216   4.419   1.867   8.500
  791POPC   C3A13217   4.311   2.004   8.120
  791POPC   C4A13218   4.447   1.828   7.758
  791POPC   C1B13219   4.322   2.356   8.748
  791POPC   C2B13220   4.274   2.473   8.326
  791POPC   C3B13221   4.462   2.465   7.930
  791POPC   C4B13222   4.354   2.268   7.526
  792POPC   NC313223   4.027  34.746   9.326
  792POPC   PO413224   4.345  34.233   9.566
  792POPC   GL113225   4.355  34.347   9.145
  792POPC   GL213226   4.532  34.691   9.127
  792POPC   C1A13227   4.432  34.433   8.698
  792POPC   D2A13228   4.251  34.678   8.368
  792POPC   C3A13229   4.355  34.507   7.978
  792POPC   C4A13230   4.244  34.581   7.555
  792POPC   C1B13231   4.581  34.950   8.707
  792POPC   C2B13232   4.621  35.000   8.226
  792POPC   C3B13233   4.652  34.842   7.748
  792POPC   C4B13234   4.602  34.758   7.264
  793POPC   NC313235  37.137  13.110   9.499
  793POPC   PO413236  36.770  12.654   9.720
  793POPC   GL113237  36.859  12.708   9.253
  793POPC   GL213238  37.148  12.784   9.072
  793POPC   C1A13239  36.672  12.746   8.841
  793POPC   D2A13240  36.878  12.856   8.485
  793POPC   C3A13241  36.784  12.644   8.129
  793POPC   C4A13242  36.862  12.673   7.716
  793POPC   C1B13243  37.298  13.016   8.728
  793POPC   C2B13244  37.186  13.327   8.439
  793POPC   C3B13245  37.091  13.095   8.095
  793POPC   C4B13246  37.257  13.023   7.694
  794POPC   NC313247  13.186   7.041   9.489
  794POPC   PO413248  12.983   6.345   9.525
  794POPC   GL113249  12.828   6.582   9.167
  794POPC   GL213250  12.999   6.897   9.039
  794POPC   C1A13251  12.770   6.590   8.702
  794POPC   D2A13252  13.004   6.665   8.362
  794POPC   C3A13253  12.814   6.507   8.001
  794POPC   C4A13254  12.435   6.671   7.885
  794POPC   C1B13255  12.667   7.070   8.752
  794POPC   C2B13256  12.520   6.958   8.328
  794POPC   C3B13257  12.773   7.050   7.977
  794POPC   C4B13258  13.174   6.847   7.868
  795POPC   NC313259  39.177  29.558   9.493
  795POPC   PO413260  39.145  28.936   9.660
  795POPC   GL113261  39.320  28.970   9.191
  795POPC   GL213262  39.403  29.323   9.098
  795POPC   C1A13263  39.319  28.943   8.720
  795POPC   D2A13264  39.500  28.963   8.278
  795POPC   C3A13265  39.160  28.868   7.969
  795POPC   C4A13266  39.079  28.972   7.553
  795POPC   C1B13267  39.397  29.484   8.667
  795POPC   C2B13268  39.303  29.482   8.244
  795POPC   C3B13269  39.392  29.311   7.869
  795POPC   C4B13270  39.457  29.321   7.444
  796POPC   NC313271  22.499  36.968   9.501
  796POPC   PO413272  21.844  36.953   9.614
  796POPC   GL113273  21.991  36.976   9.199
  796POPC   GL213274  21.777  36.725   9.107
  796POPC   C1A13275  22.345  37.002   8.884
  796POPC   D2A13276  22.494  36.888   8.505
  796POPC   C3A13277  22.255  36.716   8.156
  796POPC   C4A13278  22.442  36.858   7.758
  796POPC   C1B13279  21.968  36.713   8.696
  796POPC   C2B13280  21.750  36.845   8.333
  796POPC   C3B13281  21.738  36.714   7.936
  796POPC   C4B13282  21.940  36.614   7.552
  797POPC   NC313283  44.883  26.504   9.267
  797POPC   PO413284  44.432  26.866   9.652
  797POPC   GL113285  44.584  26.930   9.234
  797POPC   GL213286  44.785  27.235   9.233
  797POPC   C1A13287  44.579  26.876   8.779
  797POPC   D2A13288  44.347  26.729   8.404
  797POPC   C3A13289  44.595  26.606   8.083
  797POPC   C4A13290  44.682  26.818   7.694
  797POPC   C1B13291   0.035  27.077   8.886
  797POPC   C2B13292   0.021  26.894   8.497
  797POPC   C3B13293  44.978  26.978   8.066
  797POPC   C4B13294   0.016  27.202   7.648
  798POPC   NC313295  40.412  24.678   9.489
  798POPC   PO413296  39.929  24.220   9.340
  798POPC   GL113297  39.834  24.540   9.094
  798POPC   GL213298  40.151  24.676   9.059
  798POPC   C1A13299  39.743  24.445   8.682
  798POPC   D2A13300  39.901  24.652   8.322
  798POPC   C3A13301  39.999  24.399   8.000
  798POPC   C4A13302  39.996  24.584   7.626
  798POPC   C1B13303  40.254  24.521   8.664
  798POPC   C2B13304  40.420  24.605   8.268
  798POPC   C3B13305  40.365  24.820   7.915
  798POPC   C4B13306  40.496  24.668   7.545
  799POPC   NC313307  44.675  26.385   9.715
  799POPC   PO413308  44.529  25.714   9.440
  799POPC   GL113309  44.574  26.107   9.269
  799POPC   GL213310  44.836  26.071   8.992
  799POPC   C1A13311  44.393  26.251   8.878
  799POPC   D2A13312  44.499  25.886   8.607
  799POPC   C3A13313  44.423  25.893   8.185
  799POPC   C4A13314  44.376  26.183   7.848
  799POPC   C1B13315  44.805  26.413   8.609
  799POPC   C2B13316   0.086  26.474   8.220
  799POPC   C3B13317  44.950  26.345   7.819
  799POPC   C4B13318  44.805  25.928   7.818
  800POPC   NC313319  21.062   2.914   9.558
  800POPC   PO413320  21.706   2.856   9.449
  800POPC   GL113321  21.534   2.679   9.137
  800POPC   GL213322  21.313   2.973   9.125
  800POPC   C1A13323  21.681   2.492   8.758
  800POPC   D2A13324  21.502   2.525   8.370
  800POPC   C3A13325  21.790   2.537   8.046
  800POPC   C4A13326  21.471   2.477   7.753
  800POPC   C1B13327  21.231   2.826   8.752
  800POPC   C2B13328  21.288   3.001   8.381
  800POPC   C3B13329  21.459   2.939   8.007
  800POPC   C4B13330  21.187   3.046   7.691
  801POPC   NC313331   8.207  10.466   9.530
  801POPC   PO413332   7.927   9.922   9.110
  801POPC   GL113333   8.094  10.286   9.071
  801POPC   GL213334   8.458  10.216   9.151
  801POPC   C1A13335   7.996  10.529   8.718
  801POPC   D2A13336   8.119  10.412   8.298
  801POPC   C3A13337   7.916  10.610   7.944
  801POPC   C4A13338   8.043  10.701   7.519
  801POPC   C1B13339   8.452  10.638   8.918
  801POPC   C2B13340   8.444  10.798   8.463
  801POPC   C3B13341   8.420  10.675   7.983
  801POPC   C4B13342   8.566  10.237   7.921
  802POPC   NC313343  25.174  38.193   9.338
  802POPC   PO413344  25.202  37.564   9.629
  802POPC   GL113345  25.482  37.512   9.284
  802POPC   GL213346  25.359  37.784   9.085
  802POPC   C1A13347  25.502  37.377   8.832
  802POPC   D2A13348  25.460  37.677   8.497
  802POPC   C3A13349  25.208  37.639   8.180
  802POPC   C4A13350  25.219  37.543   7.765
  802POPC   C1B13351  25.161  38.020   8.723
  802POPC   C2B13352  25.183  38.143   8.312
  802POPC   C3B13353  25.053  38.039   7.916
  802POPC   C4B13354  24.964  38.168   7.532
  803POPC   NC313355  20.185  31.904   9.526
  803POPC   PO413356  20.868  31.985   9.577
  803POPC   GL113357  20.603  31.981   9.214
  803POPC   GL213358  20.713  32.273   9.092
  803POPC   C1A13359  20.440  32.040   8.747
  803POPC   D2A13360  20.441  32.405   8.422
  803POPC   C3A13361  20.463  32.333   7.957
  803POPC   C4A13362  20.210  31.998   7.746
  803POPC   C1B13363  20.919  32.185   8.701
  803POPC   C2B13364  20.904  32.234   8.248
  803POPC   C3B13365  20.924  32.089   7.826
  803POPC   C4B13366  21.176  32.234   7.450
  804POPC   NC313367  36.371  41.850   9.445
  804POPC   PO413368  37.030  41.609   9.487
  804POPC   GL113369  36.989  41.514   9.077
  804POPC   GL213370  36.633  41.564   9.018
  804POPC   C1A13371  36.989  41.423   8.647
  804POPC   D2A13372  36.941  41.628   8.257
  804POPC   C3A13373  36.822  41.427   7.874
  804POPC   C4A13374  36.603  41.336   7.502
  804POPC   C1B13375  36.765  41.891   8.679
  804POPC   C2B13376  36.573  42.035   8.278
  804POPC   C3B13377  36.609  41.896   7.828
  804POPC   C4B13378  36.682  41.839   7.363
  805POPC   NC313379  44.218  39.594   9.430
  805POPC   PO413380  43.738  39.204   9.703
  805POPC   GL113381  43.835  39.126   9.273
  805POPC   GL213382  44.067  39.267   9.066
  805POPC   C1A13383  43.691  38.995   8.860
  805POPC   D2A13384  43.863  38.959   8.431
  805POPC   C3A13385  43.802  39.123   8.010
  805POPC   C4A13386  44.020  39.017   7.624
  805POPC   C1B13387  43.872  39.430   8.674
  805POPC   C2B13388  44.098  39.409   8.306
  805POPC   C3B13389  44.193  39.548   7.961
  805POPC   C4B13390  43.915  39.506   7.657
  806POPC   NC313391  25.870  39.743   9.512
  806POPC   PO413392  26.353  40.161   9.611
  806POPC   GL113393  26.160  40.052   9.207
  806POPC   GL213394  25.810  40.199   9.157
  806POPC   C1A13395  26.066  39.959   8.779
  806POPC   D2A13396  25.991  40.095   8.404
  806POPC   C3A13397  26.005  39.850   8.066
  806POPC   C4A13398  26.108  39.993   7.652
  806POPC   C1B13399  25.605  40.202   8.730
  806POPC   C2B13400  25.527  40.366   8.313
  806POPC   C3B13401  25.492  40.186   7.873
  806POPC   C4B13402  25.633  39.954   7.488
  807POPC   NC313403  37.915  10.259   9.727
  807POPC   PO413404  38.599  10.572   9.626
  807POPC   GL113405  38.649  10.709   9.213
  807POPC   GL213406  38.280  10.773   9.231
  807POPC   C1A13407  38.694  10.531   8.787
  807POPC   D2A13408  38.582  10.688   8.402
  807POPC   C3A13409  38.712  10.521   8.036
  807POPC   C4A13410  38.653  10.283   7.684
  807POPC   C1B13411  38.289  10.892   8.804
  807POPC   C2B13412  38.250  11.066   8.394
  807POPC   C3B13413  38.368  10.959   8.000
  807POPC   C4B13414  38.237  10.584   7.827
  808POPC   NC313415  12.919  37.906   9.523
  808POPC   PO413416  13.159  37.371   9.617
  808POPC   GL113417  12.877  37.479   9.219
  808POPC   GL213418  12.679  37.787   9.110
  808POPC   C1A13419  13.020  37.592   8.812
  808POPC   D2A13420  12.834  37.667   8.430
  808POPC   C3A13421  13.032  37.543   8.078
  808POPC   C4A13422  12.886  37.394   7.688
  808POPC   C1B13423  12.770  38.049   8.760
  808POPC   C2B13424  12.566  38.096   8.392
  808POPC   C3B13425  12.567  37.827   8.017
  808POPC   C4B13426  12.903  37.886   7.709
  809POPC   NC313427  37.125  40.355   9.556
  809POPC   PO413428  37.351  39.824   9.163
  809POPC   GL113429  36.963  40.101   9.112
  809POPC   GL213430  36.679  40.247   9.320
  809POPC   C1A13431  36.827  40.048   8.701
  809POPC   D2A13432  37.008  40.131   8.324
  809POPC   C3A13433  36.764  39.936   8.017
  809POPC   C4A13434  36.963  39.938   7.618
  809POPC   C1B13435  36.561  40.412   8.930
  809POPC   C2B13436  36.492  40.430   8.494
  809POPC   C3B13437  36.656  40.437   8.112
  809POPC   C4B13438  36.731  40.367   7.709
  810POPC   NC313439  24.732  21.442   9.598
  810POPC   PO413440  24.094  21.186   9.538
  810POPC   GL113441  24.444  21.256   9.220
  810POPC   GL213442  24.717  20.988   9.347
  810POPC   C1A13443  24.439  21.596   8.870
  810POPC   D2A13444  24.235  21.682   8.467
  810POPC   C3A13445  24.421  21.597   8.041
  810POPC   C4A13446  24.177  21.277   7.787
  810POPC   C1B13447  24.772  20.932   8.918
  810POPC   C2B13448  24.744  21.099   8.492
  810POPC   C3B13449  24.576  21.080   8.055
  810POPC   C4B13450  24.595  21.069   7.589
  811POPC   NC313451  36.691  38.687   9.562
  811POPC   PO413452  37.188  38.246   9.614
  811POPC   GL113453  37.057  38.472   9.222
  811POPC   GL213454  36.692  38.429   9.136
  811POPC   C1A13455  37.080  38.569   8.773
  811POPC   D2A13456  37.185  38.376   8.380
  811POPC   C3A13457  36.945  38.337   7.993
  811POPC   C4A13458  36.853  38.691   7.710
  811POPC   C1B13459  36.728  38.187   8.796
  811POPC   C2B13460  36.665  38.382   8.420
  811POPC   C3B13461  36.464  38.560   8.088
  811POPC   C4B13462  36.489  38.318   7.730
  812POPC   NC313463  30.493  35.623   9.593
  812POPC   PO413464  30.913  36.156   9.584
  812POPC   GL113465  30.853  35.971   9.175
  812POPC   GL213466  30.549  35.776   9.085
  812POPC   C1A13467  30.945  35.982   8.727
  812POPC   D2A13468  30.709  36.126   8.371
  812POPC   C3A13469  30.969  36.215   8.056
  812POPC   C4A13470  30.957  36.079   7.652
  812POPC   C1B13471  30.480  36.190   8.834
  812POPC   C2B13472  30.575  36.573   8.581
  812POPC   C3B13473  30.519  36.578   8.139
  812POPC   C4B13474  30.632  36.439   7.757
  813POPC   NC313475  42.271   7.954   9.634
  813POPC   PO413476  42.705   8.397   9.706
  813POPC   GL113477  42.533   8.274   9.276
  813POPC   GL213478  42.158   8.200   9.196
  813POPC   C1A13479  42.633   8.295   8.825
  813POPC   D2A13480  42.663   8.454   8.392
  813POPC   C3A13481  42.349   8.360   8.073
  813POPC   C4A13482  42.344   8.516   7.671
  813POPC   C1B13483  42.115   8.286   8.754
  813POPC   C2B13484  42.204   8.003   8.412
  813POPC   C3B13485  41.995   7.926   7.999
  813POPC   C4B13486  41.996   8.147   7.653
  814POPC   NC313487  34.603  23.966   9.528
  814POPC   PO413488  34.216  23.325   9.472
  814POPC   GL113489  34.452  23.557   9.144
  814POPC   GL213490  34.495  23.898   9.048
  814POPC   C1A13491  34.495  23.524   8.718
  814POPC   D2A13492  34.482  23.829   8.412
  814POPC   C3A13493  34.478  23.668   7.998
  814POPC   C4A13494  34.641  23.565   7.613
  814POPC   C1B13495  34.834  24.003   8.774
  814POPC   C2B13496  34.996  23.880   8.358
  814POPC   C3B13497  34.865  23.978   7.947
  814POPC   C4B13498  34.777  24.045   7.508
  815POPC   NC313499  28.940  17.159   9.494
  815POPC   PO413500  29.190  16.533   9.549
  815POPC   GL113501  29.146  16.475   9.110
  815POPC   GL213502  28.866  16.713   9.197
  815POPC   C1A13503  29.334  16.583   8.691
  815POPC   D2A13504  29.449  17.000   8.464
  815POPC   C3A13505  29.529  17.012   7.987
  815POPC   C4A13506  29.309  16.769   7.650
  815POPC   C1B13507  29.020  16.963   8.876
  815POPC   C2B13508  28.932  16.826   8.498
  815POPC   C3B13509  29.104  16.722   8.131
  815POPC   C4B13510  28.875  16.424   7.928
  816POPC   NC313511   4.156  38.952   9.467
  816POPC   PO413512   4.519  39.421   9.801
  816POPC   GL113513   4.535  39.311   9.374
  816POPC   GL213514   4.285  39.550   9.284
  816POPC   C1A13515   4.487  39.206   8.912
  816POPC   D2A13516   4.171  39.221   8.572
  816POPC   C3A13517   4.293  39.251   8.133
  816POPC   C4A13518   4.152  39.067   7.761
  816POPC   C1B13519   4.358  39.705   8.869
  816POPC   C2B13520   4.474  39.615   8.456
  816POPC   C3B13521   4.440  39.778   8.033
  816POPC   C4B13522   4.565  39.613   7.645
  817POPC   NC313523  20.257  20.470   9.410
  817POPC   PO413524  19.702  20.776   9.557
  817POPC   GL113525  19.600  20.620   9.148
  817POPC   GL213526  19.855  20.383   9.110
  817POPC   C1A13527  19.630  20.557   8.704
  817POPC   D2A13528  19.875  20.523   8.327
  817POPC   C3A13529  19.609  20.600   7.993
  817POPC   C4A13530  19.580  20.248   7.727
  817POPC   C1B13531  20.148  20.442   8.769
  817POPC   C2B13532  20.270  20.188   8.436
  817POPC   C3B13533  20.362  20.441   8.125
  817POPC   C4B13534  20.068  20.539   7.808
  818POPC   NC313535   4.941  36.826   9.412
  818POPC   PO413536   4.278  36.981   9.408
  818POPC   GL113537   4.271  37.024   9.040
  818POPC   GL213538   4.623  36.933   8.989
  818POPC   C1A13539   4.251  37.143   8.640
  818POPC   D2A13540   4.593  37.032   8.423
  818POPC   C3A13541   4.440  36.835   8.085
  818POPC   C4A13542   4.332  36.941   7.707
  818POPC   C1B13543   4.375  36.619   8.767
  818POPC   C2B13544   4.603  36.517   8.442
  818POPC   C3B13545   4.677  36.375   8.071
  818POPC   C4B13546   4.599  36.525   7.669
  819POPC   NC313547  27.083  17.761   9.670
  819POPC   PO413548  26.736  17.178   9.568
  819POPC   GL113549  26.934  17.439   9.285
  819POPC   GL213550  26.736  17.772   9.302
  819POPC   C1A13551  27.023  17.338   8.878
  819POPC   D2A13552  26.889  17.435   8.465
  819POPC   C3A13553  27.045  17.164   8.142
  819POPC   C4A13554  26.855  17.045   7.762
  819POPC   C1B13555  26.882  17.853   8.900
  819POPC   C2B13556  26.787  17.941   8.476
  819POPC   C3B13557  27.068  17.820   8.160
  819POPC   C4B13558  26.946  17.551   7.822
  820POPC   NC313559  31.023   5.019   9.602
  820POPC   PO413560  30.397   5.240   9.644
  820POPC   GL113561  30.474   5.101   9.208
  820POPC   GL213562  30.806   4.993   9.065
  820POPC   C1A13563  30.381   5.052   8.764
  820POPC   D2A13564  30.713   5.014   8.438
  820POPC   C3A13565  30.696   5.125   8.000
  820POPC   C4A13566  30.815   4.867   7.635
  820POPC   C1B13567  30.755   5.405   8.776
  820POPC   C2B13568  30.825   5.547   8.316
  820POPC   C3B13569  31.115   5.448   7.969
  820POPC   C4B13570  31.074   5.275   7.556
  821POPC   NC313571   8.714   0.400   9.512
  821POPC   PO413572   9.387   0.341   9.511
  821POPC   GL113573   9.088   0.303   9.129
  821POPC   GL213574   8.911   0.612   9.046
  821POPC   C1A13575   8.788   0.261   8.730
  821POPC   D2A13576   8.622   0.444   8.315
  821POPC   C3A13577   8.873   0.267   7.966
  821POPC   C4A13578   8.910   0.218   7.519
  821POPC   C1B13579   9.041   0.749   8.633
  821POPC   C2B13580   9.034   0.720   8.180
  821POPC   C3B13581   8.751   0.759   7.850
  821POPC   C4B13582   8.789   0.708   7.405
  822POPC   NC313583   4.483  12.421   9.442
  822POPC   PO413584   3.995  11.982   9.550
  822POPC   GL113585   4.169  11.816   9.182
  822POPC   GL213586   4.557  11.813   9.153
  822POPC   C1A13587   3.966  11.961   8.775
  822POPC   D2A13588   3.866  12.187   8.380
  822POPC   C3A13589   4.276  12.288   8.212
  822POPC   C4A13590   4.450  12.204   7.817
  822POPC   C1B13591   4.459  11.814   8.721
  822POPC   C2B13592   4.205  11.756   8.353
  822POPC   C3B13593   4.384  11.703   7.940
  822POPC   C4B13594   4.672  11.802   7.594
  823POPC   NC313595  19.438  38.180   9.526
  823POPC   PO413596  20.022  38.494   9.442
  823POPC   GL113597  19.805  38.216   9.143
  823POPC   GL213598  19.468  38.107   9.040
  823POPC   C1A13599  19.856  38.121   8.720
  823POPC   D2A13600  19.838  38.001   8.318
  823POPC   C3A13601  20.105  38.308   8.148
  823POPC   C4A13602  20.279  38.375   7.768
  823POPC   C1B13603  19.337  38.493   8.773
  823POPC   C2B13604  19.212  38.525   8.351
  823POPC   C3B13605  19.616  38.507   8.135
  823POPC   C4B13606  19.903  38.713   7.863
  824POPC   NC313607  39.403  36.344   9.640
  824POPC   PO413608  39.046  35.807   9.388
  824POPC   GL113609  39.323  36.009   9.116
  824POPC   GL213610  39.286  36.340   9.144
  824POPC   C1A13611  39.263  35.923   8.713
  824POPC   D2A13612  38.951  35.779   8.447
  824POPC   C3A13613  39.160  35.885   8.099
  824POPC   C4A13614  39.452  35.977   7.782
  824POPC   C1B13615  39.355  36.429   8.731
  824POPC   C2B13616  39.424  36.279   8.314
  824POPC   C3B13617  39.536  36.464   7.907
  824POPC   C4B13618  39.307  36.512   7.507
  825POPC   NC313619   1.839  29.551   9.296
  825POPC   PO413620   2.386  29.904   9.476
  825POPC   GL113621   2.228  29.965   9.103
  825POPC   GL213622   1.868  30.036   9.080
  825POPC   C1A13623   2.137  29.724   8.744
  825POPC   D2A13624   1.904  29.594   8.427
  825POPC   C3A13625   2.029  29.732   8.050
  825POPC   C4A13626   1.959  29.678   7.631
  825POPC   C1B13627   1.660  29.974   8.678
  825POPC   C2B13628   1.485  29.898   8.266
  825POPC   C3B13629   1.690  30.103   7.948
  825POPC   C4B13630   2.114  30.178   7.777
  826POPC   NC313631  26.669  15.030   9.522
  826POPC   PO413632  27.003  15.555   9.280
  826POPC   GL113633  26.943  15.138   9.094
  826POPC   GL213634  27.114  15.127   8.788
  826POPC   C1A13635  26.616  14.945   8.786
  826POPC   D2A13636  26.427  15.116   8.367
  826POPC   C3A13637  26.676  14.965   8.018
  826POPC   C4A13638  27.105  15.142   7.886
  826POPC   C1B13639  26.746  15.421   8.689
  826POPC   C2B13640  26.759  15.707   8.373
  826POPC   C3B13641  26.785  15.579   7.960
  826POPC   C4B13642  26.583  15.688   7.607
  827POPC   NC313643  30.831   0.886   9.636
  827POPC   PO413644  30.545   1.315   9.141
  827POPC   GL113645  30.942   1.239   9.024
  827POPC   GL213646  30.969   0.903   9.140
  827POPC   C1A13647  30.994   1.297   8.584
  827POPC   D2A13648  30.903   1.359   8.138
  827POPC   C3A13649  30.517   1.321   7.868
  827POPC   C4A13650  30.515   1.458   7.396
  827POPC   C1B13651  30.807   0.829   8.733
  827POPC   C2B13652  30.621   0.990   8.371
  827POPC   C3B13653  30.763   0.878   7.960
  827POPC   C4B13654  30.529   0.864   7.624
  828POPC   NC313655  35.409  10.381   9.580
  828POPC   PO413656  35.067  10.953   9.463
  828POPC   GL113657  35.346  10.746   9.157
  828POPC   GL213658  35.290  10.383   9.093
  828POPC   C1A13659  35.570  10.863   8.808
  828POPC   D2A13660  35.748  10.804   8.414
  828POPC   C3A13661  35.632  10.887   8.004
  828POPC   C4A13662  35.836  10.762   7.612
  828POPC   C1B13663  35.547  10.363   8.725
  828POPC   C2B13664  35.417  10.427   8.301
  828POPC   C3B13665  35.337  10.348   7.894
  828POPC   C4B13666  35.237   9.990   7.581
  829POPC   NC313667  28.163  26.184   9.627
  829POPC   PO413668  28.528  25.630   9.382
  829POPC   GL113669  28.228  25.881   9.210
  829POPC   GL213670  28.265  26.247   9.154
  829POPC   C1A13671  28.050  25.939   8.829
  829POPC   D2A13672  28.252  26.044   8.463
  829POPC   C3A13673  28.117  25.837   8.137
  829POPC   C4A13674  28.188  25.929   7.740
  829POPC   C1B13675  28.153  26.444   8.785
  829POPC   C2B13676  28.400  26.527   8.442
  829POPC   C3B13677  28.250  26.390   8.045
  829POPC   C4B13678  28.092  26.420   7.590
  830POPC   NC313679  11.248  42.269   9.475
  830POPC   PO413680  10.696  42.669   9.285
  830POPC   GL113681  11.031  42.477   9.004
  830POPC   GL213682  11.369  42.567   9.080
  830POPC   C1A13683  11.116  42.316   8.551
  830POPC   D2A13684  11.329  42.030   8.223
  830POPC   C3A13685  11.265  42.205   7.793
  830POPC   C4A13686  11.020  42.252   7.390
  830POPC   C1B13687  11.544  42.520   8.680
  830POPC   C2B13688  11.519  42.508   8.233
  830POPC   C3B13689  11.748  42.505   7.852
  830POPC   C4B13690  11.556  42.465   7.452
  831POPC   NC313691  12.120  30.389   9.777
  831POPC   PO413692  12.297  29.990   9.330
  831POPC   GL113693  12.158  29.938   8.982
  831POPC   GL213694  11.836  29.950   9.018
  831POPC   C1A13695  12.370  29.805   8.638
  831POPC   D2A13696  12.600  30.099   8.442
  831POPC   C3A13697  12.416  30.033   8.072
  831POPC   C4A13698  12.273  29.962   7.672
  831POPC   C1B13699  11.884  30.058   8.578
  831POPC   C2B13700  11.918  30.255   8.189
  831POPC   C3B13701  11.844  30.162   7.807
  831POPC   C4B13702  11.786  29.728   7.845
  832POPC   NC313703  27.239   9.156   9.682
  832POPC   PO413704  27.895   9.269   9.624
  832POPC   GL113705  27.698   8.940   9.325
  832POPC   GL213706  27.351   8.982   9.239
  832POPC   C1A13707  27.633   8.861   8.854
  832POPC   D2A13708  27.786   8.899   8.437
  832POPC   C3A13709  27.587   8.910   8.027
  832POPC   C4A13710  27.900   9.214   7.845
  832POPC   C1B13711  27.147   9.132   8.895
  832POPC   C2B13712  27.245   8.946   8.496
  832POPC   C3B13713  27.057   9.001   8.117
  832POPC   C4B13714  27.172   9.217   7.786
  833POPC   NC313715  38.427  23.373   9.556
  833POPC   PO413716  38.333  24.051   9.524
  833POPC   GL113717  38.510  23.767   9.196
  833POPC   GL213718  38.833  23.531   9.259
  833POPC   C1A13719  38.498  23.909   8.765
  833POPC   D2A13720  38.462  24.042   8.314
  833POPC   C3A13721  38.293  23.720   8.019
  833POPC   C4A13722  37.988  23.701   7.667
  833POPC   C1B13723  38.783  23.476   8.820
  833POPC   C2B13724  38.883  23.759   8.451
  833POPC   C3B13725  38.817  23.815   7.989
  833POPC   C4B13726  38.702  23.435   7.793
  834POPC   NC313727  36.169  22.723   9.683
  834POPC   PO413728  35.837  23.253   9.437
  834POPC   GL113729  36.130  23.117   9.177
  834POPC   GL213730  36.275  22.800   9.197
  834POPC   C1A13731  36.219  23.114   8.763
  834POPC   D2A13732  36.289  22.902   8.399
  834POPC   C3A13733  36.121  23.033   8.022
  834POPC   C4A13734  36.255  22.833   7.618
  834POPC   C1B13735  36.249  22.602   8.831
  834POPC   C2B13736  36.214  22.386   8.450
  834POPC   C3B13737  36.224  22.514   8.037
  834POPC   C4B13738  36.553  22.433   7.725
  835POPC   NC313739   9.344  37.336   9.422
  835POPC   PO413740   8.959  37.870   9.528
  835POPC   GL113741   8.938  37.608   9.169
  835POPC   GL213742   8.873  37.228   9.213
  835POPC   C1A13743   9.110  37.805   8.806
  835POPC   D2A13744   8.949  38.070   8.453
  835POPC   C3A13745   9.034  37.888   8.022
  835POPC   C4A13746   9.365  37.722   7.747
  835POPC   C1B13747   9.106  37.261   8.808
  835POPC   C2B13748   9.088  37.500   8.414
  835POPC   C3B13749   8.796  37.442   8.098
  835POPC   C4B13750   8.916  37.456   7.693
  836POPC   NC313751   7.194  36.017   9.576
  836POPC   PO413752   7.506  36.636   9.470
  836POPC   GL113753   7.412  36.240   9.169
  836POPC   GL213754   7.024  36.211   9.142
  836POPC   C1A13755   7.294  35.990   8.764
  836POPC   D2A13756   7.171  35.990   8.310
  836POPC   C3A13757   7.524  36.149   8.050
  836POPC   C4A13758   7.665  36.000   7.652
  836POPC   C1B13759   7.052  36.452   8.751
  836POPC   C2B13760   7.223  36.503   8.319
  836POPC   C3B13761   7.129  36.417   7.873
  836POPC   C4B13762   7.244  36.226   7.446
  837POPC   NC313763   8.401  42.935   9.384
  837POPC   PO413764   8.165  42.377   9.501
  837POPC   GL113765   8.274  42.253   9.094
  837POPC   GL213766   8.136  42.562   8.983
  837POPC   C1A13767   8.337  41.972   8.714
  837POPC   D2A13768   8.187  42.154   8.322
  837POPC   C3A13769   8.190  41.970   7.910
  837POPC   C4A13770   8.033  42.249   7.556
  837POPC   C1B13771   8.480  42.469   8.675
  837POPC   C2B13772   8.658  42.331   8.280
  837POPC   C3B13773   8.480  42.394   7.883
  837POPC   C4B13774   8.396  42.583   7.479
  838POPC   NC313775  31.532  40.401   9.717
  838POPC   PO413776  31.139  40.107   9.422
  838POPC   GL113777  31.554  40.108   9.142
  838POPC   GL213778  31.864  40.287   9.300
  838POPC   C1A13779  31.622  39.888   8.714
  838POPC   D2A13780  31.669  39.618   8.305
  838POPC   C3A13781  31.477  39.702   7.882
  838POPC   C4A13782  31.431  39.537   7.436
  838POPC   C1B13783  32.014  40.219   8.837
  838POPC   C2B13784  31.943  40.076   8.366
  838POPC   C3B13785  31.794  40.171   7.947
  838POPC   C4B13786  31.918  40.419   7.569
  839POPC   NC313787  21.681  42.601   9.627
  839POPC   PO413788  22.063  42.039   9.555
  839POPC   GL113789  22.287  42.258   9.230
  839POPC   GL213790  22.011  42.459   9.215
  839POPC   C1A13791  22.209  42.188   8.751
  839POPC   D2A13792  22.075  42.372   8.365
  839POPC   C3A13793  22.292  42.294   7.992
  839POPC   C4A13794  22.294  42.660   7.716
  839POPC   C1B13795  21.768  42.107   8.963
  839POPC   C2B13796  21.693  42.070   8.500
  839POPC   C3B13797  21.682  42.239   8.054
  839POPC   C4B13798  21.888  42.326   7.675
  840POPC   NC313799  42.110  44.126   9.548
  840POPC   PO413800  42.459  43.424   9.499
  840POPC   GL113801  42.400  43.669   9.128
  840POPC   GL213802  42.290  43.997   9.112
  840POPC   C1A13803  42.307  43.720   8.682
  840POPC   D2A13804  42.560  43.535   8.371
  840POPC   C3A13805  42.566  43.785   7.974
  840POPC   C4A13806  42.442  43.721   7.530
  840POPC   C1B13807  42.478  44.212   8.809
  840POPC   C2B13808  42.290  44.215   8.412
  840POPC   C3B13809  42.142  44.110   8.056
  840POPC   C4B13810  42.321  44.185   7.696
  841POPC   NC313811  30.190  44.364   9.297
  841POPC   PO413812  30.033   0.017   9.356
  841POPC   GL113813  29.897  44.708   9.061
  841POPC   GL213814  29.685  44.384   9.158
  841POPC   C1A13815  30.038  44.574   8.645
  841POPC   D2A13816  30.248  44.558   8.254
  841POPC   C3A13817  30.080  44.336   7.884
  841POPC   C4A13818  30.084  44.337   7.412
  841POPC   C1B13819  29.524  44.557   8.762
  841POPC   C2B13820  29.626  44.542   8.327
  841POPC   C3B13821  29.657  44.656   7.899
  841POPC   C4B13822  29.984  44.784   7.642
  842POPC   NC313823  14.039   9.468   9.440
  842POPC   PO413824  14.698   9.685   9.532
  842POPC   GL113825  14.581   9.567   9.151
  842POPC   GL213826  14.315   9.793   9.126
  842POPC   C1A13827  14.461   9.501   8.728
  842POPC   D2A13828  14.576   9.537   8.307
  842POPC   C3A13829  14.334   9.766   8.054
  842POPC   C4A13830  14.283   9.708   7.633
  842POPC   C1B13831  14.078   9.977   8.784
  842POPC   C2B13832  13.920   9.955   8.332
  842POPC   C3B13833  13.931  10.008   7.861
  842POPC   C4B13834  13.959  10.058   7.409
  843POPC   NC313835  18.807   5.362   9.391
  843POPC   PO413836  19.194   5.943   9.584
  843POPC   GL113837  19.045   5.915   9.195
  843POPC   GL213838  19.158   5.612   9.116
  843POPC   C1A13839  19.126   6.054   8.791
  843POPC   D2A13840  18.974   5.932   8.384
  843POPC   C3A13841  19.258   5.914   8.072
  843POPC   C4A13842  19.222   6.044   7.680
  843POPC   C1B13843  18.939   5.540   8.710
  843POPC   C2B13844  18.920   5.458   8.241
  843POPC   C3B13845  18.959   5.465   7.774
  843POPC   C4B13846  19.064   5.408   7.321
  844POPC   NC313847  10.142  33.197   9.444
  844POPC   PO413848  10.802  32.995   9.463
  844POPC   GL113849  10.681  32.819   9.105
  844POPC   GL213850  10.455  33.083   9.062
  844POPC   C1A13851  10.682  32.855   8.670
  844POPC   D2A13852  10.884  33.108   8.402
  844POPC   C3A13853  10.865  32.909   8.051
  844POPC   C4A13854  10.574  32.746   7.823
  844POPC   C1B13855  10.200  33.025   8.697
  844POPC   C2B13856  10.320  32.941   8.249
  844POPC   C3B13857  10.281  33.207   7.869
  844POPC   C4B13858  10.021  33.201   7.484
  845POPC   NC313859   7.105  25.585   9.348
  845POPC   PO413860   7.483  25.091   9.645
  845POPC   GL113861   7.582  25.208   9.216
  845POPC   GL213862   7.603  25.565   9.098
  845POPC   C1A13863   7.699  25.097   8.803
  845POPC   D2A13864   7.574  25.027   8.414
  845POPC   C3A13865   7.684  25.310   8.100
  845POPC   C4A13866   7.583  25.095   7.751
  845POPC   C1B13867   7.330  25.472   8.720
  845POPC   C2B13868   7.191  25.367   8.288
  845POPC   C3B13869   7.261  25.494   7.839
  845POPC   C4B13870   7.192  25.301   7.448
  846POPC   NC313871  38.893   3.385   9.592
  846POPC   PO413872  39.516   3.633   9.441
  846POPC   GL113873  39.403   3.679   9.045
  846POPC   GL213874  39.142   3.415   9.089
  846POPC   C1A13875  39.407   3.697   8.591
  846POPC   D2A13876  39.303   3.376   8.355
  846POPC   C3A13877  39.394   3.515   7.977
  846POPC   C4A13878  39.467   3.780   7.626
  846POPC   C1B13879  38.941   3.714   8.797
  846POPC   C2B13880  38.937   3.710   8.336
  846POPC   C3B13881  38.889   3.501   7.996
  846POPC   C4B13882  39.068   3.436   7.604
  847POPC   NC313883  33.297  44.211   9.438
  847POPC   PO413884  32.842  43.748   9.511
  847POPC   GL113885  32.985  43.851   9.123
  847POPC   GL213886  32.646  43.883   9.032
  847POPC   C1A13887  33.022  43.695   8.698
  847POPC   D2A13888  32.880  43.851   8.291
  847POPC   C3A13889  33.135  43.809   7.924
  847POPC   C4A13890  33.342  43.808   7.533
  847POPC   C1B13891  32.772  44.159   8.709
  847POPC   C2B13892  32.545  44.264   8.338
  847POPC   C3B13893  32.678  44.162   7.936
  847POPC   C4B13894  32.639  43.746   7.819
  848POPC   NC313895  20.289  30.190   9.489
  848POPC   PO413896  20.974  29.930   9.512
  848POPC   GL113897  20.619  29.860   9.225
  848POPC   GL213898  20.500  30.128   9.000
  848POPC   C1A13899  20.433  29.636   8.890
  848POPC   D2A13900  20.361  29.601   8.415
  848POPC   C3A13901  20.756  29.605   8.178
  848POPC   C4A13902  20.886  29.621   7.734
  848POPC   C1B13903  20.225  30.050   8.659
  848POPC   C2B13904  20.383  30.085   8.275
  848POPC   C3B13905  20.674  30.121   7.974
  848POPC   C4B13906  20.323  30.339   7.784
  849POPC   NC313907  33.490   7.347   9.701
  849POPC   PO413908  32.822   7.382   9.773
  849POPC   GL113909  32.821   7.422   9.255
  849POPC   GL213910  32.955   7.266   9.032
  849POPC   C1A13911  32.995   7.719   8.856
  849POPC   D2A13912  33.204   7.828   8.431
  849POPC   C3A13913  33.224   7.695   8.005
  849POPC   C4A13914  32.852   7.577   7.815
  849POPC   C1B13915  32.657   7.369   8.710
  849POPC   C2B13916  32.848   7.474   8.337
  849POPC   C3B13917  33.049   7.176   8.068
  849POPC   C4B13918  32.867   6.963   7.724
  850POPC   NC313919  28.295  18.399   9.635
  850POPC   PO413920  28.206  17.745   9.391
  850POPC   GL113921  28.211  18.178   9.175
  850POPC   GL213922  28.072  18.579   9.228
  850POPC   C1A13923  28.505  18.248   8.820
  850POPC   D2A13924  28.675  18.271   8.388
  850POPC   C3A13925  28.375  18.034   8.123
  850POPC   C4A13926  28.147  18.070   7.725
  850POPC   C1B13927  28.287  18.702   8.860
  850POPC   C2B13928  28.245  18.557   8.434
  850POPC   C3B13929  28.340  18.531   8.021
  850POPC   C4B13930  28.586  18.322   7.771
  851POPC   NC313931  33.829  13.186   9.586
  851POPC   PO413932  34.095  12.587   9.327
  851POPC   GL113933  33.901  12.914   9.061
  851POPC   GL213934  33.607  13.139   9.107
  851POPC   C1A13935  33.980  12.808   8.639
  851POPC   D2A13936  34.130  12.582   8.291
  851POPC   C3A13937  33.989  12.732   7.926
  851POPC   C4A13938  33.715  12.569   7.654
  851POPC   C1B13939  33.477  12.908   8.741
  851POPC   C2B13940  33.597  12.835   8.302
  851POPC   C3B13941  33.423  12.908   7.912
  851POPC   C4B13942  33.396  13.255   7.667
  852POPC   NC313943  26.853  33.169   9.873
  852POPC   PO413944  27.203  32.867   9.423
  852POPC   GL113945  26.935  33.010   9.122
  852POPC   GL213946  26.707  33.198   9.289
  852POPC   C1A13947  26.959  33.003   8.680
  852POPC   D2A13948  27.146  33.088   8.270
  852POPC   C3A13949  26.916  33.111   7.899
  852POPC   C4A13950  26.743  33.075   7.488
  852POPC   C1B13951  26.549  33.304   8.847
  852POPC   C2B13952  26.565  33.165   8.364
  852POPC   C3B13953  26.400  33.010   7.924
  852POPC   C4B13954  26.355  32.716   7.537
  853POPC   NC313955  15.487   0.947   9.436
  853POPC   PO413956  15.202   1.503   9.627
  853POPC   GL113957  15.159   1.281   9.204
  853POPC   GL213958  15.096   0.906   9.077
  853POPC   C1A13959  15.402   1.229   8.828
  853POPC   D2A13960  15.513   1.095   8.446
  853POPC   C3A13961  15.445   1.357   8.102
  853POPC   C4A13962  15.381   1.120   7.738
  853POPC   C1B13963  15.050   0.877   8.596
  853POPC   C2B13964  15.095   0.973   8.156
  853POPC   C3B13965  14.850   1.113   7.824
  853POPC   C4B13966  14.523   1.080   7.522
  854POPC   NC313967  24.492   1.889   9.519
  854POPC   PO413968  23.874   1.831   9.560
  854POPC   GL113969  24.109   1.939   9.194
  854POPC   GL213970  24.198   2.321   9.191
  854POPC   C1A13971  24.361   1.781   8.856
  854POPC   D2A13972  24.215   1.920   8.467
  854POPC   C3A13973  24.426   1.839   8.097
  854POPC   C4A13974  24.641   1.748   7.771
  854POPC   C1B13975  24.440   2.279   8.789
  854POPC   C2B13976  24.681   2.136   8.413
  854POPC   C3B13977  24.682   2.269   7.967
  854POPC   C4B13978  24.513   2.565   7.647
  855POPC   NC313979  32.396  26.306   9.572
  855POPC   PO413980  31.837  25.888   9.566
  855POPC   GL113981  31.940  26.213   9.212
  855POPC   GL213982  32.305  26.247   9.078
  855POPC   C1A13983  31.912  26.265   8.740
  855POPC   D2A13984  32.084  26.331   8.317
  855POPC   C3A13985  32.030  25.958   8.068
  855POPC   C4A13986  32.337  25.693   7.894
  855POPC   C1B13987  32.386  26.090   8.664
  855POPC   C2B13988  32.522  26.083   8.236
  855POPC   C3B13989  32.416  26.212   7.842
  855POPC   C4B13990  32.526  26.433   7.452
  856POPC   NC313991  16.034  21.446   9.331
  856POPC   PO413992  15.469  21.840   9.301
  856POPC   GL113993  15.671  21.534   8.977
  856POPC   GL213994  15.701  21.149   9.041
  856POPC   C1A13995  15.610  21.397   8.564
  856POPC   D2A13996  15.857  21.548   8.238
  856POPC   C3A13997  15.713  21.677   7.847
  856POPC   C4A13998  16.051  21.545   7.565
  856POPC   C1B13999  16.025  21.151   8.728
  856POPC   C2B14000  16.162  21.109   8.315
  856POPC   C3B14001  16.005  21.146   7.880
  856POPC   C4B14002  15.989  21.069   7.390
  857POPC   NC314003   7.873   8.511   9.407
  857POPC   PO414004   7.694   7.841   9.500
  857POPC   GL114005   7.628   8.134   9.140
  857POPC   GL214006   7.334   8.005   8.960
  857POPC   C1A14007   7.561   8.377   8.704
  857POPC   D2A14008   7.605   8.318   8.226
  857POPC   C3A14009   7.226   8.202   7.918
  857POPC   C4A14010   7.249   8.164   7.444
  857POPC   C1B14011   7.736   7.851   8.753
  857POPC   C2B14012   7.813   7.862   8.340
  857POPC   C3B14013   7.519   7.762   7.999
  857POPC   C4B14014   7.217   7.710   7.643
  858POPC   NC314015  35.518  28.716   9.527
  858POPC   PO414016  35.590  28.008   9.585
  858POPC   GL114017  35.627  28.262   9.230
  858POPC   GL214018  35.316  28.438   9.151
  858POPC   C1A14019  35.589  28.188   8.802
  858POPC   D2A14020  35.309  28.241   8.489
  858POPC   C3A14021  35.514  28.295   8.095
  858POPC   C4A14022  35.384  28.134   7.733
  858POPC   C1B14023  35.258  28.666   8.765
  858POPC   C2B14024  35.430  28.727   8.384
  858POPC   C3B14025  35.582  28.813   7.985
  858POPC   C4B14026  35.604  28.611   7.612
  859POPC   NC314027  20.498   0.147   9.566
  859POPC   PO414028  21.082   0.638   9.541
  859POPC   GL114029  20.926   0.505   9.148
  859POPC   GL214030  20.592   0.444   9.151
  859POPC   C1A14031  20.880   0.414   8.696
  859POPC   D2A14032  21.034   0.082   8.419
  859POPC   C3A14033  21.028   0.180   7.969
  859POPC   C4A14034  20.698   0.391   7.727
  859POPC   C1B14035  20.392   0.610   8.784
  859POPC   C2B14036  20.496   0.618   8.356
  859POPC   C3B14037  20.388   0.791   7.974
  859POPC   C4B14038  20.301   0.658   7.554
  860POPC   NC314039  38.359  21.227   9.548
  860POPC   PO414040  38.991  20.936   9.433
  860POPC   GL114041  38.825  21.350   9.293
  860POPC   GL214042  38.622  21.207   9.136
  860POPC   C1A14043  38.682  21.582   8.849
  860POPC   D2A14044  38.411  21.668   8.474
  860POPC   C3A14045  38.427  21.476   8.064
  860POPC   C4A14046  38.647  21.543   7.678
  860POPC   C1B14047  38.297  21.238   8.864
  860POPC   C2B14048  38.274  21.125   8.461
  860POPC   C3B14049  38.117  21.090   8.070
  860POPC   C4B14050  38.345  21.004   7.707
  861POPC   NC314051   5.588  39.878   9.572
  861POPC   PO414052   4.942  40.109   9.503
  861POPC   GL114053   5.241  40.120   9.183
  861POPC   GL214054   4.966  40.282   9.030
  861POPC   C1A14055   5.325  39.907   8.778
  861POPC   D2A14056   5.388  40.047   8.347
  861POPC   C3A14057   5.320  39.895   7.910
  861POPC   C4A14058   5.419  40.119   7.510
  861POPC   C1B14059   4.825  39.911   8.838
  861POPC   C2B14060   4.765  40.017   8.416
  861POPC   C3B14061   4.966  40.275   8.174
  861POPC   C4B14062   4.972  40.255   7.741
  862POPC   NC314063  32.766  33.430   9.554
  862POPC   PO414064  33.195  32.940   9.576
  862POPC   GL114065  33.148  33.157   9.200
  862POPC   GL214066  32.805  33.076   9.148
  862POPC   C1A14067  33.209  33.142   8.738
  862POPC   D2A14068  33.023  32.938   8.362
  862POPC   C3A14069  33.128  33.040   7.947
  862POPC   C4A14070  33.324  32.797   7.636
  862POPC   C1B14071  32.696  33.104   8.713
  862POPC   C2B14072  32.558  33.134   8.245
  862POPC   C3B14073  32.620  33.042   7.821
  862POPC   C4B14074  32.750  33.318   7.490
  863POPC   NC314075  10.970  33.300   9.754
  863POPC   PO414076  11.321  32.697   9.581
  863POPC   GL114077  11.245  32.892   9.192
  863POPC   GL214078  11.200  33.226   9.247
  863POPC   C1A14079  11.258  33.056   8.752
  863POPC   D2A14080  11.563  33.282   8.478
  863POPC   C3A14081  11.469  33.254   8.070
  863POPC   C4A14082  11.247  33.071   7.778
  863POPC   C1B14083  10.907  33.384   8.929
  863POPC   C2B14084  10.877  33.593   8.536
  863POPC   C3B14085  11.002  33.493   8.092
  863POPC   C4B14086  10.820  33.324   7.708
  864POPC   NC314087  18.803   1.844   9.672
  864POPC   PO414088  19.356   2.179   9.480
  864POPC   GL114089  19.042   1.958   9.179
  864POPC   GL214090  18.663   1.869   9.164
  864POPC   C1A14091  18.962   1.761   8.754
  864POPC   D2A14092  18.996   1.603   8.331
  864POPC   C3A14093  19.092   1.875   8.014
  864POPC   C4A14094  19.271   1.765   7.628
  864POPC   C1B14095  18.712   2.187   8.844
  864POPC   C2B14096  18.959   2.238   8.441
  864POPC   C3B14097  19.056   2.377   7.998
  864POPC   C4B14098  19.047   2.224   7.524
  865POPC   NC314099  30.477   1.659   9.463
  865POPC   PO414100  31.000   2.071   9.611
  865POPC   GL114101  30.738   2.054   9.231
  865POPC   GL214102  30.795   1.752   9.079
  865POPC   C1A14103  30.532   2.166   8.848
  865POPC   D2A14104  30.673   2.132   8.410
  865POPC   C3A14105  30.568   2.288   8.000
  865POPC   C4A14106  30.489   2.017   7.629
  865POPC   C1B14107  30.684   1.695   8.663
  865POPC   C2B14108  30.445   1.546   8.352
  865POPC   C3B14109  30.618   1.775   8.043
  865POPC   C4B14110  30.876   1.687   7.699
  866POPC   NC314111   2.260  35.865   9.234
  866POPC   PO414112   1.748  36.081   9.636
  866POPC   GL114113   1.698  36.070   9.216
  866POPC   GL214114   1.785  36.406   9.144
  866POPC   C1A14115   1.810  36.002   8.789
  866POPC   D2A14116   2.126  36.214   8.547
  866POPC   C3A14117   2.136  36.023   8.141
  866POPC   C4A14118   1.791  35.875   7.910
  866POPC   C1B14119   1.576  36.432   8.710
  866POPC   C2B14120   1.660  36.199   8.310
  866POPC   C3B14121   1.818  36.396   7.949
  866POPC   C4B14122   1.603  36.791   7.890
  867POPC   NC314123  41.672   1.509   9.382
  867POPC   PO414124  41.943   2.065   9.548
  867POPC   GL114125  41.663   1.996   9.165
  867POPC   GL214126  41.489   1.710   8.978
  867POPC   C1A14127  41.598   2.131   8.720
  867POPC   D2A14128  41.772   1.960   8.354
  867POPC   C3A14129  41.910   2.236   8.034
  867POPC   C4A14130  41.705   2.210   7.634
  867POPC   C1B14131  41.230   1.753   8.656
  867POPC   C2B14132  41.313   1.740   8.265
  867POPC   C3B14133  41.397   2.039   8.002
  867POPC   C4B14134  41.301   1.885   7.650
  868POPC   NC314135  23.701   0.101   9.593
  868POPC   PO414136  23.524  44.440   9.503
  868POPC   GL114137  23.753  44.678   9.217
  868POPC   GL214138  23.446  44.868   9.173
  868POPC   C1A14139  24.028  44.605   8.841
  868POPC   D2A14140  24.131  44.744   8.385
  868POPC   C3A14141  24.003  44.446   8.031
  868POPC   C4A14142  23.649  44.367   7.710
  868POPC   C1B14143  23.456  44.583   8.787
  868POPC   C2B14144  23.604  44.499   8.359
  868POPC   C3B14145  23.361  44.668   7.999
  868POPC   C4B14146  23.155  44.413   7.623
  869POPC   NC314147  19.633  22.706   9.586
  869POPC   PO414148  20.261  22.574   9.379
  869POPC   GL114149  19.989  22.925   9.165
  869POPC   GL214150  19.611  22.945   9.156
  869POPC   C1A14151  19.920  23.187   8.778
  869POPC   D2A14152  19.912  22.998   8.372
  869POPC   C3A14153  19.802  23.062   7.939
  869POPC   C4A14154  19.734  22.946   7.487
  869POPC   C1B14155  19.431  23.237   8.921
  869POPC   C2B14156  19.482  23.347   8.497
  869POPC   C3B14157  19.440  23.387   8.060
  869POPC   C4B14158  19.442  23.340   7.619
  870POPC   NC314159  36.319  14.244   9.616
  870POPC   PO414160  36.001  14.839   9.777
  870POPC   GL114161  36.135  14.638   9.349
  870POPC   GL214162  35.953  14.302   9.243
  870POPC   C1A14163  36.388  14.424   8.985
  870POPC   D2A14164  36.294  14.190   8.605
  870POPC   C3A14165  36.299  14.311   8.173
  870POPC   C4A14166  36.189  14.467   7.762
  870POPC   C1B14167  35.931  14.595   8.880
  870POPC   C2B14168  35.872  14.496   8.449
  870POPC   C3B14169  35.770  14.432   8.026
  870POPC   C4B14170  35.750  14.755   7.673
  871POPC   NC314171  43.611  26.258   9.388
  871POPC   PO414172  44.231  26.307   9.656
  871POPC   GL114173  44.066  26.110   9.247
  871POPC   GL214174  43.914  25.780   9.295
  871POPC   C1A14175  43.893  26.271   8.811
  871POPC   D2A14176  44.132  26.251   8.427
  871POPC   C3A14177  43.895  26.183   8.067
  871POPC   C4A14178  43.944  26.389   7.706
  871POPC   C1B14179  44.023  25.783   8.846
  871POPC   C2B14180  43.854  25.806   8.427
  871POPC   C3B14181  43.970  25.670   8.010
  871POPC   C4B14182  43.962  25.882   7.617
  872POPC   NC314183  27.264   2.909   9.526
  872POPC   PO414184  28.000   2.742   9.516
  872POPC   GL114185  27.623   2.673   9.268
  872POPC   GL214186  27.816   2.575   9.031
  872POPC   C1A14187  27.382   2.803   8.875
  872POPC   D2A14188  27.526   2.656   8.444
  872POPC   C3A14189  27.400   2.878   8.074
  872POPC   C4A14190  27.649   2.924   7.708
  872POPC   C1B14191  27.882   2.376   8.687
  872POPC   C2B14192  27.820   2.222   8.291
  872POPC   C3B14193  27.709   2.477   7.946
  872POPC   C4B14194  27.722   2.503   7.449
  873POPC   NC314195  44.291  34.845   9.540
  873POPC   PO414196  43.769  34.485   9.793
  873POPC   GL114197  43.752  34.595   9.310
  873POPC   GL214198  43.533  34.380   9.134
  873POPC   C1A14199  43.778  34.668   8.794
  873POPC   D2A14200  43.611  34.692   8.346
  873POPC   C3A14201  43.746  34.852   7.904
  873POPC   C4A14202  43.921  34.900   7.453
  873POPC   C1B14203  43.468  34.151   8.720
  873POPC   C2B14204  43.563  34.145   8.259
  873POPC   C3B14205  43.581  34.354   7.858
  873POPC   C4B14206  43.972  34.433   7.624
  874POPC   NC314207  39.251   4.812   9.477
  874POPC   PO414208  39.633   5.303   9.480
  874POPC   GL114209  39.436   5.259   9.120
  874POPC   GL214210  39.609   4.951   9.069
  874POPC   C1A14211  39.205   5.306   8.733
  874POPC   D2A14212  39.051   5.045   8.365
  874POPC   C3A14213  39.392   5.006   8.101
  874POPC   C4A14214  39.463   5.238   7.764
  874POPC   C1B14215  39.284   4.818   8.808
  874POPC   C2B14216  39.296   4.589   8.456
  874POPC   C3B14217  39.134   4.565   8.071
  874POPC   C4B14218  38.969   4.901   7.840
  875POPC   NC314219   5.976  27.962   9.489
  875POPC   PO414220   5.923  27.276   9.450
  875POPC   GL114221   5.784  27.407   9.082
  875POPC   GL214222   6.017  27.693   9.056
  875POPC   C1A14223   5.803  27.458   8.644
  875POPC   D2A14224   5.802  27.744   8.313
  875POPC   C3A14225   5.946  27.574   7.943
  875POPC   C4A14226   5.725  27.328   7.697
  875POPC   C1B14227   6.210  27.823   8.668
  875POPC   C2B14228   6.314  27.823   8.224
  875POPC   C3B14229   6.153  28.064   7.865
  875POPC   C4B14230   6.221  28.054   7.403
  876POPC   NC314231  22.563  13.564   9.498
  876POPC   PO414232  21.915  13.419   9.525
  876POPC   GL114233  22.082  13.649   9.153
  876POPC   GL214234  21.822  13.840   9.018
  876POPC   C1A14235  22.196  13.636   8.692
  876POPC   D2A14236  22.567  13.595   8.409
  876POPC   C3A14237  22.465  13.479   7.978
  876POPC   C4A14238  22.309  13.251   7.591
  876POPC   C1B14239  21.676  13.555   8.719
  876POPC   C2B14240  21.819  13.539   8.307
  876POPC   C3B14241  21.709  13.622   7.911
  876POPC   C4B14242  21.837  13.912   7.593
  877POPC   NC314243  18.328  29.239   9.533
  877POPC   PO414244  18.445  28.621   9.366
  877POPC   GL114245  18.254  28.808   9.037
  877POPC   GL214246  18.065  28.989   9.176
  877POPC   C1A14247  18.251  28.955   8.634
  877POPC   D2A14248  18.183  28.849   8.212
  877POPC   C3A14249  18.296  29.096   7.854
  877POPC   C4A14250  18.452  29.047   7.399
  877POPC   C1B14251  17.991  29.309   8.903
  877POPC   C2B14252  18.061  29.398   8.460
  877POPC   C3B14253  17.881  29.311   8.070
  877POPC   C4B14254  17.969  29.360   7.604
  878POPC   NC314255  12.545  35.606   9.328
  878POPC   PO414256  11.890  35.272   9.590
  878POPC   GL114257  12.109  35.276   9.204
  878POPC   GL214258  12.107  35.605   9.057
  878POPC   C1A14259  12.171  35.212   8.768
  878POPC   D2A14260  12.228  35.456   8.422
  878POPC   C3A14261  12.013  35.323   8.084
  878POPC   C4A14262  12.090  35.332   7.689
  878POPC   C1B14263  11.815  35.644   8.726
  878POPC   C2B14264  11.783  35.754   8.277
  878POPC   C3B14265  11.665  35.592   7.847
  878POPC   C4B14266  11.752  35.537   7.387
  879POPC   NC314267  36.609  30.190   9.399
  879POPC   PO414268  37.187  29.864   9.559
  879POPC   GL114269  37.080  29.928   9.168
  879POPC   GL214270  37.304  30.192   9.111
  879POPC   C1A14271  36.868  29.696   8.815
  879POPC   D2A14272  36.693  29.611   8.382
  879POPC   C3A14273  36.744  29.878   7.980
  879POPC   C4A14274  36.944  29.870   7.570
  879POPC   C1B14275  37.124  30.133   8.710
  879POPC   C2B14276  37.103  29.963   8.319
  879POPC   C3B14277  37.183  30.185   7.916
  879POPC   C4B14278  37.231  30.292   7.474
  880POPC   NC314279  34.518  27.215   9.464
  880POPC   PO414280  34.737  27.821   9.490
  880POPC   GL114281  34.612  27.859   9.110
  880POPC   GL214282  34.395  27.584   9.136
  880POPC   C1A14283  34.484  28.022   8.758
  880POPC   D2A14284  34.294  27.840   8.388
  880POPC   C3A14285  34.470  27.891   7.978
  880POPC   C4A14286  34.575  27.717   7.550
  880POPC   C1B14287  34.483  27.514   8.732
  880POPC   C2B14288  34.715  27.538   8.372
  880POPC   C3B14289  34.728  27.453   7.970
  880POPC   C4B14290  34.943  27.142   7.785
  881POPC   NC314291   0.269   1.543   9.611
  881POPC   PO414292   0.556   0.892   9.501
  881POPC   GL114293   0.434   1.255   9.216
  881POPC   GL214294   0.700   1.137   9.044
  881POPC   C1A14295   0.430   1.498   8.804
  881POPC   D2A14296   0.587   1.339   8.431
  881POPC   C3A14297   0.335   1.494   8.136
  881POPC   C4A14298   0.163   1.422   7.792
  881POPC   C1B14299   0.335   0.991   8.762
  881POPC   C2B14300   0.373   0.806   8.355
  881POPC   C3B14301   0.380   0.983   7.957
  881POPC   C4B14302   0.655   1.254   7.764
  882POPC   NC314303  35.981  19.635   9.609
  882POPC   PO414304  36.460  20.053   9.624
  882POPC   GL114305  36.229  19.900   9.204
  882POPC   GL214306  35.902  19.733   9.108
  882POPC   C1A14307  36.207  19.896   8.725
  882POPC   D2A14308  36.069  20.095   8.310
  882POPC   C3A14309  36.178  19.905   7.917
  882POPC   C4A14310  36.314  19.573   7.634
  882POPC   C1B14311  35.681  19.391   8.869
  882POPC   C2B14312  35.689  19.378   8.414
  882POPC   C3B14313  35.712  19.713   8.103
  882POPC   C4B14314  35.779  19.735   7.650
  883POPC   NC314315  39.188  31.778   9.893
  883POPC   PO414316  39.416  31.327   9.485
  883POPC   GL114317  39.364  31.453   9.078
  883POPC   GL214318  39.169  31.680   9.165
  883POPC   C1A14319  39.292  31.434   8.637
  883POPC   D2A14320  39.139  31.265   8.269
  883POPC   C3A14321  39.272  31.550   7.997
  883POPC   C4A14322  39.504  31.858   7.837
  883POPC   C1B14323  38.901  31.692   8.818
  883POPC   C2B14324  38.915  31.756   8.393
  883POPC   C3B14325  38.767  31.596   8.028
  883POPC   C4B14326  38.938  31.267   7.752
  884POPC   NC314327  39.946  23.793   9.512
  884POPC   PO414328  40.676  23.787   9.522
  884POPC   GL114329  40.352  23.919   9.181
  884POPC   GL214330  40.163  23.644   9.090
  884POPC   C1A14331  40.157  24.032   8.751
  884POPC   D2A14332  39.905  24.051   8.379
  884POPC   C3A14333  40.014  23.873   7.957
  884POPC   C4A14334  40.186  23.830   7.524
  884POPC   C1B14335  39.958  23.534   8.736
  884POPC   C2B14336  39.721  23.512   8.378
  884POPC   C3B14337  39.645  23.325   7.986
  884POPC   C4B14338  39.692  23.601   7.644
  885POPC   NC314339  39.456  33.374   9.598
  885POPC   PO414340  39.017  32.787   9.479
  885POPC   GL114341  38.979  33.140   9.194
  885POPC   GL214342  39.323  33.143   9.155
  885POPC   C1A14343  39.070  33.198   8.734
  885POPC   D2A14344  38.995  32.865   8.442
  885POPC   C3A14345  38.993  33.068   8.060
  885POPC   C4A14346  39.241  33.232   7.760
  885POPC   C1B14347  39.529  32.996   8.771
  885POPC   C2B14348  39.664  33.020   8.358
  885POPC   C3B14349  39.453  32.852   8.029
  885POPC   C4B14350  39.526  32.799   7.619
  886POPC   NC314351   0.555  40.916   9.366
  886POPC   PO414352   1.233  40.901   9.643
  886POPC   GL114353   1.112  40.905   9.204
  886POPC   GL214354   1.111  40.606   9.018
  886POPC   C1A14355   1.192  41.023   8.768
  886POPC   D2A14356   1.115  40.697   8.470
  886POPC   C3A14357   1.287  40.752   8.073
  886POPC   C4A14358   1.093  40.872   7.674
  886POPC   C1B14359   1.434  40.396   8.816
  886POPC   C2B14360   1.433  40.274   8.391
  886POPC   C3B14361   1.545  40.285   7.957
  886POPC   C4B14362   1.493  40.551   7.615
  887POPC   NC314363  37.333  41.239   9.457
  887POPC   PO414364  38.010  41.468   9.623
  887POPC   GL114365  37.848  41.508   9.198
  887POPC   GL214366  37.513  41.687   9.243
  887POPC   C1A14367  37.980  41.528   8.740
  887POPC   D2A14368  37.960  41.280   8.330
  887POPC   C3A14369  37.851  41.409   7.860
  887POPC   C4A14370  37.651  41.761   7.589
  887POPC   C1B14371  37.464  41.476   8.849
  887POPC   C2B14372  37.529  41.556   8.430
  887POPC   C3B14373  37.424  41.704   8.045
  887POPC   C4B14374  37.322  41.385   7.787
  888POPC   NC314375  17.534  31.908   9.417
  888POPC   PO414376  17.773  31.244   9.565
  888POPC   GL114377  17.603  31.413   9.205
  888POPC   GL214378  17.284  31.409   9.077
  888POPC   C1A14379  17.660  31.183   8.808
  888POPC   D2A14380  17.444  31.165   8.407
  888POPC   C3A14381  17.694  31.254   8.015
  888POPC   C4A14382  17.547  31.265   7.606
  888POPC   C1B14383  17.512  31.642   8.736
  888POPC   C2B14384  17.639  31.664   8.287
  888POPC   C3B14385  17.383  31.665   7.894
  888POPC   C4B14386  17.341  31.721   7.434
  889POPC   NC314387  41.659  17.294   9.321
  889POPC   PO414388  41.583  16.672   9.695
  889POPC   GL114389  41.637  16.661   9.236
  889POPC   GL214390  41.892  16.906   9.129
  889POPC   C1A14391  41.409  16.477   8.859
  889POPC   D2A14392  41.252  16.657   8.452
  889POPC   C3A14393  41.462  16.637   8.048
  889POPC   C4A14394  41.507  16.818   7.627
  889POPC   C1B14395  41.755  16.832   8.726
  889POPC   C2B14396  41.781  16.936   8.305
  889POPC   C3B14397  41.943  16.753   7.935
  889POPC   C4B14398  41.999  16.851   7.506
  890POPC   NC314399  40.990  35.214   9.607
  890POPC   PO414400  40.747  35.763   9.398
  890POPC   GL114401  40.964  35.657   9.055
  890POPC   GL214402  41.074  35.342   9.127
  890POPC   C1A14403  40.827  35.642   8.654
  890POPC   D2A14404  40.497  35.369   8.442
  890POPC   C3A14405  40.637  35.359   7.997
  890POPC   C4A14406  41.046  35.379   7.785
  890POPC   C1B14407  40.805  35.164   8.813
  890POPC   C2B14408  40.986  35.212   8.388
  890POPC   C3B14409  41.126  34.945   8.048
  890POPC   C4B14410  40.769  34.901   7.771
  891POPC   NC314411  21.720  26.434   9.617
  891POPC   PO414412  21.058  26.543   9.304
  891POPC   GL114413  21.256  26.921   9.031
  891POPC   GL214414  21.587  27.044   9.205
  891POPC   C1A14415  21.237  26.951   8.590
  891POPC   D2A14416  21.090  26.615   8.327
  891POPC   C3A14417  21.312  26.506   7.958
  891POPC   C4A14418  21.734  26.318   7.925
  891POPC   C1B14419  21.735  26.871   8.790
  891POPC   C2B14420  21.653  26.743   8.327
  891POPC   C3B14421  21.538  26.978   7.947
  891POPC   C4B14422  21.720  27.144   7.544
  892POPC   NC314423   6.004  24.049   9.510
  892POPC   PO414424   5.908  24.768   9.385
  892POPC   GL114425   5.940  24.595   9.030
  892POPC   GL214426   6.140  24.293   9.062
  892POPC   C1A14427   5.651  24.456   8.720
  892POPC   D2A14428   5.729  24.338   8.291
  892POPC   C3A14429   5.768  24.642   7.988
  892POPC   C4A14430   6.123  24.714   7.713
  892POPC   C1B14431   6.147  24.370   8.633
  892POPC   C2B14432   6.229  24.130   8.321
  892POPC   C3B14433   6.152  24.262   7.933
  892POPC   C4B14434   5.784  24.131   7.778
  893POPC   NC314435  31.763  25.417   9.514
  893POPC   PO414436  32.419  25.122   9.437
  893POPC   GL114437  32.152  25.368   9.170
  893POPC   GL214438  32.061  25.116   8.926
  893POPC   C1A14439  32.127  25.618   8.777
  893POPC   D2A14440  32.120  25.455   8.336
  893POPC   C3A14441  31.843  25.465   7.980
  893POPC   C4A14442  31.835  25.072   7.716
  893POPC   C1B14443  32.472  25.235   8.779
  893POPC   C2B14444  32.573  25.151   8.375
  893POPC   C3B14445  32.417  25.188   7.953
  893POPC   C4B14446  32.749  25.102   7.670
  894POPC   NC314447  17.496  19.142   9.453
  894POPC   PO414448  17.184  19.712   9.397
  894POPC   GL114449  17.192  19.424   9.044
  894POPC   GL214450  17.165  19.069   9.043
  894POPC   C1A14451  17.397  19.293   8.648
  894POPC   D2A14452  17.791  19.278   8.430
  894POPC   C3A14453  17.743  19.142   8.032
  894POPC   C4A14454  18.031  19.185   7.717
  894POPC   C1B14455  17.303  18.776   8.735
  894POPC   C2B14456  17.445  18.753   8.307
  894POPC   C3B14457  17.267  18.877   7.917
  894POPC   C4B14458  17.251  19.292   7.747
  895POPC   NC314459  38.556   2.785   9.522
  895POPC   PO414460  38.112   2.323   9.336
  895POPC   GL114461  38.473   2.530   9.081
  895POPC   GL214462  38.569   2.874   9.032
  895POPC   C1A14463  38.673   2.553   8.669
  895POPC   D2A14464  38.460   2.778   8.380
  895POPC   C3A14465  38.464   2.685   7.916
  895POPC   C4A14466  38.197   2.592   7.531
  895POPC   C1B14467  38.857   3.055   8.737
  895POPC   C2B14468  38.854   3.098   8.325
  895POPC   C3B14469  38.491   3.179   8.079
  895POPC   C4B14470  38.675   3.150   7.694
  896POPC   NC314471  32.013  33.350   9.449
  896POPC   PO414472  32.523  33.815   9.430
  896POPC   GL114473  32.284  33.937   9.116
  896POPC   GL214474  31.980  33.813   9.202
  896POPC   C1A14475  32.404  33.853   8.721
  896POPC   D2A14476  32.535  34.163   8.477
  896POPC   C3A14477  32.586  34.030   8.084
  896POPC   C4A14478  32.293  33.989   7.772
  896POPC   C1B14479  31.929  33.656   8.781
  896POPC   C2B14480  32.094  33.689   8.319
  896POPC   C3B14481  31.897  33.709   7.923
  896POPC   C4B14482  31.901  33.894   7.485
  897POPC   NC314483  21.178  39.038   9.379
  897POPC   PO414484  21.545  39.623   9.574
  897POPC   GL114485  21.424  39.480   9.204
  897POPC   GL214486  21.754  39.342   9.137
  897POPC   C1A14487  21.216  39.367   8.826
  897POPC   D2A14488  21.341  39.535   8.485
  897POPC   C3A14489  21.211  39.371   8.118
  897POPC   C4A14490  21.180  39.351   7.701
  897POPC   C1B14491  21.639  39.090   8.772
  897POPC   C2B14492  21.692  39.177   8.336
  897POPC   C3B14493  21.652  39.215   7.905
  897POPC   C4B14494  21.640  39.260   7.460
  898POPC   NC314495  21.261   0.210   9.419
  898POPC   PO414496  21.847   0.513   9.414
  898POPC   GL114497  21.553   0.495   9.058
  898POPC   GL214498  21.299   0.217   8.927
  898POPC   C1A14499  21.613   0.468   8.616
  898POPC   D2A14500  21.274   0.531   8.356
  898POPC   C3A14501  21.370   0.566   7.945
  898POPC   C4A14502  21.196   0.463   7.537
  898POPC   C1B14503  21.493  44.959   8.645
  898POPC   C2B14504  21.502   0.031   8.208
  898POPC   C3B14505  21.495   0.085   7.759
  898POPC   C4B14506  21.521   0.106   7.308
  899POPC   NC314507  24.694   3.953   9.499
  899POPC   PO414508  24.365   4.637   9.624
  899POPC   GL114509  24.566   4.499   9.222
  899POPC   GL214510  24.360   4.214   9.137
  899POPC   C1A14511  24.666   4.319   8.769
  899POPC   D2A14512  24.481   4.335   8.326
  899POPC   C3A14513  24.529   4.162   7.878
  899POPC   C4A14514  24.844   4.225   7.536
  899POPC   C1B14515  24.178   4.488   8.806
  899POPC   C2B14516  24.001   4.528   8.391
  899POPC   C3B14517  24.167   4.542   7.965
  899POPC   C4B14518  23.958   4.698   7.624
  900POPC   NC314519  40.430   6.117   9.535
  900POPC   PO414520  41.079   5.879   9.513
  900POPC   GL114521  40.773   5.890   9.215
  900POPC   GL214522  40.803   6.237   9.143
  900POPC   C1A14523  40.852   5.780   8.808
  900POPC   D2A14524  40.707   5.902   8.434
  900POPC   C3A14525  40.900   5.819   8.039
  900POPC   C4A14526  40.827   5.454   7.785
  900POPC   C1B14527  40.475   6.160   8.825
  900POPC   C2B14528  40.230   6.140   8.444
  900POPC   C3B14529  40.411   6.034   8.049
  900POPC   C4B14530  40.638   6.152   7.739
  901POPC   NC314531  43.516  42.893   9.267
  901POPC   PO414532  43.279  43.487   9.339
  901POPC   GL114533  42.987  43.284   9.086
  901POPC   GL214534  42.993  42.941   9.099
  901POPC   C1A14535  43.049  43.220   8.675
  901POPC   D2A14536  42.947  43.085   8.275
  901POPC   C3A14537  43.167  43.311   7.941
  901POPC   C4A14538  42.938  43.582   7.664
  901POPC   C1B14539  43.152  42.728   8.728
  901POPC   C2B14540  43.314  42.740   8.335
  901POPC   C3B14541  43.152  42.788   7.897
  901POPC   C4B14542  43.390  42.877   7.514
  902POPC   NC314543  12.936  35.704   9.694
  902POPC   PO414544  12.542  35.151   9.448
  902POPC   GL114545  12.737  35.247   9.045
  902POPC   GL214546  13.061  35.294   8.921
  902POPC   C1A14547  12.640  35.197   8.615
  902POPC   D2A14548  12.770  35.163   8.247
  902POPC   C3A14549  12.523  35.355   7.990
  902POPC   C4A14550  12.597  35.547   7.654
  902POPC   C1B14551  12.858  35.636   8.720
  902POPC   C2B14552  12.766  35.695   8.302
  902POPC   C3B14553  13.013  35.569   7.922
  902POPC   C4B14554  13.294  35.465   7.539
  903POPC   NC314555  36.706  33.574   9.816
  903POPC   PO414556  37.132  33.937   9.482
  903POPC   GL114557  37.076  33.750   9.107
  903POPC   GL214558  37.082  34.056   8.922
  903POPC   C1A14559  37.190  33.629   8.667
  903POPC   D2A14560  37.022  33.845   8.319
  903POPC   C3A14561  37.017  33.745   7.894
  903POPC   C4A14562  37.033  33.824   7.424
  903POPC   C1B14563  36.716  33.872   8.750
  903POPC   C2B14564  36.517  33.963   8.395
  903POPC   C3B14565  36.674  34.128   8.059
  903POPC   C4B14566  36.676  34.091   7.667
  904POPC   NC314567  42.778  14.003   9.396
  904POPC   PO414568  43.366  13.779   9.354
  904POPC   GL114569  43.194  13.407   9.134
  904POPC   GL214570  42.819  13.456   9.195
  904POPC   C1A14571  43.284  13.338   8.689
  904POPC   D2A14572  43.048  13.397   8.309
  904POPC   C3A14573  43.302  13.470   7.936
  904POPC   C4A14574  43.641  13.785   7.872
  904POPC   C1B14575  42.874  13.669   8.769
  904POPC   C2B14576  42.818  13.879   8.349
  904POPC   C3B14577  42.803  13.672   7.935
  904POPC   C4B14578  42.783  13.578   7.492
  905POPC   NC314579  26.727   6.417   9.453
  905POPC   PO414580  27.198   6.856   9.511
  905POPC   GL114581  27.023   6.881   9.127
  905POPC   GL214582  26.724   6.738   9.036
  905POPC   C1A14583  27.041   6.974   8.719
  905POPC   D2A14584  27.033   6.742   8.349
  905POPC   C3A14585  26.780   6.934   8.012
  905POPC   C4A14586  26.649   6.831   7.583
  905POPC   C1B14587  26.814   6.447   8.724
  905POPC   C2B14588  26.669   6.404   8.275
  905POPC   C3B14589  26.913   6.457   7.887
  905POPC   C4B14590  26.975   6.474   7.438
  906POPC   NC314591   9.226  43.310   9.535
  906POPC   PO414592   8.854  43.952   9.686
  906POPC   GL114593   9.012  43.939   9.264
  906POPC   GL214594   8.721  44.150   9.135
  906POPC   C1A14595   9.277  43.712   8.948
  906POPC   D2A14596   9.426  43.747   8.499
  906POPC   C3A14597   9.137  43.647   8.153
  906POPC   C4A14598   8.993  43.713   7.720
  906POPC   C1B14599   8.903  44.006   8.733
  906POPC   C2B14600   8.723  43.904   8.329
  906POPC   C3B14601   8.754  44.116   7.932
  906POPC   C4B14602   8.947  44.186   7.500
  907POPC   NC314603  41.349  44.006   9.606
  907POPC   PO414604  41.926  43.730   9.427
  907POPC   GL114605  41.736  44.062   9.170
  907POPC   GL214606  41.352  44.218   9.152
  907POPC   C1A14607  41.823  43.946   8.767
  907POPC   D2A14608  41.582  43.696   8.463
  907POPC   C3A14609  41.800  43.743   8.099
  907POPC   C4A14610  41.971  43.741   7.705
  907POPC   C1B14611  41.303  43.991   8.784
  907POPC   C2B14612  41.189  44.134   8.374
  907POPC   C3B14613  41.331  43.897   8.039
  907POPC   C4B14614  41.527  44.022   7.684
  908POPC   NC314615  44.503  44.266   9.326
  908POPC   PO414616  44.952  44.617   9.648
  908POPC   GL114617  44.726  44.772   9.271
  908POPC   GL214618   0.010  44.800   9.116
  908POPC   C1A14619  44.580  44.763   8.809
  908POPC   D2A14620  44.476  44.396   8.547
  908POPC   C3A14621  44.455  44.479   8.102
  908POPC   C4A14622  44.600  44.835   7.849
  908POPC   C1B14623   0.003  44.464   8.824
  908POPC   C2B14624  44.941  44.649   8.417
  908POPC   C3B14625   0.027  44.506   8.016
  908POPC   C4B14626  44.944  44.441   7.604
  909POPC   NC314627  31.352  28.664   9.530
  909POPC   PO414628  31.293  28.023   9.323
  909POPC   GL114629  31.288  28.412   9.090
  909POPC   GL214630  31.565  28.701   9.062
  909POPC   C1A14631  31.355  28.346   8.682
  909POPC   D2A14632  31.680  28.171   8.460
  909POPC   C3A14633  31.411  28.071   8.134
  909POPC   C4A14634  31.208  28.027   7.729
  909POPC   C1B14635  31.652  28.741   8.635
  909POPC   C2B14636  31.480  28.598   8.237
  909POPC   C3B14637  31.620  28.448   7.843
  909POPC   C4B14638  31.500  28.639   7.468
  910POPC   NC314639  16.656  13.020   9.565
  910POPC   PO414640  16.965  12.574   9.325
  910POPC   GL114641  16.696  12.823   9.069
  910POPC   GL214642  16.589  13.182   9.094
  910POPC   C1A14643  16.674  12.836   8.644
  910POPC   D2A14644  16.761  13.114   8.304
  910POPC   C3A14645  16.872  12.890   7.944
  910POPC   C4A14646  16.938  13.000   7.523
  910POPC   C1B14647  16.281  13.109   8.806
  910POPC   C2B14648  16.197  12.948   8.437
  910POPC   C3B14649  16.292  13.006   8.027
  910POPC   C4B14650  16.462  12.847   7.664
  911POPC   NC314651  39.099  10.374   9.644
  911POPC   PO414652  39.584  10.842   9.496
  911POPC   GL114653  39.165  10.851   9.324
  911POPC   GL214654  39.245  10.550   9.159
  911POPC   C1A14655  39.031  10.917   8.886
  911POPC   D2A14656  39.238  10.989   8.479
  911POPC   C3A14657  39.201  10.667   8.156
  911POPC   C4A14658  39.105  10.623   7.705
  911POPC   C1B14659  39.214  10.448   8.709
  911POPC   C2B14660  39.007  10.238   8.363
  911POPC   C3B14661  39.098  10.164   7.906
  911POPC   C4B14662  39.175  10.203   7.433
  912POPC   NC314663   8.821  26.177   9.371
  912POPC   PO414664   9.266  25.666   9.453
  912POPC   GL114665   9.198  25.942   9.123
  912POPC   GL214666   9.093  26.235   8.963
  912POPC   C1A14667   9.182  25.796   8.718
  912POPC   D2A14668   8.910  25.815   8.400
  912POPC   C3A14669   9.118  25.964   8.038
  912POPC   C4A14670   9.003  25.859   7.608
  912POPC   C1B14671   8.846  26.511   8.731
  912POPC   C2B14672   9.045  26.372   8.396
  912POPC   C3B14673   9.196  26.501   8.048
  912POPC   C4B14674   9.207  26.326   7.677
  913POPC   NC314675  20.185  39.530   9.752
  913POPC   PO414676  20.717  39.114   9.452
  913POPC   GL114677  20.408  39.243   9.134
  913POPC   GL214678  20.349  39.599   9.180
  913POPC   C1A14679  20.451  39.272   8.665
  913POPC   D2A14680  20.845  39.187   8.441
  913POPC   C3A14681  20.828  38.983   8.033
  913POPC   C4A14682  21.062  38.845   7.698
  913POPC   C1B14683  20.761  39.600   8.885
  913POPC   C2B14684  20.854  39.699   8.399
  913POPC   C3B14685  20.731  39.483   7.945
  913POPC   C4B14686  20.382  39.509   7.603
  914POPC   NC314687   6.332  40.047   9.739
  914POPC   PO414688   6.770  40.268   9.215
  914POPC   GL114689   6.586  40.113   8.824
  914POPC   GL214690   6.179  40.132   8.873
  914POPC   C1A14691   6.782  39.789   8.588
  914POPC   D2A14692   6.868  39.756   8.164
  914POPC   C3A14693   6.699  40.115   7.965
  914POPC   C4A14694   6.689  39.938   7.555
  914POPC   C1B14695   6.264  39.736   8.650
  914POPC   C2B14696   6.342  39.764   8.219
  914POPC   C3B14697   6.240  39.921   7.839
  914POPC   C4B14698   6.319  40.282   7.637
  915POPC   NC314699   4.908   5.296   9.525
  915POPC   PO414700   4.776   4.685   9.746
  915POPC   GL114701   4.788   4.874   9.277
  915POPC   GL214702   5.024   5.194   9.067
  915POPC   C1A14703   4.790   4.818   8.822
  915POPC   D2A14704   5.099   4.924   8.513
  915POPC   C3A14705   4.901   5.007   8.107
  915POPC   C4A14706   5.083   4.890   7.679
  915POPC   C1B14707   4.917   5.366   8.725
  915POPC   C2B14708   5.163   5.406   8.356
  915POPC   C3B14709   5.261   5.332   7.948
  915POPC   C4B14710   4.887   5.377   7.707
  916POPC   NC314711  24.103   5.290   9.411
  916POPC   PO414712  23.727   4.706   9.551
  916POPC   GL114713  23.754   4.946   9.195
  916POPC   GL214714  24.097   4.865   9.131
  916POPC   C1A14715  23.466   5.110   8.879
  916POPC   D2A14716  23.469   4.888   8.500
  916POPC   C3A14717  23.425   4.966   8.070
  916POPC   C4A14718  23.744   5.116   7.800
  916POPC   C1B14719  23.965   5.082   8.720
  916POPC   C2B14720  23.911   5.309   8.292
  916POPC   C3B14721  24.160   5.413   7.899
  916POPC   C4B14722  24.043   5.357   7.444
  917POPC   NC314723  25.559  41.068   9.478
  917POPC   PO414724  24.917  40.817   9.496
  917POPC   GL114725  25.232  40.810   9.192
  917POPC   GL214726  25.185  41.152   9.096
  917POPC   C1A14727  25.518  40.731   8.825
  917POPC   D2A14728  25.447  40.974   8.457
  917POPC   C3A14729  25.635  40.826   8.107
  917POPC   C4A14730  25.456  40.707   7.725
  917POPC   C1B14731  25.027  40.855   8.749
  917POPC   C2B14732  25.037  40.673   8.362
  917POPC   C3B14733  25.111  40.894   8.040
  917POPC   C4B14734  24.949  41.021   7.675
  918POPC   NC314735   1.051  30.267   9.559
  918POPC   PO414736   1.575  29.882   9.465
  918POPC   GL114737   1.394  29.805   9.085
  918POPC   GL214738   1.094  29.960   9.133
  918POPC   C1A14739   1.206  29.700   8.679
  918POPC   D2A14740   0.925  29.597   8.351
  918POPC   C3A14741   1.098  29.539   7.975
  918POPC   C4A14742   1.448  29.714   7.738
  918POPC   C1B14743   1.209  30.199   8.792
  918POPC   C2B14744   1.105  30.230   8.373
  918POPC   C3B14745   0.995  30.043   7.979
  918POPC   C4B14746   0.704  30.166   7.629
  919POPC   NC314747  11.844  38.965   9.449
  919POPC   PO414748  12.494  39.097   9.542
  919POPC   GL114749  12.219  39.310   9.282
  919POPC   GL214750  12.454  39.407   9.066
  919POPC   C1A14751  11.934  39.388   8.907
  919POPC   D2A14752  11.777  39.685   8.578
  919POPC   C3A14753  11.935  39.646   8.146
  919POPC   C4A14754  12.066  39.455   7.751
  919POPC   C1B14755  12.313  39.006   8.869
  919POPC   C2B14756  12.297  38.944   8.420
  919POPC   C3B14757  12.253  39.013   7.952
  919POPC   C4B14758  12.285  39.042   7.487
  920POPC   NC314759  13.646  27.480   9.470
  920POPC   PO414760  13.691  28.123   9.473
  920POPC   GL114761  13.594  27.844   9.138
  920POPC   GL214762  13.928  27.728   9.128
  920POPC   C1A14763  13.386  27.701   8.773
  920POPC   D2A14764  13.372  27.930   8.428
  920POPC   C3A14765  13.473  27.737   8.090
  920POPC   C4A14766  13.793  27.778   7.805
  920POPC   C1B14767  13.834  27.420   8.810
  920POPC   C2B14768  13.865  27.514   8.409
  920POPC   C3B14769  13.776  27.337   8.071
  920POPC   C4B14770  13.538  27.360   7.698
  921POPC   NC314771  33.448  33.191   9.893
  921POPC   PO414772  33.864  33.007   9.436
  921POPC   GL114773  33.843  32.865   9.078
  921POPC   GL214774  34.095  32.671   9.067
  921POPC   C1A14775  33.738  33.050   8.689
  921POPC   D2A14776  33.519  33.142   8.292
  921POPC   C3A14777  33.773  33.143   7.935
  921POPC   C4A14778  33.737  33.321   7.543
  921POPC   C1B14779  33.932  32.547   8.677
  921POPC   C2B14780  33.972  32.773   8.305
  921POPC   C3B14781  34.050  32.711   7.882
  921POPC   C4B14782  33.812  32.814   7.510
  922POPC   NC314783  35.195   0.286   9.588
  922POPC   PO414784  35.843   0.653   9.451
  922POPC   GL114785  35.406   0.597   9.198
  922POPC   GL214786  35.051   0.403   9.127
  922POPC   C1A14787  35.338   0.563   8.756
  922POPC   D2A14788  35.512   0.213   8.563
  922POPC   C3A14789  35.498   0.265   8.141
  922POPC   C4A14790  35.482   0.339   7.696
  922POPC   C1B14791  34.834   0.360   8.749
  922POPC   C2B14792  35.032   0.348   8.385
  922POPC   C3B14793  35.090   0.559   8.033
  922POPC   C4B14794  34.981   0.441   7.604
  923POPC   NC314795  38.690  15.258   9.536
  923POPC   PO414796  38.192  14.770   9.661
  923POPC   GL114797  38.437  14.846   9.269
  923POPC   GL214798  38.410  15.179   9.119
  923POPC   C1A14799  38.452  14.769   8.801
  923POPC   D2A14800  38.123  14.794   8.444
  923POPC   C3A14801  38.243  14.893   8.001
  923POPC   C4A14802  38.618  14.890   7.720
  923POPC   C1B14803  38.367  15.249   8.662
  923POPC   C2B14804  38.612  15.149   8.271
  923POPC   C3B14805  38.538  15.350   7.890
  923POPC   C4B14806  38.097  15.330   7.749
  924POPC   NC314807   6.348   5.303   9.399
  924POPC   PO414808   6.883   5.559   9.139
  924POPC   GL114809   6.846   5.105   9.136
  924POPC   GL214810   6.566   4.843   9.227
  924POPC   C1A14811   6.864   4.880   8.757
  924POPC   D2A14812   6.987   4.839   8.334
  924POPC   C3A14813   6.840   5.151   8.038
  924POPC   C4A14814   6.915   5.034   7.614
  924POPC   C1B14815   6.363   4.833   8.802
  924POPC   C2B14816   6.470   4.947   8.353
  924POPC   C3B14817   6.600   4.692   7.981
  924POPC   C4B14818   6.501   4.709   7.548
  925POPC   NC314819   7.155  36.947   9.483
  925POPC   PO414820   6.532  36.854   9.529
  925POPC   GL114821   6.667  36.912   9.118
  925POPC   GL214822   6.395  37.169   9.124
  925POPC   C1A14823   6.610  36.708   8.689
  925POPC   D2A14824   6.809  36.801   8.318
  925POPC   C3A14825   6.637  36.652   7.953
  925POPC   C4A14826   6.752  36.542   7.539
  925POPC   C1B14827   6.557  37.209   8.722
  925POPC   C2B14828   6.401  37.092   8.321
  925POPC   C3B14829   6.573  37.166   7.932
  925POPC   C4B14830   6.466  36.991   7.547
  926POPC   NC314831  18.876  44.198   9.941
  926POPC   PO414832  19.020  43.747   9.458
  926POPC   GL114833  18.904  43.895   9.026
  926POPC   GL214834  19.248  44.008   9.079
  926POPC   C1A14835  18.804  43.955   8.548
  926POPC   D2A14836  19.069  43.950   8.169
  926POPC   C3A14837  18.915  43.940   7.712
  926POPC   C4A14838  18.970  44.218   7.319
  926POPC   C1B14839  19.294  43.866   8.682
  926POPC   C2B14840  19.555  43.966   8.383
  926POPC   C3B14841  19.561  44.156   8.039
  926POPC   C4B14842  19.393  44.081   7.692
  927POPC   NC314843   6.030  40.773   9.633
  927POPC   PO414844   5.457  40.776   9.404
  927POPC   GL114845   5.827  40.761   9.138
  927POPC   GL214846   6.168  40.596   9.169
  927POPC   C1A14847   5.869  40.705   8.696
  927POPC   D2A14848   5.867  40.556   8.288
  927POPC   C3A14849   5.644  40.862   8.022
  927POPC   C4A14850   5.691  40.947   7.601
  927POPC   C1B14851   6.218  40.990   8.892
  927POPC   C2B14852   6.243  40.946   8.408
  927POPC   C3B14853   6.117  41.017   7.969
  927POPC   C4B14854   6.167  40.787   7.561
  928POPC   NC314855  16.116   9.519   9.348
  928POPC   PO414856  15.672   9.913   9.534
  928POPC   GL114857  15.563   9.855   9.100
  928POPC   GL214858  15.904   9.743   8.945
  928POPC   C1A14859  15.583   9.964   8.645
  928POPC   D2A14860  15.943   9.791   8.391
  928POPC   C3A14861  15.818   9.795   7.961
  928POPC   C4A14862  15.648   9.709   7.553
  928POPC   C1B14863  16.330   9.707   8.750
  928POPC   C2B14864  16.547   9.842   8.406
  928POPC   C3B14865  16.305   9.977   8.034
  928POPC   C4B14866  16.124   9.981   7.573
  929POPC   NC314867   8.467  41.940   9.451
  929POPC   PO414868   7.816  41.536   9.543
  929POPC   GL114869   8.162  41.479   9.267
  929POPC   GL214870   8.090  41.773   9.134
  929POPC   C1A14871   8.335  41.390   8.829
  929POPC   D2A14872   8.197  41.200   8.456
  929POPC   C3A14873   8.289  41.436   8.070
  929POPC   C4A14874   7.976  41.298   7.788
  929POPC   C1B14875   7.870  41.594   8.805
  929POPC   C2B14876   7.963  41.706   8.396
  929POPC   C3B14877   7.709  41.771   8.037
  929POPC   C4B14878   7.805  41.759   7.625
  930POPC   NC314879   3.830  39.779   9.564
  930POPC   PO414880   3.267  40.116   9.640
  930POPC   GL114881   3.562  40.103   9.273
  930POPC   GL214882   3.672  39.789   9.081
  930POPC   C1A14883   3.547  40.224   8.862
  930POPC   D2A14884   3.622  39.966   8.473
  930POPC   C3A14885   3.492  40.044   8.044
  930POPC   C4A14886   3.625  40.232   7.638
  930POPC   C1B14887   3.881  39.610   8.716
  930POPC   C2B14888   3.967  39.645   8.249
  930POPC   C3B14889   3.811  39.685   7.803
  930POPC   C4B14890   3.749  39.816   7.329
  931POPC   NC314891  26.328  35.800   9.563
  931POPC   PO414892  26.148  35.054   9.540
  931POPC   GL114893  26.187  35.302   9.165
  931POPC   GL214894  25.868  35.429   9.104
  931POPC   C1A14895  26.279  35.416   8.715
  931POPC   D2A14896  26.182  35.611   8.290
  931POPC   C3A14897  26.307  35.313   7.955
  931POPC   C4A14898  26.413  35.408   7.525
  931POPC   C1B14899  25.885  35.106   8.750
  931POPC   C2B14900  25.885  35.216   8.365
  931POPC   C3B14901  25.754  35.411   8.003
  931POPC   C4B14902  25.872  35.147   7.718
  932POPC   NC314903  43.427   3.006   9.369
  932POPC   PO414904  43.324   2.354   9.452
  932POPC   GL114905  43.279   2.576   9.126
  932POPC   GL214906  42.995   2.776   9.151
  932POPC   C1A14907  43.394   2.550   8.743
  932POPC   D2A14908  43.347   2.763   8.346
  932POPC   C3A14909  43.263   2.533   8.006
  932POPC   C4A14910  43.306   2.634   7.582
  932POPC   C1B14911  43.050   2.913   8.734
  932POPC   C2B14912  42.843   3.034   8.332
  932POPC   C3B14913  42.711   3.221   7.930
  932POPC   C4B14914  42.564   3.033   7.528
  933POPC   NC314915  19.232  10.813   9.422
  933POPC   PO414916  19.163  11.516   9.494
  933POPC   GL114917  19.040  11.300   9.057
  933POPC   GL214918  19.248  11.086   8.953
  933POPC   C1A14919  18.811  11.076   8.678
  933POPC   D2A14920  18.805  10.937   8.235
  933POPC   C3A14921  18.997  11.280   8.008
  933POPC   C4A14922  18.930  11.469   7.575
  933POPC   C1B14923  19.209  11.398   8.588
  933POPC   C2B14924  19.495  11.283   8.283
  933POPC   C3B14925  19.476  11.032   7.907
  933POPC   C4B14926  19.292  11.125   7.488
  934POPC   NC314927   6.864  28.151   9.606
  934POPC   PO414928   6.395  27.642   9.483
  934POPC   GL114929   6.546  27.816   9.134
  934POPC   GL214930   6.898  27.709   9.203
  934POPC   C1A14931   6.737  27.868   8.731
  934POPC   D2A14932   6.963  27.769   8.350
  934POPC   C3A14933   6.745  27.831   7.950
  934POPC   C4A14934   6.403  27.675   7.702
  934POPC   C1B14935   6.938  27.356   8.871
  934POPC   C2B14936   7.063  27.247   8.416
  934POPC   C3B14937   6.844  27.332   8.011
  934POPC   C4B14938   6.824  27.459   7.568
  935POPC   NC314939  27.609  20.047   9.448
  935POPC   PO414940  28.129  19.663   9.653
  935POPC   GL114941  27.788  19.611   9.262
  935POPC   GL214942  27.712  19.927   8.986
  935POPC   C1A14943  27.513  19.480   8.891
  935POPC   D2A14944  27.733  19.602   8.498
  935POPC   C3A14945  27.657  19.515   8.055
  935POPC   C4A14946  27.545  19.828   7.741
  935POPC   C1B14947  27.412  19.956   8.663
  935POPC   C2B14948  27.392  19.979   8.226
  935POPC   C3B14949  27.140  20.113   7.868
  935POPC   C4B14950  27.239  20.097   7.415
  936POPC   NC314951  35.594  31.049   9.518
  936POPC   PO414952  35.244  31.587   9.694
  936POPC   GL114953  35.360  31.470   9.260
  936POPC   GL214954  35.148  31.237   9.124
  936POPC   C1A14955  35.447  31.466   8.799
  936POPC   D2A14956  35.518  31.237   8.448
  936POPC   C3A14957  35.456  31.457   8.075
  936POPC   C4A14958  35.537  31.311   7.679
  936POPC   C1B14959  34.960  31.254   8.694
  936POPC   C2B14960  35.017  31.244   8.252
  936POPC   C3B14961  35.040  31.275   7.798
  936POPC   C4B14962  35.065  31.097   7.386
  937POPC   NC314963  10.608  30.813   9.587
  937POPC   PO414964  10.721  30.188   9.841
  937POPC   GL114965  10.691  30.323   9.354
  937POPC   GL214966  10.354  30.492   9.281
  937POPC   C1A14967  10.660  30.492   8.876
  937POPC   D2A14968  10.418  30.773   8.548
  937POPC   C3A14969  10.645  30.927   8.169
  937POPC   C4A14970  10.808  30.916   7.718
  937POPC   C1B14971  10.141  30.400   8.894
  937POPC   C2B14972  10.319  30.270   8.500
  937POPC   C3B14973  10.258  30.459   8.094
  937POPC   C4B14974  10.317  30.800   7.797
  938POPC   NC314975  31.321  17.137   9.385
  938POPC   PO414976  31.623  16.508   9.334
  938POPC   GL114977  31.432  16.756   9.051
  938POPC   GL214978  31.078  16.754   9.121
  938POPC   C1A14979  31.338  16.669   8.648
  938POPC   D2A14980  31.245  16.434   8.309
  938POPC   C3A14981  31.528  16.592   8.034
  938POPC   C4A14982  31.535  16.644   7.580
  938POPC   C1B14983  31.038  17.067   8.778
  938POPC   C2B14984  30.934  16.957   8.380
  938POPC   C3B14985  31.083  16.820   8.000
  938POPC   C4B14986  31.310  17.082   7.739
  939POPC   NC314987  21.535   0.811   9.571
  939POPC   PO414988  21.255   1.404   9.493
  939POPC   GL114989  21.468   1.190   9.172
  939POPC   GL214990  21.257   0.910   9.148
  939POPC   C1A14991  21.639   1.367   8.768
  939POPC   D2A14992  21.699   1.643   8.402
  939POPC   C3A14993  21.417   1.600   8.053
  939POPC   C4A14994  21.552   1.327   7.728
  939POPC   C1B14995  21.367   0.906   8.729
  939POPC   C2B14996  21.383   1.155   8.343
  939POPC   C3B14997  21.132   1.172   7.962
  939POPC   C4B14998  21.242   0.946   7.587
  940POPC   NC314999   2.944  34.305   9.834
  940POPC   PO415000   2.643  34.761   9.586
  940POPC   GL115001   2.600  34.450   9.200
  940POPC   GL215002   2.947  34.237   9.059
  940POPC   C1A15003   2.649  34.489   8.750
  940POPC   D2A15004   2.479  34.553   8.383
  940POPC   C3A15005   2.640  34.542   7.988
  940POPC   C4A15006   2.567  34.823   7.671
  940POPC   C1B15007   3.149  34.544   8.737
  940POPC   C2B15008   3.040  34.611   8.306
  940POPC   C3B15009   3.057  34.956   7.992
  940POPC   C4B15010   2.974  35.108   7.580
  941POPC   NC315011  41.364  26.572   9.496
  941POPC   PO415012  41.824  27.072   9.528
  941POPC   GL115013  41.724  26.872   9.162
  941POPC   GL215014  41.379  26.979   9.148
  941POPC   C1A15015  41.550  26.742   8.735
  941POPC   D2A15016  41.450  26.733   8.289
  941POPC   C3A15017  41.764  26.561   8.025
  941POPC   C4A15018  41.903  26.681   7.628
  941POPC   C1B15019  41.516  27.251   8.853
  941POPC   C2B15020  41.691  27.191   8.480
  941POPC   C3B15021  41.535  27.220   8.112
  941POPC   C4B15022  41.547  26.993   7.765
  942POPC   NC315023  22.238  30.675   9.454
  942POPC   PO415024  21.623  30.555   9.461
  942POPC   GL115025  21.968  30.495   9.073
  942POPC   GL215026  22.245  30.235   9.171
  942POPC   C1A15027  22.223  30.810   8.766
  942POPC   D2A15028  22.480  30.924   8.359
  942POPC   C3A15029  22.232  30.868   8.024
  942POPC   C4A15030  21.970  30.538   7.891
  942POPC   C1B15031  22.371  30.316   8.728
  942POPC   C2B15032  22.306  30.406   8.277
  942POPC   C3B15033  22.387  30.244   7.837
  942POPC   C4B15034  22.370  30.356   7.362
  943POPC   NC315035   1.844   6.932   9.532
  943POPC   PO415036   1.812   7.561   9.638
  943POPC   GL115037   1.882   7.735   9.215
  943POPC   GL215038   1.621   7.544   9.118
  943POPC   C1A15039   2.046   7.612   8.790
  943POPC   D2A15040   2.092   7.328   8.438
  943POPC   C3A15041   2.015   7.483   8.041
  943POPC   C4A15042   2.116   7.293   7.621
  943POPC   C1B15043   1.623   7.164   8.865
  943POPC   C2B15044   1.750   6.934   8.495
  943POPC   C3B15045   1.891   6.970   8.061
  943POPC   C4B15046   1.686   7.000   7.628
  944POPC   NC315047  35.638  21.192   9.582
  944POPC   PO415048  36.243  21.561   9.652
  944POPC   GL115049  36.246  21.375   9.158
  944POPC   GL215050  36.427  21.098   8.984
  944POPC   C1A15051  36.004  21.310   8.751
  944POPC   D2A15052  36.041  21.103   8.333
  944POPC   C3A15053  36.013  21.338   7.938
  944POPC   C4A15054  35.943  21.691   7.682
  944POPC   C1B15055  36.488  21.470   8.666
  944POPC   C2B15056  36.424  21.560   8.212
  944POPC   C3B15057  36.445  21.577   7.738
  944POPC   C4B15058  36.563  21.520   7.248
  945POPC   NC315059  42.120  15.515   9.517
  945POPC   PO415060  42.645  15.058   9.654
  945POPC   GL115061  42.322  14.968   9.282
  945POPC   GL215062  42.177  15.270   9.079
  945POPC   C1A15063  42.346  14.856   8.836
  945POPC   D2A15064  42.123  15.145   8.551
  945POPC   C3A15065  42.170  15.101   8.145
  945POPC   C4A15066  42.416  14.990   7.829
  945POPC   C1B15067  42.480  15.397   8.792
  945POPC   C2B15068  42.498  15.501   8.363
  945POPC   C3B15069  42.438  15.483   7.934
  945POPC   C4B15070  42.085  15.447   7.730
  946POPC   NC315071   1.431  26.236   9.414
  946POPC   PO415072   1.100  25.649   9.503
  946POPC   GL115073   1.084  25.944   9.162
  946POPC   GL215074   1.368  25.793   9.069
  946POPC   C1A15075   1.086  26.269   8.829
  946POPC   D2A15076   1.085  26.386   8.396
  946POPC   C3A15077   1.307  26.188   8.093
  946POPC   C4A15078   1.235  26.112   7.652
  946POPC   C1B15079   1.452  25.941   8.667
  946POPC   C2B15080   1.736  26.005   8.343
  946POPC   C3B15081   1.562  25.751   8.001
  946POPC   C4B15082   1.155  25.641   7.852
  947POPC   NC315083   9.624  44.924   9.478
  947POPC   PO415084   9.997  44.336   9.551
  947POPC   GL115085   9.903  44.608   9.178
  947POPC   GL215086  10.057  44.950   9.197
  947POPC   C1A15087   9.701  44.648   8.757
  947POPC   D2A15088   9.888  44.554   8.329
  947POPC   C3A15089   9.641  44.609   7.946
  947POPC   C4A15090   9.770  44.842   7.577
  947POPC   C1B15091   9.956   0.108   8.785
  947POPC   C2B15092   9.768   0.157   8.396
  947POPC   C3B15093   9.964   0.003   8.038
  947POPC   C4B15094  10.241   0.055   7.680
  948POPC   NC315095  12.157  13.127   9.417
  948POPC   PO415096  12.155  13.807   9.428
  948POPC   GL115097  12.173  13.656   9.071
  948POPC   GL215098  11.908  13.407   9.076
  948POPC   C1A15099  11.979  13.775   8.704
  948POPC   D2A15100  11.868  13.533   8.369
  948POPC   C3A15101  12.058  13.611   8.025
  948POPC   C4A15102  12.223  13.961   7.934
  948POPC   C1B15103  12.183  13.287   8.711
  948POPC   C2B15104  12.345  13.264   8.297
  948POPC   C3B15105  12.379  13.267   7.841
  948POPC   C4B15106  12.434  13.603   7.580
  949POPC   NC315107  41.727  14.971   9.815
  949POPC   PO415108  41.152  14.629   9.786
  949POPC   GL115109  41.428  14.866   9.387
  949POPC   GL215110  41.767  15.114   9.337
  949POPC   C1A15111  41.419  15.137   8.979
  949POPC   D2A15112  41.650  15.320   8.607
  949POPC   C3A15113  41.774  15.405   8.179
  949POPC   C4A15114  41.577  15.373   7.774
  949POPC   C1B15115  41.849  14.887   8.924
  949POPC   C2B15116  41.728  14.820   8.486
  949POPC   C3B15117  41.613  14.908   8.075
  949POPC   C4B15118  41.894  14.981   7.737
  950POPC   NC315119   9.801  16.396   9.424
  950POPC   PO415120   9.410  15.868   9.444
  950POPC   GL115121   9.780  15.952   9.133
  950POPC   GL215122   9.985  16.263   8.987
  950POPC   C1A15123   9.816  15.892   8.687
  950POPC   D2A15124   9.687  15.627   8.387
  950POPC   C3A15125   9.828  15.734   7.998
  950POPC   C4A15126   9.614  15.584   7.655
  950POPC   C1B15127   9.716  16.385   8.628
  950POPC   C2B15128   9.740  16.236   8.204
  950POPC   C3B15129   9.938  16.207   7.808
  950POPC   C4B15130   9.837  16.435   7.446
  951POPC   NC315131   4.072  44.141   9.535
  951POPC   PO415132   4.366  43.539   9.506
  951POPC   GL115133   4.322  43.829   9.198
  951POPC   GL215134   3.999  43.782   9.131
  951POPC   C1A15135   4.368  44.058   8.821
  951POPC   D2A15136   4.077  44.028   8.456
  951POPC   C3A15137   4.270  44.098   8.080
  951POPC   C4A15138   4.551  43.920   7.779
  951POPC   C1B15139   4.166  43.606   8.757
  951POPC   C2B15140   4.345  43.595   8.337
  951POPC   C3B15141   4.153  43.641   7.959
  951POPC   C4B15142   4.157  43.531   7.587
  952POPC   NC315143  20.323  32.854   9.485
  952POPC   PO415144  19.646  32.921   9.458
  952POPC   GL115145  19.892  33.208   9.213
  952POPC   GL215146  19.593  33.266   9.050
  952POPC   C1A15147  20.167  33.266   8.839
  952POPC   D2A15148  20.272  32.884   8.564
  952POPC   C3A15149  20.166  32.875   8.106
  952POPC   C4A15150  19.979  33.064   7.732
  952POPC   C1B15151  19.769  32.965   8.756
  952POPC   C2B15152  19.695  32.998   8.309
  952POPC   C3B15153  19.659  32.751   7.953
  952POPC   C4B15154  19.595  32.786   7.502
  953POPC   NC315155  43.869  30.483   9.552
  953POPC   PO415156  43.982  31.136   9.477
  953POPC   GL115157  43.970  30.773   9.132
  953POPC   GL215158  44.081  30.380   9.105
  953POPC   C1A15159  43.892  30.634   8.709
  953POPC   D2A15160  43.658  30.457   8.335
  953POPC   C3A15161  43.647  30.712   7.975
  953POPC   C4A15162  43.937  30.882   7.687
  953POPC   C1B15163  43.896  30.134   8.730
  953POPC   C2B15164  44.093  30.228   8.339
  953POPC   C3B15165  44.037  30.371   7.935
  953POPC   C4B15166  44.255  30.501   7.580
  954POPC   NC315167  29.593  43.618   9.419
  954POPC   PO415168  30.002  43.205   9.820
  954POPC   GL115169  29.991  43.183   9.336
  954POPC   GL215170  29.634  43.146   9.235
  954POPC   C1A15171  29.967  43.159   8.853
  954POPC   D2A15172  30.141  43.268   8.437
  954POPC   C3A15173  29.942  43.191   8.050
  954POPC   C4A15174  29.935  43.376   7.651
  954POPC   C1B15175  29.508  42.919   8.856
  954POPC   C2B15176  29.549  42.998   8.404
  954POPC   C3B15177  29.499  42.870   7.968
  954POPC   C4B15178  29.612  42.993   7.557
  955POPC   NC315179  26.582  18.762   9.470
  955POPC   PO415180  26.924  18.197   9.654
  955POPC   GL115181  26.792  18.304   9.189
  955POPC   GL215182  26.597  18.579   9.006
  955POPC   C1A15183  26.935  18.360   8.721
  955POPC   D2A15184  26.909  18.579   8.295
  955POPC   C3A15185  26.963  18.331   7.881
  955POPC   C4A15186  27.124  18.325   7.430
  955POPC   C1B15187  26.450  18.181   8.827
  955POPC   C2B15188  26.370  18.259   8.399
  955POPC   C3B15189  26.465  18.477   8.014
  955POPC   C4B15190  26.440  18.154   7.729
  956POPC   NC315191  23.013  19.231   9.519
  956POPC   PO415192  22.604  18.744   9.461
  956POPC   GL115193  22.685  19.052   9.148
  956POPC   GL215194  23.050  19.042   9.055
  956POPC   C1A15195  22.668  19.051   8.719
  956POPC   D2A15196  22.913  18.998   8.383
  956POPC   C3A15197  22.704  18.837   8.051
  956POPC   C4A15198  22.893  18.895   7.718
  956POPC   C1B15199  23.138  19.350   8.731
  956POPC   C2B15200  23.177  19.432   8.286
  956POPC   C3B15201  23.247  19.185   7.916
  956POPC   C4B15202  23.209  19.172   7.425
  957POPC   NC315203  38.738  36.853   9.380
  957POPC   PO415204  38.206  36.815   9.802
  957POPC   GL115205  38.241  37.005   9.286
  957POPC   GL215206  38.471  37.280   9.254
  957POPC   C1A15207  38.396  36.819   8.819
  957POPC   D2A15208  38.681  36.693   8.476
  957POPC   C3A15209  38.529  36.715   8.052
  957POPC   C4A15210  38.413  36.377   7.788
  957POPC   C1B15211  38.356  37.325   8.826
  957POPC   C2B15212  38.513  37.170   8.430
  957POPC   C3B15213  38.373  37.209   8.020
  957POPC   C4B15214  38.206  36.956   7.667
  958POPC   NC315215  25.953  24.434   9.716
  958POPC   PO415216  26.559  24.756   9.542
  958POPC   GL115217  26.329  24.548   9.190
  958POPC   GL215218  25.950  24.497   9.198
  958POPC   C1A15219  26.189  24.666   8.769
  958POPC   D2A15220  26.250  24.856   8.368
  958POPC   C3A15221  26.152  24.593   8.047
  958POPC   C4A15222  25.887  24.655   7.710
  958POPC   C1B15223  25.891  24.236   8.808
  958POPC   C2B15224  25.814  23.972   8.455
  958POPC   C3B15225  25.855  24.181   8.098
  958POPC   C4B15226  25.805  24.089   7.716
  959POPC   NC315227  26.208  13.442   9.426
  959POPC   PO415228  25.589  13.798   9.444
  959POPC   GL115229  25.930  13.785   9.165
  959POPC   GL215230  25.821  13.440   9.092
  959POPC   C1A15231  26.209  13.706   8.805
  959POPC   D2A15232  26.134  13.621   8.389
  959POPC   C3A15233  26.316  13.798   8.050
  959POPC   C4A15234  26.092  13.908   7.695
  959POPC   C1B15235  25.900  13.290   8.695
  959POPC   C2B15236  25.686  13.392   8.297
  959POPC   C3B15237  25.961  13.429   7.930
  959POPC   C4B15238  25.953  13.490   7.475
  960POPC   NC315239  30.121   4.867   9.533
  960POPC   PO415240  29.864   5.404   9.330
  960POPC   GL115241  29.976   5.080   9.069
  960POPC   GL215242  29.820   4.742   9.127
  960POPC   C1A15243  29.896   5.233   8.671
  960POPC   D2A15244  29.589   5.238   8.359
  960POPC   C3A15245  29.768   5.299   7.952
  960POPC   C4A15246  29.970   5.233   7.558
  960POPC   C1B15247  30.003   4.687   8.710
  960POPC   C2B15248  30.008   4.906   8.307
  960POPC   C3B15249  30.203   4.954   7.931
  960POPC   C4B15250  30.161   4.740   7.553
  961POPC   NC315251  40.882  18.554   9.411
  961POPC   PO415252  40.517  18.032   9.456
  961POPC   GL115253  40.508  18.311   9.121
  961POPC   GL215254  40.847  18.203   9.042
  961POPC   C1A15255  40.599  18.462   8.702
  961POPC   D2A15256  40.862  18.526   8.369
  961POPC   C3A15257  40.690  18.692   8.008
  961POPC   C4A15258  40.644  18.533   7.603
  961POPC   C1B15259  40.585  17.968   8.732
  961POPC   C2B15260  40.536  18.108   8.282
  961POPC   C3B15261  40.821  18.190   7.948
  961POPC   C4B15262  41.232  18.087   7.739
  962POPC   NC315263   9.125  17.812   9.660
  962POPC   PO415264   8.702  17.364   9.391
  962POPC   GL115265   8.994  17.476   9.076
  962POPC   GL215266   9.249  17.651   9.168
  962POPC   C1A15267   8.922  17.512   8.625
  962POPC   D2A15268   8.524  17.437   8.406
  962POPC   C3A15269   8.448  17.655   8.044
  962POPC   C4A15270   8.689  17.602   7.716
  962POPC   C1B15271   9.298  17.855   8.766
  962POPC   C2B15272   9.248  17.817   8.330
  962POPC   C3B15273   9.022  17.518   8.093
  962POPC   C4B15274   9.139  17.398   7.674
  963POPC   NC315275  32.486   9.301   9.459
  963POPC   PO415276  32.122   8.711   9.488
  963POPC   GL115277  32.281   8.937   9.158
  963POPC   GL215278  32.487   8.663   9.088
  963POPC   C1A15279  32.104   9.092   8.772
  963POPC   D2A15280  31.907   9.038   8.351
  963POPC   C3A15281  32.243   8.964   8.040
  963POPC   C4A15282  32.376   9.191   7.668
  963POPC   C1B15283  32.098   8.587   8.808
  963POPC   C2B15284  31.784   8.548   8.492
  963POPC   C3B15285  31.885   8.491   8.061
  963POPC   C4B15286  32.145   8.554   7.696
  964POPC   NC315287  24.386  42.708   9.695
  964POPC   PO415288  24.921  42.405   9.408
  964POPC   GL115289  24.472  42.330   9.251
  964POPC   GL215290  24.264  42.625   9.199
  964POPC   C1A15291  24.280  42.248   8.834
  964POPC   D2A15292  24.379  42.027   8.426
  964POPC   C3A15293  24.211  42.054   8.039
  964POPC   C4A15294  24.402  42.075   7.661
  964POPC   C1B15295  24.341  42.765   8.780
  964POPC   C2B15296  24.335  42.549   8.397
  964POPC   C3B15297  24.471  42.481   7.997
  964POPC   C4B15298  24.466  42.706   7.629
  965POPC   NC315299  38.671  11.060   9.621
  965POPC   PO415300  38.107  11.438   9.535
  965POPC   GL115301  38.189  11.286   9.154
  965POPC   GL215302  38.538  11.234   9.144
  965POPC   C1A15303  38.220  11.423   8.744
  965POPC   D2A15304  38.441  11.538   8.344
  965POPC   C3A15305  38.189  11.448   7.966
  965POPC   C4A15306  38.185  11.659   7.562
  965POPC   C1B15307  38.668  11.219   8.716
  965POPC   C2B15308  38.786  11.151   8.303
  965POPC   C3B15309  38.861  11.020   7.901
  965POPC   C4B15310  38.641  10.793   7.583
  966POPC   NC315311  36.317  31.486   9.409
  966POPC   PO415312  36.994  31.592   9.526
  966POPC   GL115313  36.872  31.529   9.137
  966POPC   GL215314  37.095  31.250   9.112
  966POPC   C1A15315  36.685  31.797   8.815
  966POPC   D2A15316  36.735  31.870   8.368
  966POPC   C3A15317  36.710  31.459   8.149
  966POPC   C4A15318  36.404  31.245   7.914
  966POPC   C1B15319  36.897  31.151   8.744
  966POPC   C2B15320  37.122  31.245   8.389
  966POPC   C3B15321  37.207  31.637   8.179
  966POPC   C4B15322  37.347  31.682   7.775
  967POPC   NC315323   9.376   7.276   9.469
  967POPC   PO415324   8.646   7.542   9.449
  967POPC   GL115325   8.987   7.468   9.209
  967POPC   GL215326   9.039   7.125   9.127
  967POPC   C1A15327   8.990   7.490   8.789
  967POPC   D2A15328   8.684   7.350   8.468
  967POPC   C3A15329   8.818   7.489   8.062
  967POPC   C4A15330   9.189   7.451   7.820
  967POPC   C1B15331   8.919   6.986   8.754
  967POPC   C2B15332   8.877   6.857   8.360
  967POPC   C3B15333   8.986   7.003   7.983
  967POPC   C4B15334   8.912   7.114   7.552
  968POPC   NC315335  11.800  33.962   9.465
  968POPC   PO415336  12.049  33.367   9.439
  968POPC   GL115337  12.206  33.590   9.079
  968POPC   GL215338  11.851  33.693   9.000
  968POPC   C1A15339  12.204  33.804   8.667
  968POPC   D2A15340  11.803  33.753   8.449
  968POPC   C3A15341  11.909  33.530   8.098
  968POPC   C4A15342  12.281  33.695   7.918
  968POPC   C1B15343  11.621  34.070   8.827
  968POPC   C2B15344  11.589  34.235   8.419
  968POPC   C3B15345  11.808  34.111   8.058
  968POPC   C4B15346  12.146  34.169   7.783
  969POPC   NC315347  21.411  23.082   9.533
  969POPC   PO415348  21.658  22.450   9.399
  969POPC   GL115349  21.393  22.717   9.156
  969POPC   GL215350  21.649  22.936   9.110
  969POPC   C1A15351  21.309  23.020   8.760
  969POPC   D2A15352  21.377  23.231   8.331
  969POPC   C3A15353  21.185  23.085   7.940
  969POPC   C4A15354  21.018  23.162   7.509
  969POPC   C1B15355  21.713  22.709   8.736
  969POPC   C2B15356  21.690  22.809   8.321
  969POPC   C3B15357  21.713  22.986   7.946
  969POPC   C4B15358  21.557  23.255   7.637
  970POPC   NC315359   5.507  20.713   9.483
  970POPC   PO415360   6.204  20.617   9.518
  970POPC   GL115361   5.935  20.570   9.166
  970POPC   GL215362   5.599  20.452   9.072
  970POPC   C1A15363   5.945  20.661   8.749
  970POPC   D2A15364   6.045  20.533   8.342
  970POPC   C3A15365   5.936  20.896   8.080
  970POPC   C4A15366   6.008  20.899   7.657
  970POPC   C1B15367   5.443  20.758   8.820
  970POPC   C2B15368   5.569  20.691   8.408
  970POPC   C3B15369   5.506  20.620   7.987
  970POPC   C4B15370   5.481  21.002   7.760
  971POPC   NC315371  24.204  27.724   9.645
  971POPC   PO415372  24.712  27.248   9.532
  971POPC   GL115373  24.546  27.582   9.253
  971POPC   GL215374  24.184  27.540   9.177
  971POPC   C1A15375  24.536  27.826   8.860
  971POPC   D2A15376  24.699  27.829   8.426
  971POPC   C3A15377  24.357  27.771   8.111
  971POPC   C4A15378  24.213  27.942   7.709
  971POPC   C1B15379  24.353  27.350   8.802
  971POPC   C2B15380  24.598  27.293   8.455
  971POPC   C3B15381  24.514  27.272   8.042
  971POPC   C4B15382  24.283  27.421   7.678
  972POPC   NC315383  21.144  26.176   9.561
  972POPC   PO415384  21.443  26.777   9.705
  972POPC   GL115385  21.544  26.543   9.187
  972POPC   GL215386  21.418  26.207   9.148
  972POPC   C1A15387  21.410  26.485   8.738
  972POPC   D2A15388  21.490  26.245   8.398
  972POPC   C3A15389  21.106  26.086   8.229
  972POPC   C4A15390  21.092  26.057   7.790
  972POPC   C1B15391  21.536  25.914   8.856
  972POPC   C2B15392  21.461  25.735   8.460
  972POPC   C3B15393  21.572  25.844   8.065
  972POPC   C4B15394  21.483  25.745   7.682
  973POPC   NC315395  21.414   4.693   9.594
  973POPC   PO415396  21.278   4.104   9.431
  973POPC   GL115397  21.193   4.267   9.068
  973POPC   GL215398  21.295   4.614   9.097
  973POPC   C1A15399  21.313   4.304   8.674
  973POPC   D2A15400  21.432   4.372   8.279
  973POPC   C3A15401  21.157   4.379   7.966
  973POPC   C4A15402  21.104   4.330   7.576
  973POPC   C1B15403  21.697   4.646   8.875
  973POPC   C2B15404  21.848   4.804   8.503
  973POPC   C3B15405  21.899   4.536   8.155
  973POPC   C4B15406  21.637   4.402   7.766
  974POPC   NC315407  32.409  15.002   9.434
  974POPC   PO415408  31.993  15.429   9.473
  974POPC   GL115409  32.206  15.283   9.067
  974POPC   GL215410  32.261  14.893   8.974
  974POPC   C1A15411  32.268  15.318   8.654
  974POPC   D2A15412  32.123  15.238   8.278
  974POPC   C3A15413  32.275  15.332   7.881
  974POPC   C4A15414  32.025  15.420   7.538
  974POPC   C1B15415  32.314  14.821   8.529
  974POPC   C2B15416  32.576  15.008   8.174
  974POPC   C3B15417  32.605  14.980   7.724
  974POPC   C4B15418  32.408  14.858   7.335
  975POPC   NC315419  36.043  21.804   9.308
  975POPC   PO415420  35.794  22.357   9.658
  975POPC   GL115421  35.603  22.211   9.240
  975POPC   GL215422  35.286  22.033   9.235
  975POPC   C1A15423  35.354  22.429   8.881
  975POPC   D2A15424  35.253  22.294   8.458
  975POPC   C3A15425  35.245  22.487   8.062
  975POPC   C4A15426  35.340  22.437   7.627
  975POPC   C1B15427  35.496  21.923   8.822
  975POPC   C2B15428  35.428  21.781   8.410
  975POPC   C3B15429  35.330  21.981   8.032
  975POPC   C4B15430  35.278  21.926   7.594
  976POPC   NC315431   0.184  23.406   9.378
  976POPC   PO415432  44.755  23.870   9.560
  976POPC   GL115433  44.620  23.723   9.165
  976POPC   GL215434  44.471  23.413   9.148
  976POPC   C1A15435  44.450  23.825   8.788
  976POPC   D2A15436  44.725  23.990   8.524
  976POPC   C3A15437  44.899  23.761   8.207
  976POPC   C4A15438  44.962  24.014   7.836
  976POPC   C1B15439  44.526  23.334   8.708
  976POPC   C2B15440  44.377  23.563   8.351
  976POPC   C3B15441  44.422  23.762   7.966
  976POPC   C4B15442  44.748  23.557   7.753
  977POPC   NC315443  14.356  14.915   9.366
  977POPC   PO415444  14.696  15.434   9.575
  977POPC   GL115445  14.630  15.297   9.135
  977POPC   GL215446  14.240  15.298   9.055
  977POPC   C1A15447  14.595  15.032   8.752
  977POPC   D2A15448  14.566  14.930   8.314
  977POPC   C3A15449  14.608  15.209   7.975
  977POPC   C4A15450  14.700  14.896   7.697
  977POPC   C1B15451  13.987  15.010   8.776
  977POPC   C2B15452  14.059  15.038   8.336
  977POPC   C3B15453  14.196  14.897   7.938
  977POPC   C4B15454  14.245  15.042   7.522
  978POPC   NC315455  29.351   7.712   9.507
  978POPC   PO415456  28.713   7.476   9.578
  978POPC   GL115457  29.019   7.374   9.222
  978POPC   GL215458  29.349   7.177   9.298
  978POPC   C1A15459  29.014   7.522   8.764
  978POPC   D2A15460  29.195   7.743   8.373
  978POPC   C3A15461  29.090   7.566   7.959
  978POPC   C4A15462  29.251   7.424   7.562
  978POPC   C1B15463  29.362   7.175   8.884
  978POPC   C2B15464  29.312   7.230   8.434
  978POPC   C3B15465  29.249   7.086   8.018
  978POPC   C4B15466  28.905   7.088   7.761
  979POPC   NC315467   1.866  33.121   9.521
  979POPC   PO415468   2.536  33.275   9.401
  979POPC   GL115469   2.243  33.037   9.104
  979POPC   GL215470   1.922  32.852   9.037
  979POPC   C1A15471   2.177  33.071   8.648
  979POPC   D2A15472   2.421  33.100   8.279
  979POPC   C3A15473   2.241  32.930   7.844
  979POPC   C4A15474   2.026  32.761   7.441
  979POPC   C1B15475   1.776  32.788   8.595
  979POPC   C2B15476   1.887  33.034   8.205
  979POPC   C3B15477   1.737  32.988   7.781
  979POPC   C4B15478   1.500  32.795   7.453
  980POPC   NC315479  24.687  23.119   9.586
  980POPC   PO415480  24.241  22.698   9.423
  980POPC   GL115481  24.523  22.892   9.132
  980POPC   GL215482  24.837  23.054   9.087
  980POPC   C1A15483  24.645  22.717   8.745
  980POPC   D2A15484  24.507  22.497   8.391
  980POPC   C3A15485  24.608  22.723   8.036
  980POPC   C4A15486  24.379  22.740   7.683
  980POPC   C1B15487  24.681  23.249   8.723
  980POPC   C2B15488  24.697  23.242   8.284
  980POPC   C3B15489  24.409  23.203   7.949
  980POPC   C4B15490  24.744  23.129   7.685
  981POPC   NC315491  36.145   0.209   9.494
  981POPC   PO415492  36.588   0.653   9.668
  981POPC   GL115493  36.353   0.594   9.202
  981POPC   GL215494  36.023   0.444   9.038
  981POPC   C1A15495  36.444   0.363   8.794
  981POPC   D2A15496  36.392  44.956   8.550
  981POPC   C3A15497  36.376   0.052   8.115
  981POPC   C4A15498  36.382   0.473   7.907
  981POPC   C1B15499  35.823   0.742   8.741
  981POPC   C2B15500  35.605   0.776   8.321
  981POPC   C3B15501  35.811   0.662   7.922
  981POPC   C4B15502  35.941   0.210   7.918
  982POPC   NC315503  30.512   2.350   9.575
  982POPC   PO415504  30.642   3.003   9.548
  982POPC   GL115505  30.859   2.842   9.171
  982POPC   GL215506  30.533   2.678   9.079
  982POPC   C1A15507  31.130   2.849   8.773
  982POPC   D2A15508  31.008   3.012   8.370
  982POPC   C3A15509  30.702   2.830   8.113
  982POPC   C4A15510  30.788   2.894   7.696
  982POPC   C1B15511  30.688   2.619   8.641
  982POPC   C2B15512  31.017   2.490   8.348
  982POPC   C3B15513  31.050   2.514   7.891
  982POPC   C4B15514  30.759   2.413   7.536
  983POPC   NC315515   7.290  33.735   9.674
  983POPC   PO415516   7.660  34.273   9.535
  983POPC   GL115517   7.407  34.004   9.227
  983POPC   GL215518   7.493  33.624   9.192
  983POPC   C1A15519   7.369  33.876   8.787
  983POPC   D2A15520   7.519  33.727   8.400
  983POPC   C3A15521   7.283  33.662   8.007
  983POPC   C4A15522   7.403  33.978   7.724
  983POPC   C1B15523   7.822  33.481   8.853
  983POPC   C2B15524   7.941  33.410   8.392
  983POPC   C3B15525   7.809  33.628   7.994
  983POPC   C4B15526   7.636  33.553   7.603
  984POPC   NC315527  42.919  30.787   9.486
  984POPC   PO415528  43.439  30.302   9.576
  984POPC   GL115529  43.526  30.504   9.128
  984POPC   GL215530  43.208  30.600   9.101
  984POPC   C1A15531  43.416  30.721   8.676
  984POPC   D2A15532  43.206  30.700   8.256
  984POPC   C3A15533  43.264  31.057   7.970
  984POPC   C4A15534  43.428  31.069   7.540
  984POPC   C1B15535  42.981  30.495   8.691
  984POPC   C2B15536  42.683  30.375   8.451
  984POPC   C3B15537  42.802  30.416   8.047
  984POPC   C4B15538  42.859  30.549   7.651
  985POPC   NC315539  14.447  29.376   9.542
  985POPC   PO415540  14.518  28.684   9.518
  985POPC   GL115541  14.542  28.996   9.163
  985POPC   GL215542  14.202  29.171   9.156
  985POPC   C1A15543  14.329  28.952   8.724
  985POPC   D2A15544  14.054  28.932   8.364
  985POPC   C3A15545  14.374  28.869   8.053
  985POPC   C4A15546  14.475  28.904   7.633
  985POPC   C1B15547  14.465  29.429   8.872
  985POPC   C2B15548  14.237  29.399   8.502
  985POPC   C3B15549  14.170  29.348   8.090
  985POPC   C4B15550  14.443  29.439   7.784
  986POPC   NC315551  40.915  28.199   9.591
  986POPC   PO415552  40.367  28.278   9.305
  986POPC   GL115553  40.730  28.182   9.089
  986POPC   GL215554  40.979  28.443   9.129
  986POPC   C1A15555  40.696  28.271   8.661
  986POPC   D2A15556  40.357  28.386   8.359
  986POPC   C3A15557  40.583  28.440   8.021
  986POPC   C4A15558  40.691  28.264   7.635
  986POPC   C1B15559  40.979  28.679   8.756
  986POPC   C2B15560  41.048  28.480   8.334
  986POPC   C3B15561  41.105  28.414   7.901
  986POPC   C4B15562  41.283  28.731   7.621
  987POPC   NC315563  10.094   3.888   9.375
  987POPC   PO415564  10.595   3.391   9.540
  987POPC   GL115565  10.612   3.659   9.191
  987POPC   GL215566  10.315   3.540   9.070
  987POPC   C1A15567  10.700   3.703   8.763
  987POPC   D2A15568  10.552   3.892   8.381
  987POPC   C3A15569  10.700   3.702   7.967
  987POPC   C4A15570  10.469   3.517   7.602
  987POPC   C1B15571  10.186   3.753   8.719
  987POPC   C2B15572  10.025   3.733   8.318
  987POPC   C3B15573  10.227   3.869   7.966
  987POPC   C4B15574  10.117   3.876   7.558
  988POPC   NC315575  27.149  23.274   9.658
  988POPC   PO415576  26.697  23.671   9.442
  988POPC   GL115577  26.628  23.795   9.048
  988POPC   GL215578  26.980  23.780   8.989
  988POPC   C1A15579  26.638  23.658   8.621
  988POPC   D2A15580  26.910  23.500   8.306
  988POPC   C3A15581  26.662  23.584   7.961
  988POPC   C4A15582  26.545  23.395   7.602
  988POPC   C1B15583  26.977  24.022   8.589
  988POPC   C2B15584  26.960  23.987   8.166
  988POPC   C3B15585  27.118  23.752   7.824
  988POPC   C4B15586  26.955  23.687   7.450
  989POPC   NC315587  25.814  18.144   9.641
  989POPC   PO415588  26.078  18.723   9.560
  989POPC   GL115589  26.151  18.480   9.212
  989POPC   GL215590  25.981  18.203   9.165
  989POPC   C1A15591  26.077  18.529   8.761
  989POPC   D2A15592  25.862  18.340   8.398
  989POPC   C3A15593  25.948  18.598   8.064
  989POPC   C4A15594  26.112  18.627   7.664
  989POPC   C1B15595  25.954  18.000   8.791
  989POPC   C2B15596  25.615  17.880   8.541
  989POPC   C3B15597  25.644  17.935   8.119
  989POPC   C4B15598  25.920  18.147   7.815
  990POPC   NC315599  19.713  40.972   9.430
  990POPC   PO415600  20.378  40.849   9.589
  990POPC   GL115601  20.168  40.983   9.162
  990POPC   GL215602  19.941  40.712   9.053
  990POPC   C1A15603  20.167  40.904   8.658
  990POPC   D2A15604  19.858  40.859   8.325
  990POPC   C3A15605  19.871  40.934   7.910
  990POPC   C4A15606  20.090  40.625   7.720
  990POPC   C1B15607  19.703  40.529   8.695
  990POPC   C2B15608  19.408  40.585   8.368
  990POPC   C3B15609  19.466  40.463   7.944
  990POPC   C4B15610  19.560  40.679   7.569
  991POPC   NC315611   7.852  19.960   9.495
  991POPC   PO415612   7.498  19.454   9.363
  991POPC   GL115613   7.432  19.828   9.136
  991POPC   GL215614   7.675  20.096   9.013
  991POPC   C1A15615   7.343  19.721   8.714
  991POPC   D2A15616   7.591  19.861   8.355
  991POPC   C3A15617   7.441  19.689   7.977
  991POPC   C4A15618   7.544  19.616   7.545
  991POPC   C1B15619   7.281  20.201   8.792
  991POPC   C2B15620   7.115  20.063   8.374
  991POPC   C3B15621   7.232  20.210   7.951
  991POPC   C4B15622   7.161  20.137   7.504
  992POPC   NC315623  36.411  10.823   9.443
  992POPC   PO415624  35.748  10.655   9.461
  992POPC   GL115625  35.996  10.709   9.155
  992POPC   GL215626  36.237  10.410   9.190
  992POPC   C1A15627  36.029  10.567   8.753
  992POPC   D2A15628  36.248  10.714   8.415
  992POPC   C3A15629  36.046  10.575   8.052
  992POPC   C4A15630  36.336  10.620   7.763
  992POPC   C1B15631  36.227  10.112   8.815
  992POPC   C2B15632  36.115  10.192   8.370
  992POPC   C3B15633  36.298  10.134   7.925
  992POPC   C4B15634  36.199   9.848   7.599
  993POPC   NC315635   0.769  17.198   9.551
  993POPC   PO415636   0.316  17.689   9.552
  993POPC   GL115637   0.422  17.661   9.152
  993POPC   GL215638   0.435  17.310   9.147
  993POPC   C1A15639   0.293  17.578   8.710
  993POPC   D2A15640   0.502  17.829   8.397
  993POPC   C3A15641   0.437  17.633   8.037
  993POPC   C4A15642   0.135  17.674   7.712
  993POPC   C1B15643   0.416  17.076   8.794
  993POPC   C2B15644   0.274  17.084   8.415
  993POPC   C3B15645   0.522  17.119   8.074
  993POPC   C4B15646   0.534  17.287   7.674
  994POPC   NC315647   1.546  37.773   9.597
  994POPC   PO415648   0.785  38.018   9.578
  994POPC   GL115649   1.046  37.757   9.225
  994POPC   GL215650   1.376  37.618   9.167
  994POPC   C1A15651   1.239  37.877   8.780
  994POPC   D2A15652   1.078  37.747   8.403
  994POPC   C3A15653   1.262  37.824   8.040
  994POPC   C4A15654   1.117  37.691   7.659
  994POPC   C1B15655   1.676  37.547   8.878
  994POPC   C2B15656   1.586  37.608   8.444
  994POPC   C3B15657   1.720  37.569   8.036
  994POPC   C4B15658   1.630  37.772   7.674
  995POPC   NC315659  42.804  27.810   9.381
  995POPC   PO415660  42.991  27.252   9.417
  995POPC   GL115661  43.138  27.425   9.069
  995POPC   GL215662  43.450  27.594   9.175
  995POPC   C1A15663  42.878  27.492   8.708
  995POPC   D2A15664  42.604  27.667   8.380
  995POPC   C3A15665  42.783  27.800   8.018
  995POPC   C4A15666  42.979  27.455   7.868
  995POPC   C1B15667  43.285  27.850   8.813
  995POPC   C2B15668  43.152  27.780   8.400
  995POPC   C3B15669  43.286  27.941   8.054
  995POPC   C4B15670  43.319  27.774   7.684
  996POPC   NC315671  37.193  29.400   9.585
  996POPC   PO415672  36.640  29.033   9.457
  996POPC   GL115673  36.903  29.236   9.171
  996POPC   GL215674  37.219  29.069   9.174
  996POPC   C1A15675  36.945  29.181   8.738
  996POPC   D2A15676  36.756  28.884   8.463
  996POPC   C3A15677  36.780  29.064   8.062
  996POPC   C4A15678  36.766  29.409   7.752
  996POPC   C1B15679  37.425  29.028   8.764
  996POPC   C2B15680  37.267  29.044   8.344
  996POPC   C3B15681  37.280  29.061   7.925
  996POPC   C4B15682  37.357  29.052   7.486
  997POPC   NC315683  40.164  41.493   9.516
  997POPC   PO415684  39.604  41.850   9.414
  997POPC   GL115685  39.924  41.707   9.133
  997POPC   GL215686  39.843  41.377   9.113
  997POPC   C1A15687  40.146  41.553   8.723
  997POPC   D2A15688  40.117  41.462   8.265
  997POPC   C3A15689  40.426  41.268   7.951
  997POPC   C4A15690  40.485  41.491   7.607
  997POPC   C1B15691  39.620  41.588   8.764
  997POPC   C2B15692  39.451  41.658   8.368
  997POPC   C3B15693  39.696  41.639   8.012
  997POPC   C4B15694  39.943  41.352   7.791
  998POPC   NC315695   2.187   7.970   9.566
  998POPC   PO415696   1.593   8.145   9.328
  998POPC   GL115697   1.807   8.329   9.035
  998POPC   GL215698   2.116   8.215   9.110
  998POPC   C1A15699   1.923   8.272   8.622
  998POPC   D2A15700   2.017   7.977   8.326
  998POPC   C3A15701   1.913   8.237   7.990
  998POPC   C4A15702   1.806   8.636   7.777
  998POPC   C1B15703   2.353   8.027   8.773
  998POPC   C2B15704   2.519   8.118   8.369
  998POPC   C3B15705   2.373   8.001   7.952
  998POPC   C4B15706   2.193   8.240   7.574
  999POPC   NC315707  26.256  23.545   9.373
  999POPC   PO415708  26.223  24.144   9.508
  999POPC   GL115709  26.152  23.996   9.151
  999POPC   GL215710  25.813  23.841   9.164
  999POPC   C1A15711  26.166  23.788   8.768
  999POPC   D2A15712  26.206  23.633   8.362
  999POPC   C3A15713  26.233  23.854   7.989
  999POPC   C4A15714  26.109  23.645   7.660
  999POPC   C1B15715  25.703  23.552   8.826
  999POPC   C2B15716  25.736  23.424   8.410
  999POPC   C3B15717  25.766  23.653   8.042
  999POPC   C4B15718  25.579  23.661   7.633
 1000POPC   NC315719   9.079  23.819  10.095
 1000POPC   PO415720   8.753  23.850   9.443
 1000POPC   GL115721   8.873  23.657   9.127
 1000POPC   GL215722   8.572  23.533   9.017
 1000POPC   C1A15723   8.987  23.562   8.732
 1000POPC   D2A15724   9.121  23.444   8.357
 1000POPC   C3A15725   9.284  23.737   8.095
 1000POPC   C4A15726   9.208  23.767   7.667
 1000POPC   C1B15727   8.686  23.967   8.772
 1000POPC   C2B15728   8.904  23.935   8.374
 1000POPC   C3B15729   8.774  23.699   8.009
 1000POPC   C4B15730   8.718  23.861   7.607
 1001POPC   NC315731   2.957  33.639   9.475
 1001POPC   PO415732   2.540  34.144   9.675
 1001POPC   GL115733   2.580  33.922   9.254
 1001POPC   GL215734   2.720  33.594   9.050
 1001POPC   C1A15735   2.533  34.002   8.820
 1001POPC   D2A15736   2.751  34.087   8.422
 1001POPC   C3A15737   2.540  34.017   8.030
 1001POPC   C4A15738   2.745  34.071   7.678
 1001POPC   C1B15739   2.829  33.585   8.617
 1001POPC   C2B15740   2.672  33.556   8.215
 1001POPC   C3B15741   2.840  33.603   7.803
 1001POPC   C4B15742   2.978  33.583   7.365
 1002POPC   NC315743   6.537   1.685   9.602
 1002POPC   PO415744   6.732   2.314   9.475
 1002POPC   GL115745   6.825   1.939   9.240
 1002POPC   GL215746   6.498   1.863   9.118
 1002POPC   C1A15747   6.890   1.894   8.802
 1002POPC   D2A15748   6.742   2.063   8.423
 1002POPC   C3A15749   6.732   1.927   8.007
 1002POPC   C4A15750   6.815   2.244   7.721
 1002POPC   C1B15751   6.336   1.930   8.684
 1002POPC   C2B15752   6.251   1.851   8.247
 1002POPC   C3B15753   6.175   1.779   7.807
 1002POPC   C4B15754   6.386   1.752   7.377
 1003POPC   NC315755  11.737  44.067   9.454
 1003POPC   PO415756  12.093  43.479   9.553
 1003POPC   GL115757  12.047  43.752   9.165
 1003POPC   GL215758  12.257  44.043   9.236
 1003POPC   C1A15759  11.731  43.929   8.797
 1003POPC   D2A15760  11.557  44.118   8.387
 1003POPC   C3A15761  11.717  44.078   7.974
 1003POPC   C4A15762  12.039  43.868   7.835
 1003POPC   C1B15763  12.231  44.044   8.777
 1003POPC   C2B15764  12.120  44.022   8.330
 1003POPC   C3B15765  12.413  44.160   7.994
 1003POPC   C4B15766  12.295  44.183   7.548
 1004POPC   NC315767  41.666  39.176   9.605
 1004POPC   PO415768  42.173  38.682   9.546
 1004POPC   GL115769  41.947  39.000   9.218
 1004POPC   GL215770  41.570  39.134   9.130
 1004POPC   C1A15771  41.942  39.209   8.812
 1004POPC   D2A15772  41.871  39.002   8.430
 1004POPC   C3A15773  41.642  39.135   8.060
 1004POPC   C4A15774  41.693  38.863   7.702
 1004POPC   C1B15775  41.447  39.020   8.753
 1004POPC   C2B15776  41.261  39.167   8.416
 1004POPC   C3B15777  41.072  39.030   8.073
 1004POPC   C4B15778  41.219  39.071   7.719
 1005POPC   NC315779  14.547  41.291   9.491
 1005POPC   PO415780  14.513  41.933   9.354
 1005POPC   GL115781  14.517  41.608   9.092
 1005POPC   GL215782  14.855  41.602   9.079
 1005POPC   C1A15783  14.342  41.513   8.699
 1005POPC   D2A15784  14.206  41.737   8.356
 1005POPC   C3A15785  14.248  41.637   7.955
 1005POPC   C4A15786  14.247  41.490   7.534
 1005POPC   C1B15787  14.784  41.766   8.688
 1005POPC   C2B15788  14.698  41.861   8.265
 1005POPC   C3B15789  14.736  41.734   7.821
 1005POPC   C4B15790  14.606  41.804   7.387
 1006POPC   NC315791  29.642  17.274   9.466
 1006POPC   PO415792  29.814  17.900   9.627
 1006POPC   GL115793  29.725  17.744   9.228
 1006POPC   GL215794  30.005  17.496   9.197
 1006POPC   C1A15795  29.581  17.535   8.864
 1006POPC   D2A15796  29.681  17.495   8.453
 1006POPC   C3A15797  29.670  17.844   8.223
 1006POPC   C4A15798  29.561  17.556   7.897
 1006POPC   C1B15799  30.074  17.624   8.802
 1006POPC   C2B15800  30.199  17.534   8.395
 1006POPC   C3B15801  30.056  17.530   8.004
 1006POPC   C4B15802  30.178  17.688   7.615
 1007POPC   NC315803  41.887  39.962   9.411
 1007POPC   PO415804  41.279  39.752   9.493
 1007POPC   GL115805  41.435  40.035   9.163
 1007POPC   GL215806  41.283  40.393   9.119
 1007POPC   C1A15807  41.654  39.871   8.772
 1007POPC   D2A15808  41.654  39.505   8.485
 1007POPC   C3A15809  41.569  39.658   8.057
 1007POPC   C4A15810  41.295  39.915   7.795
 1007POPC   C1B15811  41.385  40.300   8.726
 1007POPC   C2B15812  41.450  40.111   8.326
 1007POPC   C3B15813  41.590  40.304   7.952
 1007POPC   C4B15814  41.361  40.342   7.549
 1008POPC   NC315815  30.304  31.668   9.409
 1008POPC   PO415816  29.789  31.301   9.498
 1008POPC   GL115817  29.969  31.302   9.117
 1008POPC   GL215818  29.913  31.650   9.050
 1008POPC   C1A15819  30.195  31.238   8.728
 1008POPC   D2A15820  30.252  31.474   8.337
 1008POPC   C3A15821  29.933  31.378   8.038
 1008POPC   C4A15822  29.506  31.512   7.916
 1008POPC   C1B15823  30.231  31.813   8.769
 1008POPC   C2B15824  30.291  31.981   8.378
 1008POPC   C3B15825  30.008  31.908   8.040
 1008POPC   C4B15826  29.919  31.703   7.646
 1009POPC   NC315827  38.695  29.002   9.750
 1009POPC   PO415828  38.301  29.438   9.409
 1009POPC   GL115829  38.507  29.139   9.156
 1009POPC   GL215830  38.850  29.152   9.277
 1009POPC   C1A15831  38.459  29.029   8.717
 1009POPC   D2A15832  38.467  29.072   8.254
 1009POPC   C3A15833  38.221  29.328   7.966
 1009POPC   C4A15834  38.121  29.149   7.546
 1009POPC   C1B15835  38.940  29.311   8.857
 1009POPC   C2B15836  38.845  29.381   8.416
 1009POPC   C3B15837  38.865  29.300   7.968
 1009POPC   C4B15838  38.586  29.029   7.731
 1010POPC   NC315839  11.009  10.219   9.417
 1010POPC   PO415840  11.417  10.709   9.439
 1010POPC   GL115841  11.307  10.511   9.101
 1010POPC   GL215842  11.422  10.162   9.122
 1010POPC   C1A15843  11.341  10.680   8.688
 1010POPC   D2A15844  11.153  10.801   8.304
 1010POPC   C3A15845  11.376  10.647   7.964
 1010POPC   C4A15846  11.404  10.817   7.551
 1010POPC   C1B15847  11.219  10.169   8.755
 1010POPC   C2B15848  11.138  10.295   8.392
 1010POPC   C3B15849  11.161  10.166   8.016
 1010POPC   C4B15850  11.006  10.388   7.720
 1011POPC   NC315851  14.285  11.124   9.471
 1011POPC   PO415852  14.464  11.755   9.552
 1011POPC   GL115853  14.407  11.566   9.112
 1011POPC   GL215854  14.370  11.217   9.000
 1011POPC   C1A15855  14.209  11.641   8.738
 1011POPC   D2A15856  14.036  11.398   8.484
 1011POPC   C3A15857  14.270  11.382   8.111
 1011POPC   C4A15858  14.064  11.614   7.755
 1011POPC   C1B15859  14.485  11.189   8.622
 1011POPC   C2B15860  14.825  11.204   8.400
 1011POPC   C3B15861  14.775  11.217   7.992
 1011POPC   C4B15862  14.689  11.057   7.570
 1012POPC   NC315863  37.927  13.399   9.479
 1012POPC   PO415864  37.319  13.541   9.518
 1012POPC   GL115865  37.491  13.774   9.178
 1012POPC   GL215866  37.793  13.695   9.095
 1012POPC   C1A15867  37.366  13.710   8.747
 1012POPC   D2A15868  37.685  13.642   8.465
 1012POPC   C3A15869  37.579  13.726   8.092
 1012POPC   C4A15870  37.388  13.955   7.810
 1012POPC   C1B15871  37.680  13.312   8.889
 1012POPC   C2B15872  37.730  13.132   8.500
 1012POPC   C3B15873  37.587  13.205   8.099
 1012POPC   C4B15874  37.612  13.399   7.705
 1013POPC   NC315875  40.231  11.225   9.411
 1013POPC   PO415876  39.707  11.706   9.422
 1013POPC   GL115877  39.895  11.474   9.124
 1013POPC   GL215878  39.815  11.121   9.092
 1013POPC   C1A15879  40.159  11.418   8.781
 1013POPC   D2A15880  40.007  11.432   8.376
 1013POPC   C3A15881  40.190  11.607   8.004
 1013POPC   C4A15882  40.096  11.383   7.611
 1013POPC   C1B15883  40.135  10.911   8.803
 1013POPC   C2B15884  40.302  11.042   8.465
 1013POPC   C3B15885  40.208  11.071   8.048
 1013POPC   C4B15886  40.289  10.736   7.787
 1014POPC   NC315887  10.869  20.228   9.627
 1014POPC   PO415888  10.292  19.756   9.521
 1014POPC   GL115889  10.657  19.802   9.288
 1014POPC   GL215890  10.620  19.477   9.133
 1014POPC   C1A15891  10.783  19.885   8.894
 1014POPC   D2A15892  10.465  19.969   8.634
 1014POPC   C3A15893  10.660  20.025   8.238
 1014POPC   C4A15894  10.486  19.977   7.796
 1014POPC   C1B15895  10.397  19.488   8.794
 1014POPC   C2B15896  10.651  19.546   8.454
 1014POPC   C3B15897  10.404  19.604   8.140
 1014POPC   C4B15898  10.373  19.465   7.762
 1015POPC   NC315899  33.227  40.876   9.706
 1015POPC   PO415900  32.654  40.538   9.637
 1015POPC   GL115901  32.789  40.788   9.262
 1015POPC   GL215902  33.106  40.680   9.265
 1015POPC   C1A15903  32.799  40.850   8.804
 1015POPC   D2A15904  32.667  40.755   8.367
 1015POPC   C3A15905  32.931  40.868   8.033
 1015POPC   C4A15906  32.934  41.181   7.729
 1015POPC   C1B15907  33.286  40.761   8.889
 1015POPC   C2B15908  33.178  40.621   8.510
 1015POPC   C3B15909  33.342  40.602   8.118
 1015POPC   C4B15910  33.175  40.476   7.753
 1016POPC   NC315911   3.818   7.944   9.532
 1016POPC   PO415912   3.177   8.341   9.380
 1016POPC   GL115913   3.443   8.050   9.160
 1016POPC   GL215914   3.782   8.171   9.058
 1016POPC   C1A15915   3.370   7.956   8.745
 1016POPC   D2A15916   3.558   8.010   8.348
 1016POPC   C3A15917   3.374   8.277   8.075
 1016POPC   C4A15918   3.205   8.283   7.697
 1016POPC   C1B15919   3.936   8.313   8.635
 1016POPC   C2B15920   3.895   8.345   8.147
 1016POPC   C3B15921   3.766   8.215   7.710
 1016POPC   C4B15922   3.963   8.247   7.248
 1017POPC   NC315923  20.424  38.749   9.559
 1017POPC   PO415924  20.704  38.130   9.629
 1017POPC   GL115925  20.765  38.319   9.240
 1017POPC   GL215926  20.877  38.629   9.317
 1017POPC   C1A15927  20.597  38.188   8.842
 1017POPC   D2A15928  20.351  38.038   8.500
 1017POPC   C3A15929  20.600  38.123   8.124
 1017POPC   C4A15930  20.764  38.464   7.885
 1017POPC   C1B15931  20.770  38.686   8.869
 1017POPC   C2B15932  20.644  38.547   8.439
 1017POPC   C3B15933  20.374  38.744   8.141
 1017POPC   C4B15934  20.391  38.880   7.734
 1018POPC   NC315935  20.584  43.772   9.508
 1018POPC   PO415936  20.226  44.333   9.416
 1018POPC   GL115937  20.403  44.044   9.123
 1018POPC   GL215938  20.724  44.095   9.117
 1018POPC   C1A15939  20.549  43.762   8.779
 1018POPC   D2A15940  20.600  43.552   8.377
 1018POPC   C3A15941  20.384  43.729   8.040
 1018POPC   C4A15942  20.424  43.998   7.659
 1018POPC   C1B15943  20.686  44.266   8.726
 1018POPC   C2B15944  20.453  44.127   8.393
 1018POPC   C3B15945  20.724  44.121   8.049
 1018POPC   C4B15946  20.800  44.355   7.688
 1019POPC   NC315947   4.062   4.574   9.714
 1019POPC   PO415948   3.684   4.124   9.294
 1019POPC   GL115949   3.595   4.377   8.948
 1019POPC   GL215950   3.225   4.350   9.021
 1019POPC   C1A15951   3.834   4.435   8.558
 1019POPC   D2A15952   3.869   4.514   8.109
 1019POPC   C3A15953   4.007   4.224   7.874
 1019POPC   C4A15954   3.697   4.056   7.656
 1019POPC   C1B15955   3.229   4.363   8.581
 1019POPC   C2B15956   3.066   4.608   8.263
 1019POPC   C3B15957   3.212   4.486   7.911
 1019POPC   C4B15958   3.546   4.518   7.711
 1020POPC   NC315959  33.930   0.331  10.194
 1020POPC   PO415960  33.837   0.538   9.564
 1020POPC   GL115961  33.743   0.438   9.147
 1020POPC   GL215962  34.038   0.347   9.100
 1020POPC   C1A15963  33.823   0.666   8.742
 1020POPC   D2A15964  34.134   0.800   8.430
 1020POPC   C3A15965  33.935   0.780   8.055
 1020POPC   C4A15966  33.602   0.529   7.858
 1020POPC   C1B15967  33.978   0.187   8.705
 1020POPC   C2B15968  33.882   0.322   8.304
 1020POPC   C3B15969  34.060   0.275   7.908
 1020POPC   C4B15970  33.806   0.129   7.563
 1021POPC   NC315971  12.224  15.811   9.476
 1021POPC   PO415972  11.645  15.909   9.612
 1021POPC   GL115973  11.797  15.761   9.206
 1021POPC   GL215974  11.924  16.072   9.164
 1021POPC   C1A15975  12.098  15.708   8.826
 1021POPC   D2A15976  11.941  15.903   8.447
 1021POPC   C3A15977  12.173  15.854   8.078
 1021POPC   C4A15978  12.072  15.917   7.684
 1021POPC   C1B15979  12.187  16.214   8.840
 1021POPC   C2B15980  12.191  16.347   8.431
 1021POPC   C3B15981  11.971  16.319   8.071
 1021POPC   C4B15982  12.013  16.432   7.672
 1022POPC   NC315983  12.129   7.047   9.816
 1022POPC   PO415984  12.182   6.426   9.526
 1022POPC   GL115985  12.065   6.666   9.169
 1022POPC   GL215986  12.364   6.722   8.995
 1022POPC   C1A15987  11.852   6.620   8.786
 1022POPC   D2A15988  11.781   6.352   8.449
 1022POPC   C3A15989  12.016   6.511   8.137
 1022POPC   C4A15990  11.913   6.499   7.701
 1022POPC   C1B15991  12.157   6.993   8.697
 1022POPC   C2B15992  11.881   6.958   8.342
 1022POPC   C3B15993  12.122   7.047   7.968
 1022POPC   C4B15994  12.197   6.917   7.496
 1023POPC   NC315995  11.322  17.162  10.031
 1023POPC   PO415996  11.230  16.680   9.591
 1023POPC   GL115997  11.144  16.581   9.189
 1023POPC   GL215998  10.906  16.336   9.207
 1023POPC   C1A15999  11.019  16.776   8.796
 1023POPC   D2A16000  11.220  16.665   8.414
 1023POPC   C3A16001  11.146  16.890   8.053
 1023POPC   C4A16002  11.272  16.820   7.630
 1023POPC   C1B16003  10.747  16.339   8.756
 1023POPC   C2B16004  10.821  16.359   8.276
 1023POPC   C3B16005  11.140  16.401   7.945
 1023POPC   C4B16006  11.116  16.378   7.472
 1024POPC   NC316007  14.777  17.809   9.428
 1024POPC   PO416008  14.316  18.360   9.592
 1024POPC   GL116009  14.363  18.288   9.185
 1024POPC   GL216010  14.069  18.413   9.133
 1024POPC   C1A16011  14.501  18.405   8.766
 1024POPC   D2A16012  14.659  18.212   8.373
 1024POPC   C3A16013  14.521  18.334   7.969
 1024POPC   C4A16014  14.735  18.345   7.548
 1024POPC   C1B16015  14.004  18.227   8.757
 1024POPC   C2B16016  14.166  18.299   8.381
 1024POPC   C3B16017  14.056  18.145   8.004
 1024POPC   C4B16018  14.131  18.409   7.667
 1025POPC   NC316019  32.425  14.002   9.448
 1025POPC   PO416020  32.011  13.394   9.457
 1025POPC   GL116021  32.116  13.715   9.136
 1025POPC   GL216022  32.469  13.836   8.992
 1025POPC   C1A16023  32.137  13.617   8.705
 1025POPC   D2A16024  32.236  13.404   8.349
 1025POPC   C3A16025  32.079  13.753   8.141
 1025POPC   C4A16026  32.040  13.668   7.753
 1025POPC   C1B16027  32.607  13.446   8.802
 1025POPC   C2B16028  32.743  13.461   8.370
 1025POPC   C3B16029  32.556  13.694   7.983
 1025POPC   C4B16030  32.458  13.747   7.499
 1026POPC   NC316031  41.117  40.200   9.550
 1026POPC   PO416032  40.409  40.221   9.650
 1026POPC   GL116033  40.596  40.078   9.247
 1026POPC   GL216034  40.885  39.874   9.192
 1026POPC   C1A16035  40.702  40.186   8.819
 1026POPC   D2A16036  40.724  39.921   8.459
 1026POPC   C3A16037  40.914  40.078   8.114
 1026POPC   C4A16038  40.719  40.308   7.766
 1026POPC   C1B16039  41.124  39.874   8.798
 1026POPC   C2B16040  41.176  39.676   8.401
 1026POPC   C3B16041  41.041  39.536   8.006
 1026POPC   C4B16042  40.774  39.776   7.732
 1027POPC   NC316043  41.039  29.902   9.523
 1027POPC   PO416044  40.378  29.840   9.539
 1027POPC   GL116045  40.627  29.935   9.186
 1027POPC   GL216046  40.746  29.574   9.226
 1027POPC   C1A16047  40.966  30.120   8.881
 1027POPC   D2A16048  41.171  30.338   8.525
 1027POPC   C3A16049  41.011  30.263   8.106
 1027POPC   C4A16050  40.598  30.361   7.947
 1027POPC   C1B16051  40.757  29.648   8.788
 1027POPC   C2B16052  40.893  29.759   8.391
 1027POPC   C3B16053  40.651  29.851   8.049
 1027POPC   C4B16054  40.719  29.959   7.646
 1028POPC   NC316055  39.342  13.868   9.479
 1028POPC   PO416056  39.133  13.219   9.489
 1028POPC   GL116057  39.207  13.491   9.139
 1028POPC   GL216058  38.960  13.731   9.084
 1028POPC   C1A16059  39.410  13.650   8.759
 1028POPC   D2A16060  39.296  13.822   8.360
 1028POPC   C3A16061  39.487  13.648   8.008
 1028POPC   C4A16062  39.550  13.306   7.746
 1028POPC   C1B16063  39.030  14.025   8.745
 1028POPC   C2B16064  39.077  14.282   8.357
 1028POPC   C3B16065  39.225  14.107   7.940
 1028POPC   C4B16066  39.250  13.798   7.580
 1029POPC   NC316067   2.393  17.987   9.443
 1029POPC   PO416068   2.808  18.571   9.407
 1029POPC   GL116069   2.869  18.430   9.021
 1029POPC   GL216070   2.728  18.112   9.072
 1029POPC   C1A16071   2.780  18.300   8.593
 1029POPC   D2A16072   2.431  18.423   8.319
 1029POPC   C3A16073   2.590  18.472   7.929
 1029POPC   C4A16074   3.028  18.346   7.836
 1029POPC   C1B16075   2.447  17.861   8.806
 1029POPC   C2B16076   2.527  17.901   8.391
 1029POPC   C3B16077   2.787  17.962   8.065
 1029POPC   C4B16078   2.554  18.015   7.706
 1030POPC   NC316079   5.106   4.368   9.717
 1030POPC   PO416080   5.284   4.805   9.203
 1030POPC   GL116081   5.044   4.438   9.166
 1030POPC   GL216082   5.265   4.209   9.192
 1030POPC   C1A16083   4.936   4.273   8.765
 1030POPC   D2A16084   4.800   4.526   8.394
 1030POPC   C3A16085   5.014   4.513   8.029
 1030POPC   C4A16086   4.874   4.350   7.665
 1030POPC   C1B16087   5.357   3.955   8.858
 1030POPC   C2B16088   5.329   4.076   8.441
 1030POPC   C3B16089   5.139   4.016   8.046
 1030POPC   C4B16090   5.328   4.109   7.642
 1031POPC   NC316091   6.295  36.577   9.243
 1031POPC   PO416092   6.667  36.097   9.549
 1031POPC   GL116093   6.512  36.062   9.119
 1031POPC   GL216094   6.184  35.886   9.031
 1031POPC   C1A16095   6.754  36.038   8.728
 1031POPC   D2A16096   6.755  36.297   8.351
 1031POPC   C3A16097   6.696  36.143   7.937
 1031POPC   C4A16098   6.885  35.891   7.596
 1031POPC   C1B16099   6.278  36.243   8.709
 1031POPC   C2B16100   6.283  36.470   8.337
 1031POPC   C3B16101   6.179  36.227   7.998
 1031POPC   C4B16102   6.198  35.785   7.909
 1032POPC   NC316103  39.489  13.061   9.215
 1032POPC   PO416104  40.002  13.041   9.668
 1032POPC   GL116105  40.007  12.868   9.181
 1032POPC   GL216106  40.333  12.704   9.094
 1032POPC   C1A16107  39.931  13.080   8.727
 1032POPC   D2A16108  39.837  13.273   8.292
 1032POPC   C3A16109  39.895  12.974   7.942
 1032POPC   C4A16110  39.860  12.928   7.508
 1032POPC   C1B16111  40.218  12.663   8.698
 1032POPC   C2B16112  40.211  12.830   8.330
 1032POPC   C3B16113  40.177  12.534   8.034
 1032POPC   C4B16114  40.012  12.447   7.643
 1033POPC   NC316115  36.405  15.032   9.616
 1033POPC   PO416116  35.951  15.499   9.614
 1033POPC   GL116117  36.081  15.195   9.237
 1033POPC   GL216118  36.421  14.995   9.118
 1033POPC   C1A16119  36.208  15.343   8.814
 1033POPC   D2A16120  36.027  15.436   8.430
 1033POPC   C3A16121  36.265  15.428   8.080
 1033POPC   C4A16122  36.063  15.429   7.731
 1033POPC   C1B16123  36.342  14.851   8.693
 1033POPC   C2B16124  36.143  14.935   8.304
 1033POPC   C3B16125  36.204  14.962   7.858
 1033POPC   C4B16126  36.367  15.110   7.461
 1034POPC   NC316127  22.672  21.582   9.485
 1034POPC   PO416128  22.819  22.182   9.686
 1034POPC   GL116129  22.752  22.038   9.244
 1034POPC   GL216130  22.405  21.950   9.242
 1034POPC   C1A16131  22.918  22.063   8.806
 1034POPC   D2A16132  23.132  22.222   8.417
 1034POPC   C3A16133  22.899  22.171   8.026
 1034POPC   C4A16134  23.025  22.227   7.569
 1034POPC   C1B16135  22.475  21.769   8.855
 1034POPC   C2B16136  22.700  21.722   8.488
 1034POPC   C3B16137  22.519  21.778   8.078
 1034POPC   C4B16138  22.584  21.938   7.686
 1035POPC   NC316139   6.333  18.332   9.351
 1035POPC   PO416140   6.842  18.466   9.780
 1035POPC   GL116141   6.825  18.328   9.258
 1035POPC   GL216142   6.604  18.603   9.036
 1035POPC   C1A16143   6.636  18.116   8.835
 1035POPC   D2A16144   6.443  18.203   8.416
 1035POPC   C3A16145   6.740  18.480   8.189
 1035POPC   C4A16146   7.080  18.389   7.848
 1035POPC   C1B16147   6.249  18.709   8.774
 1035POPC   C2B16148   6.256  18.686   8.345
 1035POPC   C3B16149   6.184  18.456   7.983
 1035POPC   C4B16150   6.542  18.317   7.761
 1036POPC   NC316151  31.066  17.834   9.465
 1036POPC   PO416152  30.869  17.140   9.404
 1036POPC   GL116153  30.971  17.450   9.141
 1036POPC   GL216154  30.610  17.435   9.033
 1036POPC   C1A16155  31.016  17.614   8.741
 1036POPC   D2A16156  30.685  17.424   8.501
 1036POPC   C3A16157  30.730  17.323   8.079
 1036POPC   C4A16158  30.967  17.520   7.768
 1036POPC   C1B16159  30.536  17.828   8.814
 1036POPC   C2B16160  30.568  17.948   8.395
 1036POPC   C3B16161  30.528  17.783   8.002
 1036POPC   C4B16162  30.615  17.982   7.633
 1037POPC   NC316163  30.404  27.284   9.520
 1037POPC   PO416164  30.364  27.968   9.432
 1037POPC   GL116165  30.478  27.782   9.074
 1037POPC   GL216166  30.638  27.530   9.170
 1037POPC   C1A16167  30.839  27.813   8.776
 1037POPC   D2A16168  30.994  27.979   8.409
 1037POPC   C3A16169  30.710  27.947   8.040
 1037POPC   C4A16170  30.569  27.659   7.738
 1037POPC   C1B16171  30.577  27.342   8.808
 1037POPC   C2B16172  30.716  27.491   8.404
 1037POPC   C3B16173  30.750  27.259   8.026
 1037POPC   C4B16174  31.140  27.084   7.908
 1038POPC   NC316175  16.649  11.007   9.555
 1038POPC   PO416176  16.280  11.620   9.497
 1038POPC   GL116177  16.502  11.347   9.185
 1038POPC   GL216178  16.866  11.164   9.132
 1038POPC   C1A16179  16.654  11.457   8.785
 1038POPC   D2A16180  16.596  11.674   8.409
 1038POPC   C3A16181  16.709  11.461   8.061
 1038POPC   C4A16182  16.861  11.159   7.778
 1038POPC   C1B16183  16.967  11.008   8.706
 1038POPC   C2B16184  17.094  10.960   8.250
 1038POPC   C3B16185  17.156  10.711   7.843
 1038POPC   C4B16186  16.950  10.816   7.401
 1039POPC   NC316187  15.853  19.377   9.569
 1039POPC   PO416188  16.256  18.936   9.586
 1039POPC   GL116189  15.924  18.882   9.263
 1039POPC   GL216190  16.128  19.149   9.094
 1039POPC   C1A16191  15.707  18.996   8.854
 1039POPC   D2A16192  15.974  19.138   8.515
 1039POPC   C3A16193  15.906  19.013   8.088
 1039POPC   C4A16194  15.974  19.211   7.679
 1039POPC   C1B16195  16.298  18.844   8.797
 1039POPC   C2B16196  16.489  18.860   8.358
 1039POPC   C3B16197  16.343  18.734   7.928
 1039POPC   C4B16198  16.333  18.895   7.478
 1040POPC   NC316199  15.009  23.329   9.934
 1040POPC   PO416200  15.326  23.739   9.676
 1040POPC   GL116201  15.412  23.666   9.242
 1040POPC   GL216202  15.380  24.022   9.115
 1040POPC   C1A16203  15.439  23.415   8.848
 1040POPC   D2A16204  15.257  23.322   8.437
 1040POPC   C3A16205  15.338  23.521   8.031
 1040POPC   C4A16206  15.065  23.544   7.661
 1040POPC   C1B16207  15.545  24.066   8.680
 1040POPC   C2B16208  15.378  23.992   8.251
 1040POPC   C3B16209  15.247  23.991   7.814
 1040POPC   C4B16210  15.502  23.759   7.492
 1041POPC   NC316211  42.938   8.664   9.410
 1041POPC   PO416212  43.192   9.269   9.737
 1041POPC   GL116213  43.273   9.066   9.299
 1041POPC   GL216214  43.531   9.221   9.100
 1041POPC   C1A16215  43.223   8.898   8.848
 1041POPC   D2A16216  43.426   8.740   8.449
 1041POPC   C3A16217  43.294   8.856   8.016
 1041POPC   C4A16218  43.048   8.791   7.608
 1041POPC   C1B16219  43.301   9.402   8.785
 1041POPC   C2B16220  43.134   9.200   8.440
 1041POPC   C3B16221  43.140   9.369   8.080
 1041POPC   C4B16222  43.040   9.260   7.708
 1042POPC   NC316223   6.273   3.702   9.462
 1042POPC   PO416224   6.929   3.762   9.362
 1042POPC   GL116225   6.807   3.416   9.106
 1042POPC   GL216226   6.472   3.251   9.126
 1042POPC   C1A16227   6.744   3.419   8.699
 1042POPC   D2A16228   6.520   3.517   8.360
 1042POPC   C3A16229   6.788   3.628   8.079
 1042POPC   C4A16230   6.641   3.586   7.677
 1042POPC   C1B16231   6.431   3.001   8.707
 1042POPC   C2B16232   6.417   2.984   8.251
 1042POPC   C3B16233   6.241   3.166   7.818
 1042POPC   C4B16234   6.251   3.415   7.393
 1043POPC   NC316235  20.690  25.393   9.590
 1043POPC   PO416236  20.093  25.111   9.505
 1043POPC   GL116237  20.400  25.198   9.204
 1043POPC   GL216238  20.689  25.003   9.269
 1043POPC   C1A16239  20.364  25.199   8.779
 1043POPC   D2A16240  20.458  25.372   8.394
 1043POPC   C3A16241  20.296  25.135   8.053
 1043POPC   C4A16242  20.461  25.230   7.657
 1043POPC   C1B16243  20.866  25.238   8.920
 1043POPC   C2B16244  20.866  25.093   8.512
 1043POPC   C3B16245  20.843  25.185   8.083
 1043POPC   C4B16246  20.907  24.980   7.700
 1044POPC   NC316247  17.095  44.274   9.441
 1044POPC   PO416248  16.893  44.897   9.577
 1044POPC   GL116249  16.855  44.872   9.151
 1044POPC   GL216250  17.066  44.624   9.072
 1044POPC   C1A16251  16.743  44.862   8.728
 1044POPC   D2A16252  16.725   0.095   8.351
 1044POPC   C3A16253  16.721  44.911   7.938
 1044POPC   C4A16254  16.437  44.907   7.573
 1044POPC   C1B16255  16.814  44.367   8.792
 1044POPC   C2B16256  16.683  44.520   8.359
 1044POPC   C3B16257  16.784  44.404   7.938
 1044POPC   C4B16258  16.920  44.382   7.504
 1045POPC   NC316259  31.965   6.406   9.420
 1045POPC   PO416260  32.286   6.931   9.562
 1045POPC   GL116261  32.376   6.630   9.216
 1045POPC   GL216262  32.108   6.741   9.077
 1045POPC   C1A16263  32.324   6.403   8.787
 1045POPC   D2A16264  32.166   6.635   8.428
 1045POPC   C3A16265  32.209   6.468   8.013
 1045POPC   C4A16266  32.419   6.223   7.716
 1045POPC   C1B16267  31.954   6.976   8.769
 1045POPC   C2B16268  32.079   7.149   8.407
 1045POPC   C3B16269  32.047   6.979   8.009
 1045POPC   C4B16270  32.361   6.867   7.713
 1046POPC   NC316271  23.401   1.869   9.573
 1046POPC   PO416272  23.304   2.433   9.155
 1046POPC   GL116273  23.617   2.096   9.139
 1046POPC   GL216274  23.593   1.709   9.139
 1046POPC   C1A16275  23.876   2.135   8.785
 1046POPC   D2A16276  23.849   2.296   8.362
 1046POPC   C3A16277  23.968   2.031   8.028
 1046POPC   C4A16278  24.231   2.084   7.660
 1046POPC   C1B16279  23.846   1.616   8.803
 1046POPC   C2B16280  23.714   1.759   8.429
 1046POPC   C3B16281  23.644   1.626   8.026
 1046POPC   C4B16282  23.626   1.889   7.680
 1047POPC   NC316283  30.608   7.928   9.542
 1047POPC   PO416284  30.541   8.510   9.355
 1047POPC   GL116285  30.819   8.341   9.044
 1047POPC   GL216286  30.904   7.980   9.118
 1047POPC   C1A16287  30.750   8.401   8.584
 1047POPC   D2A16288  30.948   8.309   8.204
 1047POPC   C3A16289  30.855   8.265   7.763
 1047POPC   C4A16290  30.841   7.854   7.584
 1047POPC   C1B16291  30.590   7.953   8.790
 1047POPC   C2B16292  30.380   8.043   8.426
 1047POPC   C3B16293  30.491   8.082   8.042
 1047POPC   C4B16294  30.377   8.047   7.627
 1048POPC   NC316295  28.525  37.454   9.552
 1048POPC   PO416296  28.072  37.922   9.467
 1048POPC   GL116297  28.122  37.558   9.196
 1048POPC   GL216298  28.455  37.485   9.053
 1048POPC   C1A16299  28.023  37.319   8.825
 1048POPC   D2A16300  28.008  37.152   8.389
 1048POPC   C3A16301  28.195  37.396   8.029
 1048POPC   C4A16302  28.140  37.796   7.783
 1048POPC   C1B16303  28.655  37.287   8.687
 1048POPC   C2B16304  28.673  37.463   8.256
 1048POPC   C3B16305  28.650  37.634   7.851
 1048POPC   C4B16306  28.858  37.427   7.558
 1049POPC   NC316307  26.396  16.579   9.633
 1049POPC   PO416308  27.111  16.478   9.530
 1049POPC   GL116309  27.012  16.623   9.147
 1049POPC   GL216310  26.663  16.582   9.179
 1049POPC   C1A16311  26.927  16.536   8.737
 1049POPC   D2A16312  26.690  16.492   8.395
 1049POPC   C3A16313  26.955  16.641   8.113
 1049POPC   C4A16314  26.972  16.554   7.715
 1049POPC   C1B16315  26.686  16.955   8.890
 1049POPC   C2B16316  26.650  16.980   8.423
 1049POPC   C3B16317  26.482  16.806   8.005
 1049POPC   C4B16318  26.355  17.039   7.611
 1050POPC   NC316319  31.141  16.201   9.348
 1050POPC   PO416320  31.469  15.758   9.766
 1050POPC   GL116321  31.576  15.932   9.306
 1050POPC   GL216322  31.898  16.059   9.228
 1050POPC   C1A16323  31.559  16.038   8.834
 1050POPC   D2A16324  31.709  16.212   8.425
 1050POPC   C3A16325  31.528  16.054   8.006
 1050POPC   C4A16326  31.382  15.897   7.568
 1050POPC   C1B16327  31.967  15.733   8.891
 1050POPC   C2B16328  31.971  15.712   8.444
 1050POPC   C3B16329  31.855  15.613   8.016
 1050POPC   C4B16330  31.877  15.881   7.656
 1051POPC   NC316331   9.269  26.044   9.713
 1051POPC   PO416332   9.968  25.981   9.467
 1051POPC   GL116333   9.705  25.927   9.092
 1051POPC   GL216334   9.574  25.627   9.025
 1051POPC   C1A16335   9.611  26.087   8.679
 1051POPC   D2A16336   9.871  26.169   8.305
 1051POPC   C3A16337   9.668  26.321   7.935
 1051POPC   C4A16338   9.692  26.365   7.504
 1051POPC   C1B16339   9.889  25.631   8.730
 1051POPC   C2B16340   9.698  25.668   8.364
 1051POPC   C3B16341   9.618  25.813   8.007
 1051POPC   C4B16342   9.496  25.915   7.640
 1052POPC   NC316343  17.079  30.284   9.508
 1052POPC   PO416344  16.469  29.899   9.471
 1052POPC   GL116345  16.640  29.905   9.066
 1052POPC   GL216346  16.968  30.048   9.066
 1052POPC   C1A16347  16.717  29.834   8.656
 1052POPC   D2A16348  16.491  30.009   8.349
 1052POPC   C3A16349  16.660  29.806   8.060
 1052POPC   C4A16350  16.694  29.688   7.661
 1052POPC   C1B16351  17.233  29.871   8.743
 1052POPC   C2B16352  17.117  29.823   8.306
 1052POPC   C3B16353  17.127  29.953   7.861
 1052POPC   C4B16354  17.266  29.907   7.426
 1053POPC   NC316355  41.590  25.598   9.532
 1053POPC   PO416356  41.753  26.267   9.518
 1053POPC   GL116357  41.668  25.968   9.168
 1053POPC   GL216358  41.350  25.776   9.111
 1053POPC   C1A16359  41.686  25.965   8.707
 1053POPC   D2A16360  41.487  25.863   8.294
 1053POPC   C3A16361  41.676  25.989   7.897
 1053POPC   C4A16362  41.764  26.219   7.486
 1053POPC   C1B16363  41.186  25.859   8.705
 1053POPC   C2B16364  41.236  26.263   8.517
 1053POPC   C3B16365  41.267  26.294   8.095
 1053POPC   C4B16366  41.175  26.042   7.736
 1054POPC   NC316367   4.868  25.099   9.734
 1054POPC   PO416368   5.348  25.584   9.529
 1054POPC   GL116369   5.377  25.379   9.121
 1054POPC   GL216370   5.670  25.529   9.010
 1054POPC   C1A16371   5.128  25.274   8.737
 1054POPC   D2A16372   4.976  25.025   8.379
 1054POPC   C3A16373   4.983  25.206   7.937
 1054POPC   C4A16374   4.865  25.097   7.496
 1054POPC   C1B16375   5.530  25.556   8.608
 1054POPC   C2B16376   5.232  25.518   8.277
 1054POPC   C3B16377   5.375  25.590   7.867
 1054POPC   C4B16378   5.331  25.354   7.468
 1055POPC   NC316379   9.498  33.692   9.435
 1055POPC   PO416380  10.183  33.767   9.456
 1055POPC   GL116381   9.996  33.707   9.139
 1055POPC   GL216382   9.799  33.988   9.158
 1055POPC   C1A16383   9.896  33.545   8.753
 1055POPC   D2A16384   9.621  33.604   8.417
 1055POPC   C3A16385   9.921  33.581   8.067
 1055POPC   C4A16386  10.004  33.694   7.659
 1055POPC   C1B16387   9.712  34.037   8.736
 1055POPC   C2B16388   9.616  34.094   8.304
 1055POPC   C3B16389   9.566  33.905   7.895
 1055POPC   C4B16390   9.590  33.975   7.471
 1056POPC   NC316391  17.088  11.787   9.622
 1056POPC   PO416392  17.753  12.048   9.644
 1056POPC   GL116393  17.476  12.062   9.280
 1056POPC   GL216394  17.433  11.722   9.235
 1056POPC   C1A16395  17.383  12.011   8.815
 1056POPC   D2A16396  17.677  11.888   8.464
 1056POPC   C3A16397  17.522  11.839   8.064
 1056POPC   C4A16398  17.432  12.118   7.756
 1056POPC   C1B16399  17.151  11.550   8.934
 1056POPC   C2B16400  17.078  11.462   8.486
 1056POPC   C3B16401  17.202  11.449   8.067
 1056POPC   C4B16402  17.182  11.642   7.698
 1057POPC   NC316403  24.034   4.925   9.808
 1057POPC   PO416404  24.539   5.290   9.578
 1057POPC   GL116405  24.548   5.116   9.190
 1057POPC   GL216406  24.326   5.355   8.978
 1057POPC   C1A16407  24.537   4.851   8.848
 1057POPC   D2A16408  24.379   4.862   8.447
 1057POPC   C3A16409  24.585   4.812   8.055
 1057POPC   C4A16410  24.378   4.984   7.691
 1057POPC   C1B16411  24.643   5.340   8.704
 1057POPC   C2B16412  24.727   5.246   8.315
 1057POPC   C3B16413  24.684   5.327   7.898
 1057POPC   C4B16414  24.736   5.256   7.441
 1058POPC   NC316415  12.095  37.985   9.467
 1058POPC   PO416416  11.813  38.577   9.684
 1058POPC   GL116417  11.880  38.446   9.237
 1058POPC   GL216418  12.239  38.365   9.081
 1058POPC   C1A16419  11.835  38.244   8.820
 1058POPC   D2A16420  12.125  38.390   8.506
 1058POPC   C3A16421  11.963  38.631   8.149
 1058POPC   C4A16422  12.079  38.595   7.706
 1058POPC   C1B16423  12.262  37.949   8.815
 1058POPC   C2B16424  12.117  37.862   8.377
 1058POPC   C3B16425  12.197  38.190   8.035
 1058POPC   C4B16426  12.371  38.147   7.633
 1059POPC   NC316427  14.696   6.687   9.537
 1059POPC   PO416428  14.173   6.940   9.258
 1059POPC   GL116429  14.211   6.722   8.904
 1059POPC   GL216430  14.533   6.648   9.048
 1059POPC   C1A16431  14.075   6.511   8.544
 1059POPC   D2A16432  14.333   6.624   8.216
 1059POPC   C3A16433  14.229   6.583   7.771
 1059POPC   C4A16434  14.072   6.728   7.365
 1059POPC   C1B16435  14.645   6.357   8.773
 1059POPC   C2B16436  14.690   6.257   8.352
 1059POPC   C3B16437  14.774   6.496   8.012
 1059POPC   C4B16438  14.735   6.644   7.672
 1060POPC   NC316439  28.942  35.845   9.362
 1060POPC   PO416440  28.397  36.256   9.576
 1060POPC   GL116441  28.324  36.258   9.142
 1060POPC   GL216442  28.666  36.201   9.105
 1060POPC   C1A16443  28.372  36.238   8.694
 1060POPC   D2A16444  28.669  36.250   8.398
 1060POPC   C3A16445  28.399  36.228   8.097
 1060POPC   C4A16446  28.438  36.150   7.708
 1060POPC   C1B16447  28.741  35.891   8.763
 1060POPC   C2B16448  28.732  35.743   8.354
 1060POPC   C3B16449  28.815  35.916   7.960
 1060POPC   C4B16450  28.767  35.750   7.551
 1061POPC   NC316451  39.676  40.037   9.449
 1061POPC   PO416452  39.085  39.932   9.596
 1061POPC   GL116453  39.250  39.845   9.155
 1061POPC   GL216454  39.571  39.656   9.100
 1061POPC   C1A16455  39.301  40.079   8.749
 1061POPC   D2A16456  39.237  39.989   8.295
 1061POPC   C3A16457  39.099  40.299   7.999
 1061POPC   C4A16458  39.502  40.389   7.771
 1061POPC   C1B16459  39.478  39.618   8.638
 1061POPC   C2B16460  39.544  39.614   8.183
 1061POPC   C3B16461  39.507  39.744   7.796
 1061POPC   C4B16462  39.112  39.883   7.703
 1062POPC   NC316463  41.131   9.088   9.289
 1062POPC   PO416464  40.774   8.582   9.559
 1062POPC   GL116465  40.649   8.844   9.183
 1062POPC   GL216466  40.551   9.211   9.207
 1062POPC   C1A16467  40.793   8.881   8.769
 1062POPC   D2A16468  40.977   8.637   8.457
 1062POPC   C3A16469  40.862   8.829   8.079
 1062POPC   C4A16470  41.074   9.059   7.766
 1062POPC   C1B16471  40.638   9.352   8.807
 1062POPC   C2B16472  40.833   9.242   8.409
 1062POPC   C3B16473  40.678   9.306   8.025
 1062POPC   C4B16474  40.430   8.983   7.830
 1063POPC   NC316475  10.510  15.695   9.499
 1063POPC   PO416476  10.281  16.359   9.461
 1063POPC   GL116477  10.455  16.089   9.132
 1063POPC   GL216478  10.755  15.859   9.076
 1063POPC   C1A16479  10.351  15.983   8.721
 1063POPC   D2A16480  10.181  15.982   8.303
 1063POPC   C3A16481  10.525  15.965   8.056
 1063POPC   C4A16482  10.699  16.228   7.731
 1063POPC   C1B16483  10.639  15.514   8.799
 1063POPC   C2B16484  10.632  15.475   8.350
 1063POPC   C3B16485  10.516  15.471   7.955
 1063POPC   C4B16486  10.727  15.702   7.668
 1064POPC   NC316487  31.801  13.794   9.558
 1064POPC   PO416488  31.260  13.291   9.547
 1064POPC   GL116489  31.341  13.681   9.332
 1064POPC   GL216490  31.594  13.539   9.170
 1064POPC   C1A16491  31.200  13.844   8.940
 1064POPC   D2A16492  31.318  13.662   8.585
 1064POPC   C3A16493  31.258  13.595   8.159
 1064POPC   C4A16494  31.135  13.695   7.732
 1064POPC   C1B16495  31.701  13.369   8.816
 1064POPC   C2B16496  31.745  13.482   8.417
 1064POPC   C3B16497  31.720  13.344   8.062
 1064POPC   C4B16498  31.600  13.451   7.686
 1065POPC   NC316499  23.957  44.262   9.592
 1065POPC   PO416500  24.151  43.675   9.351
 1065POPC   GL116501  23.865  43.982   9.189
 1065POPC   GL216502  23.510  43.940   9.279
 1065POPC   C1A16503  23.748  44.145   8.819
 1065POPC   D2A16504  23.764  43.853   8.483
 1065POPC   C3A16505  23.722  44.006   8.082
 1065POPC   C4A16506  24.015  44.033   7.723
 1065POPC   C1B16507  23.270  44.119   8.935
 1065POPC   C2B16508  23.312  44.100   8.503
 1065POPC   C3B16509  23.220  44.172   8.084
 1065POPC   C4B16510  23.344  43.951   7.749
 1066POPC   NC316511   1.357   6.184   9.251
 1066POPC   PO416512   0.835   5.871   9.547
 1066POPC   GL116513   0.801   5.888   9.110
 1066POPC   GL216514   0.822   6.236   9.125
 1066POPC   C1A16515   0.957   5.565   8.783
 1066POPC   D2A16516   1.307   5.549   8.502
 1066POPC   C3A16517   1.290   5.794   8.123
 1066POPC   C4A16518   1.414   5.579   7.747
 1066POPC   C1B16519   1.017   6.093   8.707
 1066POPC   C2B16520   0.782   5.858   8.405
 1066POPC   C3B16521   0.818   5.610   8.074
 1066POPC   C4B16522   0.967   5.803   7.720
 1067POPC   NC316523  15.970  39.237   9.510
 1067POPC   PO416524  16.510  39.226   9.214
 1067POPC   GL116525  16.086  39.374   9.023
 1067POPC   GL216526  15.690  39.363   9.115
 1067POPC   C1A16527  15.855  39.081   8.740
 1067POPC   D2A16528  15.692  38.972   8.330
 1067POPC   C3A16529  16.027  38.950   8.015
 1067POPC   C4A16530  16.228  39.302   7.793
 1067POPC   C1B16531  15.685  39.573   8.716
 1067POPC   C2B16532  15.611  39.606   8.289
 1067POPC   C3B16533  15.728  39.381   7.911
 1067POPC   C4B16534  15.835  39.340   7.446
 1068POPC   NC316535  34.709  36.673   9.407
 1068POPC   PO416536  34.297  36.133   9.446
 1068POPC   GL116537  34.434  35.941   9.085
 1068POPC   GL216538  34.779  35.875   9.127
 1068POPC   C1A16539  34.331  35.663   8.763
 1068POPC   D2A16540  34.191  35.512   8.366
 1068POPC   C3A16541  34.259  35.850   8.084
 1068POPC   C4A16542  34.498  36.039   7.754
 1068POPC   C1B16543  34.725  36.050   8.689
 1068POPC   C2B16544  34.668  36.162   8.252
 1068POPC   C3B16545  34.935  36.291   7.911
 1068POPC   C4B16546  34.908  36.229   7.482
 1069POPC   NC316547  34.934   2.594   9.362
 1069POPC   PO416548  35.478   3.004   9.477
 1069POPC   GL116549  35.410   2.808   9.127
 1069POPC   GL216550  35.435   2.484   9.237
 1069POPC   C1A16551  35.549   2.879   8.714
 1069POPC   D2A16552  35.674   2.729   8.320
 1069POPC   C3A16553  35.388   2.981   8.128
 1069POPC   C4A16554  35.075   2.977   7.863
 1069POPC   C1B16555  35.341   2.402   8.798
 1069POPC   C2B16556  35.182   2.380   8.385
 1069POPC   C3B16557  35.304   2.482   7.963
 1069POPC   C4B16558  35.702   2.295   7.813
 1070POPC   NC316559  41.929  35.767   9.509
 1070POPC   PO416560  41.449  35.232   9.516
 1070POPC   GL116561  41.576  35.245   9.110
 1070POPC   GL216562  41.862  35.455   9.126
 1070POPC   C1A16563  41.390  35.373   8.725
 1070POPC   D2A16564  41.492  35.180   8.344
 1070POPC   C3A16565  41.616  35.237   7.955
 1070POPC   C4A16566  41.522  35.392   7.573
 1070POPC   C1B16567  41.799  35.675   8.769
 1070POPC   C2B16568  41.771  35.627   8.347
 1070POPC   C3B16569  41.971  35.629   7.949
 1070POPC   C4B16570  41.811  35.859   7.630
 1071POPC   NC316571  24.342  36.731   9.711
 1071POPC   PO416572  23.644  36.854   9.597
 1071POPC   GL116573  23.634  36.870   9.201
 1071POPC   GL216574  23.970  36.943   9.185
 1071POPC   C1A16575  23.395  36.872   8.843
 1071POPC   D2A16576  23.502  36.701   8.450
 1071POPC   C3A16577  23.626  36.959   8.099
 1071POPC   C4A16578  23.540  36.842   7.679
 1071POPC   C1B16579  23.934  36.702   8.783
 1071POPC   C2B16580  23.996  36.637   8.330
 1071POPC   C3B16581  23.973  36.614   7.906
 1071POPC   C4B16582  24.008  37.018   7.717
 1072POPC   NC316583   8.830  43.560   9.928
 1072POPC   PO416584   8.831  43.112   9.370
 1072POPC   GL116585   9.085  43.244   9.044
 1072POPC   GL216586   9.306  42.966   9.104
 1072POPC   C1A16587   9.006  43.420   8.628
 1072POPC   D2A16588   8.919  43.138   8.315
 1072POPC   C3A16589   8.840  43.244   7.921
 1072POPC   C4A16590   8.589  43.395   7.618
 1072POPC   C1B16591   9.316  42.984   8.655
 1072POPC   C2B16592   9.409  43.233   8.326
 1072POPC   C3B16593   9.331  43.072   7.910
 1072POPC   C4B16594   9.255  42.798   7.573
 1073POPC   NC316595  40.132  19.209   9.499
 1073POPC   PO416596  39.685  18.587   9.459
 1073POPC   GL116597  39.849  18.900   9.157
 1073POPC   GL216598  39.760  19.283   9.151
 1073POPC   C1A16599  39.907  18.957   8.716
 1073POPC   D2A16600  39.785  18.737   8.338
 1073POPC   C3A16601  39.885  18.987   7.990
 1073POPC   C4A16602  40.072  19.039   7.594
 1073POPC   C1B16603  39.979  19.455   8.754
 1073POPC   C2B16604  40.069  19.467   8.280
 1073POPC   C3B16605  40.125  19.495   7.827
 1073POPC   C4B16606  40.035  19.523   7.359
 1074POPC   NC316607  22.091  18.846   9.503
 1074POPC   PO416608  22.205  19.573   9.526
 1074POPC   GL116609  22.162  19.304   9.161
 1074POPC   GL216610  21.851  19.094   9.119
 1074POPC   C1A16611  22.191  19.221   8.727
 1074POPC   D2A16612  22.370  19.136   8.309
 1074POPC   C3A16613  22.236  19.205   7.883
 1074POPC   C4A16614  22.386  18.864   7.630
 1074POPC   C1B16615  22.031  18.760   8.845
 1074POPC   C2B16616  21.906  18.873   8.432
 1074POPC   C3B16617  22.032  18.751   8.041
 1074POPC   C4B16618  21.885  18.850   7.643
 1075POPC   NC316619  41.427  27.339   9.515
 1075POPC   PO416620  41.912  27.778   9.527
 1075POPC   GL116621  41.865  27.489   9.198
 1075POPC   GL216622  41.551  27.675   9.137
 1075POPC   C1A16623  41.877  27.598   8.762
 1075POPC   D2A16624  41.571  27.683   8.472
 1075POPC   C3A16625  41.805  27.649   8.089
 1075POPC   C4A16626  41.768  27.503   7.670
 1075POPC   C1B16627  41.257  27.983   8.962
 1075POPC   C2B16628  41.140  28.012   8.520
 1075POPC   C3B16629  41.177  27.782   8.135
 1075POPC   C4B16630  41.033  27.887   7.733
 1076POPC   NC316631  22.819   8.603   9.553
 1076POPC   PO416632  23.116   8.036   9.486
 1076POPC   GL116633  22.830   8.210   9.181
 1076POPC   GL216634  22.999   8.500   9.056
 1076POPC   C1A16635  22.837   8.025   8.773
 1076POPC   D2A16636  23.076   8.063   8.379
 1076POPC   C3A16637  22.871   8.058   8.004
 1076POPC   C4A16638  22.689   8.290   7.714
 1076POPC   C1B16639  22.894   8.505   8.601
 1076POPC   C2B16640  22.871   8.552   8.147
 1076POPC   C3B16641  23.147   8.491   7.775
 1076POPC   C4B16642  23.443   8.808   7.579
 1077POPC   NC316643  18.643  10.395   9.234
 1077POPC   PO416644  19.270  10.301   9.518
 1077POPC   GL116645  19.142  10.283   9.095
 1077POPC   GL216646  19.027  10.624   8.987
 1077POPC   C1A16647  19.233  10.286   8.647
 1077POPC   D2A16648  19.257  10.537   8.276
 1077POPC   C3A16649  19.182  10.293   7.910
 1077POPC   C4A16650  19.166  10.530   7.547
 1077POPC   C1B16651  18.800  10.564   8.610
 1077POPC   C2B16652  18.784  10.317   8.252
 1077POPC   C3B16653  18.705  10.457   7.833
 1077POPC   C4B16654  18.683  10.561   7.395
 1078POPC   NC316655   8.768  42.864   9.785
 1078POPC   PO416656   8.953  42.248   9.589
 1078POPC   GL116657   8.892  42.320   9.150
 1078POPC   GL216658   8.669  42.579   9.154
 1078POPC   C1A16659   8.908  42.171   8.718
 1078POPC   D2A16660   9.187  42.132   8.347
 1078POPC   C3A16661   9.009  42.138   7.943
 1078POPC   C4A16662   9.050  41.980   7.507
 1078POPC   C1B16663   8.901  42.736   8.808
 1078POPC   C2B16664   9.025  42.648   8.389
 1078POPC   C3B16665   8.906  42.701   7.954
 1078POPC   C4B16666   8.885  42.453   7.565
 1079POPC   NC316667  11.216  34.772   9.410
 1079POPC   PO416668  10.813  34.245   9.376
 1079POPC   GL116669  11.025  34.459   9.057
 1079POPC   GL216670  10.867  34.751   9.023
 1079POPC   C1A16671  11.377  34.571   8.765
 1079POPC   D2A16672  11.719  34.724   8.451
 1079POPC   C3A16673  11.581  34.582   8.027
 1079POPC   C4A16674  11.423  34.546   7.597
 1079POPC   C1B16675  10.919  34.941   8.617
 1079POPC   C2B16676  11.200  34.815   8.335
 1079POPC   C3B16677  11.072  34.681   7.973
 1079POPC   C4B16678  11.083  34.946   7.666
 1080POPC   NC316679  36.671  25.716   9.518
 1080POPC   PO416680  37.121  26.116   9.832
 1080POPC   GL116681  37.056  26.195   9.300
 1080POPC   GL216682  37.154  25.962   9.003
 1080POPC   C1A16683  36.792  26.295   8.887
 1080POPC   D2A16684  36.687  26.141   8.430
 1080POPC   C3A16685  36.777  26.300   7.978
 1080POPC   C4A16686  36.919  26.153   7.536
 1080POPC   C1B16687  36.780  25.762   8.825
 1080POPC   C2B16688  36.662  25.461   8.524
 1080POPC   C3B16689  36.854  25.430   8.111
 1080POPC   C4B16690  36.896  25.780   7.859
 1081POPC   NC316691  12.429   9.612   9.492
 1081POPC   PO416692  11.768   9.881   9.449
 1081POPC   GL116693  11.973   9.660   9.125
 1081POPC   GL216694  12.304   9.841   9.061
 1081POPC   C1A16695  11.801   9.381   8.756
 1081POPC   D2A16696  11.601   9.356   8.339
 1081POPC   C3A16697  11.886   9.458   7.990
 1081POPC   C4A16698  11.912   9.654   7.574
 1081POPC   C1B16699  12.168   9.723   8.661
 1081POPC   C2B16700  11.937   9.853   8.333
 1081POPC   C3B16701  12.075   9.955   7.941
 1081POPC   C4B16702  12.416   9.758   7.633
 1082POPC   NC316703  13.875  29.996   9.456
 1082POPC   PO416704  13.222  30.177   9.409
 1082POPC   GL116705  13.423  29.808   9.159
 1082POPC   GL216706  13.793  29.768   9.019
 1082POPC   C1A16707  13.408  29.733   8.703
 1082POPC   D2A16708  13.586  29.914   8.333
 1082POPC   C3A16709  13.654  29.713   7.968
 1082POPC   C4A16710  13.264  29.787   7.844
 1082POPC   C1B16711  13.731  30.148   8.801
 1082POPC   C2B16712  13.853  30.328   8.395
 1082POPC   C3B16713  13.739  30.252   7.943
 1082POPC   C4B16714  13.808  30.309   7.473
 1083POPC   NC316715  43.935  11.052   9.415
 1083POPC   PO416716  43.531  11.621   9.521
 1083POPC   GL116717  43.584  11.396   9.133
 1083POPC   GL216718  43.462  11.025   9.198
 1083POPC   C1A16719  43.872  11.504   8.740
 1083POPC   D2A16720  43.895  11.676   8.306
 1083POPC   C3A16721  44.038  11.450   7.930
 1083POPC   C4A16722  43.906  11.490   7.511
 1083POPC   C1B16723  43.679  11.041   8.787
 1083POPC   C2B16724  43.576  11.101   8.345
 1083POPC   C3B16725  43.635  11.130   7.883
 1083POPC   C4B16726  43.946  10.967   7.600
 1084POPC   NC316727  32.784   5.964   9.439
 1084POPC   PO416728  33.471   6.167   9.234
 1084POPC   GL116729  33.117   6.068   9.011
 1084POPC   GL216730  33.120   5.753   9.049
 1084POPC   C1A16731  32.899   5.943   8.595
 1084POPC   D2A16732  32.974   5.728   8.182
 1084POPC   C3A16733  33.037   6.013   7.839
 1084POPC   C4A16734  33.316   6.057   7.462
 1084POPC   C1B16735  32.790   5.498   8.821
 1084POPC   C2B16736  32.589   5.472   8.406
 1084POPC   C3B16737  32.700   5.311   7.990
 1084POPC   C4B16738  33.020   5.469   7.681
 1085POPC   NC316739  43.358  23.773   9.537
 1085POPC   PO416740  42.733  23.983   9.330
 1085POPC   GL116741  43.071  23.819   9.080
 1085POPC   GL216742  43.225  23.523   9.117
 1085POPC   C1A16743  43.044  23.753   8.647
 1085POPC   D2A16744  42.794  24.009   8.355
 1085POPC   C3A16745  42.849  23.887   7.941
 1085POPC   C4A16746  43.207  23.899   7.702
 1085POPC   C1B16747  43.497  23.504   8.761
 1085POPC   C2B16748  43.412  23.565   8.321
 1085POPC   C3B16749  43.161  23.467   7.976
 1085POPC   C4B16750  42.925  23.474   7.580
 1086POPC   NC316751  16.727   2.059   9.703
 1086POPC   PO416752  16.851   1.441   9.541
 1086POPC   GL116753  16.664   1.757   9.243
 1086POPC   GL216754  16.542   2.109   9.225
 1086POPC   C1A16755  16.755   1.894   8.830
 1086POPC   D2A16756  17.013   1.800   8.490
 1086POPC   C3A16757  17.025   1.908   8.040
 1086POPC   C4A16758  16.704   1.791   7.753
 1086POPC   C1B16759  16.440   2.300   8.838
 1086POPC   C2B16760  16.622   2.190   8.436
 1086POPC   C3B16761  16.686   2.304   8.048
 1086POPC   C4B16762  16.488   2.236   7.683
 1087POPC   NC316763  21.876  14.779   9.484
 1087POPC   PO416764  22.117  14.147   9.583
 1087POPC   GL116765  22.183  14.355   9.224
 1087POPC   GL216766  22.410  14.045   9.169
 1087POPC   C1A16767  22.099  14.636   8.856
 1087POPC   D2A16768  21.880  14.571   8.464
 1087POPC   C3A16769  22.075  14.536   8.074
 1087POPC   C4A16770  22.104  14.349   7.679
 1087POPC   C1B16771  22.207  14.136   8.782
 1087POPC   C2B16772  22.281  14.044   8.381
 1087POPC   C3B16773  22.150  13.870   8.056
 1087POPC   C4B16774  22.356  13.908   7.711
 1088POPC   NC316775   7.342   9.133   9.609
 1088POPC   PO416776   7.403   8.547   9.339
 1088POPC   GL116777   7.592   8.909   9.146
 1088POPC   GL216778   7.377   9.196   9.091
 1088POPC   C1A16779   7.762   8.943   8.741
 1088POPC   D2A16780   7.436   8.845   8.424
 1088POPC   C3A16781   7.497   8.767   7.994
 1088POPC   C4A16782   7.302   8.646   7.633
 1088POPC   C1B16783   7.386   9.320   8.659
 1088POPC   C2B16784   7.350   9.343   8.209
 1088POPC   C3B16785   7.194   9.148   7.841
 1088POPC   C4B16786   7.415   9.084   7.426
 1089POPC   NC316787  37.889  32.495   9.346
 1089POPC   PO416788  37.343  32.272   9.705
 1089POPC   GL116789  37.471  32.186   9.261
 1089POPC   GL216790  37.565  32.428   8.967
 1089POPC   C1A16791  37.374  31.965   8.893
 1089POPC   D2A16792  37.514  31.951   8.465
 1089POPC   C3A16793  37.593  32.263   8.101
 1089POPC   C4A16794  37.619  32.121   7.671
 1089POPC   C1B16795  37.790  32.370   8.612
 1089POPC   C2B16796  38.015  32.121   8.332
 1089POPC   C3B16797  38.082  32.187   7.922
 1089POPC   C4B16798  38.132  32.059   7.532
 1090POPC   NC316799  21.339  43.525   9.602
 1090POPC   PO416800  20.988  44.090   9.556
 1090POPC   GL116801  21.116  43.807   9.241
 1090POPC   GL216802  21.447  43.887   9.169
 1090POPC   C1A16803  21.065  43.798   8.802
 1090POPC   D2A16804  21.110  43.502   8.455
 1090POPC   C3A16805  21.126  43.715   8.047
 1090POPC   C4A16806  21.230  44.157   7.890
 1090POPC   C1B16807  21.599  43.947   8.740
 1090POPC   C2B16808  21.550  44.071   8.299
 1090POPC   C3B16809  21.747  44.087   7.888
 1090POPC   C4B16810  21.754  44.150   7.425
 1091POPC   NC316811  31.830  38.778   9.415
 1091POPC   PO416812  31.227  38.852   9.334
 1091POPC   GL116813  31.317  38.453   9.066
 1091POPC   GL216814  31.687  38.323   9.110
 1091POPC   C1A16815  31.271  38.446   8.599
 1091POPC   D2A16816  31.417  38.737   8.287
 1091POPC   C3A16817  31.634  38.540   7.977
 1091POPC   C4A16818  31.408  38.282   7.693
 1091POPC   C1B16819  31.603  38.075   8.724
 1091POPC   C2B16820  31.540  38.132   8.275
 1091POPC   C3B16821  31.822  38.071   7.900
 1091POPC   C4B16822  31.848  38.173   7.427
 1092POPC   NC316823   6.367  34.048   9.447
 1092POPC   PO416824   6.969  33.740   9.358
 1092POPC   GL116825   6.909  33.765   8.968
 1092POPC   GL216826   6.621  33.988   8.997
 1092POPC   C1A16827   6.885  33.940   8.565
 1092POPC   D2A16828   6.560  33.918   8.289
 1092POPC   C3A16829   6.642  33.679   7.923
 1092POPC   C4A16830   6.890  33.886   7.628
 1092POPC   C1B16831   6.250  33.999   8.716
 1092POPC   C2B16832   6.114  34.159   8.296
 1092POPC   C3B16833   6.266  34.033   7.881
 1092POPC   C4B16834   6.400  33.871   7.454
 1093POPC   NC316835  23.427  15.827   9.386
 1093POPC   PO416836  22.735  15.767   9.582
 1093POPC   GL116837  22.762  15.996   9.211
 1093POPC   GL216838  23.072  15.999   9.061
 1093POPC   C1A16839  22.725  15.763   8.795
 1093POPC   D2A16840  22.535  15.872   8.421
 1093POPC   C3A16841  22.738  15.767   8.062
 1093POPC   C4A16842  22.728  15.592   7.656
 1093POPC   C1B16843  23.284  15.758   8.774
 1093POPC   C2B16844  23.464  15.805   8.387
 1093POPC   C3B16845  23.262  15.892   8.024
 1093POPC   C4B16846  22.968  16.049   7.714
 1094POPC   NC316847  29.788  32.418   9.507
 1094POPC   PO416848  30.372  32.114   9.494
 1094POPC   GL116849  30.108  32.177   9.156
 1094POPC   GL216850  30.215  32.538   9.179
 1094POPC   C1A16851  29.845  32.201   8.754
 1094POPC   D2A16852  29.664  32.475   8.412
 1094POPC   C3A16853  29.784  32.385   7.981
 1094POPC   C4A16854  29.623  32.095   7.716
 1094POPC   C1B16855  30.317  32.391   8.748
 1094POPC   C2B16856  30.174  32.458   8.344
 1094POPC   C3B16857  30.314  32.331   7.966
 1094POPC   C4B16858  30.125  32.168   7.610
 1095POPC   NC316859  16.182  13.650   9.510
 1095POPC   PO416860  15.564  13.895   9.415
 1095POPC   GL116861  15.827  13.747   9.061
 1095POPC   GL216862  16.088  13.500   9.039
 1095POPC   C1A16863  16.033  13.807   8.639
 1095POPC   D2A16864  15.876  13.877   8.220
 1095POPC   C3A16865  16.020  13.667   7.855
 1095POPC   C4A16866  15.799  13.577   7.462
 1095POPC   C1B16867  15.831  13.330   8.683
 1095POPC   C2B16868  15.922  13.318   8.228
 1095POPC   C3B16869  15.705  13.246   7.828
 1095POPC   C4B16870  15.681  13.089   7.346
 1096POPC   NC316871   4.126  17.202   9.735
 1096POPC   PO416872   4.386  16.542   9.555
 1096POPC   GL116873   4.350  16.370   9.187
 1096POPC   GL216874   4.141  16.617   9.085
 1096POPC   C1A16875   4.428  16.386   8.740
 1096POPC   D2A16876   4.230  16.588   8.396
 1096POPC   C3A16877   4.532  16.613   8.109
 1096POPC   C4A16878   4.576  16.720   7.718
 1096POPC   C1B16879   3.937  16.822   8.738
 1096POPC   C2B16880   3.973  17.103   8.423
 1096POPC   C3B16881   4.155  16.985   8.038
 1096POPC   C4B16882   4.093  16.893   7.627
 1097POPC   NC316883  24.017  12.331   9.872
 1097POPC   PO416884  23.558  12.419   9.472
 1097POPC   GL116885  23.689  12.152   9.179
 1097POPC   GL216886  23.977  11.987   9.298
 1097POPC   C1A16887  23.807  12.221   8.744
 1097POPC   D2A16888  23.893  12.235   8.327
 1097POPC   C3A16889  23.710  12.150   7.942
 1097POPC   C4A16890  23.876  12.234   7.511
 1097POPC   C1B16891  24.032  11.781   8.884
 1097POPC   C2B16892  23.836  11.731   8.454
 1097POPC   C3B16893  23.888  11.685   7.993
 1097POPC   C4B16894  23.629  11.762   7.606
 1098POPC   NC316895  10.304   8.018   9.498
 1098POPC   PO416896  10.680   8.467   9.794
 1098POPC   GL116897  10.731   8.374   9.312
 1098POPC   GL216898  10.465   8.228   9.055
 1098POPC   C1A16899  10.872   8.413   8.847
 1098POPC   D2A16900  10.663   8.274   8.477
 1098POPC   C3A16901  10.830   8.225   8.073
 1098POPC   C4A16902  10.572   8.204   7.717
 1098POPC   C1B16903  10.269   8.011   8.693
 1098POPC   C2B16904  10.333   7.926   8.246
 1098POPC   C3B16905  10.122   8.013   7.868
 1098POPC   C4B16906  10.032   7.967   7.443
 1099POPC   NC316907  37.966  44.321   9.673
 1099POPC   PO416908  37.607  44.926   9.728
 1099POPC   GL116909  37.661  44.802   9.264
 1099POPC   GL216910  37.734  44.421   9.211
 1099POPC   C1A16911  37.665  44.697   8.787
 1099POPC   D2A16912  37.715  44.456   8.367
 1099POPC   C3A16913  37.695  44.692   7.944
 1099POPC   C4A16914  37.422   0.009   7.720
 1099POPC   C1B16915  38.002  44.278   8.834
 1099POPC   C2B16916  38.205  44.354   8.412
 1099POPC   C3B16917  38.004  44.247   7.971
 1099POPC   C4B16918  37.775  44.351   7.536
 1100POPC   NC316919  17.061  42.697   9.354
 1100POPC   PO416920  17.769  42.512   9.367
 1100POPC   GL116921  17.423  42.335   9.100
 1100POPC   GL216922  17.356  41.958   9.068
 1100POPC   C1A16923  17.489  42.303   8.655
 1100POPC   D2A16924  17.294  42.568   8.380
 1100POPC   C3A16925  17.468  42.687   8.014
 1100POPC   C4A16926  17.296  42.573   7.624
 1100POPC   C1B16927  17.623  41.779   8.693
 1100POPC   C2B16928  17.791  42.012   8.340
 1100POPC   C3B16929  17.615  42.209   7.947
 1100POPC   C4B16930  17.585  41.990   7.532
 1101POPC   NC316931  11.185  26.634   9.543
 1101POPC   PO416932  11.484  27.318   9.510
 1101POPC   GL116933  11.479  27.000   9.232
 1101POPC   GL216934  11.158  27.040   9.192
 1101POPC   C1A16935  11.465  26.713   8.870
 1101POPC   D2A16936  11.586  26.476   8.499
 1101POPC   C3A16937  11.345  26.518   8.150
 1101POPC   C4A16938  11.324  26.767   7.822
 1101POPC   C1B16939  10.955  26.854   8.885
 1101POPC   C2B16940  11.100  26.812   8.503
 1101POPC   C3B16941  10.935  26.907   8.116
 1101POPC   C4B16942  10.817  26.873   7.686
 1102POPC   NC316943  17.564   7.413   9.552
 1102POPC   PO416944  17.110   6.931   9.627
 1102POPC   GL116945  17.236   7.226   9.233
 1102POPC   GL216946  17.164   7.592   9.257
 1102POPC   C1A16947  17.470   7.453   8.838
 1102POPC   D2A16948  17.482   7.574   8.352
 1102POPC   C3A16949  17.649   7.296   7.995
 1102POPC   C4A16950  17.837   6.888   7.844
 1102POPC   C1B16951  17.024   7.698   8.818
 1102POPC   C2B16952  16.973   7.545   8.401
 1102POPC   C3B16953  17.006   7.689   8.005
 1102POPC   C4B16954  17.083   7.505   7.594
 1103POPC   NC316955  19.132   5.536   9.813
 1103POPC   PO416956  18.830   4.989   9.644
 1103POPC   GL116957  19.065   4.985   9.214
 1103POPC   GL216958  19.443   5.018   9.221
 1103POPC   C1A16959  18.880   4.948   8.781
 1103POPC   D2A16960  18.636   5.039   8.395
 1103POPC   C3A16961  18.863   4.984   7.991
 1103POPC   C4A16962  18.847   5.011   7.541
 1103POPC   C1B16963  19.324   5.225   8.844
 1103POPC   C2B16964  19.239   5.102   8.437
 1103POPC   C3B16965  19.317   5.220   8.042
 1103POPC   C4B16966  19.341   5.098   7.636
 1104POPC   NC316967  26.079  41.767   9.489
 1104POPC   PO416968  26.287  41.101   9.507
 1104POPC   GL116969  25.984  41.323   9.230
 1104POPC   GL216970  26.256  41.506   9.101
 1104POPC   C1A16971  25.896  41.481   8.769
 1104POPC   D2A16972  26.187  41.515   8.390
 1104POPC   C3A16973  25.984  41.527   7.975
 1104POPC   C4A16974  26.033  41.753   7.600
 1104POPC   C1B16975  26.248  41.856   8.808
 1104POPC   C2B16976  26.335  42.029   8.411
 1104POPC   C3B16977  26.352  41.902   7.997
 1104POPC   C4B16978  26.516  42.125   7.646
 1105POPC   NC316979  18.182  10.793   9.611
 1105POPC   PO416980  18.761  10.936   9.310
 1105POPC   GL116981  18.490  10.801   8.970
 1105POPC   GL216982  18.173  10.667   9.111
 1105POPC   C1A16983  18.283  10.605   8.610
 1105POPC   D2A16984  18.317  10.537   8.165
 1105POPC   C3A16985  18.372  10.841   7.808
 1105POPC   C4A16986  18.209  10.798   7.356
 1105POPC   C1B16987  17.922  10.346   8.882
 1105POPC   C2B16988  17.865  10.319   8.448
 1105POPC   C3B16989  17.989  10.148   8.036
 1105POPC   C4B16990  18.199  10.374   7.682
 1106POPC   NC316991   1.456  22.206   9.489
 1106POPC   PO416992   0.838  22.263   9.634
 1106POPC   GL116993   1.017  22.122   9.251
 1106POPC   GL216994   1.083  21.779   9.188
 1106POPC   C1A16995   1.213  22.182   8.873
 1106POPC   D2A16996   0.984  22.243   8.500
 1106POPC   C3A16997   1.183  22.182   8.098
 1106POPC   C4A16998   1.405  22.465   7.812
 1106POPC   C1B16999   1.004  21.746   8.748
 1106POPC   C2B17000   1.322  21.849   8.477
 1106POPC   C3B17001   1.445  21.709   8.107
 1106POPC   C4B17002   1.438  21.883   7.783
 1107POPC   NC317003  17.449  24.930   9.548
 1107POPC   PO417004  17.552  25.588   9.494
 1107POPC   GL117005  17.555  25.268   9.172
 1107POPC   GL217006  17.841  25.010   9.204
 1107POPC   C1A17007  17.397  25.191   8.735
 1107POPC   D2A17008  17.274  25.438   8.393
 1107POPC   C3A17009  17.286  25.248   7.990
 1107POPC   C4A17010  17.393  25.478   7.608
 1107POPC   C1B17011  17.873  25.285   8.798
 1107POPC   C2B17012  17.782  25.354   8.395
 1107POPC   C3B17013  17.770  25.430   7.984
 1107POPC   C4B17014  17.701  25.098   7.711
 1108POPC   NC317015  40.013  43.336   9.583
 1108POPC   PO417016  39.682  42.763   9.437
 1108POPC   GL117017  39.840  43.114   9.137
 1108POPC   GL217018  40.197  43.251   9.127
 1108POPC   C1A17019  39.834  43.375   8.749
 1108POPC   D2A17020  40.083  43.348   8.356
 1108POPC   C3A17021  39.949  43.144   7.958
 1108POPC   C4A17022  39.776  43.274   7.555
 1108POPC   C1B17023  40.239  43.049   8.756
 1108POPC   C2B17024  40.539  42.936   8.504
 1108POPC   C3B17025  40.450  43.038   8.117
 1108POPC   C4B17026  40.312  42.822   7.788
 1109POPC   NC317027  44.096   5.110   9.443
 1109POPC   PO417028  43.484   5.256   9.397
 1109POPC   GL117029  43.792   5.251   9.064
 1109POPC   GL217030  44.015   4.947   8.967
 1109POPC   C1A17031  43.835   5.257   8.626
 1109POPC   D2A17032  43.824   4.951   8.355
 1109POPC   C3A17033  43.936   5.139   8.024
 1109POPC   C4A17034  44.112   5.058   7.679
 1109POPC   C1B17035  43.549   4.891   8.807
 1109POPC   C2B17036  43.312   4.957   8.430
 1109POPC   C3B17037  43.463   4.742   8.054
 1109POPC   C4B17038  43.642   4.839   7.669
 1110POPC   NC317039  20.165  41.724   9.910
 1110POPC   PO417040  19.658  41.422   9.580
 1110POPC   GL117041  19.827  41.467   9.207
 1110POPC   GL217042  20.162  41.573   9.263
 1110POPC   C1A17043  19.616  41.579   8.790
 1110POPC   D2A17044  19.396  41.617   8.378
 1110POPC   C3A17045  19.667  41.402   8.043
 1110POPC   C4A17046  19.887  41.464   7.650
 1110POPC   C1B17047  20.136  41.374   8.839
 1110POPC   C2B17048  19.968  41.342   8.451
 1110POPC   C3B17049  20.182  41.332   8.058
 1110POPC   C4B17050  20.280  41.119   7.675
 1111POPC   NC317051   8.446  14.227   9.444
 1111POPC   PO417052   8.086  14.844   9.590
 1111POPC   GL117053   8.080  14.518   9.227
 1111POPC   GL217054   7.821  14.280   9.241
 1111POPC   C1A17055   8.296  14.414   8.809
 1111POPC   D2A17056   8.299  14.685   8.433
 1111POPC   C3A17057   8.422  14.415   8.115
 1111POPC   C4A17058   8.468  14.444   7.706
 1111POPC   C1B17059   7.835  14.196   8.813
 1111POPC   C2B17060   7.985  14.278   8.386
 1111POPC   C3B17061   8.055  14.123   7.937
 1111POPC   C4B17062   8.053  14.293   7.498
 1112POPC   NC317063  18.907  18.162   9.640
 1112POPC   PO417064  19.333  18.638   9.540
 1112POPC   GL117065  19.164  18.337   9.203
 1112POPC   GL217066  18.801  18.308   9.149
 1112POPC   C1A17067  19.146  18.213   8.747
 1112POPC   D2A17068  19.162  18.028   8.305
 1112POPC   C3A17069  19.009  18.279   7.955
 1112POPC   C4A17070  18.989  18.227   7.538
 1112POPC   C1B17071  18.796  18.600   8.801
 1112POPC   C2B17072  18.846  18.454   8.397
 1112POPC   C3B17073  18.647  18.065   8.258
 1112POPC   C4B17074  18.564  17.999   7.831
 1113POPC   NC317075  20.259  17.815   9.828
 1113POPC   PO417076  19.808  17.403   9.594
 1113POPC   GL117077  19.986  17.496   9.213
 1113POPC   GL217078  19.675  17.317   9.086
 1113POPC   C1A17079  19.962  17.664   8.802
 1113POPC   D2A17080  19.815  17.548   8.386
 1113POPC   C3A17081  20.053  17.595   7.996
 1113POPC   C4A17082  19.859  17.786   7.642
 1113POPC   C1B17083  19.478  17.323   8.687
 1113POPC   C2B17084  19.547  17.146   8.260
 1113POPC   C3B17085  19.557  17.405   7.879
 1113POPC   C4B17086  19.447  17.247   7.496
 1114POPC   NC317087  27.966   2.271   9.423
 1114POPC   PO417088  27.783   1.622   9.461
 1114POPC   GL117089  27.465   1.791   9.174
 1114POPC   GL217090  27.517   2.145   9.196
 1114POPC   C1A17091  27.496   1.823   8.728
 1114POPC   D2A17092  27.825   1.697   8.458
 1114POPC   C3A17093  27.735   1.696   8.054
 1114POPC   C4A17094  27.595   2.019   7.779
 1114POPC   C1B17095  27.362   2.307   8.825
 1114POPC   C2B17096  27.306   2.190   8.415
 1114POPC   C3B17097  27.188   2.416   8.071
 1114POPC   C4B17098  27.286   2.420   7.654
 1115POPC   NC317099  17.311  31.052   9.456
 1115POPC   PO417100  17.697  30.500   9.640
 1115POPC   GL117101  17.646  30.735   9.281
 1115POPC   GL217102  17.367  30.571   9.209
 1115POPC   C1A17103  17.637  30.695   8.807
 1115POPC   D2A17104  17.816  30.556   8.435
 1115POPC   C3A17105  17.632  30.757   8.089
 1115POPC   C4A17106  17.273  30.973   7.939
 1115POPC   C1B17107  17.224  30.399   8.801
 1115POPC   C2B17108  17.270  30.635   8.402
 1115POPC   C3B17109  17.227  30.453   7.974
 1115POPC   C4B17110  17.336  30.395   7.536
 1116POPC   NC317111   7.286  21.460   9.796
 1116POPC   PO417112   7.644  21.223   9.301
 1116POPC   GL117113   7.584  21.496   9.089
 1116POPC   GL217114   7.239  21.466   9.117
 1116POPC   C1A17115   7.716  21.549   8.700
 1116POPC   D2A17116   7.580  21.422   8.300
 1116POPC   C3A17117   7.586  21.702   7.958
 1116POPC   C4A17118   7.649  21.501   7.580
 1116POPC   C1B17119   7.255  21.252   8.695
 1116POPC   C2B17120   7.294  20.993   8.282
 1116POPC   C3B17121   7.243  21.273   7.906
 1116POPC   C4B17122   7.026  21.614   8.063
 1117POPC   NC317123  43.664  31.453   9.473
 1117POPC   PO417124  42.993  31.249   9.570
 1117POPC   GL117125  43.209  31.104   9.240
 1117POPC   GL217126  43.514  30.974   9.312
 1117POPC   C1A17127  43.046  31.000   8.855
 1117POPC   D2A17128  43.187  31.160   8.489
 1117POPC   C3A17129  42.892  31.342   8.235
 1117POPC   C4A17130  42.940  31.463   7.881
 1117POPC   C1B17131  43.557  31.166   8.880
 1117POPC   C2B17132  43.495  31.543   8.629
 1117POPC   C3B17133  43.365  31.552   8.202
 1117POPC   C4B17134  43.415  31.534   7.757
 1118POPC   NC317135  44.134  38.857   9.635
 1118POPC   PO417136  44.706  39.332   9.491
 1118POPC   GL117137  44.554  39.414   9.090
 1118POPC   GL217138  44.588  39.062   9.054
 1118POPC   C1A17139  44.418  39.346   8.675
 1118POPC   D2A17140  44.619  39.301   8.262
 1118POPC   C3A17141  44.433  39.100   7.935
 1118POPC   C4A17142  44.408  39.328   7.564
 1118POPC   C1B17143  44.895  38.982   8.739
 1118POPC   C2B17144   0.091  39.050   8.333
 1118POPC   C3B17145   0.112  38.855   7.926
 1118POPC   C4B17146  44.811  38.923   7.597
 1119POPC   NC317147  15.245   7.292   9.495
 1119POPC   PO417148  15.477   6.696   9.215
 1119POPC   GL117149  15.263   7.037   9.061
 1119POPC   GL217150  14.922   7.061   9.167
 1119POPC   C1A17151  15.359   7.352   8.765
 1119POPC   D2A17152  15.414   7.241   8.349
 1119POPC   C3A17153  15.278   7.507   8.027
 1119POPC   C4A17154  15.289   7.342   7.645
 1119POPC   C1B17155  14.879   7.459   8.908
 1119POPC   C2B17156  14.957   7.489   8.446
 1119POPC   C3B17157  14.765   7.479   8.019
 1119POPC   C4B17158  14.727   7.669   7.613
 1120POPC   NC317159   9.245  14.406   9.458
 1120POPC   PO417160   8.574  14.665   9.354
 1120POPC   GL117161   8.865  14.345   9.091
 1120POPC   GL217162   9.197  14.100   9.087
 1120POPC   C1A17163   9.084  14.495   8.730
 1120POPC   D2A17164   8.825  14.566   8.375
 1120POPC   C3A17165   8.927  14.453   7.965
 1120POPC   C4A17166   8.907  14.658   7.572
 1120POPC   C1B17167   9.096  13.988   8.715
 1120POPC   C2B17168   9.177  14.147   8.330
 1120POPC   C3B17169   9.276  13.953   7.959
 1120POPC   C4B17170   9.204  14.189   7.626
 1121POPC   NC317171   1.060  23.832   9.308
 1121POPC   PO417172   1.486  23.300   9.459
 1121POPC   GL117173   1.265  23.430   9.061
 1121POPC   GL217174   1.344  23.777   8.892
 1121POPC   C1A17175   0.997  23.532   8.684
 1121POPC   D2A17176   1.132  23.805   8.389
 1121POPC   C3A17177   1.268  23.548   8.118
 1121POPC   C4A17178   1.108  23.502   7.732
 1121POPC   C1B17179   1.668  23.971   8.693
 1121POPC   C2B17180   1.844  23.824   8.359
 1121POPC   C3B17181   1.565  24.027   8.123
 1121POPC   C4B17182   1.334  23.952   7.799
 1122POPC   NC317183   5.539  15.582   9.334
 1122POPC   PO417184   5.908  16.061   9.636
 1122POPC   GL117185   5.850  16.021   9.193
 1122POPC   GL217186   6.115  16.165   8.974
 1122POPC   C1A17187   5.614  16.175   8.831
 1122POPC   D2A17188   5.829  16.273   8.456
 1122POPC   C3A17189   5.909  15.934   8.139
 1122POPC   C4A17190   5.848  16.096   7.710
 1122POPC   C1B17191   6.022  15.841   8.665
 1122POPC   C2B17192   6.249  15.473   8.493
 1122POPC   C3B17193   6.200  15.425   8.061
 1122POPC   C4B17194   6.224  15.765   7.739
 1123POPC   NC317195  28.645  17.821   9.484
 1123POPC   PO417196  29.243  17.528   9.466
 1123POPC   GL117197  29.133  17.627   9.086
 1123POPC   GL217198  28.859  17.432   9.053
 1123POPC   C1A17199  29.133  17.483   8.637
 1123POPC   D2A17200  29.211  17.646   8.256
 1123POPC   C3A17201  29.016  17.645   7.869
 1123POPC   C4A17202  29.306  17.804   7.549
 1123POPC   C1B17203  28.680  17.256   8.624
 1123POPC   C2B17204  28.904  17.243   8.211
 1123POPC   C3B17205  28.943  17.097   7.780
 1123POPC   C4B17206  28.974  17.058   7.290
 1124POPC   NC317207  23.321   0.659   9.410
 1124POPC   PO417208  23.440   1.385   9.512
 1124POPC   GL117209  23.485   1.107   9.162
 1124POPC   GL217210  23.801   0.949   9.173
 1124POPC   C1A17211  23.552   0.981   8.712
 1124POPC   D2A17212  23.621   1.235   8.361
 1124POPC   C3A17213  23.479   1.137   7.955
 1124POPC   C4A17214  23.739   1.285   7.668
 1124POPC   C1B17215  24.060   0.794   8.849
 1124POPC   C2B17216  24.011   0.927   8.454
 1124POPC   C3B17217  24.021   1.028   8.039
 1124POPC   C4B17218  24.149   0.965   7.648
 1125POPC   NC317219  43.876   8.487   9.418
 1125POPC   PO417220  43.436   7.937   9.589
 1125POPC   GL117221  43.670   8.028   9.199
 1125POPC   GL217222  43.956   8.215   9.017
 1125POPC   C1A17223  43.722   7.837   8.806
 1125POPC   D2A17224  43.653   8.011   8.420
 1125POPC   C3A17225  43.916   7.975   8.082
 1125POPC   C4A17226  43.751   8.097   7.710
 1125POPC   C1B17227  44.144   8.148   8.627
 1125POPC   C2B17228  44.340   8.300   8.264
 1125POPC   C3B17229  44.263   8.516   7.870
 1125POPC   C4B17230  43.998   8.481   7.493
 1126POPC   NC317231  34.903  16.334   9.575
 1126POPC   PO417232  35.394  16.808   9.455
 1126POPC   GL117233  35.102  16.769   9.119
 1126POPC   GL217234  35.209  17.131   9.086
 1126POPC   C1A17235  35.133  16.472   8.715
 1126POPC   D2A17236  35.127  16.379   8.244
 1126POPC   C3A17237  35.362  16.628   7.964
 1126POPC   C4A17238  35.034  16.756   7.708
 1126POPC   C1B17239  35.355  16.934   8.699
 1126POPC   C2B17240  35.148  16.920   8.312
 1126POPC   C3B17241  35.222  17.141   7.938
 1126POPC   C4B17242  35.673  17.047   7.829
 1127POPC   NC317243  11.090  43.799   9.806
 1127POPC   PO417244  11.302  44.172   9.355
 1127POPC   GL117245  11.293  43.824   9.123
 1127POPC   GL217246  11.555  43.576   9.214
 1127POPC   C1A17247  11.189  43.927   8.702
 1127POPC   D2A17248  10.983  43.882   8.297
 1127POPC   C3A17249  11.180  44.115   7.957
 1127POPC   C4A17250  11.335  44.081   7.548
 1127POPC   C1B17251  11.360  43.419   8.830
 1127POPC   C2B17252  11.494  43.584   8.468
 1127POPC   C3B17253  11.432  43.673   8.081
 1127POPC   C4B17254  11.580  43.404   7.779
 1128POPC   NC317255   6.844  42.415   9.512
 1128POPC   PO417256   6.264  42.238   9.641
 1128POPC   GL117257   6.395  42.297   9.224
 1128POPC   GL217258   6.518  42.614   9.175
 1128POPC   C1A17259   6.669  42.180   8.865
 1128POPC   D2A17260   6.681  42.352   8.484
 1128POPC   C3A17261   6.761  42.223   8.082
 1128POPC   C4A17262   6.474  42.353   7.791
 1128POPC   C1B17263   6.889  42.667   8.862
 1128POPC   C2B17264   6.984  42.765   8.433
 1128POPC   C3B17265   6.817  42.731   8.025
 1128POPC   C4B17266   6.762  42.901   7.605
 1129POPC   NC317267  36.852   2.984   9.496
 1129POPC   PO417268  36.849   2.244   9.520
 1129POPC   GL117269  36.792   2.563   9.191
 1129POPC   GL217270  37.165   2.516   9.192
 1129POPC   C1A17271  36.628   2.873   8.834
 1129POPC   D2A17272  36.732   3.016   8.407
 1129POPC   C3A17273  36.653   2.693   8.086
 1129POPC   C4A17274  36.930   2.582   7.781
 1129POPC   C1B17275  37.063   2.590   8.767
 1129POPC   C2B17276  37.067   2.603   8.363
 1129POPC   C3B17277  37.136   2.912   8.096
 1129POPC   C4B17278  37.283   2.931   7.668
 1130POPC   NC317279   8.502  37.877   9.406
 1130POPC   PO417280   8.208  37.214   9.449
 1130POPC   GL117281   8.205  37.534   9.157
 1130POPC   GL217282   8.421  37.305   8.978
 1130POPC   C1A17283   8.166  37.733   8.751
 1130POPC   D2A17284   8.062  37.570   8.349
 1130POPC   C3A17285   7.899  37.867   8.068
 1130POPC   C4A17286   8.054  38.082   7.686
 1130POPC   C1B17287   8.665  37.552   8.720
 1130POPC   C2B17288   8.536  37.785   8.358
 1130POPC   C3B17289   8.388  37.729   7.929
 1130POPC   C4B17290   8.465  37.525   7.482
 1131POPC   NC317291  15.197   4.280   9.642
 1131POPC   PO417292  14.681   4.636   9.558
 1131POPC   GL117293  15.014   4.499   9.217
 1131POPC   GL217294  15.390   4.391   9.202
 1131POPC   C1A17295  15.168   4.560   8.759
 1131POPC   D2A17296  15.136   4.436   8.277
 1131POPC   C3A17297  15.060   4.505   7.777
 1131POPC   C4A17298  15.048   4.583   7.305
 1131POPC   C1B17299  15.532   4.163   8.821
 1131POPC   C2B17300  15.510   4.090   8.373
 1131POPC   C3B17301  15.457   4.192   7.924
 1131POPC   C4B17302  15.309   4.142   7.485
 1132POPC   NC317303   4.197  33.136   9.717
 1132POPC   PO417304   4.744  32.747   9.498
 1132POPC   GL117305   4.400  32.772   9.164
 1132POPC   GL217306   4.192  33.069   9.144
 1132POPC   C1A17307   4.531  33.002   8.762
 1132POPC   D2A17308   4.476  33.252   8.435
 1132POPC   C3A17309   4.606  32.982   8.157
 1132POPC   C4A17310   4.441  33.112   7.847
 1132POPC   C1B17311   4.030  32.928   8.713
 1132POPC   C2B17312   4.089  32.969   8.242
 1132POPC   C3B17313   3.998  32.909   7.782
 1132POPC   C4B17314   3.880  32.779   7.343
 1133POPC   NC317315  33.097  24.774   9.550
 1133POPC   PO417316  32.607  24.292   9.509
 1133POPC   GL117317  32.926  24.361   9.190
 1133POPC   GL217318  33.275  24.433   9.168
 1133POPC   C1A17319  32.886  24.450   8.753
 1133POPC   D2A17320  33.036  24.630   8.369
 1133POPC   C3A17321  33.001  24.323   8.029
 1133POPC   C4A17322  33.162  24.327   7.612
 1133POPC   C1B17323  33.397  24.557   8.741
 1133POPC   C2B17324  33.557  24.606   8.274
 1133POPC   C3B17325  33.297  24.738   7.895
 1133POPC   C4B17326  33.130  24.820   7.448
 1134POPC   NC317327  20.957  41.994   9.363
 1134POPC   PO417328  21.225  42.584   9.547
 1134POPC   GL117329  21.396  42.353   9.228
 1134POPC   GL217330  21.542  42.645   9.116
 1134POPC   C1A17331  21.313  42.273   8.781
 1134POPC   D2A17332  21.151  42.325   8.360
 1134POPC   C3A17333  21.135  42.108   7.931
 1134POPC   C4A17334  21.127  42.155   7.386
 1134POPC   C1B17335  21.784  42.565   8.765
 1134POPC   C2B17336  21.603  42.580   8.411
 1134POPC   C3B17337  21.380  42.678   8.075
 1134POPC   C4B17338  21.365  42.486   7.683
 1135POPC   NC317339  17.042  16.218   9.749
 1135POPC   PO417340  17.609  16.116   9.408
 1135POPC   GL117341  17.476  16.095   8.997
 1135POPC   GL217342  17.616  15.786   8.881
 1135POPC   C1A17343  17.330  16.108   8.598
 1135POPC   D2A17344  17.587  15.932   8.303
 1135POPC   C3A17345  17.537  16.087   7.903
 1135POPC   C4A17346  17.655  15.866   7.534
 1135POPC   C1B17347  17.204  15.628   8.719
 1135POPC   C2B17348  17.133  15.651   8.296
 1135POPC   C3B17349  17.345  15.588   7.909
 1135POPC   C4B17350  17.175  15.619   7.486
 1136POPC   NC317351  29.615  18.962   9.463
 1136POPC   PO417352  30.286  19.168   9.520
 1136POPC   GL117353  30.140  19.157   9.104
 1136POPC   GL217354  29.807  19.249   9.110
 1136POPC   C1A17355  29.958  19.033   8.686
 1136POPC   D2A17356  29.929  18.810   8.325
 1136POPC   C3A17357  29.879  18.997   7.985
 1136POPC   C4A17358  29.801  18.874   7.613
 1136POPC   C1B17359  29.579  19.370   8.712
 1136POPC   C2B17360  29.769  19.408   8.279
 1136POPC   C3B17361  29.521  19.356   7.861
 1136POPC   C4B17362  29.524  19.253   7.407
 1137POPC   NC317363   4.357   7.009   9.527
 1137POPC   PO417364   4.408   7.699   9.509
 1137POPC   GL117365   4.310   7.402   9.165
 1137POPC   GL217366   4.024   7.148   9.163
 1137POPC   C1A17367   4.162   7.409   8.737
 1137POPC   D2A17368   4.334   7.419   8.343
 1137POPC   C3A17369   4.309   7.510   7.911
 1137POPC   C4A17370   4.682   7.627   7.692
 1137POPC   C1B17371   4.342   6.954   8.873
 1137POPC   C2B17372   4.438   6.924   8.447
 1137POPC   C3B17373   4.303   7.012   8.026
 1137POPC   C4B17374   4.529   7.094   7.646
 1138POPC   NC317375   7.119  23.105   9.263
 1138POPC   PO417376   7.518  22.603   9.492
 1138POPC   GL117377   7.528  22.837   9.111
 1138POPC   GL217378   7.681  23.149   9.061
 1138POPC   C1A17379   7.313  22.856   8.703
 1138POPC   D2A17380   7.310  22.979   8.295
 1138POPC   C3A17381   7.212  22.660   8.010
 1138POPC   C4A17382   7.060  22.864   7.650
 1138POPC   C1B17383   7.828  22.924   8.678
 1138POPC   C2B17384   7.812  23.050   8.235
 1138POPC   C3B17385   7.609  22.934   7.850
 1138POPC   C4B17386   7.471  23.169   7.517
 1139POPC   NC317387  37.853  19.692   9.598
 1139POPC   PO417388  37.250  19.750   9.558
 1139POPC   GL117389  37.475  19.928   9.190
 1139POPC   GL217390  37.828  20.024   9.188
 1139POPC   C1A17391  37.508  20.029   8.748
 1139POPC   D2A17392  37.669  20.294   8.415
 1139POPC   C3A17393  37.604  20.146   8.012
 1139POPC   C4A17394  37.488  19.826   7.715
 1139POPC   C1B17395  37.941  19.770   8.815
 1139POPC   C2B17396  37.790  19.782   8.385
 1139POPC   C3B17397  37.860  19.645   7.992
 1139POPC   C4B17398  37.911  19.582   7.550
 1140POPC   NC317399  44.274  41.231   9.549
 1140POPC   PO417400  43.770  41.645   9.538
 1140POPC   GL117401  43.911  41.740   9.116
 1140POPC   GL217402  44.212  41.580   9.161
 1140POPC   C1A17403  43.809  41.636   8.679
 1140POPC   D2A17404  43.599  41.520   8.285
 1140POPC   C3A17405  43.924  41.559   7.963
 1140POPC   C4A17406  44.174  41.880   7.737
 1140POPC   C1B17407  44.259  41.253   8.841
 1140POPC   C2B17408  44.115  41.297   8.397
 1140POPC   C3B17409  44.353  41.343   8.008
 1140POPC   C4B17410  44.306  41.241   7.555
 1141POPC   NC317411  17.499  20.044   9.492
 1141POPC   PO417412  17.861  19.445   9.481
 1141POPC   GL117413  17.652  19.656   9.162
 1141POPC   GL217414  17.428  19.940   9.018
 1141POPC   C1A17415  17.731  19.659   8.764
 1141POPC   D2A17416  17.694  19.909   8.427
 1141POPC   C3A17417  17.544  19.635   8.105
 1141POPC   C4A17418  17.693  19.542   7.705
 1141POPC   C1B17419  17.233  19.786   8.688
 1141POPC   C2B17420  17.194  19.956   8.305
 1141POPC   C3B17421  17.471  20.176   8.038
 1141POPC   C4B17422  17.380  19.938   7.704
 1142POPC   NC317423  15.653   1.613   9.608
 1142POPC   PO417424  16.269   1.947   9.621
 1142POPC   GL117425  16.123   1.785   9.245
 1142POPC   GL217426  15.812   1.919   9.213
 1142POPC   C1A17427  16.238   1.811   8.821
 1142POPC   D2A17428  16.125   2.053   8.448
 1142POPC   C3A17429  16.316   1.906   8.076
 1142POPC   C4A17430  16.208   1.679   7.710
 1142POPC   C1B17431  15.763   1.612   8.860
 1142POPC   C2B17432  15.720   1.690   8.393
 1142POPC   C3B17433  15.772   1.824   7.949
 1142POPC   C4B17434  15.662   1.730   7.493
 1143POPC   NC317435  34.683  13.338   9.481
 1143POPC   PO417436  34.322  12.870   9.797
 1143POPC   GL117437  34.496  12.901   9.332
 1143POPC   GL217438  34.325  13.166   9.164
 1143POPC   C1A17439  34.636  12.844   8.895
 1143POPC   D2A17440  34.601  12.969   8.450
 1143POPC   C3A17441  34.510  12.799   8.022
 1143POPC   C4A17442  34.720  12.640   7.651
 1143POPC   C1B17443  34.246  13.223   8.732
 1143POPC   C2B17444  34.158  13.137   8.280
 1143POPC   C3B17445  34.177  13.204   7.854
 1143POPC   C4B17446  34.438  13.074   7.500
 1144POPC   NC317447  27.617   6.795   9.710
 1144POPC   PO417448  27.764   6.176   9.977
 1144POPC   GL117449  27.490   6.369   9.500
 1144POPC   GL217450  27.679   6.623   9.250
 1144POPC   C1A17451  27.308   6.385   8.998
 1144POPC   D2A17452  27.593   6.416   8.588
 1144POPC   C3A17453  27.601   6.512   8.124
 1144POPC   C4A17454  27.407   6.416   7.708
 1144POPC   C1B17455  27.529   6.829   8.875
 1144POPC   C2B17456  27.486   6.983   8.446
 1144POPC   C3B17457  27.346   6.952   8.012
 1144POPC   C4B17458  27.536   6.888   7.636
 1145POPC   NC317459  37.126  14.832   9.577
 1145POPC   PO417460  36.796  15.418   9.602
 1145POPC   GL117461  36.919  15.181   9.227
 1145POPC   GL217462  37.237  15.022   9.125
 1145POPC   C1A17463  36.819  15.095   8.794
 1145POPC   D2A17464  36.583  15.258   8.444
 1145POPC   C3A17465  36.728  15.182   8.006
 1145POPC   C4A17466  36.626  15.487   7.699
 1145POPC   C1B17467  37.312  15.245   8.771
 1145POPC   C2B17468  37.132  15.236   8.367
 1145POPC   C3B17469  37.268  15.104   7.959
 1145POPC   C4B17470  37.115  14.763   7.745
 1146POPC   NC317471  20.275  34.492   9.472
 1146POPC   PO417472  19.658  34.518   9.626
 1146POPC   GL117473  19.853  34.694   9.233
 1146POPC   GL217474  20.142  34.899   9.192
 1146POPC   C1A17475  20.046  34.476   8.853
 1146POPC   D2A17476  20.158  34.353   8.434
 1146POPC   C3A17477  19.926  34.433   8.098
 1146POPC   C4A17478  19.864  34.333   7.698
 1146POPC   C1B17479  19.956  34.984   8.806
 1146POPC   C2B17480  19.805  34.835   8.423
 1146POPC   C3B17481  19.995  34.932   8.040
 1146POPC   C4B17482  20.139  34.759   7.699
 1147POPC   NC317483  26.886  44.500   9.553
 1147POPC   PO417484  26.271  44.866   9.490
 1147POPC   GL117485  26.610  44.835   9.216
 1147POPC   GL217486  26.879   0.086   9.310
 1147POPC   C1A17487  26.853  44.697   8.868
 1147POPC   D2A17488  26.924  44.506   8.478
 1147POPC   C3A17489  26.869  44.588   8.069
 1147POPC   C4A17490  27.062  44.303   7.788
 1147POPC   C1B17491  27.164   0.110   8.967
 1147POPC   C2B17492  27.200  44.965   8.573
 1147POPC   C3B17493  27.135  44.999   8.162
 1147POPC   C4B17494  27.200  44.895   7.747
 1148POPC   NC317495   2.223  34.893   9.466
 1148POPC   PO417496   1.716  34.401   9.571
 1148POPC   GL117497   2.043  34.455   9.242
 1148POPC   GL217498   1.960  34.775   9.063
 1148POPC   C1A17499   2.154  34.378   8.812
 1148POPC   D2A17500   1.987  34.543   8.427
 1148POPC   C3A17501   2.158  34.381   8.023
 1148POPC   C4A17502   2.122  34.589   7.622
 1148POPC   C1B17503   2.294  34.863   8.776
 1148POPC   C2B17504   2.210  35.027   8.420
 1148POPC   C3B17505   2.192  34.887   8.040
 1148POPC   C4B17506   2.126  35.106   7.680
 1149POPC   NC317507  29.357  31.420   9.613
 1149POPC   PO417508  28.681  31.508   9.494
 1149POPC   GL117509  29.024  31.347   9.201
 1149POPC   GL217510  29.419  31.321   9.120
 1149POPC   C1A17511  29.022  31.644   8.838
 1149POPC   D2A17512  28.811  31.932   8.529
 1149POPC   C3A17513  28.920  31.800   8.114
 1149POPC   C4A17514  29.015  31.589   7.708
 1149POPC   C1B17515  29.384  31.325   8.677
 1149POPC   C2B17516  29.142  31.356   8.297
 1149POPC   C3B17517  29.164  31.104   7.916
 1149POPC   C4B17518  29.348  31.233   7.517
 1150POPC   NC317519  19.226   8.820   9.461
 1150POPC   PO417520  18.728   9.239   9.496
 1150POPC   GL117521  18.992   9.132   9.158
 1150POPC   GL217522  19.319   9.287   9.220
 1150POPC   C1A17523  19.145   8.907   8.806
 1150POPC   D2A17524  18.920   8.890   8.431
 1150POPC   C3A17525  18.993   8.972   8.014
 1150POPC   C4A17526  18.749   8.889   7.637
 1150POPC   C1B17527  19.431   9.325   8.767
 1150POPC   C2B17528  19.618   9.252   8.329
 1150POPC   C3B17529  19.427   9.274   7.892
 1150POPC   C4B17530  19.278   8.915   7.607
 1151POPC   NC317531   3.485   7.055   9.655
 1151POPC   PO417532   3.409   7.713   9.546
 1151POPC   GL117533   3.595   7.425   9.261
 1151POPC   GL217534   3.854   7.645   9.133
 1151POPC   C1A17535   3.649   7.309   8.825
 1151POPC   D2A17536   3.481   7.522   8.469
 1151POPC   C3A17537   3.533   7.335   8.077
 1151POPC   C4A17538   3.482   7.516   7.679
 1151POPC   C1B17539   3.866   7.810   8.728
 1151POPC   C2B17540   4.058   7.870   8.339
 1151POPC   C3B17541   3.842   7.759   7.959
 1151POPC   C4B17542   3.904   7.769   7.503
 1152POPC   NC317543  36.334  36.285   9.626
 1152POPC   PO417544  35.835  35.806   9.409
 1152POPC   GL117545  36.054  36.083   9.140
 1152POPC   GL217546  36.232  36.402   9.133
 1152POPC   C1A17547  36.196  35.930   8.764
 1152POPC   D2A17548  36.347  36.088   8.391
 1152POPC   C3A17549  36.191  35.887   8.028
 1152POPC   C4A17550  36.352  35.919   7.624
 1152POPC   C1B17551  36.389  36.662   8.801
 1152POPC   C2B17552  36.333  36.634   8.366
 1152POPC   C3B17553  36.391  36.400   7.979
 1152POPC   C4B17554  36.030  36.309   7.744
 1153POPC   NC317555  16.291  30.788   9.538
 1153POPC   PO417556  16.930  30.785   9.525
 1153POPC   GL117557  16.877  30.637   9.147
 1153POPC   GL217558  16.608  30.410   9.211
 1153POPC   C1A17559  17.087  30.878   8.821
 1153POPC   D2A17560  16.812  30.806   8.510
 1153POPC   C3A17561  16.820  30.770   8.087
 1153POPC   C4A17562  16.925  30.739   7.654
 1153POPC   C1B17563  16.716  30.343   8.755
 1153POPC   C2B17564  16.902  30.292   8.348
 1153POPC   C3B17565  16.709  30.296   7.925
 1153POPC   C4B17566  16.859  30.235   7.511
 1154POPC   NC317567  26.762  41.171   9.512
 1154POPC   PO417568  26.534  41.811   9.436
 1154POPC   GL117569  26.740  41.662   9.100
 1154POPC   GL217570  26.972  41.426   9.131
 1154POPC   C1A17571  26.592  41.471   8.723
 1154POPC   D2A17572  26.685  41.672   8.368
 1154POPC   C3A17573  26.585  41.439   8.034
 1154POPC   C4A17574  26.748  41.524   7.629
 1154POPC   C1B17575  27.079  41.566   8.721
 1154POPC   C2B17576  27.040  41.325   8.368
 1154POPC   C3B17577  27.106  41.453   7.982
 1154POPC   C4B17578  27.210  41.307   7.588
 1155POPC   NC317579  33.202  15.247   9.893
 1155POPC   PO417580  32.760  14.770   9.619
 1155POPC   GL117581  32.954  14.934   9.228
 1155POPC   GL217582  33.076  15.235   9.313
 1155POPC   C1A17583  33.144  15.058   8.792
 1155POPC   D2A17584  33.081  14.931   8.331
 1155POPC   C3A17585  33.089  15.049   7.881
 1155POPC   C4A17586  33.286  15.388   7.640
 1155POPC   C1B17587  32.731  15.329   8.981
 1155POPC   C2B17588  32.767  15.325   8.540
 1155POPC   C3B17589  32.955  15.447   8.160
 1155POPC   C4B17590  32.779  15.487   7.745
 1156POPC   NC317591  32.798   0.957   9.402
 1156POPC   PO417592  33.338   1.335   9.399
 1156POPC   GL117593  33.048   1.275   9.095
 1156POPC   GL217594  32.739   1.480   9.216
 1156POPC   C1A17595  32.829   1.005   8.761
 1156POPC   D2A17596  32.802   0.744   8.392
 1156POPC   C3A17597  33.138   0.834   8.161
 1156POPC   C4A17598  33.130   1.004   7.796
 1156POPC   C1B17599  32.794   1.513   8.759
 1156POPC   C2B17600  33.120   1.314   8.461
 1156POPC   C3B17601  33.150   1.438   8.040
 1156POPC   C4B17602  33.046   1.671   7.707
 1157POPC   NC317603  15.397  30.657   9.966
 1157POPC   PO417604  15.909  30.508   9.514
 1157POPC   GL117605  15.883  30.390   9.092
 1157POPC   GL217606  16.188  30.182   9.013
 1157POPC   C1A17607  15.746  30.641   8.738
 1157POPC   D2A17608  15.940  30.740   8.359
 1157POPC   C3A17609  15.756  30.914   8.006
 1157POPC   C4A17610  15.755  30.630   7.749
 1157POPC   C1B17611  16.268  30.570   8.780
 1157POPC   C2B17612  16.420  30.509   8.365
 1157POPC   C3B17613  16.251  30.582   7.984
 1157POPC   C4B17614  16.096  30.218   7.813
 1158POPC   NC317615  38.644  13.517   9.494
 1158POPC   PO417616  37.961  13.872   9.548
 1158POPC   GL117617  38.294  13.837   9.208
 1158POPC   GL217618  38.295  13.481   9.128
 1158POPC   C1A17619  38.538  13.814   8.783
 1158POPC   D2A17620  38.734  13.894   8.342
 1158POPC   C3A17621  38.920  13.636   7.993
 1158POPC   C4A17622  38.727  13.669   7.573
 1158POPC   C1B17623  38.109  13.544   8.745
 1158POPC   C2B17624  38.147  13.385   8.356
 1158POPC   C3B17625  38.038  13.505   7.975
 1158POPC   C4B17626  38.254  13.498   7.597
 1159POPC   NC317627  25.876   6.922   9.534
 1159POPC   PO417628  26.507   6.833   9.473
 1159POPC   GL117629  26.217   6.702   9.117
 1159POPC   GL217630  25.844   6.799   9.049
 1159POPC   C1A17631  26.355   6.715   8.676
 1159POPC   D2A17632  26.320   6.898   8.282
 1159POPC   C3A17633  26.345   6.634   7.953
 1159POPC   C4A17634  26.151   6.818   7.635
 1159POPC   C1B17635  25.922   6.442   8.771
 1159POPC   C2B17636  26.020   6.442   8.320
 1159POPC   C3B17637  25.860   6.425   7.887
 1159POPC   C4B17638  25.761   6.067   7.645
 1160POPC   NC317639  43.200   0.312   9.631
 1160POPC   PO417640  43.594   0.416   9.116
 1160POPC   GL117641  43.090   0.369   9.067
 1160POPC   GL217642  42.788   0.146   9.229
 1160POPC   C1A17643  42.918   0.560   8.652
 1160POPC   D2A17644  43.014   0.798   8.251
 1160POPC   C3A17645  42.987   0.556   7.856
 1160POPC   C4A17646  43.318   0.434   7.550
 1160POPC   C1B17647  42.628   0.198   8.835
 1160POPC   C2B17648  42.735   0.062   8.425
 1160POPC   C3B17649  42.634   0.164   8.000
 1160POPC   C4B17650  42.797   0.151   7.586
 1161POPC   NC317651  42.631  17.043   9.449
 1161POPC   PO417652  42.089  17.496   9.439
 1161POPC   GL117653  42.355  17.523   9.061
 1161POPC   GL217654  42.339  17.199   9.059
 1161POPC   C1A17655  42.567  17.722   8.669
 1161POPC   D2A17656  42.690  17.795   8.189
 1161POPC   C3A17657  42.374  17.647   7.893
 1161POPC   C4A17658  41.981  17.642   7.649
 1161POPC   C1B17659  42.574  17.206   8.674
 1161POPC   C2B17660  42.596  17.300   8.223
 1161POPC   C3B17661  42.809  17.407   7.782
 1161POPC   C4B17662  42.771  17.243   7.306
 1162POPC   NC317663  14.247  37.108   9.456
 1162POPC   PO417664  14.683  36.639   9.426
 1162POPC   GL117665  14.395  36.743   9.111
 1162POPC   GL217666  14.088  36.607   9.226
 1162POPC   C1A17667  14.444  36.830   8.689
 1162POPC   D2A17668  14.749  36.800   8.385
 1162POPC   C3A17669  14.559  36.855   7.995
 1162POPC   C4A17670  14.560  37.084   7.604
 1162POPC   C1B17671  13.945  36.758   8.817
 1162POPC   C2B17672  13.991  36.745   8.404
 1162POPC   C3B17673  14.110  37.063   8.136
 1162POPC   C4B17674  13.916  37.231   7.775
 1163POPC   NC317675  39.049  38.749   9.595
 1163POPC   PO417676  39.209  38.127   9.607
 1163POPC   GL117677  39.109  38.361   9.225
 1163POPC   GL217678  39.280  38.664   9.134
 1163POPC   C1A17679  39.061  38.382   8.766
 1163POPC   D2A17680  39.286  38.212   8.410
 1163POPC   C3A17681  39.250  38.344   7.968
 1163POPC   C4A17682  39.130  38.373   7.524
 1163POPC   C1B17683  39.511  38.616   8.742
 1163POPC   C2B17684  39.315  38.702   8.356
 1163POPC   C3B17685  39.127  38.846   7.994
 1163POPC   C4B17686  39.354  38.794   7.657
 1164POPC   NC317687   1.955  31.269   9.525
 1164POPC   PO417688   2.423  31.764   9.649
 1164POPC   GL117689   2.226  31.612   9.257
 1164POPC   GL217690   2.406  31.296   9.214
 1164POPC   C1A17691   2.030  31.461   8.859
 1164POPC   D2A17692   1.751  31.374   8.527
 1164POPC   C3A17693   1.814  31.562   8.139
 1164POPC   C4A17694   1.817  31.488   7.696
 1164POPC   C1B17695   2.415  31.129   8.798
 1164POPC   C2B17696   2.222  31.196   8.379
 1164POPC   C3B17697   2.250  31.385   7.979
 1164POPC   C4B17698   2.240  31.265   7.546
 1165POPC   NC317699   0.984  11.905   9.275
 1165POPC   PO417700   1.430  12.320   9.487
 1165POPC   GL117701   1.424  12.138   9.101
 1165POPC   GL217702   1.471  11.785   9.139
 1165POPC   C1A17703   1.282  12.205   8.674
 1165POPC   D2A17704   1.482  12.474   8.331
 1165POPC   C3A17705   1.253  12.374   7.990
 1165POPC   C4A17706   1.074  12.006   7.815
 1165POPC   C1B17707   1.633  11.837   8.717
 1165POPC   C2B17708   1.524  11.955   8.295
 1165POPC   C3B17709   1.492  11.737   7.911
 1165POPC   C4B17710   1.510  11.881   7.474
 1166POPC   NC317711  19.599  35.654   9.476
 1166POPC   PO417712  20.107  35.170   9.695
 1166POPC   GL117713  19.979  35.357   9.313
 1166POPC   GL217714  19.676  35.198   9.244
 1166POPC   C1A17715  19.918  35.487   8.871
 1166POPC   D2A17716  19.773  35.358   8.463
 1166POPC   C3A17717  19.930  35.424   8.049
 1166POPC   C4A17718  19.966  35.761   7.801
 1166POPC   C1B17719  19.465  35.078   8.897
 1166POPC   C2B17720  19.319  35.143   8.474
 1166POPC   C3B17721  19.518  35.108   8.064
 1166POPC   C4B17722  19.617  34.853   7.679
 1167POPC   NC317723  23.574  40.229   9.584
 1167POPC   PO417724  23.914  39.697   9.747
 1167POPC   GL117725  23.909  39.780   9.282
 1167POPC   GL217726  23.622  39.963   9.121
 1167POPC   C1A17727  24.037  39.790   8.835
 1167POPC   D2A17728  24.098  40.040   8.448
 1167POPC   C3A17729  24.027  39.824   8.084
 1167POPC   C4A17730  23.786  39.946   7.737
 1167POPC   C1B17731  23.648  40.199   8.708
 1167POPC   C2B17732  23.597  40.131   8.251
 1167POPC   C3B17733  23.607  40.394   7.898
 1167POPC   C4B17734  23.305  40.581   7.675
 1168POPC   NC317735  42.561  17.682   9.514
 1168POPC   PO417736  42.155  18.219   9.699
 1168POPC   GL117737  42.154  18.280   9.246
 1168POPC   GL217738  42.156  17.962   9.210
 1168POPC   C1A17739  42.467  18.264   8.872
 1168POPC   D2A17740  42.722  18.202   8.479
 1168POPC   C3A17741  42.553  18.335   8.040
 1168POPC   C4A17742  42.470  18.512   7.603
 1168POPC   C1B17743  42.082  17.961   8.755
 1168POPC   C2B17744  42.187  17.862   8.355
 1168POPC   C3B17745  42.104  18.049   7.993
 1168POPC   C4B17746  42.236  18.073   7.583
 1169POPC   NC317747  29.913   9.400   9.515
 1169POPC   PO417748  29.675   8.716   9.451
 1169POPC   GL117749  29.940   8.893   9.119
 1169POPC   GL217750  30.058   9.226   9.078
 1169POPC   C1A17751  30.028   8.882   8.698
 1169POPC   D2A17752  29.781   9.061   8.389
 1169POPC   C3A17753  30.114   9.139   8.164
 1169POPC   C4A17754  30.324   9.009   7.803
 1169POPC   C1B17755  30.020   9.415   8.695
 1169POPC   C2B17756  29.753   9.640   8.440
 1169POPC   C3B17757  29.615   9.436   8.074
 1169POPC   C4B17758  29.849   9.233   7.744
 1170POPC   NC317759  12.445  27.888   9.472
 1170POPC   PO417760  13.078  27.494   9.570
 1170POPC   GL117761  12.978  27.485   9.163
 1170POPC   GL217762  13.288  27.353   9.120
 1170POPC   C1A17763  12.845  27.667   8.742
 1170POPC   D2A17764  12.920  27.758   8.289
 1170POPC   C3A17765  12.604  27.830   7.983
 1170POPC   C4A17766  12.592  27.622   7.605
 1170POPC   C1B17767  13.394  27.141   8.782
 1170POPC   C2B17768  13.379  27.327   8.409
 1170POPC   C3B17769  13.187  27.325   8.051
 1170POPC   C4B17770  13.073  27.630   7.800
 1171POPC   NC317771  44.477   7.630   9.396
 1171POPC   PO417772  44.605   6.964   9.269
 1171POPC   GL117773  44.866   7.223   9.132
 1171POPC   GL217774   0.087   6.980   9.023
 1171POPC   C1A17775  44.727   7.457   8.785
 1171POPC   D2A17776  44.518   7.318   8.414
 1171POPC   C3A17777  44.786   7.290   8.041
 1171POPC   C4A17778  44.899   7.540   7.665
 1171POPC   C1B17779  44.937   7.021   8.605
 1171POPC   C2B17780  44.612   6.824   8.310
 1171POPC   C3B17781  44.325   7.036   8.008
 1171POPC   C4B17782  44.495   7.206   7.591
 1172POPC   NC317783   7.267  12.882   9.424
 1172POPC   PO417784   7.401  12.212   9.442
 1172POPC   GL117785   7.342  12.494   9.068
 1172POPC   GL217786   7.630  12.743   9.080
 1172POPC   C1A17787   7.432  12.632   8.610
 1172POPC   D2A17788   7.481  12.846   8.184
 1172POPC   C3A17789   7.177  12.794   7.828
 1172POPC   C4A17790   7.238  12.480   7.466
 1172POPC   C1B17791   7.604  13.106   8.784
 1172POPC   C2B17792   7.625  13.348   8.399
 1172POPC   C3B17793   7.469  13.310   7.959
 1172POPC   C4B17794   7.627  13.216   7.548
 1173POPC   NC317795   4.497  14.593   9.683
 1173POPC   PO417796   3.887  14.539   9.559
 1173POPC   GL117797   4.177  14.351   9.273
 1173POPC   GL217798   4.483  14.176   9.352
 1173POPC   C1A17799   4.166  14.256   8.834
 1173POPC   D2A17800   4.095  14.311   8.360
 1173POPC   C3A17801   4.084  14.622   8.060
 1173POPC   C4A17802   3.981  14.481   7.625
 1173POPC   C1B17803   4.625  14.447   9.016
 1173POPC   C2B17804   4.572  14.408   8.582
 1173POPC   C3B17805   4.619  14.514   8.158
 1173POPC   C4B17806   4.474  14.619   7.732
 1174POPC   NC317807  44.304  23.698   9.563
 1174POPC   PO417808  43.651  23.446   9.411
 1174POPC   GL117809  43.696  23.805   9.152
 1174POPC   GL217810  44.064  23.835   9.143
 1174POPC   C1A17811  43.553  24.007   8.777
 1174POPC   D2A17812  43.780  23.919   8.402
 1174POPC   C3A17813  43.611  23.909   8.002
 1174POPC   C4A17814  43.574  23.563   7.687
 1174POPC   C1B17815  44.042  23.507   8.845
 1174POPC   C2B17816  43.895  23.428   8.447
 1174POPC   C3B17817  43.958  23.541   8.037
 1174POPC   C4B17818  44.044  23.340   7.648
 1175POPC   NC317819  21.656  15.380   9.537
 1175POPC   PO417820  22.244  15.056   9.418
 1175POPC   GL117821  21.960  15.120   9.102
 1175POPC   GL217822  21.929  15.462   9.109
 1175POPC   C1A17823  21.990  15.095   8.671
 1175POPC   D2A17824  22.251  14.936   8.367
 1175POPC   C3A17825  22.144  15.040   7.983
 1175POPC   C4A17826  21.989  14.947   7.588
 1175POPC   C1B17827  22.241  15.531   8.802
 1175POPC   C2B17828  22.094  15.576   8.368
 1175POPC   C3B17829  21.925  15.494   7.936
 1175POPC   C4B17830  22.264  15.393   7.626
 1176POPC   NC317831   7.816  23.002   9.527
 1176POPC   PO417832   8.461  22.926   9.573
 1176POPC   GL117833   8.234  23.158   9.250
 1176POPC   GL217834   8.104  22.847   9.123
 1176POPC   C1A17835   8.119  23.308   8.840
 1176POPC   D2A17836   8.469  23.367   8.531
 1176POPC   C3A17837   8.383  23.308   8.090
 1176POPC   C4A17838   8.063  23.155   7.776
 1176POPC   C1B17839   8.393  22.902   8.770
 1176POPC   C2B17840   8.260  22.857   8.368
 1176POPC   C3B17841   8.392  22.807   7.947
 1176POPC   C4B17842   8.320  22.815   7.493
 1177POPC   NC317843  35.183  27.775   9.573
 1177POPC   PO417844  35.746  27.431   9.473
 1177POPC   GL117845  35.465  27.621   9.138
 1177POPC   GL217846  35.229  27.930   9.093
 1177POPC   C1A17847  35.490  27.685   8.686
 1177POPC   D2A17848  35.367  27.803   8.260
 1177POPC   C3A17849  35.251  27.492   8.010
 1177POPC   C4A17850  35.459  27.349   7.675
 1177POPC   C1B17851  34.987  27.835   8.706
 1177POPC   C2B17852  34.879  28.010   8.291
 1177POPC   C3B17853  34.963  27.898   7.842
 1177POPC   C4B17854  35.020  28.021   7.369
 1178POPC   NC317855   0.105   0.896   9.385
 1178POPC   PO417856  44.799   1.401   9.641
 1178POPC   GL117857  44.701   1.218   9.266
 1178POPC   GL217858  44.368   1.105   9.340
 1178POPC   C1A17859  44.853   1.217   8.849
 1178POPC   D2A17860  44.945   1.450   8.486
 1178POPC   C3A17861  44.954   1.153   8.174
 1178POPC   C4A17862  44.762   1.114   7.783
 1178POPC   C1B17863  44.390   0.983   8.939
 1178POPC   C2B17864  44.488   1.002   8.511
 1178POPC   C3B17865  44.464   1.268   8.191
 1178POPC   C4B17866  44.290   1.370   7.817
 1179POPC   NC317867   6.681  29.197   9.833
 1179POPC   PO417868   6.426  29.345   9.277
 1179POPC   GL117869   6.493  29.138   8.956
 1179POPC   GL217870   6.807  29.168   8.836
 1179POPC   C1A17871   6.271  29.120   8.615
 1179POPC   D2A17872   6.445  29.059   8.245
 1179POPC   C3A17873   6.309  29.406   8.023
 1179POPC   C4A17874   6.325  29.399   7.605
 1179POPC   C1B17875   7.064  29.067   8.516
 1179POPC   C2B17876   7.075  29.068   8.103
 1179POPC   C3B17877   6.775  29.192   7.862
 1179POPC   C4B17878   6.798  29.279   7.469
 1180POPC   NC317879  38.434  22.387   9.391
 1180POPC   PO417880  38.231  21.702   9.428
 1180POPC   GL117881  38.487  21.979   9.100
 1180POPC   GL217882  38.308  22.304   8.913
 1180POPC   C1A17883  38.674  22.047   8.695
 1180POPC   D2A17884  38.458  22.200   8.345
 1180POPC   C3A17885  38.577  21.959   8.015
 1180POPC   C4A17886  38.286  21.899   7.712
 1180POPC   C1B17887  38.656  22.541   8.696
 1180POPC   C2B17888  38.624  22.679   8.269
 1180POPC   C3B17889  38.542  22.436   7.863
 1180POPC   C4B17890  38.528  22.254   7.432
 1181POPC   NC317891   1.579  18.553   9.378
 1181POPC   PO417892   0.936  18.434   9.335
 1181POPC   GL117893   1.224  18.231   9.137
 1181POPC   GL217894   0.994  17.990   9.070
 1181POPC   C1A17895   1.343  18.359   8.738
 1181POPC   D2A17896   1.454  18.202   8.352
 1181POPC   C3A17897   1.206  18.431   8.081
 1181POPC   C4A17898   1.261  18.585   7.692
 1181POPC   C1B17899   1.252  17.847   8.754
 1181POPC   C2B17900   1.024  17.827   8.414
 1181POPC   C3B17901   1.060  17.942   8.060
 1181POPC   C4B17902   1.153  18.083   7.695
 1182POPC   NC317903  18.318  32.399   9.468
 1182POPC   PO417904  18.631  31.756   9.599
 1182POPC   GL117905  18.630  32.018   9.212
 1182POPC   GL217906  18.305  32.140   9.042
 1182POPC   C1A17907  18.704  32.060   8.772
 1182POPC   D2A17908  18.313  32.016   8.530
 1182POPC   C3A17909  18.368  32.104   8.147
 1182POPC   C4A17910  18.624  31.961   7.884
 1182POPC   C1B17911  18.118  32.436   8.738
 1182POPC   C2B17912  17.941  32.396   8.304
 1182POPC   C3B17913  17.908  32.096   7.969
 1182POPC   C4B17914  18.222  32.177   7.637
 1183POPC   NC317915  29.303  16.156   9.785
 1183POPC   PO417916  28.801  15.688   9.624
 1183POPC   GL117917  28.996  15.966   9.278
 1183POPC   GL217918  29.375  15.969   9.229
 1183POPC   C1A17919  29.054  15.998   8.804
 1183POPC   D2A17920  28.953  16.216   8.400
 1183POPC   C3A17921  29.016  15.924   8.032
 1183POPC   C4A17922  29.240  15.532   7.871
 1183POPC   C1B17923  29.545  16.101   8.795
 1183POPC   C2B17924  29.393  15.961   8.379
 1183POPC   C3B17925  29.530  16.000   7.939
 1183POPC   C4B17926  29.568  16.293   7.582
 1184POPC   NC317927   9.518  28.230   9.656
 1184POPC   PO417928  10.214  28.287   9.556
 1184POPC   GL117929   9.923  28.462   9.196
 1184POPC   GL217930   9.577  28.309   9.172
 1184POPC   C1A17931   9.722  28.631   8.813
 1184POPC   D2A17932   9.493  28.442   8.453
 1184POPC   C3A17933   9.792  28.430   8.151
 1184POPC   C4A17934   9.623  28.509   7.793
 1184POPC   C1B17935   9.673  28.124   8.805
 1184POPC   C2B17936   9.739  27.985   8.425
 1184POPC   C3B17937   9.540  28.012   8.043
 1184POPC   C4B17938   9.744  28.029   7.672
 1185POPC   NC317939  44.970   4.912   9.442
 1185POPC   PO417940  44.471   5.401   9.476
 1185POPC   GL117941  44.518   5.046   9.159
 1185POPC   GL217942  44.398   4.713   9.286
 1185POPC   C1A17943  44.656   5.053   8.720
 1185POPC   D2A17944  44.844   5.356   8.454
 1185POPC   C3A17945  44.748   5.371   8.035
 1185POPC   C4A17946  44.544   5.319   7.647
 1185POPC   C1B17947  44.413   4.626   8.847
 1185POPC   C2B17948  44.300   4.775   8.437
 1185POPC   C3B17949  44.438   4.915   8.046
 1185POPC   C4B17950  44.788   4.879   7.804
 1186POPC   NC317951  28.689  29.235   9.511
 1186POPC   PO417952  29.317  29.062   9.510
 1186POPC   GL117953  29.096  29.202   9.176
 1186POPC   GL217954  28.855  28.948   9.100
 1186POPC   C1A17955  29.069  29.354   8.765
 1186POPC   D2A17956  28.972  29.580   8.371
 1186POPC   C3A17957  29.117  29.254   8.111
 1186POPC   C4A17958  28.928  29.108   7.752
 1186POPC   C1B17959  29.200  28.836   8.827
 1186POPC   C2B17960  29.321  28.731   8.409
 1186POPC   C3B17961  29.218  28.752   7.980
 1186POPC   C4B17962  29.504  28.827   7.649
 1187POPC   NC317963  19.317  12.832   9.504
 1187POPC   PO417964  18.622  12.980   9.334
 1187POPC   GL117965  18.969  12.997   9.136
 1187POPC   GL217966  19.159  12.715   9.033
 1187POPC   C1A17967  18.982  13.109   8.731
 1187POPC   D2A17968  19.181  12.916   8.399
 1187POPC   C3A17969  19.033  13.051   8.011
 1187POPC   C4A17970  19.080  12.966   7.590
 1187POPC   C1B17971  19.004  12.504   8.649
 1187POPC   C2B17972  18.965  12.478   8.184
 1187POPC   C3B17973  19.241  12.557   7.834
 1187POPC   C4B17974  19.353  12.510   7.375
 1188POPC   NC317975   7.861  36.519   9.736
 1188POPC   PO417976   7.537  37.174   9.551
 1188POPC   GL117977   7.409  37.090   9.076
 1188POPC   GL217978   7.400  36.724   9.011
 1188POPC   C1A17979   7.122  36.954   8.693
 1188POPC   D2A17980   7.324  37.000   8.317
 1188POPC   C3A17981   7.114  36.942   7.942
 1188POPC   C4A17982   7.412  37.151   7.710
 1188POPC   C1B17983   7.556  36.425   8.704
 1188POPC   C2B17984   7.754  36.526   8.342
 1188POPC   C3B17985   7.576  36.687   7.975
 1188POPC   C4B17986   7.656  36.500   7.595
 1189POPC   NC317987  41.142  31.207   9.449
 1189POPC   PO417988  40.813  31.708   9.711
 1189POPC   GL117989  40.706  31.485   9.323
 1189POPC   GL217990  40.853  31.706   9.101
 1189POPC   C1A17991  40.573  31.333   8.901
 1189POPC   D2A17992  40.539  31.165   8.483
 1189POPC   C3A17993  40.622  31.376   8.093
 1189POPC   C4A17994  40.695  31.222   7.682
 1189POPC   C1B17995  41.066  31.437   8.813
 1189POPC   C2B17996  41.067  31.379   8.393
 1189POPC   C3B17997  41.083  31.605   8.006
 1189POPC   C4B17998  40.821  31.719   7.670
 1190POPC   NC317999  42.946  13.020   9.461
 1190POPC   PO418000  43.439  12.612   9.442
 1190POPC   GL118001  43.293  12.863   9.060
 1190POPC   GL218002  42.970  12.763   9.015
 1190POPC   C1A18003  43.209  12.835   8.579
 1190POPC   D2A18004  43.447  13.025   8.248
 1190POPC   C3A18005  43.356  12.918   7.838
 1190POPC   C4A18006  43.006  12.672   7.749
 1190POPC   C1B18007  42.829  13.123   8.813
 1190POPC   C2B18008  42.640  13.116   8.462
 1190POPC   C3B18009  42.855  12.960   8.135
 1190POPC   C4B18010  42.771  13.147   7.764
 1191POPC   NC318011   9.679  36.888   9.527
 1191POPC   PO418012  10.161  36.541   9.430
 1191POPC   GL118013  10.006  36.834   9.110
 1191POPC   GL218014  10.005  37.177   9.088
 1191POPC   C1A18015  10.051  36.959   8.659
 1191POPC   D2A18016   9.923  37.123   8.310
 1191POPC   C3A18017   9.696  36.952   7.989
 1191POPC   C4A18018   9.874  36.835   7.615
 1191POPC   C1B18019   9.591  37.039   8.863
 1191POPC   C2B18020   9.416  37.089   8.427
 1191POPC   C3B18021   9.269  37.239   8.011
 1191POPC   C4B18022   9.525  37.266   7.610
 1192POPC   NC318023  17.972  41.086   9.359
 1192POPC   PO418024  18.617  40.769   9.444
 1192POPC   GL118025  18.361  40.842   9.104
 1192POPC   GL218026  18.116  40.596   9.150
 1192POPC   C1A18027  18.359  40.867   8.665
 1192POPC   D2A18028  18.536  40.713   8.300
 1192POPC   C3A18029  18.363  40.869   7.934
 1192POPC   C4A18030  18.551  40.786   7.561
 1192POPC   C1B18031  18.071  40.407   8.757
 1192POPC   C2B18032  18.045  40.554   8.361
 1192POPC   C3B18033  17.877  40.683   7.959
 1192POPC   C4B18034  18.090  40.578   7.578
 1193POPC   NC318035  31.377   0.554   9.395
 1193POPC   PO418036  31.378  44.917   9.263
 1193POPC   GL118037  31.562   0.213   9.041
 1193POPC   GL218038  31.836   0.049   8.951
 1193POPC   C1A18039  31.519   0.466   8.680
 1193POPC   D2A18040  31.702   0.722   8.358
 1193POPC   C3A18041  31.509   0.633   7.988
 1193POPC   C4A18042  31.569   0.667   7.543
 1193POPC   C1B18043  31.623  44.962   8.572
 1193POPC   C2B18044  31.546   0.135   8.190
 1193POPC   C3B18045  31.600   0.199   7.762
 1193POPC   C4B18046  31.202   0.267   7.583
 1194POPC   NC318047   3.163  43.566   9.521
 1194POPC   PO418048   3.667  43.930   9.632
 1194POPC   GL118049   3.601  44.068   9.256
 1194POPC   GL218050   3.455  43.789   9.147
 1194POPC   C1A18051   3.736  44.095   8.829
 1194POPC   D2A18052   3.510  43.954   8.448
 1194POPC   C3A18053   3.730  43.964   8.040
 1194POPC   C4A18054   3.872  44.321   7.825
 1194POPC   C1B18055   3.649  43.584   8.790
 1194POPC   C2B18056   3.825  43.539   8.369
 1194POPC   C3B18057   3.699  43.429   7.942
 1194POPC   C4B18058   3.647  43.657   7.548
 1195POPC   NC318059   5.450   9.252   9.624
 1195POPC   PO418060   5.934   8.783   9.675
 1195POPC   GL118061   5.850   8.927   9.231
 1195POPC   GL218062   5.551   9.136   9.143
 1195POPC   C1A18063   5.801   8.936   8.755
 1195POPC   D2A18064   5.924   9.189   8.381
 1195POPC   C3A18065   5.781   9.052   8.006
 1195POPC   C4A18066   5.857   8.814   7.691
 1195POPC   C1B18067   5.320   9.199   8.759
 1195POPC   C2B18068   5.428   9.319   8.322
 1195POPC   C3B18069   5.360   9.281   7.863
 1195POPC   C4B18070   5.367   8.939   7.544
 1196POPC   NC318071   8.213   4.973   9.545
 1196POPC   PO418072   7.788   5.400   9.391
 1196POPC   GL118073   8.148   5.227   9.113
 1196POPC   GL218074   8.300   4.839   9.079
 1196POPC   C1A18075   8.253   5.151   8.709
 1196POPC   D2A18076   8.199   4.896   8.382
 1196POPC   C3A18077   8.278   5.110   8.023
 1196POPC   C4A18078   8.111   5.268   7.653
 1196POPC   C1B18079   8.609   4.790   8.708
 1196POPC   C2B18080   8.708   4.943   8.266
 1196POPC   C3B18081   8.713   4.945   7.796
 1196POPC   C4B18082   8.695   5.166   7.380
 1197POPC   NC318083  26.225   5.777   9.495
 1197POPC   PO418084  26.863   5.937   9.500
 1197POPC   GL118085  26.905   5.754   9.129
 1197POPC   GL218086  26.554   5.672   9.134
 1197POPC   C1A18087  27.062   5.973   8.784
 1197POPC   D2A18088  27.134   6.201   8.394
 1197POPC   C3A18089  26.896   5.973   8.056
 1197POPC   C4A18090  27.113   5.965   7.673
 1197POPC   C1B18091  26.581   5.768   8.724
 1197POPC   C2B18092  26.668   5.526   8.378
 1197POPC   C3B18093  26.502   5.568   7.988
 1197POPC   C4B18094  26.594   5.752   7.638
 1198POPC   NC318095   3.213  18.345   9.425
 1198POPC   PO418096   3.572  17.820   9.502
 1198POPC   GL118097   3.508  18.023   9.158
 1198POPC   GL218098   3.730  18.304   9.216
 1198POPC   C1A18099   3.208  18.053   8.823
 1198POPC   D2A18100   3.366  17.937   8.430
 1198POPC   C3A18101   3.391  18.004   8.004
 1198POPC   C4A18102   3.781  18.144   7.843
 1198POPC   C1B18103   3.698  18.253   8.747
 1198POPC   C2B18104   3.558  18.401   8.327
 1198POPC   C3B18105   3.494  18.553   7.912
 1198POPC   C4B18106   3.801  18.614   7.602
 1199POPC   NC318107   9.800  34.972   9.271
 1199POPC   PO418108  10.073  35.546   9.472
 1199POPC   GL118109   9.734  35.642   9.161
 1199POPC   GL218110   9.493  35.361   9.147
 1199POPC   C1A18111   9.644  35.587   8.703
 1199POPC   D2A18112   9.928  35.460   8.358
 1199POPC   C3A18113   9.842  35.459   7.927
 1199POPC   C4A18114  10.169  35.662   7.698
 1199POPC   C1B18115   9.361  35.113   8.756
 1199POPC   C2B18116   9.537  35.142   8.328
 1199POPC   C3B18117   9.468  34.964   7.905
 1199POPC   C4B18118   9.400  34.959   7.438
 1200POPC   NC318119  27.442  41.902   9.556
 1200POPC   PO418120  27.268  41.287   9.557
 1200POPC   GL118121  27.462  41.549   9.178
 1200POPC   GL218122  27.275  41.865   9.090
 1200POPC   C1A18123  27.576  41.679   8.737
 1200POPC   D2A18124  27.527  41.456   8.357
 1200POPC   C3A18125  27.798  41.599   8.047
 1200POPC   C4A18126  27.853  41.483   7.634
 1200POPC   C1B18127  27.221  42.064   8.690
 1200POPC   C2B18128  27.238  41.859   8.299
 1200POPC   C3B18129  27.396  41.853   7.865
 1200POPC   C4B18130  27.443  41.714   7.419
 1201POPC   NC318131  44.657  30.242   9.801
 1201POPC   PO418132  44.902  29.695   9.579
 1201POPC   GL118133  44.733  29.731   9.155
 1201POPC   GL218134  44.499  30.013   9.184
 1201POPC   C1A18135  44.815  29.852   8.734
 1201POPC   D2A18136  44.821  29.609   8.367
 1201POPC   C3A18137  44.800  29.755   7.980
 1201POPC   C4A18138  44.709  29.803   7.576
 1201POPC   C1B18139  44.390  30.100   8.758
 1201POPC   C2B18140  44.560  30.053   8.319
 1201POPC   C3B18141  44.519  30.168   7.861
 1201POPC   C4B18142  44.763  30.311   7.484
 1202POPC   NC318143  41.002  15.150  10.092
 1202POPC   PO418144  40.572  15.414   9.618
 1202POPC   GL118145  40.650  15.308   9.144
 1202POPC   GL218146  40.978  15.378   9.069
 1202POPC   C1A18147  40.650  15.177   8.703
 1202POPC   D2A18148  40.808  15.262   8.321
 1202POPC   C3A18149  40.619  15.263   7.987
 1202POPC   C4A18150  40.498  14.922   7.806
 1202POPC   C1B18151  41.145  15.410   8.655
 1202POPC   C2B18152  41.269  15.379   8.190
 1202POPC   C3B18153  41.070  15.354   7.751
 1202POPC   C4B18154  41.013  15.426   7.300
 1203POPC   NC318155  38.008  15.102   9.965
 1203POPC   PO418156  37.502  15.166   9.542
 1203POPC   GL118157  37.691  15.265   9.141
 1203POPC   GL218158  37.969  15.459   9.052
 1203POPC   C1A18159  37.817  15.086   8.749
 1203POPC   D2A18160  37.599  15.018   8.384
 1203POPC   C3A18161  37.699  14.691   8.120
 1203POPC   C4A18162  37.740  14.894   7.727
 1203POPC   C1B18163  37.581  15.693   8.904
 1203POPC   C2B18164  37.433  15.660   8.488
 1203POPC   C3B18165  37.598  15.483   8.096
 1203POPC   C4B18166  37.621  15.427   7.643
 1204POPC   NC318167  34.674   9.948   9.500
 1204POPC   PO418168  34.216   9.596   9.314
 1204POPC   GL118169  34.412   9.943   9.066
 1204POPC   GL218170  34.642   9.704   9.010
 1204POPC   C1A18171  34.757  10.101   8.740
 1204POPC   D2A18172  34.951   9.868   8.353
 1204POPC   C3A18173  34.617   9.766   8.086
 1204POPC   C4A18174  34.335  10.043   7.906
 1204POPC   C1B18175  34.407   9.705   8.601
 1204POPC   C2B18176  34.393   9.347   8.317
 1204POPC   C3B18177  34.436   9.328   7.897
 1204POPC   C4B18178  34.779   9.219   7.645
 1205POPC   NC318179  42.648  36.722   9.652
 1205POPC   PO418180  43.358  36.889   9.544
 1205POPC   GL118181  43.126  36.972   9.230
 1205POPC   GL218182  42.944  36.722   9.242
 1205POPC   C1A18183  43.098  36.998   8.794
 1205POPC   D2A18184  43.124  36.868   8.380
 1205POPC   C3A18185  42.912  36.577   8.119
 1205POPC   C4A18186  43.085  36.723   7.746
 1205POPC   C1B18187  42.758  36.630   8.805
 1205POPC   C2B18188  42.587  36.839   8.424
 1205POPC   C3B18189  42.509  36.972   8.005
 1205POPC   C4B18190  42.562  36.622   7.713
 1206POPC   NC318191   2.361  43.928   9.371
 1206POPC   PO418192   2.976  44.045   9.515
 1206POPC   GL118193   2.919  43.845   9.154
 1206POPC   GL218194   2.700  43.565   9.190
 1206POPC   C1A18195   2.742  43.928   8.782
 1206POPC   D2A18196   2.968  43.963   8.424
 1206POPC   C3A18197   2.782  44.094   8.092
 1206POPC   C4A18198   2.905  43.964   7.698
 1206POPC   C1B18199   2.594  43.425   8.761
 1206POPC   C2B18200   2.533  43.663   8.359
 1206POPC   C3B18201   2.604  43.599   7.905
 1206POPC   C4B18202   2.654  43.607   7.427
 1207POPC   NC318203  25.523  33.688   9.419
 1207POPC   PO418204  24.979  33.991   9.486
 1207POPC   GL118205  25.165  33.916   9.106
 1207POPC   GL218206  25.519  34.033   9.054
 1207POPC   C1A18207  24.981  33.749   8.734
 1207POPC   D2A18208  25.060  33.506   8.363
 1207POPC   C3A18209  25.262  33.642   8.031
 1207POPC   C4A18210  25.033  33.669   7.623
 1207POPC   C1B18211  25.428  33.951   8.617
 1207POPC   C2B18212  25.096  34.078   8.331
 1207POPC   C3B18213  25.093  34.084   7.883
 1207POPC   C4B18214  25.499  33.843   7.635
 1208POPC   NC318215   7.304   5.364   9.359
 1208POPC   PO418216   7.053   4.723   9.425
 1208POPC   GL118217   7.400   4.859   9.158
 1208POPC   GL218218   7.778   4.850   9.254
 1208POPC   C1A18219   7.359   4.963   8.726
 1208POPC   D2A18220   7.312   5.255   8.374
 1208POPC   C3A18221   7.331   5.062   7.977
 1208POPC   C4A18222   7.398   5.267   7.580
 1208POPC   C1B18223   7.845   4.848   8.792
 1208POPC   C2B18224   7.683   4.871   8.345
 1208POPC   C3B18225   7.826   4.910   7.915
 1208POPC   C4B18226   7.780   4.914   7.455
 1209POPC   NC318227   1.467   0.950   9.446
 1209POPC   PO418228   1.478   1.638   9.536
 1209POPC   GL118229   1.210   1.416   9.197
 1209POPC   GL218230   1.309   1.093   8.983
 1209POPC   C1A18231   0.990   1.427   8.787
 1209POPC   D2A18232   1.082   1.191   8.480
 1209POPC   C3A18233   0.886   1.002   8.166
 1209POPC   C4A18234   1.152   1.021   7.808
 1209POPC   C1B18235   1.289   0.772   8.620
 1209POPC   C2B18236   1.411   0.778   8.213
 1209POPC   C3B18237   1.665   1.015   7.932
 1209POPC   C4B18238   1.569   1.010   7.505
 1210POPC   NC318239   7.338  20.918   9.458
 1210POPC   PO418240   7.512  20.270   9.480
 1210POPC   GL118241   7.393  20.536   9.149
 1210POPC   GL218242   7.700  20.754   9.082
 1210POPC   C1A18243   7.301  20.728   8.756
 1210POPC   D2A18244   7.422  20.477   8.394
 1210POPC   C3A18245   7.583  20.578   8.030
 1210POPC   C4A18246   7.272  20.764   7.808
 1210POPC   C1B18247   7.713  21.025   8.689
 1210POPC   C2B18248   7.798  20.955   8.287
 1210POPC   C3B18249   7.696  21.049   7.863
 1210POPC   C4B18250   7.513  21.009   7.442
 1211POPC   NC318251   4.626  22.397   9.588
 1211POPC   PO418252   4.517  21.832   9.375
 1211POPC   GL118253   4.393  22.054   9.038
 1211POPC   GL218254   4.152  22.270   9.188
 1211POPC   C1A18255   4.502  22.135   8.588
 1211POPC   D2A18256   4.493  22.503   8.294
 1211POPC   C3A18257   4.468  22.374   7.862
 1211POPC   C4A18258   4.464  21.904   7.720
 1211POPC   C1B18259   3.987  22.140   8.732
 1211POPC   C2B18260   4.094  22.144   8.261
 1211POPC   C3B18261   4.028  22.142   7.807
 1211POPC   C4B18262   4.148  22.104   7.378
 1212POPC   NC318263  33.981  15.016   9.382
 1212POPC   PO418264  33.474  15.470   9.605
 1212POPC   GL118265  33.577  15.343   9.159
 1212POPC   GL218266  33.512  14.981   9.141
 1212POPC   C1A18267  33.590  15.326   8.677
 1212POPC   D2A18268  33.799  15.263   8.258
 1212POPC   C3A18269  33.763  15.455   7.826
 1212POPC   C4A18270  34.067  15.534   7.488
 1212POPC   C1B18271  33.758  14.856   8.767
 1212POPC   C2B18272  33.589  14.798   8.353
 1212POPC   C3B18273  33.594  14.957   7.914
 1212POPC   C4B18274  33.442  14.929   7.506
 1213POPC   NC318275  35.917  42.606   9.281
 1213POPC   PO418276  36.383  43.023   9.650
 1213POPC   GL118277  36.336  43.044   9.201
 1213POPC   GL218278  36.427  42.727   9.160
 1213POPC   C1A18279  36.192  43.226   8.797
 1213POPC   D2A18280  36.047  43.043   8.402
 1213POPC   C3A18281  36.110  43.231   7.989
 1213POPC   C4A18282  36.004  42.901   7.642
 1213POPC   C1B18283  36.590  42.885   8.743
 1213POPC   C2B18284  36.580  43.070   8.349
 1213POPC   C3B18285  36.499  42.921   7.926
 1213POPC   C4B18286  36.432  43.178   7.584
 1214POPC   NC318287  37.610  22.620   9.463
 1214POPC   PO418288  38.091  23.100   9.717
 1214POPC   GL118289  37.980  23.168   9.253
 1214POPC   GL218290  37.604  23.055   9.161
 1214POPC   C1A18291  37.960  23.032   8.827
 1214POPC   D2A18292  37.965  23.125   8.433
 1214POPC   C3A18293  37.675  22.987   8.170
 1214POPC   C4A18294  37.737  23.096   7.774
 1214POPC   C1B18295  37.575  22.705   8.828
 1214POPC   C2B18296  37.429  22.562   8.449
 1214POPC   C3B18297  37.696  22.482   8.124
 1214POPC   C4B18298  37.531  22.618   7.757
 1215POPC   NC318299   6.434  32.427   9.479
 1215POPC   PO418300   6.750  31.839   9.501
 1215POPC   GL118301   6.809  32.020   9.110
 1215POPC   GL218302   6.747  32.377   9.073
 1215POPC   C1A18303   6.869  32.033   8.685
 1215POPC   D2A18304   6.523  32.078   8.357
 1215POPC   C3A18305   6.676  32.096   7.925
 1215POPC   C4A18306   7.098  31.935   7.804
 1215POPC   C1B18307   6.686  32.504   8.647
 1215POPC   C2B18308   6.950  32.373   8.293
 1215POPC   C3B18309   6.943  32.554   7.902
 1215POPC   C4B18310   6.551  32.767   7.734
 1216POPC   NC318311  19.119  35.844   9.639
 1216POPC   PO418312  19.535  36.227   9.231
 1216POPC   GL118313  19.081  36.087   9.166
 1216POPC   GL218314  18.753  36.207   9.021
 1216POPC   C1A18315  18.980  35.860   8.757
 1216POPC   D2A18316  18.988  36.061   8.335
 1216POPC   C3A18317  18.990  35.868   7.929
 1216POPC   C4A18318  19.061  36.011   7.519
 1216POPC   C1B18319  19.082  36.387   8.730
 1216POPC   C2B18320  19.148  36.574   8.294
 1216POPC   C3B18321  18.959  36.396   7.891
 1216POPC   C4B18322  18.813  36.432   7.456
 1217POPC   NC318323  37.496  27.080   9.482
 1217POPC   PO418324  37.504  26.473   9.564
 1217POPC   GL118325  37.708  26.705   9.219
 1217POPC   GL218326  38.057  26.628   9.227
 1217POPC   C1A18327  37.610  26.813   8.771
 1217POPC   D2A18328  37.792  26.779   8.363
 1217POPC   C3A18329  37.544  26.827   7.979
 1217POPC   C4A18330  37.459  26.833   7.559
 1217POPC   C1B18331  37.931  26.436   8.835
 1217POPC   C2B18332  38.053  26.342   8.421
 1217POPC   C3B18333  37.866  26.408   7.981
 1217POPC   C4B18334  37.935  26.715   7.632
 1218POPC   NC318335  36.121  42.663   9.738
 1218POPC   PO418336  35.978  42.095   9.330
 1218POPC   GL118337  36.220  42.260   9.064
 1218POPC   GL218338  36.387  42.008   8.972
 1218POPC   C1A18339  36.233  42.520   8.715
 1218POPC   D2A18340  36.339  42.605   8.310
 1218POPC   C3A18341  35.985  42.561   8.028
 1218POPC   C4A18342  35.997  42.395   7.588
 1218POPC   C1B18343  36.115  41.910   8.695
 1218POPC   C2B18344  36.042  42.171   8.394
 1218POPC   C3B18345  36.129  42.054   8.023
 1218POPC   C4B18346  36.121  41.873   7.681
 1219POPC   NC318347  21.741   3.766   9.411
 1219POPC   PO418348  21.204   3.367   9.565
 1219POPC   GL118349  21.339   3.491   9.191
 1219POPC   GL218350  21.131   3.750   9.096
 1219POPC   C1A18351  21.403   3.345   8.778
 1219POPC   D2A18352  21.637   3.385   8.433
 1219POPC   C3A18353  21.434   3.456   8.060
 1219POPC   C4A18354  21.633   3.317   7.710
 1219POPC   C1B18355  21.485   3.837   8.818
 1219POPC   C2B18356  21.379   3.836   8.430
 1219POPC   C3B18357  21.125   3.873   8.106
 1219POPC   C4B18358  21.397   3.937   7.776
 1220POPC   NC318359  36.641  43.347   9.477
 1220POPC   PO418360  37.355  43.297   9.487
 1220POPC   GL118361  37.226  43.080   9.121
 1220POPC   GL218362  36.861  43.059   9.130
 1220POPC   C1A18363  37.098  43.114   8.687
 1220POPC   D2A18364  37.045  42.833   8.392
 1220POPC   C3A18365  37.009  42.960   7.994
 1220POPC   C4A18366  36.891  42.835   7.598
 1220POPC   C1B18367  36.690  43.393   8.812
 1220POPC   C2B18368  36.829  43.596   8.425
 1220POPC   C3B18369  36.711  43.429   8.007
 1220POPC   C4B18370  36.906  43.341   7.641
 1221POPC   NC318371  41.545  10.739   9.637
 1221POPC   PO418372  41.022  10.316   9.587
 1221POPC   GL118373  41.362  10.536   9.221
 1221POPC   GL218374  41.699  10.364   9.153
 1221POPC   C1A18375  41.512  10.750   8.812
 1221POPC   D2A18376  41.467  10.486   8.410
 1221POPC   C3A18377  41.463  10.688   8.017
 1221POPC   C4A18378  41.672  11.007   7.808
 1221POPC   C1B18379  41.882  10.420   8.719
 1221POPC   C2B18380  41.909  10.722   8.346
 1221POPC   C3B18381  41.980  10.570   7.931
 1221POPC   C4B18382  41.666  10.366   7.665
 1222POPC   NC318383  19.992  36.311   9.784
 1222POPC   PO418384  19.686  36.877   9.518
 1222POPC   GL118385  19.723  36.783   9.124
 1222POPC   GL218386  19.796  37.121   9.051
 1222POPC   C1A18387  19.539  36.658   8.717
 1222POPC   D2A18388  19.676  36.781   8.304
 1222POPC   C3A18389  19.648  36.596   7.887
 1222POPC   C4A18390  19.849  36.811   7.544
 1222POPC   C1B18391  20.016  36.874   8.723
 1222POPC   C2B18392  20.158  37.028   8.328
 1222POPC   C3B18393  20.089  37.253   7.935
 1222POPC   C4B18394  20.231  37.146   7.520
 1223POPC   NC318395  10.717  38.026   9.517
 1223POPC   PO418396  10.742  37.352   9.505
 1223POPC   GL118397  10.505  37.490   9.163
 1223POPC   GL218398  10.411  37.861   9.151
 1223POPC   C1A18399  10.406  37.282   8.809
 1223POPC   D2A18400  10.316  37.429   8.408
 1223POPC   C3A18401  10.615  37.353   8.103
 1223POPC   C4A18402  10.477  37.299   7.714
 1223POPC   C1B18403  10.515  37.782   8.733
 1223POPC   C2B18404  10.648  37.824   8.309
 1223POPC   C3B18405  10.336  37.767   7.962
 1223POPC   C4B18406  10.283  38.058   7.580
 1224POPC   NC318407   2.891  27.149   9.626
 1224POPC   PO418408   2.401  26.717   9.581
 1224POPC   GL118409   2.603  26.654   9.233
 1224POPC   GL218410   2.892  26.854   9.217
 1224POPC   C1A18411   2.653  26.625   8.810
 1224POPC   D2A18412   2.964  26.756   8.542
 1224POPC   C3A18413   2.785  26.788   8.152
 1224POPC   C4A18414   2.943  26.911   7.772
 1224POPC   C1B18415   2.974  27.134   8.868
 1224POPC   C2B18416   2.701  27.210   8.519
 1224POPC   C3B18417   2.834  27.290   8.107
 1224POPC   C4B18418   3.165  27.368   7.839
 1225POPC   NC318419  20.988  31.526   9.490
 1225POPC   PO418420  20.261  31.392   9.456
 1225POPC   GL118421  20.617  31.426   9.143
 1225POPC   GL218422  20.766  31.132   8.984
 1225POPC   C1A18423  20.815  31.688   8.859
 1225POPC   D2A18424  20.870  31.761   8.428
 1225POPC   C3A18425  20.540  31.860   8.155
 1225POPC   C4A18426  20.579  31.607   7.788
 1225POPC   C1B18427  20.726  31.277   8.582
 1225POPC   C2B18428  20.397  31.560   8.552
 1225POPC   C3B18429  20.130  31.502   8.231
 1225POPC   C4B18430  20.186  31.269   7.851
 1226POPC   NC318431   0.636  42.781   9.411
 1226POPC   PO418432   0.222  42.234   9.624
 1226POPC   GL118433   0.382  42.370   9.235
 1226POPC   GL218434   0.190  42.693   9.201
 1226POPC   C1A18435   0.266  42.172   8.865
 1226POPC   D2A18436   0.300  41.957   8.503
 1226POPC   C3A18437   0.534  42.041   8.140
 1226POPC   C4A18438   0.438  42.185   7.725
 1226POPC   C1B18439   0.323  42.663   8.765
 1226POPC   C2B18440   0.382  42.484   8.375
 1226POPC   C3B18441   0.257  42.615   7.981
 1226POPC   C4B18442   0.373  42.683   7.580
 1227POPC   NC318443  28.495  12.445   9.454
 1227POPC   PO418444  28.266  11.799   9.491
 1227POPC   GL118445  28.511  12.005   9.189
 1227POPC   GL218446  28.214  12.194   9.110
 1227POPC   C1A18447  28.643  12.058   8.764
 1227POPC   D2A18448  28.475  11.795   8.438
 1227POPC   C3A18449  28.445  11.874   8.022
 1227POPC   C4A18450  28.541  12.102   7.643
 1227POPC   C1B18451  28.110  12.072   8.713
 1227POPC   C2B18452  28.342  12.302   8.404
 1227POPC   C3B18453  28.313  12.412   8.014
 1227POPC   C4B18454  28.064  12.127   7.781
 1228POPC   NC318455  39.849   1.664   9.572
 1228POPC   PO418456  40.365   2.133   9.485
 1228POPC   GL118457  40.046   1.940   9.175
 1228POPC   GL218458  40.045   1.566   9.136
 1228POPC   C1A18459  39.884   1.879   8.750
 1228POPC   D2A18460  39.977   2.111   8.376
 1228POPC   C3A18461  39.945   1.967   7.948
 1228POPC   C4A18462  39.974   1.762   7.552
 1228POPC   C1B18463  40.258   1.490   8.814
 1228POPC   C2B18464  40.261   1.675   8.428
 1228POPC   C3B18465  40.409   1.746   8.052
 1228POPC   C4B18466  40.437   1.553   7.641
 1229POPC   NC318467  11.471  15.494   9.528
 1229POPC   PO418468  11.201  14.860   9.513
 1229POPC   GL118469  11.229  15.207   9.190
 1229POPC   GL218470  11.601  15.287   9.084
 1229POPC   C1A18471  11.176  15.348   8.776
 1229POPC   D2A18472  11.484  15.134   8.492
 1229POPC   C3A18473  11.381  14.915   8.111
 1229POPC   C4A18474  11.345  15.072   7.677
 1229POPC   C1B18475  11.611  15.603   8.754
 1229POPC   C2B18476  11.408  15.617   8.364
 1229POPC   C3B18477  11.433  15.504   7.933
 1229POPC   C4B18478  11.621  15.712   7.573
 1230POPC   NC318479  13.246  33.283   9.501
 1230POPC   PO418480  13.604  32.781   9.843
 1230POPC   GL118481  13.626  32.853   9.340
 1230POPC   GL218482  13.396  33.048   9.077
 1230POPC   C1A18483  13.707  32.701   8.888
 1230POPC   D2A18484  13.897  32.815   8.483
 1230POPC   C3A18485  13.805  32.748   8.041
 1230POPC   C4A18486  13.559  32.839   7.671
 1230POPC   C1B18487  13.229  32.772   8.764
 1230POPC   C2B18488  13.383  32.924   8.367
 1230POPC   C3B18489  13.302  33.152   7.997
 1230POPC   C4B18490  13.046  32.911   7.752
 1231POPC   NC318491   8.262  16.103   9.541
 1231POPC   PO418492   7.683  15.756   9.523
 1231POPC   GL118493   8.014  15.819   9.206
 1231POPC   GL218494   7.866  16.000   8.949
 1231POPC   C1A18495   8.360  16.001   8.898
 1231POPC   D2A18496   8.183  16.267   8.587
 1231POPC   C3A18497   8.209  16.165   8.162
 1231POPC   C4A18498   7.949  16.117   7.797
 1231POPC   C1B18499   8.045  15.631   8.745
 1231POPC   C2B18500   8.311  15.699   8.424
 1231POPC   C3B18501   8.164  15.651   8.024
 1231POPC   C4B18502   8.231  15.326   7.738
 1232POPC   NC318503  35.579  36.183   9.354
 1232POPC   PO418504  35.135  36.522   9.268
 1232POPC   GL118505  35.386  36.448   8.936
 1232POPC   GL218506  35.707  36.488   8.973
 1232POPC   C1A18507  35.463  36.134   8.625
 1232POPC   D2A18508  35.161  35.916   8.335
 1232POPC   C3A18509  35.305  35.923   7.883
 1232POPC   C4A18510  35.710  35.917   7.639
 1232POPC   C1B18511  35.971  36.389   8.663
 1232POPC   C2B18512  35.906  36.333   8.241
 1232POPC   C3B18513  35.562  36.366   7.950
 1232POPC   C4B18514  35.439  36.326   7.500
 1233POPC   NC318515   8.480  17.034   9.650
 1233POPC   PO418516   7.949  16.559   9.511
 1233POPC   GL118517   8.182  16.783   9.264
 1233POPC   GL218518   8.333  16.473   9.139
 1233POPC   C1A18519   8.094  16.833   8.835
 1233POPC   D2A18520   8.214  16.765   8.424
 1233POPC   C3A18521   7.944  16.643   8.095
 1233POPC   C4A18522   8.003  16.878   7.728
 1233POPC   C1B18523   8.585  16.532   8.761
 1233POPC   C2B18524   8.731  16.753   8.387
 1233POPC   C3B18525   8.490  16.690   7.992
 1233POPC   C4B18526   8.432  16.323   7.726
 1234POPC   NC318527  31.512  15.444   9.435
 1234POPC   PO418528  31.194  14.829   9.518
 1234POPC   GL118529  31.415  14.917   9.127
 1234POPC   GL218530  31.744  15.087   9.148
 1234POPC   C1A18531  31.415  15.225   8.784
 1234POPC   D2A18532  31.623  15.271   8.391
 1234POPC   C3A18533  31.378  15.338   8.052
 1234POPC   C4A18534  31.508  15.398   7.658
 1234POPC   C1B18535  31.843  14.940   8.717
 1234POPC   C2B18536  31.869  14.799   8.276
 1234POPC   C3B18537  31.810  15.053   7.921
 1234POPC   C4B18538  31.483  14.850   7.755
 1235POPC   NC318539  14.085  28.378   9.517
 1235POPC   PO418540  13.469  28.702   9.567
 1235POPC   GL118541  13.725  28.541   9.188
 1235POPC   GL218542  13.884  28.248   9.037
 1235POPC   C1A18543  13.904  28.690   8.807
 1235POPC   D2A18544  13.812  28.469   8.468
 1235POPC   C3A18545  13.683  28.683   8.101
 1235POPC   C4A18546  13.723  28.512   7.667
 1235POPC   C1B18547  13.815  27.975   8.691
 1235POPC   C2B18548  13.921  28.007   8.280
 1235POPC   C3B18549  13.633  28.199   8.041
 1235POPC   C4B18550  13.399  28.107   7.658
 1236POPC   NC318551   9.093   4.821   9.518
 1236POPC   PO418552   9.149   4.158   9.607
 1236POPC   GL118553   8.966   4.354   9.219
 1236POPC   GL218554   8.964   4.671   9.058
 1236POPC   C1A18555   8.729   4.271   8.816
 1236POPC   D2A18556   8.802   3.981   8.457
 1236POPC   C3A18557   8.787   4.072   8.029
 1236POPC   C4A18558   8.584   4.451   7.848
 1236POPC   C1B18559   9.244   4.418   8.793
 1236POPC   C2B18560   9.431   4.376   8.395
 1236POPC   C3B18561   9.302   4.052   8.138
 1236POPC   C4B18562   9.302   4.117   7.713
 1237POPC   NC318563  33.142  23.149   9.625
 1237POPC   PO418564  32.742  22.659   9.381
 1237POPC   GL118565  32.933  23.044   9.163
 1237POPC   GL218566  33.310  23.158   9.158
 1237POPC   C1A18567  32.970  23.266   8.760
 1237POPC   D2A18568  32.847  23.407   8.369
 1237POPC   C3A18569  32.870  23.127   8.064
 1237POPC   C4A18570  33.070  23.316   7.755
 1237POPC   C1B18571  33.297  22.884   8.810
 1237POPC   C2B18572  33.221  22.840   8.398
 1237POPC   C3B18573  33.364  22.954   8.014
 1237POPC   C4B18574  33.112  22.783   7.726
 1238POPC   NC318575  33.783  32.533   9.518
 1238POPC   PO418576  34.014  31.860   9.418
 1238POPC   GL118577  33.967  32.170   9.112
 1238POPC   GL218578  33.651  32.346   9.080
 1238POPC   C1A18579  33.782  32.052   8.698
 1238POPC   D2A18580  33.630  32.237   8.345
 1238POPC   C3A18581  33.913  32.211   8.021
 1238POPC   C4A18582  33.816  31.905   7.713
 1238POPC   C1B18583  33.410  32.682   8.903
 1238POPC   C2B18584  33.447  32.686   8.481
 1238POPC   C3B18585  33.552  32.639   8.046
 1238POPC   C4B18586  33.585  32.363   7.669
 1239POPC   NC318587   0.962  28.824   9.672
 1239POPC   PO418588   1.158  28.159   9.534
 1239POPC   GL118589   1.057  28.143   9.137
 1239POPC   GL218590   1.074  28.498   9.155
 1239POPC   C1A18591   1.209  28.237   8.739
 1239POPC   D2A18592   1.032  28.298   8.376
 1239POPC   C3A18593   0.911  28.043   8.103
 1239POPC   C4A18594   0.950  28.280   7.773
 1239POPC   C1B18595   1.315  28.714   8.820
 1239POPC   C2B18596   1.337  28.704   8.389
 1239POPC   C3B18597   1.351  28.511   8.003
 1239POPC   C4B18598   1.528  28.403   7.613
 1240POPC   NC318599  15.445  30.688   9.384
 1240POPC   PO418600  14.837  30.732   9.716
 1240POPC   GL118601  14.980  30.808   9.208
 1240POPC   GL218602  14.991  30.476   9.041
 1240POPC   C1A18603  15.233  30.826   8.784
 1240POPC   D2A18604  15.356  30.575   8.408
 1240POPC   C3A18605  15.263  30.743   8.014
 1240POPC   C4A18606  15.134  30.549   7.649
 1240POPC   C1B18607  14.871  30.475   8.589
 1240POPC   C2B18608  14.936  30.357   8.138
 1240POPC   C3B18609  14.679  30.359   7.775
 1240POPC   C4B18610  14.694  30.480   7.363
 1241POPC   NC318611  20.957  29.447   9.455
 1241POPC   PO418612  21.527  29.115   9.681
 1241POPC   GL118613  21.533  29.028   9.227
 1241POPC   GL218614  21.201  29.125   9.116
 1241POPC   C1A18615  21.660  29.125   8.816
 1241POPC   D2A18616  21.577  29.286   8.397
 1241POPC   C3A18617  21.577  29.072   8.026
 1241POPC   C4A18618  21.685  29.286   7.694
 1241POPC   C1B18619  21.175  29.193   8.679
 1241POPC   C2B18620  21.050  29.159   8.237
 1241POPC   C3B18621  21.110  29.147   7.771
 1241POPC   C4B18622  20.920  29.243   7.353
 1242POPC   NC318623  11.723  41.418   9.482
 1242POPC   PO418624  12.389  41.517   9.381
 1242POPC   GL118625  12.132  41.624   9.067
 1242POPC   GL218626  11.786  41.575   9.020
 1242POPC   C1A18627  12.145  41.915   8.760
 1242POPC   D2A18628  12.184  41.756   8.336
 1242POPC   C3A18629  12.426  41.935   8.000
 1242POPC   C4A18630  12.306  41.799   7.605
 1242POPC   C1B18631  11.737  41.629   8.604
 1242POPC   C2B18632  11.813  41.401   8.280
 1242POPC   C3B18633  11.947  41.534   7.890
 1242POPC   C4B18634  12.071  41.362   7.513
 1243POPC   NC318635  29.931  15.386   9.676
 1243POPC   PO418636  29.730  16.059   9.626
 1243POPC   GL118637  29.904  16.033   9.206
 1243POPC   GL218638  30.127  15.791   9.259
 1243POPC   C1A18639  30.058  16.114   8.781
 1243POPC   D2A18640  29.875  15.861   8.448
 1243POPC   C3A18641  30.067  15.970   8.093
 1243POPC   C4A18642  30.000  16.037   7.702
 1243POPC   C1B18643  30.071  15.617   8.862
 1243POPC   C2B18644  30.312  15.636   8.516
 1243POPC   C3B18645  30.276  15.496   8.099
 1243POPC   C4B18646  30.112  15.540   7.688
 1244POPC   NC318647  34.326  33.010   9.450
 1244POPC   PO418648  34.963  33.256   9.621
 1244POPC   GL118649  34.775  33.208   9.206
 1244POPC   GL218650  34.643  32.879   9.067
 1244POPC   C1A18651  34.857  33.272   8.768
 1244POPC   D2A18652  34.778  33.051   8.375
 1244POPC   C3A18653  34.368  33.123   8.150
 1244POPC   C4A18654  34.269  33.223   7.707
 1244POPC   C1B18655  34.397  32.819   8.675
 1244POPC   C2B18656  34.470  32.622   8.268
 1244POPC   C3B18657  34.572  32.775   7.842
 1244POPC   C4B18658  34.330  32.755   7.461
 1245POPC   NC318659  14.982  28.810   9.428
 1245POPC   PO418660  15.202  28.097   9.537
 1245POPC   GL118661  15.206  28.354   9.176
 1245POPC   GL218662  14.883  28.338   9.137
 1245POPC   C1A18663  15.145  28.425   8.706
 1245POPC   D2A18664  15.176  28.244   8.303
 1245POPC   C3A18665  15.222  28.534   8.003
 1245POPC   C4A18666  15.158  28.558   7.600
 1245POPC   C1B18667  14.763  28.038   8.825
 1245POPC   C2B18668  14.663  28.109   8.416
 1245POPC   C3B18669  14.754  27.965   8.034
 1245POPC   C4B18670  15.068  28.080   7.791
 1246POPC   NC318671  19.604  34.972   9.699
 1246POPC   PO418672  19.009  34.627   9.626
 1246POPC   GL118673  19.298  34.755   9.315
 1246POPC   GL218674  19.416  34.454   9.180
 1246POPC   C1A18675  19.075  34.767   8.929
 1246POPC   D2A18676  19.114  34.675   8.513
 1246POPC   C3A18677  18.993  34.885   8.156
 1246POPC   C4A18678  18.897  34.657   7.792
 1246POPC   C1B18679  19.549  34.587   8.805
 1246POPC   C2B18680  19.513  34.395   8.422
 1246POPC   C3B18681  19.419  34.589   8.071
 1246POPC   C4B18682  19.367  34.405   7.697
 1247POPC   NC318683  26.799  40.086   9.647
 1247POPC   PO418684  27.332  39.749   9.522
 1247POPC   GL118685  26.923  39.851   9.211
 1247POPC   GL218686  26.683  40.195   9.181
 1247POPC   C1A18687  26.864  39.954   8.750
 1247POPC   D2A18688  26.960  40.248   8.387
 1247POPC   C3A18689  26.954  40.020   7.999
 1247POPC   C4A18690  27.151  40.088   7.562
 1247POPC   C1B18691  26.463  40.256   8.820
 1247POPC   C2B18692  26.462  40.330   8.410
 1247POPC   C3B18693  26.432  40.154   8.035
 1247POPC   C4B18694  26.606  40.030   7.648
 1248POPC   NC318695  38.646  44.562   9.562
 1248POPC   PO418696  38.288   0.138   9.570
 1248POPC   GL118697  38.172  44.858   9.211
 1248POPC   GL218698  38.254  44.498   9.226
 1248POPC   C1A18699  38.165  44.780   8.764
 1248POPC   D2A18700  38.356  44.910   8.394
 1248POPC   C3A18701  38.200  44.759   8.039
 1248POPC   C4A18702  38.292  44.984   7.684
 1248POPC   C1B18703  38.515  44.409   8.855
 1248POPC   C2B18704  38.699  44.533   8.459
 1248POPC   C3B18705  38.558  44.397   8.049
 1248POPC   C4B18706  38.695  44.683   7.754
 1249POPC   NC318707  28.612  31.043   9.443
 1249POPC   PO418708  28.190  31.475   9.770
 1249POPC   GL118709  28.235  31.497   9.262
 1249POPC   GL218710  28.538  31.339   9.035
 1249POPC   C1A18711  28.163  31.555   8.785
 1249POPC   D2A18712  28.368  31.711   8.393
 1249POPC   C3A18713  28.295  31.634   7.933
 1249POPC   C4A18714  28.076  31.455   7.582
 1249POPC   C1B18715  28.859  31.130   8.753
 1249POPC   C2B18716  28.769  31.018   8.307
 1249POPC   C3B18717  28.685  31.300   7.962
 1249POPC   C4B18718  28.585  31.174   7.529
 1250POPC   NC318719  39.251  23.412   9.592
 1250POPC   PO418720  39.531  23.932   9.680
 1250POPC   GL118721  39.433  23.796   9.277
 1250POPC   GL218722  39.657  23.564   9.151
 1250POPC   C1A18723  39.238  23.657   8.885
 1250POPC   D2A18724  39.237  23.381   8.525
 1250POPC   C3A18725  39.251  23.597   8.136
 1250POPC   C4A18726  39.204  23.493   7.713
 1250POPC   C1B18727  39.662  23.918   8.830
 1250POPC   C2B18728  39.413  23.960   8.471
 1250POPC   C3B18729  39.525  24.009   8.042
 1250POPC   C4B18730  39.272  23.986   7.720
 1251POPC   NC318731  31.026  37.766   9.727
 1251POPC   PO418732  30.507  37.508   9.411
 1251POPC   GL118733  30.678  37.762   9.113
 1251POPC   GL218734  31.019  37.874   9.219
 1251POPC   C1A18735  30.746  37.586   8.710
 1251POPC   D2A18736  30.562  37.589   8.344
 1251POPC   C3A18737  30.785  37.427   8.045
 1251POPC   C4A18738  30.600  37.446   7.686
 1251POPC   C1B18739  31.092  37.968   8.778
 1251POPC   C2B18740  31.062  37.791   8.341
 1251POPC   C3B18741  30.877  37.924   7.926
 1251POPC   C4B18742  31.076  37.961   7.509
 1252POPC   NC318743  30.772  24.891   9.824
 1252POPC   PO418744  30.949  24.286   9.656
 1252POPC   GL118745  30.860  24.616   9.354
 1252POPC   GL218746  31.030  24.375   9.124
 1252POPC   C1A18747  30.634  24.686   8.937
 1252POPC   D2A18748  30.543  24.419   8.533
 1252POPC   C3A18749  30.537  24.519   8.060
 1252POPC   C4A18750  30.570  24.710   7.636
 1252POPC   C1B18751  31.070  24.571   8.722
 1252POPC   C2B18752  30.991  24.510   8.278
 1252POPC   C3B18753  31.018  24.545   7.826
 1252POPC   C4B18754  30.789  24.274   7.492
 1253POPC   NC318755  28.154  21.059   9.439
 1253POPC   PO418756  27.981  20.451   9.706
 1253POPC   GL118757  27.714  20.513   9.292
 1253POPC   GL218758  27.792  20.815   9.089
 1253POPC   C1A18759  27.525  20.414   8.873
 1253POPC   D2A18760  27.709  20.327   8.461
 1253POPC   C3A18761  27.529  20.444   8.040
 1253POPC   C4A18762  27.447  20.548   7.590
 1253POPC   C1B18763  27.664  20.866   8.645
 1253POPC   C2B18764  27.386  20.863   8.295
 1253POPC   C3B18765  27.401  20.976   7.882
 1253POPC   C4B18766  27.725  21.012   7.574
 1254POPC   NC318767  31.716   3.238   9.520
 1254POPC   PO418768  31.261   3.752   9.497
 1254POPC   GL118769  31.355   3.505   9.135
 1254POPC   GL218770  31.079   3.310   8.990
 1254POPC   C1A18771  31.699   3.499   8.869
 1254POPC   D2A18772  31.827   3.435   8.432
 1254POPC   C3A18773  31.706   3.685   8.078
 1254POPC   C4A18774  31.581   3.378   7.762
 1254POPC   C1B18775  31.267   3.394   8.611
 1254POPC   C2B18776  31.265   3.403   8.176
 1254POPC   C3B18777  31.090   3.294   7.766
 1254POPC   C4B18778  31.245   3.534   7.385
 1255POPC   NC318779  11.632   9.466   9.628
 1255POPC   PO418780  11.058   9.767   9.434
 1255POPC   GL118781  11.422   9.654   9.155
 1255POPC   GL218782  11.150   9.707   8.938
 1255POPC   C1A18783  11.632   9.841   8.785
 1255POPC   D2A18784  11.441   9.866   8.417
 1255POPC   C3A18785  11.491   9.767   7.995
 1255POPC   C4A18786  11.574  10.057   7.682
 1255POPC   C1B18787  11.158   9.462   8.605
 1255POPC   C2B18788  11.013   9.675   8.295
 1255POPC   C3B18789  10.963   9.713   7.923
 1255POPC   C4B18790  10.984   9.431   7.639
 1256POPC   NC318791  43.676   5.116   9.814
 1256POPC   PO418792  43.010   5.093   9.673
 1256POPC   GL118793  42.978   5.171   9.213
 1256POPC   GL218794  43.028   5.515   9.076
 1256POPC   C1A18795  42.915   5.098   8.765
 1256POPC   D2A18796  42.716   5.095   8.340
 1256POPC   C3A18797  42.988   4.990   8.027
 1256POPC   C4A18798  43.101   5.163   7.656
 1256POPC   C1B18799  43.348   5.401   8.778
 1256POPC   C2B18800  43.459   5.469   8.366
 1256POPC   C3B18801  43.453   5.254   7.998
 1256POPC   C4B18802  43.646   5.331   7.580
 1257POPC   NC318803  23.400  20.267   9.763
 1257POPC   PO418804  22.826  20.340   9.368
 1257POPC   GL118805  22.936  20.697   9.109
 1257POPC   GL218806  23.286  20.749   9.124
 1257POPC   C1A18807  22.780  20.801   8.679
 1257POPC   D2A18808  22.954  20.768   8.258
 1257POPC   C3A18809  22.664  20.672   7.930
 1257POPC   C4A18810  22.643  20.564   7.496
 1257POPC   C1B18811  23.205  20.504   8.717
 1257POPC   C2B18812  23.257  20.347   8.306
 1257POPC   C3B18813  23.158  20.458   7.889
 1257POPC   C4B18814  23.247  20.865   7.717
 1258POPC   NC318815   3.138  31.951   9.343
 1258POPC   PO418816   2.649  32.348   9.606
 1258POPC   GL118817   2.788  32.300   9.162
 1258POPC   GL218818   3.102  32.257   8.928
 1258POPC   C1A18819   2.628  32.186   8.765
 1258POPC   D2A18820   2.501  32.213   8.357
 1258POPC   C3A18821   2.836  32.227   8.058
 1258POPC   C4A18822   2.613  32.171   7.683
 1258POPC   C1B18823   2.993  31.851   8.749
 1258POPC   C2B18824   2.825  31.809   8.412
 1258POPC   C3B18825   3.010  31.744   8.053
 1258POPC   C4B18826   3.153  31.885   7.699
 1259POPC   NC318827  11.657  27.755   9.435
 1259POPC   PO418828  11.004  27.881   9.575
 1259POPC   GL118829  11.242  27.845   9.154
 1259POPC   GL218830  11.355  27.519   9.071
 1259POPC   C1A18831  11.198  27.805   8.689
 1259POPC   D2A18832  11.438  27.657   8.347
 1259POPC   C3A18833  11.263  27.740   7.994
 1259POPC   C4A18834  11.429  27.637   7.624
 1259POPC   C1B18835  11.441  27.212   8.742
 1259POPC   C2B18836  11.524  27.026   8.319
 1259POPC   C3B18837  11.357  27.245   7.972
 1259POPC   C4B18838  11.169  27.197   7.562
 1260POPC   NC318839  23.098  26.001   9.596
 1260POPC   PO418840  22.554  25.729   9.411
 1260POPC   GL118841  22.792  26.033   9.174
 1260POPC   GL218842  23.178  26.082   9.096
 1260POPC   C1A18843  22.781  26.166   8.748
 1260POPC   D2A18844  22.984  26.142   8.339
 1260POPC   C3A18845  22.779  25.970   7.958
 1260POPC   C4A18846  22.758  25.980   7.506
 1260POPC   C1B18847  23.237  26.401   8.745
 1260POPC   C2B18848  23.277  26.562   8.296
 1260POPC   C3B18849  23.202  26.290   7.893
 1260POPC   C4B18850  23.132  26.356   7.410
 1261POPC   NC318851  33.403  39.019   9.550
 1261POPC   PO418852  34.010  39.316   9.640
 1261POPC   GL118853  33.996  39.285   9.195
 1261POPC   GL218854  33.682  39.433   9.228
 1261POPC   C1A18855  34.058  39.402   8.782
 1261POPC   D2A18856  33.766  39.343   8.469
 1261POPC   C3A18857  33.897  39.203   8.091
 1261POPC   C4A18858  33.912  39.039   7.672
 1261POPC   C1B18859  33.479  39.578   8.858
 1261POPC   C2B18860  33.262  39.475   8.477
 1261POPC   C3B18861  33.445  39.544   8.071
 1261POPC   C4B18862  33.689  39.507   7.711
 1262POPC   NC318863  44.416  29.645   9.550
 1262POPC   PO418864  44.593  28.963   9.569
 1262POPC   GL118865  44.632  29.083   9.163
 1262POPC   GL218866  44.391  29.331   9.153
 1262POPC   C1A18867  44.839  28.982   8.779
 1262POPC   D2A18868  44.920  29.115   8.379
 1262POPC   C3A18869  44.748  29.002   7.976
 1262POPC   C4A18870  44.851  29.106   7.576
 1262POPC   C1B18871  44.520  29.400   8.712
 1262POPC   C2B18872  44.415  29.310   8.240
 1262POPC   C3B18873  44.461  29.408   7.770
 1262POPC   C4B18874  44.397  29.537   7.291
 1263POPC   NC318875  35.365  29.406   9.365
 1263POPC   PO418876  35.074  28.850   9.602
 1263POPC   GL118877  35.207  28.943   9.176
 1263POPC   GL218878  34.892  28.777   9.106
 1263POPC   C1A18879  35.426  29.143   8.774
 1263POPC   D2A18880  35.550  29.211   8.344
 1263POPC   C3A18881  35.339  29.359   7.988
 1263POPC   C4A18882  35.589  29.281   7.647
 1263POPC   C1B18883  34.807  28.945   8.747
 1263POPC   C2B18884  35.018  29.125   8.427
 1263POPC   C3B18885  35.060  28.919   8.069
 1263POPC   C4B18886  35.200  28.964   7.693
 1264POPC   NC318887  32.657  38.447   9.427
 1264POPC   PO418888  33.226  38.163   9.201
 1264POPC   GL118889  32.997  38.484   9.070
 1264POPC   GL218890  33.276  38.671   9.112
 1264POPC   C1A18891  32.796  38.380   8.672
 1264POPC   D2A18892  33.028  38.184   8.321
 1264POPC   C3A18893  32.810  38.324   7.963
 1264POPC   C4A18894  32.748  38.237   7.563
 1264POPC   C1B18895  33.266  38.557   8.655
 1264POPC   C2B18896  33.095  38.667   8.224
 1264POPC   C3B18897  33.002  38.800   7.792
 1264POPC   C4B18898  33.046  38.964   7.345
 1265POPC   NC318899  19.739  29.446   9.455
 1265POPC   PO418900  19.716  28.813   9.468
 1265POPC   GL118901  19.912  29.035   9.141
 1265POPC   GL218902  20.161  29.321   9.197
 1265POPC   C1A18903  19.720  29.058   8.762
 1265POPC   D2A18904  19.645  28.798   8.410
 1265POPC   C3A18905  19.557  29.090   8.114
 1265POPC   C4A18906  19.688  29.090   7.724
 1265POPC   C1B18907  20.176  29.237   8.734
 1265POPC   C2B18908  19.950  29.300   8.375
 1265POPC   C3B18909  20.076  29.318   7.989
 1265POPC   C4B18910  19.979  29.494   7.594
 1266POPC   NC318911  35.212  37.527   9.539
 1266POPC   PO418912  35.489  38.190   9.573
 1266POPC   GL118913  35.484  37.835   9.224
 1266POPC   GL218914  35.144  37.770   9.098
 1266POPC   C1A18915  35.544  37.871   8.775
 1266POPC   D2A18916  35.288  37.790   8.383
 1266POPC   C3A18917  35.571  37.705   8.044
 1266POPC   C4A18918  35.642  37.902   7.669
 1266POPC   C1B18919  34.858  37.636   8.765
 1266POPC   C2B18920  34.831  37.528   8.316
 1266POPC   C3B18921  35.076  37.600   7.901
 1266POPC   C4B18922  35.065  37.616   7.435
 1267POPC   NC318923   0.068  17.291   9.549
 1267POPC   PO418924  44.580  17.687   9.647
 1267POPC   GL118925  44.655  17.447   9.255
 1267POPC   GL218926  44.947  17.496   9.111
 1267POPC   C1A18927  44.574  17.702   8.838
 1267POPC   D2A18928  44.485  17.799   8.428
 1267POPC   C3A18929  44.434  17.537   8.084
 1267POPC   C4A18930  44.170  17.725   7.785
 1267POPC   C1B18931  44.855  17.275   8.747
 1267POPC   C2B18932  44.873  17.414   8.355
 1267POPC   C3B18933   0.029  17.260   7.994
 1267POPC   C4B18934  44.739  17.339   7.711
 1268POPC   NC318935   9.329  31.805   9.421
 1268POPC   PO418936   9.442  31.165   9.574
 1268POPC   GL118937   9.291  31.256   9.137
 1268POPC   GL218938   9.192  31.552   8.967
 1268POPC   C1A18939   9.123  31.094   8.778
 1268POPC   D2A18940   9.192  31.422   8.456
 1268POPC   C3A18941   9.098  31.403   8.021
 1268POPC   C4A18942   9.178  31.305   7.583
 1268POPC   C1B18943   8.764  31.450   8.729
 1268POPC   C2B18944   8.483  31.695   8.469
 1268POPC   C3B18945   8.572  31.534   8.058
 1268POPC   C4B18946   8.746  31.599   7.673
 1269POPC   NC318947  27.817  37.381   9.563
 1269POPC   PO418948  27.321  37.943   9.502
 1269POPC   GL118949  27.550  37.701   9.198
 1269POPC   GL218950  27.452  37.346   9.156
 1269POPC   C1A18951  27.385  37.766   8.776
 1269POPC   D2A18952  27.212  38.039   8.449
 1269POPC   C3A18953  27.355  37.888   8.053
 1269POPC   C4A18954  27.672  38.036   7.784
 1269POPC   C1B18955  27.530  37.269   8.722
 1269POPC   C2B18956  27.604  37.514   8.352
 1269POPC   C3B18957  27.715  37.520   7.920
 1269POPC   C4B18958  27.508  37.486   7.545
 1270POPC   NC318959  10.459  35.380   9.649
 1270POPC   PO418960  11.044  35.168   9.682
 1270POPC   GL118961  10.658  35.161   9.255
 1270POPC   GL218962  10.291  35.183   9.203
 1270POPC   C1A18963  10.621  35.373   8.822
 1270POPC   D2A18964  10.820  35.418   8.407
 1270POPC   C3A18965  10.799  35.108   8.085
 1270POPC   C4A18966  10.715  35.295   7.676
 1270POPC   C1B18967  10.125  35.265   8.790
 1270POPC   C2B18968  10.354  35.176   8.413
 1270POPC   C3B18969  10.353  35.350   8.053
 1270POPC   C4B18970  10.237  35.158   7.715
 1271POPC   NC318971  12.235  11.138   9.479
 1271POPC   PO418972  12.307  11.828   9.415
 1271POPC   GL118973  12.176  11.505   9.118
 1271POPC   GL218974  12.273  11.124   8.981
 1271POPC   C1A18975  12.024  11.457   8.716
 1271POPC   D2A18976  12.236  11.200   8.420
 1271POPC   C3A18977  12.210  11.245   7.993
 1271POPC   C4A18978  12.312  11.543   7.696
 1271POPC   C1B18979  12.138  10.778   8.675
 1271POPC   C2B18980  11.811  10.748   8.349
 1271POPC   C3B18981  11.792  10.943   7.945
 1271POPC   C4B18982  11.752  11.394   7.802
 1272POPC   NC318983  30.179   7.495   9.419
 1272POPC   PO418984  30.890   7.580   9.469
 1272POPC   GL118985  30.832   7.442   9.063
 1272POPC   GL218986  30.524   7.566   9.083
 1272POPC   C1A18987  30.611   7.208   8.726
 1272POPC   D2A18988  30.633   6.897   8.415
 1272POPC   C3A18989  30.691   7.155   8.045
 1272POPC   C4A18990  30.755   7.611   8.017
 1272POPC   C1B18991  30.242   7.557   8.742
 1272POPC   C2B18992  30.350   7.514   8.334
 1272POPC   C3B18993  30.209   7.667   7.952
 1272POPC   C4B18994  30.451   7.539   7.605
 1273POPC   NC318995  17.440  35.699   9.486
 1273POPC   PO418996  17.730  35.215   9.401
 1273POPC   GL118997  17.561  35.448   9.041
 1273POPC   GL218998  17.186  35.497   9.110
 1273POPC   C1A18999  17.690  35.669   8.626
 1273POPC   D2A19000  17.478  35.810   8.205
 1273POPC   C3A19001  17.424  35.478   7.882
 1273POPC   C4A19002  17.660  35.083   7.925
 1273POPC   C1B19003  17.197  35.574   8.674
 1273POPC   C2B19004  17.363  35.285   8.357
 1273POPC   C3B19005  17.147  35.062   8.005
 1273POPC   C4B19006  16.920  35.288   7.676
 1274POPC   NC319007  31.095  36.602   9.607
 1274POPC   PO419008  31.736  36.723   9.565
 1274POPC   GL119009  31.478  36.917   9.219
 1274POPC   GL219010  31.104  36.869   9.163
 1274POPC   C1A19011  31.435  36.759   8.790
 1274POPC   D2A19012  31.577  36.508   8.456
 1274POPC   C3A19013  31.517  36.783   8.159
 1274POPC   C4A19014  31.655  36.865   7.756
 1274POPC   C1B19015  30.935  36.943   8.750
 1274POPC   C2B19016  31.106  37.210   8.412
 1274POPC   C3B19017  31.225  37.179   7.970
 1274POPC   C4B19018  31.129  37.466   7.616
 1275POPC   NC319019  27.446  27.855   9.441
 1275POPC   PO419020  27.812  27.250   9.556
 1275POPC   GL119021  27.544  27.404   9.206
 1275POPC   GL219022  27.811  27.649   9.162
 1275POPC   C1A19023  27.320  27.579   8.806
 1275POPC   D2A19024  27.345  27.490   8.336
 1275POPC   C3A19025  27.177  27.585   7.908
 1275POPC   C4A19026  27.281  27.444   7.434
 1275POPC   C1B19027  27.760  27.856   8.783
 1275POPC   C2B19028  27.817  27.723   8.369
 1275POPC   C3B19029  27.711  27.614   7.977
 1275POPC   C4B19030  27.840  27.543   7.586
 1276POPC   NC319031   0.689  25.920   9.499
 1276POPC   PO419032   0.055  26.141   9.495
 1276POPC   GL119033   0.310  26.233   9.125
 1276POPC   GL219034   0.659  26.330   9.145
 1276POPC   C1A19035   0.234  26.157   8.676
 1276POPC   D2A19036  44.970  25.984   8.361
 1276POPC   C3A19037   0.279  25.984   8.053
 1276POPC   C4A19038   0.435  26.211   7.720
 1276POPC   C1B19039   0.671  25.975   8.851
 1276POPC   C2B19040   0.703  26.005   8.417
 1276POPC   C3B19041   0.824  26.008   8.006
 1276POPC   C4B19042   0.686  25.764   7.676
 1277POPC   NC319043   3.001   7.904   9.445
 1277POPC   PO419044   2.547   8.229   9.750
 1277POPC   GL119045   2.614   8.201   9.228
 1277POPC   GL219046   2.798   7.931   9.000
 1277POPC   C1A19047   2.720   8.382   8.810
 1277POPC   D2A19048   3.017   8.316   8.476
 1277POPC   C3A19049   2.857   8.360   8.072
 1277POPC   C4A19050   2.704   8.265   7.684
 1277POPC   C1B19051   2.890   7.830   8.598
 1277POPC   C2B19052   3.046   7.842   8.182
 1277POPC   C3B19053   2.821   7.771   7.789
 1277POPC   C4B19054   2.485   7.822   7.468
 1278POPC   NC319055   2.872  35.483   9.521
 1278POPC   PO419056   2.239  35.673   9.649
 1278POPC   GL119057   2.520  35.450   9.189
 1278POPC   GL219058   2.587  35.078   9.159
 1278POPC   C1A19059   2.513  35.369   8.710
 1278POPC   D2A19060   2.754  35.559   8.337
 1278POPC   C3A19061   2.993  35.499   7.940
 1278POPC   C4A19062   3.296  35.717   7.737
 1278POPC   C1B19063   2.817  34.964   8.773
 1278POPC   C2B19064   2.704  35.020   8.338
 1278POPC   C3B19065   2.565  35.236   7.949
 1278POPC   C4B19066   2.527  35.304   7.469
 1279POPC   NC319067  39.576  31.764   9.461
 1279POPC   PO419068  40.205  31.362   9.477
 1279POPC   GL119069  40.199  31.593   9.142
 1279POPC   GL219070  39.869  31.544   9.112
 1279POPC   C1A19071  40.142  31.461   8.671
 1279POPC   D2A19072  40.093  31.256   8.269
 1279POPC   C3A19073  40.165  31.604   8.008
 1279POPC   C4A19074  39.944  31.755   7.648
 1279POPC   C1B19075  39.702  31.712   8.743
 1279POPC   C2B19076  39.696  31.585   8.292
 1279POPC   C3B19077  39.734  31.362   7.888
 1279POPC   C4B19078  40.113  31.150   7.702
 1280POPC   NC319079  19.303  37.566   9.419
 1280POPC   PO419080  18.990  37.036   9.451
 1280POPC   GL119081  18.795  37.241   9.084
 1280POPC   GL219082  18.839  37.609   9.116
 1280POPC   C1A19083  18.949  37.340   8.650
 1280POPC   D2A19084  19.236  37.589   8.379
 1280POPC   C3A19085  19.129  37.580   7.979
 1280POPC   C4A19086  19.253  37.474   7.561
 1280POPC   C1B19087  19.153  37.775   8.834
 1280POPC   C2B19088  19.359  38.045   8.546
 1280POPC   C3B19089  19.363  38.063   8.132
 1280POPC   C4B19090  19.297  38.011   7.731
 1281POPC   NC319091   0.747  40.024   9.454
 1281POPC   PO419092   0.077  40.260   9.545
 1281POPC   GL119093   0.296  39.979   9.157
 1281POPC   GL219094   0.633  39.944   8.987
 1281POPC   C1A19095   0.328  39.753   8.676
 1281POPC   D2A19096   0.448  39.967   8.272
 1281POPC   C3A19097   0.433  39.715   7.912
 1281POPC   C4A19098   0.255  39.726   7.483
 1281POPC   C1B19099   0.351  40.246   8.732
 1281POPC   C2B19100   0.266  40.494   8.387
 1281POPC   C3B19101   0.272  40.428   7.981
 1281POPC   C4B19102   0.576  40.186   7.772
 1282POPC   NC319103  34.326  20.369   9.338
 1282POPC   PO419104  34.680  20.623   9.806
 1282POPC   GL119105  34.717  20.738   9.318
 1282POPC   GL219106  34.407  20.770   9.033
 1282POPC   C1A19107  34.871  20.607   8.896
 1282POPC   D2A19108  34.628  20.429   8.535
 1282POPC   C3A19109  34.642  20.584   8.121
 1282POPC   C4A19110  34.955  20.748   7.830
 1282POPC   C1B19111  34.180  20.395   8.751
 1282POPC   C2B19112  34.157  20.227   8.346
 1282POPC   C3B19113  34.187  20.385   7.930
 1282POPC   C4B19114  34.285  20.807   7.827
 1283POPC   NC319115  40.933  32.926   9.456
 1283POPC   PO419116  40.529  33.446   9.470
 1283POPC   GL119117  40.726  33.291   9.118
 1283POPC   GL219118  40.570  32.944   9.106
 1283POPC   C1A19119  40.960  33.095   8.777
 1283POPC   D2A19120  40.833  32.923   8.380
 1283POPC   C3A19121  40.742  33.217   8.094
 1283POPC   C4A19122  40.844  33.204   7.685
 1283POPC   C1B19123  40.430  33.021   8.702
 1283POPC   C2B19124  40.356  32.790   8.331
 1283POPC   C3B19125  40.481  32.843   7.886
 1283POPC   C4B19126  40.479  32.984   7.435
 1284POPC   NC319127   2.052  30.278   9.491
 1284POPC   PO419128   1.727  30.868   9.505
 1284POPC   GL119129   2.044  30.867   9.164
 1284POPC   GL219130   2.092  30.526   9.045
 1284POPC   C1A19131   1.950  30.916   8.715
 1284POPC   D2A19132   1.762  30.924   8.289
 1284POPC   C3A19133   1.936  31.009   7.881
 1284POPC   C4A19134   1.876  30.937   7.418
 1284POPC   C1B19135   2.123  30.235   8.705
 1284POPC   C2B19136   2.048  30.166   8.327
 1284POPC   C3B19137   2.045  30.539   8.113
 1284POPC   C4B19138   1.778  30.554   7.743
 1285POPC   NC319139   2.581  17.126   9.373
 1285POPC   PO419140   2.810  17.771   9.444
 1285POPC   GL119141   2.777  17.562   9.053
 1285POPC   GL219142   2.955  17.286   9.069
 1285POPC   C1A19143   2.670  17.446   8.601
 1285POPC   D2A19144   2.581  17.485   8.117
 1285POPC   C3A19145   2.796  17.541   7.750
 1285POPC   C4A19146   3.075  17.832   7.608
 1285POPC   C1B19147   3.017  17.050   8.699
 1285POPC   C2B19148   2.846  17.085   8.288
 1285POPC   C3B19149   2.953  16.904   7.921
 1285POPC   C4B19150   3.082  16.903   7.489
 1286POPC   NC319151  36.438  12.461   9.456
 1286POPC   PO419152  36.041  11.912   9.390
 1286POPC   GL119153  36.179  12.192   9.086
 1286POPC   GL219154  35.866  12.351   9.038
 1286POPC   C1A19155  36.353  12.174   8.664
 1286POPC   D2A19156  36.545  12.201   8.240
 1286POPC   C3A19157  36.476  11.875   7.953
 1286POPC   C4A19158  36.075  11.976   7.775
 1286POPC   C1B19159  35.825  12.008   8.725
 1286POPC   C2B19160  35.764  11.914   8.277
 1286POPC   C3B19161  35.629  11.742   7.893
 1286POPC   C4B19162  35.752  11.692   7.447
 1287POPC   NC319163  37.154  10.253   9.347
 1287POPC   PO419164  37.607  10.705   9.685
 1287POPC   GL119165  37.620  10.644   9.252
 1287POPC   GL219166  37.268  10.744   9.261
 1287POPC   C1A19167  37.880  10.586   8.849
 1287POPC   D2A19168  38.069  10.520   8.373
 1287POPC   C3A19169  37.789  10.423   7.975
 1287POPC   C4A19170  37.947  10.203   7.579
 1287POPC   C1B19171  37.361  10.805   8.818
 1287POPC   C2B19172  37.281  10.897   8.354
 1287POPC   C3B19173  37.328  10.756   7.944
 1287POPC   C4B19174  37.321  10.530   7.562
 1288POPC   NC319175  16.710  17.231   9.574
 1288POPC   PO419176  16.778  16.566   9.555
 1288POPC   GL119177  16.768  16.463   9.121
 1288POPC   GL219178  16.509  16.684   9.069
 1288POPC   C1A19179  16.960  16.462   8.684
 1288POPC   D2A19180  17.186  16.682   8.318
 1288POPC   C3A19181  16.936  16.871   7.949
 1288POPC   C4A19182  17.042  17.126   7.608
 1288POPC   C1B19183  16.572  16.796   8.625
 1288POPC   C2B19184  16.636  16.598   8.243
 1288POPC   C3B19185  16.373  16.654   7.878
 1288POPC   C4B19186  16.191  16.598   7.442
 1289POPC   NC319187   3.154  15.644   9.424
 1289POPC   PO419188   3.417  16.293   9.555
 1289POPC   GL119189   3.545  16.236   9.142
 1289POPC   GL219190   3.535  15.875   9.139
 1289POPC   C1A19191   3.434  16.140   8.708
 1289POPC   D2A19192   3.379  16.284   8.293
 1289POPC   C3A19193   3.530  16.109   7.904
 1289POPC   C4A19194   3.478  16.054   7.445
 1289POPC   C1B19195   3.516  15.636   8.758
 1289POPC   C2B19196   3.519  15.784   8.339
 1289POPC   C3B19197   3.788  15.682   8.003
 1289POPC   C4B19198   3.624  15.571   7.623
 1290POPC   NC319199  35.663  18.887   9.499
 1290POPC   PO419200  35.034  19.223   9.443
 1290POPC   GL119201  35.012  18.971   9.123
 1290POPC   GL219202  35.195  18.694   9.233
 1290POPC   C1A19203  34.994  19.066   8.751
 1290POPC   D2A19204  35.163  19.261   8.429
 1290POPC   C3A19205  35.057  19.175   8.011
 1290POPC   C4A19206  35.328  19.463   7.802
 1290POPC   C1B19207  35.439  18.890   8.891
 1290POPC   C2B19208  35.413  18.815   8.486
 1290POPC   C3B19209  35.512  18.987   8.133
 1290POPC   C4B19210  35.467  18.914   7.725
 1291POPC   NC319211  10.470  12.400   9.724
 1291POPC   PO419212  10.861  12.666   9.245
 1291POPC   GL119213  10.531  12.943   9.064
 1291POPC   GL219214  10.224  12.978   9.226
 1291POPC   C1A19215  10.529  13.113   8.653
 1291POPC   D2A19216  10.690  12.881   8.345
 1291POPC   C3A19217  10.835  13.088   8.011
 1291POPC   C4A19218  10.802  12.886   7.634
 1291POPC   C1B19219  10.076  12.947   8.799
 1291POPC   C2B19220  10.192  12.773   8.389
 1291POPC   C3B19221  10.331  12.864   7.974
 1291POPC   C4B19222  10.150  12.928   7.520
 1292POPC   NC319223  18.788  29.755   9.465
 1292POPC   PO419224  19.071  30.361   9.572
 1292POPC   GL119225  19.013  30.197   9.175
 1292POPC   GL219226  19.095  29.833   9.066
 1292POPC   C1A19227  19.108  30.237   8.737
 1292POPC   D2A19228  19.056  29.868   8.465
 1292POPC   C3A19229  19.240  29.878   8.057
 1292POPC   C4A19230  19.121  30.211   7.773
 1292POPC   C1B19231  19.087  29.461   8.782
 1292POPC   C2B19232  19.081  29.356   8.342
 1292POPC   C3B19233  18.868  29.499   7.983
 1292POPC   C4B19234  18.940  29.747   7.632
 1293POPC   NC319235  23.139  24.425   9.625
 1293POPC   PO419236  22.601  24.734   9.508
 1293POPC   GL119237  22.878  24.659   9.188
 1293POPC   GL219238  23.224  24.799   9.244
 1293POPC   C1A19239  22.792  24.514   8.771
 1293POPC   D2A19240  22.717  24.745   8.393
 1293POPC   C3A19241  22.740  24.425   8.099
 1293POPC   C4A19242  22.905  24.247   7.723
 1293POPC   C1B19243  23.257  24.716   8.795
 1293POPC   C2B19244  23.190  24.478   8.423
 1293POPC   C3B19245  23.206  24.584   7.991
 1293POPC   C4B19246  23.287  24.515   7.577
 1294POPC   NC319247  32.034  29.274   9.512
 1294POPC   PO419248  32.587  28.908   9.483
 1294POPC   GL119249  32.414  29.228   9.146
 1294POPC   GL219250  32.099  29.407   9.020
 1294POPC   C1A19251  32.530  29.286   8.728
 1294POPC   D2A19252  32.413  29.082   8.344
 1294POPC   C3A19253  32.235  29.293   8.039
 1294POPC   C4A19254  32.248  29.209   7.642
 1294POPC   C1B19255  32.079  29.046   8.736
 1294POPC   C2B19256  31.879  29.053   8.309
 1294POPC   C3B19257  31.918  28.892   7.868
 1294POPC   C4B19258  31.901  28.929   7.412
 1295POPC   NC319259  20.689  22.434   9.292
 1295POPC   PO419260  20.494  21.871   9.559
 1295POPC   GL119261  20.674  21.942   9.167
 1295POPC   GL219262  20.336  21.894   9.042
 1295POPC   C1A19263  20.754  22.084   8.729
 1295POPC   D2A19264  20.760  22.434   8.421
 1295POPC   C3A19265  20.595  22.380   8.000
 1295POPC   C4A19266  20.361  22.461   7.625
 1295POPC   C1B19267  20.192  22.253   8.799
 1295POPC   C2B19268  20.241  22.291   8.372
 1295POPC   C3B19269  20.036  22.172   8.005
 1295POPC   C4B19270  20.171  21.925   7.689
 1296POPC   NC319271   8.604  29.434   9.399
 1296POPC   PO419272   8.446  30.068   9.445
 1296POPC   GL119273   8.217  29.931   9.083
 1296POPC   GL219274   8.159  29.599   9.143
 1296POPC   C1A19275   8.042  29.820   8.685
 1296POPC   D2A19276   7.872  30.002   8.321
 1296POPC   C3A19277   8.085  30.017   8.004
 1296POPC   C4A19278   8.143  29.712   7.728
 1296POPC   C1B19279   8.458  29.537   8.779
 1296POPC   C2B19280   8.360  29.525   8.359
 1296POPC   C3B19281   8.414  29.357   7.964
 1296POPC   C4B19282   8.608  29.525   7.574
 1297POPC   NC319283  36.733  23.460   9.597
 1297POPC   PO419284  37.266  22.954   9.547
 1297POPC   GL119285  37.163  23.365   9.216
 1297POPC   GL219286  36.845  23.607   9.140
 1297POPC   C1A19287  37.211  23.698   8.827
 1297POPC   D2A19288  37.055  24.009   8.473
 1297POPC   C3A19289  37.002  23.850   8.046
 1297POPC   C4A19290  36.807  23.987   7.653
 1297POPC   C1B19291  36.834  23.359   8.758
 1297POPC   C2B19292  36.756  23.208   8.351
 1297POPC   C3B19293  36.826  23.329   7.924
 1297POPC   C4B19294  36.424  23.289   7.693
 1298POPC   NC319295  22.376  41.139   9.557
 1298POPC   PO419296  21.936  40.540   9.652
 1298POPC   GL119297  22.122  40.706   9.285
 1298POPC   GL219298  21.966  40.484   9.107
 1298POPC   C1A19299  22.091  40.901   8.845
 1298POPC   D2A19300  22.330  40.922   8.466
 1298POPC   C3A19301  22.111  40.731   8.147
 1298POPC   C4A19302  22.012  40.953   7.768
 1298POPC   C1B19303  22.368  40.476   8.897
 1298POPC   C2B19304  22.415  40.403   8.472
 1298POPC   C3B19305  22.635  40.586   8.159
 1298POPC   C4B19306  22.435  40.635   7.774
 1299POPC   NC319307  13.196  26.136   9.464
 1299POPC   PO419308  13.592  25.612   9.731
 1299POPC   GL119309  13.728  25.964   9.448
 1299POPC   GL219310  13.531  25.810   9.213
 1299POPC   C1A19311  13.747  26.252   9.072
 1299POPC   D2A19312  13.642  26.148   8.650
 1299POPC   C3A19313  13.840  26.150   8.237
 1299POPC   C4A19314  13.582  26.098   7.817
 1299POPC   C1B19315  13.445  25.689   8.802
 1299POPC   C2B19316  13.299  25.817   8.421
 1299POPC   C3B19317  13.157  25.899   8.038
 1299POPC   C4B19318  13.317  25.691   7.690
 1300POPC   NC319319  35.181  24.303   9.618
 1300POPC   PO419320  35.229  24.840   9.367
 1300POPC   GL119321  34.998  24.564   9.179
 1300POPC   GL219322  35.316  24.389   9.079
 1300POPC   C1A19323  34.921  24.540   8.765
 1300POPC   D2A19324  35.207  24.311   8.543
 1300POPC   C3A19325  35.176  24.354   8.137
 1300POPC   C4A19326  35.213  24.645   7.824
 1300POPC   C1B19327  35.656  24.421   8.753
 1300POPC   C2B19328  35.740  24.265   8.332
 1300POPC   C3B19329  35.615  24.289   7.890
 1300POPC   C4B19330  35.263  24.130   7.672
 1301POPC   NC319331  25.442  17.556   9.435
 1301POPC   PO419332  24.792  17.782   9.288
 1301POPC   GL119333  25.047  17.504   9.015
 1301POPC   GL219334  24.828  17.174   8.940
 1301POPC   C1A19335  25.387  17.403   8.726
 1301POPC   D2A19336  25.628  17.115   8.451
 1301POPC   C3A19337  25.647  17.365   8.100
 1301POPC   C4A19338  25.410  17.585   7.828
 1301POPC   C1B19339  24.854  17.394   8.568
 1301POPC   C2B19340  25.158  17.359   8.230
 1301POPC   C3B19341  25.157  17.165   7.811
 1301POPC   C4B19342  24.936  17.256   7.397
 1302POPC   NC319343  39.932   2.272   9.546
 1302POPC   PO419344  39.578   2.754   9.506
 1302POPC   GL119345  39.909   2.740   9.192
 1302POPC   GL219346  40.198   2.514   9.191
 1302POPC   C1A19347  40.117   2.891   8.817
 1302POPC   D2A19348  40.167   3.175   8.480
 1302POPC   C3A19349  39.974   3.019   8.118
 1302POPC   C4A19350  40.135   3.049   7.700
 1302POPC   C1B19351  39.999   2.380   8.824
 1302POPC   C2B19352  39.796   2.587   8.474
 1302POPC   C3B19353  39.913   2.501   8.051
 1302POPC   C4B19354  39.857   2.645   7.666
 1303POPC   NC319355  41.523  38.293   9.602
 1303POPC   PO419356  41.244  38.965   9.506
 1303POPC   GL119357  41.458  38.630   9.181
 1303POPC   GL219358  41.368  38.248   9.134
 1303POPC   C1A19359  41.517  38.514   8.723
 1303POPC   D2A19360  41.472  38.707   8.324
 1303POPC   C3A19361  41.320  38.581   7.956
 1303POPC   C4A19362  41.514  38.358   7.617
 1303POPC   C1B19363  41.265  38.051   8.776
 1303POPC   C2B19364  41.203  38.235   8.382
 1303POPC   C3B19365  41.285  38.047   8.008
 1303POPC   C4B19366  41.378  37.853   7.639
 1304POPC   NC319367   2.863  40.312   9.562
 1304POPC   PO419368   2.288  40.006   9.425
 1304POPC   GL119369   2.646  40.096   9.110
 1304POPC   GL219370   3.023  40.014   9.171
 1304POPC   C1A19371   2.753  40.047   8.663
 1304POPC   D2A19372   3.096  40.089   8.360
 1304POPC   C3A19373   2.970  40.118   7.925
 1304POPC   C4A19374   2.559  40.038   7.758
 1304POPC   C1B19375   3.215  39.823   8.790
 1304POPC   C2B19376   3.261  39.600   8.364
 1304POPC   C3B19377   3.105  39.628   7.959
 1304POPC   C4B19378   3.342  39.785   7.625
 1305POPC   NC319379  27.978  36.052   9.525
 1305POPC   PO419380  27.351  36.180   9.446
 1305POPC   GL119381  27.637  36.190   9.153
 1305POPC   GL219382  27.866  36.475   9.214
 1305POPC   C1A19383  27.555  35.965   8.787
 1305POPC   D2A19384  27.334  35.950   8.420
 1305POPC   C3A19385  27.580  35.934   8.072
 1305POPC   C4A19386  27.981  35.946   7.888
 1305POPC   C1B19387  27.884  36.363   8.758
 1305POPC   C2B19388  27.922  36.219   8.329
 1305POPC   C3B19389  27.943  36.452   7.899
 1305POPC   C4B19390  27.794  36.643   7.486
 1306POPC   NC319391  14.903   5.046   9.608
 1306POPC   PO419392  15.416   4.695   9.644
 1306POPC   GL119393  15.314   4.919   9.211
 1306POPC   GL219394  14.940   4.991   9.107
 1306POPC   C1A19395  15.518   5.132   8.827
 1306POPC   D2A19396  15.449   5.449   8.472
 1306POPC   C3A19397  15.443   5.222   8.070
 1306POPC   C4A19398  15.443   4.763   8.002
 1306POPC   C1B19399  15.036   5.217   8.739
 1306POPC   C2B19400  15.188   4.966   8.432
 1306POPC   C3B19401  14.958   4.907   8.081
 1306POPC   C4B19402  14.930   5.231   7.820
 1307POPC   NC319403  23.740  34.122   9.593
 1307POPC   PO419404  23.843  34.806   9.780
 1307POPC   GL119405  23.631  34.603   9.361
 1307POPC   GL219406  23.871  34.569   9.067
 1307POPC   C1A19407  23.406  34.567   8.923
 1307POPC   D2A19408  23.595  34.448   8.516
 1307POPC   C3A19409  23.425  34.566   8.119
 1307POPC   C4A19410  23.570  34.759   7.768
 1307POPC   C1B19411  23.990  34.233   8.753
 1307POPC   C2B19412  24.128  34.294   8.330
 1307POPC   C3B19413  23.973  34.513   7.953
 1307POPC   C4B19414  23.956  34.405   7.495
 1308POPC   NC319415   6.435  39.949   9.264
 1308POPC   PO419416   5.911  40.272   9.692
 1308POPC   GL119417   5.761  40.248   9.220
 1308POPC   GL219418   5.746  39.900   9.086
 1308POPC   C1A19419   5.698  40.243   8.732
 1308POPC   D2A19420   5.894  39.991   8.398
 1308POPC   C3A19421   5.792  40.089   7.988
 1308POPC   C4A19422   5.867  40.464   7.783
 1308POPC   C1B19423   5.755  39.630   8.735
 1308POPC   C2B19424   5.564  39.547   8.357
 1308POPC   C3B19425   5.884  39.576   8.067
 1308POPC   C4B19426   5.849  39.623   7.669
 1309POPC   NC319427  11.549  16.998   9.420
 1309POPC   PO419428  12.223  16.746   9.489
 1309POPC   GL119429  11.993  16.584   9.167
 1309POPC   GL219430  11.664  16.506   9.311
 1309POPC   C1A19431  12.106  16.723   8.765
 1309POPC   D2A19432  12.417  16.819   8.411
 1309POPC   C3A19433  12.231  16.772   8.019
 1309POPC   C4A19434  12.252  17.018   7.645
 1309POPC   C1B19435  11.568  16.626   8.870
 1309POPC   C2B19436  11.718  16.555   8.453
 1309POPC   C3B19437  11.636  16.704   8.021
 1309POPC   C4B19438  11.776  16.883   7.638
 1310POPC   NC319439  16.800  36.433   9.520
 1310POPC   PO419440  16.174  36.210   9.704
 1310POPC   GL119441  16.364  36.255   9.259
 1310POPC   GL219442  16.695  36.081   9.154
 1310POPC   C1A19443  16.513  36.516   8.886
 1310POPC   D2A19444  16.418  36.558   8.458
 1310POPC   C3A19445  16.754  36.371   8.195
 1310POPC   C4A19446  16.760  36.269   7.763
 1310POPC   C1B19447  16.785  36.106   8.686
 1310POPC   C2B19448  16.990  35.921   8.311
 1310POPC   C3B19449  17.022  35.796   7.874
 1310POPC   C4B19450  16.750  35.758   7.541
 1311POPC   NC319451  32.542  44.109   9.561
 1311POPC   PO419452  32.075  43.744   9.851
 1311POPC   GL119453  32.195  43.719   9.363
 1311POPC   GL219454  32.194  44.047   9.204
 1311POPC   C1A19455  31.984  43.694   8.905
 1311POPC   D2A19456  32.162  43.704   8.473
 1311POPC   C3A19457  31.940  43.619   8.078
 1311POPC   C4A19458  32.149  43.612   7.671
 1311POPC   C1B19459  32.237  44.166   8.770
 1311POPC   C2B19460  32.017  44.191   8.359
 1311POPC   C3B19461  32.159  44.044   7.945
 1311POPC   C4B19462  32.368  44.050   7.512
 1312POPC   NC319463  44.878  15.270   9.429
 1312POPC   PO419464  44.297  15.056   9.393
 1312POPC   GL119465  44.601  15.001   9.080
 1312POPC   GL219466  44.953  15.046   8.984
 1312POPC   C1A19467  44.549  15.013   8.633
 1312POPC   D2A19468  44.749  14.978   8.250
 1312POPC   C3A19469  44.485  15.081   7.928
 1312POPC   C4A19470  44.454  15.461   7.691
 1312POPC   C1B19471  44.982  15.303   8.616
 1312POPC   C2B19472   0.207  15.375   8.261
 1312POPC   C3B19473   0.033  15.392   7.864
 1312POPC   C4B19474  44.850  15.165   7.540
 1313POPC   NC319475  42.210  10.098   9.491
 1313POPC   PO419476  42.539   9.403   9.548
 1313POPC   GL119477  42.449   9.596   9.162
 1313POPC   GL219478  42.492   9.935   9.094
 1313POPC   C1A19479  42.289   9.523   8.751
 1313POPC   D2A19480  42.237   9.348   8.346
 1313POPC   C3A19481  42.245   9.712   8.137
 1313POPC   C4A19482  42.282   9.792   7.723
 1313POPC   C1B19483  42.036   9.952   8.871
 1313POPC   C2B19484  41.815   9.952   8.454
 1313POPC   C3B19485  41.873  10.033   8.000
 1313POPC   C4B19486  41.784   9.796   7.612
 1314POPC   NC319487  33.871   9.320   9.434
 1314POPC   PO419488  33.552   9.871   9.784
 1314POPC   GL119489  33.655   9.917   9.351
 1314POPC   GL219490  33.417   9.746   9.197
 1314POPC   C1A19491  33.693  10.120   8.929
 1314POPC   D2A19492  33.933   9.957   8.551
 1314POPC   C3A19493  33.862  10.123   8.143
 1314POPC   C4A19494  33.853   9.972   7.734
 1314POPC   C1B19495  33.583   9.611   8.794
 1314POPC   C2B19496  33.940   9.457   8.530
 1314POPC   C3B19497  34.049   9.646   8.113
 1314POPC   C4B19498  34.005   9.511   7.682
 1315POPC   NC319499  33.133  11.759   9.565
 1315POPC   PO419500  32.785  12.324   9.426
 1315POPC   GL119501  32.940  12.054   9.170
 1315POPC   GL219502  32.737  11.759   9.244
 1315POPC   C1A19503  32.964  12.089   8.736
 1315POPC   D2A19504  33.180  12.137   8.346
 1315POPC   C3A19505  32.965  12.222   7.975
 1315POPC   C4A19506  33.168  12.516   7.698
 1315POPC   C1B19507  33.079  11.617   8.939
 1315POPC   C2B19508  33.134  11.650   8.513
 1315POPC   C3B19509  32.999  11.696   8.123
 1315POPC   C4B19510  33.213  11.640   7.750
 1316POPC   NC319511  24.352  14.834   9.481
 1316POPC   PO419512  24.831  15.260   9.526
 1316POPC   GL119513  24.639  15.166   9.149
 1316POPC   GL219514  24.752  14.823   9.125
 1316POPC   C1A19515  24.560  15.344   8.731
 1316POPC   D2A19516  24.339  15.227   8.345
 1316POPC   C3A19517  24.559  15.371   7.980
 1316POPC   C4A19518  24.532  15.352   7.517
 1316POPC   C1B19519  24.439  14.830   8.790
 1316POPC   C2B19520  24.353  14.694   8.370
 1316POPC   C3B19521  24.582  14.815   8.025
 1316POPC   C4B19522  24.349  14.948   7.732
 1317POPC   NC319523  35.848   2.702   9.465
 1317POPC   PO419524  36.346   3.104   9.431
 1317POPC   GL119525  36.254   2.682   9.133
 1317POPC   GL219526  35.899   2.603   8.984
 1317POPC   C1A19527  36.281   2.500   8.668
 1317POPC   D2A19528  36.055   2.360   8.262
 1317POPC   C3A19529  36.142   2.678   7.955
 1317POPC   C4A19530  36.373   3.098   7.992
 1317POPC   C1B19531  36.054   2.996   8.772
 1317POPC   C2B19532  35.918   3.209   8.397
 1317POPC   C3B19533  35.867   3.107   7.985
 1317POPC   C4B19534  35.680   2.798   7.747
 1318POPC   NC319535  28.213   1.457   9.514
 1318POPC   PO419536  28.438   2.153   9.555
 1318POPC   GL119537  28.244   1.899   9.220
 1318POPC   GL219538  28.529   1.950   9.090
 1318POPC   C1A19539  28.126   1.955   8.768
 1318POPC   D2A19540  28.273   1.924   8.328
 1318POPC   C3A19541  28.098   2.022   7.902
 1318POPC   C4A19542  28.023   2.118   7.467
 1318POPC   C1B19543  28.638   1.785   8.702
 1318POPC   C2B19544  28.775   1.758   8.297
 1318POPC   C3B19545  28.603   1.953   7.937
 1318POPC   C4B19546  28.542   2.215   7.609
 1319POPC   NC319547  11.400  38.728   9.810
 1319POPC   PO419548  10.823  38.432   9.681
 1319POPC   GL119549  11.160  38.416   9.299
 1319POPC   GL219550  11.403  38.722   9.266
 1319POPC   C1A19551  11.119  38.572   8.833
 1319POPC   D2A19552  11.001  38.681   8.411
 1319POPC   C3A19553  11.076  38.304   8.154
 1319POPC   C4A19554  11.127  38.063   7.748
 1319POPC   C1B19555  11.609  38.705   8.825
 1319POPC   C2B19556  11.545  38.419   8.419
 1319POPC   C3B19557  11.510  38.479   7.943
 1319POPC   C4B19558  11.563  38.605   7.510
 1320POPC   NC319559   3.591  40.432   9.672
 1320POPC   PO419560   3.805  40.985   9.529
 1320POPC   GL119561   3.454  40.825   9.230
 1320POPC   GL219562   3.242  40.508   9.257
 1320POPC   C1A19563   3.411  40.748   8.774
 1320POPC   D2A19564   3.503  40.457   8.427
 1320POPC   C3A19565   3.561  40.563   8.037
 1320POPC   C4A19566   3.467  40.926   7.858
 1320POPC   C1B19567   3.068  40.393   8.846
 1320POPC   C2B19568   3.007  40.578   8.451
 1320POPC   C3B19569   2.994  40.752   8.062
 1320POPC   C4B19570   3.156  40.543   7.714
 1321POPC   NC319571  25.717  16.499   9.418
 1321POPC   PO419572  26.074  16.903   9.757
 1321POPC   GL119573  25.950  16.938   9.276
 1321POPC   GL219574  26.281  16.918   9.210
 1321POPC   C1A19575  25.786  16.749   8.816
 1321POPC   D2A19576  25.935  16.364   8.534
 1321POPC   C3A19577  26.152  16.421   8.108
 1321POPC   C4A19578  26.020  16.660   7.734
 1321POPC   C1B19579  26.197  17.056   8.794
 1321POPC   C2B19580  26.118  16.874   8.398
 1321POPC   C3B19581  26.053  17.086   8.026
 1321POPC   C4B19582  25.852  17.211   7.647
 1322POPC   NC319583   2.218  32.181   9.661
 1322POPC   PO419584   2.041  32.699   9.503
 1322POPC   GL119585   2.276  32.478   9.196
 1322POPC   GL219586   2.307  32.122   9.165
 1322POPC   C1A19587   2.310  32.573   8.772
 1322POPC   D2A19588   2.218  32.648   8.344
 1322POPC   C3A19589   2.184  32.434   7.959
 1322POPC   C4A19590   1.757  32.419   7.739
 1322POPC   C1B19591   2.133  32.062   8.744
 1322POPC   C2B19592   2.002  32.092   8.303
 1322POPC   C3B19593   2.002  31.957   7.871
 1322POPC   C4B19594   1.757  31.951   7.482
 1323POPC   NC319595   7.271  18.481   9.564
 1323POPC   PO419596   7.904  18.545   9.275
 1323POPC   GL119597   7.497  18.408   9.101
 1323POPC   GL219598   7.324  18.629   8.856
 1323POPC   C1A19599   7.250  18.132   8.799
 1323POPC   D2A19600   7.206  18.236   8.342
 1323POPC   C3A19601   7.484  18.072   8.012
 1323POPC   C4A19602   7.461  18.138   7.548
 1323POPC   C1B19603   7.678  18.424   8.612
 1323POPC   C2B19604   7.836  18.542   8.209
 1323POPC   C3B19605   7.602  18.573   7.836
 1323POPC   C4B19606   7.651  18.558   7.358
 1324POPC   NC319607  28.273   6.169   9.699
 1324POPC   PO419608  28.493   6.844   9.813
 1324POPC   GL119609  28.275   6.639   9.381
 1324POPC   GL219610  28.501   6.698   9.080
 1324POPC   C1A19611  28.045   6.643   8.890
 1324POPC   D2A19612  27.948   6.765   8.437
 1324POPC   C3A19613  28.129   6.645   8.021
 1324POPC   C4A19614  28.008   6.740   7.573
 1324POPC   C1B19615  28.795   6.474   8.821
 1324POPC   C2B19616  28.663   6.418   8.415
 1324POPC   C3B19617  28.503   6.254   8.039
 1324POPC   C4B19618  28.582   6.337   7.651
 1325POPC   NC319619  26.846   5.427   9.520
 1325POPC   PO419620  26.714   4.723   9.460
 1325POPC   GL119621  26.887   4.908   9.109
 1325POPC   GL219622  26.707   5.194   9.103
 1325POPC   C1A19623  26.875   5.067   8.647
 1325POPC   D2A19624  27.113   5.207   8.296
 1325POPC   C3A19625  27.066   5.103   7.853
 1325POPC   C4A19626  26.859   4.718   7.750
 1325POPC   C1B19627  26.410   5.289   8.782
 1325POPC   C2B19628  26.385   5.045   8.430
 1325POPC   C3B19629  26.640   5.087   8.099
 1325POPC   C4B19630  26.599   5.181   7.656
 1326POPC   NC319631   4.100  30.700   9.877
 1326POPC   PO419632   3.958  30.129   9.533
 1326POPC   GL119633   3.976  30.534   9.300
 1326POPC   GL219634   4.328  30.585   9.167
 1326POPC   C1A19635   3.934  30.712   8.860
 1326POPC   D2A19636   4.053  30.908   8.432
 1326POPC   C3A19637   3.964  30.744   8.013
 1326POPC   C4A19638   4.081  30.705   7.516
 1326POPC   C1B19639   4.427  30.722   8.722
 1326POPC   C2B19640   4.364  30.516   8.306
 1326POPC   C3B19641   4.598  30.349   7.979
 1326POPC   C4B19642   4.665  30.716   7.734
 1327POPC   NC319643  37.220  31.127   9.579
 1327POPC   PO419644  36.712  30.632   9.510
 1327POPC   GL119645  36.917  30.530   9.144
 1327POPC   GL219646  37.191  30.720   9.205
 1327POPC   C1A19647  36.977  30.624   8.715
 1327POPC   D2A19648  36.974  30.455   8.309
 1327POPC   C3A19649  36.855  30.731   8.000
 1327POPC   C4A19650  36.990  30.730   7.587
 1327POPC   C1B19651  37.363  30.933   8.823
 1327POPC   C2B19652  37.372  30.780   8.386
 1327POPC   C3B19653  37.355  30.793   7.941
 1327POPC   C4B19654  37.151  31.182   7.769
 1328POPC   NC319655  35.153  12.880   9.525
 1328POPC   PO419656  35.798  12.623   9.486
 1328POPC   GL119657  35.752  12.847   9.106
 1328POPC   GL219658  35.480  13.044   9.152
 1328POPC   C1A19659  35.626  12.733   8.717
 1328POPC   D2A19660  35.340  12.831   8.410
 1328POPC   C3A19661  35.539  13.010   8.054
 1328POPC   C4A19662  35.770  12.738   7.809
 1328POPC   C1B19663  35.136  13.065   8.842
 1328POPC   C2B19664  35.029  13.224   8.411
 1328POPC   C3B19665  35.039  13.003   7.976
 1328POPC   C4B19666  35.322  13.176   7.611
 1329POPC   NC319667  21.034   8.534   9.416
 1329POPC   PO419668  21.525   8.043   9.499
 1329POPC   GL119669  21.394   8.058   9.097
 1329POPC   GL219670  21.374   8.367   9.054
 1329POPC   C1A19671  21.299   8.027   8.662
 1329POPC   D2A19672  21.543   7.916   8.325
 1329POPC   C3A19673  21.337   8.018   7.982
 1329POPC   C4A19674  21.275   8.293   7.751
 1329POPC   C1B19675  21.372   8.523   8.647
 1329POPC   C2B19676  21.471   8.447   8.242
 1329POPC   C3B19677  21.581   8.652   7.879
 1329POPC   C4B19678  21.873   8.536   7.586
 1330POPC   NC319679  30.963  18.582   9.430
 1330POPC   PO419680  30.632  18.093   9.422
 1330POPC   GL119681  30.565  18.402   9.113
 1330POPC   GL219682  30.851  18.576   8.930
 1330POPC   C1A19683  30.428  18.340   8.714
 1330POPC   D2A19684  30.292  18.456   8.333
 1330POPC   C3A19685  30.558  18.336   8.025
 1330POPC   C4A19686  30.596  18.512   7.636
 1330POPC   C1B19687  30.915  18.170   8.735
 1330POPC   C2B19688  31.040  18.162   8.282
 1330POPC   C3B19689  31.061  18.402   7.886
 1330POPC   C4B19690  31.025  18.310   7.434
 1331POPC   NC319691  14.798   9.055   9.466
 1331POPC   PO419692  15.387   8.549   9.453
 1331POPC   GL119693  15.114   8.749   9.137
 1331POPC   GL219694  15.276   9.038   9.028
 1331POPC   C1A19695  15.048   8.804   8.669
 1331POPC   D2A19696  15.393   9.038   8.484
 1331POPC   C3A19697  15.486   8.955   8.045
 1331POPC   C4A19698  15.299   8.846   7.657
 1331POPC   C1B19699  14.925   9.263   8.822
 1331POPC   C2B19700  15.020   9.364   8.403
 1331POPC   C3B19701  15.041   9.199   8.008
 1331POPC   C4B19702  14.953   9.223   7.598
 1332POPC   NC319703  12.297  36.345   9.458
 1332POPC   PO419704  12.265  36.941   9.745
 1332POPC   GL119705  12.149  36.835   9.302
 1332POPC   GL219706  12.452  36.738   9.142
 1332POPC   C1A19707  11.987  36.932   8.848
 1332POPC   D2A19708  12.080  36.919   8.369
 1332POPC   C3A19709  11.828  36.629   8.036
 1332POPC   C4A19710  11.632  36.788   7.620
 1332POPC   C1B19711  12.500  36.960   8.744
 1332POPC   C2B19712  12.570  36.791   8.340
 1332POPC   C3B19713  12.339  36.786   7.956
 1332POPC   C4B19714  12.062  37.019   7.810
 1333POPC   NC319715  42.089  42.387   9.283
 1333POPC   PO419716  42.688  42.451   9.474
 1333POPC   GL119717  42.491  42.232   9.024
 1333POPC   GL219718  42.216  41.996   9.007
 1333POPC   C1A19719  42.243  42.360   8.653
 1333POPC   D2A19720  41.930  42.388   8.343
 1333POPC   C3A19721  42.199  42.504   8.066
 1333POPC   C4A19722  42.416  42.329   7.775
 1333POPC   C1B19723  41.977  41.779   8.726
 1333POPC   C2B19724  41.828  41.875   8.344
 1333POPC   C3B19725  42.088  42.006   8.013
 1333POPC   C4B19726  42.221  41.913   7.599
 1334POPC   NC319727  42.072  37.489   9.372
 1334POPC   PO419728  42.734  37.869   9.389
 1334POPC   GL119729  42.376  37.864   9.134
 1334POPC   GL219730  42.474  37.531   9.089
 1334POPC   C1A19731  42.208  37.788   8.722
 1334POPC   D2A19732  42.141  37.997   8.340
 1334POPC   C3A19733  42.337  37.923   7.997
 1334POPC   C4A19734  42.275  37.753   7.606
 1334POPC   C1B19735  42.719  37.699   8.757
 1334POPC   C2B19736  42.659  37.958   8.433
 1334POPC   C3B19737  42.809  37.780   8.086
 1334POPC   C4B19738  42.671  37.492   7.815
 1335POPC   NC319739  38.726  41.100   9.398
 1335POPC   PO419740  38.290  40.536   9.638
 1335POPC   GL119741  38.451  40.672   9.270
 1335POPC   GL219742  38.244  40.990   9.204
 1335POPC   C1A19743  38.630  40.619   8.869
 1335POPC   D2A19744  38.471  40.565   8.471
 1335POPC   C3A19745  38.663  40.707   8.058
 1335POPC   C4A19746  38.504  40.620   7.671
 1335POPC   C1B19747  38.300  41.091   8.758
 1335POPC   C2B19748  38.415  41.056   8.333
 1335POPC   C3B19749  38.329  41.075   7.908
 1335POPC   C4B19750  38.340  41.029   7.421
 1336POPC   NC319751  22.339  20.691   9.796
 1336POPC   PO419752  22.013  21.248   9.745
 1336POPC   GL119753  22.152  21.489   9.368
 1336POPC   GL219754  22.394  21.328   9.174
 1336POPC   C1A19755  22.014  21.559   8.924
 1336POPC   D2A19756  21.917  21.363   8.521
 1336POPC   C3A19757  22.029  21.447   8.075
 1336POPC   C4A19758  22.264  21.535   7.706
 1336POPC   C1B19759  22.553  21.263   8.784
 1336POPC   C2B19760  22.411  21.323   8.387
 1336POPC   C3B19761  22.543  21.226   8.003
 1336POPC   C4B19762  22.538  21.064   7.603
 1337POPC   NC319763  18.668  17.416   9.547
 1337POPC   PO419764  18.117  17.185   9.511
 1337POPC   GL119765  18.273  17.492   9.219
 1337POPC   GL219766  18.572  17.382   9.051
 1337POPC   C1A19767  18.278  17.688   8.804
 1337POPC   D2A19768  18.482  17.616   8.465
 1337POPC   C3A19769  18.327  17.620   8.082
 1337POPC   C4A19770  18.498  17.517   7.698
 1337POPC   C1B19771  18.178  17.185   8.830
 1337POPC   C2B19772  18.149  17.206   8.374
 1337POPC   C3B19773  18.169  17.165   7.925
 1337POPC   C4B19774  17.857  17.052   7.734
 1338POPC   NC319775   0.551  15.630   9.411
 1338POPC   PO419776   0.107  16.119   9.657
 1338POPC   GL119777   0.310  16.072   9.205
 1338POPC   GL219778   0.610  16.017   9.071
 1338POPC   C1A19779   0.278  15.916   8.710
 1338POPC   D2A19780   0.395  15.854   8.274
 1338POPC   C3A19781   0.515  16.219   8.046
 1338POPC   C4A19782   0.263  16.312   7.691
 1338POPC   C1B19783   0.734  16.115   8.649
 1338POPC   C2B19784   0.904  15.938   8.318
 1338POPC   C3B19785   0.799  15.818   7.921
 1338POPC   C4B19786   0.736  16.113   7.583
 1339POPC   NC319787  29.507   6.551   9.404
 1339POPC   PO419788  30.120   6.948   9.555
 1339POPC   GL119789  30.000   6.683   9.201
 1339POPC   GL219790  29.723   6.854   9.056
 1339POPC   C1A19791  29.913   6.419   8.834
 1339POPC   D2A19792  29.795   6.374   8.379
 1339POPC   C3A19793  30.036   6.375   8.006
 1339POPC   C4A19794  30.252   6.672   7.765
 1339POPC   C1B19795  29.588   6.793   8.638
 1339POPC   C2B19796  29.648   6.868   8.249
 1339POPC   C3B19797  29.799   6.869   7.840
 1339POPC   C4B19798  29.840   6.486   7.543
 1340POPC   NC319799  12.282  26.344   9.546
 1340POPC   PO419800  11.888  25.813   9.347
 1340POPC   GL119801  12.093  26.132   9.102
 1340POPC   GL219802  11.852  26.349   8.919
 1340POPC   C1A19803  12.163  26.039   8.658
 1340POPC   D2A19804  11.963  26.173   8.306
 1340POPC   C3A19805  12.085  25.924   7.952
 1340POPC   C4A19806  12.031  25.777   7.552
 1340POPC   C1B19807  12.252  26.522   8.781
 1340POPC   C2B19808  12.453  26.394   8.361
 1340POPC   C3B19809  12.237  26.400   7.931
 1340POPC   C4B19810  12.145  26.264   7.515
 1341POPC   NC319811  26.378   9.629   9.871
 1341POPC   PO419812  25.753   9.617   9.622
 1341POPC   GL119813  25.958   9.669   9.235
 1341POPC   GL219814  25.648   9.520   9.131
 1341POPC   C1A19815  26.263   9.640   8.845
 1341POPC   D2A19816  26.503   9.681   8.418
 1341POPC   C3A19817  26.300   9.642   7.997
 1341POPC   C4A19818  26.423   9.673   7.538
 1341POPC   C1B19819  25.769   9.753   8.771
 1341POPC   C2B19820  25.967   9.682   8.389
 1341POPC   C3B19821  25.773   9.828   8.023
 1341POPC   C4B19822  25.872   9.965   7.647
 1342POPC   NC319823  31.721  43.793   9.544
 1342POPC   PO419824  31.195  44.199   9.713
 1342POPC   GL119825  31.199  44.072   9.253
 1342POPC   GL219826  31.195  43.702   9.246
 1342POPC   C1A19827  31.402  44.035   8.813
 1342POPC   D2A19828  31.654  43.842   8.465
 1342POPC   C3A19829  31.603  44.016   8.020
 1342POPC   C4A19830  31.257  44.302   7.913
 1342POPC   C1B19831  31.477  43.538   8.929
 1342POPC   C2B19832  31.426  43.386   8.526
 1342POPC   C3B19833  31.374  43.549   8.129
 1342POPC   C4B19834  31.165  43.643   7.799
 1343POPC   NC319835  20.747   7.057   9.479
 1343POPC   PO419836  20.671   7.771   9.270
 1343POPC   GL119837  20.800   7.414   9.130
 1343POPC   GL219838  20.452   7.266   9.119
 1343POPC   C1A19839  20.896   7.343   8.728
 1343POPC   D2A19840  20.682   7.693   8.545
 1343POPC   C3A19841  20.668   7.683   8.087
 1343POPC   C4A19842  20.765   7.316   7.828
 1343POPC   C1B19843  20.257   7.312   8.740
 1343POPC   C2B19844  20.494   7.235   8.382
 1343POPC   C3B19845  20.293   7.310   8.043
 1343POPC   C4B19846  20.331   7.593   7.689
 1344POPC   NC319847  26.328  40.630   9.568
 1344POPC   PO419848  25.607  40.595   9.469
 1344POPC   GL119849  25.943  40.786   9.224
 1344POPC   GL219850  26.180  40.561   9.103
 1344POPC   C1A19851  26.082  41.007   8.856
 1344POPC   D2A19852  25.958  41.068   8.456
 1344POPC   C3A19853  26.172  41.041   8.061
 1344POPC   C4A19854  25.877  41.035   7.720
 1344POPC   C1B19855  26.008  40.514   8.724
 1344POPC   C2B19856  26.058  40.600   8.315
 1344POPC   C3B19857  25.949  40.383   7.989
 1344POPC   C4B19858  25.894  40.457   7.600
 1345POPC   NC319859  19.135  40.450   9.433
 1345POPC   PO419860  19.198  41.108   9.602
 1345POPC   GL119861  19.059  40.913   9.200
 1345POPC   GL219862  19.361  40.825   9.017
 1345POPC   C1A19863  18.908  40.781   8.774
 1345POPC   D2A19864  18.998  40.904   8.349
 1345POPC   C3A19865  18.977  40.632   7.971
 1345POPC   C4A19866  19.034  40.590   7.484
 1345POPC   C1B19867  19.646  41.058   8.774
 1345POPC   C2B19868  19.450  41.123   8.401
 1345POPC   C3B19869  19.369  40.976   8.002
 1345POPC   C4B19870  19.459  41.172   7.632
 1346POPC   NC319871  13.172   5.198   9.673
 1346POPC   PO419872  12.693   4.900   9.738
 1346POPC   GL119873  12.800   5.032   9.297
 1346POPC   GL219874  12.714   5.375   9.257
 1346POPC   C1A19875  12.866   5.133   8.819
 1346POPC   D2A19876  13.124   5.102   8.420
 1346POPC   C3A19877  12.957   4.973   8.000
 1346POPC   C4A19878  13.103   5.165   7.610
 1346POPC   C1B19879  12.402   5.362   8.913
 1346POPC   C2B19880  12.426   5.504   8.458
 1346POPC   C3B19881  12.583   5.322   8.075
 1346POPC   C4B19882  12.587   5.084   7.674
 1347POPC   NC319883  43.873  38.118   9.604
 1347POPC   PO419884  44.188  37.435   9.655
 1347POPC   GL119885  44.199  37.620   9.236
 1347POPC   GL219886  43.852  37.719   9.213
 1347POPC   C1A19887  44.159  37.514   8.769
 1347POPC   D2A19888  43.968  37.289   8.366
 1347POPC   C3A19889  44.219  37.438   8.014
 1347POPC   C4A19890  44.158  37.884   7.857
 1347POPC   C1B19891  43.675  37.721   8.794
 1347POPC   C2B19892  43.880  37.773   8.397
 1347POPC   C3B19893  43.746  37.615   7.994
 1347POPC   C4B19894  43.575  37.857   7.661
 1348POPC   NC319895  17.803   2.320   9.759
 1348POPC   PO419896  18.357   1.967   9.574
 1348POPC   GL119897  18.134   1.995   9.187
 1348POPC   GL219898  17.884   2.286   9.211
 1348POPC   C1A19899  18.305   1.887   8.789
 1348POPC   D2A19900  18.546   1.827   8.428
 1348POPC   C3A19901  18.392   1.877   8.014
 1348POPC   C4A19902  18.634   2.114   7.793
 1348POPC   C1B19903  18.133   2.367   8.809
 1348POPC   C2B19904  18.149   2.189   8.414
 1348POPC   C3B19905  17.925   2.008   8.100
 1348POPC   C4B19906  17.920   2.064   7.664
 1349POPC   NC319907   8.590  12.594   9.832
 1349POPC   PO419908   8.040  12.787   9.460
 1349POPC   GL119909   8.099  12.961   9.090
 1349POPC   GL219910   8.421  13.100   9.057
 1349POPC   C1A19911   8.082  12.798   8.729
 1349POPC   D2A19912   7.933  12.949   8.385
 1349POPC   C3A19913   7.984  12.754   7.986
 1349POPC   C4A19914   7.664  12.680   7.699
 1349POPC   C1B19915   8.553  13.210   8.710
 1349POPC   C2B19916   8.443  12.984   8.394
 1349POPC   C3B19917   8.443  13.051   8.002
 1349POPC   C4B19918   8.417  12.761   7.668
 1350POPC   NC319919   5.768  25.388   9.492
 1350POPC   PO419920   6.373  25.293   9.560
 1350POPC   GL119921   6.141  25.430   9.161
 1350POPC   GL219922   6.020  25.134   9.063
 1350POPC   C1A19923   6.060  25.421   8.667
 1350POPC   D2A19924   6.018  25.042   8.394
 1350POPC   C3A19925   6.032  25.152   7.962
 1350POPC   C4A19926   5.834  25.443   7.674
 1350POPC   C1B19927   5.661  25.041   8.804
 1350POPC   C2B19928   5.484  25.052   8.392
 1350POPC   C3B19929   5.503  25.106   7.950
 1350POPC   C4B19930   5.708  24.961   7.591
 1351POPC   NC319931  16.054   0.588   9.601
 1351POPC   PO419932  15.876   1.231   9.463
 1351POPC   GL119933  15.912   0.866   9.190
 1351POPC   GL219934  16.235   0.816   9.183
 1351POPC   C1A19935  15.866   0.985   8.804
 1351POPC   D2A19936  15.991   1.273   8.507
 1351POPC   C3A19937  15.893   1.090   8.105
 1351POPC   C4A19938  15.828   1.344   7.759
 1351POPC   C1B19939  16.366   1.064   8.835
 1351POPC   C2B19940  16.438   1.075   8.402
 1351POPC   C3B19941  16.314   1.345   8.079
 1351POPC   C4B19942  16.266   1.137   7.694
 1352POPC   NC319943   1.416   7.788   9.539
 1352POPC   PO419944   0.970   8.268   9.490
 1352POPC   GL119945   1.170   8.317   9.105
 1352POPC   GL219946   1.241   7.985   9.020
 1352POPC   C1A19947   1.396   8.356   8.725
 1352POPC   D2A19948   1.488   8.140   8.353
 1352POPC   C3A19949   1.412   8.331   8.014
 1352POPC   C4A19950   1.094   8.433   7.768
 1352POPC   C1B19951   1.621   7.886   8.759
 1352POPC   C2B19952   1.647   7.643   8.397
 1352POPC   C3B19953   1.612   7.811   7.971
 1352POPC   C4B19954   1.584   8.080   7.599
 1353POPC   NC319955  40.371   4.450   9.655
 1353POPC   PO419956  39.692   4.553   9.485
 1353POPC   GL119957  40.022   4.401   9.228
 1353POPC   GL219958  40.095   4.034   9.215
 1353POPC   C1A19959  40.167   4.319   8.798
 1353POPC   D2A19960  40.042   4.459   8.433
 1353POPC   C3A19961  40.199   4.352   8.080
 1353POPC   C4A19962  40.165   4.522   7.741
 1353POPC   C1B19963  39.781   3.986   8.835
 1353POPC   C2B19964  39.615   4.155   8.415
 1353POPC   C3B19965  39.751   4.065   7.981
 1353POPC   C4B19966  39.788   4.202   7.549
 1354POPC   NC319967   6.171  14.963   9.546
 1354POPC   PO419968   5.985  15.483   9.202
 1354POPC   GL119969   5.701  15.184   9.045
 1354POPC   GL219970   5.754  14.875   9.224
 1354POPC   C1A19971   5.684  15.203   8.597
 1354POPC   D2A19972   5.443  15.260   8.215
 1354POPC   C3A19973   5.739  15.332   7.866
 1354POPC   C4A19974   5.763  15.612   7.522
 1354POPC   C1B19975   6.035  14.881   8.814
 1354POPC   C2B19976   6.069  14.960   8.333
 1354POPC   C3B19977   6.037  14.904   7.864
 1354POPC   C4B19978   5.959  14.759   7.433
 1355POPC   NC319979  13.849  19.472   9.486
 1355POPC   PO419980  13.432  19.922   9.741
 1355POPC   GL119981  13.528  19.840   9.284
 1355POPC   GL219982  13.424  19.482   9.122
 1355POPC   C1A19983  13.396  19.894   8.866
 1355POPC   D2A19984  13.317  19.658   8.513
 1355POPC   C3A19985  13.522  19.819   8.153
 1355POPC   C4A19986  13.493  20.137   7.820
 1355POPC   C1B19987  13.763  19.491   8.794
 1355POPC   C2B19988  13.823  19.348   8.341
 1355POPC   C3B19989  13.825  19.492   7.912
 1355POPC   C4B19990  13.393  19.609   7.720
 1356POPC   NC319991   7.850  43.573   9.548
 1356POPC   PO419992   8.483  43.307   9.687
 1356POPC   GL119993   8.227  43.376   9.230
 1356POPC   GL219994   8.085  43.087   9.004
 1356POPC   C1A19995   8.275  43.503   8.790
 1356POPC   D2A19996   8.479  43.426   8.388
 1356POPC   C3A19997   8.152  43.296   8.110
 1356POPC   C4A19998   8.071  43.379   7.692
 1356POPC   C1B19999   8.443  42.998   8.714
 1356POPC   C2B20000   8.522  42.838   8.294
 1356POPC   C3B20001   8.409  42.920   7.875
 1356POPC   C4B20002   7.994  42.795   7.731
 1357POPC   NC320003  43.535   0.871   9.248
 1357POPC   PO420004  43.136   1.404   9.201
 1357POPC   GL120005  43.292   1.183   8.912
 1357POPC   GL220006  43.069   0.900   9.000
 1357POPC   C1A20007  43.228   1.358   8.525
 1357POPC   D2A20008  42.973   1.320   8.181
 1357POPC   C3A20009  43.231   1.299   7.836
 1357POPC   C4A20010  43.326   1.263   7.404
 1357POPC   C1B20011  42.796   1.076   8.655
 1357POPC   C2B20012  42.539   0.954   8.288
 1357POPC   C3B20013  42.684   1.022   7.858
 1357POPC   C4B20014  42.963   0.931   7.515
 1358POPC   NC320015  16.090  19.985   9.764
 1358POPC   PO420016  15.591  19.688   9.361
 1358POPC   GL120017  15.971  19.808   9.226
 1358POPC   GL220018  15.874  20.150   9.314
 1358POPC   C1A20019  16.095  19.664   8.792
 1358POPC   D2A20020  15.899  19.648   8.360
 1358POPC   C3A20021  16.130  19.704   7.978
 1358POPC   C4A20022  16.044  19.696   7.553
 1358POPC   C1B20023  15.943  20.176   8.864
 1358POPC   C2B20024  15.827  20.175   8.432
 1358POPC   C3B20025  15.808  20.330   8.047
 1358POPC   C4B20026  15.968  20.204   7.661
 1359POPC   NC320027  13.526  37.105   9.619
 1359POPC   PO420028  13.755  36.437   9.572
 1359POPC   GL120029  13.539  36.653   9.209
 1359POPC   GL220030  13.705  36.962   9.184
 1359POPC   C1A20031  13.381  36.721   8.758
 1359POPC   D2A20032  13.445  36.946   8.324
 1359POPC   C3A20033  13.702  36.787   7.953
 1359POPC   C4A20034  14.122  36.782   7.712
 1359POPC   C1B20035  13.536  37.194   8.827
 1359POPC   C2B20036  13.361  37.423   8.488
 1359POPC   C3B20037  13.575  37.434   8.124
 1359POPC   C4B20038  13.401  37.285   7.780
 1360POPC   NC320039  14.492  10.096   9.543
 1360POPC   PO420040  14.262  10.697   9.633
 1360POPC   GL120041  14.182  10.679   9.217
 1360POPC   GL220042  14.224  10.321   9.169
 1360POPC   C1A20043  14.405  10.703   8.832
 1360POPC   D2A20044  14.610  10.717   8.426
 1360POPC   C3A20045  14.527  10.763   7.985
 1360POPC   C4A20046  14.242  10.667   7.690
 1360POPC   C1B20047  14.576  10.173   8.889
 1360POPC   C2B20048  14.524  10.010   8.488
 1360POPC   C3B20049  14.505  10.259   8.123
 1360POPC   C4B20050  14.398  10.195   7.705
 1361POPC   NC320051  31.696  12.260   9.539
 1361POPC   PO420052  31.232  11.731   9.529
 1361POPC   GL120053  31.533  11.852   9.211
 1361POPC   GL220054  31.759  11.577   9.167
 1361POPC   C1A20055  31.499  12.089   8.787
 1361POPC   D2A20056  31.651  12.225   8.343
 1361POPC   C3A20057  31.416  12.076   8.020
 1361POPC   C4A20058  31.416  12.246   7.651
 1361POPC   C1B20059  31.858  11.718   8.809
 1361POPC   C2B20060  31.693  11.746   8.444
 1361POPC   C3B20061  31.842  11.665   8.071
 1361POPC   C4B20062  31.791  11.919   7.754
 1362POPC   NC320063  11.451  31.082   9.509
 1362POPC   PO420064  11.293  31.727   9.706
 1362POPC   GL120065  11.457  31.657   9.252
 1362POPC   GL220066  11.308  31.357   9.103
 1362POPC   C1A20067  11.488  31.696   8.761
 1362POPC   D2A20068  11.172  31.691   8.361
 1362POPC   C3A20069  11.264  31.548   7.924
 1362POPC   C4A20070  11.529  31.755   7.601
 1362POPC   C1B20071  11.242  31.006   8.811
 1362POPC   C2B20072  11.388  30.983   8.391
 1362POPC   C3B20073  11.244  31.029   7.992
 1362POPC   C4B20074  11.432  31.148   7.633
 1363POPC   NC320075  16.356  26.049   9.418
 1363POPC   PO420076  15.912  26.384   9.243
 1363POPC   GL120077  15.804  25.957   9.155
 1363POPC   GL220078  16.119  25.797   9.062
 1363POPC   C1A20079  15.740  25.861   8.715
 1363POPC   D2A20080  15.979  26.127   8.410
 1363POPC   C3A20081  15.920  26.075   7.958
 1363POPC   C4A20082  15.529  26.204   7.757
 1363POPC   C1B20083  16.344  25.836   8.672
 1363POPC   C2B20084  16.283  25.708   8.252
 1363POPC   C3B20085  16.391  25.836   7.857
 1363POPC   C4B20086  16.157  25.926   7.489
 1364POPC   NC320087  28.188  17.007   9.520
 1364POPC   PO420088  28.197  16.378   9.665
 1364POPC   GL120089  28.348  16.566   9.271
 1364POPC   GL220090  28.056  16.733   9.128
 1364POPC   C1A20091  28.519  16.609   8.838
 1364POPC   D2A20092  28.366  16.670   8.442
 1364POPC   C3A20093  28.585  16.848   8.118
 1364POPC   C4A20094  28.487  16.700   7.732
 1364POPC   C1B20095  27.845  16.700   8.773
 1364POPC   C2B20096  27.874  16.782   8.376
 1364POPC   C3B20097  28.072  16.774   8.018
 1364POPC   C4B20098  28.024  16.908   7.534
 1365POPC   NC320099  18.763  41.277   9.497
 1365POPC   PO420100  18.026  41.548   9.442
 1365POPC   GL120101  18.284  41.435   9.114
 1365POPC   GL220102  18.563  41.679   9.211
 1365POPC   C1A20103  18.098  41.392   8.690
 1365POPC   D2A20104  17.922  41.532   8.279
 1365POPC   C3A20105  18.200  41.374   7.929
 1365POPC   C4A20106  18.543  41.337   7.608
 1365POPC   C1B20107  18.472  41.798   8.776
 1365POPC   C2B20108  18.313  41.846   8.341
 1365POPC   C3B20109  18.542  41.753   7.956
 1365POPC   C4B20110  18.782  41.808   7.580
 1366POPC   NC320111  11.482  39.714   9.666
 1366POPC   PO420112  10.820  39.832   9.671
 1366POPC   GL120113  11.164  39.865   9.315
 1366POPC   GL220114  11.293  40.210   9.238
 1366POPC   C1A20115  11.421  39.800   8.941
 1366POPC   D2A20116  11.335  39.992   8.536
 1366POPC   C3A20117  11.464  39.874   8.129
 1366POPC   C4A20118  11.192  39.944   7.783
 1366POPC   C1B20119  11.529  40.348   8.850
 1366POPC   C2B20120  11.461  40.508   8.383
 1366POPC   C3B20121  11.504  40.397   7.904
 1366POPC   C4B20122  11.410  40.669   7.510
 1367POPC   NC320123  19.106  11.969   9.548
 1367POPC   PO420124  18.941  12.551   9.518
 1367POPC   GL120125  19.070  12.224   9.102
 1367POPC   GL220126  19.114  11.815   9.080
 1367POPC   C1A20127  19.285  12.061   8.689
 1367POPC   D2A20128  19.453  11.837   8.324
 1367POPC   C3A20129  19.278  12.075   7.985
 1367POPC   C4A20130  19.236  12.039   7.526
 1367POPC   C1B20131  18.857  11.764   8.735
 1367POPC   C2B20132  18.917  11.943   8.350
 1367POPC   C3B20133  18.858  11.787   7.971
 1367POPC   C4B20134  18.752  11.968   7.611
 1368POPC   NC320135   7.430   7.443   9.553
 1368POPC   PO420136   6.897   7.769   9.364
 1368POPC   GL120137   7.188   7.546   9.103
 1368POPC   GL220138   7.304   7.197   9.111
 1368POPC   C1A20139   7.331   7.535   8.681
 1368POPC   D2A20140   7.657   7.384   8.428
 1368POPC   C3A20141   7.530   7.208   8.062
 1368POPC   C4A20142   7.564   7.356   7.674
 1368POPC   C1B20143   7.044   7.104   8.740
 1368POPC   C2B20144   7.100   7.009   8.292
 1368POPC   C3B20145   7.062   7.312   7.926
 1368POPC   C4B20146   6.773   7.433   7.634
 1369POPC   NC320147  44.283  35.924   9.287
 1369POPC   PO420148  44.144  35.302   9.545
 1369POPC   GL120149  43.999  35.372   9.164
 1369POPC   GL220150  43.872  35.691   9.049
 1369POPC   C1A20151  43.758  35.184   8.871
 1369POPC   D2A20152  43.918  35.106   8.476
 1369POPC   C3A20153  43.785  35.341   8.100
 1369POPC   C4A20154  43.918  35.357   7.652
 1369POPC   C1B20155  43.772  35.617   8.599
 1369POPC   C2B20156  43.392  35.689   8.352
 1369POPC   C3B20157  43.407  35.671   7.921
 1369POPC   C4B20158  43.806  35.816   7.834
 1370POPC   NC320159  16.133  37.395   9.470
 1370POPC   PO420160  15.771  37.978   9.669
 1370POPC   GL120161  15.744  37.732   9.244
 1370POPC   GL220162  16.090  37.742   9.112
 1370POPC   C1A20163  15.739  37.580   8.772
 1370POPC   D2A20164  15.916  37.482   8.344
 1370POPC   C3A20165  15.786  37.760   8.035
 1370POPC   C4A20166  15.781  38.140   7.795
 1370POPC   C1B20167  16.297  37.542   8.764
 1370POPC   C2B20168  16.434  37.504   8.329
 1370POPC   C3B20169  16.295  37.579   7.883
 1370POPC   C4B20170  16.338  37.465   7.396
 1371POPC   NC320171  38.253   5.229   9.455
 1371POPC   PO420172  38.855   4.915   9.702
 1371POPC   GL120173  38.669   4.926   9.227
 1371POPC   GL220174  38.352   5.044   9.008
 1371POPC   C1A20175  38.791   4.967   8.795
 1371POPC   D2A20176  38.500   5.035   8.480
 1371POPC   C3A20177  38.588   5.127   8.082
 1371POPC   C4A20178  38.461   4.750   7.894
 1371POPC   C1B20179  38.331   5.430   8.738
 1371POPC   C2B20180  38.389   5.537   8.307
 1371POPC   C3B20181  38.127   5.402   7.967
 1371POPC   C4B20182  38.273   5.166   7.676
 1372POPC   NC320183   7.016  22.446   9.597
 1372POPC   PO420184   7.416  21.856   9.525
 1372POPC   GL120185   7.342  22.191   9.195
 1372POPC   GL220186   7.530  21.984   9.035
 1372POPC   C1A20187   7.605  22.431   8.847
 1372POPC   D2A20188   7.613  22.532   8.425
 1372POPC   C3A20189   7.676  22.205   8.158
 1372POPC   C4A20190   7.595  22.318   7.775
 1372POPC   C1B20191   7.273  21.786   8.743
 1372POPC   C2B20192   7.370  21.886   8.383
 1372POPC   C3B20193   7.204  22.076   8.023
 1372POPC   C4B20194   7.215  21.820   7.622
 1373POPC   NC320195  18.470   9.606   9.353
 1373POPC   PO420196  18.229  10.300   9.474
 1373POPC   GL120197  18.229   9.968   9.059
 1373POPC   GL220198  18.464   9.651   8.859
 1373POPC   C1A20199  18.154   9.930   8.593
 1373POPC   D2A20200  18.444   9.721   8.307
 1373POPC   C3A20201  18.476  10.010   7.965
 1373POPC   C4A20202  18.363   9.919   7.544
 1373POPC   C1B20203  18.079   9.462   8.777
 1373POPC   C2B20204  17.977   9.425   8.365
 1373POPC   C3B20205  18.060   9.603   7.966
 1373POPC   C4B20206  17.807   9.432   7.671
 1374POPC   NC320207   7.894  32.222   9.647
 1374POPC   PO420208   8.406  31.879   9.528
 1374POPC   GL120209   8.261  32.168   9.161
 1374POPC   GL220210   7.995  32.446   9.200
 1374POPC   C1A20211   8.335  32.228   8.679
 1374POPC   D2A20212   8.654  32.259   8.344
 1374POPC   C3A20213   8.569  32.059   7.946
 1374POPC   C4A20214   8.378  32.236   7.583
 1374POPC   C1B20215   7.839  32.298   8.818
 1374POPC   C2B20216   7.890  32.449   8.413
 1374POPC   C3B20217   8.124  32.286   8.103
 1374POPC   C4B20218   7.931  32.126   7.767
 1375POPC   NC320219   6.672  26.417   9.537
 1375POPC   PO420220   6.997  25.880   9.726
 1375POPC   GL120221   6.826  26.011   9.244
 1375POPC   GL220222   6.561  26.215   9.081
 1375POPC   C1A20223   6.861  25.815   8.779
 1375POPC   D2A20224   6.968  25.960   8.341
 1375POPC   C3A20225   6.703  25.851   7.973
 1375POPC   C4A20226   6.847  25.681   7.563
 1375POPC   C1B20227   6.762  26.309   8.743
 1375POPC   C2B20228   6.606  26.322   8.360
 1375POPC   C3B20229   6.790  26.361   7.982
 1375POPC   C4B20230   6.613  26.452   7.624
 1376POPC   NC320231   4.342  38.249   9.675
 1376POPC   PO420232   4.689  38.779   9.405
 1376POPC   GL120233   4.361  38.550   9.169
 1376POPC   GL220234   4.085  38.307   9.234
 1376POPC   C1A20235   4.399  38.263   8.805
 1376POPC   D2A20236   4.233  38.224   8.374
 1376POPC   C3A20237   4.493  38.272   7.990
 1376POPC   C4A20238   4.768  38.289   7.649
 1376POPC   C1B20239   3.946  38.496   8.842
 1376POPC   C2B20240   4.125  38.715   8.467
 1376POPC   C3B20241   4.076  38.584   8.033
 1376POPC   C4B20242   4.011  38.191   7.772
 1377POPC   NC320243  15.736  12.643   9.454
 1377POPC   PO420244  15.943  13.259   9.453
 1377POPC   GL120245  15.890  13.006   9.113
 1377POPC   GL220246  16.193  12.830   9.227
 1377POPC   C1A20247  15.732  12.795   8.730
 1377POPC   D2A20248  15.514  12.514   8.414
 1377POPC   C3A20249  15.652  12.649   8.007
 1377POPC   C4A20250  15.919  12.811   7.712
 1377POPC   C1B20251  16.230  12.588   8.847
 1377POPC   C2B20252  16.056  12.470   8.449
 1377POPC   C3B20253  16.181  12.495   8.001
 1377POPC   C4B20254  16.224  12.436   7.549
 1378POPC   NC320255  14.187  11.975   9.265
 1378POPC   PO420256  14.538  12.401   9.446
 1378POPC   GL120257  14.646  12.212   9.080
 1378POPC   GL220258  14.641  12.572   8.950
 1378POPC   C1A20259  14.749  11.955   8.704
 1378POPC   D2A20260  14.588  11.667   8.395
 1378POPC   C3A20261  14.379  11.876   8.059
 1378POPC   C4A20262  14.577  12.116   7.774
 1378POPC   C1B20263  14.278  12.395   8.770
 1378POPC   C2B20264  14.206  12.148   8.461
 1378POPC   C3B20265  14.326  12.384   8.113
 1378POPC   C4B20266  14.076  12.362   7.738
 1379POPC   NC320267  13.308  25.243   9.722
 1379POPC   PO420268  13.731  24.907   9.597
 1379POPC   GL120269  13.699  25.289   9.276
 1379POPC   GL220270  13.991  25.548   9.271
 1379POPC   C1A20271  13.784  25.310   8.828
 1379POPC   D2A20272  13.559  25.314   8.415
 1379POPC   C3A20273  13.603  25.226   7.937
 1379POPC   C4A20274  13.217  25.193   7.666
 1379POPC   C1B20275  13.943  25.804   8.899
 1379POPC   C2B20276  13.883  25.710   8.485
 1379POPC   C3B20277  13.674  25.697   8.094
 1379POPC   C4B20278  13.824  25.638   7.677
 1380POPC   NC320279   8.806  27.794   9.488
 1380POPC   PO420280   8.819  27.050   9.520
 1380POPC   GL120281   8.775  27.310   9.199
 1380POPC   GL220282   9.112  27.469   9.189
 1380POPC   C1A20283   8.778  27.434   8.796
 1380POPC   D2A20284   9.049  27.402   8.483
 1380POPC   C3A20285   8.841  27.461   8.105
 1380POPC   C4A20286   8.973  27.577   7.719
 1380POPC   C1B20287   9.198  27.750   8.831
 1380POPC   C2B20288   9.104  27.916   8.419
 1380POPC   C3B20289   9.017  28.020   8.012
 1380POPC   C4B20290   9.253  27.977   7.619
 1381POPC   NC320291  38.845  11.946   9.426
 1381POPC   PO420292  39.155  12.510   9.645
 1381POPC   GL120293  39.142  12.299   9.205
 1381POPC   GL220294  38.842  12.348   9.030
 1381POPC   C1A20295  39.207  11.987   8.834
 1381POPC   D2A20296  39.277  12.056   8.379
 1381POPC   C3A20297  39.457  11.855   8.033
 1381POPC   C4A20298  39.323  11.796   7.621
 1381POPC   C1B20299  39.039  12.413   8.663
 1381POPC   C2B20300  39.322  12.569   8.420
 1381POPC   C3B20301  39.173  12.463   8.024
 1381POPC   C4B20302  39.090  12.430   7.599
 1382POPC   NC320303  23.233  26.673   9.596
 1382POPC   PO420304  23.827  27.159   9.466
 1382POPC   GL120305  23.697  26.891   9.120
 1382POPC   GL220306  23.412  26.655   9.144
 1382POPC   C1A20307  23.694  26.648   8.739
 1382POPC   D2A20308  23.923  26.583   8.405
 1382POPC   C3A20309  23.691  26.819   8.126
 1382POPC   C4A20310  23.708  26.721   7.711
 1382POPC   C1B20311  23.256  26.937   8.828
 1382POPC   C2B20312  23.314  27.218   8.468
 1382POPC   C3B20313  23.307  27.133   8.024
 1382POPC   C4B20314  23.199  26.775   7.795
 1383POPC   NC320315   6.255  34.776   9.457
 1383POPC   PO420316   6.741  34.363   9.508
 1383POPC   GL120317   6.554  34.484   9.133
 1383POPC   GL220318   6.484  34.828   9.022
 1383POPC   C1A20319   6.543  34.424   8.706
 1383POPC   D2A20320   6.801  34.425   8.391
 1383POPC   C3A20321   6.619  34.359   8.019
 1383POPC   C4A20322   6.593  34.323   7.601
 1383POPC   C1B20323   6.251  34.987   8.659
 1383POPC   C2B20324   6.393  34.745   8.298
 1383POPC   C3B20325   6.800  34.827   8.089
 1383POPC   C4B20326   6.845  34.804   7.690
 1384POPC   NC320327  13.827  33.168   9.905
 1384POPC   PO420328  13.560  33.672   9.616
 1384POPC   GL120329  13.223  33.754   9.293
 1384POPC   GL220330  13.230  34.073   9.127
 1384POPC   C1A20331  13.237  33.661   8.840
 1384POPC   D2A20332  13.369  33.909   8.461
 1384POPC   C3A20333  13.392  33.690   8.053
 1384POPC   C4A20334  13.511  33.798   7.621
 1384POPC   C1B20335  13.626  34.170   8.843
 1384POPC   C2B20336  13.851  34.130   8.412
 1384POPC   C3B20337  13.860  33.978   7.964
 1384POPC   C4B20338  13.948  34.103   7.508
 1385POPC   NC320339   9.857  23.650   9.410
 1385POPC   PO420340   9.352  23.911   9.741
 1385POPC   GL120341   9.373  23.631   9.228
 1385POPC   GL220342   9.592  23.430   9.052
 1385POPC   C1A20343   9.444  23.756   8.709
 1385POPC   D2A20344   9.672  23.519   8.364
 1385POPC   C3A20345   9.794  23.750   7.976
 1385POPC   C4A20346   9.543  24.091   7.839
 1385POPC   C1B20347   9.392  23.199   8.730
 1385POPC   C2B20348   9.457  23.062   8.294
 1385POPC   C3B20349   9.503  23.309   7.884
 1385POPC   C4B20350   9.418  23.326   7.415
 1386POPC   NC320351  40.862  24.066   9.830
 1386POPC   PO420352  41.241  23.576   9.561
 1386POPC   GL120353  41.057  23.558   9.120
 1386POPC   GL220354  40.685  23.535   9.081
 1386POPC   C1A20355  41.007  23.749   8.720
 1386POPC   D2A20356  40.792  23.799   8.342
 1386POPC   C3A20357  40.901  24.115   8.125
 1386POPC   C4A20358  41.108  23.906   7.824
 1386POPC   C1B20359  40.490  23.658   8.714
 1386POPC   C2B20360  40.260  23.645   8.345
 1386POPC   C3B20361  40.483  23.673   7.929
 1386POPC   C4B20362  40.591  23.515   7.499
 1387POPC   NC320363  25.332  34.239   9.629
 1387POPC   PO420364  25.420  34.885   9.569
 1387POPC   GL120365  25.162  34.614   9.284
 1387POPC   GL220366  25.484  34.508   9.209
 1387POPC   C1A20367  25.160  34.353   8.855
 1387POPC   D2A20368  25.431  34.456   8.519
 1387POPC   C3A20369  25.328  34.483   8.102
 1387POPC   C4A20370  25.481  34.334   7.718
 1387POPC   C1B20371  25.383  34.872   8.904
 1387POPC   C2B20372  25.443  34.969   8.489
 1387POPC   C3B20373  25.584  34.924   8.090
 1387POPC   C4B20374  25.386  34.828   7.724
 1388POPC   NC320375  21.459  44.251   9.539
 1388POPC   PO420376  20.988  44.835   9.454
 1388POPC   GL120377  21.353  44.656   9.226
 1388POPC   GL220378  21.163  44.351   9.135
 1388POPC   C1A20379  21.565  44.483   8.826
 1388POPC   D2A20380  21.739  44.567   8.383
 1388POPC   C3A20381  21.542  44.563   7.978
 1388POPC   C4A20382  21.606  44.627   7.518
 1388POPC   C1B20383  21.058  44.656   8.814
 1388POPC   C2B20384  21.203  44.590   8.416
 1388POPC   C3B20385  20.981  44.655   8.076
 1388POPC   C4B20386  21.146  44.707   7.688
 1389POPC   NC320387   8.667   4.083   9.536
 1389POPC   PO420388   8.097   4.505   9.596
 1389POPC   GL120389   8.028   4.389   9.167
 1389POPC   GL220390   8.141   4.042   9.110
 1389POPC   C1A20391   8.197   4.470   8.760
 1389POPC   D2A20392   7.966   4.443   8.416
 1389POPC   C3A20393   8.115   4.509   8.031
 1389POPC   C4A20394   7.904   4.445   7.678
 1389POPC   C1B20395   8.301   3.988   8.667
 1389POPC   C2B20396   8.319   4.077   8.244
 1389POPC   C3B20397   8.287   4.031   7.803
 1389POPC   C4B20398   8.335   4.261   7.426
 1390POPC   NC320399  10.919  41.344   9.530
 1390POPC   PO420400  11.428  41.784   9.456
 1390POPC   GL120401  11.290  41.457   9.201
 1390POPC   GL220402  10.951  41.548   9.068
 1390POPC   C1A20403  11.374  41.343   8.820
 1390POPC   D2A20404  11.249  41.529   8.431
 1390POPC   C3A20405  11.406  41.398   8.013
 1390POPC   C4A20406  11.487  41.747   7.794
 1390POPC   C1B20407  10.990  41.880   8.792
 1390POPC   C2B20408  10.861  41.880   8.361
 1390POPC   C3B20409  10.966  41.622   8.003
 1390POPC   C4B20410  11.021  41.635   7.547
 1391POPC   NC320411   4.486  19.586   9.659
 1391POPC   PO420412   4.016  20.067   9.452
 1391POPC   GL120413   4.089  19.895   9.050
 1391POPC   GL220414   4.431  19.766   8.998
 1391POPC   C1A20415   4.119  19.982   8.623
 1391POPC   D2A20416   4.385  20.147   8.337
 1391POPC   C3A20417   4.316  20.028   7.921
 1391POPC   C4A20418   4.019  19.803   7.689
 1391POPC   C1B20419   4.639  19.448   8.754
 1391POPC   C2B20420   4.864  19.396   8.371
 1391POPC   C3B20421   4.720  19.371   7.961
 1391POPC   C4B20422   4.495  19.629   7.659
 1392POPC   NC320423  39.429  16.584   9.698
 1392POPC   PO420424  38.794  16.735   9.511
 1392POPC   GL120425  38.999  16.699   9.148
 1392POPC   GL220426  39.329  16.818   9.239
 1392POPC   C1A20427  39.075  16.576   8.722
 1392POPC   D2A20428  39.040  16.729   8.285
 1392POPC   C3A20429  39.223  16.487   7.940
 1392POPC   C4A20430  39.076  16.454   7.509
 1392POPC   C1B20431  39.547  16.631   8.900
 1392POPC   C2B20432  39.521  16.766   8.482
 1392POPC   C3B20433  39.684  16.786   8.091
 1392POPC   C4B20434  39.732  16.455   7.867
 1393POPC   NC320435  44.901  10.797   9.464
 1393POPC   PO420436  44.627  10.110   9.559
 1393POPC   GL120437  44.880  10.322   9.207
 1393POPC   GL220438  44.720  10.130   8.961
 1393POPC   C1A20439  44.840  10.630   8.825
 1393POPC   D2A20440  44.612  10.758   8.421
 1393POPC   C3A20441  44.894  10.779   8.059
 1393POPC   C4A20442  44.868  10.884   7.633
 1393POPC   C1B20443  44.426  10.336   8.674
 1393POPC   C2B20444  44.248  10.405   8.262
 1393POPC   C3B20445  44.479  10.523   7.933
 1393POPC   C4B20446  44.804  10.288   7.856
 1394POPC   NC320447  42.384  38.268   9.477
 1394POPC   PO420448  42.906  38.606   9.473
 1394POPC   GL120449  42.572  38.549   9.086
 1394POPC   GL220450  42.163  38.545   9.069
 1394POPC   C1A20451  42.376  38.305   8.703
 1394POPC   D2A20452  42.024  38.491   8.440
 1394POPC   C3A20453  42.163  38.555   7.991
 1394POPC   C4A20454  42.361  38.297   7.671
 1394POPC   C1B20455  41.889  38.184   8.886
 1394POPC   C2B20456  41.676  38.088   8.478
 1394POPC   C3B20457  41.740  38.260   8.074
 1394POPC   C4B20458  41.909  38.073   7.702
 1395POPC   NC320459  26.414  25.909   9.324
 1395POPC   PO420460  26.975  26.303   9.452
 1395POPC   GL120461  26.833  26.128   9.110
 1395POPC   GL220462  26.518  26.302   9.045
 1395POPC   C1A20463  26.997  25.927   8.754
 1395POPC   D2A20464  26.847  26.106   8.372
 1395POPC   C3A20465  26.881  25.953   7.954
 1395POPC   C4A20466  26.564  25.774   7.660
 1395POPC   C1B20467  26.505  26.536   8.712
 1395POPC   C2B20468  26.742  26.603   8.350
 1395POPC   C3B20469  26.580  26.358   8.013
 1395POPC   C4B20470  26.412  26.364   7.613
 1396POPC   NC320471  27.788   5.026   9.655
 1396POPC   PO420472  27.306   5.446   9.470
 1396POPC   GL120473  27.592   5.181   9.233
 1396POPC   GL220474  27.399   4.896   9.338
 1396POPC   C1A20475  27.817   5.156   8.839
 1396POPC   D2A20476  27.616   5.144   8.418
 1396POPC   C3A20477  27.809   4.979   8.008
 1396POPC   C4A20478  27.836   4.962   7.557
 1396POPC   C1B20479  27.345   4.924   8.886
 1396POPC   C2B20480  27.254   4.737   8.530
 1396POPC   C3B20481  27.358   4.799   8.129
 1396POPC   C4B20482  27.362   4.710   7.717
 1397POPC   NC320483  36.068  20.293   9.493
 1397POPC   PO420484  36.079  20.961   9.449
 1397POPC   GL120485  36.089  20.714   9.091
 1397POPC   GL220486  36.346  20.467   9.112
 1397POPC   C1A20487  35.852  20.722   8.708
 1397POPC   D2A20488  35.865  20.575   8.257
 1397POPC   C3A20489  36.006  20.827   7.887
 1397POPC   C4A20490  36.357  20.786   7.583
 1397POPC   C1B20491  36.248  20.414   8.676
 1397POPC   C2B20492  36.475  20.506   8.292
 1397POPC   C3B20493  36.469  20.397   7.887
 1397POPC   C4B20494  36.101  20.366   7.692
 1398POPC   NC320495  43.714  37.344   9.638
 1398POPC   PO420496  43.924  36.648   9.550
 1398POPC   GL120497  43.792  36.995   9.236
 1398POPC   GL220498  43.568  36.905   8.981
 1398POPC   C1A20499  44.052  37.022   8.823
 1398POPC   D2A20500  44.369  37.025   8.457
 1398POPC   C3A20501  44.194  36.910   8.071
 1398POPC   C4A20502  44.119  37.043   7.687
 1398POPC   C1B20503  43.553  37.093   8.578
 1398POPC   C2B20504  43.518  37.139   8.116
 1398POPC   C3B20505  43.635  36.874   7.760
 1398POPC   C4B20506  43.445  36.699   7.392
 1399POPC   NC320507  12.540   9.395   9.992
 1399POPC   PO420508  12.815   9.870   9.613
 1399POPC   GL120509  12.901   9.610   9.261
 1399POPC   GL220510  12.882   9.924   9.099
 1399POPC   C1A20511  12.869   9.473   8.822
 1399POPC   D2A20512  12.600   9.467   8.442
 1399POPC   C3A20513  12.812   9.639   8.069
 1399POPC   C4A20514  13.245   9.606   7.873
 1399POPC   C1B20515  12.682   9.938   8.698
 1399POPC   C2B20516  12.461   9.953   8.317
 1399POPC   C3B20517  12.566  10.101   7.954
 1399POPC   C4B20518  12.988  10.077   7.850
 1400POPC   NC320519  27.366  43.639   9.585
 1400POPC   PO420520  27.897  44.026   9.475
 1400POPC   GL120521  27.646  43.759   9.152
 1400POPC   GL220522  27.279  43.831   9.116
 1400POPC   C1A20523  27.618  43.518   8.753
 1400POPC   D2A20524  27.584  43.669   8.345
 1400POPC   C3A20525  27.756  43.556   7.975
 1400POPC   C4A20526  27.788  43.827   7.603
 1400POPC   C1B20527  27.407  43.975   8.711
 1400POPC   C2B20528  27.272  44.154   8.309
 1400POPC   C3B20529  27.439  43.982   7.933
 1400POPC   C4B20530  27.315  43.594   7.700
 1401POPC   NC320531  25.769   7.571   9.589
 1401POPC   PO420532  26.453   7.521   9.456
 1401POPC   GL120533  26.204   7.210   9.215
 1401POPC   GL220534  25.872   7.307   9.172
 1401POPC   C1A20535  26.090   7.135   8.759
 1401POPC   D2A20536  25.835   7.074   8.395
 1401POPC   C3A20537  25.977   7.341   8.069
 1401POPC   C4A20538  25.931   7.296   7.626
 1401POPC   C1B20539  26.038   7.621   8.922
 1401POPC   C2B20540  26.189   7.599   8.517
 1401POPC   C3B20541  26.206   7.816   8.145
 1401POPC   C4B20542  25.999   7.783   7.762
 1402POPC   NC320543  28.945  25.365   9.504
 1402POPC   PO420544  29.533  24.953   9.513
 1402POPC   GL120545  29.380  25.229   9.185
 1402POPC   GL220546  29.642  25.493   9.242
 1402POPC   C1A20547  29.215  25.203   8.718
 1402POPC   D2A20548  29.002  25.490   8.399
 1402POPC   C3A20549  28.971  25.388   7.966
 1402POPC   C4A20550  29.076  25.009   7.759
 1402POPC   C1B20551  29.480  25.628   8.844
 1402POPC   C2B20552  29.599  25.444   8.458
 1402POPC   C3B20553  29.454  25.471   8.059
 1402POPC   C4B20554  29.319  25.475   7.622
 1403POPC   NC320555  39.445  28.587   9.529
 1403POPC   PO420556  38.927  28.206   9.355
 1403POPC   GL120557  39.301  28.266   9.147
 1403POPC   GL220558  39.441  27.987   9.099
 1403POPC   C1A20559  39.441  28.411   8.742
 1403POPC   D2A20560  39.251  28.522   8.359
 1403POPC   C3A20561  39.507  28.502   7.986
 1403POPC   C4A20562  39.303  28.527   7.574
 1403POPC   C1B20563  39.653  27.935   8.753
 1403POPC   C2B20564  39.478  28.063   8.360
 1403POPC   C3B20565  39.190  28.127   7.998
 1403POPC   C4B20566  39.456  28.061   7.602
 1404POPC   NC320567   4.024  17.757   9.421
 1404POPC   PO420568   4.091  17.085   9.293
 1404POPC   GL120569   4.340  17.377   9.118
 1404POPC   GL220570   4.486  17.709   9.179
 1404POPC   C1A20571   4.353  17.453   8.718
 1404POPC   D2A20572   4.148  17.580   8.379
 1404POPC   C3A20573   4.396  17.489   8.031
 1404POPC   C4A20574   4.459  17.237   7.711
 1404POPC   C1B20575   4.687  17.823   8.789
 1404POPC   C2B20576   4.575  17.851   8.386
 1404POPC   C3B20577   4.738  17.949   7.990
 1404POPC   C4B20578   4.586  17.841   7.610
 1405POPC   NC320579   1.250  29.536   9.497
 1405POPC   PO420580   1.415  28.923   9.733
 1405POPC   GL120581   1.151  28.999   9.248
 1405POPC   GL220582   0.950  29.265   9.174
 1405POPC   C1A20583   1.212  29.195   8.763
 1405POPC   D2A20584   1.047  29.110   8.359
 1405POPC   C3A20585   1.260  29.040   7.947
 1405POPC   C4A20586   1.191  29.269   7.552
 1405POPC   C1B20587   0.830  28.852   8.897
 1405POPC   C2B20588   0.763  28.702   8.462
 1405POPC   C3B20589   0.847  28.753   7.989
 1405POPC   C4B20590   1.121  28.701   7.574
 1406POPC   NC320591  20.893  27.770   9.773
 1406POPC   PO420592  21.414  27.363   9.573
 1406POPC   GL120593  21.251  27.446   9.196
 1406POPC   GL220594  20.972  27.708   9.262
 1406POPC   C1A20595  21.534  27.394   8.830
 1406POPC   D2A20596  21.603  27.249   8.415
 1406POPC   C3A20597  21.606  27.512   8.083
 1406POPC   C4A20598  21.357  27.447   7.753
 1406POPC   C1B20599  21.254  27.871   8.916
 1406POPC   C2B20600  21.451  27.798   8.509
 1406POPC   C3B20601  21.162  27.730   8.155
 1406POPC   C4B20602  21.044  27.849   7.758
 1407POPC   NC320603  19.725  42.495   9.452
 1407POPC   PO420604  19.719  43.146   9.504
 1407POPC   GL120605  19.969  43.253   9.117
 1407POPC   GL220606  20.224  43.544   9.118
 1407POPC   C1A20607  19.877  43.017   8.724
 1407POPC   D2A20608  20.020  42.744   8.373
 1407POPC   C3A20609  19.834  42.780   7.929
 1407POPC   C4A20610  19.684  42.844   7.472
 1407POPC   C1B20611  20.214  43.396   8.691
 1407POPC   C2B20612  19.973  43.281   8.292
 1407POPC   C3B20613  19.985  43.260   7.850
 1407POPC   C4B20614  20.137  43.595   7.631
 1408POPC   NC320615  35.532  13.939   9.543
 1408POPC   PO420616  35.146  13.362   9.515
 1408POPC   GL120617  35.386  13.550   9.168
 1408POPC   GL220618  35.562  13.845   9.064
 1408POPC   C1A20619  35.215  13.571   8.763
 1408POPC   D2A20620  35.233  13.745   8.369
 1408POPC   C3A20621  35.241  13.480   8.028
 1408POPC   C4A20622  35.260  13.691   7.698
 1408POPC   C1B20623  35.794  14.082   8.773
 1408POPC   C2B20624  35.890  13.968   8.346
 1408POPC   C3B20625  35.601  13.953   8.012
 1408POPC   C4B20626  35.666  13.993   7.572
 1409POPC   NC320627   1.789  12.631   9.446
 1409POPC   PO420628   2.203  13.186   9.454
 1409POPC   GL120629   1.996  12.975   9.131
 1409POPC   GL220630   2.143  12.660   9.083
 1409POPC   C1A20631   1.847  12.924   8.710
 1409POPC   D2A20632   1.931  13.262   8.410
 1409POPC   C3A20633   2.210  13.169   8.083
 1409POPC   C4A20634   1.975  13.074   7.733
 1409POPC   C1B20635   2.375  12.764   8.776
 1409POPC   C2B20636   2.232  12.741   8.384
 1409POPC   C3B20637   2.060  12.649   8.019
 1409POPC   C4B20638   2.256  12.658   7.636
 1410POPC   NC320639  10.396  24.936   9.706
 1410POPC   PO420640  10.761  25.421   9.558
 1410POPC   GL120641  10.405  25.406   9.270
 1410POPC   GL220642  10.383  25.048   9.191
 1410POPC   C1A20643  10.404  25.543   8.834
 1410POPC   D2A20644  10.699  25.425   8.500
 1410POPC   C3A20645  10.530  25.437   8.082
 1410POPC   C4A20646  10.408  25.581   7.696
 1410POPC   C1B20647  10.302  25.037   8.737
 1410POPC   C2B20648  10.471  24.988   8.306
 1410POPC   C3B20649  10.473  24.865   7.858
 1410POPC   C4B20650  10.211  25.143   7.582
 1411POPC   NC320651  43.423  17.611   9.674
 1411POPC   PO420652  42.976  17.250   9.661
 1411POPC   GL120653  43.207  17.357   9.281
 1411POPC   GL220654  42.866  17.409   9.135
 1411POPC   C1A20655  43.416  17.595   8.970
 1411POPC   D2A20656  43.502  17.645   8.547
 1411POPC   C3A20657  43.235  17.797   8.220
 1411POPC   C4A20658  43.275  17.709   7.799
 1411POPC   C1B20659  43.076  17.260   8.768
 1411POPC   C2B20660  43.126  17.312   8.341
 1411POPC   C3B20661  43.356  17.209   7.979
 1411POPC   C4B20662  43.259  17.259   7.544
 1412POPC   NC320663  13.214  12.693   9.443
 1412POPC   PO420664  12.560  12.924   9.559
 1412POPC   GL120665  12.739  12.896   9.179
 1412POPC   GL220666  12.543  13.178   9.063
 1412POPC   C1A20667  12.828  12.605   8.842
 1412POPC   D2A20668  12.591  12.520   8.453
 1412POPC   C3A20669  12.785  12.519   8.021
 1412POPC   C4A20670  13.007  12.671   7.606
 1412POPC   C1B20671  12.678  13.049   8.631
 1412POPC   C2B20672  13.032  12.805   8.426
 1412POPC   C3B20673  13.162  12.855   8.055
 1412POPC   C4B20674  12.874  13.104   7.870
 1413POPC   NC320675  37.173  19.215   9.429
 1413POPC   PO420676  37.794  18.897   9.551
 1413POPC   GL120677  37.600  18.852   9.165
 1413POPC   GL220678  37.372  18.562   9.199
 1413POPC   C1A20679  37.811  18.976   8.755
 1413POPC   D2A20680  37.857  19.052   8.321
 1413POPC   C3A20681  37.541  19.277   8.153
 1413POPC   C4A20682  37.715  19.183   7.797
 1413POPC   C1B20683  37.269  18.673   8.805
 1413POPC   C2B20684  37.399  18.860   8.434
 1413POPC   C3B20685  37.457  18.783   7.987
 1413POPC   C4B20686  37.662  18.723   7.547
 1414POPC   NC320687   8.600   8.921   9.541
 1414POPC   PO420688   7.908   9.037   9.514
 1414POPC   GL120689   8.114   9.049   9.139
 1414POPC   GL220690   8.467   9.170   9.103
 1414POPC   C1A20691   8.241   8.717   8.874
 1414POPC   D2A20692   8.338   8.698   8.428
 1414POPC   C3A20693   7.977   8.690   8.159
 1414POPC   C4A20694   7.935   8.771   7.711
 1414POPC   C1B20695   8.279   9.169   8.658
 1414POPC   C2B20696   8.293   9.383   8.269
 1414POPC   C3B20697   8.215   9.241   7.852
 1414POPC   C4B20698   8.444   9.375   7.486
 1415POPC   NC320699  22.463  42.042   9.772
 1415POPC   PO420700  22.992  42.403   9.490
 1415POPC   GL120701  23.020  42.204   9.142
 1415POPC   GL220702  23.344  42.128   9.067
 1415POPC   C1A20703  22.687  42.260   8.872
 1415POPC   D2A20704  22.573  42.432   8.462
 1415POPC   C3A20705  22.797  42.270   8.086
 1415POPC   C4A20706  22.742  42.426   7.659
 1415POPC   C1B20707  23.131  42.293   8.655
 1415POPC   C2B20708  23.014  42.663   8.382
 1415POPC   C3B20709  23.121  42.658   7.931
 1415POPC   C4B20710  23.208  42.574   7.488
 1416POPC   NC320711  20.951  36.323   9.537
 1416POPC   PO420712  20.300  36.087   9.501
 1416POPC   GL120713  20.639  36.121   9.160
 1416POPC   GL220714  20.852  36.430   9.063
 1416POPC   C1A20715  20.742  35.886   8.795
 1416POPC   D2A20716  20.570  35.773   8.417
 1416POPC   C3A20717  20.398  36.116   8.122
 1416POPC   C4A20718  20.620  36.357   7.785
 1416POPC   C1B20719  21.053  36.269   8.711
 1416POPC   C2B20720  20.878  36.178   8.322
 1416POPC   C3B20721  20.830  35.906   7.984
 1416POPC   C4B20722  21.045  36.080   7.720
 1417POPC   NC320723  16.841  19.413   9.434
 1417POPC   PO420724  16.525  19.898   9.630
 1417POPC   GL120725  16.555  19.961   9.193
 1417POPC   GL220726  16.915  20.045   9.142
 1417POPC   C1A20727  16.638  19.763   8.800
 1417POPC   D2A20728  16.831  19.599   8.446
 1417POPC   C3A20729  16.671  19.719   8.058
 1417POPC   C4A20730  16.919  19.673   7.695
 1417POPC   C1B20731  16.934  20.195   8.724
 1417POPC   C2B20732  16.742  20.175   8.321
 1417POPC   C3B20733  16.944  20.163   7.893
 1417POPC   C4B20734  16.992  20.091   7.429
 1418POPC   NC320735  35.751   5.060   9.441
 1418POPC   PO420736  36.404   5.094   9.513
 1418POPC   GL120737  36.126   5.050   9.085
 1418POPC   GL220738  35.770   4.896   8.975
 1418POPC   C1A20739  36.089   5.068   8.600
 1418POPC   D2A20740  36.233   5.150   8.158
 1418POPC   C3A20741  36.003   5.381   7.839
 1418POPC   C4A20742  36.264   5.602   7.502
 1418POPC   C1B20743  35.798   4.645   8.625
 1418POPC   C2B20744  36.079   4.681   8.249
 1418POPC   C3B20745  36.299   4.684   7.874
 1418POPC   C4B20746  36.216   4.794   7.409
 1419POPC   NC320747  16.980   9.686   9.584
 1419POPC   PO420748  16.371   9.907   9.357
 1419POPC   GL120749  16.750   9.869   9.110
 1419POPC   GL220750  16.883   9.555   9.110
 1419POPC   C1A20751  16.999   9.835   8.709
 1419POPC   D2A20752  17.117   9.874   8.302
 1419POPC   C3A20753  16.818  10.094   8.048
 1419POPC   C4A20754  16.639   9.944   7.646
 1419POPC   C1B20755  17.069   9.329   8.779
 1419POPC   C2B20756  16.882   9.409   8.398
 1419POPC   C3B20757  16.751   9.572   8.016
 1419POPC   C4B20758  16.783   9.395   7.614
 1420POPC   NC320759   2.741  29.568   9.592
 1420POPC   PO420760   2.392  28.989   9.669
 1420POPC   GL120761   2.594  29.023   9.250
 1420POPC   GL220762   2.849  29.261   9.201
 1420POPC   C1A20763   2.657  28.939   8.813
 1420POPC   D2A20764   2.868  29.154   8.461
 1420POPC   C3A20765   2.746  29.100   8.049
 1420POPC   C4A20766   2.993  29.002   7.678
 1420POPC   C1B20767   3.095  29.377   8.860
 1420POPC   C2B20768   3.057  29.663   8.507
 1420POPC   C3B20769   2.864  29.623   8.093
 1420POPC   C4B20770   2.767  29.452   7.676
 1421POPC   NC320771  19.770  44.862   9.485
 1421POPC   PO420772  19.342  44.276   9.662
 1421POPC   GL120773  19.563  44.379   9.200
 1421POPC   GL220774  19.869  44.527   9.114
 1421POPC   C1A20775  19.564  44.269   8.781
 1421POPC   D2A20776  19.361  44.481   8.410
 1421POPC   C3A20777  19.486  44.646   8.045
 1421POPC   C4A20778  19.817  44.536   7.767
 1421POPC   C1B20779  19.668  44.739   8.756
 1421POPC   C2B20780  19.629   0.001   8.413
 1421POPC   C3B20781  19.822  44.999   7.990
 1421POPC   C4B20782  19.718  44.977   7.542
 1422POPC   NC320783  31.395  24.252   9.562
 1422POPC   PO420784  31.224  24.873   9.758
 1422POPC   GL120785  31.347  24.751   9.252
 1422POPC   GL220786  31.645  24.530   9.210
 1422POPC   C1A20787  31.503  24.830   8.779
 1422POPC   D2A20788  31.475  24.635   8.394
 1422POPC   C3A20789  31.760  24.619   8.063
 1422POPC   C4A20790  31.582  24.587   7.670
 1422POPC   C1B20791  31.520  24.314   8.859
 1422POPC   C2B20792  31.307  24.161   8.497
 1422POPC   C3B20793  31.387  24.251   8.055
 1422POPC   C4B20794  31.282  24.151   7.645
 1423POPC   NC320795  10.329  21.291   9.858
 1423POPC   PO420796  10.857  21.364   9.510
 1423POPC   GL120797  10.483  21.416   9.229
 1423POPC   GL220798  10.652  21.390   8.936
 1423POPC   C1A20799  10.167  21.305   8.851
 1423POPC   D2A20800  10.362  21.244   8.472
 1423POPC   C3A20801  10.248  21.455   8.114
 1423POPC   C4A20802  10.142  21.318   7.734
 1423POPC   C1B20803  10.883  21.241   8.592
 1423POPC   C2B20804  10.905  21.266   8.143
 1423POPC   C3B20805  10.692  21.516   7.841
 1423POPC   C4B20806  10.855  21.807   7.507
 1424POPC   NC320807  37.141  12.426   9.572
 1424POPC   PO420808  36.696  12.027   9.407
 1424POPC   GL120809  36.714  12.263   9.045
 1424POPC   GL220810  37.079  12.265   9.066
 1424POPC   C1A20811  36.859  12.343   8.616
 1424POPC   D2A20812  37.126  12.207   8.332
 1424POPC   C3A20813  36.966  12.197   7.927
 1424POPC   C4A20814  37.283  12.397   7.747
 1424POPC   C1B20815  36.953  11.869   8.790
 1424POPC   C2B20816  36.818  11.791   8.355
 1424POPC   C3B20817  36.977  11.697   7.925
 1424POPC   C4B20818  37.215  11.895   7.542
 1425POPC   NC320819  27.851  17.528   9.629
 1425POPC   PO420820  28.517  17.319   9.563
 1425POPC   GL120821  28.381  17.351   9.145
 1425POPC   GL220822  28.497  17.048   9.088
 1425POPC   C1A20823  28.490  17.692   8.801
 1425POPC   D2A20824  28.729  17.739   8.395
 1425POPC   C3A20825  28.518  17.553   8.086
 1425POPC   C4A20826  28.064  17.619   7.941
 1425POPC   C1B20827  28.213  17.067   8.740
 1425POPC   C2B20828  28.166  17.212   8.303
 1425POPC   C3B20829  28.294  17.182   7.855
 1425POPC   C4B20830  28.539  17.221   7.513
 1426POPC   NC320831   1.633  17.596   9.512
 1426POPC   PO420832   2.141  17.213   9.521
 1426POPC   GL120833   2.263  17.489   9.181
 1426POPC   GL220834   2.019  17.766   9.141
 1426POPC   C1A20835   2.155  17.345   8.781
 1426POPC   D2A20836   1.786  17.243   8.489
 1426POPC   C3A20837   1.807  17.332   8.042
 1426POPC   C4A20838   1.904  17.174   7.653
 1426POPC   C1B20839   1.810  17.716   8.726
 1426POPC   C2B20840   2.081  17.638   8.347
 1426POPC   C3B20841   2.169  17.691   7.914
 1426POPC   C4B20842   2.299  17.509   7.547
 1427POPC   NC320843  43.625   9.385   9.554
 1427POPC   PO420844  44.158   8.915   9.433
 1427POPC   GL120845  44.045   8.793   9.024
 1427POPC   GL220846  43.694   8.739   8.984
 1427POPC   C1A20847  44.168   8.743   8.597
 1427POPC   D2A20848  44.139   9.006   8.230
 1427POPC   C3A20849  43.856   8.812   7.941
 1427POPC   C4A20850  43.634   8.436   8.074
 1427POPC   C1B20851  43.749   9.097   8.648
 1427POPC   C2B20852  43.650   9.212   8.187
 1427POPC   C3B20853  43.543   9.172   7.709
 1427POPC   C4B20854  43.397   9.045   7.282
 1428POPC   NC320855  23.328  14.208   9.484
 1428POPC   PO420856  23.941  14.604   9.457
 1428POPC   GL120857  23.730  14.352   9.202
 1428POPC   GL220858  23.541  14.603   9.061
 1428POPC   C1A20859  23.865  14.133   8.856
 1428POPC   D2A20860  23.788  14.093   8.462
 1428POPC   C3A20861  23.878  14.459   8.237
 1428POPC   C4A20862  24.183  14.490   7.916
 1428POPC   C1B20863  23.369  14.225   8.832
 1428POPC   C2B20864  23.282  14.135   8.419
 1428POPC   C3B20865  23.481  14.102   8.040
 1428POPC   C4B20866  23.677  14.384   7.773
 1429POPC   NC320867  14.747  18.652   9.523
 1429POPC   PO420868  14.233  19.173   9.427
 1429POPC   GL120869  14.245  19.090   9.045
 1429POPC   GL220870  14.421  18.791   9.127
 1429POPC   C1A20871  14.242  19.228   8.615
 1429POPC   D2A20872  14.555  19.214   8.285
 1429POPC   C3A20873  14.477  19.248   7.859
 1429POPC   C4A20874  14.180  19.304   7.565
 1429POPC   C1B20875  14.617  18.891   8.736
 1429POPC   C2B20876  14.485  18.717   8.353
 1429POPC   C3B20877  14.668  18.808   7.982
 1429POPC   C4B20878  14.464  18.781   7.600
 1430POPC   NC320879  13.644  35.669   9.498
 1430POPC   PO420880  13.091  35.356   9.434
 1430POPC   GL120881  13.488  35.330   9.171
 1430POPC   GL220882  13.516  35.639   9.022
 1430POPC   C1A20883  13.769  35.286   8.795
 1430POPC   D2A20884  13.927  35.181   8.400
 1430POPC   C3A20885  13.684  34.932   8.103
 1430POPC   C4A20886  13.713  35.045   7.664
 1430POPC   C1B20887  13.361  35.604   8.634
 1430POPC   C2B20888  13.226  35.375   8.348
 1430POPC   C3B20889  13.479  35.362   8.001
 1430POPC   C4B20890  13.825  35.553   7.801
 1431POPC   NC320891   6.486  41.402   9.538
 1431POPC   PO420892   6.480  40.689   9.593
 1431POPC   GL120893   6.703  40.975   9.280
 1431POPC   GL220894   6.671  40.731   9.033
 1431POPC   C1A20895   6.908  41.106   8.828
 1431POPC   D2A20896   6.806  40.860   8.442
 1431POPC   C3A20897   6.629  41.114   8.099
 1431POPC   C4A20898   6.513  41.147   7.673
 1431POPC   C1B20899   6.407  40.561   8.707
 1431POPC   C2B20900   6.322  40.287   8.374
 1431POPC   C3B20901   6.349  40.564   8.044
 1431POPC   C4B20902   6.645  40.669   7.730
 1432POPC   NC320903  19.986  36.378   9.283
 1432POPC   PO420904  19.599  36.031   9.729
 1432POPC   GL120905  19.911  35.893   9.202
 1432POPC   GL220906  20.273  35.735   9.156
 1432POPC   C1A20907  19.731  35.933   8.719
 1432POPC   D2A20908  19.485  36.214   8.456
 1432POPC   C3A20909  19.387  36.174   8.028
 1432POPC   C4A20910  19.592  36.074   7.660
 1432POPC   C1B20911  20.231  35.918   8.766
 1432POPC   C2B20912  20.051  35.813   8.352
 1432POPC   C3B20913  19.887  36.157   8.099
 1432POPC   C4B20914  20.068  36.314   7.704
 1433POPC   NC320915  29.383  44.322   9.710
 1433POPC   PO420916  29.911  43.998   9.424
 1433POPC   GL120917  30.018  43.951   9.059
 1433POPC   GL220918  30.156  43.618   9.096
 1433POPC   C1A20919  29.827  44.133   8.716
 1433POPC   D2A20920  29.923  44.132   8.322
 1433POPC   C3A20921  29.586  44.125   8.029
 1433POPC   C4A20922  29.642  44.208   7.638
 1433POPC   C1B20923  29.928  43.641   8.691
 1433POPC   C2B20924  29.777  43.637   8.274
 1433POPC   C3B20925  29.963  43.808   7.906
 1433POPC   C4B20926  30.332  43.919   7.676
 1434POPC   NC320927  32.704  21.600   9.268
 1434POPC   PO420928  32.486  21.201   9.729
 1434POPC   GL120929  32.454  21.144   9.232
 1434POPC   GL220930  32.163  21.277   9.087
 1434POPC   C1A20931  32.436  20.989   8.768
 1434POPC   D2A20932  32.118  20.952   8.408
 1434POPC   C3A20933  32.170  21.240   8.041
 1434POPC   C4A20934  32.521  21.186   7.770
 1434POPC   C1B20935  32.298  21.490   8.686
 1434POPC   C2B20936  32.255  21.687   8.263
 1434POPC   C3B20937  31.911  21.722   7.898
 1434POPC   C4B20938  31.915  21.652   7.391
 1435POPC   NC320939  23.570  38.370   9.664
 1435POPC   PO420940  23.882  37.957   9.305
 1435POPC   GL120941  23.574  38.133   9.086
 1435POPC   GL220942  23.335  38.353   9.200
 1435POPC   C1A20943  23.525  38.205   8.682
 1435POPC   D2A20944  23.730  38.392   8.366
 1435POPC   C3A20945  23.708  38.306   7.942
 1435POPC   C4A20946  23.889  38.700   7.755
 1435POPC   C1B20947  23.482  38.668   8.893
 1435POPC   C2B20948  23.487  38.824   8.445
 1435POPC   C3B20949  23.400  38.697   7.964
 1435POPC   C4B20950  23.329  38.757   7.472
 1436POPC   NC320951  35.051  19.680   9.354
 1436POPC   PO420952  35.691  20.006   9.492
 1436POPC   GL120953  35.428  19.957   9.108
 1436POPC   GL220954  35.162  20.195   9.117
 1436POPC   C1A20955  35.412  19.784   8.680
 1436POPC   D2A20956  35.140  19.755   8.327
 1436POPC   C3A20957  35.268  19.928   7.971
 1436POPC   C4A20958  35.345  19.978   7.572
 1436POPC   C1B20959  35.046  20.147   8.689
 1436POPC   C2B20960  35.022  20.257   8.255
 1436POPC   C3B20961  34.878  20.210   7.833
 1436POPC   C4B20962  34.862  19.998   7.425
 1437POPC   NC320963   7.917  33.252   9.505
 1437POPC   PO420964   7.975  32.667   9.689
 1437POPC   GL120965   8.226  32.897   9.293
 1437POPC   GL220966   7.961  32.989   9.058
 1437POPC   C1A20967   8.396  33.194   8.919
 1437POPC   D2A20968   8.673  33.281   8.564
 1437POPC   C3A20969   8.430  33.166   8.230
 1437POPC   C4A20970   8.418  33.180   7.798
 1437POPC   C1B20971   8.156  32.724   8.770
 1437POPC   C2B20972   8.351  32.676   8.368
 1437POPC   C3B20973   8.402  32.681   7.938
 1437POPC   C4B20974   8.019  32.624   7.688
 1438POPC   NC320975  34.673  23.231   9.456
 1438POPC   PO420976  34.430  22.560   9.390
 1438POPC   GL120977  34.640  22.852   9.131
 1438POPC   GL220978  34.368  23.056   9.069
 1438POPC   C1A20979  34.766  23.080   8.728
 1438POPC   D2A20980  34.768  23.358   8.318
 1438POPC   C3A20981  34.757  23.151   7.914
 1438POPC   C4A20982  34.809  22.693   7.904
 1438POPC   C1B20983  34.330  22.804   8.713
 1438POPC   C2B20984  34.504  22.878   8.311
 1438POPC   C3B20985  34.322  22.902   7.905
 1438POPC   C4B20986  34.496  22.972   7.481
 1439POPC   NC320987  19.544  33.363   9.570
 1439POPC   PO420988  19.975  33.857   9.582
 1439POPC   GL120989  19.713  34.022   9.265
 1439POPC   GL220990  19.813  33.721   9.105
 1439POPC   C1A20991  19.643  34.086   8.809
 1439POPC   D2A20992  19.804  33.986   8.385
 1439POPC   C3A20993  19.584  34.058   8.021
 1439POPC   C4A20994  19.531  33.923   7.633
 1439POPC   C1B20995  19.772  33.569   8.686
 1439POPC   C2B20996  19.906  33.466   8.286
 1439POPC   C3B20997  19.718  33.501   7.885
 1439POPC   C4B20998  19.960  33.633   7.544
 1440POPC   NC320999   7.097  43.381   9.469
 1440POPC   PO421000   7.833  43.117   9.438
 1440POPC   GL121001   7.553  43.030   9.141
 1440POPC   GL221002   7.493  43.376   9.134
 1440POPC   C1A21003   7.299  43.044   8.768
 1440POPC   D2A21004   7.324  43.326   8.412
 1440POPC   C3A21005   7.080  43.179   8.074
 1440POPC   C4A21006   7.240  42.932   7.758
 1440POPC   C1B21007   7.730  43.365   8.758
 1440POPC   C2B21008   7.860  43.053   8.480
 1440POPC   C3B21009   7.667  43.011   8.070
 1440POPC   C4B21010   7.571  43.344   7.803
 1441POPC   NC321011  15.362  39.928   9.673
 1441POPC   PO421012  14.665  39.890   9.483
 1441POPC   GL121013  15.042  39.974   9.211
 1441POPC   GL221014  15.331  39.742   9.198
 1441POPC   C1A21015  15.080  40.191   8.804
 1441POPC   D2A21016  15.053  40.422   8.417
 1441POPC   C3A21017  15.212  40.262   8.063
 1441POPC   C4A21018  15.497  40.471   7.794
 1441POPC   C1B21019  15.170  39.667   8.793
 1441POPC   C2B21020  15.141  39.851   8.375
 1441POPC   C3B21021  15.240  39.689   7.946
 1441POPC   C4B21022  15.522  39.710   7.575
 1442POPC   NC321023   1.839  14.483   9.487
 1442POPC   PO421024   2.458  14.724   9.403
 1442POPC   GL121025   2.170  14.533   9.086
 1442POPC   GL221026   2.298  14.200   9.076
 1442POPC   C1A21027   1.884  14.284   8.776
 1442POPC   D2A21028   1.943  14.114   8.340
 1442POPC   C3A21029   1.875  14.442   8.021
 1442POPC   C4A21030   1.954  14.793   7.723
 1442POPC   C1B21031   2.357  14.026   8.658
 1442POPC   C2B21032   2.425  14.053   8.177
 1442POPC   C3B21033   2.151  14.102   7.787
 1442POPC   C4B21034   1.953  14.354   7.444
 1443POPC   NC321035  40.277  15.113   9.404
 1443POPC   PO421036  39.741  15.463   9.271
 1443POPC   GL121037  39.862  15.146   8.944
 1443POPC   GL221038  40.179  15.176   8.896
 1443POPC   C1A21039  39.934  14.815   8.632
 1443POPC   D2A21040  40.235  14.935   8.326
 1443POPC   C3A21041  40.083  15.169   7.994
 1443POPC   C4A21042  39.951  15.075   7.603
 1443POPC   C1B21043  39.898  15.474   8.602
 1443POPC   C2B21044  39.812  15.544   8.195
 1443POPC   C3B21045  39.798  15.601   7.760
 1443POPC   C4B21046  39.751  15.450   7.351
 1444POPC   NC321047  11.451  19.427   9.491
 1444POPC   PO421048  10.945  19.778   9.718
 1444POPC   GL121049  11.173  19.857   9.288
 1444POPC   GL221050  11.112  19.547   9.141
 1444POPC   C1A21051  11.283  19.870   8.793
 1444POPC   D2A21052  11.173  20.095   8.381
 1444POPC   C3A21053  11.384  19.979   7.973
 1444POPC   C4A21054  11.323  19.668   7.635
 1444POPC   C1B21055  11.055  19.369   8.735
 1444POPC   C2B21056  11.124  19.471   8.286
 1444POPC   C3B21057  10.898  19.668   7.944
 1444POPC   C4B21058  10.805  19.538   7.526
 1445POPC   NC321059   5.310  23.343   9.370
 1445POPC   PO421060   4.972  22.712   9.514
 1445POPC   GL121061   5.175  22.885   9.212
 1445POPC   GL221062   4.891  22.958   9.056
 1445POPC   C1A21063   5.351  22.980   8.818
 1445POPC   D2A21064   5.137  23.057   8.417
 1445POPC   C3A21065   5.155  22.894   7.981
 1445POPC   C4A21066   4.861  22.699   7.648
 1445POPC   C1B21067   4.887  23.340   8.857
 1445POPC   C2B21068   4.847  23.485   8.465
 1445POPC   C3B21069   4.763  23.306   8.131
 1445POPC   C4B21070   4.778  23.182   7.783
 1446POPC   NC321071  23.206  32.900   9.498
 1446POPC   PO421072  23.709  33.197   9.890
 1446POPC   GL121073  23.733  33.102   9.370
 1446POPC   GL221074  23.634  32.748   9.277
 1446POPC   C1A21075  23.657  33.375   8.939
 1446POPC   D2A21076  23.667  33.243   8.502
 1446POPC   C3A21077  23.667  33.296   8.047
 1446POPC   C4A21078  23.835  33.072   7.703
 1446POPC   C1B21079  23.597  32.881   8.855
 1446POPC   C2B21080  23.450  32.791   8.407
 1446POPC   C3B21081  23.650  32.660   8.016
 1446POPC   C4B21082  23.616  32.599   7.571
 1447POPC   NC321083  19.104  22.936   9.533
 1447POPC   PO421084  18.513  22.704   9.766
 1447POPC   GL121085  18.694  22.779   9.258
 1447POPC   GL221086  19.036  22.853   9.037
 1447POPC   C1A21087  18.637  22.749   8.765
 1447POPC   D2A21088  18.909  22.773   8.374
 1447POPC   C3A21089  18.862  22.959   7.970
 1447POPC   C4A21090  18.944  22.958   7.512
 1447POPC   C1B21091  19.339  22.800   8.695
 1447POPC   C2B21092  19.408  22.893   8.260
 1447POPC   C3B21093  19.339  22.888   7.828
 1447POPC   C4B21094  19.346  22.613   7.481
 1448POPC   NC321095  36.077  32.448   9.538
 1448POPC   PO421096  35.940  31.760   9.563
 1448POPC   GL121097  35.917  32.054   9.230
 1448POPC   GL221098  36.265  32.119   9.162
 1448POPC   C1A21099  35.887  32.124   8.809
 1448POPC   D2A21100  36.133  32.072   8.476
 1448POPC   C3A21101  35.872  32.217   8.166
 1448POPC   C4A21102  35.891  32.070   7.758
 1448POPC   C1B21103  36.258  32.457   8.846
 1448POPC   C2B21104  36.234  32.564   8.392
 1448POPC   C3B21105  36.229  32.478   7.936
 1448POPC   C4B21106  36.360  32.182   7.606
 1449POPC   NC321107  43.874  42.716   9.780
 1449POPC   PO421108  44.103  43.291   9.559
 1449POPC   GL121109  43.962  43.149   9.155
 1449POPC   GL221110  44.042  42.784   9.190
 1449POPC   C1A21111  43.668  43.336   8.803
 1449POPC   D2A21112  43.490  43.239   8.395
 1449POPC   C3A21113  43.831  43.205   8.119
 1449POPC   C4A21114  43.679  43.247   7.734
 1449POPC   C1B21115  43.915  42.666   8.772
 1449POPC   C2B21116  43.904  42.753   8.337
 1449POPC   C3B21117  43.669  42.752   7.960
 1449POPC   C4B21118  43.882  42.796   7.612
 1450POPC   NC321119   9.543   8.219   9.325
 1450POPC   PO421120  10.193   8.476   9.406
 1450POPC   GL121121   9.971   8.388   9.081
 1450POPC   GL221122   9.975   8.009   9.109
 1450POPC   C1A21123   9.827   8.318   8.686
 1450POPC   D2A21124   9.854   8.033   8.361
 1450POPC   C3A21125   9.714   8.235   8.044
 1450POPC   C4A21126   9.578   8.193   7.659
 1450POPC   C1B21127   9.708   7.825   8.810
 1450POPC   C2B21128   9.561   7.624   8.465
 1450POPC   C3B21129   9.416   7.809   8.116
 1450POPC   C4B21130   9.638   7.716   7.764
 1451POPC   NC321131  17.438  38.929   9.696
 1451POPC   PO421132  17.800  38.420   9.430
 1451POPC   GL121133  17.690  38.766   9.201
 1451POPC   GL221134  17.339  38.754   9.218
 1451POPC   C1A21135  17.843  38.729   8.783
 1451POPC   D2A21136  17.918  38.385   8.458
 1451POPC   C3A21137  17.670  38.325   8.076
 1451POPC   C4A21138  17.841  38.530   7.738
 1451POPC   C1B21139  17.227  38.761   8.795
 1451POPC   C2B21140  17.431  38.663   8.415
 1451POPC   C3B21141  17.527  38.813   8.016
 1451POPC   C4B21142  17.427  38.755   7.561
 1452POPC   NC321143  43.542   9.584  10.067
 1452POPC   PO421144  44.092   9.703   9.705
 1452POPC   GL121145  43.916   9.708   9.294
 1452POPC   GL221146  44.030   9.362   9.219
 1452POPC   C1A21147  43.758   9.630   8.890
 1452POPC   D2A21148  43.891   9.596   8.492
 1452POPC   C3A21149  43.582   9.715   8.178
 1452POPC   C4A21150  43.700   9.645   7.771
 1452POPC   C1B21151  44.220   9.247   8.835
 1452POPC   C2B21152  44.378   9.401   8.466
 1452POPC   C3B21153  44.189   9.504   8.089
 1452POPC   C4B21154  44.054   9.263   7.767
 1453POPC   NC321155  37.583   5.582   9.606
 1453POPC   PO421156  38.228   5.680   9.584
 1453POPC   GL121157  37.886   5.452   9.206
 1453POPC   GL221158  37.486   5.349   9.152
 1453POPC   C1A21159  37.881   5.189   8.827
 1453POPC   D2A21160  38.004   5.206   8.413
 1453POPC   C3A21161  37.938   4.943   8.064
 1453POPC   C4A21162  37.646   5.131   7.774
 1453POPC   C1B21163  37.389   5.084   8.751
 1453POPC   C2B21164  37.476   4.923   8.298
 1453POPC   C3B21165  37.352   4.725   7.886
 1453POPC   C4B21166  37.465   4.779   7.439
 1454POPC   NC321167  30.878  13.668   9.518
 1454POPC   PO421168  30.280  13.412   9.704
 1454POPC   GL121169  30.493  13.438   9.246
 1454POPC   GL221170  30.800  13.274   9.199
 1454POPC   C1A21171  30.533  13.504   8.767
 1454POPC   D2A21172  30.829  13.774   8.511
 1454POPC   C3A21173  30.716  13.916   8.082
 1454POPC   C4A21174  30.529  13.757   7.696
 1454POPC   C1B21175  31.011  13.340   8.830
 1454POPC   C2B21176  30.856  13.269   8.399
 1454POPC   C3B21177  30.809  13.404   7.993
 1454POPC   C4B21178  30.762  13.330   7.553
 1455POPC   NC321179   7.868  15.256   9.549
 1455POPC   PO421180   8.435  15.650   9.458
 1455POPC   GL121181   8.224  15.350   9.132
 1455POPC   GL221182   8.034  15.026   9.128
 1455POPC   C1A21183   8.271  15.158   8.705
 1455POPC   D2A21184   8.250  15.191   8.263
 1455POPC   C3A21185   8.427  14.908   7.951
 1455POPC   C4A21186   8.446  14.923   7.487
 1455POPC   C1B21187   7.907  14.740   8.791
 1455POPC   C2B21188   7.754  14.740   8.365
 1455POPC   C3B21189   7.959  14.632   7.993
 1455POPC   C4B21190   7.977  14.808   7.617
 1456POPC   NC321191   4.841  18.888   9.570
 1456POPC   PO421192   5.304  19.420   9.501
 1456POPC   GL121193   5.088  19.119   9.198
 1456POPC   GL221194   4.697  19.173   9.175
 1456POPC   C1A21195   5.086  19.122   8.752
 1456POPC   D2A21196   5.455  19.213   8.486
 1456POPC   C3A21197   5.401  19.013   8.119
 1456POPC   C4A21198   5.168  19.139   7.772
 1456POPC   C1B21199   4.720  18.788   8.918
 1456POPC   C2B21200   4.836  18.671   8.504
 1456POPC   C3B21201   4.908  18.903   8.159
 1456POPC   C4B21202   4.722  18.908   7.762
 1457POPC   NC321203  14.612  30.327   9.803
 1457POPC   PO421204  14.384  30.943   9.426
 1457POPC   GL121205  14.214  30.733   9.131
 1457POPC   GL221206  14.497  30.799   8.925
 1457POPC   C1A21207  14.178  30.418   8.801
 1457POPC   D2A21208  14.403  30.250   8.427
 1457POPC   C3A21209  14.237  30.369   8.020
 1457POPC   C4A21210  14.216  30.545   7.598
 1457POPC   C1B21211  14.788  31.082   8.770
 1457POPC   C2B21212  14.940  30.958   8.375
 1457POPC   C3B21213  14.638  30.762   8.118
 1457POPC   C4B21214  14.559  30.869   7.725
 1458POPC   NC321215  43.404  39.539   9.588
 1458POPC   PO421216  43.567  40.186   9.628
 1458POPC   GL121217  43.314  39.934   9.273
 1458POPC   GL221218  43.184  40.225   9.125
 1458POPC   C1A21219  43.219  39.804   8.806
 1458POPC   D2A21220  43.289  39.741   8.308
 1458POPC   C3A21221  43.057  39.874   7.879
 1458POPC   C4A21222  42.706  39.779   7.588
 1458POPC   C1B21223  43.060  40.296   8.708
 1458POPC   C2B21224  42.993  40.214   8.278
 1458POPC   C3B21225  43.009  40.423   7.877
 1458POPC   C4B21226  42.858  40.277   7.468
 1459POPC   NC321227  13.283   9.878   9.529
 1459POPC   PO421228  14.009   9.965   9.500
 1459POPC   GL121229  13.729   9.799   9.159
 1459POPC   GL221230  13.422   9.553   9.161
 1459POPC   C1A21231  13.736   9.566   8.757
 1459POPC   D2A21232  13.498   9.536   8.360
 1459POPC   C3A21233  13.759   9.558   7.996
 1459POPC   C4A21234  13.781   9.615   7.551
 1459POPC   C1B21235  13.275   9.800   8.808
 1459POPC   C2B21236  13.142   9.918   8.385
 1459POPC   C3B21237  13.454  10.044   8.064
 1459POPC   C4B21238  13.455  10.035   7.600
 1460POPC   NC321239   3.587  29.402   9.369
 1460POPC   PO421240   3.841  28.774   9.426
 1460POPC   GL121241   3.559  28.866   9.075
 1460POPC   GL221242   3.602  29.217   8.915
 1460POPC   C1A21243   3.453  28.851   8.625
 1460POPC   D2A21244   3.377  29.241   8.451
 1460POPC   C3A21245   3.268  29.143   8.093
 1460POPC   C4A21246   3.483  29.007   7.739
 1460POPC   C1B21247   3.960  29.449   8.780
 1460POPC   C2B21248   4.135  29.505   8.388
 1460POPC   C3B21249   3.931  29.506   7.997
 1460POPC   C4B21250   3.973  29.819   7.693
 1461POPC   NC321251  14.242  39.531   9.714
 1461POPC   PO421252  14.663  39.036   9.556
 1461POPC   GL121253  14.377  39.105   9.176
 1461POPC   GL221254  14.211  39.466   9.177
 1461POPC   C1A21255  14.352  39.227   8.716
 1461POPC   D2A21256  14.374  39.312   8.244
 1461POPC   C3A21257  14.056  39.152   7.973
 1461POPC   C4A21258  14.052  38.885   7.624
 1461POPC   C1B21259  14.188  39.709   8.772
 1461POPC   C2B21260  14.060  39.738   8.332
 1461POPC   C3B21261  14.116  39.652   7.881
 1461POPC   C4B21262  14.468  39.699   7.584
 1462POPC   NC321263  23.157   4.465   9.947
 1462POPC   PO421264  22.911   5.000   9.531
 1462POPC   GL121265  22.987   5.107   9.109
 1462POPC   GL221266  22.828   5.421   9.022
 1462POPC   C1A21267  22.967   4.995   8.693
 1462POPC   D2A21268  22.979   5.161   8.278
 1462POPC   C3A21269  22.926   4.912   7.925
 1462POPC   C4A21270  22.975   5.046   7.534
 1462POPC   C1B21271  23.145   5.479   8.653
 1462POPC   C2B21272  23.370   5.473   8.233
 1462POPC   C3B21273  23.140   5.445   7.804
 1462POPC   C4B21274  23.021   5.491   7.298
 1463POPC   NC321275  25.965   2.417   9.610
 1463POPC   PO421276  26.181   2.997   9.654
 1463POPC   GL121277  25.853   2.862   9.352
 1463POPC   GL221278  26.119   2.710   9.205
 1463POPC   C1A21279  25.786   2.928   8.876
 1463POPC   D2A21280  26.011   2.961   8.461
 1463POPC   C3A21281  25.835   2.869   8.041
 1463POPC   C4A21282  26.032   2.508   7.819
 1463POPC   C1B21283  26.270   2.642   8.795
 1463POPC   C2B21284  26.515   2.739   8.477
 1463POPC   C3B21285  26.355   2.833   8.086
 1463POPC   C4B21286  26.509   3.038   7.752
 1464POPC   NC321287  22.689  30.088   9.499
 1464POPC   PO421288  23.015  29.511   9.480
 1464POPC   GL121289  22.787  29.703   9.129
 1464POPC   GL221290  22.679  30.032   9.002
 1464POPC   C1A21291  22.986  29.764   8.729
 1464POPC   D2A21292  23.204  29.804   8.357
 1464POPC   C3A21293  22.957  29.998   8.035
 1464POPC   C4A21294  22.849  29.801   7.624
 1464POPC   C1B21295  23.019  30.267   8.774
 1464POPC   C2B21296  23.317  30.307   8.403
 1464POPC   C3B21297  23.522  30.113   8.036
 1464POPC   C4B21298  23.301  30.051   7.674
 1465POPC   NC321299   4.220  23.739   9.612
 1465POPC   PO421300   4.114  23.143   9.514
 1465POPC   GL121301   4.385  23.443   9.219
 1465POPC   GL221302   4.299  23.817   9.123
 1465POPC   C1A21303   4.410  23.512   8.760
 1465POPC   D2A21304   4.179  23.297   8.491
 1465POPC   C3A21305   4.261  23.471   8.095
 1465POPC   C4A21306   4.532  23.637   7.803
 1465POPC   C1B21307   4.023  23.891   8.771
 1465POPC   C2B21308   4.103  23.925   8.313
 1465POPC   C3B21309   4.135  23.930   7.859
 1465POPC   C4B21310   4.097  24.005   7.385
 1466POPC   NC321311  41.080  36.074   9.352
 1466POPC   PO421312  40.554  36.459   9.582
 1466POPC   GL121313  40.689  36.444   9.173
 1466POPC   GL221314  40.660  36.112   9.045
 1466POPC   C1A21315  40.948  36.434   8.785
 1466POPC   D2A21316  40.941  36.132   8.453
 1466POPC   C3A21317  40.966  36.371   8.090
 1466POPC   C4A21318  41.189  36.381   7.709
 1466POPC   C1B21319  40.446  36.023   8.669
 1466POPC   C2B21320  40.542  35.845   8.290
 1466POPC   C3B21321  40.867  35.835   8.008
 1466POPC   C4B21322  40.779  36.090   7.689
 1467POPC   NC321323  24.261   8.630   9.311
 1467POPC   PO421324  24.753   8.725   9.783
 1467POPC   GL121325  24.776   8.816   9.324
 1467POPC   GL221326  24.702   9.170   9.310
 1467POPC   C1A21327  24.727   8.671   8.866
 1467POPC   D2A21328  24.426   8.749   8.505
 1467POPC   C3A21329  24.649   8.686   8.124
 1467POPC   C4A21330  24.504   8.707   7.724
 1467POPC   C1B21331  24.483   9.153   8.901
 1467POPC   C2B21332  24.468   9.266   8.461
 1467POPC   C3B21333  24.314   9.080   8.075
 1467POPC   C4B21334  24.481   9.208   7.659
 1468POPC   NC321335  33.264  38.406   9.583
 1468POPC   PO421336  33.919  38.712   9.667
 1468POPC   GL121337  33.791  38.546   9.245
 1468POPC   GL221338  33.721  38.876   9.180
 1468POPC   C1A21339  33.760  38.420   8.765
 1468POPC   D2A21340  33.574  38.344   8.312
 1468POPC   C3A21341  33.831  38.212   7.941
 1468POPC   C4A21342  34.063  38.029   7.591
 1468POPC   C1B21343  33.857  38.928   8.784
 1468POPC   C2B21344  33.975  38.709   8.397
 1468POPC   C3B21345  33.801  38.701   8.021
 1468POPC   C4B21346  33.438  38.554   7.830
 1469POPC   NC321347  34.320  17.936   9.390
 1469POPC   PO421348  33.794  18.340   9.676
 1469POPC   GL121349  33.793  18.512   9.258
 1469POPC   GL221350  34.075  18.339   9.216
 1469POPC   C1A21351  33.635  18.506   8.847
 1469POPC   D2A21352  33.833  18.480   8.462
 1469POPC   C3A21353  33.713  18.253   8.109
 1469POPC   C4A21354  33.451  18.509   7.879
 1469POPC   C1B21355  33.986  18.109   8.820
 1469POPC   C2B21356  34.144  18.087   8.390
 1469POPC   C3B21357  34.180  17.959   7.958
 1469POPC   C4B21358  34.202  18.254   7.611
 1470POPC   NC321359  24.948  22.401   9.416
 1470POPC   PO421360  25.640  22.251   9.450
 1470POPC   GL121361  25.384  22.279   9.141
 1470POPC   GL221362  25.166  22.018   9.167
 1470POPC   C1A21363  25.324  22.382   8.741
 1470POPC   D2A21364  25.525  22.387   8.336
 1470POPC   C3A21365  25.271  22.365   7.989
 1470POPC   C4A21366  25.161  22.211   7.580
 1470POPC   C1B21367  24.951  21.965   8.810
 1470POPC   C2B21368  25.132  22.054   8.407
 1470POPC   C3B21369  25.163  21.881   8.028
 1470POPC   C4B21370  25.042  21.699   7.658
 1471POPC   NC321371  21.472  35.567   9.618
 1471POPC   PO421372  20.863  35.247   9.687
 1471POPC   GL121373  21.090  35.068   9.285
 1471POPC   GL221374  21.258  35.352   9.185
 1471POPC   C1A21375  21.272  34.934   8.847
 1471POPC   D2A21376  21.285  35.218   8.455
 1471POPC   C3A21377  21.235  35.047   8.025
 1471POPC   C4A21378  21.354  35.196   7.597
 1471POPC   C1B21379  21.163  35.584   8.813
 1471POPC   C2B21380  21.076  35.685   8.385
 1471POPC   C3B21381  21.194  35.563   7.942
 1471POPC   C4B21382  21.115  35.645   7.476
 1472POPC   NC321383  17.215  39.470   9.738
 1472POPC   PO421384  17.860  39.171   9.655
 1472POPC   GL121385  17.563  39.263   9.293
 1472POPC   GL221386  17.384  39.573   9.270
 1472POPC   C1A21387  17.496  39.211   8.843
 1472POPC   D2A21388  17.729  39.103   8.473
 1472POPC   C3A21389  17.686  39.293   8.123
 1472POPC   C4A21390  17.517  39.230   7.724
 1472POPC   C1B21391  17.256  39.673   8.829
 1472POPC   C2B21392  17.285  39.471   8.411
 1472POPC   C3B21393  17.165  39.159   8.132
 1472POPC   C4B21394  16.989  39.199   7.714
 1473POPC   NC321395  31.030   6.121   9.281
 1473POPC   PO421396  31.361   5.563   9.608
 1473POPC   GL121397  31.402   5.752   9.233
 1473POPC   GL221398  31.097   5.626   9.101
 1473POPC   C1A21399  31.539   5.692   8.813
 1473POPC   D2A21400  31.747   5.851   8.468
 1473POPC   C3A21401  31.698   5.570   8.093
 1473POPC   C4A21402  31.759   5.661   7.633
 1473POPC   C1B21403  31.055   5.830   8.687
 1473POPC   C2B21404  31.278   5.801   8.291
 1473POPC   C3B21405  31.440   5.943   7.899
 1473POPC   C4B21406  31.248   5.732   7.559
 1474POPC   NC321407  15.097  29.701   9.626
 1474POPC   PO421408  15.179  30.348   9.541
 1474POPC   GL121409  15.082  30.010   9.226
 1474POPC   GL221410  14.879  29.674   9.166
 1474POPC   C1A21411  15.232  30.025   8.816
 1474POPC   D2A21412  15.042  29.966   8.433
 1474POPC   C3A21413  15.255  29.922   8.059
 1474POPC   C4A21414  15.064  30.016   7.698
 1474POPC   C1B21415  14.974  29.551   8.739
 1474POPC   C2B21416  15.125  29.457   8.315
 1474POPC   C3B21417  14.937  29.511   7.913
 1474POPC   C4B21418  14.983  29.561   7.474
 1475POPC   NC321419   4.999   1.110   9.608
 1475POPC   PO421420   5.521   1.471   9.402
 1475POPC   GL121421   5.281   1.399   9.007
 1475POPC   GL221422   4.989   1.219   9.108
 1475POPC   C1A21423   5.091   1.242   8.589
 1475POPC   D2A21424   4.900   0.881   8.355
 1475POPC   C3A21425   5.019   0.906   7.905
 1475POPC   C4A21426   5.195   1.294   7.816
 1475POPC   C1B21427   4.772   1.546   8.867
 1475POPC   C2B21428   4.893   1.715   8.470
 1475POPC   C3B21429   4.779   1.553   8.056
 1475POPC   C4B21430   4.734   1.423   7.626
 1476POPC   NC321431  11.336  16.236   9.654
 1476POPC   PO421432  11.000  15.665   9.505
 1476POPC   GL121433  11.272  15.763   9.154
 1476POPC   GL221434  11.393  16.097   9.169
 1476POPC   C1A21435  11.167  15.883   8.759
 1476POPC   D2A21436  10.843  15.900   8.499
 1476POPC   C3A21437  10.997  15.784   8.106
 1476POPC   C4A21438  11.162  15.941   7.745
 1476POPC   C1B21439  11.617  16.128   8.781
 1476POPC   C2B21440  11.444  16.127   8.379
 1476POPC   C3B21441  11.611  15.967   8.030
 1476POPC   C4B21442  11.569  16.221   7.707
 1477POPC   NC321443  34.532   4.677   9.750
 1477POPC   PO421444  34.159   4.079   9.540
 1477POPC   GL121445  34.236   4.140   9.059
 1477POPC   GL221446  34.548   4.337   8.934
 1477POPC   C1A21447  34.125   4.331   8.664
 1477POPC   D2A21448  34.440   4.363   8.387
 1477POPC   C3A21449  34.420   4.646   8.111
 1477POPC   C4A21450  34.316   4.543   7.728
 1477POPC   C1B21451  34.652   4.701   8.686
 1477POPC   C2B21452  34.931   4.562   8.397
 1477POPC   C3B21453  34.848   4.262   8.088
 1477POPC   C4B21454  34.826   4.424   7.709
 1478POPC   NC321455  26.452  36.792   9.602
 1478POPC   PO421456  27.032  37.096   9.447
 1478POPC   GL121457  26.736  36.853   9.173
 1478POPC   GL221458  26.372  37.017   9.146
 1478POPC   C1A21459  26.838  36.652   8.775
 1478POPC   D2A21460  27.133  36.781   8.470
 1478POPC   C3A21461  27.050  36.868   8.042
 1478POPC   C4A21462  26.908  36.686   7.673
 1478POPC   C1B21463  26.603  37.102   8.762
 1478POPC   C2B21464  26.692  37.029   8.366
 1478POPC   C3B21465  26.741  37.273   8.002
 1478POPC   C4B21466  26.882  37.179   7.600
 1479POPC   NC321467   7.328   1.632   9.504
 1479POPC   PO421468   7.688   2.168   9.504
 1479POPC   GL121469   7.519   1.982   9.162
 1479POPC   GL221470   7.263   2.185   9.091
 1479POPC   C1A21471   7.514   1.814   8.752
 1479POPC   D2A21472   7.714   1.687   8.363
 1479POPC   C3A21473   7.377   1.818   8.147
 1479POPC   C4A21474   7.240   1.990   7.796
 1479POPC   C1B21475   7.201   2.256   8.639
 1479POPC   C2B21476   7.112   2.347   8.196
 1479POPC   C3B21477   7.244   2.506   7.819
 1479POPC   C4B21478   7.626   2.309   7.703
 1480POPC   NC321479   8.816   2.440   9.353
 1480POPC   PO421480   9.263   1.956   9.547
 1480POPC   GL121481   9.160   2.102   9.153
 1480POPC   GL221482   8.812   1.932   9.140
 1480POPC   C1A21483   8.958   2.233   8.746
 1480POPC   D2A21484   8.806   1.970   8.429
 1480POPC   C3A21485   9.045   2.016   8.089
 1480POPC   C4A21486   8.944   2.226   7.738
 1480POPC   C1B21487   8.460   2.032   8.829
 1480POPC   C2B21488   8.375   2.235   8.430
 1480POPC   C3B21489   8.510   2.135   7.993
 1480POPC   C4B21490   8.558   1.950   7.541
 1481POPC   NC321491  27.777  16.185   9.713
 1481POPC   PO421492  27.279  15.736   9.748
 1481POPC   GL121493  27.426  15.849   9.295
 1481POPC   GL221494  27.698  16.054   9.250
 1481POPC   C1A21495  27.642  15.741   8.880
 1481POPC   D2A21496  27.571  15.961   8.488
 1481POPC   C3A21497  27.761  15.762   8.133
 1481POPC   C4A21498  27.741  15.896   7.717
 1481POPC   C1B21499  27.847  16.218   8.888
 1481POPC   C2B21500  27.978  16.284   8.471
 1481POPC   C3B21501  27.756  16.274   8.103
 1481POPC   C4B21502  27.796  16.495   7.740
 1482POPC   NC321503  10.153  17.659   9.665
 1482POPC   PO421504   9.545  17.636   9.801
 1482POPC   GL121505   9.703  17.515   9.374
 1482POPC   GL221506   9.540  17.206   9.184
 1482POPC   C1A21507   9.798  17.636   8.958
 1482POPC   D2A21508   9.750  17.788   8.529
 1482POPC   C3A21509  10.001  17.625   8.194
 1482POPC   C4A21510   9.917  17.650   7.762
 1482POPC   C1B21511   9.421  17.351   8.781
 1482POPC   C2B21512   9.606  17.314   8.398
 1482POPC   C3B21513   9.528  17.474   8.013
 1482POPC   C4B21514   9.607  17.276   7.596
 1483POPC   NC321515   2.258  40.437   9.249
 1483POPC   PO421516   2.830  40.774   9.457
 1483POPC   GL121517   2.715  40.619   9.125
 1483POPC   GL221518   2.483  40.914   9.054
 1483POPC   C1A21519   2.576  40.532   8.722
 1483POPC   D2A21520   2.530  40.749   8.394
 1483POPC   C3A21521   2.596  40.422   8.119
 1483POPC   C4A21522   2.638  40.562   7.712
 1483POPC   C1B21523   2.870  40.954   8.775
 1483POPC   C2B21524   3.150  41.073   8.452
 1483POPC   C3B21525   3.121  41.254   8.039
 1483POPC   C4B21526   3.029  41.078   7.652
 1484POPC   NC321527  41.999  43.265   9.439
 1484POPC   PO421528  41.371  42.899   9.463
 1484POPC   GL121529  41.663  42.952   9.170
 1484POPC   GL221530  41.670  42.611   9.112
 1484POPC   C1A21531  41.676  43.193   8.782
 1484POPC   D2A21532  41.454  43.176   8.394
 1484POPC   C3A21533  41.680  43.233   8.031
 1484POPC   C4A21534  41.519  43.503   7.744
 1484POPC   C1B21535  41.914  42.741   8.760
 1484POPC   C2B21536  41.902  42.893   8.356
 1484POPC   C3B21537  41.716  42.715   7.985
 1484POPC   C4B21538  41.615  42.801   7.565
 1485POPC   NC321539  18.187  16.731   9.520
 1485POPC   PO421540  18.894  17.008   9.499
 1485POPC   GL121541  18.610  16.714   9.238
 1485POPC   GL221542  18.595  16.892   8.955
 1485POPC   C1A21543  18.276  16.516   8.919
 1485POPC   D2A21544  18.042  16.712   8.589
 1485POPC   C3A21545  18.207  16.727   8.161
 1485POPC   C4A21546  18.233  16.659   7.725
 1485POPC   C1B21547  18.603  17.123   8.574
 1485POPC   C2B21548  18.617  17.153   8.135
 1485POPC   C3B21549  18.627  17.028   7.684
 1485POPC   C4B21550  18.602  16.930   7.195
 1486POPC   NC321551  40.940  33.666   9.488
 1486POPC   PO421552  40.379  34.161   9.464
 1486POPC   GL121553  40.398  33.849   9.178
 1486POPC   GL221554  40.736  33.850   9.051
 1486POPC   C1A21555  40.385  33.560   8.836
 1486POPC   D2A21556  40.645  33.455   8.527
 1486POPC   C3A21557  40.469  33.663   8.169
 1486POPC   C4A21558  40.638  33.639   7.791
 1486POPC   C1B21559  41.056  33.624   8.827
 1486POPC   C2B21560  41.165  33.654   8.398
 1486POPC   C3B21561  41.126  33.535   7.972
 1486POPC   C4B21562  41.043  33.672   7.522
 1487POPC   NC321563  34.995   4.960   9.607
 1487POPC   PO421564  35.421   5.375   9.502
 1487POPC   GL121565  35.323   5.151   9.171
 1487POPC   GL221566  35.322   4.802   9.245
 1487POPC   C1A21567  35.467   5.214   8.749
 1487POPC   D2A21568  35.361   5.385   8.372
 1487POPC   C3A21569  35.255   5.175   8.008
 1487POPC   C4A21570  35.480   5.250   7.669
 1487POPC   C1B21571  35.308   4.684   8.812
 1487POPC   C2B21572  35.384   4.847   8.408
 1487POPC   C3B21573  35.714   5.028   8.178
 1487POPC   C4B21574  35.847   4.898   7.778
 1488POPC   NC321575  23.934  13.230   9.442
 1488POPC   PO421576  23.631  13.856   9.543
 1488POPC   GL121577  23.581  13.804   9.128
 1488POPC   GL221578  23.665  13.454   9.070
 1488POPC   C1A21579  23.498  13.745   8.693
 1488POPC   D2A21580  23.659  13.621   8.293
 1488POPC   C3A21581  23.451  13.610   7.901
 1488POPC   C4A21582  23.693  13.874   7.630
 1488POPC   C1B21583  23.956  13.483   8.706
 1488POPC   C2B21584  24.038  13.273   8.292
 1488POPC   C3B21585  23.941  13.456   7.868
 1488POPC   C4B21586  24.014  13.223   7.456
 1489POPC   NC321587   5.163  28.240   9.654
 1489POPC   PO421588   5.581  28.751   9.744
 1489POPC   GL121589   5.327  28.615   9.288
 1489POPC   GL221590   5.241  28.248   9.162
 1489POPC   C1A21591   5.192  28.596   8.801
 1489POPC   D2A21592   5.118  28.407   8.369
 1489POPC   C3A21593   5.036  28.562   7.951
 1489POPC   C4A21594   5.190  28.554   7.510
 1489POPC   C1B21595   5.016  28.072   8.801
 1489POPC   C2B21596   4.803  28.002   8.419
 1489POPC   C3B21597   4.897  28.041   8.001
 1489POPC   C4B21598   4.849  28.187   7.576
 1490POPC   NC321599  13.758  40.039   9.381
 1490POPC   PO421600  13.159  39.843   9.497
 1490POPC   GL121601  13.399  39.736   9.126
 1490POPC   GL221602  13.382  40.039   9.022
 1490POPC   C1A21603  13.308  39.707   8.659
 1490POPC   D2A21604  13.395  40.033   8.362
 1490POPC   C3A21605  13.663  39.932   8.058
 1490POPC   C4A21606  13.372  39.946   7.730
 1490POPC   C1B21607  13.756  39.982   8.723
 1490POPC   C2B21608  14.039  40.240   8.451
 1490POPC   C3B21609  13.990  40.409   8.010
 1490POPC   C4B21610  13.770  40.228   7.664
 1491POPC   NC321611  27.741  38.241   9.460
 1491POPC   PO421612  27.498  38.842   9.497
 1491POPC   GL121613  27.480  38.560   9.136
 1491POPC   GL221614  27.184  38.385   9.175
 1491POPC   C1A21615  27.531  38.317   8.731
 1491POPC   D2A21616  27.620  38.313   8.249
 1491POPC   C3A21617  27.744  38.696   7.988
 1491POPC   C4A21618  27.898  38.817   7.563
 1491POPC   C1B21619  27.124  38.617   8.755
 1491POPC   C2B21620  27.166  38.554   8.292
 1491POPC   C3B21621  27.290  38.517   7.851
 1491POPC   C4B21622  27.550  38.435   7.469
 1492POPC   NC321623  37.029  32.666   9.549
 1492POPC   PO421624  36.701  33.118   9.862
 1492POPC   GL121625  36.829  33.171   9.377
 1492POPC   GL221626  36.743  32.879   9.140
 1492POPC   C1A21627  36.842  33.315   8.918
 1492POPC   D2A21628  36.756  33.101   8.511
 1492POPC   C3A21629  36.687  33.379   8.147
 1492POPC   C4A21630  36.982  33.230   7.814
 1492POPC   C1B21631  37.101  32.854   8.812
 1492POPC   C2B21632  37.189  32.810   8.349
 1492POPC   C3B21633  37.015  32.710   7.922
 1492POPC   C4B21634  37.052  32.835   7.474
 1493POPC   NC321635  22.586  42.633   9.462
 1493POPC   PO421636  22.572  43.260   9.788
 1493POPC   GL121637  22.696  43.145   9.321
 1493POPC   GL221638  22.964  43.316   9.112
 1493POPC   C1A21639  22.664  43.021   8.860
 1493POPC   D2A21640  22.843  43.282   8.509
 1493POPC   C3A21641  22.953  43.119   8.104
 1493POPC   C4A21642  22.725  42.972   7.713
 1493POPC   C1B21643  23.194  43.052   8.812
 1493POPC   C2B21644  23.394  43.001   8.412
 1493POPC   C3B21645  23.478  43.012   8.011
 1493POPC   C4B21646  23.226  43.100   7.663
 1494POPC   NC321647  14.178  42.776   9.543
 1494POPC   PO421648  14.466  43.417   9.673
 1494POPC   GL121649  14.434  43.173   9.292
 1494POPC   GL221650  14.719  42.975   9.351
 1494POPC   C1A21651  14.327  43.135   8.853
 1494POPC   D2A21652  14.138  42.900   8.518
 1494POPC   C3A21653  14.256  43.073   8.137
 1494POPC   C4A21654  13.996  43.096   7.767
 1494POPC   C1B21655  14.810  42.969   8.905
 1494POPC   C2B21656  14.730  43.143   8.508
 1494POPC   C3B21657  14.792  43.045   8.087
 1494POPC   C4B21658  14.522  43.009   7.717
 1495POPC   NC321659  37.288   4.967   9.459
 1495POPC   PO421660  37.015   4.382   9.470
 1495POPC   GL121661  36.864   4.226   9.100
 1495POPC   GL221662  36.655   4.455   8.972
 1495POPC   C1A21663  36.992   4.168   8.684
 1495POPC   D2A21664  36.688   4.255   8.375
 1495POPC   C3A21665  36.800   4.028   8.026
 1495POPC   C4A21666  37.156   4.097   7.779
 1495POPC   C1B21667  36.982   4.683   8.750
 1495POPC   C2B21668  37.080   4.588   8.314
 1495POPC   C3B21669  36.858   4.516   7.920
 1495POPC   C4B21670  36.709   4.731   7.566
 1496POPC   NC321671  43.701  28.057   9.497
 1496POPC   PO421672  43.798  28.773   9.573
 1496POPC   GL121673  43.833  28.480   9.215
 1496POPC   GL221674  44.063  28.199   9.177
 1496POPC   C1A21675  43.982  28.532   8.787
 1496POPC   D2A21676  44.051  28.292   8.433
 1496POPC   C3A21677  44.075  28.529   8.099
 1496POPC   C4A21678  43.952  28.444   7.697
 1496POPC   C1B21679  43.811  28.025   8.842
 1496POPC   C2B21680  43.601  28.060   8.462
 1496POPC   C3B21681  43.776  28.084   8.056
 1496POPC   C4B21682  43.817  27.912   7.664
 1497POPC   NC321683  17.238  22.551   9.362
 1497POPC   PO421684  17.441  21.996   9.553
 1497POPC   GL121685  17.654  22.095   9.165
 1497POPC   GL221686  17.971  22.255   9.281
 1497POPC   C1A21687  17.629  21.956   8.731
 1497POPC   D2A21688  17.271  22.075   8.519
 1497POPC   C3A21689  17.186  22.082   8.090
 1497POPC   C4A21690  17.305  22.442   7.831
 1497POPC   C1B21691  17.970  22.328   8.830
 1497POPC   C2B21692  17.696  22.390   8.444
 1497POPC   C3B21693  17.796  22.254   7.996
 1497POPC   C4B21694  18.059  22.518   7.738
 1498POPC   NC321695  30.532  29.235   9.584
 1498POPC   PO421696  30.310  28.907   9.094
 1498POPC   GL121697  30.671  28.930   8.904
 1498POPC   GL221698  30.882  29.006   9.190
 1498POPC   C1A21699  30.763  29.143   8.515
 1498POPC   D2A21700  30.553  29.472   8.265
 1498POPC   C3A21701  30.267  29.291   7.975
 1498POPC   C4A21702  30.259  29.211   7.513
 1498POPC   C1B21703  31.155  28.860   8.830
 1498POPC   C2B21704  31.034  28.730   8.426
 1498POPC   C3B21705  30.785  28.818   8.035
 1498POPC   C4B21706  31.086  28.867   7.679
 1499POPC   NC321707   9.958  13.220   9.573
 1499POPC   PO421708   9.957  12.573   9.662
 1499POPC   GL121709   9.798  12.657   9.244
 1499POPC   GL221710   9.694  12.983   9.137
 1499POPC   C1A21711   9.759  12.556   8.805
 1499POPC   D2A21712   9.649  12.711   8.396
 1499POPC   C3A21713   9.854  12.665   8.002
 1499POPC   C4A21714   9.694  12.724   7.598
 1499POPC   C1B21715   9.679  13.259   8.741
 1499POPC   C2B21716   9.893  13.179   8.350
 1499POPC   C3B21717   9.945  13.189   7.925
 1499POPC   C4B21718   9.740  13.256   7.563
 1500POPC   NC321719   0.189  43.542   9.391
 1500POPC   PO421720   0.648  44.025   9.612
 1500POPC   GL121721   0.487  43.970   9.202
 1500POPC   GL221722   0.596  43.654   9.096
 1500POPC   C1A21723   0.282  43.898   8.783
 1500POPC   D2A21724   0.243  43.742   8.381
 1500POPC   C3A21725   0.232  44.014   8.052
 1500POPC   C4A21726   0.128  43.965   7.644
 1500POPC   C1B21727   0.854  43.433   8.781
 1500POPC   C2B21728   0.792  43.358   8.337
 1500POPC   C3B21729   0.538  43.536   8.025
 1500POPC   C4B21730   0.669  43.934   7.837
 1501POPC   NC321731  33.340   5.940   9.604
 1501POPC   PO421732  33.986   5.957   9.738
 1501POPC   GL121733  33.936   5.931   9.255
 1501POPC   GL221734  33.651   5.672   9.261
 1501POPC   C1A21735  33.901   5.932   8.778
 1501POPC   D2A21736  33.555   5.898   8.458
 1501POPC   C3A21737  33.666   6.033   8.044
 1501POPC   C4A21738  33.556   6.363   7.783
 1501POPC   C1B21739  33.570   5.541   8.849
 1501POPC   C2B21740  33.865   5.488   8.486
 1501POPC   C3B21741  33.764   5.525   8.055
 1501POPC   C4B21742  33.947   5.412   7.667
 1502POPC   NC321743  22.081  17.741   9.592
 1502POPC   PO421744  22.139  18.392   9.618
 1502POPC   GL121745  22.214  18.423   9.204
 1502POPC   GL221746  22.181  18.052   9.187
 1502POPC   C1A21747  22.442  18.431   8.840
 1502POPC   D2A21748  22.455  18.646   8.451
 1502POPC   C3A21749  22.405  18.408   8.050
 1502POPC   C4A21750  22.145  18.399   7.647
 1502POPC   C1B21751  22.008  18.149   8.815
 1502POPC   C2B21752  22.007  18.369   8.450
 1502POPC   C3B21753  21.940  18.198   8.061
 1502POPC   C4B21754  22.275  17.916   7.823
 1503POPC   NC321755  23.242  21.060   9.571
 1503POPC   PO421756  22.618  21.141   9.643
 1503POPC   GL121757  22.891  21.200   9.216
 1503POPC   GL221758  22.889  21.552   9.052
 1503POPC   C1A21759  23.096  21.172   8.809
 1503POPC   D2A21760  22.923  21.258   8.411
 1503POPC   C3A21761  22.948  21.529   8.070
 1503POPC   C4A21762  22.977  21.276   7.737
 1503POPC   C1B21763  23.234  21.661   8.862
 1503POPC   C2B21764  23.220  21.709   8.469
 1503POPC   C3B21765  23.428  21.509   8.171
 1503POPC   C4B21766  23.515  21.524   7.748
 1504POPC   NC321767   3.856  22.832   9.827
 1504POPC   PO421768   3.238  22.809   9.441
 1504POPC   GL121769   3.564  22.721   9.185
 1504POPC   GL221770   3.887  22.711   9.309
 1504POPC   C1A21771   3.540  22.631   8.739
 1504POPC   D2A21772   3.269  22.685   8.363
 1504POPC   C3A21773   3.471  22.830   7.996
 1504POPC   C4A21774   3.453  23.215   7.756
 1504POPC   C1B21775   3.913  22.957   8.897
 1504POPC   C2B21776   3.685  23.067   8.511
 1504POPC   C3B21777   3.867  23.109   8.138
 1504POPC   C4B21778   3.925  23.066   7.727
 1505POPC   NC321779   1.500   5.371   9.613
 1505POPC   PO421780   2.155   5.090   9.572
 1505POPC   GL121781   2.339   5.139   9.199
 1505POPC   GL221782   2.010   5.051   9.057
 1505POPC   C1A21783   2.449   5.024   8.811
 1505POPC   D2A21784   2.182   5.069   8.452
 1505POPC   C3A21785   1.943   4.816   8.231
 1505POPC   C4A21786   2.014   4.891   7.817
 1505POPC   C1B21787   2.096   5.423   8.813
 1505POPC   C2B21788   2.092   5.610   8.418
 1505POPC   C3B21789   2.095   5.380   8.039
 1505POPC   C4B21790   1.863   5.377   7.684
 1506POPC   NC321791   8.076   1.792   9.506
 1506POPC   PO421792   8.365   2.373   9.405
 1506POPC   GL121793   8.034   2.140   9.111
 1506POPC   GL221794   7.957   1.743   9.040
 1506POPC   C1A21795   7.949   2.072   8.663
 1506POPC   D2A21796   7.663   2.197   8.344
 1506POPC   C3A21797   7.979   2.192   8.060
 1506POPC   C4A21798   8.105   2.162   7.654
 1506POPC   C1B21799   8.093   1.566   8.687
 1506POPC   C2B21800   8.243   1.762   8.329
 1506POPC   C3B21801   8.209   1.719   7.899
 1506POPC   C4B21802   7.767   1.778   7.790
 1507POPC   NC321803  39.934  34.097   9.368
 1507POPC   PO421804  39.684  33.486   9.218
 1507POPC   GL121805  39.925  33.756   8.985
 1507POPC   GL221806  39.805  34.105   8.891
 1507POPC   C1A21807  40.004  33.758   8.550
 1507POPC   D2A21808  39.748  33.548   8.262
 1507POPC   C3A21809  39.975  33.692   7.942
 1507POPC   C4A21810  40.252  33.924   7.726
 1507POPC   C1B21811  40.257  34.147   8.776
 1507POPC   C2B21812  40.350  34.352   8.371
 1507POPC   C3B21813  40.021  34.231   8.068
 1507POPC   C4B21814  39.820  34.159   7.669
 1508POPC   NC321815  13.810  11.399   9.762
 1508POPC   PO421816  13.173  11.573   9.517
 1508POPC   GL121817  13.536  11.519   9.192
 1508POPC   GL221818  13.904  11.428   9.156
 1508POPC   C1A21819  13.537  11.403   8.765
 1508POPC   D2A21820  13.591  11.138   8.420
 1508POPC   C3A21821  13.737  11.389   8.082
 1508POPC   C4A21822  13.691  11.215   7.699
 1508POPC   C1B21823  13.916  11.041   8.851
 1508POPC   C2B21824  14.090  10.892   8.458
 1508POPC   C3B21825  14.014  10.955   8.034
 1508POPC   C4B21826  14.208  11.154   7.666
 1509POPC   NC321827   0.002  39.749   9.513
 1509POPC   PO421828  44.406  40.048   9.439
 1509POPC   GL121829  44.445  40.237   9.063
 1509POPC   GL221830  44.813  40.237   9.099
 1509POPC   C1A21831  44.507  40.157   8.635
 1509POPC   D2A21832  44.555  39.802   8.335
 1509POPC   C3A21833  44.362  40.016   7.978
 1509POPC   C4A21834  44.572  40.308   7.818
 1509POPC   C1B21835  44.901  39.950   8.840
 1509POPC   C2B21836  44.981  40.061   8.413
 1509POPC   C3B21837  44.957  39.981   7.970
 1509POPC   C4B21838  44.682  39.649   7.840
 1510POPC   NC321839  10.372  34.176   9.471
 1510POPC   PO421840  10.109  34.825   9.581
 1510POPC   GL121841  10.396  34.698   9.227
 1510POPC   GL221842  10.455  34.426   9.060
 1510POPC   C1A21843  10.435  34.835   8.778
 1510POPC   D2A21844  10.589  34.670   8.345
 1510POPC   C3A21845  10.356  34.649   7.964
 1510POPC   C4A21846  10.592  34.807   7.640
 1510POPC   C1B21847  10.658  34.341   8.727
 1510POPC   C2B21848  10.627  34.024   8.460
 1510POPC   C3B21849  10.586  34.182   8.097
 1510POPC   C4B21850  10.765  34.346   7.750
 1511POPC   NC321851  30.165  18.127   9.447
 1511POPC   PO421852  29.548  18.498   9.442
 1511POPC   GL121853  29.776  18.302   9.162
 1511POPC   GL221854  30.045  18.601   9.154
 1511POPC   C1A21855  29.723  18.037   8.781
 1511POPC   D2A21856  30.073  18.027   8.488
 1511POPC   C3A21857  30.093  18.057   8.032
 1511POPC   C4A21858  29.749  18.004   7.738
 1511POPC   C1B21859  29.939  18.505   8.729
 1511POPC   C2B21860  29.630  18.400   8.402
 1511POPC   C3B21861  29.714  18.458   7.975
 1511POPC   C4B21862  30.108  18.514   7.802
 1512POPC   NC321863  34.233  38.878   9.373
 1512POPC   PO421864  34.464  39.481   9.332
 1512POPC   GL121865  34.493  39.222   9.027
 1512POPC   GL221866  34.624  38.882   9.054
 1512POPC   C1A21867  34.583  39.335   8.628
 1512POPC   D2A21868  34.797  39.604   8.357
 1512POPC   C3A21869  34.742  39.424   7.968
 1512POPC   C4A21870  34.330  39.298   7.841
 1512POPC   C1B21871  34.354  38.870   8.703
 1512POPC   C2B21872  34.349  39.035   8.288
 1512POPC   C3B21873  34.299  38.792   7.934
 1512POPC   C4B21874  34.519  38.682   7.573
 1513POPC   NC321875  38.449  41.700   9.737
 1513POPC   PO421876  38.691  41.524   9.170
 1513POPC   GL121877  38.572  41.882   9.006
 1513POPC   GL221878  38.271  41.849   9.223
 1513POPC   C1A21879  38.561  41.945   8.584
 1513POPC   D2A21880  38.486  41.555   8.436
 1513POPC   C3A21881  38.307  41.574   8.063
 1513POPC   C4A21882  38.440  41.482   7.669
 1513POPC   C1B21883  38.147  42.059   8.843
 1513POPC   C2B21884  38.057  41.927   8.425
 1513POPC   C3B21885  37.916  41.909   8.009
 1513POPC   C4B21886  38.138  41.887   7.617
 1514POPC   NC321887  14.786  17.412  10.120
 1514POPC   PO421888  14.539  17.392   9.471
 1514POPC   GL121889  14.358  17.463   9.105
 1514POPC   GL221890  14.307  17.788   9.196
 1514POPC   C1A21891  14.500  17.427   8.694
 1514POPC   D2A21892  14.552  17.361   8.272
 1514POPC   C3A21893  14.302  17.348   7.919
 1514POPC   C4A21894  14.666  17.459   7.725
 1514POPC   C1B21895  14.427  17.915   8.804
 1514POPC   C2B21896  14.301  17.808   8.400
 1514POPC   C3B21897  14.473  17.826   8.021
 1514POPC   C4B21898  14.407  17.977   7.609
 1515POPC   NC321899  24.075   7.117   9.382
 1515POPC   PO421900  23.641   6.591   9.548
 1515POPC   GL121901  23.768   6.445   9.188
 1515POPC   GL221902  23.419   6.293   9.130
 1515POPC   C1A21903  24.013   6.659   8.825
 1515POPC   D2A21904  23.860   6.726   8.413
 1515POPC   C3A21905  24.032   6.639   8.029
 1515POPC   C4A21906  23.801   6.655   7.630
 1515POPC   C1B21907  23.511   6.527   8.767
 1515POPC   C2B21908  23.565   6.323   8.377
 1515POPC   C3B21909  23.507   6.413   7.953
 1515POPC   C4B21910  23.408   6.331   7.485
 1516POPC   NC321911  23.208  22.009   9.528
 1516POPC   PO421912  23.828  21.979   9.642
 1516POPC   GL121913  23.777  22.172   9.234
 1516POPC   GL221914  23.594  21.878   9.174
 1516POPC   C1A21915  23.871  22.437   8.839
 1516POPC   D2A21916  23.618  22.488   8.452
 1516POPC   C3A21917  23.769  22.370   8.053
 1516POPC   C4A21918  23.999  22.408   7.671
 1516POPC   C1B21919  23.532  22.058   8.757
 1516POPC   C2B21920  23.634  21.963   8.338
 1516POPC   C3B21921  23.384  22.003   7.970
 1516POPC   C4B21922  23.514  22.203   7.580
 1517POPC   NC321923  28.866  18.798   9.473
 1517POPC   PO421924  29.390  19.361   9.495
 1517POPC   GL121925  29.311  19.129   9.086
 1517POPC   GL221926  29.249  18.780   9.126
 1517POPC   C1A21927  29.065  19.096   8.703
 1517POPC   D2A21928  28.812  19.305   8.391
 1517POPC   C3A21929  28.990  19.135   8.049
 1517POPC   C4A21930  29.049  19.206   7.625
 1517POPC   C1B21931  29.497  18.794   8.744
 1517POPC   C2B21932  29.451  19.002   8.347
 1517POPC   C3B21933  29.396  18.854   7.944
 1517POPC   C4B21934  29.313  18.784   7.543
 1518POPC   NC321935  38.691   4.466   9.838
 1518POPC   PO421936  38.143   4.308   9.687
 1518POPC   GL121937  38.459   4.446   9.320
 1518POPC   GL221938  38.846   4.490   9.353
 1518POPC   C1A21939  38.393   4.538   8.834
 1518POPC   D2A21940  38.227   4.257   8.453
 1518POPC   C3A21941  38.207   4.325   7.992
 1518POPC   C4A21942  38.437   4.069   7.672
 1518POPC   C1B21943  38.899   4.474   8.885
 1518POPC   C2B21944  38.749   4.565   8.445
 1518POPC   C3B21945  38.711   4.273   8.086
 1518POPC   C4B21946  38.798   4.425   7.689
 1519POPC   NC321947  35.090  42.097   9.520
 1519POPC   PO421948  35.542  42.562   9.556
 1519POPC   GL121949  35.416  42.373   9.187
 1519POPC   GL221950  35.490  42.010   9.186
 1519POPC   C1A21951  35.167  42.325   8.809
 1519POPC   D2A21952  35.027  42.495   8.413
 1519POPC   C3A21953  35.192  42.326   8.054
 1519POPC   C4A21954  35.497  42.594   7.851
 1519POPC   C1B21955  35.641  42.128   8.773
 1519POPC   C2B21956  35.564  42.364   8.414
 1519POPC   C3B21957  35.643  42.134   8.057
 1519POPC   C4B21958  35.627  42.048   7.664
 1520POPC   NC321959  32.518  31.000   9.481
 1520POPC   PO421960  32.074  30.524   9.722
 1520POPC   GL121961  32.225  30.632   9.303
 1520POPC   GL221962  32.028  30.915   9.269
 1520POPC   C1A21963  32.396  30.725   8.876
 1520POPC   D2A21964  32.195  30.632   8.491
 1520POPC   C3A21965  32.297  30.783   8.095
 1520POPC   C4A21966  32.501  30.512   7.801
 1520POPC   C1B21967  31.866  30.808   8.854
 1520POPC   C2B21968  31.920  31.049   8.458
 1520POPC   C3B21969  31.827  30.967   8.012
 1520POPC   C4B21970  32.026  30.734   7.663
 1521POPC   NC321971  28.257   0.764  10.233
 1521POPC   PO421972  28.463   1.069   9.582
 1521POPC   GL121973  28.479   1.160   9.159
 1521POPC   GL221974  28.608   1.464   9.135
 1521POPC   C1A21975  28.596   1.089   8.719
 1521POPC   D2A21976  28.745   0.815   8.370
 1521POPC   C3A21977  28.545   0.876   7.962
 1521POPC   C4A21978  28.517   0.860   7.476
 1521POPC   C1B21979  28.252   1.483   8.847
 1521POPC   C2B21980  28.282   1.418   8.426
 1521POPC   C3B21981  28.319   1.526   8.015
 1521POPC   C4B21982  28.462   1.294   7.696
 1522POPC   NC321983  21.978  43.404   9.652
 1522POPC   PO421984  22.198  42.708   9.744
 1522POPC   GL121985  22.210  43.004   9.422
 1522POPC   GL221986  21.902  42.963   9.308
 1522POPC   C1A21987  22.217  43.284   9.042
 1522POPC   D2A21988  22.311  43.275   8.588
 1522POPC   C3A21989  22.113  43.396   8.190
 1522POPC   C4A21990  22.175  43.145   7.811
 1522POPC   C1B21991  21.772  43.059   8.882
 1522POPC   C2B21992  21.905  42.997   8.465
 1522POPC   C3B21993  21.746  43.061   8.074
 1522POPC   C4B21994  21.767  42.815   7.733
 1523POPC   NC321995   2.230   3.120   9.643
 1523POPC   PO421996   2.863   2.799   9.664
 1523POPC   GL121997   2.930   2.705   9.172
 1523POPC   GL221998   3.235   2.883   9.017
 1523POPC   C1A21999   2.809   2.594   8.730
 1523POPC   D2A22000   2.558   2.498   8.344
 1523POPC   C3A22001   2.678   2.671   7.955
 1523POPC   C4A22002   2.501   2.893   7.613
 1523POPC   C1B22003   3.228   2.873   8.584
 1523POPC   C2B22004   2.923   2.933   8.316
 1523POPC   C3B22005   3.079   2.989   7.924
 1523POPC   C4B22006   2.987   2.799   7.532
 1524POPC   NC322007  39.034  20.531   9.646
 1524POPC   PO422008  39.675  20.427   9.459
 1524POPC   GL122009  39.289  20.565   9.185
 1524POPC   GL222010  38.931  20.430   9.140
 1524POPC   C1A22011  39.155  20.649   8.743
 1524POPC   D2A22012  38.968  20.723   8.337
 1524POPC   C3A22013  39.279  20.757   7.977
 1524POPC   C4A22014  39.350  20.498   7.618
 1524POPC   C1B22015  38.733  20.245   8.733
 1524POPC   C2B22016  38.672  20.253   8.271
 1524POPC   C3B22017  38.945  20.366   7.932
 1524POPC   C4B22018  38.920  20.305   7.475
 1525POPC   NC322019  40.657  27.233   9.615
 1525POPC   PO422020  40.616  27.862   9.669
 1525POPC   GL122021  40.693  27.623   9.263
 1525POPC   GL222022  41.054  27.475   9.176
 1525POPC   C1A22023  40.591  27.578   8.822
 1525POPC   D2A22024  40.466  27.874   8.467
 1525POPC   C3A22025  40.619  27.907   8.045
 1525POPC   C4A22026  40.556  27.759   7.607
 1525POPC   C1B22027  41.097  27.543   8.712
 1525POPC   C2B22028  40.788  27.491   8.353
 1525POPC   C3B22029  40.828  27.434   7.918
 1525POPC   C4B22030  41.221  27.377   7.747
 1526POPC   NC322031  10.019   5.626   9.429
 1526POPC   PO422032   9.531   6.120   9.520
 1526POPC   GL122033   9.610   5.831   9.216
 1526POPC   GL222034   9.305   5.876   9.117
 1526POPC   C1A22035   9.763   5.675   8.799
 1526POPC   D2A22036   9.865   5.899   8.412
 1526POPC   C3A22037   9.843   5.679   8.016
 1526POPC   C4A22038  10.238   5.594   7.821
 1526POPC   C1B22039   9.591   6.164   8.829
 1526POPC   C2B22040   9.584   6.360   8.433
 1526POPC   C3B22041   9.583   6.170   8.041
 1526POPC   C4B22042   9.844   6.064   7.690
 1527POPC   NC322043   3.703  29.798   9.741
 1527POPC   PO422044   3.206  30.124   9.497
 1527POPC   GL122045   3.547  30.190   9.205
 1527POPC   GL222046   3.647  29.872   9.212
 1527POPC   C1A22047   3.670  30.220   8.788
 1527POPC   D2A22048   3.442  30.114   8.421
 1527POPC   C3A22049   3.624  30.094   8.017
 1527POPC   C4A22050   3.489  29.950   7.651
 1527POPC   C1B22051   3.492  29.736   8.815
 1527POPC   C2B22052   3.654  29.665   8.417
 1527POPC   C3B22053   3.388  29.656   8.087
 1527POPC   C4B22054   3.251  29.485   7.735
 1528POPC   NC322055  22.468  38.490   9.919
 1528POPC   PO422056  23.083  38.440   9.664
 1528POPC   GL122057  22.809  38.330   9.323
 1528POPC   GL222058  22.904  38.597   9.119
 1528POPC   C1A22059  22.641  38.201   8.893
 1528POPC   D2A22060  22.757  38.056   8.476
 1528POPC   C3A22061  22.550  38.124   8.079
 1528POPC   C4A22062  22.600  38.312   7.674
 1528POPC   C1B22063  23.058  38.441   8.726
 1528POPC   C2B22064  23.199  38.357   8.326
 1528POPC   C3B22065  22.940  38.449   8.032
 1528POPC   C4B22066  22.915  38.753   7.768
 1529POPC   NC322067  44.981  25.680   9.486
 1529POPC   PO422068  44.763  25.006   9.508
 1529POPC   GL122069  44.863  25.288   9.189
 1529POPC   GL222070  44.678  25.106   8.958
 1529POPC   C1A22071  44.874  25.569   8.829
 1529POPC   D2A22072  44.743  25.350   8.481
 1529POPC   C3A22073  44.818  25.546   8.152
 1529POPC   C4A22074  44.854  25.355   7.809
 1529POPC   C1B22075  44.377  25.421   8.827
 1529POPC   C2B22076  44.233  25.463   8.419
 1529POPC   C3B22077  44.377  25.315   8.046
 1529POPC   C4B22078  44.411  25.619   7.757
 1530POPC   NC322079   5.696   5.766   9.559
 1530POPC   PO422080   5.337   6.349   9.510
 1530POPC   GL122081   5.612   6.178   9.137
 1530POPC   GL222082   5.680   5.826   9.070
 1530POPC   C1A22083   6.010   6.121   8.825
 1530POPC   D2A22084   6.079   5.922   8.385
 1530POPC   C3A22085   5.908   6.132   8.057
 1530POPC   C4A22086   6.078   6.306   7.712
 1530POPC   C1B22087   5.771   5.680   8.694
 1530POPC   C2B22088   5.592   5.678   8.276
 1530POPC   C3B22089   5.823   5.607   7.892
 1530POPC   C4B22090   6.214   5.812   7.737
 1531POPC   NC322091  21.246   6.198   9.595
 1531POPC   PO422092  21.757   5.814   9.396
 1531POPC   GL122093  21.569   5.668   9.106
 1531POPC   GL222094  21.238   5.856   9.181
 1531POPC   C1A22095  21.756   5.695   8.705
 1531POPC   D2A22096  21.449   5.916   8.476
 1531POPC   C3A22097  21.301   5.665   8.155
 1531POPC   C4A22098  21.326   5.656   7.728
 1531POPC   C1B22099  21.087   6.088   8.814
 1531POPC   C2B22100  21.020   6.233   8.353
 1531POPC   C3B22101  20.982   6.014   7.947
 1531POPC   C4B22102  21.158   6.121   7.556
 1532POPC   NC322103  28.568  36.722   9.537
 1532POPC   PO422104  28.203  37.219   9.766
 1532POPC   GL122105  28.236  37.060   9.287
 1532POPC   GL222106  28.525  36.980   9.094
 1532POPC   C1A22107  28.114  36.819   8.856
 1532POPC   D2A22108  28.174  36.644   8.413
 1532POPC   C3A22109  28.223  36.871   8.004
 1532POPC   C4A22110  28.515  37.106   7.745
 1532POPC   C1B22111  28.600  36.703   8.737
 1532POPC   C2B22112  28.667  36.742   8.284
 1532POPC   C3B22113  28.651  36.616   7.847
 1532POPC   C4B22114  28.839  36.795   7.469
 1533POPC   NC322115  31.337   7.804   9.448
 1533POPC   PO422116  31.683   7.152   9.462
 1533POPC   GL122117  31.815   7.359   9.067
 1533POPC   GL222118  31.603   7.635   9.059
 1533POPC   C1A22119  31.631   7.421   8.609
 1533POPC   D2A22120  31.164   7.300   8.451
 1533POPC   C3A22121  31.187   7.290   8.002
 1533POPC   C4A22122  31.604   7.368   7.932
 1533POPC   C1B22123  31.211   7.702   8.799
 1533POPC   C2B22124  31.063   7.825   8.378
 1533POPC   C3B22125  31.213   7.888   7.948
 1533POPC   C4B22126  31.332   7.655   7.578
 1534POPC   NC322127  21.789  27.118   9.692
 1534POPC   PO422128  22.166  26.597   9.607
 1534POPC   GL122129  22.349  26.723   9.235
 1534POPC   GL222130  22.134  27.034   9.256
 1534POPC   C1A22131  22.269  26.752   8.798
 1534POPC   D2A22132  22.107  26.514   8.449
 1534POPC   C3A22133  22.233  26.681   8.056
 1534POPC   C4A22134  21.953  26.742   7.742
 1534POPC   C1B22135  22.081  27.250   8.862
 1534POPC   C2B22136  22.067  27.064   8.440
 1534POPC   C3B22137  21.996  27.192   8.034
 1534POPC   C4B22138  22.251  27.226   7.701
 1535POPC   NC322139   9.695   9.494   9.521
 1535POPC   PO422140   9.615  10.115   9.699
 1535POPC   GL122141   9.608   9.992   9.309
 1535POPC   GL222142   9.986  10.011   9.330
 1535POPC   C1A22143   9.574  10.055   8.878
 1535POPC   D2A22144   9.750   9.820   8.560
 1535POPC   C3A22145   9.628   9.875   8.179
 1535POPC   C4A22146   9.629   9.608   7.840
 1535POPC   C1B22147  10.105   9.858   8.947
 1535POPC   C2B22148  10.257   9.961   8.567
 1535POPC   C3B22149  10.133   9.924   8.169
 1535POPC   C4B22150  10.052   9.855   7.756
 1536POPC   NC322151  32.959   7.775   9.560
 1536POPC   PO422152  32.878   8.460   9.589
 1536POPC   GL122153  33.073   8.191   9.275
 1536POPC   GL222154  32.805   8.179   9.084
 1536POPC   C1A22155  33.260   8.147   8.842
 1536POPC   D2A22156  33.483   8.243   8.478
 1536POPC   C3A22157  33.297   8.246   8.106
 1536POPC   C4A22158  33.491   8.094   7.778
 1536POPC   C1B22159  32.965   8.560   8.923
 1536POPC   C2B22160  33.075   8.538   8.507
 1536POPC   C3B22161  32.878   8.542   8.119
 1536POPC   C4B22162  33.064   8.542   7.718
 1537POPC   NC322163  20.687   2.442   9.877
 1537POPC   PO422164  20.634   3.065   9.737
 1537POPC   GL122165  20.459   3.031   9.300
 1537POPC   GL222166  20.787   2.900   9.119
 1537POPC   C1A22167  20.431   3.098   8.838
 1537POPC   D2A22168  20.771   2.985   8.534
 1537POPC   C3A22169  20.603   2.831   8.153
 1537POPC   C4A22170  20.682   2.943   7.744
 1537POPC   C1B22171  20.781   2.549   8.807
 1537POPC   C2B22172  21.001   2.526   8.409
 1537POPC   C3B22173  21.047   2.635   8.000
 1537POPC   C4B22174  20.765   2.454   7.728
 1538POPC   NC322175  22.171  24.671   9.685
 1538POPC   PO422176  22.105  25.324   9.597
 1538POPC   GL122177  22.120  25.262   9.191
 1538POPC   GL222178  21.770  25.156   9.169
 1538POPC   C1A22179  22.351  25.288   8.802
 1538POPC   D2A22180  22.284  25.144   8.368
 1538POPC   C3A22181  22.503  25.301   8.001
 1538POPC   C4A22182  22.422  25.591   7.648
 1538POPC   C1B22183  21.873  25.013   8.772
 1538POPC   C2B22184  21.702  24.862   8.393
 1538POPC   C3B22185  21.905  24.962   8.038
 1538POPC   C4B22186  21.749  24.947   7.665
 1539POPC   NC322187  38.106  12.687   9.585
 1539POPC   PO422188  37.450  12.758   9.484
 1539POPC   GL122189  37.677  12.694   9.125
 1539POPC   GL222190  37.952  12.956   9.149
 1539POPC   C1A22191  37.507  12.562   8.715
 1539POPC   D2A22192  37.356  12.684   8.278
 1539POPC   C3A22193  37.625  12.728   7.889
 1539POPC   C4A22194  37.626  12.733   7.442
 1539POPC   C1B22195  38.001  12.743   8.739
 1539POPC   C2B22196  37.902  12.706   8.310
 1539POPC   C3B22197  38.038  12.999   7.976
 1539POPC   C4B22198  37.965  13.100   7.502
 1540POPC   NC322199  15.735  17.583   9.610
 1540POPC   PO422200  15.039  17.485   9.735
 1540POPC   GL122201  15.133  17.433   9.273
 1540POPC   GL222202  15.453  17.222   9.238
 1540POPC   C1A22203  14.974  17.575   8.867
 1540POPC   D2A22204  14.827  17.758   8.486
 1540POPC   C3A22205  14.990  17.587   8.133
 1540POPC   C4A22206  15.168  17.547   7.745
 1540POPC   C1B22207  15.416  17.088   8.780
 1540POPC   C2B22208  15.544  17.203   8.327
 1540POPC   C3B22209  15.505  17.159   7.860
 1540POPC   C4B22210  15.390  17.256   7.390
 1541POPC   NC322211  10.371   2.316   9.538
 1541POPC   PO422212  10.354   1.657   9.449
 1541POPC   GL122213  10.258   1.987   9.119
 1541POPC   GL222214  10.533   2.250   9.049
 1541POPC   C1A22215  10.369   1.948   8.676
 1541POPC   D2A22216  10.766   1.766   8.548
 1541POPC   C3A22217  10.780   1.662   8.110
 1541POPC   C4A22218  10.416   1.755   7.906
 1541POPC   C1B22219  10.731   2.324   8.624
 1541POPC   C2B22220  10.653   2.149   8.196
 1541POPC   C3B22221  10.801   2.053   7.751
 1541POPC   C4B22222  10.689   2.246   7.328
 1542POPC   NC322223   3.224  25.822   9.599
 1542POPC   PO422224   3.687  26.233   9.595
 1542POPC   GL122225   3.550  26.312   9.199
 1542POPC   GL222226   3.386  26.009   9.151
 1542POPC   C1A22227   3.530  26.276   8.758
 1542POPC   D2A22228   3.361  26.075   8.408
 1542POPC   C3A22229   3.460  26.281   8.051
 1542POPC   C4A22230   3.340  26.074   7.725
 1542POPC   C1B22231   3.734  25.841   8.890
 1542POPC   C2B22232   3.764  25.744   8.461
 1542POPC   C3B22233   3.669  25.794   8.042
 1542POPC   C4B22234   3.467  25.570   7.735
 1543POPC   NC322235  32.156  24.741   9.334
 1543POPC   PO422236  31.854  24.136   9.513
 1543POPC   GL122237  32.073  24.241   9.118
 1543POPC   GL222238  32.435  24.290   9.029
 1543POPC   C1A22239  32.075  24.347   8.669
 1543POPC   D2A22240  32.478  24.273   8.425
 1543POPC   C3A22241  32.403  24.314   7.981
 1543POPC   C4A22242  32.198  24.681   7.805
 1543POPC   C1B22243  32.433  24.700   8.752
 1543POPC   C2B22244  32.284  24.746   8.324
 1543POPC   C3B22245  32.653  24.751   8.057
 1543POPC   C4B22246  32.744  24.600   7.678
 1544POPC   NC322247  26.682  24.147   9.456
 1544POPC   PO422248  27.142  24.567   9.449
 1544POPC   GL122249  26.844  24.568   9.158
 1544POPC   GL222250  26.883  24.278   9.008
 1544POPC   C1A22251  26.705  24.684   8.749
 1544POPC   D2A22252  26.736  24.444   8.398
 1544POPC   C3A22253  27.069  24.494   8.109
 1544POPC   C4A22254  27.131  24.637   7.708
 1544POPC   C1B22255  26.471  24.214   8.801
 1544POPC   C2B22256  26.299  24.184   8.381
 1544POPC   C3B22257  26.557  24.248   7.969
 1544POPC   C4B22258  26.924  24.187   7.695
 1545POPC   NC322259  39.634  32.525   9.860
 1545POPC   PO422260  39.938  32.033   9.516
 1545POPC   GL122261  39.851  32.357   9.205
 1545POPC   GL222262  40.157  32.602   9.203
 1545POPC   C1A22263  39.788  32.252   8.758
 1545POPC   D2A22264  39.992  31.988   8.426
 1545POPC   C3A22265  39.903  32.087   8.032
 1545POPC   C4A22266  39.862  32.414   7.720
 1545POPC   C1B22267  40.428  32.505   8.821
 1545POPC   C2B22268  40.421  32.282   8.424
 1545POPC   C3B22269  40.296  32.400   8.002
 1545POPC   C4B22270  40.376  32.480   7.531
 1546POPC   NC322271  41.017   8.124   9.509
 1546POPC   PO422272  40.353   8.095   9.382
 1546POPC   GL122273  40.700   8.086   9.107
 1546POPC   GL222274  40.899   8.400   9.079
 1546POPC   C1A22275  40.870   8.047   8.711
 1546POPC   D2A22276  40.695   8.175   8.341
 1546POPC   C3A22277  40.976   8.327   8.035
 1546POPC   C4A22278  40.817   8.203   7.651
 1546POPC   C1B22279  40.549   8.453   8.775
 1546POPC   C2B22280  40.435   8.645   8.377
 1546POPC   C3B22281  40.501   8.495   7.952
 1546POPC   C4B22282  40.577   8.620   7.502
 1547POPC   NC322283  25.489  39.061   9.514
 1547POPC   PO422284  24.765  39.231   9.621
 1547POPC   GL122285  24.905  39.341   9.159
 1547POPC   GL222286  25.278  39.326   9.090
 1547POPC   C1A22287  24.967  39.318   8.682
 1547POPC   D2A22288  25.340  39.342   8.424
 1547POPC   C3A22289  25.271  39.049   8.133
 1547POPC   C4A22290  25.201  39.174   7.745
 1547POPC   C1B22291  25.497  39.032   8.786
 1547POPC   C2B22292  25.738  39.006   8.338
 1547POPC   C3B22293  25.701  39.111   7.875
 1547POPC   C4B22294  25.669  39.031   7.427
 1548POPC   NC322295  40.831   7.032   9.557
 1548POPC   PO422296  41.209   7.683   9.498
 1548POPC   GL122297  40.904   7.613   9.185
 1548POPC   GL222298  40.869   7.256   9.114
 1548POPC   C1A22299  40.609   7.613   8.817
 1548POPC   D2A22300  40.780   7.647   8.389
 1548POPC   C3A22301  40.583   7.551   7.993
 1548POPC   C4A22302  40.580   7.768   7.572
 1548POPC   C1B22303  41.054   7.372   8.751
 1548POPC   C2B22304  40.961   7.160   8.381
 1548POPC   C3B22305  41.084   7.334   8.012
 1548POPC   C4B22306  40.937   7.428   7.637
 1549POPC   NC322307  18.493  36.016   9.420
 1549POPC   PO422308  17.841  35.923   9.555
 1549POPC   GL122309  18.078  36.141   9.155
 1549POPC   GL222310  18.260  36.448   9.214
 1549POPC   C1A22311  18.051  36.044   8.670
 1549POPC   D2A22312  18.221  36.245   8.279
 1549POPC   C3A22313  18.199  35.970   7.955
 1549POPC   C4A22314  17.892  35.687   7.894
 1549POPC   C1B22315  18.374  36.417   8.775
 1549POPC   C2B22316  18.658  36.465   8.421
 1549POPC   C3B22317  18.519  36.603   8.015
 1549POPC   C4B22318  18.343  36.382   7.695
 1550POPC   NC322319  20.088   1.699   9.657
 1550POPC   PO422320  19.590   1.293   9.451
 1550POPC   GL122321  19.742   1.356   9.085
 1550POPC   GL222322  20.044   1.196   9.112
 1550POPC   C1A22323  19.741   1.440   8.671
 1550POPC   D2A22324  19.941   1.650   8.345
 1550POPC   C3A22325  19.891   1.436   7.967
 1550POPC   C4A22326  19.475   1.335   7.838
 1550POPC   C1B22327  19.986   0.943   8.725
 1550POPC   C2B22328  19.945   0.783   8.300
 1550POPC   C3B22329  19.911   0.926   7.866
 1550POPC   C4B22330  20.263   1.194   7.668
 1551POPC   NC322331  25.139  40.360   9.417
 1551POPC   PO422332  25.507  39.781   9.237
 1551POPC   GL122333  25.237  40.043   9.038
 1551POPC   GL222334  24.915  39.896   9.053
 1551POPC   C1A22335  25.093  40.304   8.697
 1551POPC   D2A22336  25.041  40.159   8.246
 1551POPC   C3A22337  25.011  40.397   7.849
 1551POPC   C4A22338  25.059  40.107   7.480
 1551POPC   C1B22339  25.083  39.796   8.612
 1551POPC   C2B22340  24.986  39.598   8.183
 1551POPC   C3B22341  24.992  39.655   7.728
 1551POPC   C4B22342  24.927  39.514   7.284
 1552POPC   NC322343  35.546  15.533   9.403
 1552POPC   PO422344  35.004  15.874   9.680
 1552POPC   GL122345  35.192  15.879   9.273
 1552POPC   GL222346  35.459  16.062   9.149
 1552POPC   C1A22347  35.185  15.755   8.830
 1552POPC   D2A22348  35.322  15.986   8.482
 1552POPC   C3A22349  35.209  15.858   8.069
 1552POPC   C4A22350  35.377  15.809   7.645
 1552POPC   C1B22351  35.675  16.244   8.796
 1552POPC   C2B22352  35.630  16.385   8.369
 1552POPC   C3B22353  35.598  16.163   7.976
 1552POPC   C4B22354  35.859  16.116   7.606
 1553POPC   NC322355   0.069   2.239   9.422
 1553POPC   PO422356   0.611   1.877   9.665
 1553POPC   GL122357   0.551   1.979   9.204
 1553POPC   GL222358   0.750   1.689   9.147
 1553POPC   C1A22359   0.351   2.048   8.756
 1553POPC   D2A22360   0.237   2.265   8.367
 1553POPC   C3A22361   0.433   2.198   7.968
 1553POPC   C4A22362   0.157   1.927   7.810
 1553POPC   C1B22363   0.824   1.891   8.715
 1553POPC   C2B22364   0.622   1.868   8.311
 1553POPC   C3B22365   0.642   1.764   7.827
 1553POPC   C4B22366   0.670   1.948   7.419
 1554POPC   NC322367   0.400   6.201   9.541
 1554POPC   PO422368   0.263   5.514   9.576
 1554POPC   GL122369   0.287   5.789   9.197
 1554POPC   GL222370   0.286   6.110   9.071
 1554POPC   C1A22371   0.436   5.672   8.777
 1554POPC   D2A22372   0.486   5.409   8.437
 1554POPC   C3A22373   0.309   5.549   8.076
 1554POPC   C4A22374   0.486   5.625   7.675
 1554POPC   C1B22375   0.507   6.167   8.728
 1554POPC   C2B22376   0.365   6.195   8.336
 1554POPC   C3B22377   0.530   6.049   7.985
 1554POPC   C4B22378   0.352   6.148   7.641
 1555POPC   NC322379  11.493  40.559   9.606
 1555POPC   PO422380  10.993  40.898   9.619
 1555POPC   GL122381  11.262  40.930   9.268
 1555POPC   GL222382  10.974  41.033   9.096
 1555POPC   C1A22383  11.382  40.838   8.820
 1555POPC   D2A22384  11.444  41.045   8.413
 1555POPC   C3A22385  11.389  40.889   8.001
 1555POPC   C4A22386  11.141  41.122   7.673
 1555POPC   C1B22387  10.912  41.191   8.677
 1555POPC   C2B22388  10.977  41.144   8.224
 1555POPC   C3B22389  10.891  40.777   7.991
 1555POPC   C4B22390  10.915  40.662   7.591
 1556POPC   NC322391  27.182  29.111   9.453
 1556POPC   PO422392  26.568  29.338   9.678
 1556POPC   GL122393  26.607  29.098   9.234
 1556POPC   GL222394  26.914  29.137   9.043
 1556POPC   C1A22395  26.569  28.934   8.753
 1556POPC   D2A22396  26.707  28.891   8.319
 1556POPC   C3A22397  26.500  29.114   7.988
 1556POPC   C4A22398  26.594  29.409   7.638
 1556POPC   C1B22399  27.077  29.088   8.632
 1556POPC   C2B22400  27.179  29.190   8.205
 1556POPC   C3B22401  27.055  29.298   7.788
 1556POPC   C4B22402  27.006  29.590   7.404
 1557POPC   NC322403  21.530  31.010   9.382
 1557POPC   PO422404  21.436  31.706   9.473
 1557POPC   GL122405  21.492  31.484   9.137
 1557POPC   GL222406  21.201  31.381   9.062
 1557POPC   C1A22407  21.662  31.368   8.747
 1557POPC   D2A22408  21.684  31.576   8.368
 1557POPC   C3A22409  21.545  31.419   7.963
 1557POPC   C4A22410  21.541  31.392   7.522
 1557POPC   C1B22411  21.204  31.138   8.722
 1557POPC   C2B22412  21.207  31.370   8.356
 1557POPC   C3B22413  21.050  31.554   7.982
 1557POPC   C4B22414  20.994  31.294   7.615
 1558POPC   NC322415  40.383  12.796   9.577
 1558POPC   PO422416  40.985  13.052   9.483
 1558POPC   GL122417  40.815  12.929   9.134
 1558POPC   GL222418  40.810  12.572   9.200
 1558POPC   C1A22419  40.903  13.128   8.723
 1558POPC   D2A22420  40.702  13.020   8.343
 1558POPC   C3A22421  40.769  13.038   7.912
 1558POPC   C4A22422  41.043  13.218   7.643
 1558POPC   C1B22423  40.729  12.649   8.726
 1558POPC   C2B22424  40.656  12.524   8.293
 1558POPC   C3B22425  40.634  12.531   7.866
 1558POPC   C4B22426  40.352  12.837   7.650
 1559POPC   NC322427  39.717  12.200   9.397
 1559POPC   PO422428  40.445  12.330   9.545
 1559POPC   GL122429  40.189  12.092   9.227
 1559POPC   GL222430  39.988  12.344   9.016
 1559POPC   C1A22431  40.050  11.902   8.804
 1559POPC   D2A22432  39.824  11.896   8.392
 1559POPC   C3A22433  39.952  12.069   8.022
 1559POPC   C4A22434  39.850  11.841   7.659
 1559POPC   C1B22435  39.661  12.231   8.717
 1559POPC   C2B22436  39.823  12.435   8.395
 1559POPC   C3B22437  39.674  12.516   8.026
 1559POPC   C4B22438  39.547  12.253   7.710
 1560POPC   NC322439  14.625  22.452   9.674
 1560POPC   PO422440  15.188  22.934   9.763
 1560POPC   GL122441  15.291  22.868   9.305
 1560POPC   GL222442  14.960  22.961   9.257
 1560POPC   C1A22443  15.338  22.710   8.819
 1560POPC   D2A22444  15.282  22.804   8.369
 1560POPC   C3A22445  15.439  22.818   7.926
 1560POPC   C4A22446  15.512  23.201   7.669
 1560POPC   C1B22447  15.000  23.083   8.823
 1560POPC   C2B22448  14.830  23.021   8.404
 1560POPC   C3B22449  15.016  23.109   7.990
 1560POPC   C4B22450  15.024  23.066   7.548
 1561POPC   NC322451  19.479   3.505   9.554
 1561POPC   PO422452  18.812   3.751   9.641
 1561POPC   GL122453  18.959   3.743   9.201
 1561POPC   GL222454  19.149   3.437   9.133
 1561POPC   C1A22455  19.110   3.842   8.772
 1561POPC   D2A22456  18.946   3.838   8.354
 1561POPC   C3A22457  19.246   3.685   8.057
 1561POPC   C4A22458  19.180   3.336   7.807
 1561POPC   C1B22459  18.969   3.332   8.702
 1561POPC   C2B22460  18.916   3.312   8.256
 1561POPC   C3B22461  18.806   3.037   7.916
 1561POPC   C4B22462  18.857   3.062   7.478
 1562POPC   NC322463  29.634   1.323   9.686
 1562POPC   PO422464  30.337   1.243   9.637
 1562POPC   GL122465  29.997   1.194   9.322
 1562POPC   GL222466  29.883   0.843   9.441
 1562POPC   C1A22467  29.914   1.297   8.857
 1562POPC   D2A22468  30.109   1.160   8.458
 1562POPC   C3A22469  29.957   1.346   8.069
 1562POPC   C4A22470  29.666   1.682   7.891
 1562POPC   C1B22471  29.774   0.835   9.027
 1562POPC   C2B22472  29.762   0.803   8.582
 1562POPC   C3B22473  29.727   0.869   8.147
 1562POPC   C4B22474  29.636   1.056   7.755
 1563POPC   NC322475  21.578  37.276   9.454
 1563POPC   PO422476  21.117  36.757   9.465
 1563POPC   GL122477  21.215  36.802   9.062
 1563POPC   GL222478  21.271  37.109   9.097
 1563POPC   C1A22479  21.029  36.968   8.675
 1563POPC   D2A22480  21.083  37.219   8.301
 1563POPC   C3A22481  21.328  37.012   8.007
 1563POPC   C4A22482  21.330  36.892   7.568
 1563POPC   C1B22483  21.569  37.066   8.783
 1563POPC   C2B22484  21.566  37.311   8.438
 1563POPC   C3B22485  21.759  37.292   8.037
 1563POPC   C4B22486  21.975  37.106   7.732
 1564POPC   NC322487  11.968  35.720   9.536
 1564POPC   PO422488  12.395  36.018   9.158
 1564POPC   GL122489  11.967  36.101   9.084
 1564POPC   GL222490  11.976  36.440   9.045
 1564POPC   C1A22491  11.933  36.126   8.637
 1564POPC   D2A22492  12.301  35.945   8.419
 1564POPC   C3A22493  12.246  35.789   7.986
 1564POPC   C4A22494  11.969  35.949   7.648
 1564POPC   C1B22495  12.286  36.498   8.712
 1564POPC   C2B22496  12.204  36.426   8.307
 1564POPC   C3B22497  12.272  36.295   7.912
 1564POPC   C4B22498  12.016  36.456   7.584
 1565POPC   NC322499   1.268  34.458   9.590
 1565POPC   PO422500   0.731  34.786   9.560
 1565POPC   GL122501   1.054  34.713   9.196
 1565POPC   GL222502   1.453  34.739   9.212
 1565POPC   C1A22503   1.198  34.820   8.760
 1565POPC   D2A22504   1.013  34.876   8.338
 1565POPC   C3A22505   1.247  34.818   7.960
 1565POPC   C4A22506   1.354  34.466   7.633
 1565POPC   C1B22507   1.606  34.520   8.823
 1565POPC   C2B22508   1.488  34.606   8.377
 1565POPC   C3B22509   1.710  34.600   7.983
 1565POPC   C4B22510   1.666  34.886   7.668
 1566POPC   NC322511  11.569  32.075   9.540
 1566POPC   PO422512  10.906  32.062   9.358
 1566POPC   GL122513  11.206  32.078   9.091
 1566POPC   GL222514  11.313  32.371   9.184
 1566POPC   C1A22515  11.198  32.108   8.663
 1566POPC   D2A22516  11.333  32.244   8.274
 1566POPC   C3A22517  11.231  32.060   7.914
 1566POPC   C4A22518  10.848  31.886   7.972
 1566POPC   C1B22519  11.066  32.554   8.864
 1566POPC   C2B22520  11.101  32.645   8.475
 1566POPC   C3B22521  11.354  32.749   8.173
 1566POPC   C4B22522  11.187  32.553   7.818
 1567POPC   NC322523  26.572  34.977   9.284
 1567POPC   PO422524  27.128  34.905   9.668
 1567POPC   GL122525  26.978  34.663   9.279
 1567POPC   GL222526  27.183  34.717   9.048
 1567POPC   C1A22527  26.772  34.524   8.823
 1567POPC   D2A22528  26.650  34.705   8.382
 1567POPC   C3A22529  26.784  34.497   7.992
 1567POPC   C4A22530  26.558  34.191   7.747
 1567POPC   C1B22531  27.009  34.997   8.718
 1567POPC   C2B22532  26.999  35.076   8.259
 1567POPC   C3B22533  26.835  34.983   7.859
 1567POPC   C4B22534  27.146  34.827   7.546
 1568POPC   NC322535  39.006  31.087   9.488
 1568POPC   PO422536  39.591  30.691   9.322
 1568POPC   GL122537  39.336  30.949   9.104
 1568POPC   GL222538  39.029  30.755   9.106
 1568POPC   C1A22539  39.253  30.933   8.679
 1568POPC   D2A22540  39.309  30.653   8.358
 1568POPC   C3A22541  39.207  30.844   7.979
 1568POPC   C4A22542  39.367  30.578   7.694
 1568POPC   C1B22543  38.879  30.578   8.716
 1568POPC   C2B22544  38.794  30.752   8.316
 1568POPC   C3B22545  38.770  30.612   7.870
 1568POPC   C4B22546  38.936  30.447   7.446
 1569POPC   NC322547   5.717  32.213   9.661
 1569POPC   PO422548   5.656  32.845   9.368
 1569POPC   GL122549   5.685  32.401   9.179
 1569POPC   GL222550   6.011  32.184   9.232
 1569POPC   C1A22551   5.756  32.248   8.754
 1569POPC   D2A22552   5.953  32.423   8.374
 1569POPC   C3A22553   5.687  32.446   8.020
 1569POPC   C4A22554   5.513  32.428   7.609
 1569POPC   C1B22555   6.192  31.969   8.843
 1569POPC   C2B22556   6.045  31.900   8.395
 1569POPC   C3B22557   6.109  32.108   7.970
 1569POPC   C4B22558   6.039  32.477   7.657
 1570POPC   NC322559  39.407   0.044   9.444
 1570POPC   PO422560  39.068   0.681   9.507
 1570POPC   GL122561  39.041   0.417   9.154
 1570POPC   GL222562  39.406   0.391   9.087
 1570POPC   C1A22563  38.786   0.454   8.764
 1570POPC   D2A22564  38.569   0.639   8.388
 1570POPC   C3A22565  38.801   0.648   7.974
 1570POPC   C4A22566  39.208   0.832   7.885
 1570POPC   C1B22567  39.275   0.422   8.667
 1570POPC   C2B22568  39.174   0.452   8.248
 1570POPC   C3B22569  39.326   0.346   7.832
 1570POPC   C4B22570  39.667   0.095   7.681
 1571POPC   NC322571  29.732  33.442   9.687
 1571POPC   PO422572  30.098  34.067   9.527
 1571POPC   GL122573  29.780  33.879   9.258
 1571POPC   GL222574  29.777  33.517   9.178
 1571POPC   C1A22575  29.783  33.876   8.825
 1571POPC   D2A22576  30.079  33.768   8.494
 1571POPC   C3A22577  29.934  33.757   8.057
 1571POPC   C4A22578  30.184  33.705   7.689
 1571POPC   C1B22579  29.622  33.396   8.749
 1571POPC   C2B22580  29.795  33.340   8.373
 1571POPC   C3B22581  29.604  33.283   8.037
 1571POPC   C4B22582  29.732  33.451   7.705
 1572POPC   NC322583  15.529  16.241   9.487
 1572POPC   PO422584  14.951  15.991   9.623
 1572POPC   GL122585  15.166  15.929   9.217
 1572POPC   GL222586  15.188  16.273   9.121
 1572POPC   C1A22587  15.080  15.651   8.841
 1572POPC   D2A22588  15.211  15.704   8.395
 1572POPC   C3A22589  14.981  15.596   8.030
 1572POPC   C4A22590  15.094  15.802   7.665
 1572POPC   C1B22591  15.254  16.122   8.728
 1572POPC   C2B22592  15.335  16.216   8.336
 1572POPC   C3B22593  15.388  16.150   7.942
 1572POPC   C4B22594  15.142  16.318   7.647
 1573POPC   NC322595  34.004  30.926   9.790
 1573POPC   PO422596  33.561  30.550   9.437
 1573POPC   GL122597  33.699  30.824   9.171
 1573POPC   GL222598  34.019  30.911   9.281
 1573POPC   C1A22599  33.746  30.665   8.738
 1573POPC   D2A22600  33.649  30.480   8.320
 1573POPC   C3A22601  33.789  30.717   7.947
 1573POPC   C4A22602  33.831  30.576   7.494
 1573POPC   C1B22603  34.006  31.092   8.869
 1573POPC   C2B22604  34.110  31.223   8.453
 1573POPC   C3B22605  34.212  31.083   8.026
 1573POPC   C4B22606  34.118  30.963   7.623
 1574POPC   NC322607   1.578  20.313   9.789
 1574POPC   PO422608   2.046  19.943   9.402
 1574POPC   GL122609   1.911  19.897   9.006
 1574POPC   GL222610   1.558  19.792   9.059
 1574POPC   C1A22611   2.142  19.915   8.621
 1574POPC   D2A22612   2.378  19.958   8.265
 1574POPC   C3A22613   2.164  19.772   7.917
 1574POPC   C4A22614   1.956  19.683   7.539
 1574POPC   C1B22615   1.638  19.646   8.640
 1574POPC   C2B22616   1.791  19.838   8.260
 1574POPC   C3B22617   1.706  20.125   7.916
 1574POPC   C4B22618   1.607  20.043   7.508
 1575POPC   NC322619   7.201  34.437   9.471
 1575POPC   PO422620   7.749  34.879   9.584
 1575POPC   GL122621   7.525  34.708   9.196
 1575POPC   GL222622   7.119  34.787   9.112
 1575POPC   C1A22623   7.482  34.684   8.759
 1575POPC   D2A22624   7.202  34.760   8.432
 1575POPC   C3A22625   7.395  34.575   8.090
 1575POPC   C4A22626   7.361  34.752   7.718
 1575POPC   C1B22627   7.049  34.412   8.844
 1575POPC   C2B22628   7.273  34.261   8.488
 1575POPC   C3B22629   7.105  34.127   8.113
 1575POPC   C4B22630   7.067  34.353   7.747
 1576POPC   NC322631  12.499  44.883   9.350
 1576POPC   PO422632  12.944  44.438   9.621
 1576POPC   GL122633  13.003  44.519   9.198
 1576POPC   GL222634  12.734  44.331   9.101
 1576POPC   C1A22635  13.065  44.637   8.774
 1576POPC   D2A22636  12.871  44.909   8.490
 1576POPC   C3A22637  12.986  44.846   8.087
 1576POPC   C4A22638  12.889  44.860   7.665
 1576POPC   C1B22639  12.591  44.448   8.676
 1576POPC   C2B22640  12.714  44.461   8.280
 1576POPC   C3B22641  12.861  44.392   7.877
 1576POPC   C4B22642  12.788  44.113   7.598
 1577POPC   NC322643  21.506  14.600  10.091
 1577POPC   PO422644  21.160  14.316   9.583
 1577POPC   GL122645  21.325  14.441   9.223
 1577POPC   GL222646  21.662  14.326   9.294
 1577POPC   C1A22647  21.174  14.444   8.807
 1577POPC   D2A22648  21.405  14.356   8.429
 1577POPC   C3A22649  21.201  14.400   8.058
 1577POPC   C4A22650  21.066  14.320   7.644
 1577POPC   C1B22651  21.717  14.287   8.862
 1577POPC   C2B22652  21.793  14.029   8.495
 1577POPC   C3B22653  21.732  14.153   8.065
 1577POPC   C4B22654  21.581  14.399   7.705
 1578POPC   NC322655   4.499  31.591   9.660
 1578POPC   PO422656   3.985  31.114   9.702
 1578POPC   GL122657   4.111  31.086   9.252
 1578POPC   GL222658   4.315  31.435   9.222
 1578POPC   C1A22659   4.198  31.201   8.806
 1578POPC   D2A22660   4.532  31.218   8.504
 1578POPC   C3A22661   4.458  31.011   8.131
 1578POPC   C4A22662   4.250  31.100   7.780
 1578POPC   C1B22663   4.469  31.632   8.834
 1578POPC   C2B22664   4.290  31.696   8.398
 1578POPC   C3B22665   4.421  31.600   7.955
 1578POPC   C4B22666   4.317  31.680   7.482
 1579POPC   NC322667  33.442  42.239   9.562
 1579POPC   PO422668  34.043  42.544   9.508
 1579POPC   GL122669  33.877  42.304   9.188
 1579POPC   GL222670  33.592  42.454   9.144
 1579POPC   C1A22671  33.898  42.000   8.848
 1579POPC   D2A22672  33.779  42.066   8.418
 1579POPC   C3A22673  33.975  42.329   8.134
 1579POPC   C4A22674  33.863  42.421   7.702
 1579POPC   C1B22675  33.461  42.269   8.772
 1579POPC   C2B22676  33.280  42.173   8.387
 1579POPC   C3B22677  33.482  42.231   8.020
 1579POPC   C4B22678  33.405  42.120   7.615
 1580POPC   NC322679  12.682  39.504   9.530
 1580POPC   PO422680  13.134  38.968   9.525
 1580POPC   GL122681  12.900  39.168   9.210
 1580POPC   GL222682  12.956  39.517   9.124
 1580POPC   C1A22683  12.809  39.080   8.787
 1580POPC   D2A22684  12.895  38.869   8.406
 1580POPC   C3A22685  12.735  39.085   8.060
 1580POPC   C4A22686  12.668  39.513   7.936
 1580POPC   C1B22687  12.811  39.597   8.744
 1580POPC   C2B22688  12.941  39.408   8.388
 1580POPC   C3B22689  13.182  39.574   8.036
 1580POPC   C4B22690  13.051  39.586   7.588
 1581POPC   NC322691   7.941   2.556   9.457
 1581POPC   PO422692   8.337   2.994   9.544
 1581POPC   GL122693   8.343   2.805   9.158
 1581POPC   GL222694   8.019   2.931   9.113
 1581POPC   C1A22695   8.181   2.550   8.807
 1581POPC   D2A22696   7.998   2.571   8.429
 1581POPC   C3A22697   8.283   2.617   8.092
 1581POPC   C4A22698   8.103   2.665   7.709
 1581POPC   C1B22699   7.802   2.933   8.727
 1581POPC   C2B22700   7.638   3.119   8.345
 1581POPC   C3B22701   7.797   3.199   7.928
 1581POPC   C4B22702   7.988   3.106   7.505
 1582POPC   NC322703  41.927  41.506   9.581
 1582POPC   PO422704  41.326  41.325   9.353
 1582POPC   GL122705  41.442  41.646   9.110
 1582POPC   GL222706  41.767  41.574   9.117
 1582POPC   C1A22707  41.458  41.741   8.684
 1582POPC   D2A22708  41.344  41.435   8.340
 1582POPC   C3A22709  41.465  41.383   7.894
 1582POPC   C4A22710  41.328  41.177   7.502
 1582POPC   C1B22711  41.700  41.295   8.773
 1582POPC   C2B22712  41.851  41.340   8.372
 1582POPC   C3B22713  41.942  41.530   8.000
 1582POPC   C4B22714  41.737  41.771   7.682
 1583POPC   NC322715  36.999  32.064   9.491
 1583POPC   PO422716  36.521  32.569   9.478
 1583POPC   GL122717  36.725  32.352   9.141
 1583POPC   GL222718  37.061  32.425   9.078
 1583POPC   C1A22719  36.714  32.305   8.691
 1583POPC   D2A22720  36.736  32.544   8.319
 1583POPC   C3A22721  36.672  32.251   7.990
 1583POPC   C4A22722  36.826  31.851   7.854
 1583POPC   C1B22723  37.211  32.367   8.612
 1583POPC   C2B22724  37.116  32.180   8.196
 1583POPC   C3B22725  37.124  32.245   7.718
 1583POPC   C4B22726  37.257  32.394   7.272
 1584POPC   NC322727  42.569   5.147   9.548
 1584POPC   PO422728  42.033   5.602   9.406
 1584POPC   GL122729  42.360   5.392   9.090
 1584POPC   GL222730  42.440   5.034   9.076
 1584POPC   C1A22731  42.461   5.360   8.682
 1584POPC   D2A22732  42.158   5.276   8.356
 1584POPC   C3A22733  42.315   5.120   7.985
 1584POPC   C4A22734  42.114   4.957   7.644
 1584POPC   C1B22735  42.512   4.782   8.722
 1584POPC   C2B22736  42.369   4.711   8.344
 1584POPC   C3B22737  42.469   4.622   7.954
 1584POPC   C4B22738  42.656   4.893   7.653
 1585POPC   NC322739  31.195  35.727   9.680
 1585POPC   PO422740  31.864  35.845   9.581
 1585POPC   GL122741  31.622  35.997   9.221
 1585POPC   GL222742  31.366  35.767   9.185
 1585POPC   C1A22743  31.407  36.206   8.843
 1585POPC   D2A22744  31.330  36.078   8.379
 1585POPC   C3A22745  31.499  36.251   7.971
 1585POPC   C4A22746  31.446  36.105   7.508
 1585POPC   C1B22747  31.412  35.705   8.745
 1585POPC   C2B22748  31.193  35.604   8.364
 1585POPC   C3B22749  31.298  35.738   7.927
 1585POPC   C4B22750  31.167  35.663   7.489
 1586POPC   NC322751   2.231  19.505   9.463
 1586POPC   PO422752   1.755  18.990   9.478
 1586POPC   GL122753   2.030  19.124   9.173
 1586POPC   GL222754   1.869  19.399   9.122
 1586POPC   C1A22755   2.107  18.944   8.747
 1586POPC   D2A22756   1.866  19.060   8.377
 1586POPC   C3A22757   2.029  18.922   7.973
 1586POPC   C4A22758   2.382  18.910   7.692
 1586POPC   C1B22759   2.109  19.442   8.762
 1586POPC   C2B22760   2.175  19.456   8.318
 1586POPC   C3B22761   1.827  19.398   7.975
 1586POPC   C4B22762   1.462  19.569   7.719
 1587POPC   NC322763  31.326  27.161   9.410
 1587POPC   PO422764  31.746  26.640   9.586
 1587POPC   GL122765  31.606  26.787   9.151
 1587POPC   GL222766  31.297  26.945   8.969
 1587POPC   C1A22767  31.622  26.689   8.698
 1587POPC   D2A22768  31.303  26.813   8.387
 1587POPC   C3A22769  31.293  26.613   7.986
 1587POPC   C4A22770  31.623  26.831   7.794
 1587POPC   C1B22771  31.556  27.193   8.679
 1587POPC   C2B22772  31.652  27.175   8.227
 1587POPC   C3B22773  31.531  27.381   7.841
 1587POPC   C4B22774  31.394  27.242   7.434
 1588POPC   NC322775  15.465   6.262   9.371
 1588POPC   PO422776  15.124   6.856   9.629
 1588POPC   GL122777  15.012   6.567   9.192
 1588POPC   GL222778  15.065   6.265   9.045
 1588POPC   C1A22779  14.981   6.732   8.766
 1588POPC   D2A22780  15.095   6.633   8.363
 1588POPC   C3A22781  15.088   6.952   8.048
 1588POPC   C4A22782  15.226   6.834   7.672
 1588POPC   C1B22783  15.369   6.327   8.689
 1588POPC   C2B22784  15.406   6.223   8.260
 1588POPC   C3B22785  15.235   6.352   7.846
 1588POPC   C4B22786  15.525   6.455   7.497
 1589POPC   NC322787  28.242   9.466   9.847
 1589POPC   PO422788  28.063  10.116   9.665
 1589POPC   GL122789  28.284   9.887   9.355
 1589POPC   GL222790  28.648   9.878   9.234
 1589POPC   C1A22791  28.245   9.745   8.926
 1589POPC   D2A22792  28.188   9.763   8.464
 1589POPC   C3A22793  28.323   9.480   8.121
 1589POPC   C4A22794  28.239   9.555   7.687
 1589POPC   C1B22795  28.682   9.999   8.772
 1589POPC   C2B22796  28.502  10.164   8.386
 1589POPC   C3B22797  28.407   9.984   7.989
 1589POPC   C4B22798  28.526   9.961   7.567
 1590POPC   NC322799  15.987  11.216   9.531
 1590POPC   PO422800  15.341  11.288   9.589
 1590POPC   GL122801  15.535  11.538   9.202
 1590POPC   GL222802  15.900  11.486   9.128
 1590POPC   C1A22803  15.626  11.535   8.713
 1590POPC   D2A22804  15.861  11.234   8.375
 1590POPC   C3A22805  15.834  11.209   7.883
 1590POPC   C4A22806  15.556  11.084   7.561
 1590POPC   C1B22807  16.147  11.577   8.770
 1590POPC   C2B22808  16.084  11.706   8.362
 1590POPC   C3B22809  16.208  11.476   8.082
 1590POPC   C4B22810  16.330  11.355   7.715
 1591POPC   NC322811  36.719  41.258   9.442
 1591POPC   PO422812  36.709  40.673   9.633
 1591POPC   GL122813  36.629  40.811   9.214
 1591POPC   GL222814  36.959  40.665   9.155
 1591POPC   C1A22815  36.739  40.915   8.745
 1591POPC   D2A22816  36.772  41.114   8.299
 1591POPC   C3A22817  36.754  40.895   7.886
 1591POPC   C4A22818  37.032  41.021   7.562
 1591POPC   C1B22819  37.058  40.502   8.757
 1591POPC   C2B22820  37.032  40.669   8.352
 1591POPC   C3B22821  37.182  40.551   7.939
 1591POPC   C4B22822  37.166  40.502   7.494
 1592POPC   NC322823   8.690  40.815   9.582
 1592POPC   PO422824   9.336  40.991   9.744
 1592POPC   GL122825   9.143  40.841   9.341
 1592POPC   GL222826   8.957  41.123   9.173
 1592POPC   C1A22827   9.088  40.720   8.890
 1592POPC   D2A22828   9.178  40.842   8.458
 1592POPC   C3A22829   9.067  40.545   8.132
 1592POPC   C4A22830   9.170  40.681   7.721
 1592POPC   C1B22831   8.846  41.205   8.710
 1592POPC   C2B22832   8.818  41.248   8.233
 1592POPC   C3B22833   8.778  40.932   7.883
 1592POPC   C4B22834   8.776  40.850   7.414
 1593POPC   NC322835  34.660  39.736   9.659
 1593POPC   PO422836  35.377  39.863   9.472
 1593POPC   GL122837  35.188  40.029   9.100
 1593POPC   GL222838  34.978  40.328   9.145
 1593POPC   C1A22839  35.457  40.182   8.749
 1593POPC   D2A22840  35.538  39.914   8.402
 1593POPC   C3A22841  35.701  39.991   8.021
 1593POPC   C4A22842  35.577  39.775   7.660
 1593POPC   C1B22843  34.945  40.210   8.700
 1593POPC   C2B22844  34.865  40.103   8.273
 1593POPC   C3B22845  35.201  40.089   7.996
 1593POPC   C4B22846  35.196  40.099   7.557
 1594POPC   NC322847  27.882  44.497   9.463
 1594POPC   PO422848  27.258  44.793   9.527
 1594POPC   GL122849  27.237  44.495   9.154
 1594POPC   GL222850  27.535  44.273   9.147
 1594POPC   C1A22851  27.372  44.494   8.700
 1594POPC   D2A22852  27.555  44.669   8.292
 1594POPC   C3A22853  27.526  44.503   7.852
 1594POPC   C4A22854  27.288  44.521   7.410
 1594POPC   C1B22855  27.817  44.263   8.782
 1594POPC   C2B22856  27.776  44.152   8.350
 1594POPC   C3B22857  27.929  44.192   7.940
 1594POPC   C4B22858  28.144  44.555   7.726
 1595POPC   NC322859  24.951  37.339   9.310
 1595POPC   PO422860  25.358  36.768   9.427
 1595POPC   GL122861  25.289  36.991   9.099
 1595POPC   GL222862  24.963  36.869   9.085
 1595POPC   C1A22863  25.258  36.803   8.681
 1595POPC   D2A22864  25.090  36.882   8.312
 1595POPC   C3A22865  25.305  37.157   8.109
 1595POPC   C4A22866  25.291  37.032   7.737
 1595POPC   C1B22867  24.775  37.005   8.721
 1595POPC   C2B22868  24.757  37.247   8.355
 1595POPC   C3B22869  24.842  37.147   7.914
 1595POPC   C4B22870  24.914  37.276   7.445
 1596POPC   NC322871  39.568  15.021   9.306
 1596POPC   PO422872  38.937  14.892   9.415
 1596POPC   GL122873  39.100  15.161   9.092
 1596POPC   GL222874  38.893  15.460   9.103
 1596POPC   C1A22875  39.386  15.205   8.694
 1596POPC   D2A22876  39.629  15.090   8.328
 1596POPC   C3A22877  39.510  15.208   7.919
 1596POPC   C4A22878  39.406  15.021   7.531
 1596POPC   C1B22879  38.891  15.330   8.659
 1596POPC   C2B22880  39.091  15.355   8.232
 1596POPC   C3B22881  39.043  15.398   7.758
 1596POPC   C4B22882  38.826  15.605   7.382
 1597POPC   NC322883   8.543  43.707   9.436
 1597POPC   PO422884   7.952  44.110   9.457
 1597POPC   GL122885   8.177  43.925   9.127
 1597POPC   GL222886   7.893  43.728   9.061
 1597POPC   C1A22887   8.373  43.997   8.712
 1597POPC   D2A22888   8.195  43.965   8.292
 1597POPC   C3A22889   8.384  43.739   7.952
 1597POPC   C4A22890   8.520  43.893   7.551
 1597POPC   C1B22891   7.813  43.894   8.651
 1597POPC   C2B22892   7.699  43.832   8.207
 1597POPC   C3B22893   7.865  43.831   7.774
 1597POPC   C4B22894   7.777  43.640   7.315
 1598POPC   NC322895  24.021  28.632   9.439
 1598POPC   PO422896  24.533  28.661   9.905
 1598POPC   GL122897  24.490  28.803   9.400
 1598POPC   GL222898  24.723  28.723   9.138
 1598POPC   C1A22899  24.340  29.015   8.950
 1598POPC   D2A22900  24.441  29.154   8.494
 1598POPC   C3A22901  24.364  29.082   8.030
 1598POPC   C4A22902  24.095  29.351   7.811
 1598POPC   C1B22903  24.752  28.780   8.680
 1598POPC   C2B22904  24.660  28.727   8.227
 1598POPC   C3B22905  24.956  28.750   7.834
 1598POPC   C4B22906  25.147  29.068   7.515
 1599POPC   NC322907  21.046  30.174   9.125
 1599POPC   PO422908  21.358  29.614   9.253
 1599POPC   GL122909  21.340  29.822   8.935
 1599POPC   GL222910  20.985  29.655   8.895
 1599POPC   C1A22911  21.431  29.977   8.557
 1599POPC   D2A22912  21.200  29.653   8.398
 1599POPC   C3A22913  21.321  29.548   8.010
 1599POPC   C4A22914  21.613  29.774   7.834
 1599POPC   C1B22915  20.750  29.904   8.605
 1599POPC   C2B22916  20.856  30.275   8.454
 1599POPC   C3B22917  21.171  30.217   8.183
 1599POPC   C4B22918  21.182  30.053   7.792
 1600POPC   NC322919   6.656  37.481   9.471
 1600POPC   PO422920   6.338  38.076   9.623
 1600POPC   GL122921   6.636  37.921   9.234
 1600POPC   GL222922   6.503  37.672   9.005
 1600POPC   C1A22923   6.939  37.874   8.847
 1600POPC   D2A22924   7.075  37.782   8.398
 1600POPC   C3A22925   6.773  37.872   8.112
 1600POPC   C4A22926   6.848  37.959   7.730
 1600POPC   C1B22927   6.576  37.693   8.561
 1600POPC   C2B22928   6.357  37.601   8.213
 1600POPC   C3B22929   6.357  37.686   7.814
 1600POPC   C4B22930   6.598  37.514   7.529
 1601POPC   NC322931  24.940   6.919   9.613
 1601POPC   PO422932  25.563   6.704   9.774
 1601POPC   GL122933  25.388   6.743   9.316
 1601POPC   GL222934  25.035   6.718   9.171
 1601POPC   C1A22935  25.417   6.511   8.911
 1601POPC   D2A22936  25.491   6.415   8.478
 1601POPC   C3A22937  25.509   6.718   8.157
 1601POPC   C4A22938  25.356   6.579   7.777
 1601POPC   C1B22939  25.063   6.872   8.759
 1601POPC   C2B22940  25.015   6.725   8.335
 1601POPC   C3B22941  25.024   6.955   7.965
 1601POPC   C4B22942  25.080   6.963   7.535
 1602POPC   NC322943  16.928  41.877   9.460
 1602POPC   PO422944  16.290  41.592   9.422
 1602POPC   GL122945  16.435  41.608   9.019
 1602POPC   GL222946  16.784  41.723   8.997
 1602POPC   C1A22947  16.621  41.423   8.621
 1602POPC   D2A22948  16.825  41.657   8.290
 1602POPC   C3A22949  16.682  41.549   7.921
 1602POPC   C4A22950  16.901  41.386   7.573
 1602POPC   C1B22951  16.548  41.919   8.632
 1602POPC   C2B22952  16.425  42.025   8.206
 1602POPC   C3B22953  16.674  42.052   7.862
 1602POPC   C4B22954  16.698  41.827   7.468
 1603POPC   NC322955  22.014   2.520   9.335
 1603POPC   PO422956  22.539   2.929   9.567
 1603POPC   GL122957  22.259   2.914   9.156
 1603POPC   GL222958  21.989   3.021   9.090
 1603POPC   C1A22959  22.189   2.695   8.720
 1603POPC   D2A22960  22.339   2.830   8.311
 1603POPC   C3A22961  22.312   2.620   7.933
 1603POPC   C4A22962  22.492   2.696   7.536
 1603POPC   C1B22963  21.745   2.987   8.773
 1603POPC   C2B22964  21.826   2.910   8.397
 1603POPC   C3B22965  21.964   3.070   8.047
 1603POPC   C4B22966  22.059   2.984   7.661
 1604POPC   NC322967  20.912   5.352   9.954
 1604POPC   PO422968  20.493   4.981   9.634
 1604POPC   GL122969  20.494   4.920   9.203
 1604POPC   GL222970  20.876   4.925   9.196
 1604POPC   C1A22971  20.468   5.120   8.785
 1604POPC   D2A22972  20.637   4.912   8.410
 1604POPC   C3A22973  20.678   5.088   7.988
 1604POPC   C4A22974  20.345   5.320   7.769
 1604POPC   C1B22975  20.968   5.088   8.777
 1604POPC   C2B22976  21.039   5.247   8.359
 1604POPC   C3B22977  21.177   5.193   7.939
 1604POPC   C4B22978  21.237   4.813   7.686
 1605POPC   NC322979  41.067  13.525   9.550
 1605POPC   PO422980  41.704  13.725   9.657
 1605POPC   GL122981  41.488  13.671   9.266
 1605POPC   GL222982  41.417  13.301   9.232
 1605POPC   C1A22983  41.608  13.599   8.848
 1605POPC   D2A22984  41.956  13.744   8.601
 1605POPC   C3A22985  41.885  13.826   8.144
 1605POPC   C4A22986  41.632  13.739   7.769
 1605POPC   C1B22987  41.411  13.138   8.802
 1605POPC   C2B22988  41.508  13.048   8.373
 1605POPC   C3B22989  41.431  13.245   7.975
 1605POPC   C4B22990  41.505  13.302   7.518
 1606POPC   NC322991   5.737  23.476   9.780
 1606POPC   PO422992   5.472  24.033   9.494
 1606POPC   GL122993   5.693  23.675   9.286
 1606POPC   GL222994   5.864  23.858   9.063
 1606POPC   C1A22995   5.833  23.377   8.913
 1606POPC   D2A22996   6.111  23.396   8.522
 1606POPC   C3A22997   5.887  23.362   8.125
 1606POPC   C4A22998   5.712  23.602   7.754
 1606POPC   C1B22999   5.808  23.965   8.645
 1606POPC   C2B23000   5.829  23.845   8.220
 1606POPC   C3B23001   6.166  23.762   7.921
 1606POPC   C4B23002   6.158  23.800   7.458
 1607POPC   NC323003  28.867   0.866   9.447
 1607POPC   PO423004  29.432   0.876   9.734
 1607POPC   GL123005  29.390   1.098   9.297
 1607POPC   GL223006  29.078   1.283   9.207
 1607POPC   C1A23007  29.404   1.121   8.828
 1607POPC   D2A23008  29.566   1.283   8.426
 1607POPC   C3A23009  29.295   1.413   8.072
 1607POPC   C4A23010  29.289   1.388   7.624
 1607POPC   C1B23011  29.053   1.484   8.797
 1607POPC   C2B23012  29.011   1.260   8.457
 1607POPC   C3B23013  28.789   1.283   8.109
 1607POPC   C4B23014  28.860   1.564   7.799
 1608POPC   NC323015  24.646  13.265   9.508
 1608POPC   PO423016  24.096  13.646   9.329
 1608POPC   GL123017  24.445  13.527   9.116
 1608POPC   GL223018  24.605  13.820   9.193
 1608POPC   C1A23019  24.553  13.593   8.709
 1608POPC   D2A23020  24.325  13.672   8.377
 1608POPC   C3A23021  24.445  13.457   8.001
 1608POPC   C4A23022  24.359  13.554   7.607
 1608POPC   C1B23023  24.914  13.900   8.888
 1608POPC   C2B23024  24.776  13.976   8.469
 1608POPC   C3B23025  24.592  13.942   8.043
 1608POPC   C4B23026  24.733  13.885   7.652
 1609POPC   NC323027  39.434  21.050   9.376
 1609POPC   PO423028  39.621  21.658   9.497
 1609POPC   GL123029  39.278  21.564   9.203
 1609POPC   GL223030  39.024  21.851   9.125
 1609POPC   C1A23031  39.084  21.284   8.847
 1609POPC   D2A23032  38.780  21.233   8.475
 1609POPC   C3A23033  38.947  21.429   8.082
 1609POPC   C4A23034  39.103  21.268   7.676
 1609POPC   C1B23035  39.341  21.845   8.790
 1609POPC   C2B23036  39.442  21.955   8.366
 1609POPC   C3B23037  39.600  21.838   7.957
 1609POPC   C4B23038  39.365  21.714   7.585
 1610POPC   NC323039   1.702  44.061   9.464
 1610POPC   PO423040   2.227  43.486   9.410
 1610POPC   GL123041   1.952  43.749   9.121
 1610POPC   GL223042   1.815  43.480   8.974
 1610POPC   C1A23043   2.058  44.090   8.790
 1610POPC   D2A23044   2.400  44.166   8.476
 1610POPC   C3A23045   2.276  44.020   8.061
 1610POPC   C4A23046   2.091  44.234   7.727
 1610POPC   C1B23047   2.025  43.627   8.592
 1610POPC   C2B23048   1.813  43.910   8.289
 1610POPC   C3B23049   1.791  43.846   7.842
 1610POPC   C4B23050   2.186  43.740   7.600
 1611POPC   NC323051   0.446  38.141   9.871
 1611POPC   PO423052   0.276  38.637   9.474
 1611POPC   GL123053   0.336  38.326   9.158
 1611POPC   GL223054   0.667  38.345   9.133
 1611POPC   C1A23055   0.476  38.174   8.722
 1611POPC   D2A23056   0.646  38.389   8.386
 1611POPC   C3A23057   0.379  38.415   8.043
 1611POPC   C4A23058   0.349  38.077   7.808
 1611POPC   C1B23059   0.632  38.712   8.864
 1611POPC   C2B23060   0.568  38.879   8.449
 1611POPC   C3B23061   0.755  38.771   8.046
 1611POPC   C4B23062   0.587  38.784   7.647
 1612POPC   NC323063  25.049   8.425   9.573
 1612POPC   PO423064  25.475   7.929   9.529
 1612POPC   GL123065  25.255   8.096   9.172
 1612POPC   GL223066  25.392   8.385   9.185
 1612POPC   C1A23067  25.210   8.220   8.738
 1612POPC   D2A23068  25.256   8.050   8.351
 1612POPC   C3A23069  25.037   8.317   8.061
 1612POPC   C4A23070  25.104   8.115   7.667
 1612POPC   C1B23071  25.675   8.413   8.848
 1612POPC   C2B23072  25.544   8.515   8.437
 1612POPC   C3B23073  25.562   8.379   8.031
 1612POPC   C4B23074  25.335   8.546   7.713
 1613POPC   NC323075  10.275  11.431   9.593
 1613POPC   PO423076  10.855  11.155   9.743
 1613POPC   GL123077  10.735  11.357   9.335
 1613POPC   GL223078  10.523  11.085   9.284
 1613POPC   C1A23079  10.487  11.471   8.909
 1613POPC   D2A23080  10.482  11.378   8.431
 1613POPC   C3A23081  10.366  11.523   7.985
 1613POPC   C4A23082  10.194  11.327   7.623
 1613POPC   C1B23083  10.808  11.063   8.912
 1613POPC   C2B23084  10.687  10.921   8.494
 1613POPC   C3B23085  10.541  10.987   8.055
 1613POPC   C4B23086  10.939  10.889   7.817
 1614POPC   NC323087   7.798  11.118   9.492
 1614POPC   PO423088   7.116  11.241   9.536
 1614POPC   GL123089   7.312  11.366   9.136
 1614POPC   GL223090   7.674  11.367   9.055
 1614POPC   C1A23091   7.264  11.219   8.725
 1614POPC   D2A23092   7.486  11.197   8.349
 1614POPC   C3A23093   7.165  11.243   8.018
 1614POPC   C4A23094   7.176  11.207   7.578
 1614POPC   C1B23095   7.896  11.485   8.673
 1614POPC   C2B23096   7.733  11.657   8.270
 1614POPC   C3B23097   7.624  11.423   7.885
 1614POPC   C4B23098   7.606  11.439   7.426
 1615POPC   NC323099  17.386   0.067   9.584
 1615POPC   PO423100  17.605  44.391   9.520
 1615POPC   GL123101  17.607  44.607   9.157
 1615POPC   GL223102  17.456  44.310   9.002
 1615POPC   C1A23103  17.820  44.577   8.760
 1615POPC   D2A23104  17.862  44.336   8.396
 1615POPC   C3A23105  17.644  44.532   8.084
 1615POPC   C4A23106  17.725  44.655   7.661
 1615POPC   C1B23107  17.309  44.498   8.604
 1615POPC   C2B23108  17.139  44.769   8.258
 1615POPC   C3B23109  17.210  44.670   7.836
 1615POPC   C4B23110  17.327  44.232   7.774
 1616POPC   NC323111   5.097  42.180   9.461
 1616POPC   PO423112   4.920  42.829   9.581
 1616POPC   GL123113   4.861  42.552   9.139
 1616POPC   GL223114   5.029  42.199   8.982
 1616POPC   C1A23115   5.104  42.604   8.728
 1616POPC   D2A23116   5.333  42.271   8.501
 1616POPC   C3A23117   5.368  42.493   8.132
 1616POPC   C4A23118   5.043  42.576   7.777
 1616POPC   C1B23119   4.705  42.259   8.696
 1616POPC   C2B23120   4.744  42.166   8.287
 1616POPC   C3B23121   5.044  42.104   7.978
 1616POPC   C4B23122   4.972  42.007   7.555
 1617POPC   NC323123  29.475  11.783   9.369
 1617POPC   PO423124  28.923  12.207   9.550
 1617POPC   GL123125  29.023  12.090   9.151
 1617POPC   GL223126  28.892  12.408   9.050
 1617POPC   C1A23127  29.196  11.881   8.781
 1617POPC   D2A23128  28.986  11.816   8.409
 1617POPC   C3A23129  29.146  11.874   8.023
 1617POPC   C4A23130  29.083  12.129   7.680
 1617POPC   C1B23131  29.257  12.410   8.771
 1617POPC   C2B23132  29.376  12.189   8.408
 1617POPC   C3B23133  29.397  12.333   8.014
 1617POPC   C4B23134  29.278  12.612   7.698
 1618POPC   NC323135  18.238   7.013   9.319
 1618POPC   PO423136  18.520   6.409   9.432
 1618POPC   GL123137  18.606   6.456   9.029
 1618POPC   GL223138  18.709   6.811   9.055
 1618POPC   C1A23139  18.266   6.328   8.730
 1618POPC   D2A23140  17.994   6.519   8.430
 1618POPC   C3A23141  18.101   6.477   8.003
 1618POPC   C4A23142  18.003   6.471   7.553
 1618POPC   C1B23143  18.497   6.787   8.628
 1618POPC   C2B23144  18.567   6.689   8.163
 1618POPC   C3B23145  18.477   6.716   7.705
 1618POPC   C4B23146  18.640   6.854   7.262
 1619POPC   NC323147   4.641  23.075   9.514
 1619POPC   PO423148   4.250  22.615   9.715
 1619POPC   GL123149   4.398  22.724   9.256
 1619POPC   GL223150   4.655  22.503   9.082
 1619POPC   C1A23151   4.420  23.024   8.899
 1619POPC   D2A23152   4.617  22.998   8.510
 1619POPC   C3A23153   4.367  22.968   8.121
 1619POPC   C4A23154   4.386  22.872   7.691
 1619POPC   C1B23155   4.281  22.557   8.786
 1619POPC   C2B23156   4.000  22.654   8.444
 1619POPC   C3B23157   3.990  22.619   7.998
 1619POPC   C4B23158   3.997  22.573   7.541
 1620POPC   NC323159  13.844  10.420   9.562
 1620POPC   PO423160  13.762  11.046   9.478
 1620POPC   GL123161  13.561  10.708   9.204
 1620POPC   GL223162  13.622  10.328   9.105
 1620POPC   C1A23163  13.430  10.708   8.775
 1620POPC   D2A23164  13.661  10.625   8.392
 1620POPC   C3A23165  13.529  10.798   8.010
 1620POPC   C4A23166  13.279  10.489   7.829
 1620POPC   C1B23167  13.912  10.511   8.827
 1620POPC   C2B23168  14.169  10.394   8.493
 1620POPC   C3B23169  14.030  10.445   8.086
 1620POPC   C4B23170  13.779  10.457   7.697
 1621POPC   NC323171  18.705  11.482   9.367
 1621POPC   PO423172  18.061  11.252   9.580
 1621POPC   GL123173  18.248  11.179   9.213
 1621POPC   GL223174  18.267  11.498   9.112
 1621POPC   C1A23175  18.095  11.084   8.790
 1621POPC   D2A23176  18.318  11.061   8.389
 1621POPC   C3A23177  18.057  11.151   8.062
 1621POPC   C4A23178  18.088  11.238   7.643
 1621POPC   C1B23179  18.461  11.437   8.739
 1621POPC   C2B23180  18.652  11.458   8.342
 1621POPC   C3B23181  18.492  11.423   7.917
 1621POPC   C4B23182  18.409  11.615   7.513
 1622POPC   NC323183  39.701  27.012   9.422
 1622POPC   PO423184  40.118  26.668   9.718
 1622POPC   GL123185  39.994  26.648   9.228
 1622POPC   GL223186  39.754  26.441   9.038
 1622POPC   C1A23187  40.066  26.870   8.825
 1622POPC   D2A23188  39.864  27.060   8.486
 1622POPC   C3A23189  40.085  26.945   8.139
 1622POPC   C4A23190  40.156  27.098   7.757
 1622POPC   C1B23191  39.550  26.768   8.824
 1622POPC   C2B23192  39.492  26.705   8.421
 1622POPC   C3B23193  39.754  26.536   8.127
 1622POPC   C4B23194  39.690  26.800   7.829
 1623POPC   NC323195  21.960  34.747   9.556
 1623POPC   PO423196  22.475  34.292   9.327
 1623POPC   GL123197  22.241  34.626   9.141
 1623POPC   GL223198  21.924  34.515   9.086
 1623POPC   C1A23199  22.405  34.820   8.776
 1623POPC   D2A23200  22.551  34.606   8.413
 1623POPC   C3A23201  22.416  34.780   8.016
 1623POPC   C4A23202  22.240  34.850   7.611
 1623POPC   C1B23203  21.902  34.840   8.768
 1623POPC   C2B23204  22.074  34.983   8.364
 1623POPC   C3B23205  21.857  34.900   7.961
 1623POPC   C4B23206  21.878  34.499   7.724
 1624POPC   NC323207   9.905   1.537   9.520
 1624POPC   PO423208   9.930   2.246   9.668
 1624POPC   GL123209   9.764   2.026   9.295
 1624POPC   GL223210   9.568   1.725   9.180
 1624POPC   C1A23211   9.632   2.140   8.892
 1624POPC   D2A23212   9.762   2.007   8.475
 1624POPC   C3A23213   9.589   2.230   8.121
 1624POPC   C4A23214   9.425   2.106   7.732
 1624POPC   C1B23215   9.937   1.666   8.846
 1624POPC   C2B23216  10.100   1.627   8.375
 1624POPC   C3B23217   9.915   1.785   7.937
 1624POPC   C4B23218  10.067   1.693   7.483
 1625POPC   NC323219  34.598  10.941   9.411
 1625POPC   PO423220  34.359  10.305   9.517
 1625POPC   GL123221  34.579  10.441   9.109
 1625POPC   GL223222  34.858  10.667   9.070
 1625POPC   C1A23223  34.558  10.602   8.667
 1625POPC   D2A23224  34.741  10.880   8.380
 1625POPC   C3A23225  34.627  10.708   7.990
 1625POPC   C4A23226  34.524  10.479   7.647
 1625POPC   C1B23227  35.062  10.551   8.672
 1625POPC   C2B23228  34.881  10.373   8.301
 1625POPC   C3B23229  34.860  10.198   7.895
 1625POPC   C4B23230  35.025  10.464   7.522
 1626POPC   NC323231  40.642   9.004   9.673
 1626POPC   PO423232  39.983   9.180   9.690
 1626POPC   GL123233  40.135   8.918   9.326
 1626POPC   GL223234  39.950   9.185   9.156
 1626POPC   C1A23235  40.244   8.894   8.853
 1626POPC   D2A23236  39.936   9.050   8.527
 1626POPC   C3A23237  39.926   8.906   8.092
 1626POPC   C4A23238  40.052   8.612   7.761
 1626POPC   C1B23239  40.133   9.417   8.838
 1626POPC   C2B23240  40.305   9.385   8.416
 1626POPC   C3B23241  40.167   9.370   8.004
 1626POPC   C4B23242  39.921   9.202   7.663
 1627POPC   NC323243   1.525   8.589   9.399
 1627POPC   PO423244   1.059   8.982   9.666
 1627POPC   GL123245   1.093   8.807   9.225
 1627POPC   GL223246   1.401   8.978   9.090
 1627POPC   C1A23247   1.069   8.776   8.749
 1627POPC   D2A23248   1.372   8.726   8.400
 1627POPC   C3A23249   1.322   8.826   8.006
 1627POPC   C4A23250   0.920   8.909   7.870
 1627POPC   C1B23251   1.316   9.225   8.724
 1627POPC   C2B23252   1.114   9.190   8.321
 1627POPC   C3B23253   1.236   9.315   7.912
 1627POPC   C4B23254   1.506   9.476   7.570
 1628POPC   NC323255  18.798  42.275   9.560
 1628POPC   PO423256  19.418  42.230   9.236
 1628POPC   GL123257  18.997  42.201   9.085
 1628POPC   GL223258  18.766  42.508   9.105
 1628POPC   C1A23259  19.088  42.268   8.667
 1628POPC   D2A23260  19.396  42.140   8.347
 1628POPC   C3A23261  19.241  42.279   7.968
 1628POPC   C4A23262  18.796  42.241   7.867
 1628POPC   C1B23263  18.672  42.579   8.688
 1628POPC   C2B23264  18.926  42.567   8.299
 1628POPC   C3B23265  18.957  42.736   7.915
 1628POPC   C4B23266  18.721  42.630   7.542
 1629POPC   NC323267  37.446  38.661   9.552
 1629POPC   PO423268  37.922  38.172   9.393
 1629POPC   GL123269  37.577  38.317   9.139
 1629POPC   GL223270  37.546  38.672   9.070
 1629POPC   C1A23271  37.598  38.380   8.672
 1629POPC   D2A23272  37.661  38.622   8.288
 1629POPC   C3A23273  37.865  38.364   7.982
 1629POPC   C4A23274  37.804  38.264   7.540
 1629POPC   C1B23275  37.360  39.003   8.857
 1629POPC   C2B23276  37.325  39.023   8.419
 1629POPC   C3B23277  37.230  38.766   8.057
 1629POPC   C4B23278  37.371  38.528   7.712
 1630POPC   NC323279  38.202  14.296   9.576
 1630POPC   PO423280  38.816  13.987   9.496
 1630POPC   GL123281  38.692  14.195   9.101
 1630POPC   GL223282  38.385  14.359   9.106
 1630POPC   C1A23283  38.618  14.307   8.640
 1630POPC   D2A23284  38.601  14.625   8.314
 1630POPC   C3A23285  38.809  14.478   7.971
 1630POPC   C4A23286  38.732  14.093   7.844
 1630POPC   C1B23287  38.120  14.343   8.734
 1630POPC   C2B23288  38.101  13.969   8.455
 1630POPC   C3B23289  38.282  13.953   8.060
 1630POPC   C4B23290  38.308  14.389   7.920
 1631POPC   NC323291  32.124  32.541   9.492
 1631POPC   PO423292  32.421  33.110   9.509
 1631POPC   GL123293  32.282  33.099   9.097
 1631POPC   GL223294  32.384  33.437   9.059
 1631POPC   C1A23295  32.235  32.816   8.766
 1631POPC   D2A23296  32.022  32.564   8.457
 1631POPC   C3A23297  32.164  32.686   8.031
 1631POPC   C4A23298  32.347  32.676   7.605
 1631POPC   C1B23299  32.273  33.333   8.632
 1631POPC   C2B23300  32.057  33.096   8.322
 1631POPC   C3B23301  32.091  33.172   7.899
 1631POPC   C4B23302  32.353  33.489   7.803
 1632POPC   NC323303  11.943  37.237   9.516
 1632POPC   PO423304  12.486  37.623   9.564
 1632POPC   GL123305  12.233  37.550   9.219
 1632POPC   GL223306  12.406  37.258   9.176
 1632POPC   C1A23307  12.008  37.470   8.830
 1632POPC   D2A23308  11.781  37.304   8.489
 1632POPC   C3A23309  11.965  37.417   8.098
 1632POPC   C4A23310  12.006  37.771   7.855
 1632POPC   C1B23311  12.520  37.459   8.789
 1632POPC   C2B23312  12.377  37.364   8.414
 1632POPC   C3B23313  12.515  37.270   8.029
 1632POPC   C4B23314  12.376  37.487   7.676
 1633POPC   NC323315  14.905  42.491   9.389
 1633POPC   PO423316  15.422  42.083   9.496
 1633POPC   GL123317  15.217  42.181   9.093
 1633POPC   GL223318  14.848  42.171   8.999
 1633POPC   C1A23319  15.196  42.058   8.640
 1633POPC   D2A23320  14.966  42.314   8.325
 1633POPC   C3A23321  15.018  42.154   7.919
 1633POPC   C4A23322  15.082  41.982   7.522
 1633POPC   C1B23323  15.080  42.551   8.772
 1633POPC   C2B23324  15.146  42.813   8.402
 1633POPC   C3B23325  15.312  42.613   8.025
 1633POPC   C4B23326  15.572  42.725   7.671
 1634POPC   NC323327  39.666  10.378   9.444
 1634POPC   PO423328  40.275  10.136   9.645
 1634POPC   GL123329  40.143  10.298   9.233
 1634POPC   GL223330  40.019  10.650   9.209
 1634POPC   C1A23331  40.132  10.361   8.782
 1634POPC   D2A23332  40.084  10.566   8.385
 1634POPC   C3A23333  40.101  10.312   8.009
 1634POPC   C4A23334  40.078  10.286   7.541
 1634POPC   C1B23335  39.686  10.696   8.832
 1634POPC   C2B23336  39.754  10.957   8.428
 1634POPC   C3B23337  39.789  10.784   7.999
 1634POPC   C4B23338  39.829  10.936   7.574
 1635POPC   NC323339  11.016  27.399   9.535
 1635POPC   PO423340  10.350  27.485   9.450
 1635POPC   GL123341  10.457  27.634   9.081
 1635POPC   GL223342  10.786  27.658   9.127
 1635POPC   C1A23343  10.555  27.706   8.658
 1635POPC   D2A23344  10.816  27.771   8.313
 1635POPC   C3A23345  10.575  27.863   7.929
 1635POPC   C4A23346  10.410  27.607   7.600
 1635POPC   C1B23347  10.933  27.368   8.813
 1635POPC   C2B23348  11.063  27.322   8.388
 1635POPC   C3B23349  10.872  27.388   7.959
 1635POPC   C4B23350  10.925  27.631   7.609
 1636POPC   NC323351  34.268  42.084   9.469
 1636POPC   PO423352  34.819  42.520   9.499
 1636POPC   GL123353  34.670  42.293   9.179
 1636POPC   GL223354  34.392  42.492   9.138
 1636POPC   C1A23355  34.657  42.311   8.735
 1636POPC   D2A23356  34.795  42.034   8.426
 1636POPC   C3A23357  34.706  42.193   8.013
 1636POPC   C4A23358  34.852  42.577   7.792
 1636POPC   C1B23359  34.147  42.449   8.771
 1636POPC   C2B23360  34.079  42.745   8.472
 1636POPC   C3B23361  34.097  42.818   8.045
 1636POPC   C4B23362  34.346  42.516   7.820
 1637POPC   NC323363  16.606  40.412   9.552
 1637POPC   PO423364  17.130  39.918   9.585
 1637POPC   GL123365  17.026  39.995   9.194
 1637POPC   GL223366  16.688  39.979   9.261
 1637POPC   C1A23367  17.101  40.173   8.802
 1637POPC   D2A23368  17.248  40.009   8.429
 1637POPC   C3A23369  16.988  40.128   8.133
 1637POPC   C4A23370  16.899  40.026   7.735
 1637POPC   C1B23371  16.589  40.180   8.906
 1637POPC   C2B23372  16.560  40.187   8.459
 1637POPC   C3B23373  16.499  39.932   8.101
 1637POPC   C4B23374  16.408  40.102   7.743
 1638POPC   NC323375  17.172  27.780   9.777
 1638POPC   PO423376  16.818  27.353   9.429
 1638POPC   GL123377  16.737  27.660   9.096
 1638POPC   GL223378  16.401  27.567   8.971
 1638POPC   C1A23379  16.832  27.840   8.684
 1638POPC   D2A23380  17.077  27.598   8.379
 1638POPC   C3A23381  16.988  27.601   7.935
 1638POPC   C4A23382  16.630  27.642   7.685
 1638POPC   C1B23383  16.636  27.375   8.658
 1638POPC   C2B23384  16.593  27.474   8.260
 1638POPC   C3B23385  16.586  27.201   7.948
 1638POPC   C4B23386  16.729  27.179   7.526
 1639POPC   NC323387   4.036  32.382   9.258
 1639POPC   PO423388   4.324  32.029   9.689
 1639POPC   GL123389   4.349  31.976   9.212
 1639POPC   GL223390   4.558  32.262   9.176
 1639POPC   C1A23391   4.314  32.107   8.721
 1639POPC   D2A23392   4.084  32.194   8.310
 1639POPC   C3A23393   4.174  32.065   7.862
 1639POPC   C4A23394   4.031  32.111   7.414
 1639POPC   C1B23395   4.644  32.493   8.829
 1639POPC   C2B23396   4.388  32.602   8.470
 1639POPC   C3B23397   4.361  32.543   8.027
 1639POPC   C4B23398   4.261  32.523   7.596
 1640POPC   NC323399  18.303   1.529   9.407
 1640POPC   PO423400  18.047   0.949   9.311
 1640POPC   GL123401  18.152   1.145   8.995
 1640POPC   GL223402  18.046   1.491   8.968
 1640POPC   C1A23403  18.070   0.955   8.630
 1640POPC   D2A23404  18.017   0.892   8.213
 1640POPC   C3A23405  18.317   1.043   7.930
 1640POPC   C4A23406  18.361   1.356   7.635
 1640POPC   C1B23407  18.499   1.425   8.780
 1640POPC   C2B23408  18.456   1.299   8.383
 1640POPC   C3B23409  18.622   1.438   8.048
 1640POPC   C4B23410  18.795   1.612   7.682
 1641POPC   NC323411  42.776  28.437   9.486
 1641POPC   PO423412  43.238  27.975   9.440
 1641POPC   GL123413  43.137  28.297   9.163
 1641POPC   GL223414  43.305  28.624   9.253
 1641POPC   C1A23415  42.957  28.465   8.801
 1641POPC   D2A23416  43.159  28.298   8.450
 1641POPC   C3A23417  43.049  28.406   8.058
 1641POPC   C4A23418  42.980  28.180   7.706
 1641POPC   C1B23419  43.474  28.490   8.830
 1641POPC   C2B23420  43.619  28.572   8.403
 1641POPC   C3B23421  43.553  28.564   7.997
 1641POPC   C4B23422  43.465  28.280   7.694
 1642POPC   NC323423   7.853  12.291   9.523
 1642POPC   PO423424   7.787  11.613   9.504
 1642POPC   GL123425   7.729  11.912   9.152
 1642POPC   GL223426   7.400  11.960   9.016
 1642POPC   C1A23427   7.760  12.297   8.849
 1642POPC   D2A23428   7.882  12.424   8.420
 1642POPC   C3A23429   7.584  12.342   8.105
 1642POPC   C4A23430   7.524  12.164   7.716
 1642POPC   C1B23431   7.433  11.697   8.722
 1642POPC   C2B23432   7.223  11.632   8.375
 1642POPC   C3B23433   7.305  11.825   8.022
 1642POPC   C4B23434   7.239  11.724   7.617
 1643POPC   NC323435  30.461  16.934   9.348
 1643POPC   PO423436  30.686  16.284   9.433
 1643POPC   GL123437  30.610  16.510   9.076
 1643POPC   GL223438  30.232  16.542   9.075
 1643POPC   C1A23439  30.837  16.546   8.686
 1643POPC   D2A23440  30.736  16.503   8.244
 1643POPC   C3A23441  30.564  16.834   8.006
 1643POPC   C4A23442  30.797  17.042   7.662
 1643POPC   C1B23443  30.340  16.668   8.648
 1643POPC   C2B23444  30.221  16.469   8.274
 1643POPC   C3B23445  30.374  16.364   7.863
 1643POPC   C4B23446  30.316  16.707   7.569
 1644POPC   NC323447  40.474  44.123   9.507
 1644POPC   PO423448  41.003  43.683   9.554
 1644POPC   GL123449  40.810  43.865   9.194
 1644POPC   GL223450  40.497  43.683   9.179
 1644POPC   C1A23451  40.802  43.786   8.758
 1644POPC   D2A23452  41.053  43.643   8.416
 1644POPC   C3A23453  40.826  43.861   8.076
 1644POPC   C4A23454  40.989  44.210   7.853
 1644POPC   C1B23455  40.277  43.682   8.779
 1644POPC   C2B23456  40.229  43.834   8.347
 1644POPC   C3B23457  40.360  43.597   7.973
 1644POPC   C4B23458  40.645  43.639   7.636
 1645POPC   NC323459  25.825   1.034   9.490
 1645POPC   PO423460  25.757   1.707   9.324
 1645POPC   GL123461  25.852   1.324   9.045
 1645POPC   GL223462  25.735   0.944   9.003
 1645POPC   C1A23463  25.891   1.312   8.584
 1645POPC   D2A23464  26.223   1.504   8.310
 1645POPC   C3A23465  26.138   1.615   7.896
 1645POPC   C4A23466  25.749   1.506   7.718
 1645POPC   C1B23467  26.142   0.930   8.806
 1645POPC   C2B23468  26.273   0.987   8.371
 1645POPC   C3B23469  26.022   1.113   7.988
 1645POPC   C4B23470  25.579   1.043   7.823
 1646POPC   NC323471   7.669  14.659   9.548
 1646POPC   PO423472   7.221  14.209   9.441
 1646POPC   GL123473   7.379  14.517   9.137
 1646POPC   GL223474   7.504  14.866   9.084
 1646POPC   C1A23475   7.456  14.506   8.710
 1646POPC   D2A23476   7.400  14.189   8.444
 1646POPC   C3A23477   7.567  14.292   8.067
 1646POPC   C4A23478   7.611  14.092   7.691
 1646POPC   C1B23479   7.079  14.810   8.839
 1646POPC   C2B23480   7.012  14.605   8.444
 1646POPC   C3B23481   7.190  14.710   8.076
 1646POPC   C4B23482   7.489  14.818   7.787
 1647POPC   NC323483  31.918  15.835   9.689
 1647POPC   PO423484  32.446  16.314   9.515
 1647POPC   GL123485  32.394  16.118   9.149
 1647POPC   GL223486  32.359  15.767   9.218
 1647POPC   C1A23487  32.158  16.204   8.787
 1647POPC   D2A23488  32.319  16.119   8.410
 1647POPC   C3A23489  32.055  16.103   8.080
 1647POPC   C4A23490  31.895  16.373   7.789
 1647POPC   C1B23491  32.476  15.765   8.754
 1647POPC   C2B23492  32.458  15.649   8.264
 1647POPC   C3B23493  32.388  15.828   7.817
 1647POPC   C4B23494  32.510  15.826   7.372
 1648POPC   NC323495  41.024  24.974   9.536
 1648POPC   PO423496  40.381  25.171   9.521
 1648POPC   GL123497  40.700  25.169   9.174
 1648POPC   GL223498  40.946  25.448   9.012
 1648POPC   C1A23499  40.570  25.221   8.761
 1648POPC   D2A23500  40.385  25.076   8.414
 1648POPC   C3A23501  40.591  25.277   8.062
 1648POPC   C4A23502  40.971  25.176   7.815
 1648POPC   C1B23503  41.071  25.064   8.816
 1648POPC   C2B23504  40.929  25.069   8.401
 1648POPC   C3B23505  41.034  25.474   8.257
 1648POPC   C4B23506  41.282  25.579   7.929
 1649POPC   NC323507  36.963  39.610   9.289
 1649POPC   PO423508  37.075  38.944   9.497
 1649POPC   GL123509  36.827  38.951   9.121
 1649POPC   GL223510  36.632  39.270   9.046
 1649POPC   C1A23511  36.625  38.826   8.747
 1649POPC   D2A23512  36.820  38.847   8.351
 1649POPC   C3A23513  36.931  39.193   8.130
 1649POPC   C4A23514  37.136  39.144   7.732
 1649POPC   C1B23515  36.943  39.271   8.686
 1649POPC   C2B23516  37.209  39.553   8.404
 1649POPC   C3B23517  37.188  39.615   7.958
 1649POPC   C4B23518  36.776  39.495   7.744
 1650POPC   NC323519  20.716  28.237   9.587
 1650POPC   PO423520  20.466  27.607   9.694
 1650POPC   GL123521  20.452  27.386   9.298
 1650POPC   GL223522  20.388  27.718   9.158
 1650POPC   C1A23523  20.413  27.271   8.847
 1650POPC   D2A23524  20.429  27.521   8.446
 1650POPC   C3A23525  20.392  27.310   8.037
 1650POPC   C4A23526  20.328  27.573   7.639
 1650POPC   C1B23527  20.702  27.748   8.833
 1650POPC   C2B23528  20.793  27.936   8.439
 1650POPC   C3B23529  20.630  27.774   8.025
 1650POPC   C4B23530  20.810  27.400   7.763
 1651POPC   NC323531  22.521  35.140   9.654
 1651POPC   PO423532  21.855  35.201   9.632
 1651POPC   GL123533  21.979  35.106   9.201
 1651POPC   GL223534  21.647  34.974   9.184
 1651POPC   C1A23535  22.135  35.282   8.797
 1651POPC   D2A23536  22.242  35.603   8.485
 1651POPC   C3A23537  22.204  35.430   8.076
 1651POPC   C4A23538  22.413  35.531   7.687
 1651POPC   C1B23539  21.632  35.301   8.839
 1651POPC   C2B23540  21.766  35.384   8.406
 1651POPC   C3B23541  21.687  35.404   7.957
 1651POPC   C4B23542  21.968  35.289   7.620
 1652POPC   NC323543  29.182   8.682   9.442
 1652POPC   PO423544  28.790   9.113   9.206
 1652POPC   GL123545  29.222   9.011   9.052
 1652POPC   GL223546  29.502   9.233   9.214
 1652POPC   C1A23547  29.271   8.718   8.681
 1652POPC   D2A23548  28.915   8.609   8.360
 1652POPC   C3A23549  28.909   8.846   7.971
 1652POPC   C4A23550  28.754   8.850   7.565
 1652POPC   C1B23551  29.502   9.302   8.755
 1652POPC   C2B23552  29.167   9.186   8.470
 1652POPC   C3B23553  29.127   9.289   8.049
 1652POPC   C4B23554  29.426   8.983   7.883
 1653POPC   NC323555  32.767  10.835   9.521
 1653POPC   PO423556  33.373  10.475   9.528
 1653POPC   GL123557  33.233  10.623   9.171
 1653POPC   GL223558  32.912  10.439   9.190
 1653POPC   C1A23559  33.243  10.442   8.758
 1653POPC   D2A23560  32.984  10.228   8.425
 1653POPC   C3A23561  33.227  10.382   8.107
 1653POPC   C4A23562  33.501  10.321   7.791
 1653POPC   C1B23563  32.746  10.511   8.778
 1653POPC   C2B23564  32.834  10.705   8.355
 1653POPC   C3B23565  32.731  10.447   7.988
 1653POPC   C4B23566  32.804  10.416   7.546
 1654POPC   NC323567  37.497  13.934   9.684
 1654POPC   PO423568  36.824  13.815   9.490
 1654POPC   GL123569  36.977  13.653   9.104
 1654POPC   GL223570  37.199  13.361   9.067
 1654POPC   C1A23571  36.827  13.802   8.705
 1654POPC   D2A23572  36.574  13.822   8.333
 1654POPC   C3A23573  36.801  13.552   8.088
 1654POPC   C4A23574  37.131  13.520   7.813
 1654POPC   C1B23575  36.856  13.225   8.862
 1654POPC   C2B23576  36.641  13.319   8.524
 1654POPC   C3B23577  36.534  13.115   8.144
 1654POPC   C4B23578  36.742  13.161   7.760
 1655POPC   NC323579  13.390  44.351   9.482
 1655POPC   PO423580  13.577  43.739   9.376
 1655POPC   GL123581  13.698  44.095   9.119
 1655POPC   GL223582  14.070  44.096   9.125
 1655POPC   C1A23583  13.560  44.128   8.689
 1655POPC   D2A23584  13.643  43.791   8.364
 1655POPC   C3A23585  13.431  43.793   7.960
 1655POPC   C4A23586  13.306  44.105   7.648
 1655POPC   C1B23587  13.993  43.849   8.756
 1655POPC   C2B23588  14.110  43.991   8.334
 1655POPC   C3B23589  13.920  43.986   7.907
 1655POPC   C4B23590  13.816  43.598   7.685
 1656POPC   NC323591  32.483  41.010   9.600
 1656POPC   PO423592  31.864  40.743   9.684
 1656POPC   GL123593  32.191  40.698   9.312
 1656POPC   GL223594  32.194  41.036   9.173
 1656POPC   C1A23595  32.320  40.663   8.830
 1656POPC   D2A23596  32.295  40.420   8.414
 1656POPC   C3A23597  32.225  40.616   8.002
 1656POPC   C4A23598  32.497  40.884   7.788
 1656POPC   C1B23599  31.989  41.097   8.759
 1656POPC   C2B23600  31.956  40.912   8.342
 1656POPC   C3B23601  32.047  41.114   7.937
 1656POPC   C4B23602  32.083  40.913   7.518
 1657POPC   NC323603  20.953  42.954   9.546
 1657POPC   PO423604  21.597  43.135   9.691
 1657POPC   GL123605  21.415  43.136   9.285
 1657POPC   GL223606  21.673  43.422   9.228
 1657POPC   C1A23607  21.222  42.990   8.895
 1657POPC   D2A23608  21.401  43.036   8.492
 1657POPC   C3A23609  21.269  43.192   8.092
 1657POPC   C4A23610  21.120  42.941   7.740
 1657POPC   C1B23611  21.447  43.456   8.858
 1657POPC   C2B23612  21.640  43.477   8.459
 1657POPC   C3B23613  21.628  43.595   8.055
 1657POPC   C4B23614  21.896  43.573   7.738
 1658POPC   NC323615  44.821  21.232   9.649
 1658POPC   PO423616  44.347  21.782   9.684
 1658POPC   GL123617  44.604  21.583   9.314
 1658POPC   GL223618  44.558  21.204   9.219
 1658POPC   C1A23619  44.903  21.537   8.939
 1658POPC   D2A23620   0.083  21.533   8.525
 1658POPC   C3A23621  44.726  21.360   8.272
 1658POPC   C4A23622  44.490  21.453   7.884
 1658POPC   C1B23623  44.736  21.025   8.821
 1658POPC   C2B23624  44.650  20.861   8.405
 1658POPC   C3B23625  44.748  20.949   7.962
 1658POPC   C4B23626  44.796  21.143   7.569
 1659POPC   NC323627  26.089  25.673   9.753
 1659POPC   PO423628  26.174  26.296   9.458
 1659POPC   GL123629  25.900  26.186   9.159
 1659POPC   GL223630  25.906  25.834   9.189
 1659POPC   C1A23631  26.067  26.144   8.757
 1659POPC   D2A23632  26.327  26.147   8.406
 1659POPC   C3A23633  26.102  26.169   8.011
 1659POPC   C4A23634  26.086  25.954   7.642
 1659POPC   C1B23635  25.850  25.673   8.763
 1659POPC   C2B23636  25.897  25.835   8.348
 1659POPC   C3B23637  25.754  25.701   7.920
 1659POPC   C4B23638  25.751  25.535   7.455
 1660POPC   NC323639  20.334  26.303   9.533
 1660POPC   PO423640  20.839  25.831   9.645
 1660POPC   GL123641  20.717  25.769   9.231
 1660POPC   GL223642  20.853  26.096   9.107
 1660POPC   C1A23643  20.553  25.697   8.818
 1660POPC   D2A23644  20.643  25.973   8.485
 1660POPC   C3A23645  20.648  25.781   8.106
 1660POPC   C4A23646  20.607  25.942   7.733
 1660POPC   C1B23647  20.831  26.375   8.716
 1660POPC   C2B23648  20.598  26.473   8.320
 1660POPC   C3B23649  20.723  26.436   7.875
 1660POPC   C4B23650  21.018  26.510   7.516
 1661POPC   NC323651  13.092  44.836   9.843
 1661POPC   PO423652  13.663  44.713   9.589
 1661POPC   GL123653  13.653  44.614   9.147
 1661POPC   GL223654  13.975  44.589   9.087
 1661POPC   C1A23655  13.586  44.654   8.713
 1661POPC   D2A23656  13.704  44.950   8.422
 1661POPC   C3A23657  13.582  44.887   8.007
 1661POPC   C4A23658  13.323  44.612   7.779
 1661POPC   C1B23659  14.013  44.368   8.685
 1661POPC   C2B23660  13.775  44.381   8.278
 1661POPC   C3B23661  13.840  44.487   7.833
 1661POPC   C4B23662  14.042  44.422   7.454
 1662POPC   NC323663  38.658   0.962   9.448
 1662POPC   PO423664  38.290   1.466   9.773
 1662POPC   GL123665  38.143   1.405   9.315
 1662POPC   GL223666  38.219   1.053   9.163
 1662POPC   C1A23667  38.309   1.424   8.861
 1662POPC   D2A23668  38.452   1.199   8.493
 1662POPC   C3A23669  38.327   1.385   8.093
 1662POPC   C4A23670  38.573   1.435   7.799
 1662POPC   C1B23671  38.240   0.804   8.778
 1662POPC   C2B23672  38.086   0.876   8.341
 1662POPC   C3B23673  38.346   0.896   7.988
 1662POPC   C4B23674  38.169   1.061   7.629
 1663POPC   NC323675  39.201  18.848   9.548
 1663POPC   PO423676  39.329  19.489   9.492
 1663POPC   GL123677  39.177  19.235   9.167
 1663POPC   GL223678  39.340  18.946   9.087
 1663POPC   C1A23679  39.031  19.221   8.738
 1663POPC   D2A23680  39.117  19.372   8.331
 1663POPC   C3A23681  38.874  19.074   8.103
 1663POPC   C4A23682  38.955  18.797   7.728
 1663POPC   C1B23683  39.415  18.888   8.701
 1663POPC   C2B23684  39.205  18.742   8.378
 1663POPC   C3B23685  39.362  18.979   8.073
 1663POPC   C4B23686  39.452  18.989   7.699
 1664POPC   NC323687   4.755  34.261   9.809
 1664POPC   PO423688   5.147  34.759   9.849
 1664POPC   GL123689   5.025  34.593   9.394
 1664POPC   GL223690   4.850  34.289   9.273
 1664POPC   C1A23691   5.012  34.745   8.937
 1664POPC   D2A23692   5.217  34.829   8.533
 1664POPC   C3A23693   5.052  34.745   8.126
 1664POPC   C4A23694   5.082  34.565   7.711
 1664POPC   C1B23695   5.097  34.255   8.877
 1664POPC   C2B23696   4.903  34.391   8.483
 1664POPC   C3B23697   4.827  34.270   8.049
 1664POPC   C4B23698   4.713  34.266   7.590
 1665POPC   NC323699  16.564  18.743   9.881
 1665POPC   PO423700  17.045  19.014   9.528
 1665POPC   GL123701  16.707  18.901   9.235
 1665POPC   GL223702  16.665  19.197   9.026
 1665POPC   C1A23703  16.787  18.769   8.800
 1665POPC   D2A23704  16.947  19.086   8.520
 1665POPC   C3A23705  16.855  19.191   8.100
 1665POPC   C4A23706  16.781  19.034   7.698
 1665POPC   C1B23707  16.470  19.295   8.691
 1665POPC   C2B23708  16.358  19.436   8.356
 1665POPC   C3B23709  16.363  19.246   7.998
 1665POPC   C4B23710  16.473  19.432   7.637
 1666POPC   NC323711  37.361  34.692   9.661
 1666POPC   PO423712  37.977  34.381   9.780
 1666POPC   GL123713  37.822  34.595   9.346
 1666POPC   GL223714  37.556  34.786   9.164
 1666POPC   C1A23715  38.011  34.742   8.918
 1666POPC   D2A23716  37.799  34.884   8.552
 1666POPC   C3A23717  37.837  34.654   8.160
 1666POPC   C4A23718  38.016  34.650   7.738
 1666POPC   C1B23719  37.640  34.375   8.879
 1666POPC   C2B23720  37.420  34.135   8.533
 1666POPC   C3B23721  37.282  34.262   8.115
 1666POPC   C4B23722  37.522  34.473   7.778
 1667POPC   NC323723  42.975   3.794   9.717
 1667POPC   PO423724  43.502   3.442   9.520
 1667POPC   GL123725  43.251   3.719   9.204
 1667POPC   GL223726  42.879   3.741   9.175
 1667POPC   C1A23727  43.170   3.883   8.766
 1667POPC   D2A23728  42.905   3.852   8.389
 1667POPC   C3A23729  43.015   3.646   7.981
 1667POPC   C4A23730  42.895   3.515   7.538
 1667POPC   C1B23731  43.028   3.403   8.871
 1667POPC   C2B23732  43.315   3.296   8.504
 1667POPC   C3B23733  43.268   3.187   8.058
 1667POPC   C4B23734  43.213   3.127   7.624
 1668POPC   NC323735  26.970  12.557   9.178
 1668POPC   PO423736  26.618  13.110   9.426
 1668POPC   GL123737  26.652  12.911   9.045
 1668POPC   GL223738  26.469  12.593   8.989
 1668POPC   C1A23739  26.805  13.041   8.677
 1668POPC   D2A23740  27.063  13.314   8.392
 1668POPC   C3A23741  27.136  13.181   7.934
 1668POPC   C4A23742  26.855  13.258   7.534
 1668POPC   C1B23743  26.706  12.472   8.605
 1668POPC   C2B23744  26.641  12.746   8.291
 1668POPC   C3B23745  26.644  12.972   7.973
 1668POPC   C4B23746  26.882  12.780   7.722
 1669POPC   NC323747  34.470  12.487   9.608
 1669POPC   PO423748  34.345  11.834   9.597
 1669POPC   GL123749  34.548  12.089   9.286
 1669POPC   GL223750  34.566  11.801   9.087
 1669POPC   C1A23751  34.678  12.278   8.910
 1669POPC   D2A23752  34.566  12.467   8.531
 1669POPC   C3A23753  34.582  12.276   8.139
 1669POPC   C4A23754  34.306  12.272   7.812
 1669POPC   C1B23755  34.390  11.836   8.724
 1669POPC   C2B23756  34.544  11.803   8.358
 1669POPC   C3B23757  34.819  11.645   8.118
 1669POPC   C4B23758  34.755  11.921   7.795
 1670POPC   NC323759  42.468  42.017   9.463
 1670POPC   PO423760  42.896  41.666   9.741
 1670POPC   GL123761  42.578  41.520   9.281
 1670POPC   GL223762  42.273  41.551   9.230
 1670POPC   C1A23763  42.523  41.680   8.770
 1670POPC   D2A23764  42.326  41.688   8.361
 1670POPC   C3A23765  42.591  41.852   8.024
 1670POPC   C4A23766  42.660  41.676   7.639
 1670POPC   C1B23767  42.206  41.312   8.870
 1670POPC   C2B23768  42.322  41.170   8.455
 1670POPC   C3B23769  42.417  41.332   7.997
 1670POPC   C4B23770  42.179  41.421   7.575
 1671POPC   NC323771   9.562  22.676   9.511
 1671POPC   PO423772   9.971  23.210   9.386
 1671POPC   GL123773   9.701  22.947   9.090
 1671POPC   GL223774   9.698  22.598   9.041
 1671POPC   C1A23775   9.794  22.892   8.648
 1671POPC   D2A23776   9.999  22.755   8.271
 1671POPC   C3A23777   9.735  22.838   7.943
 1671POPC   C4A23778   9.777  22.976   7.548
 1671POPC   C1B23779   9.307  22.673   8.832
 1671POPC   C2B23780   9.146  22.682   8.433
 1671POPC   C3B23781   9.311  22.572   8.017
 1671POPC   C4B23782   9.299  22.884   7.680
 1672POPC   NC323783  27.110   4.473   9.379
 1672POPC   PO423784  27.756   4.569   9.597
 1672POPC   GL123785  27.858   4.704   9.178
 1672POPC   GL223786  27.596   4.462   9.113
 1672POPC   C1A23787  27.755   4.663   8.694
 1672POPC   D2A23788  27.602   4.409   8.350
 1672POPC   C3A23789  27.748   4.475   7.956
 1672POPC   C4A23790  27.617   4.176   7.716
 1672POPC   C1B23791  27.342   4.294   8.782
 1672POPC   C2B23792  27.053   4.110   8.500
 1672POPC   C3B23793  27.120   3.868   8.101
 1672POPC   C4B23794  27.288   3.775   7.669
 1673POPC   NC323795  12.559   6.151   9.553
 1673POPC   PO423796  13.064   5.623   9.539
 1673POPC   GL123797  12.848   5.892   9.240
 1673POPC   GL223798  12.474   5.822   9.148
 1673POPC   C1A23799  12.770   6.133   8.878
 1673POPC   D2A23800  12.937   6.104   8.461
 1673POPC   C3A23801  12.735   5.918   8.096
 1673POPC   C4A23802  12.901   6.093   7.710
 1673POPC   C1B23803  12.799   5.646   8.813
 1673POPC   C2B23804  12.925   5.563   8.422
 1673POPC   C3B23805  13.074   5.464   8.032
 1673POPC   C4B23806  12.810   5.570   7.688
 1674POPC   NC323807  39.348  22.773   9.518
 1674POPC   PO423808  38.844  23.203   9.661
 1674POPC   GL123809  38.969  23.009   9.273
 1674POPC   GL223810  39.252  23.196   9.122
 1674POPC   C1A23811  38.888  22.979   8.827
 1674POPC   D2A23812  38.802  23.164   8.404
 1674POPC   C3A23813  39.077  23.131   8.064
 1674POPC   C4A23814  39.138  23.006   7.645
 1674POPC   C1B23815  39.596  23.177   8.806
 1674POPC   C2B23816  39.615  22.961   8.402
 1674POPC   C3B23817  39.502  22.820   7.984
 1674POPC   C4B23818  39.684  22.982   7.603
 1675POPC   NC323819  15.963   3.354   9.617
 1675POPC   PO423820  15.626   3.790   9.385
 1675POPC   GL123821  15.954   3.495   9.100
 1675POPC   GL223822  16.159   3.776   8.864
 1675POPC   C1A23823  16.193   3.302   8.742
 1675POPC   D2A23824  16.227   3.506   8.313
 1675POPC   C3A23825  16.090   3.314   7.912
 1675POPC   C4A23826  16.040   3.103   7.488
 1675POPC   C1B23827  15.799   3.686   8.637
 1675POPC   C2B23828  15.681   3.532   8.237
 1675POPC   C3B23829  15.711   3.722   7.862
 1675POPC   C4B23830  15.973   3.618   7.502
 1676POPC   NC323831  44.769  42.091   9.677
 1676POPC   PO423832  44.262  42.513   9.614
 1676POPC   GL123833  44.668  42.569   9.307
 1676POPC   GL223834  44.866  42.280   9.229
 1676POPC   C1A23835  44.813  42.685   8.872
 1676POPC   D2A23836  44.945  42.827   8.448
 1676POPC   C3A23837  44.749  42.634   8.102
 1676POPC   C4A23838  44.547  42.343   7.831
 1676POPC   C1B23839  44.759  42.133   8.870
 1676POPC   C2B23840  44.885  42.312   8.499
 1676POPC   C3B23841   0.023  42.182   8.115
 1676POPC   C4B23842  44.960  41.993   7.747
 1677POPC   NC323843  17.140  17.926   9.899
 1677POPC   PO423844  16.660  17.674   9.419
 1677POPC   GL123845  16.845  17.467   9.096
 1677POPC   GL223846  16.871  17.097   9.096
 1677POPC   C1A23847  16.817  17.477   8.652
 1677POPC   D2A23848  16.935  17.823   8.358
 1677POPC   C3A23849  16.813  17.781   7.945
 1677POPC   C4A23850  17.024  17.650   7.587
 1677POPC   C1B23851  16.431  17.174   8.939
 1677POPC   C2B23852  16.339  17.256   8.497
 1677POPC   C3B23853  16.520  17.124   8.111
 1677POPC   C4B23854  16.621  17.356   7.742
 1678POPC   NC323855  17.095   3.740   9.456
 1678POPC   PO423856  16.375   3.553   9.437
 1678POPC   GL123857  16.610   3.684   9.097
 1678POPC   GL223858  16.867   3.465   9.064
 1678POPC   C1A23859  16.606   3.593   8.639
 1678POPC   D2A23860  16.747   3.646   8.210
 1678POPC   C3A23861  16.587   3.412   7.862
 1678POPC   C4A23862  16.469   3.555   7.422
 1678POPC   C1B23863  17.045   3.784   8.780
 1678POPC   C2B23864  17.226   3.700   8.372
 1678POPC   C3B23865  17.172   3.488   7.947
 1678POPC   C4B23866  16.922   3.707   7.624
 1679POPC   NC323867   2.677   7.099   9.590
 1679POPC   PO423868   2.568   7.735   9.411
 1679POPC   GL123869   2.732   7.428   9.160
 1679POPC   GL223870   3.077   7.298   9.290
 1679POPC   C1A23871   2.551   7.457   8.731
 1679POPC   D2A23872   2.506   7.617   8.309
 1679POPC   C3A23873   2.502   7.335   7.980
 1679POPC   C4A23874   2.640   7.323   7.551
 1679POPC   C1B23875   3.136   7.441   8.851
 1679POPC   C2B23876   2.975   7.355   8.418
 1679POPC   C3B23877   3.022   7.325   7.964
 1679POPC   C4B23878   3.040   6.986   7.675
 1680POPC   NC323879  14.764   5.795   9.456
 1680POPC   PO423880  15.455   5.833   9.580
 1680POPC   GL123881  15.222   5.804   9.203
 1680POPC   GL223882  15.053   5.498   9.154
 1680POPC   C1A23883  15.239   5.827   8.758
 1680POPC   D2A23884  15.027   5.869   8.360
 1680POPC   C3A23885  15.198   5.845   7.933
 1680POPC   C4A23886  15.336   5.952   7.519
 1680POPC   C1B23887  14.738   5.680   8.815
 1680POPC   C2B23888  14.560   5.662   8.385
 1680POPC   C3B23889  14.722   5.687   7.950
 1680POPC   C4B23890  14.917   5.642   7.527
 1681POPC   NC323891   8.490  12.677   9.304
 1681POPC   PO423892   8.362  12.153   9.710
 1681POPC   GL123893   8.253  12.065   9.266
 1681POPC   GL223894   8.558  11.882   9.241
 1681POPC   C1A23895   8.119  11.949   8.819
 1681POPC   D2A23896   8.225  11.779   8.402
 1681POPC   C3A23897   8.056  12.009   8.045
 1681POPC   C4A23898   7.888  11.816   7.688
 1681POPC   C1B23899   8.612  12.068   8.840
 1681POPC   C2B23900   8.727  11.832   8.462
 1681POPC   C3B23901   8.609  11.911   8.047
 1681POPC   C4B23902   8.409  11.897   7.639
 1682POPC   NC323903   7.509   6.153   9.775
 1682POPC   PO423904   7.084   5.701   9.632
 1682POPC   GL123905   7.274   5.935   9.272
 1682POPC   GL223906   7.558   5.752   9.102
 1682POPC   C1A23907   7.316   6.085   8.828
 1682POPC   D2A23908   7.696   5.944   8.602
 1682POPC   C3A23909   7.717   5.914   8.164
 1682POPC   C4A23910   7.373   5.899   7.859
 1682POPC   C1B23911   7.619   5.418   8.765
 1682POPC   C2B23912   7.863   5.338   8.398
 1682POPC   C3B23913   7.714   5.397   8.008
 1682POPC   C4B23914   7.773   5.658   7.693
 1683POPC   NC323915   7.221  15.723   9.575
 1683POPC   PO423916   7.419  15.062   9.542
 1683POPC   GL123917   7.382  15.354   9.234
 1683POPC   GL223918   7.693  15.431   9.113
 1683POPC   C1A23919   7.236  15.290   8.824
 1683POPC   D2A23920   7.341  15.053   8.441
 1683POPC   C3A23921   7.314  15.282   8.039
 1683POPC   C4A23922   7.258  15.280   7.587
 1683POPC   C1B23923   7.734  15.215   8.763
 1683POPC   C2B23924   7.770  15.343   8.378
 1683POPC   C3B23925   7.815  15.136   8.027
 1683POPC   C4B23926   7.732  15.267   7.678
 1684POPC   NC323927  25.162  27.437   9.610
 1684POPC   PO423928  25.229  28.104   9.555
 1684POPC   GL123929  25.074  27.758   9.206
 1684POPC   GL223930  25.342  27.472   9.135
 1684POPC   C1A23931  24.930  27.498   8.817
 1684POPC   D2A23932  25.068  27.464   8.361
 1684POPC   C3A23933  24.845  27.647   7.963
 1684POPC   C4A23934  24.677  27.711   7.542
 1684POPC   C1B23935  25.496  27.524   8.706
 1684POPC   C2B23936  25.559  27.563   8.280
 1684POPC   C3B23937  25.365  27.547   7.901
 1684POPC   C4B23938  25.174  27.618   7.546
 1685POPC   NC323939  19.393  32.499   9.391
 1685POPC   PO423940  18.672  32.696   9.489
 1685POPC   GL123941  18.892  32.511   9.134
 1685POPC   GL223942  19.079  32.247   9.095
 1685POPC   C1A23943  19.002  32.466   8.671
 1685POPC   D2A23944  18.771  32.331   8.341
 1685POPC   C3A23945  18.940  32.347   7.963
 1685POPC   C4A23946  18.779  32.353   7.567
 1685POPC   C1B23947  19.222  31.993   8.724
 1685POPC   C2B23948  19.117  31.954   8.252
 1685POPC   C3B23949  19.159  31.935   7.752
 1685POPC   C4B23950  19.424  31.833   7.349
 1686POPC   NC323951  41.433  42.449   9.557
 1686POPC   PO423952  41.978  41.975   9.467
 1686POPC   GL123953  41.708  42.087   9.135
 1686POPC   GL223954  41.362  42.149   9.159
 1686POPC   C1A23955  41.681  42.225   8.742
 1686POPC   D2A23956  41.418  42.162   8.394
 1686POPC   C3A23957  41.605  42.198   7.972
 1686POPC   C4A23958  41.904  42.327   7.661
 1686POPC   C1B23959  41.247  42.477   8.874
 1686POPC   C2B23960  41.435  42.661   8.501
 1686POPC   C3B23961  41.250  42.546   8.112
 1686POPC   C4B23962  41.224  42.489   7.700
 1687POPC   NC323963  40.097  36.571   9.434
 1687POPC   PO423964  39.795  37.158   9.606
 1687POPC   GL123965  39.881  36.991   9.174
 1687POPC   GL223966  39.664  36.697   9.168
 1687POPC   C1A23967  40.129  37.006   8.752
 1687POPC   D2A23968  40.028  36.930   8.329
 1687POPC   C3A23969  40.157  37.213   7.978
 1687POPC   C4A23970  40.039  37.122   7.566
 1687POPC   C1B23971  39.845  36.586   8.744
 1687POPC   C2B23972  39.974  36.422   8.321
 1687POPC   C3B23973  40.026  36.611   7.884
 1687POPC   C4B23974  39.773  36.692   7.498
 1688POPC   NC323975  19.187  39.593   9.772
 1688POPC   PO423976  19.243  38.940   9.471
 1688POPC   GL123977  19.095  39.025   9.063
 1688POPC   GL223978  18.785  39.110   8.969
 1688POPC   C1A23979  19.129  38.986   8.598
 1688POPC   D2A23980  19.502  38.981   8.326
 1688POPC   C3A23981  19.431  39.012   7.879
 1688POPC   C4A23982  19.029  39.103   7.719
 1688POPC   C1B23983  18.997  39.475   8.747
 1688POPC   C2B23984  19.125  39.710   8.426
 1688POPC   C3B23985  19.207  39.478   8.073
 1688POPC   C4B23986  19.086  39.622   7.690
 1689POPC   NC323987   5.068  40.553   9.466
 1689POPC   PO423988   4.745  41.144   9.227
 1689POPC   GL123989   5.045  40.817   9.034
 1689POPC   GL223990   5.363  40.591   8.963
 1689POPC   C1A23991   4.943  40.606   8.658
 1689POPC   D2A23992   4.907  40.874   8.336
 1689POPC   C3A23993   4.992  40.738   7.954
 1689POPC   C4A23994   4.774  40.694   7.549
 1689POPC   C1B23995   5.380  40.885   8.645
 1689POPC   C2B23996   5.353  40.588   8.341
 1689POPC   C3B23997   5.402  40.416   7.959
 1689POPC   C4B23998   5.311  40.620   7.590
 1690POPC   NC323999  35.651  38.572   9.798
 1690POPC   PO424000  36.243  38.557   9.504
 1690POPC   GL124001  36.155  38.362   9.148
 1690POPC   GL224002  35.817  38.252   9.158
 1690POPC   C1A24003  36.278  38.399   8.732
 1690POPC   D2A24004  36.203  38.134   8.358
 1690POPC   C3A24005  36.009  38.329   7.988
 1690POPC   C4A24006  36.133  38.662   7.679
 1690POPC   C1B24007  35.801  38.514   8.773
 1690POPC   C2B24008  35.992  38.673   8.382
 1690POPC   C3B24009  35.773  38.782   7.992
 1690POPC   C4B24010  35.657  38.891   7.543
 1691POPC   NC324011  17.745  11.583   9.628
 1691POPC   PO424012  17.074  11.316   9.588
 1691POPC   GL124013  17.392  11.189   9.217
 1691POPC   GL224014  17.746  11.311   9.171
 1691POPC   C1A24015  17.467  11.203   8.747
 1691POPC   D2A24016  17.613  11.373   8.366
 1691POPC   C3A24017  17.555  11.099   8.029
 1691POPC   C4A24018  17.371  11.112   7.659
 1691POPC   C1B24019  17.870  11.566   8.809
 1691POPC   C2B24020  18.087  11.545   8.397
 1691POPC   C3B24021  18.004  11.657   7.955
 1691POPC   C4B24022  17.671  11.517   7.665
 1692POPC   NC324023  35.913  18.087   9.491
 1692POPC   PO424024  36.102  18.735   9.437
 1692POPC   GL124025  36.047  18.452   9.101
 1692POPC   GL224026  36.205  18.156   9.117
 1692POPC   C1A24027  36.033  18.216   8.672
 1692POPC   D2A24028  35.820  18.132   8.339
 1692POPC   C3A24029  36.006  18.255   7.973
 1692POPC   C4A24030  36.333  18.392   7.738
 1692POPC   C1B24031  36.503  17.934   8.863
 1692POPC   C2B24032  36.360  17.850   8.450
 1692POPC   C3B24033  36.448  17.977   8.041
 1692POPC   C4B24034  36.740  18.081   7.714
 1693POPC   NC324035   2.340  20.930   9.595
 1693POPC   PO424036   2.102  21.606   9.648
 1693POPC   GL124037   1.955  21.528   9.214
 1693POPC   GL224038   1.917  21.167   9.186
 1693POPC   C1A24039   2.009  21.697   8.786
 1693POPC   D2A24040   2.260  21.677   8.390
 1693POPC   C3A24041   2.029  21.554   8.012
 1693POPC   C4A24042   2.323  21.428   7.691
 1693POPC   C1B24043   1.883  21.163   8.799
 1693POPC   C2B24044   2.098  21.187   8.414
 1693POPC   C3B24045   2.186  21.059   8.046
 1693POPC   C4B24046   1.944  21.109   7.695
 1694POPC   NC324047  32.611   3.230   9.194
 1694POPC   PO424048  32.148   3.551   9.624
 1694POPC   GL124049  32.112   3.342   9.228
 1694POPC   GL224050  32.271   3.627   9.113
 1694POPC   C1A24051  32.089   3.183   8.802
 1694POPC   D2A24052  32.340   3.228   8.431
 1694POPC   C3A24053  32.224   3.551   8.125
 1694POPC   C4A24054  32.051   3.531   7.713
 1694POPC   C1B24055  32.148   3.735   8.720
 1694POPC   C2B24056  32.452   3.880   8.481
 1694POPC   C3B24057  32.666   3.811   8.135
 1694POPC   C4B24058  32.447   3.841   7.735
 1695POPC   NC324059  28.753  43.080   9.481
 1695POPC   PO424060  27.990  43.034   9.529
 1695POPC   GL124061  28.312  43.225   9.207
 1695POPC   GL224062  28.580  43.028   9.006
 1695POPC   C1A24063  28.283  43.351   8.760
 1695POPC   D2A24064  28.622  43.204   8.467
 1695POPC   C3A24065  28.516  43.049   8.072
 1695POPC   C4A24066  28.143  43.211   7.990
 1695POPC   C1B24067  28.725  43.479   8.955
 1695POPC   C2B24068  28.913  43.653   8.586
 1695POPC   C3B24069  28.702  43.634   8.174
 1695POPC   C4B24070  28.740  43.412   7.770
 1696POPC   NC324071  17.877  23.351   9.426
 1696POPC   PO424072  18.310  23.788   9.699
 1696POPC   GL124073  18.125  23.816   9.283
 1696POPC   GL224074  18.215  23.555   9.061
 1696POPC   C1A24075  18.103  23.979   8.837
 1696POPC   D2A24076  18.173  23.749   8.444
 1696POPC   C3A24077  18.235  23.915   8.044
 1696POPC   C4A24078  18.162  23.589   7.784
 1696POPC   C1B24079  18.470  23.437   8.727
 1696POPC   C2B24080  18.528  23.134   8.441
 1696POPC   C3B24081  18.501  23.330   8.077
 1696POPC   C4B24082  18.542  23.265   7.685
 1697POPC   NC324083   5.595  34.033   9.566
 1697POPC   PO424084   6.060  33.630   9.496
 1697POPC   GL124085   5.930  33.916   9.154
 1697POPC   GL224086   5.631  34.165   9.098
 1697POPC   C1A24087   5.833  33.619   8.817
 1697POPC   D2A24088   5.966  33.355   8.474
 1697POPC   C3A24089   6.071  33.629   8.136
 1697POPC   C4A24090   6.134  33.533   7.714
 1697POPC   C1B24091   5.757  34.110   8.711
 1697POPC   C2B24092   5.662  33.870   8.384
 1697POPC   C3B24093   5.709  34.031   8.010
 1697POPC   C4B24094   5.845  33.945   7.645
 1698POPC   NC324095  23.001   2.955   9.500
 1698POPC   PO424096  22.475   2.466   9.279
 1698POPC   GL124097  22.729   2.816   9.076
 1698POPC   GL224098  23.059   2.846   9.025
 1698POPC   C1A24099  22.732   2.822   8.641
 1698POPC   D2A24100  22.855   2.411   8.496
 1698POPC   C3A24101  23.059   2.446   8.133
 1698POPC   C4A24102  22.824   2.778   7.922
 1698POPC   C1B24103  23.221   3.006   8.682
 1698POPC   C2B24104  23.226   2.910   8.257
 1698POPC   C3B24105  23.276   3.021   7.830
 1698POPC   C4B24106  23.466   2.924   7.414
 1699POPC   NC324107  39.667  15.907   9.377
 1699POPC   PO424108  40.275  16.275   9.507
 1699POPC   GL124109  40.201  15.972   9.186
 1699POPC   GL224110  40.237  15.614   9.236
 1699POPC   C1A24111  39.982  15.945   8.803
 1699POPC   D2A24112  40.118  15.914   8.410
 1699POPC   C3A24113  39.879  16.023   8.092
 1699POPC   C4A24114  40.066  16.092   7.735
 1699POPC   C1B24115  40.379  15.618   8.799
 1699POPC   C2B24116  40.335  15.454   8.364
 1699POPC   C3B24117  40.285  15.660   7.948
 1699POPC   C4B24118  40.213  15.671   7.482
 1700POPC   NC324119   0.733   8.658   9.586
 1700POPC   PO424120   0.798   9.211   9.205
 1700POPC   GL124121   0.475   8.908   9.078
 1700POPC   GL224122   0.163   9.110   8.989
 1700POPC   C1A24123   0.542   8.752   8.700
 1700POPC   D2A24124   0.648   8.959   8.337
 1700POPC   C3A24125   0.475   8.720   8.024
 1700POPC   C4A24126   0.513   8.756   7.586
 1700POPC   C1B24127   0.378   9.352   8.665
 1700POPC   C2B24128   0.351   9.394   8.207
 1700POPC   C3B24129   0.487   9.224   7.818
 1700POPC   C4B24130   0.298   9.154   7.371
 1701POPC   NC324131  13.154  19.611   9.549
 1701POPC   PO424132  13.139  20.328   9.447
 1701POPC   GL124133  13.013  19.981   9.217
 1701POPC   GL224134  12.661  20.035   9.184
 1701POPC   C1A24135  12.912  19.744   8.846
 1701POPC   D2A24136  12.793  19.885   8.455
 1701POPC   C3A24137  12.999  19.727   8.102
 1701POPC   C4A24138  13.004  19.967   7.763
 1701POPC   C1B24139  12.533  20.223   8.767
 1701POPC   C2B24140  12.333  20.105   8.382
 1701POPC   C3B24141  12.537  20.083   7.991
 1701POPC   C4B24142  12.292  20.145   7.608
 1702POPC   NC324143  30.249  34.559   9.506
 1702POPC   PO424144  29.562  34.780   9.473
 1702POPC   GL124145  29.876  34.719   9.187
 1702POPC   GL224146  29.899  34.373   9.141
 1702POPC   C1A24147  29.828  34.747   8.748
 1702POPC   D2A24148  29.866  34.914   8.339
 1702POPC   C3A24149  29.679  34.693   8.009
 1702POPC   C4A24150  29.876  34.715   7.613
 1702POPC   C1B24151  30.077  34.286   8.737
 1702POPC   C2B24152  29.971  34.248   8.305
 1702POPC   C3B24153  30.186  34.181   7.903
 1702POPC   C4B24154  30.004  34.138   7.497
 1703POPC   NC324155  41.070  41.689   9.477
 1703POPC   PO424156  40.524  41.211   9.570
 1703POPC   GL124157  40.612  41.503   9.220
 1703POPC   GL224158  40.665  41.879   9.227
 1703POPC   C1A24159  40.653  41.605   8.785
 1703POPC   D2A24160  40.607  41.450   8.391
 1703POPC   C3A24161  40.730  41.691   8.027
 1703POPC   C4A24162  40.996  41.500   7.746
 1703POPC   C1B24163  40.995  41.973   8.874
 1703POPC   C2B24164  41.008  41.820   8.439
 1703POPC   C3B24165  41.218  41.865   8.027
 1703POPC   C4B24166  41.024  41.999   7.636
 1704POPC   NC324167  17.805  29.597   9.558
 1704POPC   PO424168  17.200  29.840   9.448
 1704POPC   GL124169  17.517  30.068   9.221
 1704POPC   GL224170  17.615  29.744   9.111
 1704POPC   C1A24171  17.689  30.190   8.807
 1704POPC   D2A24172  17.473  30.178   8.384
 1704POPC   C3A24173  17.720  30.261   7.992
 1704POPC   C4A24174  17.742  30.109   7.565
 1704POPC   C1B24175  17.737  29.706   8.723
 1704POPC   C2B24176  17.877  29.871   8.353
 1704POPC   C3B24177  17.572  29.777   8.056
 1704POPC   C4B24178  17.504  29.482   7.783
 1705POPC   NC324179  21.669  20.258   9.415
 1705POPC   PO424180  21.359  19.689   9.576
 1705POPC   GL124181  21.468  19.673   9.131
 1705POPC   GL224182  21.339  19.992   9.130
 1705POPC   C1A24183  21.287  19.739   8.685
 1705POPC   D2A24184  21.118  20.092   8.419
 1705POPC   C3A24185  21.303  20.103   8.009
 1705POPC   C4A24186  21.503  19.771   7.788
 1705POPC   C1B24187  21.636  20.096   8.793
 1705POPC   C2B24188  21.667  19.928   8.378
 1705POPC   C3B24189  21.817  20.129   8.032
 1705POPC   C4B24190  21.906  20.075   7.657
 1706POPC   NC324191  36.295  35.670   9.413
 1706POPC   PO424192  35.978  35.090   9.586
 1706POPC   GL124193  36.004  35.299   9.199
 1706POPC   GL224194  36.368  35.263   9.095
 1706POPC   C1A24195  35.977  35.432   8.785
 1706POPC   D2A24196  36.108  35.205   8.414
 1706POPC   C3A24197  35.870  35.302   8.060
 1706POPC   C4A24198  36.007  35.514   7.685
 1706POPC   C1B24199  36.637  35.131   8.730
 1706POPC   C2B24200  36.601  35.038   8.273
 1706POPC   C3B24201  36.381  35.254   7.934
 1706POPC   C4B24202  36.475  35.432   7.491
 1707POPC   NC324203  29.677   0.279   9.506
 1707POPC   PO424204  30.348   0.524   9.538
 1707POPC   GL124205  30.167   0.481   9.132
 1707POPC   GL224206  29.820   0.344   9.021
 1707POPC   C1A24207  30.230   0.699   8.748
 1707POPC   D2A24208  30.257   0.605   8.351
 1707POPC   C3A24209  30.235   0.892   8.036
 1707POPC   C4A24210  30.018   0.697   7.730
 1707POPC   C1B24211  29.855   0.049   8.680
 1707POPC   C2B24212  29.882  44.964   8.251
 1707POPC   C3B24213  29.992   0.219   7.905
 1707POPC   C4B24214  29.879   0.277   7.464
 1708POPC   NC324215   9.027  11.865   9.465
 1708POPC   PO424216   8.923  12.562   9.495
 1708POPC   GL124217   9.035  12.310   9.134
 1708POPC   GL224218   9.328  12.511   9.077
 1708POPC   C1A24219   9.094  11.944   8.822
 1708POPC   D2A24220   9.296  11.901   8.436
 1708POPC   C3A24221   9.135  11.946   8.012
 1708POPC   C4A24222   8.915  11.751   7.666
 1708POPC   C1B24223   9.252  12.417   8.647
 1708POPC   C2B24224   8.911  12.293   8.395
 1708POPC   C3B24225   8.848  12.400   7.963
 1708POPC   C4B24226   9.183  12.543   7.672
 1709POPC   NC324227  35.295  39.357   9.563
 1709POPC   PO424228  34.683  39.319   9.888
 1709POPC   GL124229  34.857  39.205   9.395
 1709POPC   GL224230  35.088  39.011   9.200
 1709POPC   C1A24231  34.996  39.436   8.932
 1709POPC   D2A24232  35.289  39.460   8.508
 1709POPC   C3A24233  35.219  39.597   8.052
 1709POPC   C4A24234  35.099  39.591   7.603
 1709POPC   C1B24235  35.293  39.034   8.794
 1709POPC   C2B24236  35.509  38.974   8.393
 1709POPC   C3B24237  35.559  39.231   8.032
 1709POPC   C4B24238  35.258  39.127   7.744
 1710POPC   NC324239  36.520  21.129   9.509
 1710POPC   PO424240  37.195  21.412   9.500
 1710POPC   GL124241  36.947  21.416   9.152
 1710POPC   GL224242  36.906  21.106   9.148
 1710POPC   C1A24243  37.037  21.601   8.767
 1710POPC   D2A24244  36.911  21.682   8.369
 1710POPC   C3A24245  36.893  21.362   8.064
 1710POPC   C4A24246  36.942  21.541   7.658
 1710POPC   C1B24247  36.865  21.122   8.692
 1710POPC   C2B24248  36.551  21.036   8.389
 1710POPC   C3B24249  36.463  21.102   7.953
 1710POPC   C4B24250  36.697  21.131   7.540
 1711POPC   NC324251   7.941   6.706   9.689
 1711POPC   PO424252   8.602   6.543   9.465
 1711POPC   GL124253   8.328   6.503   9.149
 1711POPC   GL224254   8.146   6.797   9.226
 1711POPC   C1A24255   8.161   6.588   8.742
 1711POPC   D2A24256   7.972   6.429   8.373
 1711POPC   C3A24257   8.125   6.598   7.982
 1711POPC   C4A24258   8.246   6.480   7.606
 1711POPC   C1B24259   7.831   6.931   8.939
 1711POPC   C2B24260   7.813   6.903   8.513
 1711POPC   C3B24261   7.973   7.022   8.148
 1711POPC   C4B24262   7.971   7.053   7.747
 1712POPC   NC324263  44.911  38.221   9.433
 1712POPC   PO424264  44.269  38.424   9.532
 1712POPC   GL124265  44.498  38.563   9.151
 1712POPC   GL224266  44.882  38.618   9.117
 1712POPC   C1A24267  44.591  38.552   8.701
 1712POPC   D2A24268  44.613  38.799   8.325
 1712POPC   C3A24269  44.597  38.595   7.913
 1712POPC   C4A24270  44.649  38.441   7.461
 1712POPC   C1B24271  44.986  38.263   8.785
 1712POPC   C2B24272  44.929  38.191   8.331
 1712POPC   C3B24273  44.865  38.171   7.874
 1712POPC   C4B24274  44.982  38.009   7.459
 1713POPC   NC324275  41.807  17.073   9.762
 1713POPC   PO424276  41.469  17.655   9.552
 1713POPC   GL124277  41.479  17.684   9.065
 1713POPC   GL224278  41.831  17.629   9.009
 1713POPC   C1A24279  41.584  17.800   8.616
 1713POPC   D2A24280  41.722  17.732   8.191
 1713POPC   C3A24281  41.409  17.591   7.930
 1713POPC   C4A24282  41.424  17.643   7.523
 1713POPC   C1B24283  42.056  17.431   8.653
 1713POPC   C2B24284  42.078  17.348   8.201
 1713POPC   C3B24285  41.795  17.227   7.850
 1713POPC   C4B24286  41.716  17.260   7.397
 1714POPC   NC324287  41.319  44.722   9.407
 1714POPC   PO424288  40.644  44.579   9.543
 1714POPC   GL124289  40.844  44.384   9.223
 1714POPC   GL224290  40.913  44.677   9.093
 1714POPC   C1A24291  40.894  44.281   8.784
 1714POPC   D2A24292  40.684  44.264   8.369
 1714POPC   C3A24293  40.802  44.619   8.073
 1714POPC   C4A24294  40.779  44.602   7.611
 1714POPC   C1B24295  41.019  44.782   8.694
 1714POPC   C2B24296  41.253  44.757   8.328
 1714POPC   C3B24297  41.111   0.081   8.052
 1714POPC   C4B24298  40.964   0.048   7.643
 1715POPC   NC324299   3.531  20.055   9.410
 1715POPC   PO424300   3.359  19.405   9.446
 1715POPC   GL124301   3.444  19.680   9.084
 1715POPC   GL224302   3.726  19.552   9.006
 1715POPC   C1A24303   3.483  20.034   8.763
 1715POPC   D2A24304   3.683  20.032   8.360
 1715POPC   C3A24305   3.463  19.881   8.024
 1715POPC   C4A24306   3.558  20.011   7.638
 1715POPC   C1B24307   3.602  19.575   8.589
 1715POPC   C2B24308   3.803  19.547   8.199
 1715POPC   C3B24309   3.656  19.466   7.787
 1715POPC   C4B24310   3.697  19.585   7.344
 1716POPC   NC324311  16.635  25.277   9.506
 1716POPC   PO424312  17.030  24.736   9.532
 1716POPC   GL124313  16.913  24.953   9.197
 1716POPC   GL224314  16.595  24.866   9.148
 1716POPC   C1A24315  16.929  25.238   8.872
 1716POPC   D2A24316  16.916  25.105   8.457
 1716POPC   C3A24317  16.810  25.391   8.112
 1716POPC   C4A24318  16.804  25.019   7.936
 1716POPC   C1B24319  16.447  25.188   8.874
 1716POPC   C2B24320  16.452  25.294   8.486
 1716POPC   C3B24321  16.339  25.192   8.111
 1716POPC   C4B24322  16.413  25.274   7.695
 1717POPC   NC324323  36.838  27.793   9.663
 1717POPC   PO424324  36.991  27.072   9.569
 1717POPC   GL124325  36.936  27.426   9.261
 1717POPC   GL224326  37.095  27.785   9.218
 1717POPC   C1A24327  36.792  27.419   8.827
 1717POPC   D2A24328  36.750  27.157   8.452
 1717POPC   C3A24329  36.754  27.388   8.055
 1717POPC   C4A24330  36.746  27.795   7.791
 1717POPC   C1B24331  37.272  27.634   8.852
 1717POPC   C2B24332  37.170  27.497   8.451
 1717POPC   C3B24333  37.165  27.681   8.060
 1717POPC   C4B24334  37.229  27.665   7.621
 1718POPC   NC324335  38.540  22.850   9.747
 1718POPC   PO424336  38.065  22.661   9.345
 1718POPC   GL124337  38.424  22.820   9.092
 1718POPC   GL224338  38.496  23.140   9.127
 1718POPC   C1A24339  38.404  22.960   8.645
 1718POPC   D2A24340  38.128  22.646   8.406
 1718POPC   C3A24341  38.177  22.783   7.989
 1718POPC   C4A24342  38.630  22.934   7.831
 1718POPC   C1B24343  38.278  23.429   8.882
 1718POPC   C2B24344  38.419  23.495   8.466
 1718POPC   C3B24345  38.373  23.230   8.155
 1718POPC   C4B24346  38.218  23.252   7.774
 1719POPC   NC324347  26.567  26.620   9.459
 1719POPC   PO424348  27.038  27.151   9.372
 1719POPC   GL124349  26.713  27.004   9.130
 1719POPC   GL224350  26.867  26.691   9.059
 1719POPC   C1A24351  26.646  27.025   8.694
 1719POPC   D2A24352  26.918  27.175   8.350
 1719POPC   C3A24353  27.034  26.880   8.029
 1719POPC   C4A24354  26.640  26.801   7.793
 1719POPC   C1B24355  27.061  26.439   8.746
 1719POPC   C2B24356  27.330  26.245   8.435
 1719POPC   C3B24357  27.293  26.334   8.012
 1719POPC   C4B24358  26.997  26.437   7.740
 1720POPC   NC324359  26.921  10.315   9.388
 1720POPC   PO424360  26.823  10.826   9.906
 1720POPC   GL124361  26.726  10.809   9.392
 1720POPC   GL224362  26.480  10.901   9.107
 1720POPC   C1A24363  26.962  10.807   8.962
 1720POPC   D2A24364  27.047  10.482   8.651
 1720POPC   C3A24365  27.043  10.486   8.185
 1720POPC   C4A24366  26.954  10.790   7.849
 1720POPC   C1B24367  26.549  10.542   8.823
 1720POPC   C2B24368  26.573  10.368   8.402
 1720POPC   C3B24369  26.575  10.496   7.980
 1720POPC   C4B24370  26.703  10.465   7.536
 1721POPC   NC324371  29.801   8.194   9.418
 1721POPC   PO424372  29.117   8.207   9.475
 1721POPC   GL124373  29.327   8.108   9.102
 1721POPC   GL224374  29.414   7.745   8.989
 1721POPC   C1A24375  29.018   8.055   8.761
 1721POPC   D2A24376  28.779   8.082   8.392
 1721POPC   C3A24377  28.989   8.104   8.029
 1721POPC   C4A24378  28.853   8.383   7.771
 1721POPC   C1B24379  29.526   8.023   8.644
 1721POPC   C2B24380  29.304   8.278   8.379
 1721POPC   C3B24381  29.344   8.478   7.976
 1721POPC   C4B24382  29.331   8.255   7.589
 1722POPC   NC324383  38.336   3.923   9.516
 1722POPC   PO424384  38.456   3.231   9.657
 1722POPC   GL124385  38.274   3.238   9.227
 1722POPC   GL224386  37.970   3.408   9.175
 1722POPC   C1A24387  38.300   3.199   8.758
 1722POPC   D2A24388  38.562   3.463   8.537
 1722POPC   C3A24389  38.451   3.811   8.230
 1722POPC   C4A24390  38.418   3.618   7.853
 1722POPC   C1B24391  38.050   3.637   8.762
 1722POPC   C2B24392  38.103   3.465   8.334
 1722POPC   C3B24393  37.996   3.379   7.926
 1722POPC   C4B24394  38.036   3.602   7.491
 1723POPC   NC324395  44.143  20.695   9.633
 1723POPC   PO424396  43.642  20.491   9.570
 1723POPC   GL124397  43.951  20.477   9.194
 1723POPC   GL224398  44.290  20.320   9.253
 1723POPC   C1A24399  43.931  20.576   8.717
 1723POPC   D2A24400  43.809  20.454   8.258
 1723POPC   C3A24401  43.925  20.714   7.891
 1723POPC   C4A24402  43.939  20.787   7.442
 1723POPC   C1B24403  44.142  20.127   8.842
 1723POPC   C2B24404  44.011  19.998   8.401
 1723POPC   C3B24405  44.111  20.136   7.968
 1723POPC   C4B24406  43.952  20.301   7.593
 1724POPC   NC324407  42.938  37.442   9.368
 1724POPC   PO424408  43.504  37.782   9.579
 1724POPC   GL124409  43.323  37.743   9.173
 1724POPC   GL224410  43.428  37.389   9.130
 1724POPC   C1A24411  43.149  38.015   8.815
 1724POPC   D2A24412  43.137  38.125   8.382
 1724POPC   C3A24413  43.290  37.726   8.271
 1724POPC   C4A24414  43.258  37.543   7.904
 1724POPC   C1B24415  43.200  37.493   8.729
 1724POPC   C2B24416  42.917  37.355   8.385
 1724POPC   C3B24417  42.991  37.143   7.984
 1724POPC   C4B24418  43.256  37.154   7.561
 1725POPC   NC324419  38.482  42.696   9.652
 1725POPC   PO424420  38.858  43.269   9.692
 1725POPC   GL124421  38.571  43.128   9.347
 1725POPC   GL224422  38.646  42.799   9.172
 1725POPC   C1A24423  38.453  43.234   8.919
 1725POPC   D2A24424  38.417  43.124   8.480
 1725POPC   C3A24425  38.274  43.219   8.064
 1725POPC   C4A24426  38.517  43.476   7.786
 1725POPC   C1B24427  38.778  42.844   8.713
 1725POPC   C2B24428  38.694  42.785   8.234
 1725POPC   C3B24429  38.644  42.955   7.795
 1725POPC   C4B24430  38.706  42.818   7.342
 1726POPC   NC324431   1.625  20.258   9.283
 1726POPC   PO424432   1.882  20.824   9.571
 1726POPC   GL124433   2.151  20.703   9.183
 1726POPC   GL224434   2.113  20.371   9.113
 1726POPC   C1A24435   2.183  20.767   8.725
 1726POPC   D2A24436   1.806  20.775   8.411
 1726POPC   C3A24437   1.871  20.667   7.960
 1726POPC   C4A24438   2.264  20.692   7.660
 1726POPC   C1B24439   1.889  20.348   8.716
 1726POPC   C2B24440   2.006  20.311   8.312
 1726POPC   C3B24441   2.190  20.274   7.923
 1726POPC   C4B24442   2.149  20.137   7.536
 1727POPC   NC324443   0.039  28.847   9.525
 1727POPC   PO424444   0.629  29.155   9.582
 1727POPC   GL124445   0.455  29.210   9.177
 1727POPC   GL224446   0.140  29.175   9.160
 1727POPC   C1A24447   0.559  29.224   8.735
 1727POPC   D2A24448   0.421  29.049   8.360
 1727POPC   C3A24449   0.656  29.249   8.079
 1727POPC   C4A24450   0.678  29.362   7.701
 1727POPC   C1B24451   0.312  28.784   8.916
 1727POPC   C2B24452   0.251  28.584   8.530
 1727POPC   C3B24453   0.127  28.687   8.116
 1727POPC   C4B24454   0.309  28.985   7.810
 1728POPC   NC324455  17.939   4.061   9.557
 1728POPC   PO424456  18.449   4.506   9.390
 1728POPC   GL124457  18.213   4.237   9.156
 1728POPC   GL224458  18.066   4.486   8.946
 1728POPC   C1A24459  18.195   3.992   8.777
 1728POPC   D2A24460  18.402   4.154   8.395
 1728POPC   C3A24461  18.439   4.035   7.947
 1728POPC   C4A24462  18.485   4.166   7.503
 1728POPC   C1B24463  17.878   4.338   8.540
 1728POPC   C2B24464  17.964   4.173   8.108
 1728POPC   C3B24465  18.125   4.466   7.825
 1728POPC   C4B24466  17.862   4.758   7.616
 1729POPC   NC324467   4.137   3.043   9.553
 1729POPC   PO424468   4.589   2.614   9.546
 1729POPC   GL124469   4.477   2.769   9.124
 1729POPC   GL224470   4.132   2.729   9.091
 1729POPC   C1A24471   4.413   2.842   8.664
 1729POPC   D2A24472   4.661   2.811   8.297
 1729POPC   C3A24473   4.572   3.033   7.923
 1729POPC   C4A24474   4.364   2.797   7.550
 1729POPC   C1B24475   4.067   3.134   8.873
 1729POPC   C2B24476   3.961   3.110   8.440
 1729POPC   C3B24477   4.086   2.932   8.052
 1729POPC   C4B24478   4.135   3.233   7.724
 1730POPC   NC324479  17.258  28.766   9.655
 1730POPC   PO424480  17.873  29.130   9.610
 1730POPC   GL124481  17.599  29.218   9.274
 1730POPC   GL224482  17.563  28.888   9.263
 1730POPC   C1A24483  17.476  29.274   8.849
 1730POPC   D2A24484  17.435  29.439   8.434
 1730POPC   C3A24485  17.350  29.148   8.174
 1730POPC   C4A24486  17.292  28.962   7.780
 1730POPC   C1B24487  17.726  28.821   8.864
 1730POPC   C2B24488  17.749  28.985   8.483
 1730POPC   C3B24489  17.688  28.802   8.103
 1730POPC   C4B24490  17.808  28.899   7.734
 1731POPC   NC324491  23.601  19.383   9.379
 1731POPC   PO424492  23.760  20.034   9.553
 1731POPC   GL124493  23.728  19.862   9.164
 1731POPC   GL224494  23.421  19.715   9.001
 1731POPC   C1A24495  23.896  19.658   8.821
 1731POPC   D2A24496  24.086  19.799   8.444
 1731POPC   C3A24497  23.847  19.848   8.082
 1731POPC   C4A24498  23.565  20.129   7.905
 1731POPC   C1B24499  23.535  20.023   8.705
 1731POPC   C2B24500  23.425  19.885   8.358
 1731POPC   C3B24501  23.127  19.888   8.059
 1731POPC   C4B24502  23.399  19.656   7.833
 1732POPC   NC324503  19.389  19.102   9.543
 1732POPC   PO424504  18.735  19.327   9.469
 1732POPC   GL124505  19.015  19.177   9.171
 1732POPC   GL224506  18.991  18.835   9.214
 1732POPC   C1A24507  18.978  19.093   8.747
 1732POPC   D2A24508  19.036  19.358   8.431
 1732POPC   C3A24509  18.988  19.214   8.023
 1732POPC   C4A24510  19.051  19.157   7.567
 1732POPC   C1B24511  19.300  18.722   8.886
 1732POPC   C2B24512  19.306  18.682   8.457
 1732POPC   C3B24513  19.184  18.755   8.031
 1732POPC   C4B24514  18.805  18.737   7.787
 1733POPC   NC324515  30.926  12.898   9.508
 1733POPC   PO424516  30.361  12.952   9.272
 1733POPC   GL124517  30.585  12.703   9.072
 1733POPC   GL224518  30.272  12.458   9.056
 1733POPC   C1A24519  30.810  12.856   8.704
 1733POPC   D2A24520  30.935  12.735   8.282
 1733POPC   C3A24521  30.770  12.897   7.886
 1733POPC   C4A24522  30.817  12.841   7.437
 1733POPC   C1B24523  30.327  12.617   8.651
 1733POPC   C2B24524  30.434  12.862   8.308
 1733POPC   C3B24525  30.257  12.774   7.931
 1733POPC   C4B24526  30.474  12.514   7.642
 1734POPC   NC324527  42.978  26.940   9.755
 1734POPC   PO424528  43.389  26.648   9.272
 1734POPC   GL124529  43.067  26.846   9.092
 1734POPC   GL224530  42.749  26.836   9.276
 1734POPC   C1A24531  43.133  27.050   8.711
 1734POPC   D2A24532  43.106  27.219   8.307
 1734POPC   C3A24533  43.233  26.871   8.052
 1734POPC   C4A24534  43.172  26.731   7.642
 1734POPC   C1B24535  42.634  27.058   8.887
 1734POPC   C2B24536  42.599  27.120   8.439
 1734POPC   C3B24537  42.706  26.966   8.008
 1734POPC   C4B24538  42.820  27.072   7.579
 1735POPC   NC324539  28.781   0.002   9.853
 1735POPC   PO424540  28.189  44.982   9.450
 1735POPC   GL124541  28.300  44.662   9.140
 1735POPC   GL224542  28.611  44.418   9.221
 1735POPC   C1A24543  28.123  44.659   8.692
 1735POPC   D2A24544  28.084  44.579   8.249
 1735POPC   C3A24545  27.937  44.928   8.006
 1735POPC   C4A24546  28.283   0.107   7.808
 1735POPC   C1B24547  28.571  44.458   8.770
 1735POPC   C2B24548  28.652  44.662   8.397
 1735POPC   C3B24549  28.592  44.689   7.974
 1735POPC   C4B24550  28.641  44.418   7.620
 1736POPC   NC324551  34.829  35.039   9.420
 1736POPC   PO424552  34.655  34.345   9.466
 1736POPC   GL124553  34.464  34.510   9.086
 1736POPC   GL224554  34.625  34.799   8.992
 1736POPC   C1A24555  34.387  34.464   8.664
 1736POPC   D2A24556  34.701  34.681   8.485
 1736POPC   C3A24557  34.656  34.678   8.078
 1736POPC   C4A24558  34.386  34.671   7.748
 1736POPC   C1B24559  34.917  35.043   8.780
 1736POPC   C2B24560  35.087  35.219   8.444
 1736POPC   C3B24561  35.064  35.131   8.036
 1736POPC   C4B24562  34.719  35.097   7.794
 1737POPC   NC324563  37.213  15.620   9.595
 1737POPC   PO424564  36.823  16.213   9.644
 1737POPC   GL124565  36.886  15.929   9.298
 1737POPC   GL224566  37.192  16.109   9.215
 1737POPC   C1A24567  37.036  15.666   8.928
 1737POPC   D2A24568  36.901  15.694   8.491
 1737POPC   C3A24569  37.093  15.661   8.090
 1737POPC   C4A24570  37.054  15.944   7.766
 1737POPC   C1B24571  36.993  16.168   8.808
 1737POPC   C2B24572  36.736  16.213   8.450
 1737POPC   C3B24573  36.880  16.375   8.095
 1737POPC   C4B24574  37.262  16.400   7.881
 1738POPC   NC324575  29.342  33.293   9.316
 1738POPC   PO424576  29.962  33.023   9.557
 1738POPC   GL124577  30.049  33.065   9.155
 1738POPC   GL224578  29.704  33.004   9.083
 1738POPC   C1A24579  30.135  33.307   8.777
 1738POPC   D2A24580  30.330  33.314   8.360
 1738POPC   C3A24581  30.148  33.282   7.967
 1738POPC   C4A24582  30.133  33.223   7.521
 1738POPC   C1B24583  29.901  32.726   8.812
 1738POPC   C2B24584  30.026  32.906   8.474
 1738POPC   C3B24585  29.887  32.863   8.085
 1738POPC   C4B24586  29.734  32.942   7.672
 1739POPC   NC324587   6.392  43.299   9.605
 1739POPC   PO424588   6.862  42.880   9.477
 1739POPC   GL124589   6.648  43.138   9.164
 1739POPC   GL224590   6.268  43.063   9.122
 1739POPC   C1A24591   6.753  43.195   8.719
 1739POPC   D2A24592   6.556  43.072   8.314
 1739POPC   C3A24593   6.573  43.341   7.959
 1739POPC   C4A24594   6.877  43.431   7.647
 1739POPC   C1B24595   6.412  42.798   8.730
 1739POPC   C2B24596   6.305  42.621   8.292
 1739POPC   C3B24597   6.340  42.839   7.892
 1739POPC   C4B24598   6.281  42.721   7.437
 1740POPC   NC324599  31.537  34.795   9.566
 1740POPC   PO424600  31.797  34.201   9.498
 1740POPC   GL124601  31.606  34.395   9.104
 1740POPC   GL224602  31.548  34.771   9.071
 1740POPC   C1A24603  31.378  34.462   8.709
 1740POPC   D2A24604  31.532  34.434   8.299
 1740POPC   C3A24605  31.209  34.398   7.975
 1740POPC   C4A24606  31.228  34.424   7.527
 1740POPC   C1B24607  31.821  34.777   8.728
 1740POPC   C2B24608  31.787  34.907   8.297
 1740POPC   C3B24609  31.530  34.786   7.910
 1740POPC   C4B24610  31.713  34.614   7.518
 1741POPC   NC324611   0.562  22.652   9.517
 1741POPC   PO424612   0.631  23.429   9.284
 1741POPC   GL124613   0.493  22.999   9.124
 1741POPC   GL224614   0.218  22.696   9.144
 1741POPC   C1A24615   0.395  22.931   8.708
 1741POPC   D2A24616   0.241  23.099   8.315
 1741POPC   C3A24617   0.566  22.979   8.011
 1741POPC   C4A24618   0.664  23.187   7.669
 1741POPC   C1B24619   0.217  22.457   8.756
 1741POPC   C2B24620   0.307  22.599   8.316
 1741POPC   C3B24621   0.137  22.760   7.908
 1741POPC   C4B24622   0.207  22.893   7.482
 1742POPC   NC324623   2.636   3.967   9.485
 1742POPC   PO424624   2.988   4.546   9.472
 1742POPC   GL124625   2.701   4.384   9.178
 1742POPC   GL224626   2.378   4.594   9.117
 1742POPC   C1A24627   2.817   4.138   8.817
 1742POPC   D2A24628   2.658   4.210   8.430
 1742POPC   C3A24629   2.773   4.230   8.014
 1742POPC   C4A24630   2.909   4.216   7.598
 1742POPC   C1B24631   2.322   4.183   8.897
 1742POPC   C2B24632   2.265   3.914   8.541
 1742POPC   C3B24633   2.288   4.024   8.086
 1742POPC   C4B24634   2.468   3.976   7.647
 1743POPC   NC324635  27.045   1.935   9.462
 1743POPC   PO424636  26.397   2.251   9.512
 1743POPC   GL124637  26.662   2.067   9.160
 1743POPC   GL224638  26.695   1.706   9.148
 1743POPC   C1A24639  26.970   1.960   8.803
 1743POPC   D2A24640  26.941   1.807   8.394
 1743POPC   C3A24641  27.120   1.910   7.998
 1743POPC   C4A24642  26.865   2.136   7.701
 1743POPC   C1B24643  26.600   1.575   8.726
 1743POPC   C2B24644  26.707   1.359   8.354
 1743POPC   C3B24645  26.681   1.628   7.981
 1743POPC   C4B24646  26.849   1.628   7.566
 1744POPC   NC324647  23.756  16.666   9.636
 1744POPC   PO424648  23.306  16.272   9.404
 1744POPC   GL124649  23.499  16.615   9.168
 1744POPC   GL224650  23.854  16.757   9.130
 1744POPC   C1A24651  23.444  16.753   8.762
 1744POPC   D2A24652  23.550  16.904   8.353
 1744POPC   C3A24653  23.334  16.797   7.956
 1744POPC   C4A24654  23.386  16.605   7.540
 1744POPC   C1B24655  23.883  17.042   8.779
 1744POPC   C2B24656  24.028  17.025   8.343
 1744POPC   C3B24657  23.829  17.011   7.928
 1744POPC   C4B24658  23.928  17.096   7.502
 1745POPC   NC324659   4.805  21.586   9.656
 1745POPC   PO424660   5.294  21.100   9.627
 1745POPC   GL124661   5.104  21.323   9.293
 1745POPC   GL224662   5.059  21.659   9.179
 1745POPC   C1A24663   5.151  21.210   8.867
 1745POPC   D2A24664   5.246  21.072   8.464
 1745POPC   C3A24665   5.039  21.243   8.121
 1745POPC   C4A24666   5.005  21.215   7.687
 1745POPC   C1B24667   4.813  21.595   8.761
 1745POPC   C2B24668   4.769  21.692   8.297
 1745POPC   C3B24669   4.907  21.689   7.852
 1745POPC   C4B24670   4.787  21.572   7.407
 1746POPC   NC324671   5.869  13.755   9.514
 1746POPC   PO424672   6.160  13.174   9.358
 1746POPC   GL124673   5.868  13.457   9.104
 1746POPC   GL224674   5.974  13.842   9.044
 1746POPC   C1A24675   5.676  13.584   8.718
 1746POPC   D2A24676   5.726  13.793   8.319
 1746POPC   C3A24677   5.637  13.605   7.946
 1746POPC   C4A24678   5.692  13.211   7.773
 1746POPC   C1B24679   6.069  13.929   8.647
 1746POPC   C2B24680   6.261  13.803   8.228
 1746POPC   C3B24681   6.119  13.723   7.787
 1746POPC   C4B24682   6.040  13.994   7.433
 1747POPC   NC324683  23.477  15.677   9.876
 1747POPC   PO424684  23.810  16.211   9.728
 1747POPC   GL124685  23.915  15.953   9.322
 1747POPC   GL224686  23.722  16.164   9.155
 1747POPC   C1A24687  23.831  15.809   8.828
 1747POPC   D2A24688  23.899  16.061   8.413
 1747POPC   C3A24689  23.796  15.899   7.965
 1747POPC   C4A24690  23.738  15.668   7.509
 1747POPC   C1B24691  23.509  16.225   8.761
 1747POPC   C2B24692  23.467  16.387   8.360
 1747POPC   C3B24693  23.546  16.331   7.935
 1747POPC   C4B24694  23.448  16.088   7.574
 1748POPC   NC324695  12.884   0.809   9.742
 1748POPC   PO424696  12.543   0.287   9.572
 1748POPC   GL124697  12.715   0.305   9.153
 1748POPC   GL224698  12.930   0.024   9.089
 1748POPC   C1A24699  12.569   0.250   8.731
 1748POPC   D2A24700  12.519   0.444   8.309
 1748POPC   C3A24701  12.711   0.252   7.940
 1748POPC   C4A24702  12.838   0.325   7.474
 1748POPC   C1B24703  13.170   0.226   8.744
 1748POPC   C2B24704  13.275   0.212   8.294
 1748POPC   C3B24705  13.219   0.218   7.822
 1748POPC   C4B24706  13.493   0.357   7.491
 1749POPC   NC324707  14.657  43.813   9.837
 1749POPC   PO424708  15.328  43.700   9.666
 1749POPC   GL124709  15.291  43.738   9.150
 1749POPC   GL224710  15.098  44.051   9.049
 1749POPC   C1A24711  15.334  43.830   8.651
 1749POPC   D2A24712  15.402  43.817   8.173
 1749POPC   C3A24713  15.046  43.796   7.927
 1749POPC   C4A24714  14.823  43.911   7.526
 1749POPC   C1B24715  14.957  44.188   8.673
 1749POPC   C2B24716  15.056  44.171   8.282
 1749POPC   C3B24717  14.917  44.273   7.894
 1749POPC   C4B24718  15.063  44.520   7.590
 1750POPC   NC324719   5.500  34.809   9.564
 1750POPC   PO424720   5.987  34.369   9.470
 1750POPC   GL124721   6.047  34.485   9.065
 1750POPC   GL224722   5.923  34.838   9.040
 1750POPC   C1A24723   6.053  34.522   8.647
 1750POPC   D2A24724   5.818  34.634   8.324
 1750POPC   C3A24725   5.992  34.542   7.938
 1750POPC   C4A24726   6.342  34.741   7.750
 1750POPC   C1B24727   5.569  34.580   8.818
 1750POPC   C2B24728   5.406  34.345   8.440
 1750POPC   C3B24729   5.459  34.459   8.018
 1750POPC   C4B24730   5.615  34.384   7.595
 1751POPC   NC324731  15.650  28.229   9.563
 1751POPC   PO424732  16.144  28.729   9.604
 1751POPC   GL124733  16.080  28.357   9.316
 1751POPC   GL224734  15.739  28.299   9.078
 1751POPC   C1A24735  16.213  28.368   8.926
 1751POPC   D2A24736  16.010  28.350   8.541
 1751POPC   C3A24737  16.294  28.395   8.217
 1751POPC   C4A24738  16.147  28.498   7.826
 1751POPC   C1B24739  15.621  28.614   8.782
 1751POPC   C2B24740  15.622  28.674   8.366
 1751POPC   C3B24741  15.714  28.387   8.094
 1751POPC   C4B24742  15.643  28.436   7.680
 1752POPC   NC324743  23.790  21.520   9.605
 1752POPC   PO424744  23.133  21.535   9.520
 1752POPC   GL124745  23.453  21.374   9.213
 1752POPC   GL224746  23.671  21.078   9.261
 1752POPC   C1A24747  23.753  21.502   8.871
 1752POPC   D2A24748  23.839  21.328   8.448
 1752POPC   C3A24749  23.912  21.597   8.083
 1752POPC   C4A24750  23.860  21.920   7.816
 1752POPC   C1B24751  23.575  21.027   8.806
 1752POPC   C2B24752  23.409  21.025   8.369
 1752POPC   C3B24753  23.690  21.108   7.994
 1752POPC   C4B24754  23.715  21.100   7.557
 1753POPC   NC324755  25.844  14.946   9.532
 1753POPC   PO424756  26.334  15.392   9.540
 1753POPC   GL124757  26.052  15.396   9.170
 1753POPC   GL224758  25.903  15.086   9.060
 1753POPC   C1A24759  26.120  15.340   8.714
 1753POPC   D2A24760  25.885  15.083   8.431
 1753POPC   C3A24761  25.946  15.289   8.066
 1753POPC   C4A24762  26.319  15.335   7.873
 1753POPC   C1B24763  26.128  14.775   8.790
 1753POPC   C2B24764  26.285  14.632   8.395
 1753POPC   C3B24765  26.149  14.808   7.995
 1753POPC   C4B24766  26.292  14.897   7.575
 1754POPC   NC324767  28.529  14.347   9.491
 1754POPC   PO424768  27.896  14.201   9.564
 1754POPC   GL124769  28.126  14.103   9.179
 1754POPC   GL224770  28.294  14.440   9.057
 1754POPC   C1A24771  28.262  14.048   8.738
 1754POPC   D2A24772  28.397  14.401   8.458
 1754POPC   C3A24773  28.469  14.325   8.011
 1754POPC   C4A24774  28.308  14.179   7.598
 1754POPC   C1B24775  28.556  14.756   8.847
 1754POPC   C2B24776  28.705  14.830   8.449
 1754POPC   C3B24777  28.488  14.870   8.059
 1754POPC   C4B24778  28.447  14.689   7.644
 1755POPC   NC324779  35.440  36.833   9.415
 1755POPC   PO424780  35.715  37.445   9.491
 1755POPC   GL124781  35.594  37.240   9.113
 1755POPC   GL224782  35.238  37.238   9.109
 1755POPC   C1A24783  35.462  36.928   8.751
 1755POPC   D2A24784  35.312  36.602   8.441
 1755POPC   C3A24785  35.213  36.734   8.011
 1755POPC   C4A24786  35.106  36.694   7.574
 1755POPC   C1B24787  35.314  37.417   8.734
 1755POPC   C2B24788  35.570  37.325   8.402
 1755POPC   C3B24789  35.439  37.200   7.980
 1755POPC   C4B24790  35.238  37.170   7.605
 1756POPC   NC324791  12.882  13.292   9.548
 1756POPC   PO424792  12.937  13.965   9.595
 1756POPC   GL124793  12.758  13.711   9.227
 1756POPC   GL224794  12.987  13.433   9.087
 1756POPC   C1A24795  12.603  13.633   8.794
 1756POPC   D2A24796  12.382  13.762   8.411
 1756POPC   C3A24797  12.619  13.655   8.077
 1756POPC   C4A24798  12.919  13.602   7.791
 1756POPC   C1B24799  13.149  13.218   8.736
 1756POPC   C2B24800  13.034  13.325   8.316
 1756POPC   C3B24801  13.326  13.328   7.980
 1756POPC   C4B24802  13.272  13.330   7.539
 1757POPC   NC324803  39.193   9.583   9.538
 1757POPC   PO424804  39.004  10.126   9.276
 1757POPC   GL124805  39.314   9.915   9.104
 1757POPC   GL224806  39.340   9.556   9.046
 1757POPC   C1A24807  39.335   9.915   8.672
 1757POPC   D2A24808  39.476   9.990   8.290
 1757POPC   C3A24809  39.258   9.716   8.042
 1757POPC   C4A24810  39.348   9.763   7.604
 1757POPC   C1B24811  39.122   9.442   8.646
 1757POPC   C2B24812  38.936   9.271   8.251
 1757POPC   C3B24813  38.969   9.364   7.831
 1757POPC   C4B24814  39.419   9.302   7.777
 1758POPC   NC324815  11.456  35.412   9.706
 1758POPC   PO424816  11.133  35.167   9.159
 1758POPC   GL124817  11.332  35.530   9.004
 1758POPC   GL224818  11.618  35.514   9.212
 1758POPC   C1A24819  11.299  35.569   8.568
 1758POPC   D2A24820  11.274  35.723   8.158
 1758POPC   C3A24821  11.171  35.444   7.824
 1758POPC   C4A24822  11.169  35.353   7.367
 1758POPC   C1B24823  11.693  35.176   8.888
 1758POPC   C2B24824  11.668  35.232   8.440
 1758POPC   C3B24825  11.515  35.104   8.031
 1758POPC   C4B24826  11.578  35.102   7.592
 1759POPC   NC324827  35.502   1.781   9.493
 1759POPC   PO424828  34.932   2.170   9.555
 1759POPC   GL124829  35.187   2.039   9.167
 1759POPC   GL224830  35.536   2.011   9.059
 1759POPC   C1A24831  35.185   1.905   8.705
 1759POPC   D2A24832  34.983   1.917   8.313
 1759POPC   C3A24833  35.307   1.966   8.022
 1759POPC   C4A24834  35.265   2.071   7.604
 1759POPC   C1B24835  35.643   1.670   8.771
 1759POPC   C2B24836  35.668   1.477   8.344
 1759POPC   C3B24837  35.556   1.507   7.886
 1759POPC   C4B24838  35.552   1.651   7.429
 1760POPC   NC324839  40.228  13.463   9.730
 1760POPC   PO424840  39.780  13.758   9.355
 1760POPC   GL124841  40.097  13.604   9.121
 1760POPC   GL224842  40.249  13.300   9.255
 1760POPC   C1A24843  39.980  13.601   8.701
 1760POPC   D2A24844  39.818  13.826   8.368
 1760POPC   C3A24845  40.006  13.690   7.977
 1760POPC   C4A24846  40.051  13.796   7.535
 1760POPC   C1B24847  40.411  13.169   8.878
 1760POPC   C2B24848  40.368  13.361   8.489
 1760POPC   C3B24849  40.320  13.255   8.055
 1760POPC   C4B24850  40.173  13.314   7.651
 1761POPC   NC324851  10.925  13.118   9.340
 1761POPC   PO424852  10.329  13.482   9.471
 1761POPC   GL124853  10.374  13.823   9.135
 1761POPC   GL224854  10.714  13.939   9.024
 1761POPC   C1A24855  10.273  13.976   8.705
 1761POPC   D2A24856  10.418  13.815   8.303
 1761POPC   C3A24857  10.368  13.365   8.185
 1761POPC   C4A24858  10.437  13.289   7.724
 1761POPC   C1B24859  10.644  13.604   8.750
 1761POPC   C2B24860  10.836  13.487   8.375
 1761POPC   C3B24861  10.772  13.617   7.954
 1761POPC   C4B24862  10.901  13.427   7.578
 1762POPC   NC324863  28.189   8.877   9.541
 1762POPC   PO424864  28.654   9.314   9.755
 1762POPC   GL124865  28.388   9.389   9.292
 1762POPC   GL224866  28.112   9.206   9.158
 1762POPC   C1A24867  28.383   9.291   8.744
 1762POPC   D2A24868  28.637   9.133   8.342
 1762POPC   C3A24869  28.375   8.967   7.972
 1762POPC   C4A24870  28.295   9.060   7.521
 1762POPC   C1B24871  28.166   8.827   8.872
 1762POPC   C2B24872  28.282   8.722   8.435
 1762POPC   C3B24873  28.023   8.565   8.097
 1762POPC   C4B24874  27.934   8.725   7.700
 1763POPC   NC324875   2.784  26.465   9.708
 1763POPC   PO424876   2.754  25.877   9.549
 1763POPC   GL124877   2.745  26.139   9.176
 1763POPC   GL224878   3.027  26.361   9.229
 1763POPC   C1A24879   2.592  26.054   8.730
 1763POPC   D2A24880   2.811  25.806   8.409
 1763POPC   C3A24881   2.913  25.910   8.000
 1763POPC   C4A24882   2.971  25.726   7.629
 1763POPC   C1B24883   3.036  26.285   8.768
 1763POPC   C2B24884   2.900  26.308   8.318
 1763POPC   C3B24885   2.964  26.403   7.859
 1763POPC   C4B24886   2.649  26.538   7.556
 1764POPC   NC324887   5.091  35.202   9.826
 1764POPC   PO424888   4.818  35.726   9.642
 1764POPC   GL124889   5.033  35.454   9.293
 1764POPC   GL224890   5.111  35.089   9.312
 1764POPC   C1A24891   5.005  35.271   8.861
 1764POPC   D2A24892   5.184  35.332   8.465
 1764POPC   C3A24893   4.945  35.378   8.129
 1764POPC   C4A24894   5.061  35.137   7.801
 1764POPC   C1B24895   5.442  35.048   8.960
 1764POPC   C2B24896   5.687  35.059   8.579
 1764POPC   C3B24897   5.517  35.036   8.136
 1764POPC   C4B24898   5.478  34.862   7.699
 1765POPC   NC324899   4.417  30.140   9.431
 1765POPC   PO424900   4.020  29.537   9.479
 1765POPC   GL124901   4.162  29.773   9.122
 1765POPC   GL224902   4.086  30.091   9.053
 1765POPC   C1A24903   4.402  29.772   8.734
 1765POPC   D2A24904   4.563  30.032   8.423
 1765POPC   C3A24905   4.335  29.883   8.080
 1765POPC   C4A24906   4.492  29.879   7.702
 1765POPC   C1B24907   4.187  30.265   8.713
 1765POPC   C2B24908   3.999  30.176   8.328
 1765POPC   C3B24909   4.078  30.280   7.858
 1765POPC   C4B24910   3.924  30.240   7.390
 1766POPC   NC324911  40.376  30.935   9.546
 1766POPC   PO424912  40.981  30.732   9.448
 1766POPC   GL124913  40.822  30.970   9.148
 1766POPC   GL224914  40.570  30.803   9.095
 1766POPC   C1A24915  40.914  30.965   8.730
 1766POPC   D2A24916  41.089  30.819   8.373
 1766POPC   C3A24917  40.919  30.907   8.016
 1766POPC   C4A24918  40.969  30.624   7.721
 1766POPC   C1B24919  40.675  30.524   8.789
 1766POPC   C2B24920  40.604  30.645   8.376
 1766POPC   C3B24921  40.409  30.892   8.061
 1766POPC   C4B24922  40.471  30.774   7.651
 1767POPC   NC324923  30.503  25.854   9.826
 1767POPC   PO424924  30.900  26.219   9.451
 1767POPC   GL124925  30.832  26.176   9.024
 1767POPC   GL224926  30.540  26.316   9.019
 1767POPC   C1A24927  30.790  25.877   8.691
 1767POPC   D2A24928  30.869  25.850   8.270
 1767POPC   C3A24929  30.549  25.930   7.970
 1767POPC   C4A24930  30.823  25.817   7.660
 1767POPC   C1B24931  30.594  26.349   8.592
 1767POPC   C2B24932  30.380  26.625   8.358
 1767POPC   C3B24933  30.334  26.571   7.944
 1767POPC   C4B24934  30.530  26.324   7.646
 1768POPC   NC324935  28.159  20.065   9.892
 1768POPC   PO424936  28.746  20.077   9.594
 1768POPC   GL124937  28.474  20.125   9.221
 1768POPC   GL224938  28.119  20.075   9.336
 1768POPC   C1A24939  28.581  20.002   8.764
 1768POPC   D2A24940  28.643  19.781   8.338
 1768POPC   C3A24941  28.637  20.026   7.941
 1768POPC   C4A24942  28.762  20.381   7.663
 1768POPC   C1B24943  28.179  19.783   8.973
 1768POPC   C2B24944  28.156  19.855   8.537
 1768POPC   C3B24945  27.924  19.953   8.176
 1768POPC   C4B24946  28.070  19.791   7.820
 1769POPC   NC324947   6.305  29.710   9.554
 1769POPC   PO424948   5.717  30.183   9.486
 1769POPC   GL124949   5.805  29.898   9.173
 1769POPC   GL224950   5.540  29.636   9.133
 1769POPC   C1A24951   6.149  29.850   8.884
 1769POPC   D2A24952   6.318  30.004   8.505
 1769POPC   C3A24953   6.125  29.877   8.134
 1769POPC   C4A24954   6.239  29.888   7.699
 1769POPC   C1B24955   5.577  29.801   8.724
 1769POPC   C2B24956   5.636  29.955   8.345
 1769POPC   C3B24957   5.417  29.876   7.997
 1769POPC   C4B24958   5.766  29.730   7.775
 1770POPC   NC324959  24.104   6.490   9.599
 1770POPC   PO424960  24.782   6.490   9.574
 1770POPC   GL124961  24.516   6.641   9.253
 1770POPC   GL224962  24.281   6.400   9.147
 1770POPC   C1A24963  24.539   6.819   8.840
 1770POPC   D2A24964  24.311   6.947   8.473
 1770POPC   C3A24965  24.505   6.894   8.072
 1770POPC   C4A24966  24.654   6.707   7.690
 1770POPC   C1B24967  24.419   6.293   8.777
 1770POPC   C2B24968  24.561   6.487   8.412
 1770POPC   C3B24969  24.458   6.359   8.006
 1770POPC   C4B24970  24.239   6.418   7.619
 1771POPC   NC324971   7.785   0.241   9.577
 1771POPC   PO424972   8.296   0.617   9.467
 1771POPC   GL124973   8.403   0.424   9.097
 1771POPC   GL224974   8.096   0.252   9.137
 1771POPC   C1A24975   8.254   0.473   8.687
 1771POPC   D2A24976   8.180   0.746   8.341
 1771POPC   C3A24977   8.213   0.563   7.957
 1771POPC   C4A24978   8.455   0.406   7.657
 1771POPC   C1B24979   7.900   0.073   8.747
 1771POPC   C2B24980   8.048   0.131   8.354
 1771POPC   C3B24981   7.853   0.196   7.982
 1771POPC   C4B24982   8.022   0.166   7.585
 1772POPC   NC324983  42.063   1.650   9.719
 1772POPC   PO424984  41.576   1.142   9.660
 1772POPC   GL124985  41.709   1.000   9.252
 1772POPC   GL224986  41.360   1.096   9.188
 1772POPC   C1A24987  41.737   1.066   8.802
 1772POPC   D2A24988  41.560   1.290   8.441
 1772POPC   C3A24989  41.682   1.166   8.029
 1772POPC   C4A24990  41.617   1.502   7.745
 1772POPC   C1B24991  41.211   1.280   8.820
 1772POPC   C2B24992  41.030   1.274   8.402
 1772POPC   C3B24993  41.201   1.313   8.013
 1772POPC   C4B24994  41.341   1.079   7.679
 1773POPC   NC324995  20.843  21.492   9.590
 1773POPC   PO424996  20.408  20.922   9.447
 1773POPC   GL124997  20.726  21.121   9.183
 1773POPC   GL224998  20.607  21.447   9.139
 1773POPC   C1A24999  20.895  21.260   8.762
 1773POPC   D2A25000  20.850  21.497   8.382
 1773POPC   C3A25001  20.679  21.259   8.045
 1773POPC   C4A25002  20.720  21.154   7.600
 1773POPC   C1B25003  20.411  21.436   8.715
 1773POPC   C2B25004  20.219  21.394   8.319
 1773POPC   C3B25005  20.372  21.695   8.082
 1773POPC   C4B25006  20.611  21.651   7.709
 1774POPC   NC325007   5.663  26.902   9.575
 1774POPC   PO425008   5.059  26.900   9.787
 1774POPC   GL125009   5.107  26.832   9.260
 1774POPC   GL225010   5.400  27.047   9.162
 1774POPC   C1A25011   4.988  26.805   8.815
 1774POPC   D2A25012   5.013  27.006   8.394
 1774POPC   C3A25013   4.832  26.828   8.015
 1774POPC   C4A25014   4.921  26.871   7.594
 1774POPC   C1B25015   5.364  27.190   8.727
 1774POPC   C2B25016   5.445  27.275   8.273
 1774POPC   C3B25017   5.367  27.005   7.900
 1774POPC   C4B25018   5.296  27.186   7.498
 1775POPC   NC325019  13.163   7.894   9.372
 1775POPC   PO425020  12.733   7.251   9.395
 1775POPC   GL125021  12.982   7.417   9.110
 1775POPC   GL225022  12.827   7.703   9.049
 1775POPC   C1A25023  13.082   7.351   8.691
 1775POPC   D2A25024  13.203   7.139   8.317
 1775POPC   C3A25025  13.215   7.337   7.908
 1775POPC   C4A25026  12.926   7.298   7.544
 1775POPC   C1B25027  12.998   7.850   8.682
 1775POPC   C2B25028  13.150   7.685   8.286
 1775POPC   C3B25029  12.834   7.659   7.958
 1775POPC   C4B25030  12.747   7.772   7.565
 1776POPC   NC325031   0.874  25.232   9.516
 1776POPC   PO425032   1.455  24.945   9.473
 1776POPC   GL125033   1.237  25.191   9.137
 1776POPC   GL225034   0.968  25.438   9.061
 1776POPC   C1A25035   1.280  25.170   8.695
 1776POPC   D2A25036   1.298  25.385   8.290
 1776POPC   C3A25037   1.300  25.152   7.891
 1776POPC   C4A25038   1.365  25.136   7.447
 1776POPC   C1B25039   1.015  25.631   8.666
 1776POPC   C2B25040   0.791  25.527   8.273
 1776POPC   C3B25041   0.780  25.295   7.906
 1776POPC   C4B25042   0.914  25.333   7.500
 1777POPC   NC325043   8.269  28.737   9.463
 1777POPC   PO425044   7.996  28.206   9.541
 1777POPC   GL125045   8.056  28.367   9.164
 1777POPC   GL225046   7.819  28.639   9.196
 1777POPC   C1A25047   8.253  28.189   8.797
 1777POPC   D2A25048   8.239  28.226   8.369
 1777POPC   C3A25049   8.579  28.303   8.122
 1777POPC   C4A25050   8.624  28.506   7.766
 1777POPC   C1B25051   8.030  28.742   8.800
 1777POPC   C2B25052   7.926  28.647   8.380
 1777POPC   C3B25053   8.163  28.590   8.005
 1777POPC   C4B25054   7.972  28.627   7.602
 1778POPC   NC325055  17.202  26.099   9.450
 1778POPC   PO425056  16.661  25.723   9.480
 1778POPC   GL125057  16.680  25.979   9.053
 1778POPC   GL225058  16.959  26.168   9.026
 1778POPC   C1A25059  16.615  26.288   8.687
 1778POPC   D2A25060  16.464  26.182   8.271
 1778POPC   C3A25061  16.709  26.262   7.907
 1778POPC   C4A25062  17.043  26.329   7.549
 1778POPC   C1B25063  17.088  25.739   8.889
 1778POPC   C2B25064  16.830  25.649   8.562
 1778POPC   C3B25065  16.882  25.887   8.208
 1778POPC   C4B25066  16.921  25.809   7.780
 1779POPC   NC325067  10.767  39.413   9.447
 1779POPC   PO425068  11.429  39.161   9.573
 1779POPC   GL125069  11.395  39.249   9.128
 1779POPC   GL225070  11.075  39.401   9.066
 1779POPC   C1A25071  11.274  39.096   8.700
 1779POPC   D2A25072  11.478  38.906   8.333
 1779POPC   C3A25073  11.381  39.051   7.932
 1779POPC   C4A25074  11.560  39.473   7.745
 1779POPC   C1B25075  10.965  39.646   8.740
 1779POPC   C2B25076  11.144  39.531   8.363
 1779POPC   C3B25077  11.102  39.466   7.936
 1779POPC   C4B25078  11.107  39.496   7.471
 1780POPC   NC325079  43.465  38.883   9.511
 1780POPC   PO425080  42.906  39.363   9.543
 1780POPC   GL125081  43.039  39.459   9.150
 1780POPC   GL225082  43.383  39.335   9.128
 1780POPC   C1A25083  42.826  39.471   8.742
 1780POPC   D2A25084  42.812  39.216   8.335
 1780POPC   C3A25085  43.009  39.372   7.954
 1780POPC   C4A25086  43.435  39.452   7.866
 1780POPC   C1B25087  43.270  39.240   8.725
 1780POPC   C2B25088  43.377  39.149   8.331
 1780POPC   C3B25089  43.173  38.909   8.052
 1780POPC   C4B25090  43.259  39.003   7.653
 1781POPC   NC325091  43.643  29.840   9.635
 1781POPC   PO425092  44.233  30.180   9.629
 1781POPC   GL125093  44.019  29.896   9.298
 1781POPC   GL225094  43.707  30.037   9.189
 1781POPC   C1A25095  44.101  29.683   8.901
 1781POPC   D2A25096  44.184  29.735   8.456
 1781POPC   C3A25097  43.999  29.585   8.054
 1781POPC   C4A25098  44.134  29.846   7.768
 1781POPC   C1B25099  43.590  29.726   8.907
 1781POPC   C2B25100  43.616  29.752   8.463
 1781POPC   C3B25101  43.680  29.992   8.094
 1781POPC   C4B25102  43.609  29.795   7.711
 1782POPC   NC325103  13.398  17.253   9.601
 1782POPC   PO425104  12.768  17.108   9.546
 1782POPC   GL125105  12.891  17.335   9.176
 1782POPC   GL225106  13.194  17.143   9.150
 1782POPC   C1A25107  12.723  17.503   8.751
 1782POPC   D2A25108  12.743  17.292   8.320
 1782POPC   C3A25109  12.813  17.611   8.004
 1782POPC   C4A25110  12.614  17.846   7.631
 1782POPC   C1B25111  13.045  17.116   8.721
 1782POPC   C2B25112  13.214  17.043   8.317
 1782POPC   C3B25113  13.086  17.167   7.922
 1782POPC   C4B25114  12.700  17.241   7.687
 1783POPC   NC325115   5.576  18.876   9.480
 1783POPC   PO425116   6.131  18.986   9.860
 1783POPC   GL125117   6.090  19.110   9.368
 1783POPC   GL225118   6.317  19.404   9.263
 1783POPC   C1A25119   5.861  19.061   8.919
 1783POPC   D2A25120   5.798  18.827   8.508
 1783POPC   C3A25121   5.924  18.978   8.098
 1783POPC   C4A25122   5.707  19.223   7.790
 1783POPC   C1B25123   6.325  19.244   8.846
 1783POPC   C2B25124   6.044  19.298   8.497
 1783POPC   C3B25125   6.034  19.476   8.096
 1783POPC   C4B25126   6.198  19.311   7.715
 1784POPC   NC325127  38.565  10.198   9.341
 1784POPC   PO425128  38.100   9.840   9.595
 1784POPC   GL125129  38.342   9.753   9.201
 1784POPC   GL225130  38.733   9.701   9.211
 1784POPC   C1A25131  38.311   9.931   8.761
 1784POPC   D2A25132  38.480  10.176   8.379
 1784POPC   C3A25133  38.268  10.091   7.974
 1784POPC   C4A25134  38.182   9.651   7.866
 1784POPC   C1B25135  38.817   9.856   8.750
 1784POPC   C2B25136  38.830   9.766   8.332
 1784POPC   C3B25137  38.699   9.816   7.931
 1784POPC   C4B25138  38.857   9.820   7.542
 1785POPC   NC325139  27.989  43.525   9.466
 1785POPC   PO425140  27.381  43.175   9.574
 1785POPC   GL125141  27.590  43.234   9.231
 1785POPC   GL225142  27.297  43.335   9.083
 1785POPC   C1A25143  27.712  43.037   8.856
 1785POPC   D2A25144  27.898  43.180   8.465
 1785POPC   C3A25145  27.866  42.832   8.204
 1785POPC   C4A25146  27.706  42.979   7.834
 1785POPC   C1B25147  27.166  43.046   8.780
 1785POPC   C2B25148  27.412  43.008   8.435
 1785POPC   C3B25149  27.348  43.266   8.115
 1785POPC   C4B25150  27.183  43.065   7.797
 1786POPC   NC325151  22.922   2.434   9.399
 1786POPC   PO425152  22.885   1.781   9.703
 1786POPC   GL125153  22.761   1.942   9.295
 1786POPC   GL225154  23.087   1.968   9.186
 1786POPC   C1A25155  22.729   1.994   8.799
 1786POPC   D2A25156  22.855   1.931   8.318
 1786POPC   C3A25157  22.668   2.186   7.964
 1786POPC   C4A25158  22.814   2.272   7.536
 1786POPC   C1B25159  23.255   1.915   8.787
 1786POPC   C2B25160  23.365   2.189   8.507
 1786POPC   C3B25161  23.405   2.058   8.135
 1786POPC   C4B25162  23.132   1.994   7.837
 1787POPC   NC325163   7.989  40.457   9.533
 1787POPC   PO425164   7.804  39.748   9.567
 1787POPC   GL125165   7.963  39.713   9.166
 1787POPC   GL225166   8.233  39.929   9.159
 1787POPC   C1A25167   7.920  39.592   8.781
 1787POPC   D2A25168   8.125  39.864   8.520
 1787POPC   C3A25169   8.022  39.841   8.108
 1787POPC   C4A25170   8.243  40.096   7.808
 1787POPC   C1B25171   8.338  40.245   8.805
 1787POPC   C2B25172   8.253  40.344   8.356
 1787POPC   C3B25173   8.540  40.456   8.026
 1787POPC   C4B25174   8.758  40.394   7.653
 1788POPC   NC325175   3.408  25.056   9.276
 1788POPC   PO425176   3.666  25.565   9.624
 1788POPC   GL125177   3.691  25.474   9.211
 1788POPC   GL225178   3.355  25.516   9.109
 1788POPC   C1A25179   3.659  25.333   8.751
 1788POPC   D2A25180   3.442  25.088   8.456
 1788POPC   C3A25181   3.662  24.939   8.112
 1788POPC   C4A25182   3.648  25.100   7.694
 1788POPC   C1B25183   3.239  25.657   8.695
 1788POPC   C2B25184   3.242  25.558   8.242
 1788POPC   C3B25185   3.218  25.180   7.996
 1788POPC   C4B25186   3.023  24.847   7.784
 1789POPC   NC325187   1.032   6.241   9.765
 1789POPC   PO425188   1.568   6.551   9.467
 1789POPC   GL125189   1.429   6.721   9.109
 1789POPC   GL225190   1.064   6.690   9.150
 1789POPC   C1A25191   1.340   6.648   8.689
 1789POPC   D2A25192   1.098   6.814   8.360
 1789POPC   C3A25193   1.379   6.808   8.039
 1789POPC   C4A25194   1.200   6.684   7.685
 1789POPC   C1B25195   0.826   6.593   8.756
 1789POPC   C2B25196   0.826   6.389   8.340
 1789POPC   C3B25197   0.995   6.279   7.942
 1789POPC   C4B25198   0.789   6.394   7.535
 1790POPC   NC325199  37.230  10.493   9.864
 1790POPC   PO425200  36.727  10.416   9.417
 1790POPC   GL125201  36.769  10.748   9.075
 1790POPC   GL225202  36.462  10.784   8.911
 1790POPC   C1A25203  36.857  10.900   8.626
 1790POPC   D2A25204  36.706  10.871   8.157
 1790POPC   C3A25205  36.840  10.545   7.804
 1790POPC   C4A25206  36.567  10.276   7.477
 1790POPC   C1B25207  36.600  10.431   8.638
 1790POPC   C2B25208  36.713  10.259   8.201
 1790POPC   C3B25209  36.913  10.042   7.789
 1790POPC   C4B25210  36.701   9.778   7.414
 1791POPC   NC325211  24.865  41.313   9.539
 1791POPC   PO425212  24.528  41.902   9.558
 1791POPC   GL125213  24.431  41.768   9.165
 1791POPC   GL225214  24.306  41.420   9.025
 1791POPC   C1A25215  24.600  41.742   8.766
 1791POPC   D2A25216  24.420  41.492   8.418
 1791POPC   C3A25217  24.568  41.703   8.040
 1791POPC   C4A25218  24.856  42.070   8.044
 1791POPC   C1B25219  24.729  41.264   8.841
 1791POPC   C2B25220  24.964  41.261   8.432
 1791POPC   C3B25221  24.718  41.221   8.070
 1791POPC   C4B25222  24.543  41.345   7.674
 1792POPC   NC325223   3.598   8.524   9.362
 1792POPC   PO425224   3.745   9.068   9.573
 1792POPC   GL125225   3.518   9.030   9.188
 1792POPC   GL225226   3.156   9.180   9.183
 1792POPC   C1A25227   3.433   8.791   8.813
 1792POPC   D2A25228   3.485   8.511   8.520
 1792POPC   C3A25229   3.552   8.764   8.197
 1792POPC   C4A25230   3.561   8.681   7.794
 1792POPC   C1B25231   3.359   9.304   8.777
 1792POPC   C2B25232   3.339   9.338   8.325
 1792POPC   C3B25233   3.373   9.175   7.897
 1792POPC   C4B25234   3.173   9.384   7.557
 1793POPC   NC325235  19.462   8.197   9.523
 1793POPC   PO425236  18.893   8.499   9.392
 1793POPC   GL125237  19.234   8.431   9.107
 1793POPC   GL225238  19.231   8.056   9.058
 1793POPC   C1A25239  19.178   8.406   8.666
 1793POPC   D2A25240  19.204   8.017   8.430
 1793POPC   C3A25241  19.282   8.051   7.998
 1793POPC   C4A25242  19.384   7.727   7.731
 1793POPC   C1B25243  18.831   8.035   8.802
 1793POPC   C2B25244  18.741   8.215   8.405
 1793POPC   C3B25245  19.016   8.456   8.172
 1793POPC   C4B25246  19.032   8.500   7.762
 1794POPC   NC325247  41.185  24.004   9.353
 1794POPC   PO425248  40.841  24.507   9.634
 1794POPC   GL125249  40.822  24.637   9.186
 1794POPC   GL225250  40.584  24.371   9.088
 1794POPC   C1A25251  40.710  24.722   8.746
 1794POPC   D2A25252  40.901  24.549   8.400
 1794POPC   C3A25253  40.875  24.713   8.000
 1794POPC   C4A25254  41.188  24.730   7.658
 1794POPC   C1B25255  40.650  24.176   8.672
 1794POPC   C2B25256  40.400  24.115   8.281
 1794POPC   C3B25257  40.466  24.209   7.850
 1794POPC   C4B25258  40.869  24.334   7.657
 1795POPC   NC325259   8.238  39.553   9.558
 1795POPC   PO425260   8.001  38.916   9.720
 1795POPC   GL125261   8.238  38.939   9.303
 1795POPC   GL225262   8.286  39.273   9.151
 1795POPC   C1A25263   8.185  38.887   8.844
 1795POPC   D2A25264   7.997  39.132   8.490
 1795POPC   C3A25265   8.154  39.161   8.051
 1795POPC   C4A25266   8.130  39.468   7.735
 1795POPC   C1B25267   8.409  39.530   8.829
 1795POPC   C2B25268   8.408  39.459   8.411
 1795POPC   C3B25269   8.492  39.655   8.023
 1795POPC   C4B25270   8.600  39.772   7.596
 1796POPC   NC325271  22.581  27.720   9.587
 1796POPC   PO425272  23.004  27.143   9.597
 1796POPC   GL125273  22.904  27.411   9.269
 1796POPC   GL225274  23.120  27.709   9.213
 1796POPC   C1A25275  22.992  27.378   8.848
 1796POPC   D2A25276  22.926  27.572   8.513
 1796POPC   C3A25277  22.904  27.396   8.157
 1796POPC   C4A25278  22.790  27.495   7.763
 1796POPC   C1B25279  22.909  27.926   8.887
 1796POPC   C2B25280  22.967  28.068   8.466
 1796POPC   C3B25281  22.829  27.900   8.098
 1796POPC   C4B25282  22.839  28.010   7.698
 1797POPC   NC325283  28.696  13.363   9.557
 1797POPC   PO425284  28.082  13.465   9.473
 1797POPC   GL125285  28.345  13.471   9.099
 1797POPC   GL225286  28.646  13.266   9.054
 1797POPC   C1A25287  28.250  13.539   8.656
 1797POPC   D2A25288  28.167  13.806   8.278
 1797POPC   C3A25289  28.425  13.795   7.906
 1797POPC   C4A25290  28.519  13.720   7.432
 1797POPC   C1B25291  28.743  13.325   8.622
 1797POPC   C2B25292  28.841  13.328   8.178
 1797POPC   C3B25293  28.561  13.331   7.781
 1797POPC   C4B25294  28.746  13.281   7.340
 1798POPC   NC325295  26.817  22.452   9.891
 1798POPC   PO425296  26.893  21.889   9.546
 1798POPC   GL125297  26.561  22.020   9.152
 1798POPC   GL225298  26.592  22.409   8.993
 1798POPC   C1A25299  26.680  22.003   8.692
 1798POPC   D2A25300  27.012  21.857   8.398
 1798POPC   C3A25301  26.759  21.840   8.067
 1798POPC   C4A25302  26.729  22.031   7.708
 1798POPC   C1B25303  26.836  22.729   8.772
 1798POPC   C2B25304  27.078  22.638   8.423
 1798POPC   C3B25305  26.891  22.326   8.187
 1798POPC   C4B25306  26.799  22.513   7.842
 1799POPC   NC325307  43.725  35.573   9.546
 1799POPC   PO425308  43.153  35.170   9.561
 1799POPC   GL125309  43.017  35.497   9.271
 1799POPC   GL225310  43.347  35.674   9.205
 1799POPC   C1A25311  42.811  35.540   8.865
 1799POPC   D2A25312  42.927  35.331   8.488
 1799POPC   C3A25313  42.939  35.549   8.139
 1799POPC   C4A25314  42.960  35.457   7.746
 1799POPC   C1B25315  43.319  35.428   8.822
 1799POPC   C2B25316  43.413  35.175   8.461
 1799POPC   C3B25317  43.289  35.176   8.044
 1799POPC   C4B25318  43.446  35.185   7.643
 1800POPC   NC325319  42.584  38.972   9.510
 1800POPC   PO425320  42.090  39.497   9.463
 1800POPC   GL125321  42.360  39.399   9.072
 1800POPC   GL225322  42.429  39.054   9.039
 1800POPC   C1A25323  42.362  39.362   8.586
 1800POPC   D2A25324  42.078  39.411   8.222
 1800POPC   C3A25325  42.117  39.178   7.819
 1800POPC   C4A25326  42.026  39.125   7.362
 1800POPC   C1B25327  42.311  38.849   8.677
 1800POPC   C2B25328  42.364  38.967   8.251
 1800POPC   C3B25329  42.629  38.942   7.897
 1800POPC   C4B25330  42.381  38.808   7.561
 1801POPC   NC325331   2.612   1.426   9.415
 1801POPC   PO425332   2.843   0.716   9.560
 1801POPC   GL125333   2.763   0.937   9.200
 1801POPC   GL225334   3.017   1.163   9.190
 1801POPC   C1A25335   2.703   1.128   8.785
 1801POPC   D2A25336   2.872   1.189   8.395
 1801POPC   C3A25337   2.565   1.162   8.097
 1801POPC   C4A25338   2.591   0.977   7.712
 1801POPC   C1B25339   3.148   1.407   8.830
 1801POPC   C2B25340   3.071   1.656   8.464
 1801POPC   C3B25341   3.138   1.568   8.027
 1801POPC   C4B25342   2.813   1.440   7.753
 1802POPC   NC325343  19.233   9.818   9.522
 1802POPC   PO425344  18.735   9.949   9.150
 1802POPC   GL125345  18.957   9.630   9.075
 1802POPC   GL225346  19.296   9.773   9.035
 1802POPC   C1A25347  18.899   9.355   8.723
 1802POPC   D2A25348  19.115   9.365   8.332
 1802POPC   C3A25349  19.001   9.741   8.113
 1802POPC   C4A25350  18.744   9.632   7.786
 1802POPC   C1B25351  19.199   9.775   8.630
 1802POPC   C2B25352  19.487   9.741   8.329
 1802POPC   C3B25353  19.482   9.883   7.954
 1802POPC   C4B25354  19.225   9.724   7.619
 1803POPC   NC325355  14.182  21.101   9.531
 1803POPC   PO425356  14.843  21.319   9.504
 1803POPC   GL125357  14.585  21.388   9.133
 1803POPC   GL225358  14.404  21.101   9.089
 1803POPC   C1A25359  14.721  21.540   8.722
 1803POPC   D2A25360  14.867  21.775   8.359
 1803POPC   C3A25361  14.694  21.580   7.990
 1803POPC   C4A25362  14.339  21.285   7.885
 1803POPC   C1B25363  14.230  21.262   8.742
 1803POPC   C2B25364  14.230  21.093   8.358
 1803POPC   C3B25365  13.988  20.914   8.050
 1803POPC   C4B25366  13.889  21.103   7.687
 1804POPC   NC325367  38.290  39.193   9.612
 1804POPC   PO425368  38.939  39.135   9.384
 1804POPC   GL125369  38.570  39.246   9.186
 1804POPC   GL225370  38.504  39.595   9.103
 1804POPC   C1A25371  38.350  39.069   8.844
 1804POPC   D2A25372  38.314  38.978   8.410
 1804POPC   C3A25373  38.281  39.338   8.132
 1804POPC   C4A25374  38.034  39.274   7.777
 1804POPC   C1B25375  38.751  39.389   8.741
 1804POPC   C2B25376  38.982  39.548   8.409
 1804POPC   C3B25377  38.810  39.772   8.094
 1804POPC   C4B25378  38.568  39.652   7.778
 1805POPC   NC325379  10.603  16.690   9.521
 1805POPC   PO425380  10.475  17.331   9.595
 1805POPC   GL125381  10.418  17.057   9.193
 1805POPC   GL225382  10.430  16.655   9.058
 1805POPC   C1A25383  10.446  17.062   8.764
 1805POPC   D2A25384  10.580  16.787   8.457
 1805POPC   C3A25385  10.456  16.908   8.054
 1805POPC   C4A25386  10.766  16.799   7.731
 1805POPC   C1B25387  10.125  16.677   8.734
 1805POPC   C2B25388  10.158  16.489   8.381
 1805POPC   C3B25389  10.341  16.424   8.041
 1805POPC   C4B25390  10.304  16.595   7.667
 1806POPC   NC325391  32.410  28.348   9.506
 1806POPC   PO425392  31.773  28.450   9.443
 1806POPC   GL125393  32.035  28.352   9.073
 1806POPC   GL225394  32.293  28.090   9.085
 1806POPC   C1A25395  32.140  28.531   8.658
 1806POPC   D2A25396  31.976  28.535   8.251
 1806POPC   C3A25397  32.201  28.468   7.895
 1806POPC   C4A25398  32.460  28.790   7.820
 1806POPC   C1B25399  32.199  28.023   8.656
 1806POPC   C2B25400  32.382  28.178   8.271
 1806POPC   C3B25401  32.467  28.031   7.833
 1806POPC   C4B25402  32.157  27.955   7.498
 1807POPC   NC325403  40.996  11.072   9.254
 1807POPC   PO425404  40.590  11.453   9.605
 1807POPC   GL125405  40.685  11.493   9.164
 1807POPC   GL225406  41.019  11.628   9.260
 1807POPC   C1A25407  40.674  11.328   8.697
 1807POPC   D2A25408  40.735  11.175   8.230
 1807POPC   C3A25409  40.583  11.328   7.805
 1807POPC   C4A25410  40.475  11.173   7.351
 1807POPC   C1B25411  41.000  11.730   8.805
 1807POPC   C2B25412  40.905  11.650   8.344
 1807POPC   C3B25413  40.950  11.709   7.876
 1807POPC   C4B25414  40.873  11.544   7.438
 1808POPC   NC325415  25.121  15.630   9.432
 1808POPC   PO425416  25.360  16.242   9.527
 1808POPC   GL125417  25.266  16.072   9.142
 1808POPC   GL225418  24.980  15.881   8.985
 1808POPC   C1A25419  25.441  15.977   8.755
 1808POPC   D2A25420  25.129  16.023   8.446
 1808POPC   C3A25421  25.289  16.011   8.054
 1808POPC   C4A25422  25.473  15.895   7.682
 1808POPC   C1B25423  25.098  15.549   8.677
 1808POPC   C2B25424  25.070  15.548   8.214
 1808POPC   C3B25425  24.991  15.691   7.800
 1808POPC   C4B25426  24.963  16.118   7.640
 1809POPC   NC325427  43.323  16.964   9.598
 1809POPC   PO425428  42.789  16.603   9.445
 1809POPC   GL125429  43.154  16.582   9.258
 1809POPC   GL225430  43.073  16.905   9.137
 1809POPC   C1A25431  43.331  16.577   8.852
 1809POPC   D2A25432  43.258  16.839   8.502
 1809POPC   C3A25433  43.250  16.617   8.142
 1809POPC   C4A25434  43.243  16.737   7.719
 1809POPC   C1B25435  42.806  16.725   8.817
 1809POPC   C2B25436  42.753  16.795   8.407
 1809POPC   C3B25437  42.906  16.958   8.039
 1809POPC   C4B25438  42.771  16.902   7.661
 1810POPC   NC325439  33.001  35.784   9.518
 1810POPC   PO425440  33.400  36.425   9.557
 1810POPC   GL125441  33.151  36.182   9.202
 1810POPC   GL225442  32.856  35.970   9.085
 1810POPC   C1A25443  33.218  36.062   8.737
 1810POPC   D2A25444  33.360  35.853   8.355
 1810POPC   C3A25445  33.230  36.114   8.040
 1810POPC   C4A25446  32.829  36.283   7.924
 1810POPC   C1B25447  32.818  35.744   8.731
 1810POPC   C2B25448  32.833  35.919   8.328
 1810POPC   C3B25449  32.831  35.767   7.921
 1810POPC   C4B25450  32.632  35.910   7.545
 1811POPC   NC325451  27.904  10.506   9.430
 1811POPC   PO425452  27.252  10.593   9.528
 1811POPC   GL125453  27.376  10.505   9.075
 1811POPC   GL225454  27.701  10.643   8.988
 1811POPC   C1A25455  27.532  10.315   8.640
 1811POPC   D2A25456  27.541  10.414   8.190
 1811POPC   C3A25457  27.656  10.173   7.860
 1811POPC   C4A25458  28.065  10.181   7.611
 1811POPC   C1B25459  27.917  11.016   8.873
 1811POPC   C2B25460  27.890  11.133   8.481
 1811POPC   C3B25461  27.897  10.825   8.183
 1811POPC   C4B25462  27.788  10.656   7.781
 1812POPC   NC325463  23.322  18.456   9.481
 1812POPC   PO425464  23.953  18.274   9.403
 1812POPC   GL125465  23.846  18.086   9.066
 1812POPC   GL225466  23.508  18.131   9.127
 1812POPC   C1A25467  23.771  18.050   8.677
 1812POPC   D2A25468  24.081  17.962   8.437
 1812POPC   C3A25469  23.986  18.086   8.061
 1812POPC   C4A25470  23.792  17.971   7.687
 1812POPC   C1B25471  23.340  18.315   8.761
 1812POPC   C2B25472  23.558  18.450   8.368
 1812POPC   C3B25473  23.607  18.381   7.901
 1812POPC   C4B25474  23.493  18.321   7.426
 1813POPC   NC325475  17.803  37.218   9.440
 1813POPC   PO425476  17.246  36.726   9.509
 1813POPC   GL125477  17.494  36.795   9.159
 1813POPC   GL225478  17.414  37.128   9.117
 1813POPC   C1A25479  17.482  36.786   8.713
 1813POPC   D2A25480  17.685  36.919   8.350
 1813POPC   C3A25481  17.513  36.687   8.056
 1813POPC   C4A25482  17.590  36.839   7.737
 1813POPC   C1B25483  17.691  37.259   8.764
 1813POPC   C2B25484  17.715  37.424   8.333
 1813POPC   C3B25485  17.645  37.303   7.915
 1813POPC   C4B25486  17.866  37.243   7.533
 1814POPC   NC325487  19.878   3.976   9.479
 1814POPC   PO425488  20.065   4.652   9.470
 1814POPC   GL125489  20.164   4.309   9.189
 1814POPC   GL225490  19.791   4.241   9.056
 1814POPC   C1A25491  20.206   4.181   8.744
 1814POPC   D2A25492  19.908   4.198   8.395
 1814POPC   C3A25493  19.950   4.437   8.036
 1814POPC   C4A25494  19.655   4.542   7.752
 1814POPC   C1B25495  19.637   3.936   8.746
 1814POPC   C2B25496  19.678   3.734   8.344
 1814POPC   C3B25497  19.685   3.967   7.968
 1814POPC   C4B25498  19.897   4.072   7.640
 1815POPC   NC325499  15.329  37.986   9.536
 1815POPC   PO425500  14.886  37.525   9.565
 1815POPC   GL125501  15.200  37.590   9.215
 1815POPC   GL225502  15.361  37.297   9.066
 1815POPC   C1A25503  15.173  37.644   8.751
 1815POPC   D2A25504  15.328  37.730   8.323
 1815POPC   C3A25505  15.038  37.843   7.961
 1815POPC   C4A25506  15.136  37.791   7.517
 1815POPC   C1B25507  15.512  37.100   8.690
 1815POPC   C2B25508  15.500  37.207   8.246
 1815POPC   C3B25509  15.387  37.461   7.877
 1815POPC   C4B25510  15.498  37.455   7.427
 1816POPC   NC325511  33.860  40.562   9.627
 1816POPC   PO425512  33.566  41.184   9.655
 1816POPC   GL125513  33.590  40.906   9.279
 1816POPC   GL225514  33.595  40.537   9.208
 1816POPC   C1A25515  33.795  40.866   8.864
 1816POPC   D2A25516  33.921  41.120   8.523
 1816POPC   C3A25517  34.128  40.966   8.189
 1816POPC   C4A25518  33.856  40.994   7.802
 1816POPC   C1B25519  33.536  40.322   8.804
 1816POPC   C2B25520  33.700  40.543   8.470
 1816POPC   C3B25521  33.870  40.554   8.094
 1816POPC   C4B25522  33.674  40.474   7.767
 1817POPC   NC325523  33.268  41.546   9.625
 1817POPC   PO425524  33.818  41.908   9.513
 1817POPC   GL125525  33.587  41.681   9.220
 1817POPC   GL225526  33.389  41.957   9.145
 1817POPC   C1A25527  33.750  41.488   8.838
 1817POPC   D2A25528  34.025  41.629   8.486
 1817POPC   C3A25529  34.030  41.442   8.086
 1817POPC   C4A25530  34.044  41.471   7.643
 1817POPC   C1B25531  33.334  41.769   8.722
 1817POPC   C2B25532  33.474  41.687   8.274
 1817POPC   C3B25533  33.728  41.810   7.897
 1817POPC   C4B25534  33.665  41.723   7.422
 1818POPC   NC325535  30.641  25.821   9.328
 1818POPC   PO425536  30.510  25.163   9.553
 1818POPC   GL125537  30.669  25.192   9.122
 1818POPC   GL225538  30.893  25.474   9.043
 1818POPC   C1A25539  30.519  25.405   8.743
 1818POPC   D2A25540  30.716  25.377   8.369
 1818POPC   C3A25541  30.527  25.431   7.973
 1818POPC   C4A25542  30.488  25.208   7.582
 1818POPC   C1B25543  31.097  25.161   8.785
 1818POPC   C2B25544  31.086  24.981   8.405
 1818POPC   C3B25545  30.839  24.973   8.056
 1818POPC   C4B25546  30.963  25.045   7.665
 1819POPC   NC325547   8.101  20.881   9.795
 1819POPC   PO425548   8.610  20.490   9.460
 1819POPC   GL125549   8.373  20.504   9.133
 1819POPC   GL225550   8.217  20.821   9.261
 1819POPC   C1A25551   8.220  20.321   8.755
 1819POPC   D2A25552   7.939  20.485   8.457
 1819POPC   C3A25553   8.090  20.427   8.061
 1819POPC   C4A25554   8.262  20.189   7.729
 1819POPC   C1B25555   8.156  20.827   8.803
 1819POPC   C2B25556   8.311  20.886   8.387
 1819POPC   C3B25557   8.188  20.941   7.982
 1819POPC   C4B25558   8.088  20.690   7.620
 1820POPC   NC325559  17.999  18.318   9.500
 1820POPC   PO425560  17.494  17.962   9.603
 1820POPC   GL125561  17.504  18.158   9.215
 1820POPC   GL225562  17.486  17.858   9.072
 1820POPC   C1A25563  17.517  18.316   8.778
 1820POPC   D2A25564  17.381  18.215   8.335
 1820POPC   C3A25565  17.621  18.390   7.963
 1820POPC   C4A25566  17.709  18.773   7.684
 1820POPC   C1B25567  17.294  17.858   8.715
 1820POPC   C2B25568  17.436  17.681   8.350
 1820POPC   C3B25569  17.437  17.860   7.930
 1820POPC   C4B25570  17.145  18.197   7.865
 1821POPC   NC325571   2.370   0.672   9.480
 1821POPC   PO425572   1.799   0.931   9.778
 1821POPC   GL125573   1.873   0.624   9.369
 1821POPC   GL225574   1.876   0.866   9.148
 1821POPC   C1A25575   2.114   0.485   8.902
 1821POPC   D2A25576   2.304   0.426   8.415
 1821POPC   C3A25577   2.173   0.240   7.955
 1821POPC   C4A25578   2.113   0.473   7.534
 1821POPC   C1B25579   1.757   0.944   8.757
 1821POPC   C2B25580   1.913   0.834   8.361
 1821POPC   C3B25581   2.179   0.767   8.013
 1821POPC   C4B25582   2.089   0.959   7.637
 1822POPC   NC325583   6.424   2.652   9.365
 1822POPC   PO425584   6.942   2.995   9.388
 1822POPC   GL125585   6.783   2.802   9.014
 1822POPC   GL225586   6.816   2.426   8.991
 1822POPC   C1A25587   6.896   2.709   8.561
 1822POPC   D2A25588   6.637   2.514   8.214
 1822POPC   C3A25589   6.724   2.731   7.890
 1822POPC   C4A25590   6.755   3.160   7.921
 1822POPC   C1B25591   6.482   2.429   8.692
 1822POPC   C2B25592   6.160   2.372   8.367
 1822POPC   C3B25593   6.082   2.686   8.007
 1822POPC   C4B25594   6.312   2.705   7.585
 1823POPC   NC325595  10.285  42.022   9.583
 1823POPC   PO425596  10.471  41.364   9.647
 1823POPC   GL125597  10.500  41.302   9.208
 1823POPC   GL225598  10.437  41.673   9.165
 1823POPC   C1A25599  10.356  41.341   8.766
 1823POPC   D2A25600  10.585  41.461   8.399
 1823POPC   C3A25601  10.461  41.626   8.009
 1823POPC   C4A25602  10.426  41.687   7.535
 1823POPC   C1B25603  10.461  41.844   8.736
 1823POPC   C2B25604  10.243  42.020   8.359
 1823POPC   C3B25605  10.355  42.112   7.912
 1823POPC   C4B25606  10.767  42.021   7.781
 1824POPC   NC325607  25.364  44.386   9.480
 1824POPC   PO425608  24.879  44.839   9.610
 1824POPC   GL125609  25.042  44.926   9.121
 1824POPC   GL225610  25.281  44.674   9.044
 1824POPC   C1A25611  25.057  44.915   8.642
 1824POPC   D2A25612  25.420  44.822   8.354
 1824POPC   C3A25613  25.275  44.678   7.967
 1824POPC   C4A25614  24.855  44.603   7.870
 1824POPC   C1B25615  25.031  44.424   8.789
 1824POPC   C2B25616  25.073  44.403   8.339
 1824POPC   C3B25617  25.165  44.184   7.924
 1824POPC   C4B25618  24.883  44.184   7.543
 1825POPC   NC325619  26.668  34.889   9.799
 1825POPC   PO425620  26.784  35.521   9.535
 1825POPC   GL125621  26.800  35.441   9.126
 1825POPC   GL225622  27.059  35.184   9.222
 1825POPC   C1A25623  26.725  35.666   8.726
 1825POPC   D2A25624  26.665  35.456   8.313
 1825POPC   C3A25625  26.818  35.522   7.878
 1825POPC   C4A25626  26.817  35.725   7.464
 1825POPC   C1B25627  27.273  35.403   8.901
 1825POPC   C2B25628  27.155  35.498   8.515
 1825POPC   C3B25629  27.306  35.494   8.123
 1825POPC   C4B25630  27.253  35.264   7.752
 1826POPC   NC325631   4.629   4.338   9.459
 1826POPC   PO425632   3.996   4.067   9.735
 1826POPC   GL125633   4.194   4.133   9.253
 1826POPC   GL225634   4.528   4.067   9.052
 1826POPC   C1A25635   4.105   4.068   8.782
 1826POPC   D2A25636   4.050   4.000   8.336
 1826POPC   C3A25637   4.421   3.996   8.097
 1826POPC   C4A25638   4.470   4.066   7.681
 1826POPC   C1B25639   4.443   4.437   8.761
 1826POPC   C2B25640   4.303   4.464   8.349
 1826POPC   C3B25641   4.448   4.550   7.947
 1826POPC   C4B25642   4.432   4.626   7.513
 1827POPC   NC325643  18.140  27.554   9.461
 1827POPC   PO425644  18.812  27.730   9.344
 1827POPC   GL125645  18.559  27.521   9.115
 1827POPC   GL225646  18.320  27.785   9.038
 1827POPC   C1A25647  18.615  27.565   8.687
 1827POPC   D2A25648  18.345  27.663   8.374
 1827POPC   C3A25649  18.563  27.731   8.014
 1827POPC   C4A25650  18.465  27.727   7.605
 1827POPC   C1B25651  18.093  27.463   8.791
 1827POPC   C2B25652  17.937  27.359   8.350
 1827POPC   C3B25653  18.020  27.513   7.898
 1827POPC   C4B25654  17.926  27.340   7.460
 1828POPC   NC325655  37.005  42.162   9.655
 1828POPC   PO425656  36.380  42.278   9.647
 1828POPC   GL125657  36.670  42.294   9.295
 1828POPC   GL225658  36.855  42.006   9.190
 1828POPC   C1A25659  36.720  42.394   8.859
 1828POPC   D2A25660  36.930  42.353   8.472
 1828POPC   C3A25661  36.788  42.505   8.071
 1828POPC   C4A25662  36.443  42.397   7.842
 1828POPC   C1B25663  37.222  41.957   8.903
 1828POPC   C2B25664  37.278  41.999   8.450
 1828POPC   C3B25665  37.041  42.067   8.043
 1828POPC   C4B25666  37.136  41.910   7.633
 1829POPC   NC325667  34.070  11.425   9.581
 1829POPC   PO425668  33.438  11.433   9.462
 1829POPC   GL125669  33.621  11.185   9.117
 1829POPC   GL225670  33.970  11.151   9.142
 1829POPC   C1A25671  33.666  11.136   8.680
 1829POPC   D2A25672  33.489  11.309   8.321
 1829POPC   C3A25673  33.684  11.228   7.931
 1829POPC   C4A25674  33.573  11.325   7.503
 1829POPC   C1B25675  34.063  11.438   8.791
 1829POPC   C2B25676  33.993  11.558   8.401
 1829POPC   C3B25677  34.195  11.623   8.027
 1829POPC   C4B25678  34.129  11.382   7.686
 1830POPC   NC325679  26.808   7.202   9.476
 1830POPC   PO425680  27.151   7.853   9.459
 1830POPC   GL125681  26.891   7.600   9.129
 1830POPC   GL225682  26.674   7.282   9.011
 1830POPC   C1A25683  26.999   7.514   8.686
 1830POPC   D2A25684  27.037   7.269   8.304
 1830POPC   C3A25685  26.980   7.479   7.901
 1830POPC   C4A25686  27.130   7.703   7.518
 1830POPC   C1B25687  26.584   7.205   8.590
 1830POPC   C2B25688  26.523   7.374   8.172
 1830POPC   C3B25689  26.414   7.248   7.761
 1830POPC   C4B25690  26.326   7.140   7.283
 1831POPC   NC325691  34.416  42.836   9.538
 1831POPC   PO425692  34.916  43.265   9.474
 1831POPC   GL125693  34.747  42.954   9.162
 1831POPC   GL225694  34.442  43.115   9.134
 1831POPC   C1A25695  34.543  42.820   8.738
 1831POPC   D2A25696  34.550  42.640   8.301
 1831POPC   C3A25697  34.578  42.974   7.982
 1831POPC   C4A25698  34.302  43.161   7.689
 1831POPC   C1B25699  34.281  43.284   8.789
 1831POPC   C2B25700  34.310  43.204   8.369
 1831POPC   C3B25701  34.343  43.508   8.067
 1831POPC   C4B25702  34.138  43.643   7.710
 1832POPC   NC325703  33.331  37.725   9.269
 1832POPC   PO425704  34.015  37.633   9.491
 1832POPC   GL125705  33.830  37.692   9.127
 1832POPC   GL225706  33.723  38.028   9.086
 1832POPC   C1A25707  33.904  37.627   8.714
 1832POPC   D2A25708  34.024  37.412   8.335
 1832POPC   C3A25709  34.025  37.642   7.936
 1832POPC   C4A25710  34.132  37.537   7.495
 1832POPC   C1B25711  33.511  37.956   8.660
 1832POPC   C2B25712  33.673  37.817   8.282
 1832POPC   C3B25713  33.516  37.837   7.897
 1832POPC   C4B25714  33.230  38.098   7.689
 1833POPC   NC325715   2.524  21.688   9.811
 1833POPC   PO425716   2.837  21.130   9.669
 1833POPC   GL125717   2.770  21.232   9.220
 1833POPC   GL225718   2.419  21.173   9.155
 1833POPC   C1A25719   2.902  21.459   8.822
 1833POPC   D2A25720   2.781  21.732   8.465
 1833POPC   C3A25721   2.983  21.676   8.084
 1833POPC   C4A25722   2.833  21.374   7.772
 1833POPC   C1B25723   2.412  21.341   8.764
 1833POPC   C2B25724   2.615  21.246   8.362
 1833POPC   C3B25725   3.016  21.175   8.197
 1833POPC   C4B25726   3.217  21.016   7.802
 1834POPC   NC325727   7.617  29.309   9.501
 1834POPC   PO425728   6.986  29.474   9.592
 1834POPC   GL125729   7.244  29.285   9.098
 1834POPC   GL225730   7.590  29.338   9.007
 1834POPC   C1A25731   7.465  28.919   8.785
 1834POPC   D2A25732   7.595  29.056   8.355
 1834POPC   C3A25733   7.499  28.871   7.924
 1834POPC   C4A25734   7.143  28.914   7.592
 1834POPC   C1B25735   7.620  29.540   8.636
 1834POPC   C2B25736   7.860  29.499   8.285
 1834POPC   C3B25737   7.688  29.594   7.931
 1834POPC   C4B25738   7.410  29.328   7.693
 1835POPC   NC325739  33.714  25.095   9.470
 1835POPC   PO425740  34.118  25.592   9.194
 1835POPC   GL125741  33.898  25.312   9.040
 1835POPC   GL225742  33.997  24.978   9.049
 1835POPC   C1A25743  33.567  25.277   8.782
 1835POPC   D2A25744  33.379  25.018   8.508
 1835POPC   C3A25745  33.551  25.127   8.137
 1835POPC   C4A25746  33.741  25.366   7.815
 1835POPC   C1B25747  34.112  25.084   8.627
 1835POPC   C2B25748  34.071  25.137   8.181
 1835POPC   C3B25749  33.910  24.892   7.844
 1835POPC   C4B25750  34.069  24.759   7.418
 1836POPC   NC325751  35.874  39.829   9.514
 1836POPC   PO425752  36.530  39.746   9.304
 1836POPC   GL125753  36.419  39.926   8.975
 1836POPC   GL225754  36.180  40.106   9.176
 1836POPC   C1A25755  36.362  39.900   8.523
 1836POPC   D2A25756  36.032  39.696   8.291
 1836POPC   C3A25757  36.111  39.703   7.850
 1836POPC   C4A25758  36.450  39.916   7.593
 1836POPC   C1B25759  36.088  40.261   8.789
 1836POPC   C2B25760  35.977  40.222   8.401
 1836POPC   C3B25761  36.221  40.155   8.058
 1836POPC   C4B25762  36.012  40.186   7.672
 1837POPC   NC325763  16.712  38.853   9.393
 1837POPC   PO425764  17.044  38.319   9.312
 1837POPC   GL125765  16.615  38.351   9.077
 1837POPC   GL225766  16.353  38.648   9.083
 1837POPC   C1A25767  16.387  38.358   8.661
 1837POPC   D2A25768  16.381  38.629   8.293
 1837POPC   C3A25769  16.640  38.415   8.045
 1837POPC   C4A25770  16.754  38.317   7.664
 1837POPC   C1B25771  16.697  38.752   8.742
 1837POPC   C2B25772  16.914  38.754   8.337
 1837POPC   C3B25773  17.030  38.708   7.880
 1837POPC   C4B25774  16.906  38.794   7.416
 1838POPC   NC325775  32.855  16.055   9.417
 1838POPC   PO425776  33.385  16.199   9.822
 1838POPC   GL125777  33.388  15.970   9.289
 1838POPC   GL225778  33.212  15.714   9.228
 1838POPC   C1A25779  33.245  16.107   8.779
 1838POPC   D2A25780  33.341  16.245   8.331
 1838POPC   C3A25781  33.134  16.356   7.937
 1838POPC   C4A25782  33.245  16.224   7.482
 1838POPC   C1B25783  33.123  15.603   8.814
 1838POPC   C2B25784  32.896  15.851   8.485
 1838POPC   C3B25785  32.844  15.934   8.047
 1838POPC   C4B25786  33.188  15.849   7.809
 1839POPC   NC325787  24.127  19.731   9.530
 1839POPC   PO425788  24.772  19.602   9.490
 1839POPC   GL125789  24.685  19.719   9.099
 1839POPC   GL225790  24.330  19.810   9.080
 1839POPC   C1A25791  24.888  19.689   8.719
 1839POPC   D2A25792  24.695  19.584   8.369
 1839POPC   C3A25793  24.923  19.695   8.066
 1839POPC   C4A25794  24.758  19.758   7.698
 1839POPC   C1B25795  24.368  19.494   8.750
 1839POPC   C2B25796  24.238  19.322   8.379
 1839POPC   C3B25797  24.282  19.557   8.038
 1839POPC   C4B25798  24.279  19.900   7.811
 1840POPC   NC325799  17.793  30.890   9.859
 1840POPC   PO425800  18.413  30.841   9.656
 1840POPC   GL125801  18.146  30.847   9.224
 1840POPC   GL225802  18.021  30.482   9.073
 1840POPC   C1A25803  18.126  30.883   8.767
 1840POPC   D2A25804  17.971  31.059   8.400
 1840POPC   C3A25805  18.092  30.922   7.995
 1840POPC   C4A25806  18.059  31.168   7.610
 1840POPC   C1B25807  18.225  30.356   8.721
 1840POPC   C2B25808  18.319  30.577   8.344
 1840POPC   C3B25809  18.482  30.528   7.945
 1840POPC   C4B25810  18.513  30.916   7.736
 1841POPC   NC325811   6.724  30.604   9.715
 1841POPC   PO425812   6.219  30.991   9.506
 1841POPC   GL125813   6.394  30.620   9.265
 1841POPC   GL225814   6.184  30.287   9.205
 1841POPC   C1A25815   6.786  30.574   9.004
 1841POPC   D2A25816   7.036  30.462   8.618
 1841POPC   C3A25817   6.924  30.704   8.238
 1841POPC   C4A25818   6.806  30.654   7.797
 1841POPC   C1B25819   6.329  30.423   8.798
 1841POPC   C2B25820   6.470  30.585   8.424
 1841POPC   C3B25821   6.335  30.708   7.997
 1841POPC   C4B25822   6.434  30.935   7.592
 1842POPC   NC325823   5.250  17.170   9.508
 1842POPC   PO425824   4.560  17.400   9.590
 1842POPC   GL125825   4.860  17.353   9.214
 1842POPC   GL225826   5.021  17.682   9.135
 1842POPC   C1A25827   5.051  17.308   8.776
 1842POPC   D2A25828   5.419  17.321   8.453
 1842POPC   C3A25829   5.265  17.288   7.991
 1842POPC   C4A25830   4.893  17.502   7.824
 1842POPC   C1B25831   5.207  17.794   8.747
 1842POPC   C2B25832   5.078  17.681   8.321
 1842POPC   C3B25833   5.281  17.798   7.944
 1842POPC   C4B25834   5.106  17.909   7.563
 1843POPC   NC325835  19.803  44.225   9.594
 1843POPC   PO425836  20.140  43.675   9.603
 1843POPC   GL125837  19.779  43.715   9.295
 1843POPC   GL225838  19.897  43.998   9.148
 1843POPC   C1A25839  19.780  43.669   8.798
 1843POPC   D2A25840  20.028  43.790   8.407
 1843POPC   C3A25841  19.785  43.700   8.007
 1843POPC   C4A25842  19.661  43.660   7.549
 1843POPC   C1B25843  20.065  44.158   8.772
 1843POPC   C2B25844  19.930  44.337   8.394
 1843POPC   C3B25845  20.080  44.161   8.031
 1843POPC   C4B25846  19.925  44.062   7.658
 1844POPC   NC325847  43.836  18.896   9.768
 1844POPC   PO425848  44.257  19.275   9.542
 1844POPC   GL125849  44.062  18.906   9.272
 1844POPC   GL225850  44.306  18.713   9.056
 1844POPC   C1A25851  43.877  18.924   8.820
 1844POPC   D2A25852  43.997  19.027   8.375
 1844POPC   C3A25853  43.781  19.314   8.017
 1844POPC   C4A25854  43.631  19.094   7.634
 1844POPC   C1B25855  44.181  18.547   8.638
 1844POPC   C2B25856  44.079  18.540   8.179
 1844POPC   C3B25857  44.006  18.872   7.891
 1844POPC   C4B25858  44.285  19.229   7.990
 1845POPC   NC325859   3.539  36.239   9.677
 1845POPC   PO425860   3.293  35.665   9.583
 1845POPC   GL125861   3.418  35.944   9.171
 1845POPC   GL225862   3.549  36.328   9.165
 1845POPC   C1A25863   3.403  36.032   8.676
 1845POPC   D2A25864   3.456  35.858   8.221
 1845POPC   C3A25865   3.457  36.177   7.877
 1845POPC   C4A25866   3.135  36.454   7.753
 1845POPC   C1B25867   3.805  36.343   8.765
 1845POPC   C2B25868   3.707  36.295   8.328
 1845POPC   C3B25869   3.927  36.390   7.934
 1845POPC   C4B25870   3.811  36.265   7.490
 1846POPC   NC325871  17.872  42.066   9.190
 1846POPC   PO425872  18.300  42.325   9.614
 1846POPC   GL125873  18.276  42.374   9.153
 1846POPC   GL225874  18.246  42.702   9.024
 1846POPC   C1A25875  18.269  42.270   8.683
 1846POPC   D2A25876  18.474  42.335   8.283
 1846POPC   C3A25877  18.281  42.189   7.926
 1846POPC   C4A25878  17.994  41.867   7.886
 1846POPC   C1B25879  17.910  42.626   8.726
 1846POPC   C2B25880  17.912  42.492   8.294
 1846POPC   C3B25881  17.982  42.582   7.871
 1846POPC   C4B25882  18.235  42.797   7.514
 1847POPC   NC325883   4.390  35.784   9.414
 1847POPC   PO425884   4.035  35.203   9.305
 1847POPC   GL125885   4.229  35.471   8.989
 1847POPC   GL225886   4.595  35.552   9.016
 1847POPC   C1A25887   4.113  35.367   8.575
 1847POPC   D2A25888   3.976  35.114   8.238
 1847POPC   C3A25889   4.258  35.146   7.902
 1847POPC   C4A25890   4.253  35.089   7.470
 1847POPC   C1B25891   4.639  35.466   8.582
 1847POPC   C2B25892   4.454  35.529   8.224
 1847POPC   C3B25893   4.542  35.577   7.827
 1847POPC   C4B25894   4.233  35.590   7.574
 1848POPC   NC325895  13.702  16.464   9.825
 1848POPC   PO425896  13.693  15.880   9.508
 1848POPC   GL125897  13.534  15.866   9.141
 1848POPC   GL225898  13.349  15.587   9.166
 1848POPC   C1A25899  13.687  16.006   8.747
 1848POPC   D2A25900  13.580  16.215   8.365
 1848POPC   C3A25901  13.737  15.980   8.025
 1848POPC   C4A25902  13.590  15.667   7.754
 1848POPC   C1B25903  13.266  15.619   8.756
 1848POPC   C2B25904  13.461  15.701   8.370
 1848POPC   C3B25905  13.220  15.508   8.073
 1848POPC   C4B25906  12.978  15.644   7.734
 1849POPC   NC325907  37.907  36.653   9.459
 1849POPC   PO425908  37.461  37.176   9.367
 1849POPC   GL125909  37.696  36.955   9.130
 1849POPC   GL225910  37.524  36.618   9.093
 1849POPC   C1A25911  37.922  37.002   8.802
 1849POPC   D2A25912  38.022  37.128   8.428
 1849POPC   C3A25913  38.014  36.849   8.127
 1849POPC   C4A25914  37.732  37.003   7.834
 1849POPC   C1B25915  37.404  36.897   8.739
 1849POPC   C2B25916  37.498  37.030   8.339
 1849POPC   C3B25917  37.256  36.989   7.993
 1849POPC   C4B25918  37.359  36.714   7.673
 1850POPC   NC325919  24.928  41.952   9.341
 1850POPC   PO425920  25.383  41.526   9.527
 1850POPC   GL125921  25.404  41.647   9.113
 1850POPC   GL225922  25.410  42.014   9.148
 1850POPC   C1A25923  25.386  41.437   8.711
 1850POPC   D2A25924  25.629  41.432   8.327
 1850POPC   C3A25925  25.415  41.305   7.975
 1850POPC   C4A25926  25.044  41.515   7.794
 1850POPC   C1B25927  25.184  41.928   8.739
 1850POPC   C2B25928  25.198  41.728   8.326
 1850POPC   C3B25929  25.438  41.821   7.985
 1850POPC   C4B25930  25.202  41.987   7.656
 1851POPC   NC325931   2.969   0.251   9.563
 1851POPC   PO425932   2.286   0.111   9.468
 1851POPC   GL125933   2.635   0.359   9.186
 1851POPC   GL225934   3.027   0.498   9.120
 1851POPC   C1A25935   2.619   0.607   8.826
 1851POPC   D2A25936   2.848   0.548   8.489
 1851POPC   C3A25937   2.798   0.704   8.098
 1851POPC   C4A25938   2.579   0.476   7.779
 1851POPC   C1B25939   3.260   0.357   8.749
 1851POPC   C2B25940   3.297   0.450   8.305
 1851POPC   C3B25941   3.069   0.324   7.901
 1851POPC   C4B25942   3.014   0.640   7.553
 1852POPC   NC325943   5.308  31.572   9.279
 1852POPC   PO425944   5.884  31.779   9.602
 1852POPC   GL125945   5.896  31.667   9.185
 1852POPC   GL225946   5.936  31.303   9.143
 1852POPC   C1A25947   5.749  31.658   8.759
 1852POPC   D2A25948   5.711  31.279   8.467
 1852POPC   C3A25949   5.668  31.360   8.014
 1852POPC   C4A25950   5.863  31.675   7.763
 1852POPC   C1B25951   6.184  31.389   8.743
 1852POPC   C2B25952   6.293  31.450   8.287
 1852POPC   C3B25953   6.162  31.230   7.914
 1852POPC   C4B25954   6.071  31.312   7.454
 1853POPC   NC325955  36.955  21.867   9.402
 1853POPC   PO425956  36.483  22.343   9.661
 1853POPC   GL125957  36.620  22.404   9.203
 1853POPC   GL225958  36.992  22.350   9.119
 1853POPC   C1A25959  36.657  22.324   8.756
 1853POPC   D2A25960  36.526  21.987   8.524
 1853POPC   C3A25961  36.618  22.146   8.146
 1853POPC   C4A25962  36.857  22.006   7.825
 1853POPC   C1B25963  37.120  22.108   8.735
 1853POPC   C2B25964  37.132  22.150   8.286
 1853POPC   C3B25965  37.395  22.123   7.921
 1853POPC   C4B25966  37.220  22.191   7.536
 1854POPC   NC325967  39.898   5.667   9.556
 1854POPC   PO425968  39.993   6.280   9.609
 1854POPC   GL125969  39.864   6.076   9.244
 1854POPC   GL225970  40.167   5.900   9.146
 1854POPC   C1A25971  39.871   6.101   8.799
 1854POPC   D2A25972  39.839   5.785   8.498
 1854POPC   C3A25973  39.908   5.939   8.091
 1854POPC   C4A25974  40.081   5.912   7.677
 1854POPC   C1B25975  40.278   5.678   8.765
 1854POPC   C2B25976  40.276   5.626   8.317
 1854POPC   C3B25977  40.344   5.543   7.894
 1854POPC   C4B25978  40.383   5.546   7.426
 1855POPC   NC325979  10.735  14.818   9.544
 1855POPC   PO425980  10.241  15.324   9.565
 1855POPC   GL125981  10.402  15.099   9.259
 1855POPC   GL225982  10.723  15.273   9.253
 1855POPC   C1A25983  10.295  14.882   8.906
 1855POPC   D2A25984  10.387  15.099   8.564
 1855POPC   C3A25985  10.513  15.004   8.147
 1855POPC   C4A25986  10.425  14.887   7.739
 1855POPC   C1B25987  10.799  15.001   8.883
 1855POPC   C2B25988  10.928  15.054   8.448
 1855POPC   C3B25989  10.998  15.259   8.062
 1855POPC   C4B25990  10.843  15.189   7.671
 1856POPC   NC325991  43.076  22.606   9.716
 1856POPC   PO425992  43.123  23.229   9.599
 1856POPC   GL125993  43.296  23.033   9.194
 1856POPC   GL225994  43.491  22.726   9.160
 1856POPC   C1A25995  43.160  23.115   8.765
 1856POPC   D2A25996  43.023  23.077   8.301
 1856POPC   C3A25997  43.133  22.979   7.839
 1856POPC   C4A25998  42.879  22.932   7.440
 1856POPC   C1B25999  43.419  22.656   8.721
 1856POPC   C2B26000  43.318  22.613   8.268
 1856POPC   C3B26001  43.311  22.501   7.795
 1856POPC   C4B26002  43.348  22.732   7.398
 1857POPC   NC326003  43.367  34.732   9.652
 1857POPC   PO426004  42.841  34.301   9.655
 1857POPC   GL126005  43.043  34.518   9.286
 1857POPC   GL226006  42.975  34.844   9.193
 1857POPC   C1A26007  43.152  34.548   8.823
 1857POPC   D2A26008  43.166  34.412   8.396
 1857POPC   C3A26009  43.191  34.680   8.066
 1857POPC   C4A26010  43.078  34.475   7.754
 1857POPC   C1B26011  42.773  34.944   8.796
 1857POPC   C2B26012  42.566  34.983   8.353
 1857POPC   C3B26013  42.632  34.976   7.905
 1857POPC   C4B26014  42.984  34.967   7.628
 1858POPC   NC326015  11.068   9.324   9.283
 1858POPC   PO426016  11.536   8.913   9.534
 1858POPC   GL126017  11.375   8.932   9.150
 1858POPC   GL226018  11.048   8.799   9.144
 1858POPC   C1A26019  11.413   9.050   8.742
 1858POPC   D2A26020  11.233   8.952   8.363
 1858POPC   C3A26021  11.093   9.215   8.096
 1858POPC   C4A26022  11.436   9.259   7.841
 1858POPC   C1B26023  10.900   8.946   8.749
 1858POPC   C2B26024  10.700   8.785   8.403
 1858POPC   C3B26025  10.856   8.736   8.006
 1858POPC   C4B26026  11.068   8.926   7.660
 1859POPC   NC326027  19.620  23.704   9.533
 1859POPC   PO426028  19.879  23.095   9.627
 1859POPC   GL126029  19.913  23.420   9.228
 1859POPC   GL226030  20.035  23.778   9.181
 1859POPC   C1A26031  19.679  23.672   8.863
 1859POPC   D2A26032  19.724  23.826   8.450
 1859POPC   C3A26033  19.918  23.508   8.230
 1859POPC   C4A26034  19.999  23.522   7.814
 1859POPC   C1B26035  20.204  23.694   8.775
 1859POPC   C2B26036  20.341  23.788   8.350
 1859POPC   C3B26037  20.060  23.992   8.068
 1859POPC   C4B26038  19.911  24.135   7.684
 1860POPC   NC326039  34.292  17.123   9.630
 1860POPC   PO426040  33.897  17.707   9.492
 1860POPC   GL126041  33.765  17.494   9.157
 1860POPC   GL226042  33.817  17.140   9.303
 1860POPC   C1A26043  33.922  17.544   8.777
 1860POPC   D2A26044  33.915  17.622   8.365
 1860POPC   C3A26045  33.666  17.734   8.057
 1860POPC   C4A26046  33.938  17.527   7.816
 1860POPC   C1B26047  33.705  17.040   8.882
 1860POPC   C2B26048  33.812  17.122   8.486
 1860POPC   C3B26049  33.695  17.174   8.097
 1860POPC   C4B26050  33.654  17.122   7.681
 1861POPC   NC326051   8.730  32.213   9.485
 1861POPC   PO426052   9.434  32.255   9.559
 1861POPC   GL126053   9.172  32.270   9.162
 1861POPC   GL226054   8.961  31.990   9.096
 1861POPC   C1A26055   9.063  32.415   8.736
 1861POPC   D2A26056   9.185  32.307   8.310
 1861POPC   C3A26057   8.943  32.430   7.923
 1861POPC   C4A26058   9.170  32.558   7.552
 1861POPC   C1B26059   8.895  31.934   8.669
 1861POPC   C2B26060   8.949  31.842   8.238
 1861POPC   C3B26061   9.073  31.945   7.817
 1861POPC   C4B26062   8.855  32.148   7.462
 1862POPC   NC326063  28.516  30.073   9.666
 1862POPC   PO426064  27.897  29.933   9.674
 1862POPC   GL126065  28.196  29.961   9.264
 1862POPC   GL226066  28.561  30.071   9.179
 1862POPC   C1A26067  28.237  29.889   8.806
 1862POPC   D2A26068  28.043  29.848   8.377
 1862POPC   C3A26069  28.209  29.709   7.966
 1862POPC   C4A26070  28.582  29.840   7.725
 1862POPC   C1B26071  28.750  30.067   8.788
 1862POPC   C2B26072  28.560  29.968   8.395
 1862POPC   C3B26073  28.434  30.183   8.046
 1862POPC   C4B26074  28.684  30.328   7.710
 1863POPC   NC326075  20.528  34.982   9.846
 1863POPC   PO426076  20.646  34.306   9.671
 1863POPC   GL126077  20.640  34.407   9.149
 1863POPC   GL226078  20.799  34.716   8.992
 1863POPC   C1A26079  20.553  34.300   8.744
 1863POPC   D2A26080  20.651  34.209   8.317
 1863POPC   C3A26081  20.446  34.394   7.955
 1863POPC   C4A26082  20.570  34.518   7.516
 1863POPC   C1B26083  20.448  34.821   8.741
 1863POPC   C2B26084  20.403  34.779   8.296
 1863POPC   C3B26085  20.566  34.920   7.887
 1863POPC   C4B26086  20.495  35.002   7.385
 1864POPC   NC326087  27.169   3.672   9.498
 1864POPC   PO426088  26.789   3.135   9.562
 1864POPC   GL126089  26.971   3.302   9.200
 1864POPC   GL226090  26.722   3.590   9.211
 1864POPC   C1A26091  26.948   3.501   8.770
 1864POPC   D2A26092  26.741   3.695   8.412
 1864POPC   C3A26093  26.782   3.426   8.039
 1864POPC   C4A26094  26.985   3.266   7.685
 1864POPC   C1B26095  26.414   3.650   8.846
 1864POPC   C2B26096  26.228   3.750   8.423
 1864POPC   C3B26097  26.422   3.770   7.994
 1864POPC   C4B26098  26.788   3.831   7.718
 1865POPC   NC326099  12.542  15.177   9.558
 1865POPC   PO426100  13.269  15.283   9.594
 1865POPC   GL126101  13.039  15.183   9.240
 1865POPC   GL226102  12.858  15.441   9.229
 1865POPC   C1A26103  13.035  15.147   8.785
 1865POPC   D2A26104  12.727  15.008   8.483
 1865POPC   C3A26105  12.842  15.161   8.076
 1865POPC   C4A26106  12.769  15.015   7.693
 1865POPC   C1B26107  12.738  15.560   8.856
 1865POPC   C2B26108  12.828  15.523   8.451
 1865POPC   C3B26109  12.464  15.460   8.199
 1865POPC   C4B26110  12.474  15.440   7.756
 1866POPC   NC326111   8.764   8.352   8.981
 1866POPC   PO426112   8.302   8.180   9.429
 1866POPC   GL126113   8.245   8.164   9.029
 1866POPC   GL226114   8.184   7.830   9.008
 1866POPC   C1A26115   8.050   8.285   8.650
 1866POPC   D2A26116   8.197   8.221   8.253
 1866POPC   C3A26117   7.970   8.072   7.904
 1866POPC   C4A26118   7.669   8.316   7.701
 1866POPC   C1B26119   8.247   7.820   8.598
 1866POPC   C2B26120   8.404   7.761   8.171
 1866POPC   C3B26121   8.486   8.062   7.860
 1866POPC   C4B26122   8.358   8.517   7.863
 1867POPC   NC326123  33.853  36.251   9.540
 1867POPC   PO426124  34.033  35.658   9.738
 1867POPC   GL126125  33.938  35.850   9.247
 1867POPC   GL226126  33.647  36.109   9.127
 1867POPC   C1A26127  34.014  36.064   8.818
 1867POPC   D2A26128  33.861  35.888   8.460
 1867POPC   C3A26129  33.790  36.087   8.084
 1867POPC   C4A26130  33.992  36.099   7.702
 1867POPC   C1B26131  33.554  36.422   8.870
 1867POPC   C2B26132  33.613  36.406   8.443
 1867POPC   C3B26133  33.589  36.566   8.025
 1867POPC   C4B26134  33.542  36.314   7.691
 1868POPC   NC326135  32.959  40.131   9.583
 1868POPC   PO426136  33.283  39.479   9.586
 1868POPC   GL126137  33.211  39.772   9.274
 1868POPC   GL226138  33.261  40.135   9.184
 1868POPC   C1A26139  33.013  39.811   8.884
 1868POPC   D2A26140  33.186  40.003   8.533
 1868POPC   C3A26141  33.020  39.814   8.171
 1868POPC   C4A26142  33.005  40.003   7.807
 1868POPC   C1B26143  32.962  40.337   8.926
 1868POPC   C2B26144  32.765  40.288   8.565
 1868POPC   C3B26145  32.910  40.329   8.185
 1868POPC   C4B26146  32.691  40.422   7.847
 1869POPC   NC326147   8.141  31.444   9.436
 1869POPC   PO426148   8.866  31.547   9.367
 1869POPC   GL126149   8.498  31.632   9.099
 1869POPC   GL226150   8.495  31.256   9.143
 1869POPC   C1A26151   8.098  31.789   8.852
 1869POPC   D2A26152   7.910  31.921   8.450
 1869POPC   C3A26153   8.116  31.767   8.097
 1869POPC   C4A26154   8.257  31.737   7.678
 1869POPC   C1B26155   8.238  31.299   8.791
 1869POPC   C2B26156   8.200  31.279   8.380
 1869POPC   C3B26157   8.162  31.252   7.969
 1869POPC   C4B26158   8.367  31.244   7.620
 1870POPC   NC326159  36.906  19.967   9.792
 1870POPC   PO426160  36.766  19.447   9.381
 1870POPC   GL126161  36.883  19.760   9.077
 1870POPC   GL226162  36.677  20.078   9.026
 1870POPC   C1A26163  37.033  19.751   8.653
 1870POPC   D2A26164  37.296  19.724   8.267
 1870POPC   C3A26165  37.047  19.678   7.910
 1870POPC   C4A26166  36.837  19.436   7.580
 1870POPC   C1B26167  36.672  20.132   8.591
 1870POPC   C2B26168  36.614  19.901   8.202
 1870POPC   C3B26169  36.662  19.948   7.735
 1870POPC   C4B26170  36.749  20.246   7.400
 1871POPC   NC326171   2.690   6.458   9.553
 1871POPC   PO426172   3.255   6.098   9.391
 1871POPC   GL126173   3.000   6.452   9.144
 1871POPC   GL226174   2.889   6.803   9.209
 1871POPC   C1A26175   2.613   6.538   8.863
 1871POPC   D2A26176   2.611   6.416   8.426
 1871POPC   C3A26177   2.985   6.461   8.162
 1871POPC   C4A26178   2.879   6.495   7.728
 1871POPC   C1B26179   2.788   7.026   8.849
 1871POPC   C2B26180   2.581   7.006   8.456
 1871POPC   C3B26181   2.733   6.890   8.088
 1871POPC   C4B26182   2.545   6.870   7.721
 1872POPC   NC326183   3.257  16.707   9.746
 1872POPC   PO426184   2.570  16.497   9.627
 1872POPC   GL126185   2.763  16.518   9.207
 1872POPC   GL226186   2.752  16.798   9.041
 1872POPC   C1A26187   3.001  16.441   8.796
 1872POPC   D2A26188   3.034  16.629   8.383
 1872POPC   C3A26189   2.844  16.408   8.023
 1872POPC   C4A26190   2.688  16.572   7.608
 1872POPC   C1B26191   2.510  16.960   8.704
 1872POPC   C2B26192   2.291  17.156   8.340
 1872POPC   C3B26193   2.319  17.096   7.921
 1872POPC   C4B26194   2.600  17.095   7.617
 1873POPC   NC326195  31.343  34.092   9.449
 1873POPC   PO426196  31.562  33.448   9.430
 1873POPC   GL126197  31.483  33.720   9.129
 1873POPC   GL226198  31.158  33.701   9.151
 1873POPC   C1A26199  31.515  33.941   8.765
 1873POPC   D2A26200  31.561  33.693   8.389
 1873POPC   C3A26201  31.467  33.969   8.085
 1873POPC   C4A26202  31.655  34.208   7.792
 1873POPC   C1B26203  31.179  33.531   8.750
 1873POPC   C2B26204  31.195  33.299   8.391
 1873POPC   C3B26205  31.163  33.552   8.044
 1873POPC   C4B26206  31.444  33.625   7.725
 1874POPC   NC326207  11.753  10.346   9.437
 1874POPC   PO426208  12.327  10.705   9.359
 1874POPC   GL126209  12.098  10.456   9.078
 1874POPC   GL226210  11.789  10.660   9.029
 1874POPC   C1A26211  12.230  10.243   8.711
 1874POPC   D2A26212  12.147  10.349   8.300
 1874POPC   C3A26213  12.284  10.727   8.118
 1874POPC   C4A26214  12.260  10.698   7.687
 1874POPC   C1B26215  11.723  10.338   8.687
 1874POPC   C2B26216  11.643  10.280   8.228
 1874POPC   C3B26217  11.856  10.436   7.868
 1874POPC   C4B26218  11.785  10.495   7.422
 1875POPC   NC326219   0.379   9.238   9.437
 1875POPC   PO426220   0.596   9.861   9.553
 1875POPC   GL126221   0.626   9.708   9.155
 1875POPC   GL226222   0.291   9.615   9.116
 1875POPC   C1A26223   0.558   9.883   8.742
 1875POPC   D2A26224   0.634  10.060   8.325
 1875POPC   C3A26225   0.485   9.807   7.965
 1875POPC   C4A26226   0.261   9.985   7.631
 1875POPC   C1B26227   0.065   9.785   8.805
 1875POPC   C2B26228   0.160   9.862   8.391
 1875POPC   C3B26229  44.960   9.787   8.007
 1875POPC   C4B26230   0.081   9.500   7.690
 1876POPC   NC326231   9.642  19.289   9.552
 1876POPC   PO426232  10.099  18.775   9.567
 1876POPC   GL126233   9.804  18.852   9.218
 1876POPC   GL226234   9.732  19.159   9.095
 1876POPC   C1A26235   9.532  18.809   8.803
 1876POPC   D2A26236   9.364  19.024   8.444
 1876POPC   C3A26237   9.610  18.896   8.127
 1876POPC   C4A26238   9.807  18.852   7.748
 1876POPC   C1B26239   9.567  19.354   8.785
 1876POPC   C2B26240   9.405  19.576   8.498
 1876POPC   C3B26241   9.426  19.621   8.108
 1876POPC   C4B26242   9.643  19.341   7.862
 1877POPC   NC326243  18.979   6.356   9.461
 1877POPC   PO426244  19.314   7.006   9.546
 1877POPC   GL126245  19.378   6.697   9.187
 1877POPC   GL226246  19.447   6.314   9.227
 1877POPC   C1A26247  19.102   6.569   8.843
 1877POPC   D2A26248  18.984   6.763   8.474
 1877POPC   C3A26249  19.159   6.865   8.103
 1877POPC   C4A26250  18.943   6.895   7.733
 1877POPC   C1B26251  19.553   6.365   8.769
 1877POPC   C2B26252  19.281   6.346   8.400
 1877POPC   C3B26253  19.008   6.376   8.054
 1877POPC   C4B26254  19.281   6.526   7.741
 1878POPC   NC326255  33.860  10.301   9.626
 1878POPC   PO426256  33.913  10.981   9.666
 1878POPC   GL126257  33.794  10.702   9.306
 1878POPC   GL226258  34.054  10.518   9.177
 1878POPC   C1A26259  33.682  10.674   8.877
 1878POPC   D2A26260  33.761  10.481   8.486
 1878POPC   C3A26261  33.687  10.693   8.081
 1878POPC   C4A26262  33.668  10.792   7.614
 1878POPC   C1B26263  34.174  10.307   8.812
 1878POPC   C2B26264  34.365  10.199   8.413
 1878POPC   C3B26265  34.209  10.497   8.160
 1878POPC   C4B26266  34.026  10.447   7.776
 1879POPC   NC326267  14.508  19.553   9.259
 1879POPC   PO426268  14.055  19.936   9.413
 1879POPC   GL126269  14.351  20.028   9.108
 1879POPC   GL226270  14.722  20.072   9.115
 1879POPC   C1A26271  14.326  19.866   8.701
 1879POPC   D2A26272  14.603  19.702   8.405
 1879POPC   C3A26273  14.355  19.701   8.037
 1879POPC   C4A26274  14.241  19.828   7.626
 1879POPC   C1B26275  14.668  20.241   8.705
 1879POPC   C2B26276  14.461  20.180   8.284
 1879POPC   C3B26277  14.644  20.096   7.849
 1879POPC   C4B26278  14.657  20.070   7.348
 1880POPC   NC326279  40.569  38.176   9.492
 1880POPC   PO426280  40.671  37.550   9.584
 1880POPC   GL126281  40.802  37.641   9.179
 1880POPC   GL226282  40.891  38.002   9.121
 1880POPC   C1A26283  40.727  37.386   8.822
 1880POPC   D2A26284  40.946  37.311   8.415
 1880POPC   C3A26285  40.688  37.371   8.027
 1880POPC   C4A26286  40.921  37.385   7.690
 1880POPC   C1B26287  40.549  37.900   8.829
 1880POPC   C2B26288  40.548  37.676   8.447
 1880POPC   C3B26289  40.856  37.823   8.190
 1880POPC   C4B26290  40.793  37.874   7.766
 1881POPC   NC326291  44.398  42.941   9.509
 1881POPC   PO426292  44.993  43.205   9.673
 1881POPC   GL126293  44.825  43.142   9.248
 1881POPC   GL226294  44.481  43.285   9.161
 1881POPC   C1A26295  44.863  43.212   8.808
 1881POPC   D2A26296  44.914  43.340   8.385
 1881POPC   C3A26297  44.593  43.294   8.096
 1881POPC   C4A26298  44.705  43.222   7.695
 1881POPC   C1B26299  44.378  42.972   8.841
 1881POPC   C2B26300  44.415  42.880   8.401
 1881POPC   C3B26301  44.288  42.858   7.948
 1881POPC   C4B26302  44.342  42.958   7.499
 1882POPC   NC326303  38.791  17.984   9.839
 1882POPC   PO426304  38.174  18.312   9.526
 1882POPC   GL126305  38.477  18.510   9.194
 1882POPC   GL226306  38.256  18.358   9.009
 1882POPC   C1A26307  38.718  18.423   8.800
 1882POPC   D2A26308  38.566  18.276   8.432
 1882POPC   C3A26309  38.695  18.520   8.096
 1882POPC   C4A26310  38.510  18.441   7.722
 1882POPC   C1B26311  38.135  18.167   8.670
 1882POPC   C2B26312  38.234  17.859   8.360
 1882POPC   C3B26313  38.457  18.004   8.013
 1882POPC   C4B26314  38.639  17.899   7.690
 1883POPC   NC326315   7.530  31.089   9.475
 1883POPC   PO426316   7.156  30.469   9.609
 1883POPC   GL126317   7.282  30.671   9.206
 1883POPC   GL226318   7.165  31.018   9.104
 1883POPC   C1A26319   7.573  30.545   8.870
 1883POPC   D2A26320   7.677  30.476   8.420
 1883POPC   C3A26321   7.387  30.542   8.106
 1883POPC   C4A26322   7.243  30.906   7.886
 1883POPC   C1B26323   7.438  31.005   8.718
 1883POPC   C2B26324   7.555  30.988   8.283
 1883POPC   C3B26325   7.734  30.998   7.821
 1883POPC   C4B26326   7.700  30.994   7.343
 1884POPC   NC326327  27.534  28.612   9.449
 1884POPC   PO426328  27.868  28.051   9.515
 1884POPC   GL126329  27.683  28.212   9.149
 1884POPC   GL226330  27.331  28.229   9.137
 1884POPC   C1A26331  27.763  28.438   8.792
 1884POPC   D2A26332  27.812  28.232   8.439
 1884POPC   C3A26333  27.799  28.466   8.149
 1884POPC   C4A26334  27.893  28.551   7.781
 1884POPC   C1B26335  27.292  28.286   8.727
 1884POPC   C2B26336  27.354  27.980   8.468
 1884POPC   C3B26337  27.467  28.047   8.078
 1884POPC   C4B26338  27.404  28.378   7.794
 1885POPC   NC326339  44.778   2.972   9.631
 1885POPC   PO426340  44.576   2.359   9.463
 1885POPC   GL126341  44.819   2.630   9.157
 1885POPC   GL226342  44.958   2.991   9.154
 1885POPC   C1A26343  44.614   2.799   8.789
 1885POPC   D2A26344  44.291   2.746   8.473
 1885POPC   C3A26345  44.493   2.843   8.093
 1885POPC   C4A26346  44.567   2.770   7.666
 1885POPC   C1B26347   0.083   3.046   8.746
 1885POPC   C2B26348  44.916   3.030   8.349
 1885POPC   C3B26349  44.947   3.014   7.916
 1885POPC   C4B26350   0.070   2.974   7.493
 1886POPC   NC326351  32.040  10.194   9.408
 1886POPC   PO426352  32.042   9.494   9.405
 1886POPC   GL126353  32.374   9.745   9.193
 1886POPC   GL226354  32.536   9.496   8.986
 1886POPC   C1A26355  32.454   9.995   8.793
 1886POPC   D2A26356  32.090  10.061   8.442
 1886POPC   C3A26357  32.186   9.948   8.015
 1886POPC   C4A26358  32.567   9.999   7.777
 1886POPC   C1B26359  32.157   9.589   8.735
 1886POPC   C2B26360  32.095   9.518   8.304
 1886POPC   C3B26361  32.032   9.494   7.865
 1886POPC   C4B26362  32.007   9.426   7.419
 1887POPC   NC326363   3.298   2.819   9.501
 1887POPC   PO426364   3.784   3.158   9.815
 1887POPC   GL126365   3.723   2.952   9.286
 1887POPC   GL226366   3.627   2.572   9.211
 1887POPC   C1A26367   3.689   2.832   8.808
 1887POPC   D2A26368   3.781   2.609   8.452
 1887POPC   C3A26369   3.577   2.807   8.094
 1887POPC   C4A26370   3.509   2.863   7.629
 1887POPC   C1B26371   3.363   2.422   8.798
 1887POPC   C2B26372   3.139   2.417   8.359
 1887POPC   C3B26373   3.223   2.489   7.901
 1887POPC   C4B26374   3.290   2.413   7.436
 1888POPC   NC326375  12.330  32.253   9.738
 1888POPC   PO426376  12.152  32.442   9.074
 1888POPC   GL126377  12.024  32.072   8.863
 1888POPC   GL226378  11.722  32.077   9.053
 1888POPC   C1A26379  12.341  31.946   8.540
 1888POPC   D2A26380  12.526  32.308   8.299
 1888POPC   C3A26381  12.183  32.482   8.030
 1888POPC   C4A26382  12.064  32.238   7.644
 1888POPC   C1B26383  11.595  32.409   8.750
 1888POPC   C2B26384  11.799  32.405   8.352
 1888POPC   C3B26385  11.662  32.400   7.913
 1888POPC   C4B26386  11.587  32.249   7.474
 1889POPC   NC326387  36.434  11.640   9.402
 1889POPC   PO426388  36.053  11.103   9.538
 1889POPC   GL126389  36.024  11.368   9.206
 1889POPC   GL226390  36.336  11.230   9.107
 1889POPC   C1A26391  36.100  11.579   8.794
 1889POPC   D2A26392  36.246  11.745   8.400
 1889POPC   C3A26393  36.088  11.540   8.018
 1889POPC   C4A26394  35.807  11.293   7.767
 1889POPC   C1B26395  36.052  11.071   8.797
 1889POPC   C2B26396  36.070  11.198   8.397
 1889POPC   C3B26397  36.204  11.048   8.015
 1889POPC   C4B26398  36.216  11.087   7.588
 1890POPC   NC326399   6.138   9.761   9.320
 1890POPC   PO426400   5.450   9.790   9.447
 1890POPC   GL126401   5.685   9.620   9.164
 1890POPC   GL226402   5.739   9.937   9.007
 1890POPC   C1A26403   5.727   9.504   8.741
 1890POPC   D2A26404   5.699   9.777   8.373
 1890POPC   C3A26405   5.764   9.581   7.976
 1890POPC   C4A26406   6.136   9.389   7.815
 1890POPC   C1B26407   5.655  10.238   8.658
 1890POPC   C2B26408   5.722  10.281   8.187
 1890POPC   C3B26409   5.855  10.065   7.799
 1890POPC   C4B26410   5.748  10.178   7.377
 1891POPC   NC326411  30.809  31.968   9.556
 1891POPC   PO426412  30.910  32.707   9.583
 1891POPC   GL126413  30.755  32.460   9.239
 1891POPC   GL226414  31.024  32.237   9.196
 1891POPC   C1A26415  30.794  32.527   8.775
 1891POPC   D2A26416  30.690  32.369   8.321
 1891POPC   C3A26417  30.798  32.599   7.907
 1891POPC   C4A26418  30.782  32.631   7.436
 1891POPC   C1B26419  31.169  32.215   8.802
 1891POPC   C2B26420  31.139  32.099   8.388
 1891POPC   C3B26421  31.023  32.142   7.961
 1891POPC   C4B26422  31.031  32.151   7.485
 1892POPC   NC326423  43.174   7.527   9.592
 1892POPC   PO426424  43.758   7.433   9.797
 1892POPC   GL126425  43.552   7.499   9.266
 1892POPC   GL226426  43.128   7.455   9.116
 1892POPC   C1A26427  43.465   7.403   8.778
 1892POPC   D2A26428  43.256   7.666   8.477
 1892POPC   C3A26429  43.284   7.513   8.045
 1892POPC   C4A26430  42.984   7.683   7.739
 1892POPC   C1B26431  42.852   7.411   8.744
 1892POPC   C2B26432  42.827   7.417   8.266
 1892POPC   C3B26433  42.882   7.197   7.860
 1892POPC   C4B26434  42.895   7.277   7.404
 1893POPC   NC326435   9.599  29.531   9.394
 1893POPC   PO426436   9.636  28.822   9.481
 1893POPC   GL126437   9.878  29.021   9.178
 1893POPC   GL226438  10.047  29.316   9.304
 1893POPC   C1A26439   9.711  29.159   8.784
 1893POPC   D2A26440   9.536  28.943   8.449
 1893POPC   C3A26441   9.715  29.012   8.050
 1893POPC   C4A26442   9.523  29.344   7.825
 1893POPC   C1B26443  10.156  29.389   8.864
 1893POPC   C2B26444  10.047  29.317   8.421
 1893POPC   C3B26445   9.977  29.485   8.011
 1893POPC   C4B26446  10.184  29.207   7.811
 1894POPC   NC326447  24.986  35.119   9.540
 1894POPC   PO426448  24.275  35.305   9.584
 1894POPC   GL126449  24.295  35.505   9.203
 1894POPC   GL226450  24.540  35.279   9.122
 1894POPC   C1A26451  24.110  35.334   8.825
 1894POPC   D2A26452  24.293  35.398   8.445
 1894POPC   C3A26453  24.224  35.467   8.060
 1894POPC   C4A26454  24.119  35.461   7.669
 1894POPC   C1B26455  24.550  35.090   8.714
 1894POPC   C2B26456  24.650  35.120   8.237
 1894POPC   C3B26457  24.447  35.064   7.827
 1894POPC   C4B26458  24.625  34.894   7.430
 1895POPC   NC326459   7.809  27.794   9.565
 1895POPC   PO426460   8.435  27.511   9.523
 1895POPC   GL126461   8.178  27.524   9.190
 1895POPC   GL226462   8.022  27.851   9.124
 1895POPC   C1A26463   8.285  27.535   8.771
 1895POPC   D2A26464   8.230  27.261   8.434
 1895POPC   C3A26465   8.293  27.459   8.060
 1895POPC   C4A26466   8.199  27.327   7.675
 1895POPC   C1B26467   7.835  27.810   8.753
 1895POPC   C2B26468   8.036  27.757   8.387
 1895POPC   C3B26469   8.016  27.936   7.993
 1895POPC   C4B26470   7.615  27.937   7.782
 1896POPC   NC326471  29.520  10.171   9.564
 1896POPC   PO426472  30.162   9.806   9.522
 1896POPC   GL126473  30.043   9.768   9.125
 1896POPC   GL226474  29.736   9.664   9.035
 1896POPC   C1A26475  30.280   9.844   8.760
 1896POPC   D2A26476  30.171   9.960   8.349
 1896POPC   C3A26477  30.099   9.630   8.056
 1896POPC   C4A26478  29.824   9.766   7.737
 1896POPC   C1B26479  29.797  10.053   8.778
 1896POPC   C2B26480  29.588  10.159   8.384
 1896POPC   C3B26481  29.627  10.216   7.936
 1896POPC   C4B26482  29.504  10.094   7.512
 1897POPC   NC326483   5.032  13.210   9.493
 1897POPC   PO426484   5.375  12.674   9.480
 1897POPC   GL126485   5.244  12.903   9.132
 1897POPC   GL226486   4.887  12.825   9.170
 1897POPC   C1A26487   5.115  13.049   8.729
 1897POPC   D2A26488   5.134  13.292   8.365
 1897POPC   C3A26489   5.006  13.014   8.039
 1897POPC   C4A26490   5.267  12.943   7.619
 1897POPC   C1B26491   4.824  12.612   8.793
 1897POPC   C2B26492   4.596  12.665   8.412
 1897POPC   C3B26493   4.667  12.614   7.994
 1897POPC   C4B26494   4.745  12.854   7.651
 1898POPC   NC326495  16.321  15.744   9.512
 1898POPC   PO426496  15.632  15.729   9.524
 1898POPC   GL126497  15.892  15.760   9.184
 1898POPC   GL226498  15.658  16.027   9.055
 1898POPC   C1A26499  16.075  15.955   8.805
 1898POPC   D2A26500  15.797  16.160   8.542
 1898POPC   C3A26501  15.870  16.007   8.132
 1898POPC   C4A26502  16.082  16.241   7.811
 1898POPC   C1B26503  15.597  15.720   8.761
 1898POPC   C2B26504  15.688  15.597   8.381
 1898POPC   C3B26505  15.512  15.646   7.965
 1898POPC   C4B26506  15.733  15.880   7.666
 1899POPC   NC326507  42.654  10.759   9.572
 1899POPC   PO426508  41.975  10.631   9.504
 1899POPC   GL126509  42.296  10.542   9.227
 1899POPC   GL226510  42.438  10.846   9.137
 1899POPC   C1A26511  42.379  10.348   8.841
 1899POPC   D2A26512  42.314  10.096   8.465
 1899POPC   C3A26513  42.391  10.214   8.022
 1899POPC   C4A26514  42.638  10.147   7.633
 1899POPC   C1B26515  42.207  10.819   8.757
 1899POPC   C2B26516  42.413  10.625   8.401
 1899POPC   C3B26517  42.507  10.719   7.985
 1899POPC   C4B26518  42.390  10.582   7.589
 1900POPC   NC326519  23.742  17.841   9.494
 1900POPC   PO426520  23.699  17.149   9.680
 1900POPC   GL126521  23.793  17.309   9.245
 1900POPC   GL226522  23.474  17.129   9.174
 1900POPC   C1A26523  23.896  17.556   8.835
 1900POPC   D2A26524  23.669  17.619   8.422
 1900POPC   C3A26525  23.786  17.530   7.996
 1900POPC   C4A26526  23.605  17.518   7.580
 1900POPC   C1B26527  23.417  17.284   8.765
 1900POPC   C2B26528  23.251  17.320   8.353
 1900POPC   C3B26529  23.296  17.312   7.922
 1900POPC   C4B26530  23.356  17.099   7.506
 1901POPC   NC326531  31.838   5.649   9.526
 1901POPC   PO426532  32.333   6.129   9.374
 1901POPC   GL126533  32.125   5.855   9.146
 1901POPC   GL226534  31.825   6.035   9.077
 1901POPC   C1A26535  32.283   5.793   8.757
 1901POPC   D2A26536  32.224   6.046   8.420
 1901POPC   C3A26537  32.486   5.912   8.122
 1901POPC   C4A26538  32.600   5.752   7.748
 1901POPC   C1B26539  31.807   6.360   8.752
 1901POPC   C2B26540  31.803   6.319   8.299
 1901POPC   C3B26541  31.957   6.011   7.987
 1901POPC   C4B26542  31.959   6.104   7.561
 1902POPC   NC326543   9.660   4.152   9.637
 1902POPC   PO426544  10.036   4.344   9.183
 1902POPC   GL126545   9.645   4.266   9.081
 1902POPC   GL226546   9.491   4.607   9.199
 1902POPC   C1A26547   9.714   4.050   8.664
 1902POPC   D2A26548   9.938   4.238   8.284
 1902POPC   C3A26549   9.767   4.073   7.913
 1902POPC   C4A26550   9.744   4.220   7.490
 1902POPC   C1B26551   9.652   4.741   8.761
 1902POPC   C2B26552   9.626   4.844   8.289
 1902POPC   C3B26553   9.592   4.560   7.894
 1902POPC   C4B26554   9.598   4.703   7.422
 1903POPC   NC326555   6.038  35.651   9.519
 1903POPC   PO426556   5.483  35.281   9.587
 1903POPC   GL126557   5.768  35.325   9.224
 1903POPC   GL226558   5.696  35.665   9.160
 1903POPC   C1A26559   5.998  35.436   8.818
 1903POPC   D2A26560   6.142  35.441   8.392
 1903POPC   C3A26561   6.042  35.084   8.171
 1903POPC   C4A26562   5.932  35.047   7.757
 1903POPC   C1B26563   5.477  35.538   8.827
 1903POPC   C2B26564   5.652  35.538   8.423
 1903POPC   C3B26565   5.779  35.499   8.023
 1903POPC   C4B26566   5.505  35.359   7.728
 1904POPC   NC326567  31.809  44.767   9.388
 1904POPC   PO426568  32.532  44.572   9.527
 1904POPC   GL126569  32.249  44.570   9.217
 1904POPC   GL226570  32.269  44.945   9.204
 1904POPC   C1A26571  32.117  44.667   8.799
 1904POPC   D2A26572  32.118  44.920   8.464
 1904POPC   C3A26573  32.209  44.624   8.198
 1904POPC   C4A26574  32.274  44.501   7.818
 1904POPC   C1B26575  32.441   0.115   8.826
 1904POPC   C2B26576  32.497   0.293   8.417
 1904POPC   C3B26577  32.404   0.076   8.044
 1904POPC   C4B26578  32.006  44.932   7.862
 1905POPC   NC326579  38.406  26.315   9.493
 1905POPC   PO426580  38.788  25.663   9.408
 1905POPC   GL126581  38.546  25.886   9.078
 1905POPC   GL226582  38.403  26.229   9.016
 1905POPC   C1A26583  38.533  25.947   8.608
 1905POPC   D2A26584  38.840  25.957   8.336
 1905POPC   C3A26585  38.706  26.151   8.001
 1905POPC   C4A26586  38.514  26.175   7.669
 1905POPC   C1B26587  38.103  25.972   8.848
 1905POPC   C2B26588  38.064  25.806   8.457
 1905POPC   C3B26589  38.199  26.002   8.083
 1905POPC   C4B26590  38.133  25.860   7.701
 1906POPC   NC326591  32.725  34.990   9.475
 1906POPC   PO426592  33.190  35.320   9.733
 1906POPC   GL126593  33.171  35.279   9.253
 1906POPC   GL226594  32.872  35.430   9.148
 1906POPC   C1A26595  33.229  35.378   8.771
 1906POPC   D2A26596  33.030  35.436   8.376
 1906POPC   C3A26597  33.241  35.450   8.013
 1906POPC   C4A26598  33.278  35.159   7.688
 1906POPC   C1B26599  32.729  35.224   8.759
 1906POPC   C2B26600  32.697  35.034   8.376
 1906POPC   C3B26601  32.741  35.228   7.976
 1906POPC   C4B26602  32.658  35.388   7.601
 1907POPC   NC326603  40.261  34.505   9.748
 1907POPC   PO426604  39.746  34.800   9.449
 1907POPC   GL126605  39.970  34.559   9.149
 1907POPC   GL226606  40.338  34.553   9.129
 1907POPC   C1A26607  39.986  34.575   8.711
 1907POPC   D2A26608  40.042  34.846   8.392
 1907POPC   C3A26609  39.848  34.703   8.031
 1907POPC   C4A26610  39.879  34.749   7.599
 1907POPC   C1B26611  40.458  34.782   8.716
 1907POPC   C2B26612  40.533  34.886   8.260
 1907POPC   C3B26613  40.341  34.658   7.911
 1907POPC   C4B26614  40.256  34.400   7.534
 1908POPC   NC326615  28.500  32.831   9.593
 1908POPC   PO426616  27.965  32.374   9.475
 1908POPC   GL126617  28.164  32.732   9.171
 1908POPC   GL226618  28.452  33.013   9.139
 1908POPC   C1A26619  28.283  32.808   8.722
 1908POPC   D2A26620  28.259  33.135   8.413
 1908POPC   C3A26621  28.505  32.886   8.117
 1908POPC   C4A26622  28.559  32.815   7.663
 1908POPC   C1B26623  28.625  33.220   8.773
 1908POPC   C2B26624  28.704  33.345   8.325
 1908POPC   C3B26625  28.577  33.312   7.862
 1908POPC   C4B26626  28.829  33.179   7.461
 1909POPC   NC326627  41.726  18.060   9.620
 1909POPC   PO426628  41.303  18.641   9.565
 1909POPC   GL126629  41.338  18.300   9.216
 1909POPC   GL226630  41.664  18.145   9.129
 1909POPC   C1A26631  41.275  18.183   8.762
 1909POPC   D2A26632  41.200  18.129   8.292
 1909POPC   C3A26633  41.212  18.525   7.982
 1909POPC   C4A26634  41.544  18.563   7.653
 1909POPC   C1B26635  41.768  18.366   8.779
 1909POPC   C2B26636  41.739  18.226   8.383
 1909POPC   C3B26637  41.634  18.217   8.001
 1909POPC   C4B26638  41.714  18.080   7.573
 1910POPC   NC326639  32.457   8.298   9.482
 1910POPC   PO426640  31.846   7.872   9.455
 1910POPC   GL126641  32.024   7.934   9.046
 1910POPC   GL226642  32.254   8.182   9.051
 1910POPC   C1A26643  32.126   8.052   8.591
 1910POPC   D2A26644  32.341   8.203   8.234
 1910POPC   C3A26645  32.267   7.943   7.894
 1910POPC   C4A26646  32.188   8.078   7.477
 1910POPC   C1B26647  32.531   8.341   8.708
 1910POPC   C2B26648  32.800   8.104   8.500
 1910POPC   C3B26649  32.814   8.024   8.068
 1910POPC   C4B26650  32.611   8.272   7.731
 1911POPC   NC326651  13.108  18.801   9.505
 1911POPC   PO426652  12.733  19.411   9.445
 1911POPC   GL126653  12.952  19.138   9.137
 1911POPC   GL226654  12.702  18.847   9.191
 1911POPC   C1A26655  12.978  19.249   8.684
 1911POPC   D2A26656  12.663  19.409   8.373
 1911POPC   C3A26657  12.724  19.314   7.943
 1911POPC   C4A26658  13.089  19.196   7.745
 1911POPC   C1B26659  12.610  18.706   8.774
 1911POPC   C2B26660  12.688  18.907   8.375
 1911POPC   C3B26661  12.846  18.813   7.983
 1911POPC   C4B26662  12.741  18.457   7.774
 1912POPC   NC326663  39.922  25.259   9.690
 1912POPC   PO426664  39.702  25.864   9.762
 1912POPC   GL126665  39.880  25.534   9.300
 1912POPC   GL226666  39.913  25.120   9.203
 1912POPC   C1A26667  40.126  25.450   8.892
 1912POPC   D2A26668  40.093  25.493   8.420
 1912POPC   C3A26669  40.074  25.226   8.032
 1912POPC   C4A26670  39.972  25.098   7.595
 1912POPC   C1B26671  39.950  24.997   8.731
 1912POPC   C2B26672  39.698  25.122   8.369
 1912POPC   C3B26673  39.638  24.944   7.956
 1912POPC   C4B26674  39.521  24.879   7.512
 1913POPC   NC326675  14.555  27.543   9.574
 1913POPC   PO426676  14.009  27.179   9.400
 1913POPC   GL126677  14.324  27.404   9.106
 1913POPC   GL226678  14.453  27.720   9.106
 1913POPC   C1A26679  14.630  27.391   8.741
 1913POPC   D2A26680  14.813  27.275   8.329
 1913POPC   C3A26681  14.617  27.439   7.933
 1913POPC   C4A26682  14.188  27.448   7.827
 1913POPC   C1B26683  14.253  27.718   8.699
 1913POPC   C2B26684  14.344  27.714   8.267
 1913POPC   C3B26685  14.266  27.954   7.870
 1913POPC   C4B26686  14.061  27.962   7.432
 1914POPC   NC326687  33.345   3.376   9.604
 1914POPC   PO426688  32.673   3.625   9.449
 1914POPC   GL126689  33.036   3.503   9.215
 1914POPC   GL226690  33.213   3.783   9.171
 1914POPC   C1A26691  33.137   3.342   8.808
 1914POPC   D2A26692  33.017   3.490   8.422
 1914POPC   C3A26693  33.154   3.340   8.052
 1914POPC   C4A26694  32.858   3.523   7.766
 1914POPC   C1B26695  33.431   3.768   8.801
 1914POPC   C2B26696  33.357   3.868   8.380
 1914POPC   C3B26697  33.176   3.854   7.964
 1914POPC   C4B26698  33.234   3.711   7.504
 1915POPC   NC326699  41.165  16.654   9.454
 1915POPC   PO426700  40.669  17.077   9.712
 1915POPC   GL126701  40.715  16.948   9.264
 1915POPC   GL226702  40.557  16.608   9.187
 1915POPC   C1A26703  40.619  16.938   8.814
 1915POPC   D2A26704  40.481  16.598   8.515
 1915POPC   C3A26705  40.697  16.637   8.120
 1915POPC   C4A26706  41.012  16.767   7.819
 1915POPC   C1B26707  40.879  16.494   8.857
 1915POPC   C2B26708  40.900  16.291   8.452
 1915POPC   C3B26709  41.156  16.237   8.086
 1915POPC   C4B26710  41.258  16.353   7.669
 1916POPC   NC326711  27.449  42.716   9.598
 1916POPC   PO426712  27.815  42.163   9.641
 1916POPC   GL126713  27.707  42.223   9.202
 1916POPC   GL226714  27.624  42.569   9.125
 1916POPC   C1A26715  27.714  42.186   8.746
 1916POPC   D2A26716  27.557  42.274   8.312
 1916POPC   C3A26717  27.751  42.252   7.881
 1916POPC   C4A26718  27.490  42.202   7.509
 1916POPC   C1B26719  27.346  42.564   8.744
 1916POPC   C2B26720  27.151  42.570   8.313
 1916POPC   C3B26721  27.339  42.577   7.889
 1916POPC   C4B26722  27.520  42.686   7.465
 1917POPC   NC326723  31.021  30.853   9.442
 1917POPC   PO426724  30.435  30.547   9.613
 1917POPC   GL126725  30.601  30.626   9.186
 1917POPC   GL226726  30.919  30.499   9.090
 1917POPC   C1A26727  30.578  30.822   8.759
 1917POPC   D2A26728  30.324  30.783   8.374
 1917POPC   C3A26729  30.591  30.833   7.991
 1917POPC   C4A26730  30.675  31.017   7.559
 1917POPC   C1B26731  31.082  30.634   8.690
 1917POPC   C2B26732  31.236  30.473   8.305
 1917POPC   C3B26733  31.127  30.276   7.928
 1917POPC   C4B26734  30.897  30.569   7.684
 1918POPC   NC326735  13.641  34.118   9.588
 1918POPC   PO426736  13.091  34.432   9.484
 1918POPC   GL126737  13.199  34.577   9.108
 1918POPC   GL226738  13.379  34.863   8.996
 1918POPC   C1A26739  13.198  34.422   8.731
 1918POPC   D2A26740  13.490  34.474   8.425
 1918POPC   C3A26741  13.356  34.502   8.036
 1918POPC   C4A26742  13.493  34.294   7.666
 1918POPC   C1B26743  13.779  34.765   8.765
 1918POPC   C2B26744  13.971  34.646   8.391
 1918POPC   C3B26745  13.862  34.481   7.993
 1918POPC   C4B26746  14.155  34.663   7.771
 1919POPC   NC326747  34.776   2.401   9.925
 1919POPC   PO426748  34.718   2.941   9.570
 1919POPC   GL126749  34.634   2.984   9.162
 1919POPC   GL226750  34.513   2.665   9.044
 1919POPC   C1A26751  34.597   3.142   8.766
 1919POPC   D2A26752  34.448   2.990   8.385
 1919POPC   C3A26753  34.616   3.142   8.010
 1919POPC   C4A26754  34.624   3.045   7.561
 1919POPC   C1B26755  34.844   2.688   8.693
 1919POPC   C2B26756  34.830   2.698   8.224
 1919POPC   C3B26757  34.596   2.642   7.859
 1919POPC   C4B26758  34.951   2.590   7.576
 1920POPC   NC326759  15.667  26.757   9.412
 1920POPC   PO426760  16.236  27.130   9.490
 1920POPC   GL126761  16.229  26.789   9.169
 1920POPC   GL226762  15.931  26.927   9.022
 1920POPC   C1A26763  16.194  26.615   8.710
 1920POPC   D2A26764  15.849  26.768   8.481
 1920POPC   C3A26765  15.774  26.555   8.116
 1920POPC   C4A26766  15.796  26.643   7.710
 1920POPC   C1B26767  16.207  27.129   8.773
 1920POPC   C2B26768  16.290  27.041   8.353
 1920POPC   C3B26769  16.051  27.048   7.981
 1920POPC   C4B26770  16.278  26.943   7.631
 1921POPC   NC326771  14.968  41.916   9.464
 1921POPC   PO426772  14.478  42.426   9.535
 1921POPC   GL126773  14.376  42.358   9.126
 1921POPC   GL226774  14.393  42.680   9.071
 1921POPC   C1A26775  14.371  42.078   8.741
 1921POPC   D2A26776  14.269  42.242   8.354
 1921POPC   C3A26777  14.414  42.157   7.969
 1921POPC   C4A26778  14.223  42.037   7.610
 1921POPC   C1B26779  14.561  42.561   8.684
 1921POPC   C2B26780  14.542  42.655   8.266
 1921POPC   C3B26781  14.733  42.572   7.882
 1921POPC   C4B26782  14.672  42.278   7.534
 1922POPC   NC326783  41.694  44.980   9.860
 1922POPC   PO426784  41.627  44.395   9.567
 1922POPC   GL126785  41.716  44.571   9.157
 1922POPC   GL226786  41.792  44.908   9.268
 1922POPC   C1A26787  41.526  44.462   8.722
 1922POPC   D2A26788  41.691  44.205   8.361
 1922POPC   C3A26789  41.534  44.400   8.020
 1922POPC   C4A26790  41.256  44.659   7.801
 1922POPC   C1B26791  41.815  44.909   8.802
 1922POPC   C2B26792  41.695   0.088   8.414
 1922POPC   C3B26793  41.640  44.923   8.006
 1922POPC   C4B26794  41.813  44.936   7.582
 1923POPC   NC326795   6.022  33.138   9.437
 1923POPC   PO426796   6.053  32.532   9.703
 1923POPC   GL126797   6.109  32.687   9.209
 1923POPC   GL226798   6.241  32.994   8.996
 1923POPC   C1A26799   6.201  32.531   8.806
 1923POPC   D2A26800   6.293  32.854   8.461
 1923POPC   C3A26801   6.126  32.788   8.037
 1923POPC   C4A26802   6.101  33.008   7.589
 1923POPC   C1B26803   5.848  32.909   8.745
 1923POPC   C2B26804   5.698  32.905   8.318
 1923POPC   C3B26805   5.814  33.187   7.980
 1923POPC   C4B26806   5.638  33.555   7.851
 1924POPC   NC326807   2.760  30.182   9.420
 1924POPC   PO426808   3.205  29.563   9.569
 1924POPC   GL126809   3.082  29.777   9.157
 1924POPC   GL226810   2.732  29.790   9.088
 1924POPC   C1A26811   3.080  30.118   8.809
 1924POPC   D2A26812   3.054  30.432   8.436
 1924POPC   C3A26813   3.109  30.196   8.035
 1924POPC   C4A26814   2.975  29.929   7.697
 1924POPC   C1B26815   2.601  29.930   8.660
 1924POPC   C2B26816   2.570  30.270   8.359
 1924POPC   C3B26817   2.602  30.248   7.928
 1924POPC   C4B26818   2.470  29.837   7.755
 1925POPC   NC326819  31.846  37.942   9.456
 1925POPC   PO426820  32.265  37.455   9.426
 1925POPC   GL126821  32.151  37.726   9.106
 1925POPC   GL226822  32.327  38.048   9.180
 1925POPC   C1A26823  31.941  37.681   8.730
 1925POPC   D2A26824  32.130  37.506   8.391
 1925POPC   C3A26825  32.084  37.637   7.969
 1925POPC   C4A26826  32.451  37.705   7.690
 1925POPC   C1B26827  32.102  38.188   8.814
 1925POPC   C2B26828  32.047  38.036   8.385
 1925POPC   C3B26829  32.375  38.038   8.090
 1925POPC   C4B26830  32.275  38.232   7.722
 1926POPC   NC326831  34.460  35.683   9.521
 1926POPC   PO426832  34.371  34.943   9.412
 1926POPC   GL126833  34.330  35.233   9.099
 1926POPC   GL226834  34.619  35.379   9.092
 1926POPC   C1A26835  34.425  35.163   8.677
 1926POPC   D2A26836  34.585  35.146   8.290
 1926POPC   C3A26837  34.258  35.196   7.976
 1926POPC   C4A26838  34.418  35.526   7.704
 1926POPC   C1B26839  34.830  35.541   8.748
 1926POPC   C2B26840  34.691  35.646   8.362
 1926POPC   C3B26841  34.824  35.733   7.981
 1926POPC   C4B26842  34.996  35.524   7.683
 1927POPC   NC326843  11.566  18.733   9.577
 1927POPC   PO426844  11.027  19.107   9.397
 1927POPC   GL126845  11.362  19.002   9.147
 1927POPC   GL226846  11.525  19.282   8.965
 1927POPC   C1A26847  11.180  18.827   8.782
 1927POPC   D2A26848  10.927  18.940   8.430
 1927POPC   C3A26849  11.189  18.970   8.046
 1927POPC   C4A26850  11.290  18.793   7.630
 1927POPC   C1B26851  11.667  18.930   8.658
 1927POPC   C2B26852  11.725  18.866   8.184
 1927POPC   C3B26853  11.678  19.099   7.762
 1927POPC   C4B26854  11.661  18.949   7.293
 1928POPC   NC326855   6.085   4.544   9.823
 1928POPC   PO426856   5.529   4.184   9.627
 1928POPC   GL126857   5.763   4.117   9.216
 1928POPC   GL226858   6.035   4.355   9.168
 1928POPC   C1A26859   5.680   4.343   8.782
 1928POPC   D2A26860   5.808   4.250   8.357
 1928POPC   C3A26861   5.518   4.392   8.051
 1928POPC   C4A26862   5.564   4.710   7.745
 1928POPC   C1B26863   6.195   4.331   8.746
 1928POPC   C2B26864   6.249   4.497   8.319
 1928POPC   C3B26865   6.102   4.561   7.870
 1928POPC   C4B26866   6.111   4.413   7.399
 1929POPC   NC326867  34.233  38.088   9.475
 1929POPC   PO426868  34.768  37.728   9.466
 1929POPC   GL126869  34.399  37.650   9.100
 1929POPC   GL226870  34.190  37.320   9.073
 1929POPC   C1A26871  34.375  37.791   8.673
 1929POPC   D2A26872  34.641  38.057   8.483
 1929POPC   C3A26873  34.771  37.972   8.084
 1929POPC   C4A26874  34.542  37.719   7.820
 1929POPC   C1B26875  34.465  37.293   8.711
 1929POPC   C2B26876  34.475  37.135   8.293
 1929POPC   C3B26877  34.363  37.240   7.865
 1929POPC   C4B26878  34.634  37.338   7.496
 1930POPC   NC326879   5.914  30.628   9.495
 1930POPC   PO426880   5.434  31.140   9.432
 1930POPC   GL126881   5.665  30.858   9.122
 1930POPC   GL226882   5.690  30.473   9.068
 1930POPC   C1A26883   5.979  30.803   8.798
 1930POPC   D2A26884   6.109  30.956   8.402
 1930POPC   C3A26885   5.836  30.837   8.061
 1930POPC   C4A26886   5.918  30.868   7.637
 1930POPC   C1B26887   5.843  30.259   8.726
 1930POPC   C2B26888   6.008  30.383   8.329
 1930POPC   C3B26889   6.015  30.315   7.892
 1930POPC   C4B26890   6.213  30.475   7.547
 1931POPC   NC326891  38.135  11.815   9.266
 1931POPC   PO426892  38.252  12.273   9.757
 1931POPC   GL126893  37.978  12.299   9.300
 1931POPC   GL226894  37.663  12.118   9.254
 1931POPC   C1A26895  37.917  12.256   8.821
 1931POPC   D2A26896  37.669  12.192   8.422
 1931POPC   C3A26897  37.838  12.277   8.037
 1931POPC   C4A26898  37.762  12.251   7.652
 1931POPC   C1B26899  37.452  12.003   8.852
 1931POPC   C2B26900  37.352  11.762   8.452
 1931POPC   C3B26901  37.439  11.900   8.034
 1931POPC   C4B26902  37.786  11.772   7.826
 1932POPC   NC326903  18.160  24.231   9.625
 1932POPC   PO426904  18.641  24.752   9.572
 1932POPC   GL126905  18.506  24.692   9.181
 1932POPC   GL226906  18.171  24.582   9.207
 1932POPC   C1A26907  18.525  24.558   8.743
 1932POPC   D2A26908  18.264  24.647   8.367
 1932POPC   C3A26909  18.383  24.679   7.916
 1932POPC   C4A26910  18.502  24.350   7.676
 1932POPC   C1B26911  18.004  24.470   8.788
 1932POPC   C2B26912  17.940  24.243   8.363
 1932POPC   C3B26913  17.973  24.341   7.883
 1932POPC   C4B26914  17.782  24.259   7.432
 1933POPC   NC326915  33.485  27.751   9.487
 1933POPC   PO426916  34.122  27.470   9.612
 1933POPC   GL126917  33.912  27.636   9.235
 1933POPC   GL226918  33.635  27.469   9.070
 1933POPC   C1A26919  34.015  27.765   8.827
 1933POPC   D2A26920  33.859  27.554   8.471
 1933POPC   C3A26921  34.137  27.449   8.114
 1933POPC   C4A26922  34.095  27.648   7.724
 1933POPC   C1B26923  33.493  27.803   8.786
 1933POPC   C2B26924  33.373  27.849   8.354
 1933POPC   C3B26925  33.664  27.710   8.022
 1933POPC   C4B26926  33.639  27.322   7.785
 1934POPC   NC326927  32.785   6.954   9.585
 1934POPC   PO426928  33.045   6.288   9.669
 1934POPC   GL126929  32.887   6.459   9.249
 1934POPC   GL226930  32.834   6.795   9.119
 1934POPC   C1A26931  32.839   6.431   8.770
 1934POPC   D2A26932  32.615   6.374   8.357
 1934POPC   C3A26933  32.752   6.523   7.946
 1934POPC   C4A26934  33.075   6.473   7.615
 1934POPC   C1B26935  32.973   6.916   8.694
 1934POPC   C2B26936  33.013   6.714   8.338
 1934POPC   C3B26937  33.259   6.699   8.025
 1934POPC   C4B26938  33.381   6.878   7.662
 1935POPC   NC326939   9.034   1.502   9.481
 1935POPC   PO426940   8.956   0.804   9.500
 1935POPC   GL126941   9.022   1.108   9.110
 1935POPC   GL226942   8.804   1.406   9.052
 1935POPC   C1A26943   9.088   1.290   8.675
 1935POPC   D2A26944   9.159   1.496   8.263
 1935POPC   C3A26945   9.010   1.194   7.960
 1935POPC   C4A26946   8.891   1.179   7.521
 1935POPC   C1B26947   8.615   1.541   8.648
 1935POPC   C2B26948   8.665   1.548   8.168
 1935POPC   C3B26949   8.884   1.645   7.766
 1935POPC   C4B26950   9.097   1.859   7.389
 1936POPC   NC326951  31.946  42.826   9.417
 1936POPC   PO426952  32.347  42.211   9.513
 1936POPC   GL126953  32.378  42.207   9.119
 1936POPC   GL226954  32.335  42.559   9.123
 1936POPC   C1A26955  32.233  42.237   8.718
 1936POPC   D2A26956  32.222  42.023   8.344
 1936POPC   C3A26957  32.123  42.151   7.937
 1936POPC   C4A26958  32.137  42.538   7.738
 1936POPC   C1B26959  32.613  42.555   8.765
 1936POPC   C2B26960  32.442  42.490   8.328
 1936POPC   C3B26961  32.598  42.389   7.928
 1936POPC   C4B26962  32.664  42.776   7.744
 1937POPC   NC326963  27.910  25.283   9.885
 1937POPC   PO426964  27.330  25.392   9.523
 1937POPC   GL126965  27.633  25.297   9.197
 1937POPC   GL226966  27.844  25.037   9.140
 1937POPC   C1A26967  27.512  25.181   8.787
 1937POPC   D2A26968  27.464  25.438   8.451
 1937POPC   C3A26969  27.572  25.349   8.042
 1937POPC   C4A26970  27.410  25.308   7.644
 1937POPC   C1B26971  27.974  24.940   8.724
 1937POPC   C2B26972  27.716  24.941   8.367
 1937POPC   C3B26973  27.485  24.855   8.001
 1937POPC   C4B26974  27.782  24.978   7.705
 1938POPC   NC326975  24.693   5.760   9.589
 1938POPC   PO426976  24.114   6.043   9.487
 1938POPC   GL126977  24.366   5.890   9.143
 1938POPC   GL226978  24.699   6.116   9.193
 1938POPC   C1A26979  24.265   5.803   8.691
 1938POPC   D2A26980  24.534   5.971   8.343
 1938POPC   C3A26981  24.492   5.818   7.926
 1938POPC   C4A26982  24.441   5.658   7.500
 1938POPC   C1B26983  24.911   6.354   8.822
 1938POPC   C2B26984  25.013   6.214   8.385
 1938POPC   C3B26985  24.947   6.298   7.922
 1938POPC   C4B26986  24.676   6.138   7.569
 1939POPC   NC326987  26.225  25.035   9.409
 1939POPC   PO426988  25.725  25.484   9.535
 1939POPC   GL126989  25.850  25.300   9.145
 1939POPC   GL226990  26.189  25.422   9.055
 1939POPC   C1A26991  25.935  25.135   8.720
 1939POPC   D2A26992  25.949  25.326   8.304
 1939POPC   C3A26993  25.837  25.109   7.918
 1939POPC   C4A26994  25.984  25.082   7.452
 1939POPC   C1B26995  26.382  25.667   8.722
 1939POPC   C2B26996  26.476  25.518   8.330
 1939POPC   C3B26997  26.371  25.225   8.014
 1939POPC   C4B26998  26.160  25.459   7.749
 1940POPC   NC326999   7.574  23.971   9.472
 1940POPC   PO427000   7.057  23.548   9.340
 1940POPC   GL127001   7.333  23.516   8.976
 1940POPC   GL227002   7.636  23.685   9.036
 1940POPC   C1A27003   7.620  23.396   8.610
 1940POPC   D2A27004   7.985  23.533   8.346
 1940POPC   C3A27005   7.808  23.572   7.950
 1940POPC   C4A27006   7.401  23.420   7.964
 1940POPC   C1B27007   7.527  24.011   8.754
 1940POPC   C2B27008   7.471  24.212   8.359
 1940POPC   C3B27009   7.442  23.970   7.990
 1940POPC   C4B27010   7.441  24.167   7.632
 1941POPC   NC327011  31.673  13.063   9.499
 1941POPC   PO427012  31.262  12.555   9.444
 1941POPC   GL127013  31.620  12.571   9.136
 1941POPC   GL227014  31.772  12.900   9.049
 1941POPC   C1A27015  31.711  12.545   8.719
 1941POPC   D2A27016  31.408  12.668   8.452
 1941POPC   C3A27017  31.405  12.608   8.027
 1941POPC   C4A27018  31.642  12.902   7.799
 1941POPC   C1B27019  31.378  12.969   8.869
 1941POPC   C2B27020  31.348  13.165   8.473
 1941POPC   C3B27021  31.240  13.093   8.071
 1941POPC   C4B27022  31.206  13.153   7.655
 1942POPC   NC327023  42.133  25.963   9.531
 1942POPC   PO427024  42.539  26.374   9.485
 1942POPC   GL127025  42.430  26.097   9.118
 1942POPC   GL227026  42.146  25.824   9.060
 1942POPC   C1A27027  42.328  26.125   8.685
 1942POPC   D2A27028  42.617  26.243   8.358
 1942POPC   C3A27029  42.531  26.019   8.025
 1942POPC   C4A27030  42.143  26.214   7.838
 1942POPC   C1B27031  42.055  25.614   8.698
 1942POPC   C2B27032  42.018  25.802   8.310
 1942POPC   C3B27033  42.144  25.703   7.929
 1942POPC   C4B27034  42.018  25.798   7.540
 1943POPC   NC327035  44.796   3.928   9.444
 1943POPC   PO427036  44.478   3.324   9.706
 1943POPC   GL127037  44.641   3.405   9.295
 1943POPC   GL227038  44.433   3.674   9.204
 1943POPC   C1A27039  44.595   3.320   8.843
 1943POPC   D2A27040  44.454   3.237   8.423
 1943POPC   C3A27041  44.607   3.402   8.030
 1943POPC   C4A27042  44.632   3.257   7.612
 1943POPC   C1B27043  44.244   3.711   8.811
 1943POPC   C2B27044  44.352   3.742   8.392
 1943POPC   C3B27045  44.138   3.643   8.037
 1943POPC   C4B27046  44.248   3.581   7.638
 1944POPC   NC327047   1.011  14.138   9.451
 1944POPC   PO427048   1.414  14.714   9.438
 1944POPC   GL127049   1.123  14.524   9.129
 1944POPC   GL227050   1.421  14.278   9.105
 1944POPC   C1A27051   1.111  14.316   8.692
 1944POPC   D2A27052   1.468  14.281   8.363
 1944POPC   C3A27053   1.370  14.426   7.916
 1944POPC   C4A27054   0.940  14.422   7.805
 1944POPC   C1B27055   1.457  13.958   8.779
 1944POPC   C2B27056   1.177  13.845   8.480
 1944POPC   C3B27057   1.131  14.014   8.101
 1944POPC   C4B27058   1.192  13.992   7.653
 1945POPC   NC327059  43.085  11.415   9.477
 1945POPC   PO427060  43.110  10.797   9.551
 1945POPC   GL127061  42.945  11.033   9.150
 1945POPC   GL227062  42.799  11.397   9.057
 1945POPC   C1A27063  43.189  11.249   8.787
 1945POPC   D2A27064  43.311  11.545   8.468
 1945POPC   C3A27065  43.240  11.398   8.062
 1945POPC   C4A27066  43.336  11.499   7.656
 1945POPC   C1B27067  42.652  11.529   8.636
 1945POPC   C2B27068  42.828  11.643   8.248
 1945POPC   C3B27069  42.877  11.664   7.811
 1945POPC   C4B27070  42.890  11.402   7.437
 1946POPC   NC327071  25.313   2.183   9.239
 1946POPC   PO427072  25.325   2.822   9.426
 1946POPC   GL127073  24.943   2.849   9.154
 1946POPC   GL227074  24.742   2.507   9.155
 1946POPC   C1A27075  25.105   2.899   8.746
 1946POPC   D2A27076  25.442   2.921   8.452
 1946POPC   C3A27077  25.259   2.880   8.056
 1946POPC   C4A27078  25.403   3.031   7.711
 1946POPC   C1B27079  24.933   2.407   8.772
 1946POPC   C2B27080  25.048   2.528   8.386
 1946POPC   C3B27081  25.213   2.353   8.051
 1946POPC   C4B27082  25.045   2.527   7.698
 1947POPC   NC327083   4.702  36.123   9.845
 1947POPC   PO427084   4.054  36.159   9.520
 1947POPC   GL127085   4.333  36.243   9.176
 1947POPC   GL227086   4.628  36.449   9.237
 1947POPC   C1A27087   4.256  36.070   8.785
 1947POPC   D2A27088   4.200  36.245   8.387
 1947POPC   C3A27089   4.310  36.000   8.052
 1947POPC   C4A27090   4.263  36.116   7.648
 1947POPC   C1B27091   4.742  36.253   8.843
 1947POPC   C2B27092   4.657  35.976   8.484
 1947POPC   C3B27093   4.840  35.890   8.109
 1947POPC   C4B27094   4.750  36.042   7.700
 1948POPC   NC327095  14.702  39.455   9.345
 1948POPC   PO427096  15.380  39.359   9.561
 1948POPC   GL127097  15.196  39.236   9.165
 1948POPC   GL227098  14.951  39.012   9.148
 1948POPC   C1A27099  15.341  39.170   8.745
 1948POPC   D2A27100  15.179  39.319   8.361
 1948POPC   C3A27101  15.314  39.089   8.013
 1948POPC   C4A27102  15.332  39.232   7.615
 1948POPC   C1B27103  14.836  39.070   8.753
 1948POPC   C2B27104  14.778  38.993   8.340
 1948POPC   C3B27105  14.820  39.150   7.926
 1948POPC   C4B27106  14.480  39.199   7.676
 1949POPC   NC327107   8.142   1.052   9.472
 1949POPC   PO427108   8.504   1.594   9.432
 1949POPC   GL127109   8.319   1.306   9.081
 1949POPC   GL227110   8.518   0.960   9.142
 1949POPC   C1A27111   8.087   1.052   8.752
 1949POPC   D2A27112   7.882   1.171   8.331
 1949POPC   C3A27113   7.968   1.019   7.925
 1949POPC   C4A27114   8.028   1.320   7.637
 1949POPC   C1B27115   8.617   1.023   8.729
 1949POPC   C2B27116   8.630   1.035   8.288
 1949POPC   C3B27117   8.467   1.171   7.879
 1949POPC   C4B27118   8.327   0.911   7.517
 1950POPC   NC327119  36.806   3.982   9.548
 1950POPC   PO427120  37.072   3.398   9.640
 1950POPC   GL127121  37.004   3.358   9.185
 1950POPC   GL227122  37.060   3.025   9.033
 1950POPC   C1A27123  36.818   3.407   8.770
 1950POPC   D2A27124  36.785   3.726   8.455
 1950POPC   C3A27125  36.691   3.535   8.037
 1950POPC   C4A27126  36.865   3.674   7.626
 1950POPC   C1B27127  37.229   3.081   8.622
 1950POPC   C2B27128  37.127   3.380   8.301
 1950POPC   C3B27129  37.155   3.369   7.885
 1950POPC   C4B27130  36.825   3.127   7.727
 1951POPC   NC327131  23.291  40.768   9.397
 1951POPC   PO427132  22.837  40.332   9.646
 1951POPC   GL127133  22.816  40.532   9.178
 1951POPC   GL227134  23.091  40.724   8.958
 1951POPC   C1A27135  22.845  40.384   8.722
 1951POPC   D2A27136  23.215  40.441   8.487
 1951POPC   C3A27137  23.164  40.734   8.131
 1951POPC   C4A27138  22.890  40.870   7.762
 1951POPC   C1B27139  22.794  40.891   8.668
 1951POPC   C2B27140  22.813  41.078   8.255
 1951POPC   C3B27141  23.079  41.297   7.950
 1951POPC   C4B27142  22.770  41.464   7.688
 1952POPC   NC327143  10.996  35.534   9.391
 1952POPC   PO427144  11.564  35.926   9.634
 1952POPC   GL127145  11.473  36.004   9.216
 1952POPC   GL227146  11.143  35.990   9.220
 1952POPC   C1A27147  11.433  36.015   8.760
 1952POPC   D2A27148  11.516  36.276   8.376
 1952POPC   C3A27149  11.559  36.116   7.948
 1952POPC   C4A27150  11.530  36.286   7.530
 1952POPC   C1B27151  10.922  35.849   8.845
 1952POPC   C2B27152  10.882  35.919   8.450
 1952POPC   C3B27153  11.048  36.172   8.170
 1952POPC   C4B27154  11.067  36.125   7.750
 1953POPC   NC327155  37.506  42.847   9.493
 1953POPC   PO427156  38.113  43.082   9.566
 1953POPC   GL127157  37.899  42.985   9.197
 1953POPC   GL227158  37.919  43.295   9.089
 1953POPC   C1A27159  37.650  42.891   8.815
 1953POPC   D2A27160  37.533  43.027   8.400
 1953POPC   C3A27161  37.613  42.796   8.021
 1953POPC   C4A27162  37.417  42.959   7.677
 1953POPC   C1B27163  37.982  43.283   8.685
 1953POPC   C2B27164  37.852  43.433   8.337
 1953POPC   C3B27165  37.761  43.301   7.950
 1953POPC   C4B27166  37.953  43.004   7.706
 1954POPC   NC327167  11.838  11.881   9.499
 1954POPC   PO427168  11.176  11.720   9.316
 1954POPC   GL127169  11.485  11.962   9.104
 1954POPC   GL227170  11.703  11.695   9.048
 1954POPC   C1A27171  11.391  12.095   8.690
 1954POPC   D2A27172  10.980  12.057   8.499
 1954POPC   C3A27173  11.100  12.113   8.072
 1954POPC   C4A27174  11.555  12.212   7.975
 1954POPC   C1B27175  11.525  11.604   8.654
 1954POPC   C2B27176  11.552  11.779   8.256
 1954POPC   C3B27177  11.373  11.735   7.868
 1954POPC   C4B27178  10.954  11.740   7.732
 1955POPC   NC327179   3.300  42.840   9.341
 1955POPC   PO427180   3.650  42.292   9.610
 1955POPC   GL127181   3.805  42.313   9.198
 1955POPC   GL227182   3.804  42.679   9.233
 1955POPC   C1A27183   3.628  42.195   8.786
 1955POPC   D2A27184   3.260  42.207   8.496
 1955POPC   C3A27185   3.270  42.251   8.044
 1955POPC   C4A27186   3.490  42.054   7.652
 1955POPC   C1B27187   3.838  42.660   8.791
 1955POPC   C2B27188   3.686  42.529   8.381
 1955POPC   C3B27189   3.772  42.371   7.978
 1955POPC   C4B27190   3.882  42.596   7.626
 1956POPC   NC327191  43.139  38.143   9.458
 1956POPC   PO427192  43.653  38.284   9.213
 1956POPC   GL127193  43.383  38.632   9.064
 1956POPC   GL227194  43.109  38.904   9.113
 1956POPC   C1A27195  43.322  38.713   8.629
 1956POPC   D2A27196  43.543  38.609   8.253
 1956POPC   C3A27197  43.262  38.427   7.954
 1956POPC   C4A27198  43.153  38.047   7.852
 1956POPC   C1B27199  42.833  38.896   8.744
 1956POPC   C2B27200  42.695  38.594   8.408
 1956POPC   C3B27201  42.727  38.315   8.046
 1956POPC   C4B27202  42.849  38.444   7.633
 1957POPC   NC327203  33.145  26.966   9.629
 1957POPC   PO427204  33.466  26.447   9.361
 1957POPC   GL127205  33.173  26.608   9.110
 1957POPC   GL227206  32.897  26.847   9.157
 1957POPC   C1A27207  33.103  26.688   8.705
 1957POPC   D2A27208  33.243  26.993   8.447
 1957POPC   C3A27209  33.117  26.869   8.074
 1957POPC   C4A27210  33.070  26.524   7.841
 1957POPC   C1B27211  32.794  27.103   8.744
 1957POPC   C2B27212  32.617  27.050   8.307
 1957POPC   C3B27213  32.780  27.190   7.890
 1957POPC   C4B27214  33.116  27.184   7.613
 1958POPC   NC327215  35.595  14.825  10.002
 1958POPC   PO427216  35.138  14.354   9.636
 1958POPC   GL127217  35.139  14.159   9.227
 1958POPC   GL227218  35.439  14.337   9.182
 1958POPC   C1A27219  35.227  14.081   8.772
 1958POPC   D2A27220  35.414  14.232   8.393
 1958POPC   C3A27221  35.174  14.224   8.021
 1958POPC   C4A27222  35.371  14.384   7.694
 1958POPC   C1B27223  35.451  14.527   8.798
 1958POPC   C2B27224  35.458  14.832   8.491
 1958POPC   C3B27225  35.380  14.750   8.074
 1958POPC   C4B27226  35.234  14.900   7.692
 1959POPC   NC327227  32.095   3.998   9.486
 1959POPC   PO427228  32.467   4.508   9.735
 1959POPC   GL127229  32.461   4.421   9.255
 1959POPC   GL227230  32.587   4.649   9.043
 1959POPC   C1A27231  32.305   4.244   8.852
 1959POPC   D2A27232  32.011   4.269   8.485
 1959POPC   C3A27233  32.136   4.064   8.092
 1959POPC   C4A27234  31.994   4.059   7.665
 1959POPC   C1B27235  32.760   4.459   8.712
 1959POPC   C2B27236  32.509   4.368   8.385
 1959POPC   C3B27237  32.323   4.541   8.087
 1959POPC   C4B27238  32.393   4.385   7.690
 1960POPC   NC327239  28.151   0.459   9.502
 1960POPC   PO427240  28.785   0.409   9.602
 1960POPC   GL127241  28.545   0.340   9.203
 1960POPC   GL227242  28.496   0.660   9.127
 1960POPC   C1A27243  28.424   0.077   8.804
 1960POPC   D2A27244  28.313   0.054   8.363
 1960POPC   C3A27245  28.466   0.419   8.164
 1960POPC   C4A27246  28.703   0.456   7.751
 1960POPC   C1B27247  28.401   0.576   8.703
 1960POPC   C2B27248  28.010   0.458   8.506
 1960POPC   C3B27249  27.908   0.564   8.106
 1960POPC   C4B27250  28.175   0.600   7.757
 1961POPC   NC327251  21.139  24.659   9.600
 1961POPC   PO427252  21.145  24.135   9.185
 1961POPC   GL127253  21.401  24.539   9.157
 1961POPC   GL227254  21.183  24.856   9.136
 1961POPC   C1A27255  21.678  24.530   8.798
 1961POPC   D2A27256  21.474  24.300   8.491
 1961POPC   C3A27257  21.527  24.400   8.090
 1961POPC   C4A27258  21.343  24.236   7.747
 1961POPC   C1B27259  21.277  24.851   8.726
 1961POPC   C2B27260  21.172  24.723   8.324
 1961POPC   C3B27261  21.331  24.849   7.958
 1961POPC   C4B27262  21.326  24.708   7.538
 1962POPC   NC327263   5.807  39.065   9.539
 1962POPC   PO427264   6.041  39.781   9.473
 1962POPC   GL127265   6.046  39.454   9.221
 1962POPC   GL227266   5.721  39.368   9.144
 1962POPC   C1A27267   6.137  39.265   8.844
 1962POPC   D2A27268   5.962  39.216   8.456
 1962POPC   C3A27269   6.223  39.126   8.109
 1962POPC   C4A27270   6.362  39.425   7.811
 1962POPC   C1B27271   5.684  38.994   8.863
 1962POPC   C2B27272   5.584  38.860   8.425
 1962POPC   C3B27273   5.683  39.116   8.038
 1962POPC   C4B27274   5.971  39.102   7.672
 1963POPC   NC327275   5.071  10.926   9.673
 1963POPC   PO427276   5.030  10.291   9.739
 1963POPC   GL127277   5.021  10.566   9.295
 1963POPC   GL227278   5.144  10.879   9.156
 1963POPC   C1A27279   4.997  10.502   8.815
 1963POPC   D2A27280   5.169  10.623   8.396
 1963POPC   C3A27281   5.127  10.398   8.015
 1963POPC   C4A27282   4.785  10.365   7.736
 1963POPC   C1B27283   4.959  11.008   8.738
 1963POPC   C2B27284   4.689  10.851   8.403
 1963POPC   C3B27285   4.852  10.815   7.975
 1963POPC   C4B27286   5.053  10.730   7.541
 1964POPC   NC327287  32.051  35.410   9.694
 1964POPC   PO427288  31.355  35.261   9.516
 1964POPC   GL127289  31.607  35.276   9.166
 1964POPC   GL227290  31.362  35.269   8.980
 1964POPC   C1A27291  31.757  35.308   8.682
 1964POPC   D2A27292  31.969  35.461   8.333
 1964POPC   C3A27293  31.728  35.357   7.981
 1964POPC   C4A27294  31.388  35.246   7.708
 1964POPC   C1B27295  31.351  34.999   8.646
 1964POPC   C2B27296  31.337  35.143   8.246
 1964POPC   C3B27297  30.989  35.167   8.015
 1964POPC   C4B27298  31.043  34.847   7.737
 1965POPC   NC327299  14.929  25.118   9.597
 1965POPC   PO427300  15.522  25.545   9.621
 1965POPC   GL127301  15.273  25.422   9.288
 1965POPC   GL227302  15.388  25.103   9.207
 1965POPC   C1A27303  15.337  25.485   8.837
 1965POPC   D2A27304  15.090  25.325   8.476
 1965POPC   C3A27305  15.032  25.505   8.066
 1965POPC   C4A27306  15.004  25.332   7.621
 1965POPC   C1B27307  15.155  24.995   8.876
 1965POPC   C2B27308  15.038  24.821   8.476
 1965POPC   C3B27309  14.985  24.988   8.074
 1965POPC   C4B27310  15.185  24.880   7.712
 1966POPC   NC327311  33.564  29.414   9.401
 1966POPC   PO427312  34.166  29.161   9.503
 1966POPC   GL127313  33.971  29.283   9.106
 1966POPC   GL227314  33.736  29.033   9.104
 1966POPC   C1A27315  33.806  29.283   8.672
 1966POPC   D2A27316  34.018  29.143   8.293
 1966POPC   C3A27317  33.932  29.270   7.895
 1966POPC   C4A27318  34.195  29.303   7.580
 1966POPC   C1B27319  33.545  28.789   8.832
 1966POPC   C2B27320  33.607  28.799   8.416
 1966POPC   C3B27321  33.712  28.803   8.003
 1966POPC   C4B27322  33.546  28.989   7.709
 1967POPC   NC327323  15.071  36.367   9.570
 1967POPC   PO427324  15.522  35.774   9.456
 1967POPC   GL127325  15.215  35.963   9.143
 1967POPC   GL227326  15.066  36.296   9.074
 1967POPC   C1A27327  15.015  35.869   8.779
 1967POPC   D2A27328  15.023  36.101   8.422
 1967POPC   C3A27329  14.972  35.921   8.018
 1967POPC   C4A27330  15.156  36.108   7.664
 1967POPC   C1B27331  14.766  36.428   8.783
 1967POPC   C2B27332  14.570  36.330   8.411
 1967POPC   C3B27333  14.830  36.408   8.037
 1967POPC   C4B27334  14.914  36.671   7.676
 1968POPC   NC327335  33.399  20.881   9.287
 1968POPC   PO427336  32.971  20.348   9.536
 1968POPC   GL127337  33.117  20.403   9.161
 1968POPC   GL227338  32.906  20.666   9.065
 1968POPC   C1A27339  33.211  20.412   8.744
 1968POPC   D2A27340  33.033  20.428   8.356
 1968POPC   C3A27341  33.261  20.615   8.035
 1968POPC   C4A27342  33.076  20.370   7.725
 1968POPC   C1B27343  32.929  20.870   8.661
 1968POPC   C2B27344  33.145  21.106   8.335
 1968POPC   C3B27345  33.014  21.089   7.916
 1968POPC   C4B27346  32.730  20.733   7.799
 1969POPC   NC327347  13.090  40.310   9.403
 1969POPC   PO427348  12.587  39.879   9.302
 1969POPC   GL127349  12.866  40.029   9.049
 1969POPC   GL227350  12.723  40.357   9.053
 1969POPC   C1A27351  13.003  40.151   8.658
 1969POPC   D2A27352  12.857  39.893   8.323
 1969POPC   C3A27353  12.904  39.994   7.918
 1969POPC   C4A27354  13.055  40.393   7.743
 1969POPC   C1B27355  12.503  40.280   8.681
 1969POPC   C2B27356  12.668  40.366   8.261
 1969POPC   C3B27357  12.562  40.344   7.844
 1969POPC   C4B27358  12.626  40.467   7.427
 1970POPC   NC327359  24.151  26.302   9.622
 1970POPC   PO427360  23.495  26.234   9.546
 1970POPC   GL127361  23.699  26.234   9.168
 1970POPC   GL227362  24.016  26.110   9.162
 1970POPC   C1A27363  23.708  26.139   8.754
 1970POPC   D2A27364  23.507  26.125   8.392
 1970POPC   C3A27365  23.687  26.311   8.038
 1970POPC   C4A27366  23.637  26.225   7.621
 1970POPC   C1B27367  24.058  25.768   8.882
 1970POPC   C2B27368  23.799  25.697   8.523
 1970POPC   C3B27369  23.804  25.822   8.098
 1970POPC   C4B27370  24.083  26.026   7.793
 1971POPC   NC327371  19.158  14.824   9.382
 1971POPC   PO427372  18.778  15.291   9.417
 1971POPC   GL127373  19.002  15.238   9.061
 1971POPC   GL227374  19.209  15.508   9.164
 1971POPC   C1A27375  19.181  14.952   8.743
 1971POPC   D2A27376  19.149  14.662   8.391
 1971POPC   C3A27377  19.207  14.903   8.020
 1971POPC   C4A27378  19.032  14.994   7.645
 1971POPC   C1B27379  19.254  15.538   8.724
 1971POPC   C2B27380  19.224  15.298   8.365
 1971POPC   C3B27381  19.149  15.423   7.977
 1971POPC   C4B27382  19.323  15.406   7.591
 1972POPC   NC327383  23.932  10.345   9.606
 1972POPC   PO427384  23.442  10.725   9.662
 1972POPC   GL127385  23.648  10.611   9.252
 1972POPC   GL227386  23.392  10.574   9.000
 1972POPC   C1A27387  23.964  10.495   8.903
 1972POPC   D2A27388  24.145  10.664   8.496
 1972POPC   C3A27389  23.978  10.585   8.063
 1972POPC   C4A27390  24.162  10.637   7.639
 1972POPC   C1B27391  23.614  10.822   8.669
 1972POPC   C2B27392  23.609  10.930   8.203
 1972POPC   C3B27393  23.693  10.857   7.711
 1972POPC   C4B27394  23.790  10.638   7.307
 1973POPC   NC327395  20.512  18.652   9.471
 1973POPC   PO427396  20.727  19.362   9.531
 1973POPC   GL127397  20.760  19.102   9.172
 1973POPC   GL227398  20.448  19.208   9.102
 1973POPC   C1A27399  20.626  19.013   8.695
 1973POPC   D2A27400  20.803  18.927   8.300
 1973POPC   C3A27401  20.646  19.068   7.909
 1973POPC   C4A27402  20.788  18.711   7.671
 1973POPC   C1B27403  20.421  19.481   8.739
 1973POPC   C2B27404  20.475  19.338   8.328
 1973POPC   C3B27405  20.370  19.549   7.979
 1973POPC   C4B27406  20.380  19.391   7.538
 1974POPC   NC327407  33.345  18.429   9.482
 1974POPC   PO427408  32.992  17.845   9.502
 1974POPC   GL127409  33.238  17.989   9.171
 1974POPC   GL227410  33.608  18.027   9.182
 1974POPC   C1A27411  33.144  18.256   8.831
 1974POPC   D2A27412  33.322  18.365   8.443
 1974POPC   C3A27413  33.029  18.486   8.161
 1974POPC   C4A27414  32.972  18.406   7.739
 1974POPC   C1B27415  33.517  17.923   8.720
 1974POPC   C2B27416  33.241  17.837   8.350
 1974POPC   C3B27417  33.230  17.994   7.909
 1974POPC   C4B27418  33.177  17.984   7.431
 1975POPC   NC327419   9.708  25.602   9.494
 1975POPC   PO427420   9.945  24.950   9.615
 1975POPC   GL127421   9.674  25.138   9.214
 1975POPC   GL227422   9.940  25.247   9.041
 1975POPC   C1A27423   9.541  25.281   8.687
 1975POPC   D2A27424   9.956  25.227   8.408
 1975POPC   C3A27425   9.995  25.421   7.999
 1975POPC   C4A27426   9.753  25.475   7.629
 1975POPC   C1B27427   9.798  24.888   8.777
 1975POPC   C2B27428   9.588  24.862   8.355
 1975POPC   C3B27429   9.465  25.033   7.969
 1975POPC   C4B27430   9.655  24.982   7.588
 1976POPC   NC327431  30.122  12.213   9.488
 1976POPC   PO427432  29.488  12.241   9.316
 1976POPC   GL127433  29.844  12.090   9.059
 1976POPC   GL227434  30.200  11.931   9.072
 1976POPC   C1A27435  29.778  11.942   8.648
 1976POPC   D2A27436  29.514  11.694   8.350
 1976POPC   C3A27437  29.651  11.881   7.959
 1976POPC   C4A27438  29.879  11.818   7.585
 1976POPC   C1B27439  30.285  12.081   8.672
 1976POPC   C2B27440  30.089  12.287   8.304
 1976POPC   C3B27441  30.014  12.284   7.852
 1976POPC   C4B27442  30.139  12.218   7.396
 1977POPC   NC327443   9.079  29.060   9.713
 1977POPC   PO427444   9.071  28.381   9.590
 1977POPC   GL127445   9.062  28.177   9.208
 1977POPC   GL227446   8.707  28.207   9.141
 1977POPC   C1A27447   9.165  28.255   8.806
 1977POPC   D2A27448   8.892  28.372   8.509
 1977POPC   C3A27449   9.048  28.557   8.135
 1977POPC   C4A27450   9.123  28.433   7.722
 1977POPC   C1B27451   8.717  27.946   8.774
 1977POPC   C2B27452   8.564  27.808   8.367
 1977POPC   C3B27453   8.545  27.855   7.898
 1977POPC   C4B27454   8.753  28.074   7.552
 1978POPC   NC327455  41.589  16.100   9.693
 1978POPC   PO427456  41.751  15.430   9.790
 1978POPC   GL127457  41.676  15.676   9.337
 1978POPC   GL227458  41.719  16.051   9.214
 1978POPC   C1A27459  41.511  15.723   8.887
 1978POPC   D2A27460  41.662  15.853   8.464
 1978POPC   C3A27461  41.495  15.827   8.044
 1978POPC   C4A27462  41.746  15.846   7.688
 1978POPC   C1B27463  41.844  16.207   8.822
 1978POPC   C2B27464  41.721  16.385   8.449
 1978POPC   C3B27465  41.808  16.242   8.077
 1978POPC   C4B27466  41.760  16.358   7.693
 1979POPC   NC327467  35.533  30.391   9.404
 1979POPC   PO427468  35.241  29.836   9.607
 1979POPC   GL127469  35.161  29.885   9.186
 1979POPC   GL227470  35.506  29.956   9.163
 1979POPC   C1A27471  35.312  29.735   8.766
 1979POPC   D2A27472  35.441  29.696   8.360
 1979POPC   C3A27473  35.346  29.883   7.967
 1979POPC   C4A27474  35.440  29.786   7.533
 1979POPC   C1B27475  35.663  30.131   8.782
 1979POPC   C2B27476  35.808  30.048   8.360
 1979POPC   C3B27477  35.717  30.217   7.984
 1979POPC   C4B27478  35.470  30.296   7.620
 1980POPC   NC327479  33.396   9.437   9.820
 1980POPC   PO427480  33.768   8.897   9.718
 1980POPC   GL127481  33.685   8.864   9.267
 1980POPC   GL227482  34.023   8.861   9.220
 1980POPC   C1A27483  33.680   9.090   8.830
 1980POPC   D2A27484  33.500   9.235   8.437
 1980POPC   C3A27485  33.739   9.230   8.084
 1980POPC   C4A27486  33.763   9.067   7.680
 1980POPC   C1B27487  34.021   8.719   8.806
 1980POPC   C2B27488  34.033   8.941   8.419
 1980POPC   C3B27489  33.934   8.757   8.044
 1980POPC   C4B27490  34.091   8.654   7.641
 1981POPC   NC327491   0.218   4.335   9.655
 1981POPC   PO427492   0.749   4.147   9.491
 1981POPC   GL127493   0.596   4.347   9.142
 1981POPC   GL227494   0.694   4.088   8.927
 1981POPC   C1A27495   0.440   4.551   8.746
 1981POPC   D2A27496   0.287   4.409   8.323
 1981POPC   C3A27497   0.471   4.631   7.963
 1981POPC   C4A27498   0.682   4.507   7.565
 1981POPC   C1B27499   0.272   4.051   8.767
 1981POPC   C2B27500   0.262   3.872   8.361
 1981POPC   C3B27501   0.109   3.928   7.953
 1981POPC   C4B27502   0.279   4.230   7.695
 1982POPC   NC327503   7.217   3.376   9.419
 1982POPC   PO427504   7.847   3.766   9.451
 1982POPC   GL127505   7.613   3.523   9.174
 1982POPC   GL227506   7.753   3.358   8.975
 1982POPC   C1A27507   7.314   3.562   8.794
 1982POPC   D2A27508   7.482   3.600   8.380
 1982POPC   C3A27509   7.303   3.420   8.019
 1982POPC   C4A27510   7.151   3.657   7.707
 1982POPC   C1B27511   7.743   3.846   8.816
 1982POPC   C2B27512   7.639   4.074   8.466
 1982POPC   C3B27513   7.814   4.027   8.043
 1982POPC   C4B27514   7.679   3.684   7.789
 1983POPC   NC327515  39.437   7.228   9.617
 1983POPC   PO427516  38.862   7.532   9.548
 1983POPC   GL127517  39.048   7.265   9.236
 1983POPC   GL227518  39.354   7.370   9.149
 1983POPC   C1A27519  39.014   7.152   8.795
 1983POPC   D2A27520  39.165   7.278   8.383
 1983POPC   C3A27521  39.067   7.076   7.995
 1983POPC   C4A27522  38.844   7.270   7.665
 1983POPC   C1B27523  39.507   7.372   8.747
 1983POPC   C2B27524  39.454   7.714   8.435
 1983POPC   C3B27525  39.342   7.592   8.024
 1983POPC   C4B27526  39.556   7.236   7.905
 1984POPC   NC327527  13.566  21.040   9.462
 1984POPC   PO427528  13.969  21.599   9.555
 1984POPC   GL127529  13.884  21.518   9.078
 1984POPC   GL227530  13.660  21.253   8.961
 1984POPC   C1A27531  13.833  21.561   8.584
 1984POPC   D2A27532  13.890  21.421   8.147
 1984POPC   C3A27533  13.768  21.592   7.737
 1984POPC   C4A27534  13.481  21.730   7.367
 1984POPC   C1B27535  13.675  21.081   8.506
 1984POPC   C2B27536  13.515  21.110   8.046
 1984POPC   C3B27537  13.394  21.276   7.629
 1984POPC   C4B27538  13.240  21.264   7.200
 1985POPC   NC327539  30.170  19.599   9.419
 1985POPC   PO427540  29.739  20.111   9.504
 1985POPC   GL127541  29.976  20.007   9.138
 1985POPC   GL227542  29.728  19.739   9.068
 1985POPC   C1A27543  29.928  20.001   8.692
 1985POPC   D2A27544  29.567  19.863   8.486
 1985POPC   C3A27545  29.610  19.847   8.042
 1985POPC   C4A27546  30.055  19.835   7.915
 1985POPC   C1B27547  30.067  19.536   8.769
 1985POPC   C2B27548  30.280  19.576   8.375
 1985POPC   C3B27549  30.228  19.368   8.012
 1985POPC   C4B27550  29.989  19.387   7.650
 1986POPC   NC327551  10.784   4.421   9.589
 1986POPC   PO427552  10.142   4.250   9.681
 1986POPC   GL127553  10.490   4.172   9.284
 1986POPC   GL227554  10.497   4.530   9.176
 1986POPC   C1A27555  10.519   4.176   8.814
 1986POPC   D2A27556  10.597   4.443   8.462
 1986POPC   C3A27557  10.574   4.266   8.062
 1986POPC   C4A27558  10.812   4.237   7.753
 1986POPC   C1B27559  10.349   4.741   8.791
 1986POPC   C2B27560  10.097   4.710   8.464
 1986POPC   C3B27561  10.269   4.673   8.089
 1986POPC   C4B27562  10.150   4.356   7.785
 1987POPC   NC327563  27.758   9.779   9.523
 1987POPC   PO427564  27.168   9.596   9.514
 1987POPC   GL127565  27.436   9.662   9.127
 1987POPC   GL227566  27.642   9.387   9.054
 1987POPC   C1A27567  27.733   9.849   8.785
 1987POPC   D2A27568  27.628   9.880   8.327
 1987POPC   C3A27569  27.934   9.798   8.000
 1987POPC   C4A27570  27.779   9.788   7.527
 1987POPC   C1B27571  27.433   9.459   8.645
 1987POPC   C2B27572  27.498   9.343   8.253
 1987POPC   C3B27573  27.520   9.544   7.905
 1987POPC   C4B27574  27.247   9.823   7.816
 1988POPC   NC327575   5.343  19.785   9.820
 1988POPC   PO427576   4.690  20.010   9.640
 1988POPC   GL127577   4.880  19.913   9.226
 1988POPC   GL227578   4.971  19.602   9.112
 1988POPC   C1A27579   4.839  19.928   8.748
 1988POPC   D2A27580   4.892  20.128   8.385
 1988POPC   C3A27581   4.801  19.876   8.027
 1988POPC   C4A27582   4.802  20.026   7.611
 1988POPC   C1B27583   5.239  19.619   8.721
 1988POPC   C2B27584   5.210  19.740   8.311
 1988POPC   C3B27585   5.334  19.592   7.934
 1988POPC   C4B27586   5.382  19.845   7.584
 1989POPC   NC327587   7.521  13.849   9.410
 1989POPC   PO427588   7.141  13.328   9.405
 1989POPC   GL127589   7.370  13.475   9.080
 1989POPC   GL227590   7.759  13.421   9.180
 1989POPC   C1A27591   7.221  13.736   8.714
 1989POPC   D2A27592   7.256  13.692   8.268
 1989POPC   C3A27593   7.241  13.770   7.835
 1989POPC   C4A27594   7.422  13.664   7.437
 1989POPC   C1B27595   7.725  13.695   8.811
 1989POPC   C2B27596   7.761  13.833   8.421
 1989POPC   C3B27597   7.725  13.743   8.046
 1989POPC   C4B27598   7.890  13.667   7.678
 1990POPC   NC327599  29.917  20.559   9.534
 1990POPC   PO427600  29.504  21.014   9.358
 1990POPC   GL127601  29.730  20.637   9.080
 1990POPC   GL227602  30.042  20.816   9.070
 1990POPC   C1A27603  30.046  20.483   8.685
 1990POPC   D2A27604  29.960  20.231   8.235
 1990POPC   C3A27605  29.807  20.242   7.754
 1990POPC   C4A27606  29.891  20.227   7.298
 1990POPC   C1B27607  29.739  20.921   8.688
 1990POPC   C2B27608  29.811  20.733   8.320
 1990POPC   C3B27609  29.846  20.703   7.922
 1990POPC   C4B27610  29.982  20.693   7.514
 1991POPC   NC327611  43.424  36.493   9.797
 1991POPC   PO427612  43.864  36.029   9.476
 1991POPC   GL127613  43.884  36.216   9.087
 1991POPC   GL227614  43.974  36.559   9.054
 1991POPC   C1A27615  43.661  36.114   8.719
 1991POPC   D2A27616  43.766  36.127   8.289
 1991POPC   C3A27617  44.153  36.009   8.151
 1991POPC   C4A27618  44.199  36.097   7.716
 1991POPC   C1B27619  43.815  36.597   8.655
 1991POPC   C2B27620  43.735  36.683   8.254
 1991POPC   C3B27621  43.932  36.483   7.918
 1991POPC   C4B27622  43.840  36.418   7.508
 1992POPC   NC327623  27.948  29.531   9.447
 1992POPC   PO427624  27.575  28.987   9.709
 1992POPC   GL127625  27.732  29.027   9.242
 1992POPC   GL227626  28.060  29.114   9.171
 1992POPC   C1A27627  27.573  28.997   8.794
 1992POPC   D2A27628  27.434  28.712   8.435
 1992POPC   C3A27629  27.534  28.874   8.020
 1992POPC   C4A27630  27.587  29.295   7.886
 1992POPC   C1B27631  28.056  28.857   8.797
 1992POPC   C2B27632  27.934  28.925   8.372
 1992POPC   C3B27633  28.083  29.170   8.006
 1992POPC   C4B27634  28.227  28.921   7.682
 1993POPC   NC327635  24.142  17.241   9.641
 1993POPC   PO427636  24.560  16.835   9.508
 1993POPC   GL127637  24.390  16.605   9.195
 1993POPC   GL227638  24.154  16.399   9.346
 1993POPC   C1A27639  24.307  16.750   8.804
 1993POPC   D2A27640  24.419  16.690   8.400
 1993POPC   C3A27641  24.363  16.840   7.998
 1993POPC   C4A27642  24.675  17.035   7.764
 1993POPC   C1B27643  24.092  16.295   8.881
 1993POPC   C2B27644  23.900  16.554   8.573
 1993POPC   C3B27645  23.967  16.533   8.147
 1993POPC   C4B27646  24.276  16.322   7.879
 1994POPC   NC327647  41.678  32.879   9.611
 1994POPC   PO427648  41.237  33.297   9.478
 1994POPC   GL127649  41.527  33.083   9.142
 1994POPC   GL227650  41.692  32.726   9.124
 1994POPC   C1A27651  41.550  33.007   8.682
 1994POPC   D2A27652  41.265  33.157   8.353
 1994POPC   C3A27653  41.201  32.965   7.957
 1994POPC   C4A27654  41.336  33.242   7.613
 1994POPC   C1B27655  41.420  32.512   8.811
 1994POPC   C2B27656  41.355  32.639   8.361
 1994POPC   C3B27657  41.620  32.657   7.994
 1994POPC   C4B27658  41.551  32.792   7.554
 1995POPC   NC327659   3.990  36.612   9.354
 1995POPC   PO427660   3.343  36.662   9.561
 1995POPC   GL127661   3.452  36.933   9.227
 1995POPC   GL227662   3.784  37.089   9.217
 1995POPC   C1A27663   3.354  37.031   8.822
 1995POPC   D2A27664   3.431  36.692   8.524
 1995POPC   C3A27665   3.510  36.683   8.064
 1995POPC   C4A27666   3.362  36.905   7.702
 1995POPC   C1B27667   3.839  36.873   8.797
 1995POPC   C2B27668   3.993  36.737   8.398
 1995POPC   C3B27669   3.925  36.952   8.009
 1995POPC   C4B27670   3.835  36.791   7.597
 1996POPC   NC327671  20.411  42.241   9.772
 1996POPC   PO427672  20.496  42.833   9.594
 1996POPC   GL127673  20.715  42.619   9.249
 1996POPC   GL227674  20.575  42.303   9.239
 1996POPC   C1A27675  20.819  42.634   8.806
 1996POPC   D2A27676  20.554  42.557   8.432
 1996POPC   C3A27677  20.803  42.537   8.060
 1996POPC   C4A27678  20.747  42.317   7.674
 1996POPC   C1B27679  20.599  42.159   8.801
 1996POPC   C2B27680  20.712  42.057   8.376
 1996POPC   C3B27681  20.428  42.172   8.056
 1996POPC   C4B27682  20.240  42.444   7.756
 1997POPC   NC327683  23.299   4.654   9.373
 1997POPC   PO427684  22.707   4.542   9.685
 1997POPC   GL127685  22.830   4.266   9.249
 1997POPC   GL227686  23.158   4.098   9.066
 1997POPC   C1A27687  22.753   4.131   8.776
 1997POPC   D2A27688  22.996   4.122   8.356
 1997POPC   C3A27689  22.832   4.096   7.921
 1997POPC   C4A27690  22.715   4.466   7.689
 1997POPC   C1B27691  23.150   4.465   8.759
 1997POPC   C2B27692  23.029   4.633   8.343
 1997POPC   C3B27693  23.175   4.476   7.952
 1997POPC   C4B27694  23.197   4.334   7.529
 1998POPC   NC327695   5.974   8.325   9.699
 1998POPC   PO427696   5.370   7.960   9.596
 1998POPC   GL127697   5.713   8.064   9.273
 1998POPC   GL227698   6.108   8.135   9.256
 1998POPC   C1A27699   5.878   7.956   8.857
 1998POPC   D2A27700   5.750   7.930   8.477
 1998POPC   C3A27701   5.863   8.034   8.124
 1998POPC   C4A27702   5.621   8.152   7.822
 1998POPC   C1B27703   5.936   8.462   8.996
 1998POPC   C2B27704   5.825   8.446   8.565
 1998POPC   C3B27705   5.853   8.539   8.133
 1998POPC   C4B27706   6.098   8.377   7.814
 1999POPC   NC327707  26.388   3.399   9.572
 1999POPC   PO427708  25.750   3.698   9.476
 1999POPC   GL127709  25.942   3.566   9.110
 1999POPC   GL227710  26.108   3.255   9.167
 1999POPC   C1A27711  25.928   3.409   8.695
 1999POPC   D2A27712  25.723   3.376   8.292
 1999POPC   C3A27713  25.890   3.719   8.047
 1999POPC   C4A27714  26.072   3.783   7.635
 1999POPC   C1B27715  26.377   3.136   8.838
 1999POPC   C2B27716  26.441   3.259   8.405
 1999POPC   C3B27717  26.183   3.313   8.028
 1999POPC   C4B27718  26.011   3.250   7.592
 2000POPC   NC327719  24.590  44.948   9.951
 2000POPC   PO427720  24.774   0.497   9.584
 2000POPC   GL127721  24.721   0.337   9.166
 2000POPC   GL227722  24.656   0.698   9.130
 2000POPC   C1A27723  24.391   0.390   8.832
 2000POPC   D2A27724  24.332   0.540   8.433
 2000POPC   C3A27725  24.313   0.216   8.164
 2000POPC   C4A27726  24.467   0.295   7.755
 2000POPC   C1B27727  24.563   0.890   8.744
 2000POPC   C2B27728  24.492   1.033   8.324
 2000POPC   C3B27729  24.519   0.780   7.948
 2000POPC   C4B27730  24.613   0.762   7.479
 2001POPC   NC327731  20.138   2.578   9.373
 2001POPC   PO427732  19.666   3.056   9.488
 2001POPC   GL127733  19.874   3.019   9.120
 2001POPC   GL227734  19.650   2.747   9.077
 2001POPC   C1A27735  19.764   3.038   8.688
 2001POPC   D2A27736  19.687   2.833   8.317
 2001POPC   C3A27737  20.081   2.828   8.148
 2001POPC   C4A27738  20.199   3.109   7.861
 2001POPC   C1B27739  19.589   2.525   8.710
 2001POPC   C2B27740  19.472   2.334   8.339
 2001POPC   C3B27741  19.803   2.389   8.091
 2001POPC   C4B27742  19.746   2.701   7.790
 2002POPC   NC327743  19.474  26.151   9.572
 2002POPC   PO427744  20.066  25.841   9.447
 2002POPC   GL127745  19.818  26.104   9.195
 2002POPC   GL227746  20.052  26.335   9.129
 2002POPC   C1A27747  19.705  26.131   8.772
 2002POPC   D2A27748  19.698  25.841   8.453
 2002POPC   C3A27749  19.788  26.012   8.106
 2002POPC   C4A27750  19.780  26.226   7.762
 2002POPC   C1B27751  20.224  26.123   8.797
 2002POPC   C2B27752  20.106  26.293   8.407
 2002POPC   C3B27753  20.253  26.215   7.986
 2002POPC   C4B27754  20.185  26.075   7.527
 2003POPC   NC327755   5.766  43.679   9.525
 2003POPC   PO427756   6.097  44.329   9.570
 2003POPC   GL127757   5.880  44.083   9.213
 2003POPC   GL227758   5.609  43.866   9.071
 2003POPC   C1A27759   6.013  43.920   8.783
 2003POPC   D2A27760   5.788  44.021   8.408
 2003POPC   C3A27761   6.050  44.160   8.064
 2003POPC   C4A27762   5.936  43.951   7.684
 2003POPC   C1B27763   5.351  43.627   8.783
 2003POPC   C2B27764   5.371  43.594   8.331
 2003POPC   C3B27765   5.661  43.686   8.008
 2003POPC   C4B27766   5.647  43.537   7.568
 2004POPC   NC327767  34.032   1.871   9.516
 2004POPC   PO427768  33.486   2.257   9.363
 2004POPC   GL127769  33.637   2.110   9.000
 2004POPC   GL227770  33.979   2.026   9.032
 2004POPC   C1A27771  33.659   1.859   8.654
 2004POPC   D2A27772  33.597   1.599   8.294
 2004POPC   C3A27773  33.426   1.882   8.006
 2004POPC   C4A27774  33.679   2.155   7.797
 2004POPC   C1B27775  34.150   2.157   8.648
 2004POPC   C2B27776  34.048   1.900   8.315
 2004POPC   C3B27777  34.000   1.776   7.929
 2004POPC   C4B27778  34.221   2.114   7.710
 2005POPC   NC327779  26.933  22.303   9.338
 2005POPC   PO427780  26.905  22.877   9.696
 2005POPC   GL127781  26.835  23.007   9.228
 2005POPC   GL227782  26.476  23.014   9.067
 2005POPC   C1A27783  26.850  23.244   8.815
 2005POPC   D2A27784  26.594  23.125   8.447
 2005POPC   C3A27785  26.847  23.001   8.094
 2005POPC   C4A27786  27.036  23.263   7.795
 2005POPC   C1B27787  26.327  22.754   8.721
 2005POPC   C2B27788  26.508  22.619   8.348
 2005POPC   C3B27789  26.400  22.797   7.965
 2005POPC   C4B27790  26.586  22.888   7.565
 2006POPC   NC327791   9.255  10.379   9.678
 2006POPC   PO427792   8.670  10.386   9.591
 2006POPC   GL127793   8.912  10.525   9.240
 2006POPC   GL227794   9.263  10.475   9.174
 2006POPC   C1A27795   8.940  10.672   8.828
 2006POPC   D2A27796   8.859  10.472   8.450
 2006POPC   C3A27797   8.903  10.726   8.122
 2006POPC   C4A27798   8.876  10.711   7.711
 2006POPC   C1B27799   9.428  10.538   8.747
 2006POPC   C2B27800   9.355  10.470   8.320
 2006POPC   C3B27801   9.299  10.444   7.882
 2006POPC   C4B27802   9.478  10.170   7.562
 2007POPC   NC327803   8.682  33.213   9.507
 2007POPC   PO427804   8.942  32.621   9.437
 2007POPC   GL127805   8.751  32.865   9.131
 2007POPC   GL227806   8.897  33.199   9.040
 2007POPC   C1A27807   8.684  32.790   8.723
 2007POPC   D2A27808   8.876  32.742   8.328
 2007POPC   C3A27809   8.897  33.071   8.027
 2007POPC   C4A27810   8.862  33.374   7.673
 2007POPC   C1B27811   9.181  32.914   8.813
 2007POPC   C2B27812   9.381  32.807   8.417
 2007POPC   C3B27813   9.328  32.762   8.010
 2007POPC   C4B27814   9.251  33.046   7.653
 2008POPC   NC327815  23.562   7.947   9.418
 2008POPC   PO427816  24.129   8.239   9.520
 2008POPC   GL127817  23.945   8.223   9.124
 2008POPC   GL227818  23.599   8.379   9.139
 2008POPC   C1A27819  23.847   7.964   8.762
 2008POPC   D2A27820  23.599   7.999   8.372
 2008POPC   C3A27821  23.863   7.955   8.018
 2008POPC   C4A27822  24.031   8.202   7.730
 2008POPC   C1B27823  23.352   8.257   8.770
 2008POPC   C2B27824  23.382   8.467   8.352
 2008POPC   C3B27825  23.597   8.408   7.993
 2008POPC   C4B27826  23.387   8.018   7.855
 2009POPC   NC327827  24.960  26.795   9.575
 2009POPC   PO427828  25.538  27.153   9.556
 2009POPC   GL127829  25.387  26.920   9.188
 2009POPC   GL227830  25.072  26.719   9.106
 2009POPC   C1A27831  25.243  27.084   8.792
 2009POPC   D2A27832  25.051  26.947   8.441
 2009POPC   C3A27833  25.176  27.087   8.036
 2009POPC   C4A27834  24.897  27.212   7.693
 2009POPC   C1B27835  25.278  26.572   8.783
 2009POPC   C2B27836  25.409  26.566   8.418
 2009POPC   C3B27837  25.297  26.590   8.033
 2009POPC   C4B27838  25.454  26.635   7.624
 2010POPC   NC327839  44.001  40.272   9.480
 2010POPC   PO427840  43.773  39.610   9.315
 2010POPC   GL127841  43.980  39.912   9.112
 2010POPC   GL227842  43.734  40.128   9.074
 2010POPC   C1A27843  44.184  39.815   8.776
 2010POPC   D2A27844  44.078  39.913   8.382
 2010POPC   C3A27845  43.771  39.778   8.106
 2010POPC   C4A27846  43.834  40.000   7.719
 2010POPC   C1B27847  43.676  39.994   8.676
 2010POPC   C2B27848  43.695  40.239   8.322
 2010POPC   C3B27849  43.447  40.172   8.008
 2010POPC   C4B27850  43.361  40.209   7.590
 2011POPC   NC327851  31.057  21.081   9.625
 2011POPC   PO427852  30.419  20.674   9.574
 2011POPC   GL127853  30.732  20.766   9.216
 2011POPC   GL227854  30.798  20.447   9.078
 2011POPC   C1A27855  31.003  20.824   8.834
 2011POPC   D2A27856  31.082  20.742   8.395
 2011POPC   C3A27857  30.797  20.780   8.034
 2011POPC   C4A27858  30.433  20.721   7.753
 2011POPC   C1B27859  30.442  20.197   8.903
 2011POPC   C2B27860  30.388  20.075   8.461
 2011POPC   C3B27861  30.463  20.188   8.009
 2011POPC   C4B27862  30.305  20.244   7.606
 2012POPC   NC327863  37.806  43.424   9.571
 2012POPC   PO427864  37.639  43.992   9.634
 2012POPC   GL127865  37.825  43.878   9.244
 2012POPC   GL227866  37.561  43.654   9.187
 2012POPC   C1A27867  37.800  43.798   8.780
 2012POPC   D2A27868  37.888  43.951   8.401
 2012POPC   C3A27869  37.624  43.819   8.095
 2012POPC   C4A27870  37.699  43.894   7.711
 2012POPC   C1B27871  37.496  43.397   8.825
 2012POPC   C2B27872  37.347  43.505   8.436
 2012POPC   C3B27873  37.268  43.382   8.042
 2012POPC   C4B27874  37.396  43.494   7.634
 2013POPC   NC327875   7.273  27.212   9.469
 2013POPC   PO427876   7.344  27.945   9.570
 2013POPC   GL127877   7.421  27.687   9.191
 2013POPC   GL227878   7.661  27.456   9.212
 2013POPC   C1A27879   7.388  27.552   8.749
 2013POPC   D2A27880   7.486  27.735   8.350
 2013POPC   C3A27881   7.271  27.606   7.969
 2013POPC   C4A27882   7.278  27.657   7.524
 2013POPC   C1B27883   7.830  27.306   8.860
 2013POPC   C2B27884   7.727  27.281   8.433
 2013POPC   C3B27885   7.788  27.475   8.044
 2013POPC   C4B27886   7.673  27.398   7.678
 2014POPC   NC327887  19.520   7.516   9.505
 2014POPC   PO427888  20.128   7.196   9.511
 2014POPC   GL127889  19.916   7.392   9.154
 2014POPC   GL227890  19.619   7.180   9.150
 2014POPC   C1A27891  19.995   7.751   8.803
 2014POPC   D2A27892  20.190   7.713   8.375
 2014POPC   C3A27893  19.932   7.655   7.988
 2014POPC   C4A27894  19.851   7.720   7.539
 2014POPC   C1B27895  19.608   7.425   8.762
 2014POPC   C2B27896  19.766   7.320   8.370
 2014POPC   C3B27897  19.577   7.295   7.967
 2014POPC   C4B27898  19.903   7.223   7.710
 2015POPC   NC327899  42.580  11.756   9.606
 2015POPC   PO427900  42.000  12.008   9.636
 2015POPC   GL127901  42.076  12.056   9.196
 2015POPC   GL227902  42.424  12.122   9.259
 2015POPC   C1A27903  41.992  12.206   8.748
 2015POPC   D2A27904  42.245  12.378   8.426
 2015POPC   C3A27905  42.127  12.350   8.024
 2015POPC   C4A27906  42.001  11.950   7.863
 2015POPC   C1B27907  42.482  11.948   8.866
 2015POPC   C2B27908  42.607  12.042   8.456
 2015POPC   C3B27909  42.499  11.984   8.031
 2015POPC   C4B27910  42.605  12.037   7.619
 2016POPC   NC327911   3.094  20.810   9.899
 2016POPC   PO427912   2.628  20.556   9.610
 2016POPC   GL127913   2.668  20.731   9.238
 2016POPC   GL227914   2.619  20.460   9.066
 2016POPC   C1A27915   2.706  20.892   8.809
 2016POPC   D2A27916   3.057  20.816   8.554
 2016POPC   C3A27917   2.980  20.683   8.141
 2016POPC   C4A27918   2.655  20.907   7.924
 2016POPC   C1B27919   2.447  20.332   8.672
 2016POPC   C2B27920   2.507  20.495   8.257
 2016POPC   C3B27921   2.681  20.370   7.843
 2016POPC   C4B27922   2.635  20.263   7.419
 2017POPC   NC327923   2.093  26.410   9.429
 2017POPC   PO427924   1.766  25.892   9.393
 2017POPC   GL127925   1.834  26.046   8.995
 2017POPC   GL227926   1.835  26.398   9.003
 2017POPC   C1A27927   2.109  25.844   8.692
 2017POPC   D2A27928   2.315  25.631   8.346
 2017POPC   C3A27929   2.062  25.758   8.020
 2017POPC   C4A27930   1.903  26.145   7.868
 2017POPC   C1B27931   2.159  26.387   8.691
 2017POPC   C2B27932   2.299  26.163   8.298
 2017POPC   C3B27933   2.426  26.177   7.857
 2017POPC   C4B27934   2.206  26.311   7.457
 2018POPC   NC327935  36.060  34.654   9.627
 2018POPC   PO427936  36.204  34.088   9.448
 2018POPC   GL127937  35.958  34.370   9.150
 2018POPC   GL227938  35.886  34.776   9.168
 2018POPC   C1A27939  36.189  34.509   8.780
 2018POPC   D2A27940  36.435  34.490   8.365
 2018POPC   C3A27941  36.449  34.547   7.879
 2018POPC   C4A27942  36.386  34.452   7.429
 2018POPC   C1B27943  35.744  34.760   8.755
 2018POPC   C2B27944  35.954  34.709   8.372
 2018POPC   C3B27945  36.046  34.829   7.986
 2018POPC   C4B27946  35.925  34.567   7.658
 2019POPC   NC327947  17.091  17.850   9.382
 2019POPC   PO427948  16.570  18.285   9.712
 2019POPC   GL127949  16.691  18.162   9.296
 2019POPC   GL227950  16.930  18.397   9.171
 2019POPC   C1A27951  16.606  18.065   8.872
 2019POPC   D2A27952  16.475  18.352   8.564
 2019POPC   C3A27953  16.612  18.198   8.183
 2019POPC   C4A27954  16.650  18.209   7.739
 2019POPC   C1B27955  17.015  18.311   8.723
 2019POPC   C2B27956  16.970  18.555   8.370
 2019POPC   C3B27957  16.832  18.626   7.994
 2019POPC   C4B27958  16.953  18.573   7.573
 2020POPC   NC327959   8.207  34.917   9.545
 2020POPC   PO427960   8.148  35.517   9.454
 2020POPC   GL127961   8.111  35.534   9.062
 2020POPC   GL227962   8.259  35.191   9.040
 2020POPC   C1A27963   8.072  35.523   8.625
 2020POPC   D2A27964   7.883  35.280   8.323
 2020POPC   C3A27965   8.208  35.198   8.038
 2020POPC   C4A27966   8.239  35.447   7.675
 2020POPC   C1B27967   8.034  34.982   8.709
 2020POPC   C2B27968   7.813  34.770   8.354
 2020POPC   C3B27969   7.762  34.954   7.938
 2020POPC   C4B27970   8.035  34.980   7.580
 2021POPC   NC327971  37.976  40.931   9.657
 2021POPC   PO427972  37.362  40.776   9.467
 2021POPC   GL127973  37.722  40.834   9.218
 2021POPC   GL227974  37.939  40.567   9.269
 2021POPC   C1A27975  37.786  41.055   8.848
 2021POPC   D2A27976  37.496  41.038   8.498
 2021POPC   C3A27977  37.660  40.949   8.082
 2021POPC   C4A27978  37.508  40.908   7.680
 2021POPC   C1B27979  38.102  40.618   8.867
 2021POPC   C2B27980  37.983  40.755   8.472
 2021POPC   C3B27981  38.142  40.644   8.100
 2021POPC   C4B27982  37.999  40.760   7.727
 2022POPC   NC327983  29.395  28.572   9.481
 2022POPC   PO427984  28.877  28.138   9.333
 2022POPC   GL127985  29.154  28.322   9.085
 2022POPC   GL227986  29.497  28.173   9.117
 2022POPC   C1A27987  28.982  28.401   8.690
 2022POPC   D2A27988  28.839  28.565   8.317
 2022POPC   C3A27989  28.951  28.298   7.987
 2022POPC   C4A27990  28.776  28.215   7.614
 2022POPC   C1B27991  29.493  28.362   8.725
 2022POPC   C2B27992  29.309  28.195   8.360
 2022POPC   C3B27993  29.448  28.047   8.018
 2022POPC   C4B27994  29.408  28.338   7.731
 2023POPC   NC327995  23.183  36.946   9.671
 2023POPC   PO427996  22.720  36.483   9.504
 2023POPC   GL127997  22.917  36.795   9.260
 2023POPC   GL227998  23.176  36.578   9.204
 2023POPC   C1A27999  22.889  37.065   8.895
 2023POPC   D2A28000  23.018  36.923   8.477
 2023POPC   C3A28001  22.806  37.019   8.098
 2023POPC   C4A28002  23.052  36.964   7.733
 2023POPC   C1B28003  22.849  36.549   8.818
 2023POPC   C2B28004  22.745  36.481   8.348
 2023POPC   C3B28005  22.813  36.524   7.895
 2023POPC   C4B28006  22.785  36.653   7.417
 2024POPC   NC328007  37.233   2.134   9.740
 2024POPC   PO428008  36.762   1.637   9.696
 2024POPC   GL128009  36.875   1.813   9.248
 2024POPC   GL228010  36.982   1.570   9.056
 2024POPC   C1A28011  36.985   2.096   8.896
 2024POPC   D2A28012  37.149   2.100   8.467
 2024POPC   C3A28013  36.881   2.191   8.111
 2024POPC   C4A28014  37.157   2.126   7.756
 2024POPC   C1B28015  36.659   1.713   8.799
 2024POPC   C2B28016  36.765   1.733   8.390
 2024POPC   C3B28017  36.972   1.705   8.036
 2024POPC   C4B28018  36.765   1.833   7.686
 2025POPC   NC328019  20.339  23.063   9.516
 2025POPC   PO428020  20.963  22.751   9.482
 2025POPC   GL128021  20.721  22.985   9.134
 2025POPC   GL228022  20.398  23.225   9.054
 2025POPC   C1A28023  20.801  22.950   8.693
 2025POPC   D2A28024  20.831  23.161   8.320
 2025POPC   C3A28025  20.690  22.913   7.960
 2025POPC   C4A28026  20.903  22.671   7.694
 2025POPC   C1B28027  20.316  22.855   8.785
 2025POPC   C2B28028  20.389  22.781   8.369
 2025POPC   C3B28029  20.156  22.698   8.021
 2025POPC   C4B28030  20.220  22.969   7.671
 2026POPC   NC328031  22.091   2.995   9.638
 2026POPC   PO428032  22.142   3.717   9.659
 2026POPC   GL128033  22.127   3.458   9.291
 2026POPC   GL228034  22.429   3.394   9.159
 2026POPC   C1A28035  21.927   3.470   8.857
 2026POPC   D2A28036  22.036   3.725   8.502
 2026POPC   C3A28037  21.950   3.573   8.082
 2026POPC   C4A28038  22.117   3.483   7.704
 2026POPC   C1B28039  22.338   3.188   8.733
 2026POPC   C2B28040  22.366   3.348   8.299
 2026POPC   C3B28041  22.477   3.165   7.905
 2026POPC   C4B28042  22.487   3.206   7.470
 2027POPC   NC328043  12.504  12.205   9.246
 2027POPC   PO428044  11.921  12.353   9.527
 2027POPC   GL128045  12.017  12.125   9.085
 2027POPC   GL228046  12.256  12.281   8.822
 2027POPC   C1A28047  11.904  11.954   8.640
 2027POPC   D2A28048  12.058  11.684   8.265
 2027POPC   C3A28049  11.997  11.921   7.892
 2027POPC   C4A28050  11.738  11.872   7.525
 2027POPC   C1B28051  11.859  12.462   8.751
 2027POPC   C2B28052  11.661  12.568   8.363
 2027POPC   C3B28053  11.968  12.507   8.036
 2027POPC   C4B28054  12.321  12.365   7.804
 2028POPC   NC328055  10.852   6.179   9.409
 2028POPC   PO428056  10.180   6.053   9.359
 2028POPC   GL128057  10.495   5.952   9.085
 2028POPC   GL228058  10.581   5.603   9.188
 2028POPC   C1A28059  10.403   6.048   8.649
 2028POPC   D2A28060  10.565   6.187   8.260
 2028POPC   C3A28061  10.329   6.107   7.884
 2028POPC   C4A28062  10.519   5.933   7.519
 2028POPC   C1B28063  10.308   5.568   8.803
 2028POPC   C2B28064  10.489   5.615   8.375
 2028POPC   C3B28065  10.689   5.751   7.994
 2028POPC   C4B28066  10.740   5.509   7.662
 2029POPC   NC328067  11.977  27.123   9.514
 2029POPC   PO428068  11.839  26.492   9.463
 2029POPC   GL128069  11.938  26.800   9.124
 2029POPC   GL228070  12.230  26.992   9.070
 2029POPC   C1A28071  11.898  26.914   8.685
 2029POPC   D2A28072  12.041  26.690   8.325
 2029POPC   C3A28073  11.812  26.693   7.947
 2029POPC   C4A28074  11.771  27.099   7.743
 2029POPC   C1B28075  12.426  26.976   8.661
 2029POPC   C2B28076  12.526  26.895   8.267
 2029POPC   C3B28077  12.312  26.911   7.882
 2029POPC   C4B28078  12.454  26.687   7.516
 2030POPC   NC328079  43.687  11.922   9.841
 2030POPC   PO428080  43.029  11.866   9.591
 2030POPC   GL128081  42.906  11.897   9.182
 2030POPC   GL228082  43.000  12.255   9.086
 2030POPC   C1A28083  43.009  11.886   8.745
 2030POPC   D2A28084  43.073  12.243   8.475
 2030POPC   C3A28085  43.050  12.076   8.091
 2030POPC   C4A28086  43.144  12.191   7.701
 2030POPC   C1B28087  43.395  12.399   8.830
 2030POPC   C2B28088  43.627  12.532   8.467
 2030POPC   C3B28089  43.431  12.447   8.055
 2030POPC   C4B28090  43.613  12.387   7.626
 2031POPC   NC328091  22.532  26.982   9.633
 2031POPC   PO428092  22.843  26.396   9.609
 2031POPC   GL128093  22.903  26.532   9.180
 2031POPC   GL228094  22.887  26.866   9.209
 2031POPC   C1A28095  22.797  26.704   8.752
 2031POPC   D2A28096  22.908  26.919   8.389
 2031POPC   C3A28097  22.783  26.598   8.129
 2031POPC   C4A28098  22.758  26.466   7.740
 2031POPC   C1B28099  22.579  27.123   8.989
 2031POPC   C2B28100  22.531  27.238   8.571
 2031POPC   C3B28101  22.490  27.116   8.149
 2031POPC   C4B28102  22.747  27.002   7.819
 2032POPC   NC328103   8.680  21.676   9.611
 2032POPC   PO428104   9.217  21.286   9.440
 2032POPC   GL128105   8.907  21.333   9.152
 2032POPC   GL228106   8.898  21.677   9.155
 2032POPC   C1A28107   9.002  21.253   8.728
 2032POPC   D2A28108   9.137  21.112   8.323
 2032POPC   C3A28109   8.872  21.018   8.001
 2032POPC   C4A28110   8.955  21.261   7.656
 2032POPC   C1B28111   8.751  21.685   8.750
 2032POPC   C2B28112   9.029  21.669   8.396
 2032POPC   C3B28113   8.988  21.649   7.962
 2032POPC   C4B28114   8.658  21.838   7.702
 2033POPC   NC328115   4.014  20.466   9.707
 2033POPC   PO428116   3.522  20.850   9.703
 2033POPC   GL128117   3.496  20.647   9.288
 2033POPC   GL228118   3.139  20.544   9.346
 2033POPC   C1A28119   3.588  20.779   8.820
 2033POPC   D2A28120   3.514  20.987   8.404
 2033POPC   C3A28121   3.767  20.881   8.069
 2033POPC   C4A28122   3.682  20.764   7.649
 2033POPC   C1B28123   3.197  20.468   8.897
 2033POPC   C2B28124   3.414  20.457   8.461
 2033POPC   C3B28125   3.554  20.415   8.027
 2033POPC   C4B28126   3.245  20.508   7.718
 2034POPC   NC328127  30.835  38.699   9.473
 2034POPC   PO428128  30.678  38.066   9.620
 2034POPC   GL128129  30.660  38.267   9.224
 2034POPC   GL228130  30.415  38.519   9.216
 2034POPC   C1A28131  30.803  38.399   8.823
 2034POPC   D2A28132  30.806  38.228   8.405
 2034POPC   C3A28133  31.055  38.406   8.075
 2034POPC   C4A28134  30.899  38.398   7.648
 2034POPC   C1B28135  30.292  38.475   8.771
 2034POPC   C2B28136  30.351  38.443   8.339
 2034POPC   C3B28137  30.520  38.464   7.968
 2034POPC   C4B28138  30.370  38.369   7.551
 2035POPC   NC328139  43.726  13.507   9.284
 2035POPC   PO428140  44.142  13.979   9.544
 2035POPC   GL128141  44.095  13.816   9.132
 2035POPC   GL228142  44.181  13.498   9.008
 2035POPC   C1A28143  43.804  13.855   8.749
 2035POPC   D2A28144  43.910  13.947   8.329
 2035POPC   C3A28145  44.103  13.678   8.011
 2035POPC   C4A28146  44.062  13.743   7.568
 2035POPC   C1B28147  44.054  13.450   8.579
 2035POPC   C2B28148  43.717  13.453   8.288
 2035POPC   C3B28149  43.780  13.242   7.882
 2035POPC   C4B28150  44.069  13.235   7.507
 2036POPC   NC328151   9.095   5.427   9.419
 2036POPC   PO428152   8.657   4.909   9.448
 2036POPC   GL128153   8.728   5.152   9.081
 2036POPC   GL228154   9.083   5.164   8.989
 2036POPC   C1A28155   8.747   5.308   8.644
 2036POPC   D2A28156   9.040   5.354   8.298
 2036POPC   C3A28157   8.952   5.396   7.843
 2036POPC   C4A28158   9.171   5.436   7.445
 2036POPC   C1B28159   9.114   4.888   8.613
 2036POPC   C2B28160   8.935   4.501   8.379
 2036POPC   C3B28161   9.075   4.507   7.958
 2036POPC   C4B28162   9.214   4.877   7.747
 2037POPC   NC328163  18.299  19.459   9.623
 2037POPC   PO428164  18.021  18.802   9.472
 2037POPC   GL128165  18.097  19.076   9.099
 2037POPC   GL228166  18.309  19.373   9.126
 2037POPC   C1A28167  18.442  19.003   8.773
 2037POPC   D2A28168  18.614  19.047   8.362
 2037POPC   C3A28169  18.309  18.926   8.053
 2037POPC   C4A28170  18.343  18.820   7.603
 2037POPC   C1B28171  18.609  19.486   8.792
 2037POPC   C2B28172  18.616  19.599   8.366
 2037POPC   C3B28173  18.366  19.428   8.072
 2037POPC   C4B28174  18.565  19.249   7.742
 2038POPC   NC328175  24.555  38.813   9.630
 2038POPC   PO428176  24.126  39.320   9.348
 2038POPC   GL128177  24.455  39.079   9.205
 2038POPC   GL228178  24.254  38.875   9.012
 2038POPC   C1A28179  24.742  38.914   8.881
 2038POPC   D2A28180  24.898  38.820   8.430
 2038POPC   C3A28181  24.770  39.081   8.070
 2038POPC   C4A28182  24.687  39.230   7.669
 2038POPC   C1B28183  24.341  39.254   8.738
 2038POPC   C2B28184  24.441  39.368   8.335
 2038POPC   C3B28185  24.250  39.212   7.963
 2038POPC   C4B28186  23.979  39.453   7.727
 2039POPC   NC328187  12.685  16.661   9.532
 2039POPC   PO428188  13.313  16.284   9.582
 2039POPC   GL128189  13.128  16.579   9.171
 2039POPC   GL228190  12.813  16.823   9.083
 2039POPC   C1A28191  13.099  16.603   8.694
 2039POPC   D2A28192  13.152  16.516   8.258
 2039POPC   C3A28193  12.828  16.735   8.024
 2039POPC   C4A28194  12.928  16.792   7.586
 2039POPC   C1B28195  12.597  16.553   8.813
 2039POPC   C2B28196  12.693  16.363   8.410
 2039POPC   C3B28197  12.489  16.340   8.015
 2039POPC   C4B28198  12.494  16.561   7.625
 2040POPC   NC328199   9.779  41.157   9.669
 2040POPC   PO428200   9.609  41.741   9.644
 2040POPC   GL128201   9.797  41.678   9.245
 2040POPC   GL228202   9.547  41.536   9.036
 2040POPC   C1A28203   9.954  41.747   8.795
 2040POPC   D2A28204  10.026  41.530   8.379
 2040POPC   C3A28205   9.959  41.750   7.986
 2040POPC   C4A28206   9.872  41.717   7.543
 2040POPC   C1B28207   9.354  41.282   8.713
 2040POPC   C2B28208   9.634  41.141   8.397
 2040POPC   C3B28209   9.620  41.333   8.006
 2040POPC   C4B28210   9.266  41.171   7.767
 2041POPC   NC328211  17.391  12.513   9.524
 2041POPC   PO428212  17.500  13.198   9.675
 2041POPC   GL128213  17.332  12.999   9.277
 2041POPC   GL228214  17.632  12.904   9.087
 2041POPC   C1A28215  17.177  12.929   8.821
 2041POPC   D2A28216  17.481  12.899   8.487
 2041POPC   C3A28217  17.346  12.997   8.080
 2041POPC   C4A28218  17.364  13.212   7.684
 2041POPC   C1B28219  17.503  12.522   8.866
 2041POPC   C2B28220  17.519  12.380   8.439
 2041POPC   C3B28221  17.704  12.625   8.091
 2041POPC   C4B28222  17.571  12.745   7.682
 2042POPC   NC328223  30.737  34.941   9.737
 2042POPC   PO428224  31.185  34.524   9.375
 2042POPC   GL128225  30.904  34.583   9.045
 2042POPC   GL228226  30.635  34.791   9.181
 2042POPC   C1A28227  30.834  34.540   8.646
 2042POPC   D2A28228  31.053  34.720   8.331
 2042POPC   C3A28229  30.737  34.668   8.076
 2042POPC   C4A28230  30.748  34.390   7.743
 2042POPC   C1B28231  30.362  34.708   8.846
 2042POPC   C2B28232  30.323  34.634   8.400
 2042POPC   C3B28233  30.242  34.679   7.950
 2042POPC   C4B28234  30.341  34.512   7.495
 2043POPC   NC328235  10.644   9.737   9.649
 2043POPC   PO428236  10.138   9.374   9.426
 2043POPC   GL128237  10.481   9.582   9.186
 2043POPC   GL228238  10.583   9.946   9.182
 2043POPC   C1A28239  10.661   9.529   8.792
 2043POPC   D2A28240  10.688   9.309   8.421
 2043POPC   C3A28241  10.528   9.597   8.154
 2043POPC   C4A28242  10.493   9.628   7.744
 2043POPC   C1B28243  10.729  10.046   8.771
 2043POPC   C2B28244  10.696  10.049   8.324
 2043POPC   C3B28245  10.542  10.100   7.934
 2043POPC   C4B28246  10.612  10.104   7.529
 2044POPC   NC328247  33.676  15.885   9.683
 2044POPC   PO428248  34.343  15.852   9.520
 2044POPC   GL128249  33.943  15.853   9.239
 2044POPC   GL228250  33.840  16.190   9.282
 2044POPC   C1A28251  33.619  15.788   8.877
 2044POPC   D2A28252  33.408  15.739   8.420
 2044POPC   C3A28253  33.631  15.912   8.061
 2044POPC   C4A28254  33.846  15.967   7.690
 2044POPC   C1B28255  33.913  16.199   8.827
 2044POPC   C2B28256  33.894  16.235   8.377
 2044POPC   C3B28257  34.159  16.265   8.018
 2044POPC   C4B28258  34.146  16.381   7.596
 2045POPC   NC328259  40.106   7.714   9.460
 2045POPC   PO428260  40.375   7.143   9.598
 2045POPC   GL128261  39.996   7.123   9.262
 2045POPC   GL228262  39.857   7.449   9.117
 2045POPC   C1A28263  39.996   7.101   8.774
 2045POPC   D2A28264  40.332   7.285   8.485
 2045POPC   C3A28265  40.353   7.112   8.064
 2045POPC   C4A28266  40.357   7.313   7.593
 2045POPC   C1B28267  39.937   7.632   8.714
 2045POPC   C2B28268  39.852   7.408   8.330
 2045POPC   C3B28269  40.019   7.486   7.949
 2045POPC   C4B28270  40.072   7.741   7.625
 2046POPC   NC328271  22.357   7.016   9.836
 2046POPC   PO428272  21.836   7.104   9.355
 2046POPC   GL128273  21.912   6.684   9.182
 2046POPC   GL228274  22.203   6.463   9.191
 2046POPC   C1A28275  21.846   6.679   8.758
 2046POPC   D2A28276  21.833   6.939   8.399
 2046POPC   C3A28277  21.750   6.684   8.051
 2046POPC   C4A28278  21.965   6.487   7.710
 2046POPC   C1B28279  22.342   6.592   8.753
 2046POPC   C2B28280  22.211   6.580   8.297
 2046POPC   C3B28281  22.444   6.601   7.889
 2046POPC   C4B28282  22.417   6.340   7.495
 2047POPC   NC328283  28.564  19.535   9.443
 2047POPC   PO428284  28.388  18.870   9.628
 2047POPC   GL128285  28.314  19.089   9.239
 2047POPC   GL228286  27.946  19.105   9.238
 2047POPC   C1A28287  28.514  19.149   8.804
 2047POPC   D2A28288  28.653  18.840   8.484
 2047POPC   C3A28289  28.499  19.001   8.091
 2047POPC   C4A28290  28.475  18.887   7.657
 2047POPC   C1B28291  27.999  19.297   8.859
 2047POPC   C2B28292  28.109  19.135   8.480
 2047POPC   C3B28293  28.210  19.434   8.188
 2047POPC   C4B28294  28.157  19.277   7.805
 2048POPC   NC328295  42.121  27.990   9.891
 2048POPC   PO428296  42.066  28.608   9.572
 2048POPC   GL128297  42.327  28.434   9.191
 2048POPC   GL228298  42.605  28.178   9.081
 2048POPC   C1A28299  42.368  28.459   8.746
 2048POPC   D2A28300  42.196  28.697   8.446
 2048POPC   C3A28301  42.074  28.494   8.095
 2048POPC   C4A28302  42.245  28.639   7.706
 2048POPC   C1B28303  42.790  28.000   8.730
 2048POPC   C2B28304  42.668  28.188   8.358
 2048POPC   C3B28305  42.534  28.280   7.958
 2048POPC   C4B28306  42.527  28.006   7.621
 2049POPC   NC328307   7.783  42.654   9.448
 2049POPC   PO428308   7.255  42.181   9.522
 2049POPC   GL128309   7.465  42.246   9.170
 2049POPC   GL228310   7.779  42.161   9.266
 2049POPC   C1A28311   7.381  42.449   8.786
 2049POPC   D2A28312   7.497  42.678   8.429
 2049POPC   C3A28313   7.305  42.515   8.076
 2049POPC   C4A28314   7.080  42.424   7.719
 2049POPC   C1B28315   7.847  42.124   8.820
 2049POPC   C2B28316   7.666  42.165   8.409
 2049POPC   C3B28317   7.774  42.302   8.006
 2049POPC   C4B28318   7.541  42.185   7.662
 2050POPC   NC328319  23.942  43.294   9.496
 2050POPC   PO428320  23.288  43.183   9.470
 2050POPC   GL128321  23.602  43.148   9.127
 2050POPC   GL228322  23.765  43.478   9.050
 2050POPC   C1A28323  23.881  43.014   8.775
 2050POPC   D2A28324  23.864  42.755   8.387
 2050POPC   C3A28325  24.059  42.811   7.969
 2050POPC   C4A28326  23.850  43.084   7.686
 2050POPC   C1B28327  23.562  43.412   8.654
 2050POPC   C2B28328  23.479  43.503   8.198
 2050POPC   C3B28329  23.560  43.492   7.743
 2050POPC   C4B28330  23.338  43.488   7.335
 2051POPC   NC328331  21.374  32.165   9.584
 2051POPC   PO428332  20.991  32.695   9.415
 2051POPC   GL128333  21.215  32.352   9.123
 2051POPC   GL228334  21.157  31.965   9.128
 2051POPC   C1A28335  21.403  32.296   8.693
 2051POPC   D2A28336  21.356  32.493   8.274
 2051POPC   C3A28337  21.650  32.394   7.987
 2051POPC   C4A28338  21.687  32.232   7.566
 2051POPC   C1B28339  21.298  31.778   8.709
 2051POPC   C2B28340  21.348  31.948   8.266
 2051POPC   C3B28341  21.400  31.891   7.809
 2051POPC   C4B28342  21.134  31.740   7.476
 2052POPC   NC328343  29.604  16.420   9.371
 2052POPC   PO428344  29.994  16.982   9.346
 2052POPC   GL128345  29.748  16.784   9.054
 2052POPC   GL228346  29.513  17.042   9.002
 2052POPC   C1A28347  29.839  16.568   8.675
 2052POPC   D2A28348  29.720  16.350   8.297
 2052POPC   C3A28349  29.878  16.528   7.895
 2052POPC   C4A28350  29.791  16.807   7.524
 2052POPC   C1B28351  29.894  17.126   8.722
 2052POPC   C2B28352  29.971  16.938   8.332
 2052POPC   C3B28353  30.064  16.999   7.932
 2052POPC   C4B28354  30.336  17.210   7.701
 2053POPC   NC328355  18.833  25.860   9.487
 2053POPC   PO428356  19.137  26.479   9.582
 2053POPC   GL128357  19.014  26.241   9.197
 2053POPC   GL228358  19.299  26.022   9.119
 2053POPC   C1A28359  18.957  26.058   8.751
 2053POPC   D2A28360  18.761  25.932   8.341
 2053POPC   C3A28361  18.924  26.101   7.938
 2053POPC   C4A28362  19.026  26.008   7.481
 2053POPC   C1B28363  19.478  25.687   8.890
 2053POPC   C2B28364  19.239  25.681   8.543
 2053POPC   C3B28365  19.213  25.745   8.155
 2053POPC   C4B28366  19.388  25.899   7.811
 2054POPC   NC328367  11.503  14.495   9.503
 2054POPC   PO428368  11.218  13.874   9.382
 2054POPC   GL128369  11.408  14.058   9.063
 2054POPC   GL228370  11.495  14.437   9.003
 2054POPC   C1A28371  11.557  14.055   8.668
 2054POPC   D2A28372  11.500  14.405   8.420
 2054POPC   C3A28373  11.334  14.357   8.014
 2054POPC   C4A28374  11.462  14.589   7.697
 2054POPC   C1B28375  11.241  14.736   8.737
 2054POPC   C2B28376  11.024  14.569   8.353
 2054POPC   C3B28377  10.914  14.744   7.958
 2054POPC   C4B28378  10.989  14.718   7.518
 2055POPC   NC328379  23.585  37.373   9.591
 2055POPC   PO428380  24.086  37.735   9.764
 2055POPC   GL128381  23.898  37.482   9.218
 2055POPC   GL228382  23.511  37.354   9.109
 2055POPC   C1A28383  23.640  37.696   8.782
 2055POPC   D2A28384  23.799  37.876   8.398
 2055POPC   C3A28385  23.563  37.803   8.055
 2055POPC   C4A28386  23.769  37.871   7.689
 2055POPC   C1B28387  23.789  37.205   8.780
 2055POPC   C2B28388  23.825  37.374   8.379
 2055POPC   C3B28389  23.942  37.470   7.976
 2055POPC   C4B28390  23.598  37.370   7.726
 2056POPC   NC328391  19.664   5.871   9.467
 2056POPC   PO428392  20.320   5.619   9.489
 2056POPC   GL128393  20.134   5.867   9.154
 2056POPC   GL228394  19.842   6.036   9.022
 2056POPC   C1A28395  20.102   5.751   8.720
 2056POPC   D2A28396  19.827   5.955   8.409
 2056POPC   C3A28397  19.998   5.950   7.966
 2056POPC   C4A28398  19.718   5.985   7.586
 2056POPC   C1B28399  19.542   5.785   8.819
 2056POPC   C2B28400  19.411   5.597   8.450
 2056POPC   C3B28401  19.656   5.584   8.077
 2056POPC   C4B28402  19.441   5.588   7.700
 2057POPC   NC328403  24.692  43.714   9.791
 2057POPC   PO428404  24.388  43.160   9.576
 2057POPC   GL128405  24.291  43.140   9.154
 2057POPC   GL228406  24.622  43.003   9.138
 2057POPC   C1A28407  24.337  43.288   8.738
 2057POPC   D2A28408  24.269  43.075   8.355
 2057POPC   C3A28409  24.204  43.313   7.970
 2057POPC   C4A28410  24.377  43.208   7.549
 2057POPC   C1B28411  24.825  43.078   8.768
 2057POPC   C2B28412  24.744  43.251   8.377
 2057POPC   C3B28413  24.658  43.084   7.959
 2057POPC   C4B28414  24.903  43.241   7.605
 2058POPC   NC328415  35.607  25.039   9.240
 2058POPC   PO428416  35.065  25.415   9.469
 2058POPC   GL128417  35.055  25.247   9.031
 2058POPC   GL228418  35.239  24.927   8.884
 2058POPC   C1A28419  35.021  25.225   8.563
 2058POPC   D2A28420  35.095  24.888   8.281
 2058POPC   C3A28421  35.342  25.128   8.000
 2058POPC   C4A28422  35.687  25.445   7.898
 2058POPC   C1B28423  35.540  24.883   8.550
 2058POPC   C2B28424  35.614  24.732   8.136
 2058POPC   C3B28425  35.656  24.774   7.677
 2058POPC   C4B28426  35.365  24.839   7.318
 2059POPC   NC328427  44.020   7.049   9.830
 2059POPC   PO428428  43.727   6.535   9.481
 2059POPC   GL128429  43.793   6.428   9.113
 2059POPC   GL228430  43.962   6.140   9.165
 2059POPC   C1A28431  43.738   6.600   8.692
 2059POPC   D2A28432  43.686   6.994   8.435
 2059POPC   C3A28433  43.757   6.870   7.994
 2059POPC   C4A28434  43.830   6.496   7.823
 2059POPC   C1B28435  44.195   6.362   8.816
 2059POPC   C2B28436  44.171   6.182   8.454
 2059POPC   C3B28437  43.945   6.131   8.131
 2059POPC   C4B28438  44.047   6.023   7.723
 2060POPC   NC328439  33.662  23.991   9.569
 2060POPC   PO428440  33.566  24.638   9.535
 2060POPC   GL128441  33.784  24.546   9.156
 2060POPC   GL228442  33.780  24.247   9.151
 2060POPC   C1A28443  33.901  24.611   8.696
 2060POPC   D2A28444  34.147  24.636   8.295
 2060POPC   C3A28445  33.926  24.400   7.966
 2060POPC   C4A28446  33.658  24.488   7.630
 2060POPC   C1B28447  33.668  24.127   8.726
 2060POPC   C2B28448  33.375  24.142   8.367
 2060POPC   C3B28449  33.501  24.106   7.945
 2060POPC   C4B28450  33.626  23.962   7.505
 2061POPC   NC328451   7.825   9.503   9.296
 2061POPC   PO428452   8.196   9.988   9.623
 2061POPC   GL128453   8.362   9.691   9.263
 2061POPC   GL228454   8.216   9.576   8.928
 2061POPC   C1A28455   8.677   9.794   8.945
 2061POPC   D2A28456   8.621  10.033   8.553
 2061POPC   C3A28457   8.288   9.916   8.253
 2061POPC   C4A28458   8.318   9.748   7.840
 2061POPC   C1B28459   7.875   9.480   8.606
 2061POPC   C2B28460   7.819   9.162   8.276
 2061POPC   C3B28461   7.706   9.219   7.852
 2061POPC   C4B28462   7.836   9.618   7.783
 2062POPC   NC328463   9.941  32.213   9.608
 2062POPC   PO428464   9.848  32.834   9.331
 2062POPC   GL128465   9.680  32.462   9.129
 2062POPC   GL228466   9.646  32.121   9.104
 2062POPC   C1A28467   9.592  32.454   8.707
 2062POPC   D2A28468   9.876  32.659   8.402
 2062POPC   C3A28469   9.835  32.455   8.012
 2062POPC   C4A28470   9.462  32.266   7.868
 2062POPC   C1B28471   9.396  31.973   8.760
 2062POPC   C2B28472   9.459  31.853   8.335
 2062POPC   C3B28473   9.826  31.918   8.114
 2062POPC   C4B28474   9.874  32.013   7.707
 2063POPC   NC328475  21.410   6.935   9.525
 2063POPC   PO428476  21.732   6.406   9.659
 2063POPC   GL128477  21.455   6.506   9.277
 2063POPC   GL228478  21.560   6.237   9.129
 2063POPC   C1A28479  21.263   6.613   8.890
 2063POPC   D2A28480  21.424   6.607   8.480
 2063POPC   C3A28481  21.211   6.699   8.117
 2063POPC   C4A28482  21.367   6.593   7.709
 2063POPC   C1B28483  21.875   6.181   8.837
 2063POPC   C2B28484  21.821   6.269   8.408
 2063POPC   C3B28485  21.479   6.249   8.099
 2063POPC   C4B28486  21.607   6.142   7.734
 2064POPC   NC328487  15.162  20.956   9.436
 2064POPC   PO428488  14.971  20.327   9.506
 2064POPC   GL128489  15.124  20.485   9.135
 2064POPC   GL228490  15.484  20.498   9.195
 2064POPC   C1A28491  15.090  20.682   8.718
 2064POPC   D2A28492  14.827  20.594   8.368
 2064POPC   C3A28493  15.037  20.669   8.002
 2064POPC   C4A28494  14.967  20.440   7.633
 2064POPC   C1B28495  15.470  20.355   8.756
 2064POPC   C2B28496  15.348  20.400   8.349
 2064POPC   C3B28497  15.304  20.234   7.962
 2064POPC   C4B28498  15.484  20.370   7.615
 2065POPC   NC328499  42.608   4.158   9.401
 2065POPC   PO428500  42.148   4.727   9.435
 2065POPC   GL128501  42.380   4.523   9.130
 2065POPC   GL228502  42.757   4.599   9.143
 2065POPC   C1A28503  42.241   4.310   8.773
 2065POPC   D2A28504  42.025   4.343   8.400
 2065POPC   C3A28505  42.138   4.090   8.068
 2065POPC   C4A28506  42.270   4.226   7.681
 2065POPC   C1B28507  42.750   4.277   8.777
 2065POPC   C2B28508  42.552   4.226   8.370
 2065POPC   C3B28509  42.674   4.123   7.968
 2065POPC   C4B28510  42.744   4.393   7.593
 2066POPC   NC328511  19.777  31.341   9.491
 2066POPC   PO428512  19.743  31.939   9.623
 2066POPC   GL128513  19.870  31.721   9.180
 2066POPC   GL228514  20.198  31.703   9.043
 2066POPC   C1A28515  19.838  31.924   8.766
 2066POPC   D2A28516  20.064  32.002   8.414
 2066POPC   C3A28517  19.828  31.878   8.093
 2066POPC   C4A28518  19.825  31.621   7.744
 2066POPC   C1B28519  19.957  31.420   8.775
 2066POPC   C2B28520  19.744  31.116   8.544
 2066POPC   C3B28521  19.737  31.200   8.117
 2066POPC   C4B28522  19.701  31.117   7.706
 2067POPC   NC328523   9.374   0.777   9.324
 2067POPC   PO428524   9.949   0.335   9.538
 2067POPC   GL128525  10.043   0.461   9.156
 2067POPC   GL228526   9.683   0.395   9.107
 2067POPC   C1A28527   9.935   0.638   8.752
 2067POPC   D2A28528   9.711   0.675   8.363
 2067POPC   C3A28529   9.932   0.776   8.001
 2067POPC   C4A28530   9.933   0.450   7.811
 2067POPC   C1B28531   9.439   0.443   8.757
 2067POPC   C2B28532   9.252   0.303   8.395
 2067POPC   C3B28533   9.422   0.407   8.002
 2067POPC   C4B28534   9.210   0.629   7.681
 2068POPC   NC328535  30.429   0.908   9.308
 2068POPC   PO428536  30.926   0.452   9.472
 2068POPC   GL128537  30.715   0.462   9.109
 2068POPC   GL228538  31.070   0.427   8.963
 2068POPC   C1A28539  30.624   0.359   8.696
 2068POPC   D2A28540  30.761   0.478   8.304
 2068POPC   C3A28541  30.493   0.423   7.936
 2068POPC   C4A28542  30.720   0.392   7.584
 2068POPC   C1B28543  31.126   0.082   8.682
 2068POPC   C2B28544  30.809  44.927   8.439
 2068POPC   C3B28545  30.875   0.053   8.012
 2068POPC   C4B28546  30.832  44.844   7.641
 2069POPC   NC328547  36.501  27.013   9.562
 2069POPC   PO428548  35.953  26.773   9.792
 2069POPC   GL128549  36.010  26.836   9.299
 2069POPC   GL228550  36.319  26.869   9.122
 2069POPC   C1A28551  35.911  26.849   8.829
 2069POPC   D2A28552  35.904  26.608   8.422
 2069POPC   C3A28553  35.902  26.831   8.028
 2069POPC   C4A28554  35.926  27.222   7.810
 2069POPC   C1B28555  36.363  27.109   8.788
 2069POPC   C2B28556  36.178  27.056   8.416
 2069POPC   C3B28557  36.359  27.058   8.044
 2069POPC   C4B28558  36.591  27.041   7.698
 2070POPC   NC328559   1.712  35.615   9.636
 2070POPC   PO428560   2.079  35.259   9.228
 2070POPC   GL128561   1.845  35.579   9.104
 2070POPC   GL228562   1.487  35.606   9.149
 2070POPC   C1A28563   1.769  35.508   8.686
 2070POPC   D2A28564   1.761  35.540   8.290
 2070POPC   C3A28565   2.121  35.431   8.124
 2070POPC   C4A28566   2.246  35.630   7.790
 2070POPC   C1B28567   1.493  35.186   8.969
 2070POPC   C2B28568   1.738  34.985   8.625
 2070POPC   C3B28569   1.717  35.060   8.165
 2070POPC   C4B28570   1.728  35.379   7.807
 2071POPC   NC328571   3.378  10.905   9.284
 2071POPC   PO428572   3.606  11.414   9.663
 2071POPC   GL128573   3.697  11.460   9.237
 2071POPC   GL228574   3.711  11.156   9.023
 2071POPC   C1A28575   3.610  11.615   8.848
 2071POPC   D2A28576   3.589  11.746   8.445
 2071POPC   C3A28577   3.533  11.437   8.140
 2071POPC   C4A28578   3.678  11.449   7.723
 2071POPC   C1B28579   3.697  10.844   8.717
 2071POPC   C2B28580   3.607  10.920   8.308
 2071POPC   C3B28581   3.751  10.945   7.948
 2071POPC   C4B28582   3.656  10.960   7.578
 2072POPC   NC328583  41.033  28.926   9.362
 2072POPC   PO428584  40.398  29.001   9.511
 2072POPC   GL128585  40.569  28.762   9.185
 2072POPC   GL228586  40.678  29.077   9.042
 2072POPC   C1A28587  40.454  28.711   8.762
 2072POPC   D2A28588  40.651  28.811   8.379
 2072POPC   C3A28589  40.911  28.893   8.050
 2072POPC   C4A28590  40.762  28.781   7.687
 2072POPC   C1B28591  40.854  29.176   8.660
 2072POPC   C2B28592  40.623  29.332   8.313
 2072POPC   C3B28593  40.749  29.373   7.911
 2072POPC   C4B28594  41.016  29.230   7.656
 2073POPC   NC328595  34.151  43.696   9.510
 2073POPC   PO428596  33.743  44.176   9.579
 2073POPC   GL128597  33.802  44.079   9.155
 2073POPC   GL228598  33.620  44.389   9.062
 2073POPC   C1A28599  33.918  43.722   8.859
 2073POPC   D2A28600  33.974  43.614   8.405
 2073POPC   C3A28601  34.134  43.977   8.126
 2073POPC   C4A28602  33.963  44.257   7.784
 2073POPC   C1B28603  33.335  44.145   8.752
 2073POPC   C2B28604  33.421  44.016   8.297
 2073POPC   C3B28605  33.458  44.203   7.853
 2073POPC   C4B28606  33.594  44.279   7.397
 2074POPC   NC328607   3.258  13.517   9.524
 2074POPC   PO428608   3.878  13.695   9.531
 2074POPC   GL128609   3.727  13.790   9.148
 2074POPC   GL228610   3.407  13.832   9.131
 2074POPC   C1A28611   3.850  13.669   8.731
 2074POPC   D2A28612   3.901  13.829   8.309
 2074POPC   C3A28613   3.701  13.564   8.046
 2074POPC   C4A28614   3.495  13.520   7.669
 2074POPC   C1B28615   3.196  13.944   8.781
 2074POPC   C2B28616   3.378  13.769   8.426
 2074POPC   C3B28617   3.311  13.908   8.034
 2074POPC   C4B28618   3.106  13.897   7.668
 2075POPC   NC328619  23.845  36.426   9.399
 2075POPC   PO428620  23.458  35.876   9.504
 2075POPC   GL128621  23.772  35.977   9.129
 2075POPC   GL228622  24.091  36.218   9.005
 2075POPC   C1A28623  23.720  36.082   8.687
 2075POPC   D2A28624  23.717  36.221   8.283
 2075POPC   C3A28625  23.497  36.030   7.976
 2075POPC   C4A28626  23.665  36.272   7.681
 2075POPC   C1B28627  24.153  35.832   8.791
 2075POPC   C2B28628  23.979  35.775   8.372
 2075POPC   C3B28629  24.029  35.948   7.951
 2075POPC   C4B28630  24.147  36.130   7.536
 2076POPC   NC328631   2.121   3.879   9.896
 2076POPC   PO428632   1.774   3.349   9.726
 2076POPC   GL128633   1.897   3.404   9.320
 2076POPC   GL228634   1.822   3.081   9.245
 2076POPC   C1A28635   1.888   3.642   8.933
 2076POPC   D2A28636   1.777   3.697   8.494
 2076POPC   C3A28637   2.129   3.521   8.243
 2076POPC   C4A28638   2.251   3.556   7.825
 2076POPC   C1B28639   1.983   3.099   8.840
 2076POPC   C2B28640   1.785   3.177   8.448
 2076POPC   C3B28641   1.817   3.189   7.989
 2076POPC   C4B28642   1.563   3.436   7.675
 2077POPC   NC328643   2.479  20.152   9.465
 2077POPC   PO428644   2.686  19.563   9.389
 2077POPC   GL128645   2.482  19.663   9.025
 2077POPC   GL228646   2.432  19.963   9.021
 2077POPC   C1A28647   2.670  19.757   8.622
 2077POPC   D2A28648   3.043  19.766   8.368
 2077POPC   C3A28649   2.783  19.811   8.010
 2077POPC   C4A28650   2.572  19.831   7.647
 2077POPC   C1B28651   2.890  20.065   8.929
 2077POPC   C2B28652   2.935  20.260   8.506
 2077POPC   C3B28653   3.092  20.200   8.097
 2077POPC   C4B28654   3.056  20.034   7.656
 2078POPC   NC328655  18.624   3.333   9.577
 2078POPC   PO428656  18.008   3.610   9.455
 2078POPC   GL128657  18.253   3.420   9.123
 2078POPC   GL228658  18.621   3.349   9.075
 2078POPC   C1A28659  18.189   3.405   8.686
 2078POPC   D2A28660  17.950   3.339   8.325
 2078POPC   C3A28661  18.106   3.575   7.953
 2078POPC   C4A28662  18.177   3.781   7.558
 2078POPC   C1B28663  18.612   3.692   8.763
 2078POPC   C2B28664  18.470   3.632   8.323
 2078POPC   C3B28665  18.624   3.543   7.897
 2078POPC   C4B28666  18.887   3.827   7.724
 2079POPC   NC328667  32.652  25.531   9.484
 2079POPC   PO428668  33.247  25.202   9.492
 2079POPC   GL128669  32.902  25.102   9.214
 2079POPC   GL228670  32.930  25.419   9.066
 2079POPC   C1A28671  32.923  24.995   8.780
 2079POPC   D2A28672  33.012  25.362   8.521
 2079POPC   C3A28673  33.035  25.136   8.120
 2079POPC   C4A28674  33.246  25.229   7.742
 2079POPC   C1B28675  32.717  25.726   8.851
 2079POPC   C2B28676  32.564  25.648   8.471
 2079POPC   C3B28677  32.767  25.559   8.112
 2079POPC   C4B28678  32.840  25.604   7.707
 2080POPC   NC328679  36.593   5.475   9.700
 2080POPC   PO428680  37.178   5.367   9.643
 2080POPC   GL128681  36.895   5.255   9.282
 2080POPC   GL228682  36.800   4.897   9.209
 2080POPC   C1A28683  36.915   5.277   8.823
 2080POPC   D2A28684  36.989   5.101   8.413
 2080POPC   C3A28685  37.171   5.242   8.011
 2080POPC   C4A28686  37.088   5.094   7.600
 2080POPC   C1B28687  36.534   4.913   8.810
 2080POPC   C2B28688  36.578   4.777   8.378
 2080POPC   C3B28689  36.706   4.985   8.003
 2080POPC   C4B28690  36.440   5.159   7.684
 2081POPC   NC328691  40.623   2.995   9.538
 2081POPC   PO428692  41.064   2.595   9.478
 2081POPC   GL128693  40.935   2.844   9.140
 2081POPC   GL228694  40.586   2.822   9.078
 2081POPC   C1A28695  41.002   2.714   8.708
 2081POPC   D2A28696  40.794   2.598   8.333
 2081POPC   C3A28697  40.949   2.742   7.950
 2081POPC   C4A28698  40.716   3.072   7.764
 2081POPC   C1B28699  40.504   2.538   8.769
 2081POPC   C2B28700  40.290   2.642   8.393
 2081POPC   C3B28701  40.397   2.740   7.988
 2081POPC   C4B28702  40.575   2.580   7.615
 2082POPC   NC328703   6.024   1.989   9.238
 2082POPC   PO428704   5.546   2.429   9.491
 2082POPC   GL128705   5.595   2.199   9.084
 2082POPC   GL228706   5.610   1.812   9.022
 2082POPC   C1A28707   5.738   2.133   8.638
 2082POPC   D2A28708   5.733   1.936   8.237
 2082POPC   C3A28709   5.895   2.207   7.949
 2082POPC   C4A28710   6.336   2.268   7.864
 2082POPC   C1B28711   5.910   1.654   8.676
 2082POPC   C2B28712   5.919   1.419   8.326
 2082POPC   C3B28713   5.711   1.462   7.971
 2082POPC   C4B28714   5.655   1.811   7.728
 2083POPC   NC328715   0.760  26.917   9.512
 2083POPC   PO428716   0.050  26.861   9.506
 2083POPC   GL128717   0.342  26.756   9.230
 2083POPC   GL228718   0.477  27.043   9.117
 2083POPC   C1A28719   0.354  26.656   8.813
 2083POPC   D2A28720   0.640  26.470   8.604
 2083POPC   C3A28721   0.623  26.472   8.145
 2083POPC   C4A28722   0.891  26.474   7.762
 2083POPC   C1B28723   0.536  27.151   8.681
 2083POPC   C2B28724   0.812  27.116   8.293
 2083POPC   C3B28725   0.742  26.942   7.871
 2083POPC   C4B28726   0.324  26.731   7.798
 2084POPC   NC328727  19.384  17.198   9.580
 2084POPC   PO428728  18.971  17.718   9.689
 2084POPC   GL128729  18.875  17.787   9.264
 2084POPC   GL228730  19.070  17.455   9.200
 2084POPC   C1A28731  18.799  17.808   8.837
 2084POPC   D2A28732  18.990  17.555   8.520
 2084POPC   C3A28733  18.853  17.603   8.108
 2084POPC   C4A28734  19.031  17.791   7.803
 2084POPC   C1B28735  19.017  17.165   8.861
 2084POPC   C2B28736  19.065  17.065   8.401
 2084POPC   C3B28737  19.104  17.153   7.973
 2084POPC   C4B28738  19.134  16.862   7.674
 2085POPC   NC328739  23.038  23.306   9.446
 2085POPC   PO428740  23.108  23.987   9.499
 2085POPC   GL128741  23.124  23.735   9.146
 2085POPC   GL228742  23.421  23.589   9.065
 2085POPC   C1A28743  22.949  23.734   8.741
 2085POPC   D2A28744  22.897  24.063   8.450
 2085POPC   C3A28745  22.706  23.906   8.097
 2085POPC   C4A28746  22.698  23.796   7.680
 2085POPC   C1B28747  23.157  23.270   8.800
 2085POPC   C2B28748  22.860  23.232   8.443
 2085POPC   C3B28749  22.921  23.440   8.040
 2085POPC   C4B28750  23.125  23.541   7.661
 2086POPC   NC328751   4.136   0.743   9.534
 2086POPC   PO428752   4.488   0.170   9.466
 2086POPC   GL128753   4.431   0.265   9.076
 2086POPC   GL228754   4.428   0.587   9.123
 2086POPC   C1A28755   4.173   0.206   8.727
 2086POPC   D2A28756   4.021  44.882   8.460
 2086POPC   C3A28757   4.153   0.086   8.129
 2086POPC   C4A28758   4.414   0.276   7.887
 2086POPC   C1B28759   4.208   0.718   8.757
 2086POPC   C2B28760   4.275   0.595   8.325
 2086POPC   C3B28761   4.189   0.718   7.920
 2086POPC   C4B28762   3.883   0.928   7.706
 2087POPC   NC328763  26.559   8.588   9.620
 2087POPC   PO428764  26.609   9.262   9.712
 2087POPC   GL128765  26.551   9.016   9.335
 2087POPC   GL228766  26.858   8.848   9.281
 2087POPC   C1A28767  26.546   8.981   8.883
 2087POPC   D2A28768  26.749   9.142   8.517
 2087POPC   C3A28769  26.530   9.123   8.110
 2087POPC   C4A28770  26.683   8.910   7.736
 2087POPC   C1B28771  26.970   8.664   8.870
 2087POPC   C2B28772  26.902   8.559   8.426
 2087POPC   C3B28773  27.083   8.493   8.023
 2087POPC   C4B28774  27.186   8.715   7.684
 2088POPC   NC328775  25.214  19.585   9.602
 2088POPC   PO428776  25.200  18.905   9.534
 2088POPC   GL128777  25.185  19.221   9.217
 2088POPC   GL228778  25.149  18.912   9.018
 2088POPC   C1A28779  25.312  19.383   8.816
 2088POPC   D2A28780  25.507  19.330   8.412
 2088POPC   C3A28781  25.260  19.294   8.016
 2088POPC   C4A28782  25.378  19.229   7.540
 2088POPC   C1B28783  25.010  18.659   8.672
 2088POPC   C2B28784  25.055  18.715   8.220
 2088POPC   C3B28785  25.219  18.842   7.836
 2088POPC   C4B28786  24.924  18.991   7.537
 2089POPC   NC328787  36.501  28.572   9.416
 2089POPC   PO428788  37.169  28.175   9.560
 2089POPC   GL128789  36.911  28.301   9.277
 2089POPC   GL228790  36.992  28.665   9.382
 2089POPC   C1A28791  36.709  28.157   8.888
 2089POPC   D2A28792  36.758  28.362   8.503
 2089POPC   C3A28793  36.712  28.192   8.115
 2089POPC   C4A28794  36.689  28.465   7.760
 2089POPC   C1B28795  37.002  28.673   8.909
 2089POPC   C2B28796  37.214  28.573   8.519
 2089POPC   C3B28797  37.049  28.617   8.113
 2089POPC   C4B28798  37.245  28.613   7.734
 2090POPC   NC328799  10.727  31.803   9.693
 2090POPC   PO428800  10.432  31.219   9.694
 2090POPC   GL128801  10.296  31.207   9.244
 2090POPC   GL228802  10.233  31.578   9.186
 2090POPC   C1A28803  10.373  31.290   8.767
 2090POPC   D2A28804  10.654  31.560   8.455
 2090POPC   C3A28805  10.724  31.410   8.030
 2090POPC   C4A28806  10.416  31.291   7.755
 2090POPC   C1B28807  10.386  31.827   8.812
 2090POPC   C2B28808  10.269  31.909   8.374
 2090POPC   C3B28809  10.311  31.772   7.945
 2090POPC   C4B28810  10.566  31.767   7.577
 2091POPC   NC328811  17.896  41.923   9.708
 2091POPC   PO428812  17.328  41.620   9.475
 2091POPC   GL128813  17.330  41.446   9.076
 2091POPC   GL228814  17.702  41.427   9.061
 2091POPC   C1A28815  17.148  41.585   8.680
 2091POPC   D2A28816  17.296  41.879   8.328
 2091POPC   C3A28817  17.516  41.719   7.963
 2091POPC   C4A28818  17.128  41.833   7.770
 2091POPC   C1B28819  17.578  41.267   8.662
 2091POPC   C2B28820  17.435  41.383   8.323
 2091POPC   C3B28821  17.169  41.371   8.012
 2091POPC   C4B28822  17.242  41.062   7.768
 2092POPC   NC328823  33.905   7.544   9.335
 2092POPC   PO428824  33.763   6.981   9.607
 2092POPC   GL128825  33.620   7.174   9.168
 2092POPC   GL228826  33.402   7.514   9.177
 2092POPC   C1A28827  33.409   7.190   8.755
 2092POPC   D2A28828  33.494   7.034   8.326
 2092POPC   C3A28829  33.543   7.284   7.939
 2092POPC   C4A28830  33.732   7.331   7.518
 2092POPC   C1B28831  33.559   7.713   8.767
 2092POPC   C2B28832  33.686   7.804   8.290
 2092POPC   C3B28833  33.813   7.719   7.855
 2092POPC   C4B28834  33.947   7.787   7.424
 2093POPC   NC328835  12.288  31.302   9.403
 2093POPC   PO428836  12.026  31.950   9.528
 2093POPC   GL128837  11.987  31.655   9.178
 2093POPC   GL228838  11.828  31.311   9.168
 2093POPC   C1A28839  12.116  31.526   8.772
 2093POPC   D2A28840  12.255  31.317   8.410
 2093POPC   C3A28841  12.266  31.543   8.052
 2093POPC   C4A28842  12.252  31.358   7.660
 2093POPC   C1B28843  11.705  31.219   8.752
 2093POPC   C2B28844  11.708  31.400   8.336
 2093POPC   C3B28845  11.788  31.402   7.888
 2093POPC   C4B28846  11.829  31.415   7.407
 2094POPC   NC328847  15.883  16.844   9.578
 2094POPC   PO428848  16.032  16.187   9.448
 2094POPC   GL128849  15.854  16.497   9.165
 2094POPC   GL228850  16.004  16.822   9.085
 2094POPC   C1A28851  15.556  16.536   8.835
 2094POPC   D2A28852  15.492  16.693   8.440
 2094POPC   C3A28853  15.749  16.501   8.140
 2094POPC   C4A28854  15.854  16.748   7.813
 2094POPC   C1B28855  16.053  16.626   8.686
 2094POPC   C2B28856  16.118  16.817   8.308
 2094POPC   C3B28857  16.011  17.175   8.064
 2094POPC   C4B28858  16.199  17.093   7.685
 2095POPC   NC328859  43.693  43.648   9.466
 2095POPC   PO428860  44.287  43.887   9.484
 2095POPC   GL128861  43.986  43.975   9.116
 2095POPC   GL228862  43.705  44.225   9.126
 2095POPC   C1A28863  43.745  43.934   8.694
 2095POPC   D2A28864  43.567  43.764   8.296
 2095POPC   C3A28865  43.888  43.679   7.970
 2095POPC   C4A28866  44.176  43.387   7.751
 2095POPC   C1B28867  43.983  44.383   8.765
 2095POPC   C2B28868  44.027  44.249   8.319
 2095POPC   C3B28869  43.717  44.167   7.997
 2095POPC   C4B28870  43.741  44.142   7.549
 2096POPC   NC328871   1.336  42.614   9.692
 2096POPC   PO428872   0.785  43.047   9.772
 2096POPC   GL128873   1.047  43.048   9.337
 2096POPC   GL228874   1.199  43.343   9.204
 2096POPC   C1A28875   1.162  42.967   8.883
 2096POPC   D2A28876   1.212  43.100   8.470
 2096POPC   C3A28877   1.260  42.806   8.167
 2096POPC   C4A28878   1.120  42.952   7.774
 2096POPC   C1B28879   1.359  43.472   8.787
 2096POPC   C2B28880   1.591  43.441   8.388
 2096POPC   C3B28881   1.431  43.289   8.003
 2096POPC   C4B28882   1.369  43.338   7.540
 2097POPC   NC328883  35.977  25.193   9.677
 2097POPC   PO428884  36.609  25.280   9.642
 2097POPC   GL128885  36.309  25.353   9.310
 2097POPC   GL228886  36.143  25.046   9.203
 2097POPC   C1A28887  36.284  25.517   8.897
 2097POPC   D2A28888  36.183  25.629   8.463
 2097POPC   C3A28889  36.343  25.396   8.112
 2097POPC   C4A28890  36.186  25.497   7.746
 2097POPC   C1B28891  36.014  25.064   8.756
 2097POPC   C2B28892  35.907  25.185   8.331
 2097POPC   C3B28893  36.008  25.033   7.935
 2097POPC   C4B28894  35.914  25.151   7.491
 2098POPC   NC328895  11.310   2.583   9.523
 2098POPC   PO428896  11.385   3.187   9.322
 2098POPC   GL128897  10.995   2.965   9.104
 2098POPC   GL228898  11.002   2.587   9.089
 2098POPC   C1A28899  10.908   2.818   8.646
 2098POPC   D2A28900  11.233   2.847   8.307
 2098POPC   C3A28901  11.197   2.871   7.856
 2098POPC   C4A28902  11.170   2.986   7.415
 2098POPC   C1B28903  11.339   2.569   8.775
 2098POPC   C2B28904  11.369   2.348   8.376
 2098POPC   C3B28905  11.068   2.405   8.056
 2098POPC   C4B28906  11.104   2.440   7.597
 2099POPC   NC328907  31.471  26.184   9.571
 2099POPC   PO428908  31.013  25.599   9.507
 2099POPC   GL128909  31.256  25.926   9.184
 2099POPC   GL228910  31.317  26.321   9.118
 2099POPC   C1A28911  31.679  25.832   8.943
 2099POPC   D2A28912  31.761  25.835   8.492
 2099POPC   C3A28913  31.402  25.905   8.263
 2099POPC   C4A28914  31.269  25.953   7.882
 2099POPC   C1B28915  31.405  26.186   8.709
 2099POPC   C2B28916  31.585  26.362   8.321
 2099POPC   C3B28917  31.672  26.290   7.892
 2099POPC   C4B28918  31.524  26.342   7.467
 2100POPC   NC328919  17.481  40.248   9.464
 2100POPC   PO428920  18.122  40.001   9.485
 2100POPC   GL128921  17.858  40.116   9.129
 2100POPC   GL228922  17.768  39.792   9.034
 2100POPC   C1A28923  17.622  40.188   8.726
 2100POPC   D2A28924  17.592  40.364   8.290
 2100POPC   C3A28925  17.796  40.191   7.919
 2100POPC   C4A28926  17.387  40.114   7.805
 2100POPC   C1B28927  17.693  39.694   8.588
 2100POPC   C2B28928  17.606  39.784   8.148
 2100POPC   C3B28929  17.813  39.651   7.777
 2100POPC   C4B28930  17.857  39.521   7.356
 2101POPC   NC328931   9.657  30.386   9.412
 2101POPC   PO428932  10.139  30.700   9.699
 2101POPC   GL128933   9.941  30.810   9.291
 2101POPC   GL228934   9.579  30.837   9.208
 2101POPC   C1A28935  10.000  30.899   8.873
 2101POPC   D2A28936   9.895  30.672   8.504
 2101POPC   C3A28937   9.945  30.898   8.140
 2101POPC   C4A28938   9.827  30.725   7.768
 2101POPC   C1B28939   9.472  30.707   8.807
 2101POPC   C2B28940   9.367  30.481   8.451
 2101POPC   C3B28941   9.475  30.583   8.094
 2101POPC   C4B28942   9.319  30.598   7.700
 2102POPC   NC328943  22.592  29.326   9.436
 2102POPC   PO428944  22.027  28.894   9.441
 2102POPC   GL128945  22.086  29.175   9.145
 2102POPC   GL228946  22.387  29.018   9.090
 2102POPC   C1A28947  22.146  29.261   8.709
 2102POPC   D2A28948  22.306  29.382   8.324
 2102POPC   C3A28949  22.102  29.156   8.030
 2102POPC   C4A28950  22.133  29.081   7.624
 2102POPC   C1B28951  22.402  28.781   8.722
 2102POPC   C2B28952  22.420  28.769   8.273
 2102POPC   C3B28953  22.573  28.955   7.905
 2102POPC   C4B28954  22.572  28.946   7.447
 2103POPC   NC328955  11.536   7.487   9.567
 2103POPC   PO428956  11.004   7.174   9.813
 2103POPC   GL128957  11.026   7.189   9.331
 2103POPC   GL228958  11.364   7.153   9.233
 2103POPC   C1A28959  11.115   7.434   8.892
 2103POPC   D2A28960  11.293   7.700   8.529
 2103POPC   C3A28961  11.205   7.597   8.098
 2103POPC   C4A28962  11.456   7.692   7.760
 2103POPC   C1B28963  11.511   7.031   8.807
 2103POPC   C2B28964  11.418   7.203   8.388
 2103POPC   C3B28965  11.397   7.126   7.937
 2103POPC   C4B28966  11.718   6.960   7.700
 2104POPC   NC328967  12.793  34.082   9.458
 2104POPC   PO428968  12.805  33.446   9.490
 2104POPC   GL128969  12.733  33.683   9.105
 2104POPC   GL228970  12.539  33.997   9.025
 2104POPC   C1A28971  12.651  33.527   8.696
 2104POPC   D2A28972  12.934  33.610   8.345
 2104POPC   C3A28973  12.708  33.863   8.104
 2104POPC   C4A28974  12.638  34.020   7.697
 2104POPC   C1B28975  12.888  33.998   8.709
 2104POPC   C2B28976  13.002  34.223   8.318
 2104POPC   C3B28977  13.108  34.090   7.904
 2104POPC   C4B28978  13.067  34.137   7.435
 2105POPC   NC328979  38.669  33.102   9.607
 2105POPC   PO428980  38.242  32.686   9.601
 2105POPC   GL128981  38.374  32.854   9.234
 2105POPC   GL228982  38.403  33.217   9.187
 2105POPC   C1A28983  38.208  32.746   8.822
 2105POPC   D2A28984  38.192  32.879   8.400
 2105POPC   C3A28985  38.539  32.852   8.121
 2105POPC   C4A28986  38.500  32.744   7.681
 2105POPC   C1B28987  38.594  33.072   8.812
 2105POPC   C2B28988  38.661  33.291   8.434
 2105POPC   C3B28989  38.609  33.393   8.013
 2105POPC   C4B28990  38.708  33.202   7.622
 2106POPC   NC328991  31.222  29.510  10.047
 2106POPC   PO428992  31.590  29.248   9.629
 2106POPC   GL128993  31.630  29.237   9.193
 2106POPC   GL228994  31.295  29.292   9.119
 2106POPC   C1A28995  31.633  29.257   8.748
 2106POPC   D2A28996  31.362  29.118   8.418
 2106POPC   C3A28997  31.455  29.047   7.986
 2106POPC   C4A28998  31.491  29.189   7.549
 2106POPC   C1B28999  31.248  29.600   8.783
 2106POPC   C2B29000  31.071  29.526   8.381
 2106POPC   C3B29001  30.997  29.273   8.057
 2106POPC   C4B29002  30.729  29.238   7.700
 2107POPC   NC329003  19.536  30.418   9.450
 2107POPC   PO429004  19.933  29.860   9.495
 2107POPC   GL129005  20.054  29.887   9.119
 2107POPC   GL229006  19.988  30.250   9.075
 2107POPC   C1A29007  19.902  29.677   8.759
 2107POPC   D2A29008  19.772  29.889   8.382
 2107POPC   C3A29009  20.003  29.837   8.016
 2107POPC   C4A29010  20.378  29.711   7.873
 2107POPC   C1B29011  19.642  30.234   8.776
 2107POPC   C2B29012  19.450  30.289   8.359
 2107POPC   C3B29013  19.643  30.199   7.959
 2107POPC   C4B29014  19.562  30.168   7.522
 2108POPC   NC329015   6.290  22.559   9.386
 2108POPC   PO429016   5.813  23.094   9.536
 2108POPC   GL129017   5.966  22.900   9.187
 2108POPC   GL229018   5.667  22.717   9.165
 2108POPC   C1A29019   6.026  22.912   8.739
 2108POPC   D2A29020   5.683  22.997   8.448
 2108POPC   C3A29021   5.675  22.893   8.037
 2108POPC   C4A29022   5.976  23.060   7.744
 2108POPC   C1B29023   5.660  22.540   8.776
 2108POPC   C2B29024   5.913  22.535   8.393
 2108POPC   C3B29025   6.033  22.531   7.982
 2108POPC   C4B29026   5.765  22.592   7.634
 2109POPC   NC329027  38.879  17.177   9.374
 2109POPC   PO429028  39.044  17.820   9.489
 2109POPC   GL129029  39.274  17.707   9.137
 2109POPC   GL229030  39.294  17.350   9.166
 2109POPC   C1A29031  39.438  17.566   8.731
 2109POPC   D2A29032  39.478  17.636   8.302
 2109POPC   C3A29033  39.109  17.613   8.044
 2109POPC   C4A29034  39.113  17.761   7.625
 2109POPC   C1B29035  39.195  17.081   8.802
 2109POPC   C2B29036  39.192  17.207   8.385
 2109POPC   C3B29037  39.387  17.191   7.982
 2109POPC   C4B29038  39.313  17.291   7.551
 2110POPC   NC329039  18.146  30.470   9.550
 2110POPC   PO429040  18.295  29.717   9.516
 2110POPC   GL129041  18.125  29.960   9.183
 2110POPC   GL229042  18.427  30.180   9.212
 2110POPC   C1A29043  18.222  29.818   8.757
 2110POPC   D2A29044  18.561  29.632   8.482
 2110POPC   C3A29045  18.367  29.582   8.074
 2110POPC   C4A29046  18.034  29.794   7.854
 2110POPC   C1B29047  18.649  30.055   8.853
 2110POPC   C2B29048  18.617  30.148   8.438
 2110POPC   C3B29049  18.733  30.003   8.067
 2110POPC   C4B29050  18.493  29.999   7.746
 2111POPC   NC329051  21.471  40.721   9.632
 2111POPC   PO429052  21.941  41.162   9.416
 2111POPC   GL129053  21.634  40.886   9.139
 2111POPC   GL229054  21.327  40.627   9.155
 2111POPC   C1A29055  21.604  40.771   8.681
 2111POPC   D2A29056  21.448  40.924   8.241
 2111POPC   C3A29057  21.529  40.662   7.841
 2111POPC   C4A29058  21.664  40.581   7.391
 2111POPC   C1B29059  21.172  40.957   8.874
 2111POPC   C2B29060  20.970  41.007   8.483
 2111POPC   C3B29061  20.965  40.759   8.118
 2111POPC   C4B29062  21.139  40.985   7.774
 2112POPC   NC329063  17.375  15.720   9.335
 2112POPC   PO429064  17.368  15.135   9.545
 2112POPC   GL129065  17.673  14.997   9.226
 2112POPC   GL229066  17.621  15.321   9.105
 2112POPC   C1A29067  17.777  14.920   8.776
 2112POPC   D2A29068  17.645  14.764   8.354
 2112POPC   C3A29069  17.662  15.031   7.967
 2112POPC   C4A29070  17.542  14.892   7.548
 2112POPC   C1B29071  17.291  15.123   8.868
 2112POPC   C2B29072  17.381  15.199   8.456
 2112POPC   C3B29073  17.182  15.142   8.109
 2112POPC   C4B29074  17.129  15.133   7.713
 2113POPC   NC329075   8.644  33.935   9.576
 2113POPC   PO429076   9.086  33.461   9.497
 2113POPC   GL129077   8.932  33.700   9.222
 2113POPC   GL229078   9.062  34.031   9.286
 2113POPC   C1A29079   8.835  33.691   8.832
 2113POPC   D2A29080   9.042  33.757   8.473
 2113POPC   C3A29081   8.832  33.582   8.143
 2113POPC   C4A29082   8.698  33.834   7.797
 2113POPC   C1B29083   9.201  34.067   8.867
 2113POPC   C2B29084   9.159  34.255   8.455
 2113POPC   C3B29085   9.108  34.061   8.057
 2113POPC   C4B29086   9.115  34.072   7.615
 2114POPC   NC329087  11.190  37.160   9.550
 2114POPC   PO429088  11.700  37.621   9.413
 2114POPC   GL129089  11.453  37.362   9.126
 2114POPC   GL229090  11.057  37.342   9.080
 2114POPC   C1A29091  11.359  37.508   8.691
 2114POPC   D2A29092  11.185  37.819   8.370
 2114POPC   C3A29093  11.512  37.941   8.059
 2114POPC   C4A29094  11.533  37.736   7.653
 2114POPC   C1B29095  10.872  37.377   8.645
 2114POPC   C2B29096  11.103  37.306   8.278
 2114POPC   C3B29097  11.092  37.544   7.887
 2114POPC   C4B29098  10.948  37.324   7.519
 2115POPC   NC329099   4.001  25.882   9.527
 2115POPC   PO429100   4.597  26.152   9.470
 2115POPC   GL129101   4.372  26.076   9.117
 2115POPC   GL229102   4.066  26.279   9.190
 2115POPC   C1A29103   4.482  25.893   8.700
 2115POPC   D2A29104   4.260  25.755   8.329
 2115POPC   C3A29105   4.421  25.924   7.964
 2115POPC   C4A29106   4.448  25.682   7.607
 2115POPC   C1B29107   4.069  26.210   8.738
 2115POPC   C2B29108   4.244  26.262   8.330
 2115POPC   C3B29109   3.978  26.196   7.990
 2115POPC   C4B29110   3.824  26.438   7.666
 2116POPC   NC329111  11.217  25.492   9.580
 2116POPC   PO429112  11.474  24.928   9.558
 2116POPC   GL129113  11.227  25.201   9.155
 2116POPC   GL229114  10.895  25.410   9.087
 2116POPC   C1A29115  11.205  25.387   8.692
 2116POPC   D2A29116  11.161  25.454   8.223
 2116POPC   C3A29117  11.398  25.207   7.874
 2116POPC   C4A29118  11.709  25.385   7.542
 2116POPC   C1B29119  10.808  25.052   8.856
 2116POPC   C2B29120  10.971  24.931   8.465
 2116POPC   C3B29121  10.922  25.036   8.042
 2116POPC   C4B29122  10.781  25.227   7.677
 2117POPC   NC329123   2.839  23.628   9.549
 2117POPC   PO429124   2.392  23.281   9.192
 2117POPC   GL129125   2.623  23.679   9.059
 2117POPC   GL229126   2.936  23.881   9.105
 2117POPC   C1A29127   2.748  23.798   8.637
 2117POPC   D2A29128   2.814  23.520   8.296
 2117POPC   C3A29129   2.707  23.626   7.886
 2117POPC   C4A29130   2.395  23.924   7.689
 2117POPC   C1B29131   3.124  23.554   8.906
 2117POPC   C2B29132   3.267  23.619   8.519
 2117POPC   C3B29133   3.306  23.519   8.123
 2117POPC   C4B29134   3.210  23.674   7.732
 2118POPC   NC329135  27.458  20.761  10.092
 2118POPC   PO429136  26.851  20.860   9.667
 2118POPC   GL129137  26.833  20.626   9.208
 2118POPC   GL229138  27.061  20.328   9.192
 2118POPC   C1A29139  26.561  20.489   8.838
 2118POPC   D2A29140  26.556  20.580   8.416
 2118POPC   C3A29141  26.616  20.368   8.045
 2118POPC   C4A29142  26.526  20.643   7.701
 2118POPC   C1B29143  26.992  20.237   8.742
 2118POPC   C2B29144  27.082  20.409   8.321
 2118POPC   C3B29145  27.047  20.601   7.899
 2118POPC   C4B29146  26.937  20.537   7.426
 2119POPC   NC329147  13.207  42.544   9.476
 2119POPC   PO429148  12.677  42.088   9.629
 2119POPC   GL129149  12.767  42.331   9.266
 2119POPC   GL229150  12.487  42.427   9.028
 2119POPC   C1A29151  12.959  42.331   8.853
 2119POPC   D2A29152  12.767  42.346   8.447
 2119POPC   C3A29153  12.973  42.062   8.175
 2119POPC   C4A29154  12.958  42.012   7.749
 2119POPC   C1B29155  12.596  42.773   8.682
 2119POPC   C2B29156  12.622  42.795   8.220
 2119POPC   C3B29157  12.710  42.450   7.936
 2119POPC   C4B29158  12.723  42.433   7.496
 2120POPC   NC329159  42.350   3.201   9.530
 2120POPC   PO429160  42.650   2.621   9.491
 2120POPC   GL129161  42.419   2.826   9.169
 2120POPC   GL229162  42.611   3.119   9.052
 2120POPC   C1A29163  42.086   2.690   8.837
 2120POPC   D2A29164  41.848   2.535   8.484
 2120POPC   C3A29165  41.922   2.810   8.141
 2120POPC   C4A29166  41.944   2.660   7.714
 2120POPC   C1B29167  42.572   2.783   8.716
 2120POPC   C2B29168  42.355   2.651   8.371
 2120POPC   C3B29169  42.423   2.790   7.976
 2120POPC   C4B29170  42.851   2.746   7.823
 2121POPC   NC329171   2.488  44.679   9.491
 2121POPC   PO429172   3.181  44.812   9.528
 2121POPC   GL129173   2.889  44.693   9.166
 2121POPC   GL229174   2.536  44.864   9.034
 2121POPC   C1A29175   2.752  44.465   8.790
 2121POPC   D2A29176   2.581  44.677   8.442
 2121POPC   C3A29177   2.823  44.627   8.088
 2121POPC   C4A29178   2.680  44.448   7.736
 2121POPC   C1B29179   2.850   0.062   8.805
 2121POPC   C2B29180   2.979   0.047   8.394
 2121POPC   C3B29181   2.656   0.121   8.138
 2121POPC   C4B29182   2.580  44.963   7.749
 2122POPC   NC329183  43.308  41.488   9.585
 2122POPC   PO429184  42.859  41.909   9.246
 2122POPC   GL129185  43.082  41.548   9.126
 2122POPC   GL229186  42.983  41.219   9.252
 2122POPC   C1A29187  43.189  41.479   8.699
 2122POPC   D2A29188  42.973  41.746   8.399
 2122POPC   C3A29189  43.237  41.845   8.060
 2122POPC   C4A29190  43.156  41.886   7.658
 2122POPC   C1B29191  42.753  41.245   8.862
 2122POPC   C2B29192  42.812  41.252   8.404
 2122POPC   C3B29193  42.950  41.410   7.988
 2122POPC   C4B29194  43.055  41.383   7.558
 2123POPC   NC329195  14.566  37.875   9.537
 2123POPC   PO429196  14.086  37.493   9.264
 2123POPC   GL129197  14.345  37.806   9.050
 2123POPC   GL229198  14.746  37.829   9.069
 2123POPC   C1A29199  14.155  37.855   8.643
 2123POPC   D2A29200  14.018  37.502   8.388
 2123POPC   C3A29201  14.261  37.545   7.999
 2123POPC   C4A29202  14.324  37.934   7.760
 2123POPC   C1B29203  14.677  37.413   8.844
 2123POPC   C2B29204  14.528  37.277   8.407
 2123POPC   C3B29205  14.744  37.367   8.006
 2123POPC   C4B29206  14.674  37.604   7.627
 2124POPC   NC329207  26.885  38.186   9.552
 2124POPC   PO429208  26.476  38.612   9.705
 2124POPC   GL129209  26.630  38.609   9.292
 2124POPC   GL229210  26.471  38.309   9.179
 2124POPC   C1A29211  26.627  38.719   8.855
 2124POPC   D2A29212  26.337  38.564   8.547
 2124POPC   C3A29213  26.418  38.615   8.095
 2124POPC   C4A29214  26.679  38.493   7.729
 2124POPC   C1B29215  26.782  38.238   8.903
 2124POPC   C2B29216  26.772  38.309   8.504
 2124POPC   C3B29217  26.804  38.193   8.120
 2124POPC   C4B29218  27.008  38.118   7.763
 2125POPC   NC329219   2.320  42.402   9.603
 2125POPC   PO429220   1.712  42.629   9.426
 2125POPC   GL129221   1.931  42.289   9.211
 2125POPC   GL229222   2.171  42.007   9.285
 2125POPC   C1A29223   1.869  42.177   8.795
 2125POPC   D2A29224   1.830  42.393   8.419
 2125POPC   C3A29225   1.826  42.027   8.183
 2125POPC   C4A29226   1.788  42.140   7.789
 2125POPC   C1B29227   2.374  42.221   8.925
 2125POPC   C2B29228   2.291  42.166   8.487
 2125POPC   C3B29229   2.275  42.245   8.046
 2125POPC   C4B29230   2.503  41.972   7.791
 2126POPC   NC329231  43.608  44.521   9.526
 2126POPC   PO429232  44.219  44.669   9.343
 2126POPC   GL129233  43.843  44.769   9.117
 2126POPC   GL229234  43.501  44.885   9.155
 2126POPC   C1A29235  43.826  44.897   8.704
 2126POPC   D2A29236  44.152  44.775   8.443
 2126POPC   C3A29237  44.056  44.819   8.037
 2126POPC   C4A29238  44.029  44.519   7.759
 2126POPC   C1B29239  43.475  44.549   8.808
 2126POPC   C2B29240  43.630  44.549   8.365
 2126POPC   C3B29241  43.562  44.655   7.915
 2126POPC   C4B29242  43.654  44.648   7.454
 2127POPC   NC329243  10.668  19.408   9.612
 2127POPC   PO429244  10.850  18.793   9.812
 2127POPC   GL129245  10.564  18.930   9.351
 2127POPC   GL229246  10.267  19.133   9.252
 2127POPC   C1A29247  10.656  19.056   8.857
 2127POPC   D2A29248  10.433  19.099   8.427
 2127POPC   C3A29249  10.694  19.192   8.060
 2127POPC   C4A29250  10.842  19.052   7.672
 2127POPC   C1B29251  10.123  19.024   8.833
 2127POPC   C2B29252   9.912  19.155   8.470
 2127POPC   C3B29253  10.082  19.153   8.056
 2127POPC   C4B29254  10.325  18.962   7.771
 2128POPC   NC329255  28.948  15.252   9.549
 2128POPC   PO429256  29.586  15.073   9.547
 2128POPC   GL129257  29.315  15.155   9.183
 2128POPC   GL229258  29.097  15.476   9.118
 2128POPC   C1A29259  29.355  14.962   8.792
 2128POPC   D2A29260  29.226  14.832   8.410
 2128POPC   C3A29261  29.408  15.036   8.086
 2128POPC   C4A29262  29.327  14.872   7.698
 2128POPC   C1B29263  28.883  15.242   8.772
 2128POPC   C2B29264  28.970  15.252   8.315
 2128POPC   C3B29265  28.908  15.128   7.882
 2128POPC   C4B29266  28.839  15.442   7.547
 2129POPC   NC329267  26.984  25.016   9.520
 2129POPC   PO429268  26.420  25.472   9.493
 2129POPC   GL129269  26.700  25.368   9.166
 2129POPC   GL229270  26.637  25.037   9.114
 2129POPC   C1A29271  26.927  25.399   8.752
 2129POPC   D2A29272  26.992  25.616   8.346
 2129POPC   C3A29273  26.845  25.446   7.973
 2129POPC   C4A29274  26.994  25.098   7.839
 2129POPC   C1B29275  26.478  25.150   8.718
 2129POPC   C2B29276  26.734  25.055   8.343
 2129POPC   C3B29277  26.643  24.770   7.996
 2129POPC   C4B29278  26.383  24.826   7.650
 2130POPC   NC329279  31.345   6.853   9.559
 2130POPC   PO429280  31.580   6.159   9.515
 2130POPC   GL129281  31.456   6.444   9.225
 2130POPC   GL229282  31.616   6.749   9.143
 2130POPC   C1A29283  31.307   6.490   8.835
 2130POPC   D2A29284  31.338   6.230   8.533
 2130POPC   C3A29285  31.330   6.379   8.147
 2130POPC   C4A29286  31.645   6.394   7.810
 2130POPC   C1B29287  31.446   6.985   8.790
 2130POPC   C2B29288  31.582   6.990   8.335
 2130POPC   C3B29289  31.495   6.860   7.918
 2130POPC   C4B29290  31.816   6.800   7.585
 2131POPC   NC329291  18.637  23.637   9.399
 2131POPC   PO429292  19.266  23.361   9.568
 2131POPC   GL129293  19.057  23.454   9.159
 2131POPC   GL229294  18.759  23.262   9.089
 2131POPC   C1A29295  19.123  23.665   8.731
 2131POPC   D2A29296  18.870  23.895   8.391
 2131POPC   C3A29297  19.119  23.948   8.014
 2131POPC   C4A29298  19.561  23.864   7.931
 2131POPC   C1B29299  18.968  23.189   8.685
 2131POPC   C2B29300  18.982  23.374   8.284
 2131POPC   C3B29301  18.985  23.439   7.827
 2131POPC   C4B29302  18.887  23.426   7.344
 2132POPC   NC329303  24.138  33.209   9.688
 2132POPC   PO429304  24.589  32.809   9.617
 2132POPC   GL129305  24.292  33.007   9.248
 2132POPC   GL229306  24.098  32.770   9.083
 2132POPC   C1A29307  24.109  33.194   8.818
 2132POPC   D2A29308  24.151  33.271   8.361
 2132POPC   C3A29309  24.573  33.322   8.197
 2132POPC   C4A29310  24.706  33.238   7.796
 2132POPC   C1B29311  24.438  32.812   8.772
 2132POPC   C2B29312  24.459  32.856   8.340
 2132POPC   C3B29313  24.282  32.978   7.935
 2132POPC   C4B29314  24.148  32.668   7.614
 2133POPC   NC329315   5.311  43.071   9.623
 2133POPC   PO429316   5.950  43.185   9.579
 2133POPC   GL129317   5.733  43.035   9.262
 2133POPC   GL229318   5.525  43.332   9.213
 2133POPC   C1A29319   5.843  42.861   8.878
 2133POPC   D2A29320   6.017  42.995   8.505
 2133POPC   C3A29321   5.867  42.817   8.103
 2133POPC   C4A29322   5.932  43.011   7.682
 2133POPC   C1B29323   5.832  43.399   8.886
 2133POPC   C2B29324   5.878  43.503   8.462
 2133POPC   C3B29325   6.045  43.295   8.104
 2133POPC   C4B29326   6.120  43.485   7.741
 2134POPC   NC329327   6.793  16.612   9.415
 2134POPC   PO429328   6.445  17.223   9.504
 2134POPC   GL129329   6.680  17.053   9.108
 2134POPC   GL229330   6.475  16.772   9.029
 2134POPC   C1A29331   6.804  16.878   8.652
 2134POPC   D2A29332   6.969  16.525   8.381
 2134POPC   C3A29333   6.859  16.635   7.964
 2134POPC   C4A29334   6.702  16.978   7.689
 2134POPC   C1B29335   6.571  16.415   8.741
 2134POPC   C2B29336   6.325  16.211   8.449
 2134POPC   C3B29337   6.193  16.334   8.049
 2134POPC   C4B29338   6.386  16.517   7.735
 2135POPC   NC329339  11.782  43.102   9.616
 2135POPC   PO429340  12.308  42.723   9.407
 2135POPC   GL129341  12.025  42.874   9.131
 2135POPC   GL229342  11.962  43.211   9.153
 2135POPC   C1A29343  12.145  43.025   8.718
 2135POPC   D2A29344  12.232  43.141   8.303
 2135POPC   C3A29345  12.131  42.874   7.975
 2135POPC   C4A29346  12.463  42.828   7.696
 2135POPC   C1B29347  11.862  43.432   8.832
 2135POPC   C2B29348  12.029  43.572   8.524
 2135POPC   C3B29349  11.918  43.499   8.139
 2135POPC   C4B29350  12.144  43.353   7.780
 2136POPC   NC329351  24.176  22.260   9.543
 2136POPC   PO429352  24.818  21.900   9.521
 2136POPC   GL129353  24.480  21.982   9.217
 2136POPC   GL229354  24.149  21.780   9.272
 2136POPC   C1A29355  24.481  22.168   8.796
 2136POPC   D2A29356  24.628  21.981   8.393
 2136POPC   C3A29357  24.790  22.233   8.064
 2136POPC   C4A29358  24.674  22.331   7.676
 2136POPC   C1B29359  24.028  21.943   8.853
 2136POPC   C2B29360  24.089  22.179   8.442
 2136POPC   C3B29361  24.279  22.169   8.029
 2136POPC   C4B29362  24.327  21.941   7.633
 2137POPC   NC329363  25.415  37.158   9.676
 2137POPC   PO429364  26.041  37.025   9.554
 2137POPC   GL129365  25.795  37.109   9.217
 2137POPC   GL229366  25.962  37.371   9.075
 2137POPC   C1A29367  25.727  36.917   8.819
 2137POPC   D2A29368  25.694  37.112   8.417
 2137POPC   C3A29369  25.712  36.845   8.054
 2137POPC   C4A29370  26.017  36.862   7.737
 2137POPC   C1B29371  26.121  37.176   8.676
 2137POPC   C2B29372  26.197  36.951   8.286
 2137POPC   C3B29373  26.473  36.865   7.921
 2137POPC   C4B29374  26.379  37.173   7.588
 2138POPC   NC329375  17.666   4.885   9.519
 2138POPC   PO429376  17.233   5.256   9.745
 2138POPC   GL129377  17.247   5.072   9.285
 2138POPC   GL229378  17.229   4.704   9.246
 2138POPC   C1A29379  17.373   5.144   8.831
 2138POPC   D2A29380  17.362   5.283   8.393
 2138POPC   C3A29381  17.622   5.194   8.024
 2138POPC   C4A29382  17.258   5.296   7.787
 2138POPC   C1B29383  16.996   4.809   8.899
 2138POPC   C2B29384  17.075   4.789   8.470
 2138POPC   C3B29385  17.223   4.881   8.089
 2138POPC   C4B29386  17.367   4.790   7.708
 2139POPC   NC329387  41.889  28.213   9.365
 2139POPC   PO429388  41.300  28.568   9.519
 2139POPC   GL129389  41.504  28.477   9.125
 2139POPC   GL229390  41.858  28.524   8.956
 2139POPC   C1A29391  41.405  28.415   8.713
 2139POPC   D2A29392  41.681  28.592   8.449
 2139POPC   C3A29393  41.533  28.633   8.072
 2139POPC   C4A29394  41.732  28.458   7.716
 2139POPC   C1B29395  41.819  28.139   8.657
 2139POPC   C2B29396  41.626  28.130   8.229
 2139POPC   C3B29397  41.542  27.985   7.816
 2139POPC   C4B29398  41.747  28.042   7.406
 2140POPC   NC329399  39.276  34.835   9.554
 2140POPC   PO429400  38.837  34.319   9.535
 2140POPC   GL129401  39.091  34.481   9.177
 2140POPC   GL229402  39.452  34.414   9.278
 2140POPC   C1A29403  39.016  34.649   8.723
 2140POPC   D2A29404  38.807  34.753   8.306
 2140POPC   C3A29405  38.960  34.551   7.948
 2140POPC   C4A29406  39.056  34.772   7.598
 2140POPC   C1B29407  39.503  34.539   8.867
 2140POPC   C2B29408  39.511  34.595   8.431
 2140POPC   C3B29409  39.444  34.392   8.045
 2140POPC   C4B29410  39.460  34.492   7.635
 2141POPC   NC329411  18.840  30.713   9.746
 2141POPC   PO429412  19.383  31.107   9.742
 2141POPC   GL129413  19.289  30.867   9.363
 2141POPC   GL229414  19.468  31.094   9.137
 2141POPC   C1A29415  18.984  30.706   9.018
 2141POPC   D2A29416  18.750  30.611   8.622
 2141POPC   C3A29417  18.790  30.847   8.208
 2141POPC   C4A29418  18.965  30.698   7.805
 2141POPC   C1B29419  19.446  30.755   8.815
 2141POPC   C2B29420  19.270  30.788   8.393
 2141POPC   C3B29421  19.268  31.050   7.994
 2141POPC   C4B29422  19.256  31.000   7.511
 2142POPC   NC329423  33.876  28.783   9.513
 2142POPC   PO429424  33.802  28.085   9.472
 2142POPC   GL129425  34.052  28.202   9.112
 2142POPC   GL229426  33.938  28.527   9.085
 2142POPC   C1A29427  34.047  28.272   8.671
 2142POPC   D2A29428  33.837  28.056   8.404
 2142POPC   C3A29429  34.009  28.112   8.015
 2142POPC   C4A29430  34.008  28.440   7.738
 2142POPC   C1B29431  33.585  28.292   8.905
 2142POPC   C2B29432  33.417  28.334   8.532
 2142POPC   C3B29433  33.526  28.327   8.115
 2142POPC   C4B29434  33.496  28.437   7.713
 2143POPC   NC329435   9.432  21.695   9.368
 2143POPC   PO429436   9.935  21.273   9.600
 2143POPC   GL129437   9.734  21.278   9.153
 2143POPC   GL229438   9.774  21.615   9.003
 2143POPC   C1A29439   9.673  21.112   8.707
 2143POPC   D2A29440   9.892  21.115   8.290
 2143POPC   C3A29441   9.659  21.099   7.919
 2143POPC   C4A29442   9.743  21.132   7.470
 2143POPC   C1B29443   9.421  21.552   8.722
 2143POPC   C2B29444   9.507  21.455   8.308
 2143POPC   C3B29445   9.754  21.587   7.976
 2143POPC   C4B29446   9.412  21.494   7.697
 2144POPC   NC329447  33.683   8.452   9.693
 2144POPC   PO429448  33.629   7.799   9.588
 2144POPC   GL129449  33.606   8.005   9.194
 2144POPC   GL229450  33.557   8.358   9.215
 2144POPC   C1A29451  33.838   8.182   8.821
 2144POPC   D2A29452  33.961   8.401   8.406
 2144POPC   C3A29453  33.942   8.236   7.959
 2144POPC   C4A29454  34.281   8.114   7.654
 2144POPC   C1B29455  33.498   8.604   8.862
 2144POPC   C2B29456  33.558   8.742   8.451
 2144POPC   C3B29457  33.400   8.792   8.056
 2144POPC   C4B29458  33.577   8.586   7.727
 2145POPC   NC329459  36.676  16.685   9.594
 2145POPC   PO429460  37.312  16.975   9.386
 2145POPC   GL129461  36.986  16.707   9.144
 2145POPC   GL229462  36.728  16.416   9.159
 2145POPC   C1A29463  36.844  16.699   8.709
 2145POPC   D2A29464  36.753  17.037   8.393
 2145POPC   C3A29465  36.692  16.838   8.029
 2145POPC   C4A29466  36.912  16.716   7.664
 2145POPC   C1B29467  36.429  16.420   8.794
 2145POPC   C2B29468  36.187  16.272   8.457
 2145POPC   C3B29469  36.326  16.335   8.037
 2145POPC   C4B29470  36.366  16.625   7.685
 2146POPC   NC329471   6.344  14.288   9.738
 2146POPC   PO429472   5.837  14.613   9.676
 2146POPC   GL129473   6.022  14.426   9.337
 2146POPC   GL229474   5.712  14.256   9.248
 2146POPC   C1A29475   6.104  14.382   8.903
 2146POPC   D2A29476   5.914  14.483   8.501
 2146POPC   C3A29477   6.052  14.413   8.076
 2146POPC   C4A29478   6.262  14.447   7.678
 2146POPC   C1B29479   5.628  14.173   8.814
 2146POPC   C2B29480   5.479  14.232   8.413
 2146POPC   C3B29481   5.611  14.154   7.974
 2146POPC   C4B29482   5.696  14.343   7.578
 2147POPC   NC329483  16.975   0.976   9.645
 2147POPC   PO429484  17.584   1.233   9.494
 2147POPC   GL129485  17.274   1.291   9.127
 2147POPC   GL229486  17.149   1.649   9.052
 2147POPC   C1A29487  17.326   1.064   8.747
 2147POPC   D2A29488  17.653   1.178   8.440
 2147POPC   C3A29489  17.579   1.064   7.995
 2147POPC   C4A29490  17.846   1.120   7.639
 2147POPC   C1B29491  17.412   1.571   8.682
 2147POPC   C2B29492  17.295   1.450   8.225
 2147POPC   C3B29493  17.199   1.422   7.775
 2147POPC   C4B29494  16.987   1.622   7.382
 2148POPC   NC329495   3.019  18.945   9.242
 2148POPC   PO429496   2.497  19.118   9.644
 2148POPC   GL129497   2.489  18.893   9.201
 2148POPC   GL229498   2.551  19.166   9.094
 2148POPC   C1A29499   2.583  18.774   8.739
 2148POPC   D2A29500   2.432  18.938   8.310
 2148POPC   C3A29501   2.795  18.946   8.005
 2148POPC   C4A29502   2.870  18.755   7.590
 2148POPC   C1B29503   2.582  19.271   8.687
 2148POPC   C2B29504   2.697  19.382   8.283
 2148POPC   C3B29505   2.506  19.372   7.905
 2148POPC   C4B29506   2.809  19.285   7.605
 2149POPC   NC329507  10.267  30.222   9.933
 2149POPC   PO429508   9.814  29.939   9.458
 2149POPC   GL129509   9.381  29.962   9.211
 2149POPC   GL229510   9.190  30.198   8.980
 2149POPC   C1A29511   9.386  29.748   8.805
 2149POPC   D2A29512   9.697  29.667   8.517
 2149POPC   C3A29513   9.562  29.786   8.125
 2149POPC   C4A29514   9.623  29.833   7.699
 2149POPC   C1B29515   9.628  30.205   8.790
 2149POPC   C2B29516   9.808  30.184   8.380
 2149POPC   C3B29517   9.807  30.238   7.940
 2149POPC   C4B29518   9.679  30.307   7.513
 2150POPC   NC329519  35.711  31.558   9.940
 2150POPC   PO429520  36.063  31.122   9.549
 2150POPC   GL129521  35.858  31.368   9.204
 2150POPC   GL229522  35.684  31.109   9.029
 2150POPC   C1A29523  35.953  31.596   8.803
 2150POPC   D2A29524  36.312  31.580   8.483
 2150POPC   C3A29525  36.296  31.784   8.055
 2150POPC   C4A29526  36.013  31.574   7.778
 2150POPC   C1B29527  36.092  31.061   8.848
 2150POPC   C2B29528  36.177  31.020   8.416
 2150POPC   C3B29529  35.912  31.193   8.101
 2150POPC   C4B29530  35.984  31.059   7.693
 2151POPC   NC329531   2.521  23.024   9.549
 2151POPC   PO429532   3.134  23.277   9.659
 2151POPC   GL129533   2.918  23.203   9.223
 2151POPC   GL229534   2.792  22.857   9.153
 2151POPC   C1A29535   2.840  23.156   8.727
 2151POPC   D2A29536   2.652  23.045   8.303
 2151POPC   C3A29537   2.966  23.158   7.933
 2151POPC   C4A29538   3.141  22.852   7.611
 2151POPC   C1B29539   2.471  22.777   8.799
 2151POPC   C2B29540   2.237  22.620   8.447
 2151POPC   C3B29541   2.374  22.658   8.024
 2151POPC   C4B29542   2.488  23.043   7.814
 2152POPC   NC329543   3.910   9.469   9.458
 2152POPC   PO429544   3.341   9.828   9.600
 2152POPC   GL129545   3.277   9.725   9.165
 2152POPC   GL229546   3.579   9.935   9.140
 2152POPC   C1A29547   3.312   9.832   8.706
 2152POPC   D2A29548   3.245  10.067   8.295
 2152POPC   C3A29549   3.303   9.737   7.964
 2152POPC   C4A29550   3.722   9.539   8.020
 2152POPC   C1B29551   3.830   9.802   8.803
 2152POPC   C2B29552   3.737   9.935   8.408
 2152POPC   C3B29553   3.684  10.070   8.026
 2152POPC   C4B29554   3.742   9.904   7.658
 2153POPC   NC329555   1.060  13.314   9.415
 2153POPC   PO429556   1.459  13.852   9.421
 2153POPC   GL129557   1.411  13.538   9.074
 2153POPC   GL229558   1.094  13.636   8.993
 2153POPC   C1A29559   1.333  13.369   8.633
 2153POPC   D2A29560   0.991  13.404   8.286
 2153POPC   C3A29561   1.203  13.539   7.905
 2153POPC   C4A29562   1.658  13.459   7.832
 2153POPC   C1B29563   0.761  13.816   8.762
 2153POPC   C2B29564   0.675  13.881   8.318
 2153POPC   C3B29565   0.709  13.953   7.853
 2153POPC   C4B29566   0.798  13.675   7.510
 2154POPC   NC329567  13.305  26.194  10.032
 2154POPC   PO429568  12.773  26.178   9.638
 2154POPC   GL129569  12.701  26.268   9.222
 2154POPC   GL229570  13.018  26.381   9.071
 2154POPC   C1A29571  12.630  26.182   8.797
 2154POPC   D2A29572  12.743  25.946   8.432
 2154POPC   C3A29573  12.654  26.050   8.004
 2154POPC   C4A29574  12.773  25.688   7.753
 2154POPC   C1B29575  13.122  26.219   8.672
 2154POPC   C2B29576  12.996  26.361   8.279
 2154POPC   C3B29577  13.170  26.383   7.873
 2154POPC   C4B29578  13.202  26.176   7.455
 2155POPC   NC329579  31.765  41.233   9.636
 2155POPC   PO429580  31.454  41.871   9.616
 2155POPC   GL129581  31.601  41.803   9.166
 2155POPC   GL229582  31.947  41.859   9.083
 2155POPC   C1A29583  31.640  41.534   8.764
 2155POPC   D2A29584  31.700  41.357   8.308
 2155POPC   C3A29585  31.424  41.418   7.957
 2155POPC   C4A29586  31.249  41.496   7.530
 2155POPC   C1B29587  31.788  42.019   8.667
 2155POPC   C2B29588  31.686  41.958   8.219
 2155POPC   C3B29589  31.337  41.918   7.899
 2155POPC   C4B29590  31.427  41.965   7.453
 2156POPC   NC329591  28.997   6.148   9.566
 2156POPC   PO429592  28.979   5.605   9.219
 2156POPC   GL129593  28.998   6.009   9.054
 2156POPC   GL229594  29.289   6.126   9.107
 2156POPC   C1A29595  28.931   6.014   8.649
 2156POPC   D2A29596  28.878   5.648   8.427
 2156POPC   C3A29597  28.908   5.913   8.103
 2156POPC   C4A29598  28.754   5.871   7.705
 2156POPC   C1B29599  29.395   5.813   8.751
 2156POPC   C2B29600  29.372   5.711   8.325
 2156POPC   C3B29601  29.367   5.704   7.900
 2156POPC   C4B29602  29.602   5.567   7.547
 2157POPC   NC329603   2.140  22.088   9.516
 2157POPC   PO429604   1.529  21.751   9.440
 2157POPC   GL129605   1.641  21.966   9.064
 2157POPC   GL229606   1.890  22.236   9.089
 2157POPC   C1A29607   1.686  22.155   8.645
 2157POPC   D2A29608   1.842  21.944   8.308
 2157POPC   C3A29609   1.892  22.036   7.861
 2157POPC   C4A29610   1.844  21.728   7.509
 2157POPC   C1B29611   2.318  22.289   8.902
 2157POPC   C2B29612   2.473  22.147   8.524
 2157POPC   C3B29613   2.274  22.171   8.152
 2157POPC   C4B29614   2.337  22.256   7.720
 2158POPC   NC329615  35.119  34.355   9.468
 2158POPC   PO429616  35.300  34.962   9.442
 2158POPC   GL129617  35.166  34.736   9.102
 2158POPC   GL229618  35.450  34.520   9.105
 2158POPC   C1A29619  35.230  34.653   8.655
 2158POPC   D2A29620  35.117  34.479   8.259
 2158POPC   C3A29621  35.104  34.654   7.850
 2158POPC   C4A29622  35.103  34.408   7.510
 2158POPC   C1B29623  35.615  34.272   8.737
 2158POPC   C2B29624  35.606  34.343   8.284
 2158POPC   C3B29625  35.505  34.325   7.835
 2158POPC   C4B29626  35.529  34.207   7.360
 2159POPC   NC329627  14.574  35.381   9.725
 2159POPC   PO429628  14.100  35.673   9.463
 2159POPC   GL129629  14.310  35.541   9.126
 2159POPC   GL229630  14.432  35.201   9.245
 2159POPC   C1A29631  14.210  35.563   8.693
 2159POPC   D2A29632  14.088  35.687   8.282
 2159POPC   C3A29633  14.312  35.501   7.996
 2159POPC   C4A29634  14.687  35.528   7.811
 2159POPC   C1B29635  14.254  35.083   8.824
 2159POPC   C2B29636  14.446  35.214   8.426
 2159POPC   C3B29637  14.301  35.015   8.092
 2159POPC   C4B29638  14.477  35.056   7.695
 2160POPC   NC329639  43.140  14.922   9.550
 2160POPC   PO429640  43.519  15.498   9.448
 2160POPC   GL129641  43.373  15.159   9.136
 2160POPC   GL229642  43.023  14.992   9.075
 2160POPC   C1A29643  43.346  15.080   8.704
 2160POPC   D2A29644  43.176  14.882   8.382
 2160POPC   C3A29645  43.342  15.114   8.068
 2160POPC   C4A29646  43.391  14.997   7.677
 2160POPC   C1B29647  42.808  15.039   8.701
 2160POPC   C2B29648  42.684  15.014   8.270
 2160POPC   C3B29649  42.906  14.918   7.865
 2160POPC   C4B29650  42.732  14.830   7.426
 2161POPC   NC329651   9.281  27.041   9.524
 2161POPC   PO429652   9.345  26.362   9.392
 2161POPC   GL129653   9.011  26.679   9.214
 2161POPC   GL229654   8.630  26.670   9.182
 2161POPC   C1A29655   9.034  26.976   8.857
 2161POPC   D2A29656   9.180  26.895   8.427
 2161POPC   C3A29657   9.030  26.986   8.003
 2161POPC   C4A29658   8.800  26.681   7.738
 2161POPC   C1B29659   8.517  26.959   8.835
 2161POPC   C2B29660   8.692  27.070   8.437
 2161POPC   C3B29661   8.519  27.020   8.035
 2161POPC   C4B29662   8.677  27.173   7.661
 2162POPC   NC329663   3.782  32.231   9.814
 2162POPC   PO429664   3.268  32.391   9.378
 2162POPC   GL129665   3.559  32.223   9.189
 2162POPC   GL229666   3.635  32.515   9.011
 2162POPC   C1A29667   3.582  32.056   8.789
 2162POPC   D2A29668   3.350  31.988   8.425
 2162POPC   C3A29669   3.598  32.108   8.123
 2162POPC   C4A29670   3.692  31.926   7.761
 2162POPC   C1B29671   3.752  32.508   8.568
 2162POPC   C2B29672   3.771  32.602   8.130
 2162POPC   C3B29673   3.753  32.424   7.733
 2162POPC   C4B29674   3.304  32.365   7.784
 2163POPC   NC329675  33.227  13.591   9.628
 2163POPC   PO429676  32.574  13.577   9.485
 2163POPC   GL129677  32.913  13.696   9.205
 2163POPC   GL229678  33.148  13.428   9.158
 2163POPC   C1A29679  33.020  13.759   8.754
 2163POPC   D2A29680  33.329  13.863   8.421
 2163POPC   C3A29681  33.338  13.672   7.994
 2163POPC   C4A29682  33.341  13.738   7.527
 2163POPC   C1B29683  33.083  13.234   8.776
 2163POPC   C2B29684  33.264  13.318   8.395
 2163POPC   C3B29685  33.050  13.251   8.031
 2163POPC   C4B29686  32.910  13.496   7.691
 2164POPC   NC329687   2.593  14.901   9.805
 2164POPC   PO429688   2.792  15.524   9.691
 2164POPC   GL129689   2.798  15.329   9.255
 2164POPC   GL229690   2.871  15.034   9.362
 2164POPC   C1A29691   2.611  15.307   8.837
 2164POPC   D2A29692   2.667  15.052   8.471
 2164POPC   C3A29693   2.462  15.167   8.097
 2164POPC   C4A29694   2.706  15.403   7.821
 2164POPC   C1B29695   2.922  14.873   8.939
 2164POPC   C2B29696   3.136  14.866   8.545
 2164POPC   C3B29697   3.118  14.917   8.112
 2164POPC   C4B29698   2.826  14.905   7.799
 2165POPC   NC329699  14.802  31.168   9.541
 2165POPC   PO429700  14.365  31.610   9.634
 2165POPC   GL129701  14.358  31.411   9.236
 2165POPC   GL229702  14.324  31.725   9.113
 2165POPC   C1A29703  14.318  31.325   8.785
 2165POPC   D2A29704  14.424  31.137   8.395
 2165POPC   C3A29705  14.401  31.340   8.003
 2165POPC   C4A29706  14.616  31.718   7.886
 2165POPC   C1B29707  14.083  31.788   8.757
 2165POPC   C2B29708  14.130  31.625   8.364
 2165POPC   C3B29709  14.062  31.762   7.950
 2165POPC   C4B29710  14.211  31.669   7.517
 2166POPC   NC329711  40.812  34.264   9.353
 2166POPC   PO429712  40.539  34.820   9.550
 2166POPC   GL129713  40.936  34.843   9.260
 2166POPC   GL229714  40.840  34.635   9.015
 2166POPC   C1A29715  41.224  34.900   8.861
 2166POPC   D2A29716  40.949  34.721   8.512
 2166POPC   C3A29717  40.857  34.510   8.101
 2166POPC   C4A29718  41.088  34.516   7.668
 2166POPC   C1B29719  40.732  34.312   8.727
 2166POPC   C2B29720  40.749  33.961   8.480
 2166POPC   C3B29721  40.914  33.991   8.051
 2166POPC   C4B29722  40.692  34.195   7.721
 2167POPC   NC329723   2.104  27.168   9.526
 2167POPC   PO429724   1.674  26.641   9.416
 2167POPC   GL129725   1.811  26.907   9.144
 2167POPC   GL229726   2.132  26.837   9.119
 2167POPC   C1A29727   1.753  26.942   8.709
 2167POPC   D2A29728   1.954  27.087   8.314
 2167POPC   C3A29729   1.720  26.988   7.955
 2167POPC   C4A29730   1.737  26.890   7.535
 2167POPC   C1B29731   2.270  26.954   8.703
 2167POPC   C2B29732   2.298  26.706   8.299
 2167POPC   C3B29733   2.125  26.636   7.864
 2167POPC   C4B29734   2.218  26.820   7.431
 2168POPC   NC329735  34.087  22.840   9.462
 2168POPC   PO429736  33.437  22.797   9.516
 2168POPC   GL129737  33.677  22.780   9.138
 2168POPC   GL229738  33.846  23.104   9.099
 2168POPC   C1A29739  33.776  22.826   8.681
 2168POPC   D2A29740  33.980  22.938   8.314
 2168POPC   C3A29741  33.870  22.679   8.010
 2168POPC   C4A29742  33.650  22.652   7.641
 2168POPC   C1B29743  34.055  23.245   8.718
 2168POPC   C2B29744  34.152  23.427   8.301
 2168POPC   C3B29745  34.120  23.360   7.817
 2168POPC   C4B29746  33.979  23.024   7.534
 2169POPC   NC329747  33.971  41.394   9.490
 2169POPC   PO429748  34.606  41.719   9.468
 2169POPC   GL129749  34.434  41.435   9.193
 2169POPC   GL229750  34.749  41.498   8.980
 2169POPC   C1A29751  34.325  41.327   8.773
 2169POPC   D2A29752  34.543  41.575   8.454
 2169POPC   C3A29753  34.569  41.460   8.067
 2169POPC   C4A29754  34.841  41.378   7.733
 2169POPC   C1B29755  34.432  41.860   8.853
 2169POPC   C2B29756  34.291  42.064   8.464
 2169POPC   C3B29757  34.272  41.897   8.055
 2169POPC   C4B29758  34.560  41.808   7.691
 2170POPC   NC329759  29.080  10.980   9.485
 2170POPC   PO429760  29.013  10.327   9.593
 2170POPC   GL129761  28.850  10.599   9.224
 2170POPC   GL229762  28.915  10.300   9.096
 2170POPC   C1A29763  29.063  10.801   8.821
 2170POPC   D2A29764  29.352  10.634   8.473
 2170POPC   C3A29765  29.234  10.553   8.082
 2170POPC   C4A29766  29.022  10.822   7.805
 2170POPC   C1B29767  29.213  10.298   8.821
 2170POPC   C2B29768  29.063  10.174   8.425
 2170POPC   C3B29769  28.898  10.152   8.032
 2170POPC   C4B29770  29.018  10.067   7.623
 2171POPC   NC329771  32.998  28.696   9.546
 2171POPC   PO429772  32.809  28.108   9.592
 2171POPC   GL129773  32.816  28.366   9.193
 2171POPC   GL229774  33.151  28.537   9.087
 2171POPC   C1A29775  32.616  28.376   8.784
 2171POPC   D2A29776  32.616  28.622   8.386
 2171POPC   C3A29777  32.751  28.431   8.002
 2171POPC   C4A29778  32.921  28.270   7.636
 2171POPC   C1B29779  33.057  28.683   8.665
 2171POPC   C2B29780  33.146  28.687   8.207
 2171POPC   C3B29781  33.101  28.746   7.745
 2171POPC   C4B29782  33.367  28.723   7.318
 2172POPC   NC329783  37.210  43.930   9.453
 2172POPC   PO429784  36.550  43.791   9.389
 2172POPC   GL129785  36.824  43.853   9.076
 2172POPC   GL229786  37.058  43.570   9.108
 2172POPC   C1A29787  36.823  44.128   8.720
 2172POPC   D2A29788  36.798  44.228   8.309
 2172POPC   C3A29789  36.640  43.925   8.058
 2172POPC   C4A29790  36.774  43.833   7.633
 2172POPC   C1B29791  37.268  43.867   8.805
 2172POPC   C2B29792  37.250  44.005   8.389
 2172POPC   C3B29793  37.140  43.866   7.968
 2172POPC   C4B29794  37.250  44.012   7.531
 2173POPC   NC329795  16.460   6.172   9.406
 2173POPC   PO429796  16.789   5.699   9.550
 2173POPC   GL129797  17.032   5.706   9.158
 2173POPC   GL229798  16.988   6.089   9.144
 2173POPC   C1A29799  17.009   5.534   8.710
 2173POPC   D2A29800  16.769   5.711   8.392
 2173POPC   C3A29801  16.963   5.676   7.992
 2173POPC   C4A29802  16.631   5.777   7.738
 2173POPC   C1B29803  16.937   6.131   8.700
 2173POPC   C2B29804  17.137   6.052   8.292
 2173POPC   C3B29805  16.901   6.167   7.927
 2173POPC   C4B29806  16.476   6.255   7.827
 2174POPC   NC329807  34.093  44.446   9.384
 2174POPC   PO429808  33.975  44.994   9.873
 2174POPC   GL129809  33.869  44.920   9.375
 2174POPC   GL229810  34.116  44.851   9.090
 2174POPC   C1A29811  33.640  44.889   8.935
 2174POPC   D2A29812  33.543  44.929   8.485
 2174POPC   C3A29813  33.687  44.641   8.165
 2174POPC   C4A29814  33.616  44.687   7.732
 2174POPC   C1B29815  34.075  44.690   8.671
 2174POPC   C2B29816  34.162  44.876   8.261
 2174POPC   C3B29817  34.100  44.749   7.841
 2174POPC   C4B29818  33.976  44.673   7.388
 2175POPC   NC329819  44.235  36.995   9.495
 2175POPC   PO429820  44.705  36.564   9.554
 2175POPC   GL129821  44.706  36.832   9.212
 2175POPC   GL229822   0.014  37.041   9.172
 2175POPC   C1A29823  44.536  36.747   8.827
 2175POPC   D2A29824  44.710  36.641   8.425
 2175POPC   C3A29825  44.717  36.855   8.077
 2175POPC   C4A29826  44.776  36.730   7.636
 2175POPC   C1B29827   0.058  36.807   8.774
 2175POPC   C2B29828   0.189  36.825   8.320
 2175POPC   C3B29829   0.211  36.845   7.865
 2175POPC   C4B29830   0.120  37.118   7.538
 2176POPC   NC329831   0.293  19.556   9.369
 2176POPC   PO429832   0.517  20.177   9.594
 2176POPC   GL129833   0.589  19.952   9.218
 2176POPC   GL229834   0.325  20.149   9.099
 2176POPC   C1A29835   0.654  19.824   8.795
 2176POPC   D2A29836   0.452  19.727   8.410
 2176POPC   C3A29837   0.649  19.944   8.113
 2176POPC   C4A29838   0.616  19.914   7.703
 2176POPC   C1B29839   0.147  20.020   8.722
 2176POPC   C2B29840   0.006  19.925   8.308
 2176POPC   C3B29841   0.161  20.030   7.927
 2176POPC   C4B29842   0.279  20.266   7.532
 2177POPC   NC329843   3.754  25.120   9.782
 2177POPC   PO429844   4.439  25.174   9.602
 2177POPC   GL129845   4.342  25.236   9.178
 2177POPC   GL229846   4.203  25.579   9.171
 2177POPC   C1A29847   4.597  25.236   8.798
 2177POPC   D2A29848   4.720  25.474   8.438
 2177POPC   C3A29849   4.512  25.404   8.054
 2177POPC   C4A29850   4.385  25.097   7.767
 2177POPC   C1B29851   4.143  25.498   8.753
 2177POPC   C2B29852   4.035  25.269   8.385
 2177POPC   C3B29853   3.980  25.375   7.974
 2177POPC   C4B29854   4.000  25.460   7.544
 2178POPC   NC329855  43.413  27.110   9.401
 2178POPC   PO429856  43.967  27.517   9.483
 2178POPC   GL129857  43.913  27.373   9.101
 2178POPC   GL229858  44.219  27.243   9.044
 2178POPC   C1A29859  43.690  27.523   8.729
 2178POPC   D2A29860  43.845  27.638   8.343
 2178POPC   C3A29861  43.674  27.534   7.982
 2178POPC   C4A29862  43.438  27.245   7.776
 2178POPC   C1B29863  44.198  27.634   8.730
 2178POPC   C2B29864  44.333  27.649   8.281
 2178POPC   C3B29865  44.208  27.621   7.831
 2178POPC   C4B29866  44.135  27.648   7.364
 2179POPC   NC329867  35.359  32.933   9.507
 2179POPC   PO429868  35.307  33.599   9.330
 2179POPC   GL129869  35.309  33.201   9.068
 2179POPC   GL229870  35.504  32.868   9.038
 2179POPC   C1A29871  35.353  33.139   8.620
 2179POPC   D2A29872  35.353  33.519   8.367
 2179POPC   C3A29873  35.225  33.451   7.966
 2179POPC   C4A29874  34.876  33.178   7.890
 2179POPC   C1B29875  35.766  32.628   8.794
 2179POPC   C2B29876  35.745  32.682   8.386
 2179POPC   C3B29877  35.880  32.824   8.033
 2179POPC   C4B29878  35.592  33.084   7.829
 2180POPC   NC329879   8.554  36.884   9.504
 2180POPC   PO429880   9.221  36.881   9.472
 2180POPC   GL129881   9.111  36.779   9.103
 2180POPC   GL229882   8.797  36.599   9.132
 2180POPC   C1A29883   9.226  36.680   8.719
 2180POPC   D2A29884   9.031  36.505   8.376
 2180POPC   C3A29885   9.245  36.715   8.078
 2180POPC   C4A29886   9.241  36.865   7.674
 2180POPC   C1B29887   8.737  36.904   8.783
 2180POPC   C2B29888   8.906  37.010   8.366
 2180POPC   C3B29889   8.815  36.971   7.910
 2180POPC   C4B29890   8.852  37.025   7.403
 2181POPC   NC329891  28.144  11.332   9.511
 2181POPC   PO429892  28.797  11.303   9.621
 2181POPC   GL129893  28.625  11.149   9.264
 2181POPC   GL229894  28.478  11.455   9.164
 2181POPC   C1A29895  28.600  11.035   8.842
 2181POPC   D2A29896  28.363  10.949   8.457
 2181POPC   C3A29897  28.310  11.307   8.135
 2181POPC   C4A29898  28.545  11.245   7.712
 2181POPC   C1B29899  28.254  11.424   8.746
 2181POPC   C2B29900  27.996  11.631   8.412
 2181POPC   C3B29901  27.946  11.685   7.974
 2181POPC   C4B29902  28.203  11.604   7.641
 2182POPC   NC329903   1.714  38.685   9.564
 2182POPC   PO429904   2.283  38.307   9.526
 2182POPC   GL129905   2.138  38.549   9.173
 2182POPC   GL229906   1.810  38.463   9.133
 2182POPC   C1A29907   2.092  38.426   8.735
 2182POPC   D2A29908   2.048  38.658   8.400
 2182POPC   C3A29909   2.142  38.471   8.050
 2182POPC   C4A29910   2.239  38.759   7.744
 2182POPC   C1B29911   1.535  38.441   8.783
 2182POPC   C2B29912   1.617  38.396   8.356
 2182POPC   C3B29913   1.589  38.237   7.954
 2182POPC   C4B29914   1.824  38.442   7.644
 2183POPC   NC329915  31.786  10.664   9.516
 2183POPC   PO429916  32.480  10.388   9.503
 2183POPC   GL129917  32.370  10.509   9.146
 2183POPC   GL229918  32.491  10.813   9.108
 2183POPC   C1A29919  32.231  10.444   8.763
 2183POPC   D2A29920  32.355  10.563   8.384
 2183POPC   C3A29921  32.169  10.439   8.021
 2183POPC   C4A29922  32.300  10.408   7.616
 2183POPC   C1B29923  32.530  10.959   8.719
 2183POPC   C2B29924  32.395  11.107   8.347
 2183POPC   C3B29925  32.460  10.870   7.982
 2183POPC   C4B29926  32.565  10.886   7.571
 2184POPC   NC329927  39.596  19.862   9.478
 2184POPC   PO429928  38.966  20.070   9.542
 2184POPC   GL129929  39.255  20.047   9.161
 2184POPC   GL229930  39.288  19.728   9.052
 2184POPC   C1A29931  39.231  20.140   8.705
 2184POPC   D2A29932  39.325  20.334   8.300
 2184POPC   C3A29933  39.380  20.069   7.939
 2184POPC   C4A29934  39.203  19.636   7.818
 2184POPC   C1B29935  39.473  19.430   8.771
 2184POPC   C2B29936  39.627  19.261   8.394
 2184POPC   C3B29937  39.630  19.417   7.955
 2184POPC   C4B29938  39.547  19.447   7.484
 2185POPC   NC329939  16.646  26.926   9.530
 2185POPC   PO429940  16.757  26.265   9.513
 2185POPC   GL129941  16.742  26.615   9.133
 2185POPC   GL229942  16.655  27.036   9.051
 2185POPC   C1A29943  17.061  26.603   8.786
 2185POPC   D2A29944  17.092  26.369   8.399
 2185POPC   C3A29945  17.078  26.600   8.017
 2185POPC   C4A29946  16.726  26.742   7.784
 2185POPC   C1B29947  16.642  26.852   8.678
 2185POPC   C2B29948  16.639  26.663   8.296
 2185POPC   C3B29949  16.289  26.597   8.036
 2185POPC   C4B29950  16.234  26.397   7.661
 2186POPC   NC329951  26.140  38.305   9.569
 2186POPC   PO429952  25.978  38.950   9.442
 2186POPC   GL129953  25.905  38.577   9.195
 2186POPC   GL229954  26.159  38.712   9.019
 2186POPC   C1A29955  26.060  38.245   8.868
 2186POPC   D2A29956  26.333  38.024   8.580
 2186POPC   C3A29957  26.279  38.118   8.148
 2186POPC   C4A29958  26.027  38.142   7.772
 2186POPC   C1B29959  25.836  38.651   8.690
 2186POPC   C2B29960  25.923  38.483   8.276
 2186POPC   C3B29961  25.873  38.628   7.877
 2186POPC   C4B29962  26.201  38.647   7.624
 2187POPC   NC329963  44.311  14.662   9.620
 2187POPC   PO429964  43.599  14.773   9.458
 2187POPC   GL129965  43.865  14.557   9.158
 2187POPC   GL229966  44.182  14.671   9.088
 2187POPC   C1A29967  43.778  14.366   8.748
 2187POPC   D2A29968  43.533  14.298   8.368
 2187POPC   C3A29969  43.783  14.356   8.025
 2187POPC   C4A29970  43.936  14.232   7.633
 2187POPC   C1B29971  44.222  14.602   8.640
 2187POPC   C2B29972  44.247  14.695   8.214
 2187POPC   C3B29973  44.199  14.639   7.777
 2187POPC   C4B29974  44.167  14.583   7.312
 2188POPC   NC329975  34.904  17.133   9.501
 2188POPC   PO429976  34.378  17.600   9.717
 2188POPC   GL129977  34.505  17.470   9.304
 2188POPC   GL229978  34.248  17.400   9.201
 2188POPC   C1A29979  34.544  17.582   8.826
 2188POPC   D2A29980  34.426  17.662   8.380
 2188POPC   C3A29981  34.572  17.576   7.942
 2188POPC   C4A29982  34.422  17.588   7.505
 2188POPC   C1B29983  34.206  17.113   8.900
 2188POPC   C2B29984  34.406  17.123   8.525
 2188POPC   C3B29985  34.220  17.237   8.148
 2188POPC   C4B29986  34.265  17.171   7.728
 2189POPC   NC329987  12.247  42.269   9.526
 2189POPC   PO429988  11.597  42.611   9.575
 2189POPC   GL129989  11.829  42.398   9.242
 2189POPC   GL229990  11.858  42.027   9.275
 2189POPC   C1A29991  12.019  42.442   8.834
 2189POPC   D2A29992  11.985  42.641   8.426
 2189POPC   C3A29993  12.212  42.396   8.146
 2189POPC   C4A29994  12.249  42.360   7.714
 2189POPC   C1B29995  11.642  42.060   8.877
 2189POPC   C2B29996  11.798  42.133   8.454
 2189POPC   C3B29997  11.852  42.026   8.044
 2189POPC   C4B29998  11.848  42.063   7.617
 2190POPC   NC329999   2.951  42.002   9.315
 2190POPC   PO430000   2.717  42.616   9.461
 2190POPC   GL130001   2.933  42.579   9.070
 2190POPC   GL230002   3.269  42.387   9.102
 2190POPC   C1A30003   2.834  42.470   8.624
 2190POPC   D2A30004   2.763  42.190   8.252
 2190POPC   C3A30005   2.764  42.405   7.872
 2190POPC   C4A30006   2.666  42.690   7.563
 2190POPC   C1B30007   3.323  42.666   8.725
 2190POPC   C2B30008   3.172  42.784   8.318
 2190POPC   C3B30009   3.117  42.774   7.877
 2190POPC   C4B30010   3.389  42.548   7.642
 2191POPC   NC330011   1.703   4.414   9.677
 2191POPC   PO430012   2.276   4.206   9.610
 2191POPC   GL130013   1.941   4.222   9.246
 2191POPC   GL230014   1.812   4.564   9.186
 2191POPC   C1A30015   1.832   4.139   8.785
 2191POPC   D2A30016   1.956   4.309   8.383
 2191POPC   C3A30017   1.838   4.358   7.965
 2191POPC   C4A30018   1.964   4.044   7.689
 2191POPC   C1B30019   1.955   4.651   8.769
 2191POPC   C2B30020   2.328   4.588   8.572
 2191POPC   C3B30021   2.383   4.540   8.160
 2191POPC   C4B30022   2.326   4.453   7.759
 2192POPC   NC330023  14.899   0.168   9.564
 2192POPC   PO430024  15.574   0.488   9.524
 2192POPC   GL130025  15.278   0.429   9.244
 2192POPC   GL230026  15.507   0.272   9.039
 2192POPC   C1A30027  15.028   0.413   8.870
 2192POPC   D2A30028  14.882   0.391   8.447
 2192POPC   C3A30029  15.093   0.230   8.078
 2192POPC   C4A30030  15.032   0.289   7.626
 2192POPC   C1B30031  15.469   0.659   8.779
 2192POPC   C2B30032  15.418   0.608   8.317
 2192POPC   C3B30033  15.357   0.634   7.854
 2192POPC   C4B30034  15.429   0.717   7.389
 2193POPC   NC330035  11.856  28.693   9.541
 2193POPC   PO430036  12.002  28.034   9.611
 2193POPC   GL130037  11.991  28.168   9.210
 2193POPC   GL230038  11.683  28.098   9.065
 2193POPC   C1A30039  12.127  28.050   8.783
 2193POPC   D2A30040  12.418  28.032   8.420
 2193POPC   C3A30041  12.162  28.149   8.063
 2193POPC   C4A30042  12.142  28.580   7.977
 2193POPC   C1B30043  11.791  28.483   8.832
 2193POPC   C2B30044  11.777  28.619   8.374
 2193POPC   C3B30045  11.714  28.830   7.968
 2193POPC   C4B30046  11.767  28.603   7.586
 2194POPC   NC330047  12.290   7.127   9.306
 2194POPC   PO430048  11.956   7.481   9.782
 2194POPC   GL130049  11.990   7.544   9.323
 2194POPC   GL230050  12.348   7.636   9.245
 2194POPC   C1A30051  11.874   7.411   8.879
 2194POPC   D2A30052  12.060   7.423   8.464
 2194POPC   C3A30053  11.795   7.435   8.099
 2194POPC   C4A30054  11.907   7.431   7.677
 2194POPC   C1B30055  12.425   7.521   8.807
 2194POPC   C2B30056  12.638   7.461   8.411
 2194POPC   C3B30057  12.362   7.503   8.063
 2194POPC   C4B30058  12.437   7.339   7.676
 2195POPC   NC330059  27.370  15.372   9.487
 2195POPC   PO430060  27.830  14.922   9.567
 2195POPC   GL130061  27.637  15.012   9.187
 2195POPC   GL230062  27.349  14.811   9.153
 2195POPC   C1A30063  27.613  15.233   8.788
 2195POPC   D2A30064  27.834  15.286   8.387
 2195POPC   C3A30065  27.608  15.295   7.972
 2195POPC   C4A30066  27.494  15.372   7.525
 2195POPC   C1B30067  27.516  14.718   8.783
 2195POPC   C2B30068  27.563  14.845   8.422
 2195POPC   C3B30069  27.597  14.660   8.068
 2195POPC   C4B30070  27.502  14.864   7.698
 2196POPC   NC330071   3.624  44.962   9.444
 2196POPC   PO430072   3.667   0.638   9.524
 2196POPC   GL130073   3.585   0.434   9.173
 2196POPC   GL230074   3.923   0.285   9.162
 2196POPC   C1A30075   3.716   0.565   8.772
 2196POPC   D2A30076   3.816   0.380   8.400
 2196POPC   C3A30077   3.729   0.691   8.143
 2196POPC   C4A30078   3.452   0.653   7.825
 2196POPC   C1B30079   3.689   0.053   8.818
 2196POPC   C2B30080   3.492  44.980   8.414
 2196POPC   C3B30081   3.545   0.155   7.993
 2196POPC   C4B30082   3.868   0.340   7.799
 2197POPC   NC330083  10.551  10.817   9.733
 2197POPC   PO430084  10.599  10.194   9.641
 2197POPC   GL130085  10.562  10.504   9.315
 2197POPC   GL230086  10.236  10.652   9.233
 2197POPC   C1A30087  10.665  10.557   8.893
 2197POPC   D2A30088  10.458  10.455   8.521
 2197POPC   C3A30089  10.723  10.526   8.147
 2197POPC   C4A30090  10.551  10.573   7.728
 2197POPC   C1B30091  10.298  10.927   8.865
 2197POPC   C2B30092  10.176  10.901   8.450
 2197POPC   C3B30093  10.190  10.614   8.113
 2197POPC   C4B30094  10.123  10.843   7.754
 2198POPC   NC330095  32.362  11.515   9.541
 2198POPC   PO430096  31.943  11.084   9.643
 2198POPC   GL130097  32.095  11.150   9.233
 2198POPC   GL230098  31.985  10.846   9.073
 2198POPC   C1A30099  32.222  11.352   8.845
 2198POPC   D2A30100  32.223  11.621   8.465
 2198POPC   C3A30101  32.478  11.559   8.094
 2198POPC   C4A30102  32.667  11.839   7.761
 2198POPC   C1B30103  32.019  10.868   8.637
 2198POPC   C2B30104  31.956  10.858   8.186
 2198POPC   C3B30105  32.100  11.203   7.914
 2198POPC   C4B30106  32.159  11.174   7.465
 2199POPC   NC330107  19.322  14.243   9.441
 2199POPC   PO430108  18.736  14.615   9.411
 2199POPC   GL130109  18.960  14.414   9.119
 2199POPC   GL230110  18.712  14.181   8.993
 2199POPC   C1A30111  19.193  14.250   8.775
 2199POPC   D2A30112  19.137  13.981   8.423
 2199POPC   C3A30113  19.125  14.245   8.039
 2199POPC   C4A30114  19.276  14.511   7.700
 2199POPC   C1B30115  18.732  14.551   8.706
 2199POPC   C2B30116  18.557  14.581   8.313
 2199POPC   C3B30117  18.763  14.651   7.949
 2199POPC   C4B30118  18.807  14.556   7.534
 2200POPC   NC330119  26.611  14.306   9.491
 2200POPC   PO430120  27.076  14.773   9.568
 2200POPC   GL130121  26.826  14.644   9.200
 2200POPC   GL230122  27.069  14.368   9.129
 2200POPC   C1A30123  26.566  14.432   8.828
 2200POPC   D2A30124  26.753  14.382   8.393
 2200POPC   C3A30125  26.588  14.257   8.005
 2200POPC   C4A30126  26.642  14.547   7.690
 2200POPC   C1B30127  27.030  14.628   8.753
 2200POPC   C2B30128  27.054  14.812   8.341
 2200POPC   C3B30129  27.091  14.585   7.942
 2200POPC   C4B30130  27.120  14.582   7.472
 2201POPC   NC330131   6.314  27.285   9.193
 2201POPC   PO430132   6.106  26.772   9.628
 2201POPC   GL130133   5.866  26.703   9.177
 2201POPC   GL230134   5.990  26.925   8.964
 2201POPC   C1A30135   5.533  26.724   8.813
 2201POPC   D2A30136   5.786  26.961   8.497
 2201POPC   C3A30137   5.862  26.971   8.049
 2201POPC   C4A30138   5.858  26.848   7.599
 2201POPC   C1B30139   5.940  26.479   8.722
 2201POPC   C2B30140   5.657  26.494   8.335
 2201POPC   C3B30141   5.870  26.449   7.976
 2201POPC   C4B30142   6.285  26.221   7.963
 2202POPC   NC330143  17.871  21.790   9.503
 2202POPC   PO430144  17.385  21.281   9.585
 2202POPC   GL130145  17.459  21.567   9.238
 2202POPC   GL230146  17.759  21.598   9.053
 2202POPC   C1A30147  17.184  21.741   8.924
 2202POPC   D2A30148  17.018  21.638   8.504
 2202POPC   C3A30149  17.233  21.526   8.115
 2202POPC   C4A30150  17.060  21.509   7.700
 2202POPC   C1B30151  17.531  21.418   8.735
 2202POPC   C2B30152  17.639  21.247   8.377
 2202POPC   C3B30153  17.578  21.128   7.984
 2202POPC   C4B30154  17.547  21.385   7.641
 2203POPC   NC330155  18.842  38.687   9.528
 2203POPC   PO430156  19.038  37.962   9.456
 2203POPC   GL130157  18.914  38.163   9.127
 2203POPC   GL230158  19.105  38.442   9.197
 2203POPC   C1A30159  18.857  38.158   8.680
 2203POPC   D2A30160  18.874  37.959   8.276
 2203POPC   C3A30161  18.921  38.278   7.984
 2203POPC   C4A30162  19.234  38.544   7.810
 2203POPC   C1B30163  18.841  38.620   8.872
 2203POPC   C2B30164  18.690  38.673   8.474
 2203POPC   C3B30165  18.812  38.815   8.087
 2203POPC   C4B30166  18.751  38.662   7.679
 2204POPC   NC330167  23.354  42.709   9.455
 2204POPC   PO430168  23.978  42.516   9.613
 2204POPC   GL130169  23.835  42.316   9.219
 2204POPC   GL230170  23.748  42.632   9.103
 2204POPC   C1A30171  23.759  42.195   8.789
 2204POPC   D2A30172  23.915  42.246   8.412
 2204POPC   C3A30173  23.722  42.044   8.075
 2204POPC   C4A30174  23.859  42.095   7.657
 2204POPC   C1B30175  23.497  42.630   8.741
 2204POPC   C2B30176  23.462  42.452   8.312
 2204POPC   C3B30177  23.638  42.522   7.937
 2204POPC   C4B30178  23.715  42.598   7.540
 2205POPC   NC330179  20.885  20.735   9.529
 2205POPC   PO430180  20.474  20.149   9.658
 2205POPC   GL130181  20.649  20.247   9.171
 2205POPC   GL230182  20.641  20.609   9.101
 2205POPC   C1A30183  20.678  20.397   8.653
 2205POPC   D2A30184  20.737  20.774   8.323
 2205POPC   C3A30185  20.719  20.708   7.864
 2205POPC   C4A30186  20.515  20.365   7.650
 2205POPC   C1B30187  20.484  20.881   8.768
 2205POPC   C2B30188  20.241  20.884   8.389
 2205POPC   C3B30189  20.295  20.963   7.943
 2205POPC   C4B30190  20.308  20.871   7.475
 2206POPC   NC330191  29.422   5.556   9.342
 2206POPC   PO430192  29.059   4.998   9.532
 2206POPC   GL130193  29.111   5.085   9.094
 2206POPC   GL230194  29.462   5.130   9.079
 2206POPC   C1A30195  29.180   5.302   8.679
 2206POPC   D2A30196  29.087   5.183   8.258
 2206POPC   C3A30197  28.940   5.436   7.950
 2206POPC   C4A30198  29.275   5.220   7.756
 2206POPC   C1B30199  29.526   4.888   8.740
 2206POPC   C2B30200  29.568   4.647   8.410
 2206POPC   C3B30201  29.537   4.851   8.042
 2206POPC   C4B30202  29.623   4.866   7.635
 2207POPC   NC330203  15.148  15.579   9.579
 2207POPC   PO430204  15.485  14.955   9.479
 2207POPC   GL130205  15.228  15.190   9.235
 2207POPC   GL230206  15.428  15.461   9.152
 2207POPC   C1A30207  15.098  15.107   8.833
 2207POPC   D2A30208  14.959  15.258   8.435
 2207POPC   C3A30209  15.107  15.082   8.043
 2207POPC   C4A30210  15.048  15.257   7.612
 2207POPC   C1B30211  15.610  15.187   8.842
 2207POPC   C2B30212  15.487  15.025   8.467
 2207POPC   C3B30213  15.617  15.170   8.107
 2207POPC   C4B30214  15.518  15.080   7.711
 2208POPC   NC330215  18.875  39.436   9.361
 2208POPC   PO430216  19.233  39.985   9.524
 2208POPC   GL130217  19.151  40.019   9.131
 2208POPC   GL230218  18.853  40.133   9.166
 2208POPC   C1A30219  19.177  40.309   8.784
 2208POPC   D2A30220  18.938  40.372   8.423
 2208POPC   C3A30221  19.085  40.126   8.088
 2208POPC   C4A30222  19.138  40.124   7.648
 2208POPC   C1B30223  18.756  39.928   8.762
 2208POPC   C2B30224  18.607  39.742   8.366
 2208POPC   C3B30225  18.686  39.854   7.923
 2208POPC   C4B30226  18.698  39.908   7.457
 2209POPC   NC330227  29.309  12.616   9.522
 2209POPC   PO430228  29.561  13.247   9.435
 2209POPC   GL130229  29.422  12.974   9.143
 2209POPC   GL230230  29.061  12.903   9.122
 2209POPC   C1A30231  29.489  12.886   8.736
 2209POPC   D2A30232  29.407  12.696   8.372
 2209POPC   C3A30233  29.073  12.814   8.134
 2209POPC   C4A30234  28.981  13.059   7.761
 2209POPC   C1B30235  28.962  12.840   8.685
 2209POPC   C2B30236  28.853  12.444   8.477
 2209POPC   C3B30237  28.805  12.245   8.112
 2209POPC   C4B30238  28.792  12.519   7.777
 2210POPC   NC330239  19.051   0.881   9.549
 2210POPC   PO430240  18.763   1.459   9.445
 2210POPC   GL130241  19.114   1.432   9.141
 2210POPC   GL230242  19.253   1.094   9.140
 2210POPC   C1A30243  19.117   1.281   8.691
 2210POPC   D2A30244  18.957   1.045   8.323
 2210POPC   C3A30245  18.995   1.154   7.873
 2210POPC   C4A30246  18.772   1.003   7.522
 2210POPC   C1B30247  19.489   0.975   8.804
 2210POPC   C2B30248  19.504   1.041   8.372
 2210POPC   C3B30249  19.377   0.843   7.997
 2210POPC   C4B30250  19.418   0.887   7.558
 2211POPC   NC330251  33.416  16.642   9.611
 2211POPC   PO430252  34.086  16.725   9.466
 2211POPC   GL130253  33.972  16.656   9.073
 2211POPC   GL230254  33.607  16.616   9.131
 2211POPC   C1A30255  34.031  16.685   8.627
 2211POPC   D2A30256  34.239  16.727   8.234
 2211POPC   C3A30257  33.993  16.782   7.874
 2211POPC   C4A30258  33.976  16.838   7.403
 2211POPC   C1B30259  33.543  16.559   8.693
 2211POPC   C2B30260  33.650  16.663   8.252
 2211POPC   C3B30261  33.663  16.397   7.863
 2211POPC   C4B30262  33.706  16.379   7.359
 2212POPC   NC330263  26.688   7.955   9.499
 2212POPC   PO430264  27.145   8.555   9.596
 2212POPC   GL130265  26.978   8.313   9.243
 2212POPC   GL230266  26.625   8.378   9.168
 2212POPC   C1A30267  26.945   8.153   8.784
 2212POPC   D2A30268  27.167   8.091   8.352
 2212POPC   C3A30269  26.925   8.005   7.948
 2212POPC   C4A30270  26.501   7.953   7.745
 2212POPC   C1B30271  26.493   8.475   8.752
 2212POPC   C2B30272  26.463   8.251   8.359
 2212POPC   C3B30273  26.578   8.425   7.971
 2212POPC   C4B30274  26.785   8.376   7.590
 2213POPC   NC330275  17.117  26.149   9.950
 2213POPC   PO430276  17.648  26.180   9.466
 2213POPC   GL130277  17.657  25.893   9.104
 2213POPC   GL230278  17.447  26.103   8.989
 2213POPC   C1A30279  17.577  25.692   8.736
 2213POPC   D2A30280  17.346  25.934   8.451
 2213POPC   C3A30281  17.377  25.777   8.025
 2213POPC   C4A30282  17.443  25.983   7.607
 2213POPC   C1B30283  17.555  26.372   8.717
 2213POPC   C2B30284  17.693  26.336   8.346
 2213POPC   C3B30285  17.473  26.269   8.035
 2213POPC   C4B30286  17.498  26.481   7.694
 2214POPC   NC330287  34.923  26.548   9.590
 2214POPC   PO430288  34.283  26.841   9.603
 2214POPC   GL130289  34.402  26.634   9.215
 2214POPC   GL230290  34.723  26.766   9.173
 2214POPC   C1A30291  34.524  26.523   8.757
 2214POPC   D2A30292  34.352  26.580   8.307
 2214POPC   C3A30293  34.609  26.482   7.908
 2214POPC   C4A30294  34.923  26.674   7.620
 2214POPC   C1B30295  34.537  27.020   8.845
 2214POPC   C2B30296  34.417  27.100   8.418
 2214POPC   C3B30297  34.489  26.982   8.000
 2214POPC   C4B30298  34.373  27.224   7.689
 2215POPC   NC330299  13.020  30.555   9.563
 2215POPC   PO430300  12.528  30.902   9.357
 2215POPC   GL130301  12.808  30.737   9.115
 2215POPC   GL230302  13.148  30.882   9.170
 2215POPC   C1A30303  12.679  30.563   8.723
 2215POPC   D2A30304  12.541  30.861   8.424
 2215POPC   C3A30305  12.762  30.842   8.056
 2215POPC   C4A30306  12.572  30.952   7.683
 2215POPC   C1B30307  13.053  30.909   8.719
 2215POPC   C2B30308  13.111  30.601   8.401
 2215POPC   C3B30309  13.236  30.592   7.983
 2215POPC   C4B30310  12.993  30.625   7.642
 2216POPC   NC330311  41.001  43.224   9.469
 2216POPC   PO430312  40.374  42.880   9.536
 2216POPC   GL130313  40.602  42.916   9.139
 2216POPC   GL230314  40.971  42.847   9.136
 2216POPC   C1A30315  40.679  43.289   8.856
 2216POPC   D2A30316  40.584  43.452   8.423
 2216POPC   C3A30317  40.840  43.360   8.041
 2216POPC   C4A30318  40.735  43.117   7.711
 2216POPC   C1B30319  41.069  42.967   8.719
 2216POPC   C2B30320  41.001  42.946   8.279
 2216POPC   C3B30321  41.218  43.002   7.866
 2216POPC   C4B30322  41.094  42.896   7.422
 2217POPC   NC330323   9.268  18.443   9.498
 2217POPC   PO430324   8.746  18.081   9.552
 2217POPC   GL130325   8.835  18.413   9.234
 2217POPC   GL230326   9.084  18.164   9.108
 2217POPC   C1A30327   9.042  18.580   8.840
 2217POPC   D2A30328   9.109  18.306   8.490
 2217POPC   C3A30329   9.126  18.584   8.131
 2217POPC   C4A30330   9.114  18.392   7.742
 2217POPC   C1B30331   8.793  17.927   8.876
 2217POPC   C2B30332   8.669  17.965   8.422
 2217POPC   C3B30333   8.853  18.006   8.001
 2217POPC   C4B30334   8.803  18.043   7.529
 2218POPC   NC330335  34.878  41.291   9.449
 2218POPC   PO430336  35.334  41.695   9.626
 2218POPC   GL130337  35.239  41.568   9.204
 2218POPC   GL230338  35.292  41.221   9.172
 2218POPC   C1A30339  35.170  41.780   8.817
 2218POPC   D2A30340  35.300  41.919   8.419
 2218POPC   C3A30341  35.046  41.747   8.091
 2218POPC   C4A30342  35.100  41.892   7.709
 2218POPC   C1B30343  35.164  41.196   8.756
 2218POPC   C2B30344  35.351  41.386   8.385
 2218POPC   C3B30345  35.320  41.329   7.940
 2218POPC   C4B30346  35.283  41.454   7.502
 2219POPC   NC330347  23.270  20.137   9.267
 2219POPC   PO430348  23.543  20.687   9.592
 2219POPC   GL130349  23.709  20.430   9.227
 2219POPC   GL230350  24.080  20.270   9.235
 2219POPC   C1A30351  23.708  20.538   8.795
 2219POPC   D2A30352  23.851  20.771   8.413
 2219POPC   C3A30353  23.622  20.619   8.053
 2219POPC   C4A30354  23.598  20.532   7.608
 2219POPC   C1B30355  24.036  20.158   8.809
 2219POPC   C2B30356  23.857  20.257   8.383
 2219POPC   C3B30357  24.038  20.316   7.982
 2219POPC   C4B30358  24.054  20.267   7.525
 2220POPC   NC330359  40.059  33.516   9.487
 2220POPC   PO430360  39.679  32.964   9.681
 2220POPC   GL130361  39.847  33.002   9.186
 2220POPC   GL230362  40.126  33.201   9.097
 2220POPC   C1A30363  39.970  32.753   8.754
 2220POPC   D2A30364  39.915  32.535   8.327
 2220POPC   C3A30365  39.970  32.843   7.985
 2220POPC   C4A30366  39.760  33.234   7.826
 2220POPC   C1B30367  39.984  33.266   8.673
 2220POPC   C2B30368  40.169  33.256   8.260
 2220POPC   C3B30369  40.271  33.288   7.821
 2220POPC   C4B30370  40.273  33.470   7.417
 2221POPC   NC330371  37.781   9.530   9.639
 2221POPC   PO430372  37.449  10.120   9.691
 2221POPC   GL130373  37.694  10.095   9.277
 2221POPC   GL230374  37.809   9.749   9.174
 2221POPC   C1A30375  37.801  10.088   8.797
 2221POPC   D2A30376  37.977   9.976   8.369
 2221POPC   C3A30377  37.735   9.913   7.970
 2221POPC   C4A30378  37.336   9.700   7.859
 2221POPC   C1B30379  37.829   9.573   8.747
 2221POPC   C2B30380  37.663   9.551   8.324
 2221POPC   C3B30381  37.734   9.373   7.916
 2221POPC   C4B30382  37.519   9.189   7.563
 2222POPC   NC330383  34.090   5.551   9.549
 2222POPC   PO430384  33.746   4.981   9.545
 2222POPC   GL130385  33.739   5.158   9.147
 2222POPC   GL230386  34.064   5.302   9.019
 2222POPC   C1A30387  33.713   5.072   8.716
 2222POPC   D2A30388  33.541   5.105   8.321
 2222POPC   C3A30389  33.627   4.791   8.017
 2222POPC   C4A30390  33.828   4.909   7.607
 2222POPC   C1B30391  34.162   4.860   8.763
 2222POPC   C2B30392  33.995   4.777   8.385
 2222POPC   C3B30393  34.030   5.078   8.071
 2222POPC   C4B30394  34.323   5.039   7.764
 2223POPC   NC330395   1.415  19.438   9.538
 2223POPC   PO430396   0.836  19.250   9.791
 2223POPC   GL130397   1.112  19.060   9.338
 2223POPC   GL230398   1.396  19.208   9.105
 2223POPC   C1A30399   1.075  18.941   8.832
 2223POPC   D2A30400   1.066  19.104   8.398
 2223POPC   C3A30401   0.953  18.886   8.010
 2223POPC   C4A30402   1.114  19.120   7.673
 2223POPC   C1B30403   1.589  18.927   8.807
 2223POPC   C2B30404   1.445  18.759   8.404
 2223POPC   C3B30405   1.481  18.980   7.999
 2223POPC   C4B30406   1.586  18.917   7.544
 2224POPC   NC330407   4.441  20.175   9.291
 2224POPC   PO430408   4.351  20.769   9.610
 2224POPC   GL130409   4.415  20.659   9.187
 2224POPC   GL230410   4.065  20.592   9.193
 2224POPC   C1A30411   4.389  20.504   8.728
 2224POPC   D2A30412   4.579  20.639   8.335
 2224POPC   C3A30413   4.682  20.386   7.994
 2224POPC   C4A30414   4.491  20.496   7.646
 2224POPC   C1B30415   3.888  20.372   8.861
 2224POPC   C2B30416   3.932  20.471   8.434
 2224POPC   C3B30417   4.133  20.508   8.049
 2224POPC   C4B30418   3.965  20.324   7.680
 2225POPC   NC330419  26.602  28.250   9.479
 2225POPC   PO430420  27.139  28.680   9.245
 2225POPC   GL130421  26.850  28.396   9.044
 2225POPC   GL230422  26.563  28.594   9.122
 2225POPC   C1A30423  26.827  28.113   8.673
 2225POPC   D2A30424  26.933  28.124   8.210
 2225POPC   C3A30425  27.006  28.528   8.063
 2225POPC   C4A30426  26.893  28.547   7.621
 2225POPC   C1B30427  26.399  28.387   8.769
 2225POPC   C2B30428  26.536  28.410   8.355
 2225POPC   C3B30429  26.512  28.583   7.948
 2225POPC   C4B30430  26.516  28.859   7.559
 2226POPC   NC330431   1.243  24.525   9.593
 2226POPC   PO430432   1.494  23.956   9.320
 2226POPC   GL130433   1.333  24.275   9.071
 2226POPC   GL230434   1.206  24.644   9.106
 2226POPC   C1A30435   1.154  24.218   8.687
 2226POPC   D2A30436   0.982  24.318   8.284
 2226POPC   C3A30437   1.227  24.450   7.934
 2226POPC   C4A30438   1.677  24.514   7.937
 2226POPC   C1B30439   1.456  24.653   8.729
 2226POPC   C2B30440   1.381  24.816   8.319
 2226POPC   C3B30441   0.966  24.881   8.173
 2226POPC   C4B30442   0.919  24.842   7.730
 2227POPC   NC330443  35.600   4.179   9.509
 2227POPC   PO430444  34.942   4.501   9.580
 2227POPC   GL130445  35.163   4.311   9.183
 2227POPC   GL230446  35.558   4.299   9.020
 2227POPC   C1A30447  35.083   4.224   8.744
 2227POPC   D2A30448  35.401   4.323   8.407
 2227POPC   C3A30449  35.285   4.539   8.009
 2227POPC   C4A30450  35.340   4.377   7.607
 2227POPC   C1B30451  35.456   3.885   8.814
 2227POPC   C2B30452  35.251   3.824   8.406
 2227POPC   C3B30453  35.259   3.965   7.981
 2227POPC   C4B30454  35.465   3.804   7.629
 2228POPC   NC330455  29.663  35.251   9.516
 2228POPC   PO430456  30.340  35.038   9.523
 2228POPC   GL130457  30.182  35.379   9.244
 2228POPC   GL230458  29.940  35.200   9.037
 2228POPC   C1A30459  30.106  35.631   8.834
 2228POPC   D2A30460  29.851  35.728   8.430
 2228POPC   C3A30461  30.036  35.635   8.020
 2228POPC   C4A30462  30.154  35.475   7.616
 2228POPC   C1B30463  29.648  35.295   8.675
 2228POPC   C2B30464  29.563  35.333   8.232
 2228POPC   C3B30465  29.771  35.182   7.862
 2228POPC   C4B30466  29.782  35.176   7.414
 2229POPC   NC330467  32.001   4.830   9.677
 2229POPC   PO430468  31.323   4.708   9.783
 2229POPC   GL130469  31.456   4.904   9.359
 2229POPC   GL230470  31.666   5.184   9.361
 2229POPC   C1A30471  31.322   5.035   8.903
 2229POPC   D2A30472  31.226   5.217   8.444
 2229POPC   C3A30473  31.201   4.935   8.027
 2229POPC   C4A30474  31.321   4.824   7.568
 2229POPC   C1B30475  31.797   5.239   8.931
 2229POPC   C2B30476  31.841   5.054   8.511
 2229POPC   C3B30477  31.854   5.075   8.052
 2229POPC   C4B30478  31.555   5.220   7.752
 2230POPC   NC330479  19.363   2.655   9.502
 2230POPC   PO430480  18.694   2.898   9.437
 2230POPC   GL130481  19.100   2.903   9.151
 2230POPC   GL230482  19.180   2.514   9.042
 2230POPC   C1A30483  19.266   2.922   8.725
 2230POPC   D2A30484  19.050   2.801   8.358
 2230POPC   C3A30485  19.281   2.853   8.003
 2230POPC   C4A30486  19.220   2.697   7.622
 2230POPC   C1B30487  18.807   2.683   8.810
 2230POPC   C2B30488  18.533   2.540   8.520
 2230POPC   C3B30489  18.625   2.610   8.113
 2230POPC   C4B30490  18.713   2.596   7.673
 2231POPC   NC330491  21.659   1.743   9.597
 2231POPC   PO430492  21.059   2.180   9.802
 2231POPC   GL130493  21.181   2.299   9.321
 2231POPC   GL230494  21.542   2.164   9.229
 2231POPC   C1A30495  21.223   2.279   8.822
 2231POPC   D2A30496  21.320   2.041   8.401
 2231POPC   C3A30497  21.155   2.125   7.956
 2231POPC   C4A30498  21.053   2.131   7.476
 2231POPC   C1B30499  21.686   1.980   8.815
 2231POPC   C2B30500  21.832   2.141   8.400
 2231POPC   C3B30501  21.675   2.032   7.994
 2231POPC   C4B30502  21.915   1.656   7.889
 2232POPC   NC330503  10.256  42.739   9.468
 2232POPC   PO430504  10.685  42.277   9.691
 2232POPC   GL130505  10.653  42.161   9.207
 2232POPC   GL230506  10.327  42.292   9.126
 2232POPC   C1A30507  10.634  42.314   8.732
 2232POPC   D2A30508  10.659  42.329   8.300
 2232POPC   C3A30509  10.980  42.524   8.093
 2232POPC   C4A30510  10.756  42.519   7.724
 2232POPC   C1B30511  10.224  42.624   8.830
 2232POPC   C2B30512  10.222  42.587   8.427
 2232POPC   C3B30513  10.348  42.607   8.022
 2232POPC   C4B30514  10.221  42.562   7.613
 2233POPC   NC330515  24.911  20.057   9.445
 2233POPC   PO430516  25.654  19.668   9.622
 2233POPC   GL130517  25.533  19.676   9.202
 2233POPC   GL230518  25.197  19.772   9.131
 2233POPC   C1A30519  25.584  19.832   8.793
 2233POPC   D2A30520  25.319  19.803   8.449
 2233POPC   C3A30521  25.504  19.724   8.078
 2233POPC   C4A30522  25.283  19.698   7.670
 2233POPC   C1B30523  25.143  20.111   8.831
 2233POPC   C2B30524  24.970  20.180   8.424
 2233POPC   C3B30525  25.207  20.119   8.041
 2233POPC   C4B30526  25.102  20.161   7.626
 2234POPC   NC330527   8.294  23.874   9.636
 2234POPC   PO430528   7.831  23.463   9.467
 2234POPC   GL130529   8.124  23.712   9.178
 2234POPC   GL230530   8.332  24.042   9.162
 2234POPC   C1A30531   8.220  23.776   8.730
 2234POPC   D2A30532   8.416  23.850   8.357
 2234POPC   C3A30533   8.239  23.887   8.009
 2234POPC   C4A30534   8.267  23.621   7.702
 2234POPC   C1B30535   7.986  24.175   8.879
 2234POPC   C2B30536   7.938  24.076   8.412
 2234POPC   C3B30537   7.866  24.243   7.984
 2234POPC   C4B30538   7.894  23.957   7.609
 2235POPC   NC330539  12.721  20.513   9.551
 2235POPC   PO430540  13.118  21.056   9.576
 2235POPC   GL130541  12.825  20.880   9.183
 2235POPC   GL230542  12.826  20.508   9.077
 2235POPC   C1A30543  12.829  20.808   8.700
 2235POPC   D2A30544  13.010  20.855   8.321
 2235POPC   C3A30545  12.772  20.840   7.973
 2235POPC   C4A30546  13.169  20.831   7.765
 2235POPC   C1B30547  13.052  20.279   8.790
 2235POPC   C2B30548  12.984  20.349   8.395
 2235POPC   C3B30549  13.077  20.405   8.006
 2235POPC   C4B30550  12.765  20.432   7.685
 2236POPC   NC330551   9.630  24.609   9.582
 2236POPC   PO430552   9.693  24.057   9.240
 2236POPC   GL130553   9.649  24.477   9.079
 2236POPC   GL230554   9.973  24.671   9.190
 2236POPC   C1A30555   9.606  24.440   8.639
 2236POPC   D2A30556   9.797  24.273   8.271
 2236POPC   C3A30557   9.681  24.547   7.943
 2236POPC   C4A30558   9.570  24.486   7.532
 2236POPC   C1B30559  10.103  24.498   8.789
 2236POPC   C2B30560  10.074  24.693   8.389
 2236POPC   C3B30561   9.999  24.911   7.991
 2236POPC   C4B30562  10.052  24.676   7.552
 2237POPC   NC330563  33.888  44.526   9.866
 2237POPC   PO430564  34.443  44.749   9.459
 2237POPC   GL130565  34.507  44.499   9.107
 2237POPC   GL230566  34.804  44.547   8.964
 2237POPC   C1A30567  34.418  44.293   8.756
 2237POPC   D2A30568  34.501  44.512   8.400
 2237POPC   C3A30569  34.477  44.429   7.979
 2237POPC   C4A30570  34.475  44.545   7.512
 2237POPC   C1B30571  34.955  44.354   8.614
 2237POPC   C2B30572  34.966  44.377   8.165
 2237POPC   C3B30573  34.944  44.589   7.776
 2237POPC   C4B30574  34.979  44.531   7.332
 2238POPC   NC330575  28.526  16.067   9.571
 2238POPC   PO430576  27.945  15.707   9.580
 2238POPC   GL130577  28.113  15.718   9.181
 2238POPC   GL230578  28.426  15.612   9.291
 2238POPC   C1A30579  28.169  15.840   8.743
 2238POPC   D2A30580  28.472  16.141   8.566
 2238POPC   C3A30581  28.513  16.084   8.115
 2238POPC   C4A30582  28.168  16.146   7.835
 2238POPC   C1B30583  28.644  15.731   8.926
 2238POPC   C2B30584  28.729  15.690   8.475
 2238POPC   C3B30585  28.671  15.561   8.041
 2238POPC   C4B30586  28.436  15.720   7.706
 2239POPC   NC330587  26.941  19.458   9.466
 2239POPC   PO430588  27.012  18.770   9.288
 2239POPC   GL130589  26.798  19.046   9.070
 2239POPC   GL230590  26.992  19.326   8.985
 2239POPC   C1A30591  26.730  19.026   8.645
 2239POPC   D2A30592  27.026  19.213   8.375
 2239POPC   C3A30593  26.936  19.047   7.970
 2239POPC   C4A30594  26.624  18.984   7.632
 2239POPC   C1B30595  26.567  19.460   8.859
 2239POPC   C2B30596  26.419  19.479   8.456
 2239POPC   C3B30597  26.608  19.425   8.067
 2239POPC   C4B30598  26.605  19.481   7.635
 2240POPC   NC330599  32.709  45.000   9.477
 2240POPC   PO430600  33.343  44.676   9.459
 2240POPC   GL130601  33.108  44.549   9.098
 2240POPC   GL230602  32.833  44.345   9.185
 2240POPC   C1A30603  33.097  44.607   8.668
 2240POPC   D2A30604  33.045  44.369   8.307
 2240POPC   C3A30605  33.189  44.611   7.990
 2240POPC   C4A30606  33.172  44.542   7.561
 2240POPC   C1B30607  32.626  44.622   8.878
 2240POPC   C2B30608  32.618  44.760   8.466
 2240POPC   C3B30609  32.702  44.677   8.039
 2240POPC   C4B30610  32.864  44.939   7.714
 2241POPC   NC330611  11.477   4.954   9.428
 2241POPC   PO430612  11.215   5.565   9.537
 2241POPC   GL130613  11.051   5.352   9.149
 2241POPC   GL230614  11.176   5.069   9.056
 2241POPC   C1A30615  11.165   5.423   8.713
 2241POPC   D2A30616  11.414   5.329   8.346
 2241POPC   C3A30617  11.270   4.955   8.107
 2241POPC   C4A30618  11.016   5.133   7.826
 2241POPC   C1B30619  11.492   5.016   8.753
 2241POPC   C2B30620  11.715   4.908   8.360
 2241POPC   C3B30621  11.729   4.785   7.923
 2241POPC   C4B30622  11.462   4.849   7.575
 2242POPC   NC330623  31.077  25.141   9.424
 2242POPC   PO430624  31.771  24.997   9.329
 2242POPC   GL130625  31.579  25.248   9.048
 2242POPC   GL230626  31.387  25.450   9.155
 2242POPC   C1A30627  31.653  25.344   8.638
 2242POPC   D2A30628  31.702  25.082   8.280
 2242POPC   C3A30629  31.382  24.989   7.945
 2242POPC   C4A30630  31.410  25.016   7.429
 2242POPC   C1B30631  31.255  25.657   8.744
 2242POPC   C2B30632  31.217  25.459   8.368
 2242POPC   C3B30633  31.060  25.453   7.976
 2242POPC   C4B30634  31.381  25.461   7.710
 2243POPC   NC330635  26.466   0.299   9.514
 2243POPC   PO430636  27.025   0.598   9.547
 2243POPC   GL130637  26.958   0.618   9.138
 2243POPC   GL230638  26.630   0.569   9.105
 2243POPC   C1A30639  27.124   0.585   8.741
 2243POPC   D2A30640  26.929   0.379   8.421
 2243POPC   C3A30641  26.920   0.496   8.001
 2243POPC   C4A30642  26.838   0.708   7.616
 2243POPC   C1B30643  26.694   0.185   8.837
 2243POPC   C2B30644  26.658  44.950   8.445
 2243POPC   C3B30645  26.644   0.069   8.031
 2243POPC   C4B30646  26.760   0.182   7.616
 2244POPC   NC330647   2.542  13.512   9.500
 2244POPC   PO430648   3.078  13.944   9.484
 2244POPC   GL130649   2.848  13.772   9.159
 2244POPC   GL230650   2.921  13.420   9.145
 2244POPC   C1A30651   2.731  13.659   8.736
 2244POPC   D2A30652   2.863  13.793   8.332
 2244POPC   C3A30653   2.659  13.593   7.982
 2244POPC   C4A30654   2.581  13.881   7.697
 2244POPC   C1B30655   3.188  13.426   8.825
 2244POPC   C2B30656   3.057  13.334   8.454
 2244POPC   C3B30657   3.155  13.431   8.054
 2244POPC   C4B30658   3.026  13.338   7.655
 2245POPC   NC330659  12.723  10.567   9.533
 2245POPC   PO430660  13.364  10.332   9.547
 2245POPC   GL130661  13.106  10.408   9.207
 2245POPC   GL230662  13.017  10.771   9.138
 2245POPC   C1A30663  13.097  10.295   8.787
 2245POPC   D2A30664  13.160  10.444   8.375
 2245POPC   C3A30665  12.756  10.474   8.229
 2245POPC   C4A30666  12.757  10.545   7.809
 2245POPC   C1B30667  12.679  10.835   8.800
 2245POPC   C2B30668  12.696  10.974   8.359
 2245POPC   C3B30669  13.032  10.885   8.082
 2245POPC   C4B30670  13.150  10.945   7.640
 2246POPC   NC330671  24.287  38.075   9.479
 2246POPC   PO430672  24.855  38.374   9.728
 2246POPC   GL130673  24.846  38.563   9.267
 2246POPC   GL230674  24.527  38.496   9.222
 2246POPC   C1A30675  24.845  38.430   8.781
 2246POPC   D2A30676  24.680  38.238   8.359
 2246POPC   C3A30677  24.637  38.372   7.915
 2246POPC   C4A30678  24.409  38.766   7.769
 2246POPC   C1B30679  24.290  38.361   8.882
 2246POPC   C2B30680  24.186  38.185   8.513
 2246POPC   C3B30681  24.177  38.410   8.111
 2246POPC   C4B30682  24.177  38.274   7.671
 2247POPC   NC330683   2.226  27.880   9.472
 2247POPC   PO430684   1.697  27.422   9.493
 2247POPC   GL130685   1.899  27.405   9.111
 2247POPC   GL230686   1.884  27.731   9.077
 2247POPC   C1A30687   1.859  27.446   8.666
 2247POPC   D2A30688   1.783  27.697   8.315
 2247POPC   C3A30689   1.883  27.489   7.991
 2247POPC   C4A30690   2.044  27.715   7.702
 2247POPC   C1B30691   1.577  27.876   8.734
 2247POPC   C2B30692   1.503  28.116   8.332
 2247POPC   C3B30693   1.402  27.989   7.929
 2247POPC   C4B30694   1.597  27.899   7.532
 2248POPC   NC330695  20.426  33.836   9.641
 2248POPC   PO430696  20.903  33.990   9.233
 2248POPC   GL130697  20.505  33.879   9.123
 2248POPC   GL230698  20.225  34.085   9.184
 2248POPC   C1A30699  20.545  33.654   8.760
 2248POPC   D2A30700  20.818  33.718   8.401
 2248POPC   C3A30701  20.631  33.795   8.005
 2248POPC   C4A30702  20.774  33.677   7.651
 2248POPC   C1B30703  20.138  33.957   8.774
 2248POPC   C2B30704  20.277  33.833   8.367
 2248POPC   C3B30705  20.105  33.922   7.959
 2248POPC   C4B30706  20.293  34.080   7.584
 2249POPC   NC330707   9.900  27.461   9.372
 2249POPC   PO430708   9.344  27.846   9.472
 2249POPC   GL130709   9.608  27.781   9.138
 2249POPC   GL230710   9.948  27.945   9.234
 2249POPC   C1A30711   9.656  27.556   8.714
 2249POPC   D2A30712   9.463  27.579   8.285
 2249POPC   C3A30713   9.522  27.411   7.887
 2249POPC   C4A30714   9.909  27.217   7.873
 2249POPC   C1B30715  10.081  27.823   8.810
 2249POPC   C2B30716  10.100  27.606   8.400
 2249POPC   C3B30717  10.020  27.718   7.958
 2249POPC   C4B30718   9.918  27.591   7.508
 2250POPC   NC330719   2.767   2.284   9.528
 2250POPC   PO430720   3.060   1.625   9.447
 2250POPC   GL130721   2.967   1.934   9.180
 2250POPC   GL230722   2.634   1.899   9.196
 2250POPC   C1A30723   2.967   2.090   8.768
 2250POPC   D2A30724   2.726   2.026   8.404
 2250POPC   C3A30725   2.934   2.065   8.008
 2250POPC   C4A30726   2.816   2.322   7.633
 2250POPC   C1B30727   2.679   1.663   8.818
 2250POPC   C2B30728   2.516   1.550   8.455
 2250POPC   C3B30729   2.485   1.706   8.068
 2250POPC   C4B30730   2.578   1.889   7.682
 2251POPC   NC330731  30.306  10.222   9.344
 2251POPC   PO430732  29.827  10.635   9.558
 2251POPC   GL130733  29.965  10.608   9.137
 2251POPC   GL230734  30.164  10.859   9.203
 2251POPC   C1A30735  29.869  10.582   8.678
 2251POPC   D2A30736  29.801  10.608   8.226
 2251POPC   C3A30737  30.116  10.379   7.963
 2251POPC   C4A30738  29.997  10.233   7.549
 2251POPC   C1B30739  30.073  11.065   8.816
 2251POPC   C2B30740  30.093  10.997   8.370
 2251POPC   C3B30741  30.081  10.906   7.910
 2251POPC   C4B30742  30.255  10.673   7.538
 2252POPC   NC330743   5.016  44.212   9.626
 2252POPC   PO430744   5.265  44.879   9.533
 2252POPC   GL130745   5.055  44.822   9.148
 2252POPC   GL230746   4.713  44.762   9.224
 2252POPC   C1A30747   5.225  44.732   8.744
 2252POPC   D2A30748   5.172  44.950   8.331
 2252POPC   C3A30749   5.123  44.680   7.973
 2252POPC   C4A30750   5.363  44.539   7.613
 2252POPC   C1B30751   4.784  44.426   8.907
 2252POPC   C2B30752   4.896  44.453   8.466
 2252POPC   C3B30753   4.723  44.363   8.062
 2252POPC   C4B30754   4.845  44.369   7.649
 2253POPC   NC330755  22.304   4.592   9.442
 2253POPC   PO430756  22.229   3.967   9.153
 2253POPC   GL130757  22.034   4.338   9.085
 2253POPC   GL230758  21.703   4.201   9.096
 2253POPC   C1A30759  22.227   4.609   8.776
 2253POPC   D2A30760  22.522   4.462   8.450
 2253POPC   C3A30761  22.450   4.654   8.076
 2253POPC   C4A30762  22.178   4.563   7.752
 2253POPC   C1B30763  21.818   4.207   8.614
 2253POPC   C2B30764  21.779   4.034   8.167
 2253POPC   C3B30765  21.917   3.970   7.737
 2253POPC   C4B30766  21.873   4.118   7.293
 2254POPC   NC330767  32.512  18.983   9.475
 2254POPC   PO430768  31.883  19.058   9.456
 2254POPC   GL130769  32.109  18.884   9.113
 2254POPC   GL230770  32.285  19.201   9.050
 2254POPC   C1A30771  32.151  18.899   8.637
 2254POPC   D2A30772  32.378  19.133   8.306
 2254POPC   C3A30773  32.121  19.353   8.001
 2254POPC   C4A30774  31.950  19.093   7.683
 2254POPC   C1B30775  32.616  19.011   8.750
 2254POPC   C2B30776  32.625  18.672   8.427
 2254POPC   C3B30777  32.466  18.687   7.996
 2254POPC   C4B30778  32.467  19.097   7.769
 2255POPC   NC330779  44.487  12.285   9.653
 2255POPC   PO430780   0.037  11.923   9.507
 2255POPC   GL130781  44.787  12.153   9.226
 2255POPC   GL230782  44.538  11.897   9.241
 2255POPC   C1A30783  44.538  12.251   8.845
 2255POPC   D2A30784  44.735  12.189   8.470
 2255POPC   C3A30785  44.630  12.257   8.097
 2255POPC   C4A30786  44.778  12.166   7.710
 2255POPC   C1B30787  44.316  11.783   8.853
 2255POPC   C2B30788  44.414  11.775   8.416
 2255POPC   C3B30789  44.285  11.893   8.011
 2255POPC   C4B30790  44.404  11.708   7.625
 2256POPC   NC330791  15.484  18.481   9.515
 2256POPC   PO430792  14.871  18.256   9.322
 2256POPC   GL130793  15.232  18.202   9.082
 2256POPC   GL230794  15.440  18.493   9.004
 2256POPC   C1A30795  15.115  18.250   8.657
 2256POPC   D2A30796  14.987  18.604   8.427
 2256POPC   C3A30797  15.001  18.433   8.043
 2256POPC   C4A30798  14.934  18.022   7.890
 2256POPC   C1B30799  15.506  18.579   8.560
 2256POPC   C2B30800  15.578  18.179   8.370
 2256POPC   C3B30801  15.450  18.097   7.968
 2256POPC   C4B30802  15.424  18.524   7.822
 2257POPC   NC330803  16.609  39.555   9.513
 2257POPC   PO430804  17.095  39.129   9.456
 2257POPC   GL130805  17.053  39.192   9.089
 2257POPC   GL230806  16.913  39.497   9.127
 2257POPC   C1A30807  16.959  39.207   8.682
 2257POPC   D2A30808  16.585  39.225   8.483
 2257POPC   C3A30809  16.633  39.132   8.071
 2257POPC   C4A30810  16.539  38.837   7.779
 2257POPC   C1B30811  16.725  39.698   8.815
 2257POPC   C2B30812  16.832  39.717   8.432
 2257POPC   C3B30813  16.930  39.608   8.034
 2257POPC   C4B30814  16.631  39.591   7.715
 2258POPC   NC330815   0.207  14.518  10.001
 2258POPC   PO430816   0.727  14.506   9.528
 2258POPC   GL130817   0.606  14.255   9.164
 2258POPC   GL230818   0.254  14.308   9.135
 2258POPC   C1A30819   0.606  14.317   8.732
 2258POPC   D2A30820   0.756  14.386   8.315
 2258POPC   C3A30821   0.444  14.460   8.032
 2258POPC   C4A30822   0.475  14.386   7.623
 2258POPC   C1B30823   0.209  14.632   8.826
 2258POPC   C2B30824   0.247  14.879   8.454
 2258POPC   C3B30825   0.193  14.920   7.999
 2258POPC   C4B30826   0.158  14.769   7.583
 2259POPC   NC330827  28.617   7.057   9.396
 2259POPC   PO430828  28.209   7.647   9.289
 2259POPC   GL130829  28.299   7.300   9.068
 2259POPC   GL230830  28.064   7.058   9.192
 2259POPC   C1A30831  28.500   7.200   8.666
 2259POPC   D2A30832  28.741   7.077   8.268
 2259POPC   C3A30833  28.467   7.272   7.997
 2259POPC   C4A30834  28.291   7.275   7.636
 2259POPC   C1B30835  27.905   7.153   8.774
 2259POPC   C2B30836  27.982   7.260   8.342
 2259POPC   C3B30837  27.888   7.121   7.914
 2259POPC   C4B30838  27.861   7.211   7.430
 2260POPC   NC330839  36.672  34.024   9.377
 2260POPC   PO430840  36.911  34.731   9.555
 2260POPC   GL130841  36.931  34.453   9.247
 2260POPC   GL230842  37.280  34.373   9.258
 2260POPC   C1A30843  36.704  34.405   8.845
 2260POPC   D2A30844  36.915  34.313   8.488
 2260POPC   C3A30845  36.889  34.596   8.160
 2260POPC   C4A30846  36.986  34.470   7.746
 2260POPC   C1B30847  37.190  34.592   8.838
 2260POPC   C2B30848  37.355  34.657   8.421
 2260POPC   C3B30849  37.302  34.847   8.011
 2260POPC   C4B30850  37.238  34.847   7.520
 2261POPC   NC330851   4.783   3.353   9.380
 2261POPC   PO430852   4.994   3.966   9.528
 2261POPC   GL130853   4.941   3.775   9.110
 2261POPC   GL230854   5.157   3.498   9.043
 2261POPC   C1A30855   4.948   3.706   8.640
 2261POPC   D2A30856   5.319   3.568   8.402
 2261POPC   C3A30857   5.277   3.515   7.945
 2261POPC   C4A30858   5.376   3.524   7.500
 2261POPC   C1B30859   5.147   3.173   8.725
 2261POPC   C2B30860   5.001   3.187   8.308
 2261POPC   C3B30861   5.152   3.020   7.942
 2261POPC   C4B30862   4.981   3.206   7.610
 2262POPC   NC330863  21.255  22.402   9.585
 2262POPC   PO430864  21.196  21.779   9.522
 2262POPC   GL130865  21.395  22.033   9.220
 2262POPC   GL230866  21.127  22.230   9.108
 2262POPC   C1A30867  21.542  22.205   8.814
 2262POPC   D2A30868  21.486  22.357   8.429
 2262POPC   C3A30869  21.194  22.176   8.176
 2262POPC   C4A30870  21.552  22.130   7.940
 2262POPC   C1B30871  21.127  22.537   8.765
 2262POPC   C2B30872  21.160  22.743   8.343
 2262POPC   C3B30873  21.366  22.611   7.963
 2262POPC   C4B30874  21.383  22.772   7.557
 2263POPC   NC330875   2.550  28.590   9.506
 2263POPC   PO430876   3.107  28.243   9.489
 2263POPC   GL130877   2.894  28.357   9.141
 2263POPC   GL230878   3.021  28.717   9.151
 2263POPC   C1A30879   2.745  28.167   8.727
 2263POPC   D2A30880   2.966  28.193   8.302
 2263POPC   C3A30881   2.739  28.311   7.915
 2263POPC   C4A30882   2.463  28.408   7.531
 2263POPC   C1B30883   3.024  28.591   8.715
 2263POPC   C2B30884   2.752  28.649   8.375
 2263POPC   C3B30885   3.052  28.681   8.082
 2263POPC   C4B30886   3.160  28.515   7.714
 2264POPC   NC330887  38.244  18.773   9.560
 2264POPC   PO430888  38.804  19.088   9.518
 2264POPC   GL130889  38.668  19.236   9.110
 2264POPC   GL230890  38.766  18.897   9.008
 2264POPC   C1A30891  38.534  19.308   8.661
 2264POPC   D2A30892  38.171  19.445   8.395
 2264POPC   C3A30893  38.214  19.276   7.973
 2264POPC   C4A30894  38.472  18.944   7.835
 2264POPC   C1B30895  38.371  18.805   8.748
 2264POPC   C2B30896  38.284  18.779   8.292
 2264POPC   C3B30897  38.026  18.733   7.887
 2264POPC   C4B30898  38.147  18.598   7.417
 2265POPC   NC330899   9.053  38.978   9.402
 2265POPC   PO430900   8.688  39.581   9.428
 2265POPC   GL130901   8.805  39.337   9.108
 2265POPC   GL230902   9.142  39.373   9.050
 2265POPC   C1A30903   8.671  39.067   8.787
 2265POPC   D2A30904   8.475  38.918   8.416
 2265POPC   C3A30905   8.665  39.147   8.099
 2265POPC   C4A30906   8.607  39.257   7.672
 2265POPC   C1B30907   9.175  39.204   8.628
 2265POPC   C2B30908   9.336  39.309   8.221
 2265POPC   C3B30909   9.383  39.258   7.776
 2265POPC   C4B30910   9.105  39.229   7.412
 2266POPC   NC330911   9.696  40.481   9.488
 2266POPC   PO430912   9.583  41.087   9.267
 2266POPC   GL130913   9.592  40.712   9.058
 2266POPC   GL230914   9.947  40.518   9.048
 2266POPC   C1A30915   9.557  40.534   8.690
 2266POPC   D2A30916   9.820  40.635   8.382
 2266POPC   C3A30917   9.567  40.733   8.053
 2266POPC   C4A30918   9.643  40.482   7.715
 2266POPC   C1B30919  10.019  40.887   8.804
 2266POPC   C2B30920  10.140  41.020   8.420
 2266POPC   C3B30921  10.004  40.990   7.995
 2266POPC   C4B30922  10.146  41.315   7.771
 2267POPC   NC330923   2.870  24.673   9.644
 2267POPC   PO430924   2.855  24.093   9.548
 2267POPC   GL130925   2.755  24.379   9.229
 2267POPC   GL230926   2.505  24.203   8.995
 2267POPC   C1A30927   2.716  24.732   8.925
 2267POPC   D2A30928   2.479  24.639   8.538
 2267POPC   C3A30929   2.703  24.393   8.211
 2267POPC   C4A30930   2.610  24.515   7.777
 2267POPC   C1B30931   2.882  24.278   8.758
 2267POPC   C2B30932   3.145  24.138   8.491
 2267POPC   C3B30933   3.047  23.965   8.133
 2267POPC   C4B30934   2.868  24.094   7.771
 2268POPC   NC330935  38.476  28.111   9.478
 2268POPC   PO430936  38.315  28.721   9.762
 2268POPC   GL130937  38.474  28.632   9.303
 2268POPC   GL230938  38.184  28.645   9.099
 2268POPC   C1A30939  38.575  28.505   8.808
 2268POPC   D2A30940  38.420  28.368   8.346
 2268POPC   C3A30941  38.683  28.318   7.941
 2268POPC   C4A30942  38.770  28.553   7.544
 2268POPC   C1B30943  38.110  28.277   8.775
 2268POPC   C2B30944  38.181  27.925   8.482
 2268POPC   C3B30945  38.024  28.091   8.111
 2268POPC   C4B30946  38.180  28.358   7.789
 2269POPC   NC330947  29.246  19.818   9.513
 2269POPC   PO430948  28.877  19.230   9.326
 2269POPC   GL130949  29.042  19.565   9.098
 2269POPC   GL230950  28.930  19.906   9.119
 2269POPC   C1A30951  29.117  19.624   8.672
 2269POPC   D2A30952  29.270  19.502   8.283
 2269POPC   C3A30953  28.995  19.628   7.962
 2269POPC   C4A30954  28.617  19.475   7.821
 2269POPC   C1B30955  29.086  20.126   8.721
 2269POPC   C2B30956  29.132  20.009   8.271
 2269POPC   C3B30957  29.167  20.088   7.818
 2269POPC   C4B30958  29.383  20.161   7.427
 2270POPC   NC330959  11.137  21.009   9.664
 2270POPC   PO430960  11.315  20.352   9.469
 2270POPC   GL130961  11.248  20.334   9.046
 2270POPC   GL230962  11.601  20.215   8.974
 2270POPC   C1A30963  11.060  20.646   8.759
 2270POPC   D2A30964  11.152  20.842   8.379
 2270POPC   C3A30965  10.985  20.653   7.998
 2270POPC   C4A30966  10.945  20.210   7.849
 2270POPC   C1B30967  11.531  20.456   8.604
 2270POPC   C2B30968  11.469  20.475   8.167
 2270POPC   C3B30969  11.422  20.466   7.744
 2270POPC   C4B30970  11.456  20.745   7.400
 2271POPC   NC330971   8.099  34.212   9.331
 2271POPC   PO430972   8.359  33.558   9.500
 2271POPC   GL130973   8.421  33.811   9.105
 2271POPC   GL230974   8.311  34.138   8.883
 2271POPC   C1A30975   8.331  33.677   8.690
 2271POPC   D2A30976   8.146  33.883   8.363
 2271POPC   C3A30977   8.309  33.634   8.050
 2271POPC   C4A30978   8.182  33.614   7.627
 2271POPC   C1B30979   8.677  34.149   8.651
 2271POPC   C2B30980   8.623  34.051   8.250
 2271POPC   C3B30981   8.287  34.130   7.924
 2271POPC   C4B30982   8.371  34.072   7.500
 2272POPC   NC330983  29.853   7.276   9.812
 2272POPC   PO430984  29.787   7.730   9.330
 2272POPC   GL130985  29.813   7.360   9.088
 2272POPC   GL230986  30.147   7.156   9.041
 2272POPC   C1A30987  29.783   7.332   8.658
 2272POPC   D2A30988  29.891   7.306   8.256
 2272POPC   C3A30989  29.579   7.519   8.071
 2272POPC   C4A30990  29.476   7.941   7.959
 2272POPC   C1B30991  30.075   6.925   8.643
 2272POPC   C2B30992  30.166   6.859   8.226
 2272POPC   C3B30993  30.209   7.162   7.889
 2272POPC   C4B30994  29.871   7.366   7.695
 2273POPC   NC330995   5.524  21.504   9.615
 2273POPC   PO430996   6.179  21.406   9.495
 2273POPC   GL130997   5.934  21.106   9.177
 2273POPC   GL230998   5.577  21.140   9.194
 2273POPC   C1A30999   5.762  21.177   8.713
 2273POPC   D2A31000   5.916  21.569   8.469
 2273POPC   C3A31001   6.048  21.440   8.062
 2273POPC   C4A31002   5.863  21.376   7.682
 2273POPC   C1B31003   5.520  21.552   8.970
 2273POPC   C2B31004   5.403  21.576   8.544
 2273POPC   C3B31005   5.556  21.340   8.173
 2273POPC   C4B31006   5.396  21.496   7.810
 2274POPC   NC331007  40.332   0.775   9.299
 2274POPC   PO431008  39.831   1.201   9.539
 2274POPC   GL131009  39.743   1.130   9.093
 2274POPC   GL231010  39.814   0.755   9.067
 2274POPC   C1A31011  39.775   1.380   8.685
 2274POPC   D2A31012  39.756   1.598   8.289
 2274POPC   C3A31013  40.036   1.433   7.981
 2274POPC   C4A31014  40.055   1.207   7.623
 2274POPC   C1B31015  40.075   0.960   8.732
 2274POPC   C2B31016  39.979   1.051   8.320
 2274POPC   C3B31017  40.204   0.879   7.992
 2274POPC   C4B31018  40.482   0.926   7.650
 2275POPC   NC331019  17.514  14.690   9.608
 2275POPC   PO431020  17.183  14.068   9.776
 2275POPC   GL131021  17.255  14.374   9.319
 2275POPC   GL231022  17.641  14.413   9.185
 2275POPC   C1A31023  17.278  14.416   8.809
 2275POPC   D2A31024  17.489  14.226   8.411
 2275POPC   C3A31025  17.427  14.234   7.954
 2275POPC   C4A31026  17.275  14.659   7.894
 2275POPC   C1B31027  17.836  14.375   8.752
 2275POPC   C2B31028  17.990  14.401   8.296
 2275POPC   C3B31029  17.822  14.552   7.891
 2275POPC   C4B31030  17.695  14.426   7.468
 2276POPC   NC331031  31.141  44.577   9.451
 2276POPC   PO431032  31.766  44.252   9.368
 2276POPC   GL131033  31.536  44.466   9.082
 2276POPC   GL231034  31.194  44.503   8.964
 2276POPC   C1A31035  31.649  44.477   8.705
 2276POPC   D2A31036  31.512  44.344   8.386
 2276POPC   C3A31037  31.703  44.597   8.128
 2276POPC   C4A31038  31.759  44.466   7.748
 2276POPC   C1B31039  31.057  44.495   8.568
 2276POPC   C2B31040  31.223  44.734   8.238
 2276POPC   C3B31041  31.319  44.792   7.817
 2276POPC   C4B31042  31.295  44.815   7.377
 2277POPC   NC331043  31.580  18.697   9.400
 2277POPC   PO431044  31.205  19.243   9.648
 2277POPC   GL131045  31.488  19.278   9.202
 2277POPC   GL231046  31.266  19.315   8.914
 2277POPC   C1A31047  31.727  19.135   8.824
 2277POPC   D2A31048  31.875  19.263   8.417
 2277POPC   C3A31049  31.627  19.219   8.069
 2277POPC   C4A31050  31.507  18.865   7.843
 2277POPC   C1B31051  31.366  19.421   8.510
 2277POPC   C2B31052  31.150  19.176   8.196
 2277POPC   C3B31053  31.175  19.231   7.759
 2277POPC   C4B31054  30.943  19.291   7.383
 2278POPC   NC331055  33.762  23.428   9.481
 2278POPC   PO431056  34.114  24.025   9.548
 2278POPC   GL131057  34.000  23.784   9.178
 2278POPC   GL231058  33.659  23.751   9.098
 2278POPC   C1A31059  34.004  23.734   8.721
 2278POPC   D2A31060  33.723  23.743   8.364
 2278POPC   C3A31061  33.947  23.835   7.980
 2278POPC   C4A31062  34.146  23.822   7.576
 2278POPC   C1B31063  33.576  23.431   8.834
 2278POPC   C2B31064  33.542  23.237   8.464
 2278POPC   C3B31065  33.695  23.315   8.082
 2278POPC   C4B31066  33.566  23.538   7.767
 2279POPC   NC331067  17.618   0.803   9.341
 2279POPC   PO431068  17.856   0.158   9.525
 2279POPC   GL131069  17.574   0.310   9.184
 2279POPC   GL231070  17.349   0.051   9.078
 2279POPC   C1A31071  17.394   0.519   8.811
 2279POPC   D2A31072  17.598   0.669   8.441
 2279POPC   C3A31073  17.439   0.555   8.044
 2279POPC   C4A31074  17.298   0.634   7.665
 2279POPC   C1B31075  17.613   0.054   8.747
 2279POPC   C2B31076  17.464   0.162   8.368
 2279POPC   C3B31077  17.567   0.035   7.978
 2279POPC   C4B31078  17.693   0.283   7.653
 2280POPC   NC331079   4.797   7.507   9.341
 2280POPC   PO431080   5.243   7.056   9.650
 2280POPC   GL131081   5.252   7.158   9.199
 2280POPC   GL231082   5.243   7.503   9.136
 2280POPC   C1A31083   5.026   7.206   8.784
 2280POPC   D2A31084   4.835   7.477   8.483
 2280POPC   C3A31085   4.773   7.293   8.087
 2280POPC   C4A31086   5.025   7.159   7.742
 2280POPC   C1B31087   5.420   7.688   8.797
 2280POPC   C2B31088   5.266   7.785   8.431
 2280POPC   C3B31089   5.466   7.707   8.077
 2280POPC   C4B31090   5.232   7.650   7.700
 2281POPC   NC331091  35.329  22.483   9.551
 2281POPC   PO431092  35.106  23.119   9.366
 2281POPC   GL131093  35.408  22.868   9.170
 2281POPC   GL231094  35.755  22.737   9.292
 2281POPC   C1A31095  35.302  22.938   8.741
 2281POPC   D2A31096  35.066  22.802   8.423
 2281POPC   C3A31097  35.204  23.016   8.119
 2281POPC   C4A31098  35.248  23.030   7.705
 2281POPC   C1B31099  35.792  22.825   8.838
 2281POPC   C2B31100  35.621  22.679   8.421
 2281POPC   C3B31101  35.652  22.796   7.981
 2281POPC   C4B31102  35.793  23.054   7.626
 2282POPC   NC331103  41.644   7.527   9.550
 2282POPC   PO431104  41.328   6.847   9.538
 2282POPC   GL131105  41.389   7.211   9.190
 2282POPC   GL231106  41.555   7.591   9.086
 2282POPC   C1A31107  41.551   7.234   8.761
 2282POPC   D2A31108  41.439   7.350   8.391
 2282POPC   C3A31109  41.575   7.048   8.107
 2282POPC   C4A31110  41.464   7.143   7.717
 2282POPC   C1B31111  41.832   7.841   8.808
 2282POPC   C2B31112  41.725   7.776   8.386
 2282POPC   C3B31113  41.508   7.671   7.983
 2282POPC   C4B31114  41.677   7.745   7.558
 2283POPC   NC331115  30.402   6.525   9.509
 2283POPC   PO431116  31.076   6.471   9.582
 2283POPC   GL131117  30.849   6.641   9.228
 2283POPC   GL231118  30.606   6.961   9.248
 2283POPC   C1A31119  30.943   6.844   8.838
 2283POPC   D2A31120  31.139   6.763   8.434
 2283POPC   C3A31121  30.957   6.714   8.042
 2283POPC   C4A31122  31.043   6.907   7.659
 2283POPC   C1B31123  30.447   6.725   8.895
 2283POPC   C2B31124  30.330   6.467   8.542
 2283POPC   C3B31125  30.520   6.452   8.155
 2283POPC   C4B31126  30.658   6.402   7.742
 2284POPC   NC331127   9.545  15.439   9.557
 2284POPC   PO431128   9.568  14.775   9.384
 2284POPC   GL131129   9.833  15.104   9.158
 2284POPC   GL231130   9.636  15.435   9.058
 2284POPC   C1A31131   9.882  15.129   8.692
 2284POPC   D2A31132   9.619  15.096   8.315
 2284POPC   C3A31133   9.753  14.906   7.925
 2284POPC   C4A31134   9.668  15.091   7.509
 2284POPC   C1B31135  10.080  15.537   8.957
 2284POPC   C2B31136  10.172  15.544   8.545
 2284POPC   C3B31137  10.083  15.308   8.201
 2284POPC   C4B31138  10.046  15.296   7.781
 2285POPC   NC331139   2.280  41.428   9.381
 2285POPC   PO431140   1.651  41.561   9.302
 2285POPC   GL131141   1.894  41.677   8.997
 2285POPC   GL231142   2.017  41.345   8.954
 2285POPC   C1A31143   2.019  41.715   8.579
 2285POPC   D2A31144   2.409  41.679   8.377
 2285POPC   C3A31145   2.305  41.556   7.989
 2285POPC   C4A31146   2.082  41.746   7.633
 2285POPC   C1B31147   1.673  41.307   8.665
 2285POPC   C2B31148   1.727  41.347   8.225
 2285POPC   C3B31149   1.659  41.626   7.869
 2285POPC   C4B31150   1.734  41.449   7.426
 2286POPC   NC331151  22.621  17.312   9.289
 2286POPC   PO431152  22.030  17.275   9.648
 2286POPC   GL131153  22.131  17.409   9.218
 2286POPC   GL231154  21.859  17.540   9.156
 2286POPC   C1A31155  22.253  17.553   8.769
 2286POPC   D2A31156  22.414  17.665   8.330
 2286POPC   C3A31157  22.322  17.377   8.000
 2286POPC   C4A31158  22.437  17.451   7.545
 2286POPC   C1B31159  21.745  17.670   8.782
 2286POPC   C2B31160  21.953  17.827   8.435
 2286POPC   C3B31161  21.884  17.682   8.060
 2286POPC   C4B31162  21.948  17.511   7.672
 2287POPC   NC331163  40.015   8.374   9.483
 2287POPC   PO431164  39.634   7.734   9.477
 2287POPC   GL131165  39.902   8.000   9.100
 2287POPC   GL231166  40.116   8.326   8.999
 2287POPC   C1A31167  39.790   8.142   8.674
 2287POPC   D2A31168  40.039   8.267   8.327
 2287POPC   C3A31169  39.864   8.004   8.010
 2287POPC   C4A31170  39.794   8.173   7.597
 2287POPC   C1B31171  40.298   8.008   8.724
 2287POPC   C2B31172  40.274   7.796   8.338
 2287POPC   C3B31173  40.373   8.009   7.965
 2287POPC   C4B31174  40.292   8.199   7.562
 2288POPC   NC331175  10.438  29.628   9.929
 2288POPC   PO431176  10.851  29.795   9.470
 2288POPC   GL131177  10.594  29.858   9.132
 2288POPC   GL231178  10.274  29.987   9.200
 2288POPC   C1A31179  10.513  29.736   8.734
 2288POPC   D2A31180  10.664  29.767   8.354
 2288POPC   C3A31181  10.514  29.547   8.039
 2288POPC   C4A31182  10.777  29.711   7.745
 2288POPC   C1B31183  10.049  29.905   8.793
 2288POPC   C2B31184  10.160  29.820   8.336
 2288POPC   C3B31185  10.233  29.966   7.889
 2288POPC   C4B31186  10.097  30.040   7.419
 2289POPC   NC331187   0.069   0.059   9.550
 2289POPC   PO431188  44.473   0.457   9.590
 2289POPC   GL131189  44.692   0.619   9.198
 2289POPC   GL231190  44.804   0.273   9.071
 2289POPC   C1A31191  44.555   0.549   8.742
 2289POPC   D2A31192  44.711   0.181   8.510
 2289POPC   C3A31193  44.666   0.300   8.093
 2289POPC   C4A31194  44.495   0.734   8.002
 2289POPC   C1B31195   0.051   0.541   8.745
 2289POPC   C2B31196  44.879   0.694   8.366
 2289POPC   C3B31197  44.991   0.655   7.939
 2289POPC   C4B31198   0.038   0.240   7.733
 2290POPC   NC331199   8.154   7.748   9.495
 2290POPC   PO431200   7.830   7.173   9.540
 2290POPC   GL131201   8.157   7.317   9.207
 2290POPC   GL231202   8.492   7.386   9.000
 2290POPC   C1A31203   8.011   7.398   8.803
 2290POPC   D2A31204   8.179   7.365   8.417
 2290POPC   C3A31205   7.983   7.509   8.017
 2290POPC   C4A31206   8.317   7.450   7.760
 2290POPC   C1B31207   8.386   7.029   8.793
 2290POPC   C2B31208   8.380   6.872   8.402
 2290POPC   C3B31209   8.481   7.074   8.061
 2290POPC   C4B31210   8.463   6.933   7.672
 2291POPC   NC331211  35.607  12.117   9.428
 2291POPC   PO431212  34.930  12.470   9.512
 2291POPC   GL131213  35.104  12.200   9.221
 2291POPC   GL231214  35.362  12.507   9.192
 2291POPC   C1A31215  35.042  11.910   8.830
 2291POPC   D2A31216  35.267  11.763   8.437
 2291POPC   C3A31217  35.208  11.993   8.018
 2291POPC   C4A31218  35.109  12.195   7.577
 2291POPC   C1B31219  35.402  12.281   8.824
 2291POPC   C2B31220  35.395  12.279   8.422
 2291POPC   C3B31221  35.410  12.471   8.055
 2291POPC   C4B31222  35.631  12.241   7.800
 2292POPC   NC331223  29.695  26.022   9.581
 2292POPC   PO431224  30.342  26.144   9.477
 2292POPC   GL131225  30.066  26.156   9.129
 2292POPC   GL231226  29.749  25.992   9.083
 2292POPC   C1A31227  30.168  26.078   8.712
 2292POPC   D2A31228  30.353  25.771   8.421
 2292POPC   C3A31229  30.076  25.732   8.066
 2292POPC   C4A31230  30.062  26.152   7.813
 2292POPC   C1B31231  29.540  26.170   8.731
 2292POPC   C2B31232  29.474  26.388   8.316
 2292POPC   C3B31233  29.547  26.246   7.888
 2292POPC   C4B31234  29.656  25.840   7.771
 2293POPC   NC331235  19.234  28.818   9.505
 2293POPC   PO431236  19.052  29.387   9.482
 2293POPC   GL131237  19.018  29.092   9.133
 2293POPC   GL231238  19.380  29.147   9.116
 2293POPC   C1A31239  18.748  29.037   8.737
 2293POPC   D2A31240  18.599  29.146   8.304
 2293POPC   C3A31241  18.770  28.997   7.916
 2293POPC   C4A31242  18.913  29.206   7.545
 2293POPC   C1B31243  19.244  28.966   8.688
 2293POPC   C2B31244  19.120  28.859   8.255
 2293POPC   C3B31245  19.233  28.872   7.784
 2293POPC   C4B31246  19.290  28.944   7.307
 2294POPC   NC331247   5.327  29.914   9.500
 2294POPC   PO431248   4.724  29.834   9.276
 2294POPC   GL131249   4.987  30.011   8.981
 2294POPC   GL231250   5.327  30.106   9.035
 2294POPC   C1A31251   5.041  29.812   8.598
 2294POPC   D2A31252   4.831  29.472   8.397
 2294POPC   C3A31253   4.827  29.749   8.067
 2294POPC   C4A31254   5.001  29.796   7.673
 2294POPC   C1B31255   5.314  30.239   8.612
 2294POPC   C2B31256   5.047  30.223   8.250
 2294POPC   C3B31257   5.105  30.267   7.820
 2294POPC   C4B31258   5.383  30.060   7.514
 2295POPC   NC331259  37.882  41.920   9.543
 2295POPC   PO431260  37.374  42.408   9.554
 2295POPC   GL131261  37.581  42.469   9.158
 2295POPC   GL231262  37.720  42.160   9.074
 2295POPC   C1A31263  37.340  42.451   8.786
 2295POPC   D2A31264  37.440  42.494   8.374
 2295POPC   C3A31265  37.497  42.246   8.004
 2295POPC   C4A31266  37.230  42.487   7.767
 2295POPC   C1B31267  37.850  42.424   8.677
 2295POPC   C2B31268  37.931  42.381   8.214
 2295POPC   C3B31269  37.921  42.360   7.732
 2295POPC   C4B31270  38.020  42.241   7.264
 2296POPC   NC331271  26.390  39.069   9.623
 2296POPC   PO431272  25.743  39.382   9.759
 2296POPC   GL131273  25.787  39.336   9.206
 2296POPC   GL231274  25.982  39.565   9.060
 2296POPC   C1A31275  25.987  39.164   8.771
 2296POPC   D2A31276  26.113  39.419   8.385
 2296POPC   C3A31277  26.192  39.206   7.984
 2296POPC   C4A31278  26.142  39.130   7.524
 2296POPC   C1B31279  25.715  39.601   8.668
 2296POPC   C2B31280  25.521  39.834   8.327
 2296POPC   C3B31281  25.514  39.647   7.922
 2296POPC   C4B31282  25.891  39.537   7.678
 2297POPC   NC331283  18.450  40.328   9.521
 2297POPC   PO431284  18.680  39.743   9.635
 2297POPC   GL131285  18.461  39.801   9.173
 2297POPC   GL231286  18.369  40.151   9.075
 2297POPC   C1A31287  18.179  39.866   8.745
 2297POPC   D2A31288  17.994  40.034   8.377
 2297POPC   C3A31289  18.192  39.821   8.056
 2297POPC   C4A31290  18.327  39.575   7.681
 2297POPC   C1B31291  18.572  40.401   8.803
 2297POPC   C2B31292  18.451  40.227   8.423
 2297POPC   C3B31293  18.327  40.323   8.012
 2297POPC   C4B31294  18.651  40.327   7.744
 2298POPC   NC331295  29.889  13.145   9.765
 2298POPC   PO431296  29.832  13.729   9.367
 2298POPC   GL131297  29.611  13.564   9.045
 2298POPC   GL231298  29.606  13.856   8.854
 2298POPC   C1A31299  29.710  13.359   8.685
 2298POPC   D2A31300  29.849  13.521   8.295
 2298POPC   C3A31301  29.905  13.204   8.018
 2298POPC   C4A31302  29.871  13.192   7.543
 2298POPC   C1B31303  30.052  13.736   8.751
 2298POPC   C2B31304  30.323  13.872   8.435
 2298POPC   C3B31305  30.192  13.979   8.025
 2298POPC   C4B31306  29.986  13.664   7.745
 2299POPC   NC331307  12.755  38.718   9.516
 2299POPC   PO431308  12.548  38.152   9.423
 2299POPC   GL131309  12.759  38.410   9.093
 2299POPC   GL231310  13.001  38.686   9.059
 2299POPC   C1A31311  12.597  38.557   8.678
 2299POPC   D2A31312  12.529  38.566   8.195
 2299POPC   C3A31313  12.803  38.293   7.979
 2299POPC   C4A31314  13.214  38.287   7.748
 2299POPC   C1B31315  13.156  38.497   8.657
 2299POPC   C2B31316  13.262  38.563   8.198
 2299POPC   C3B31317  13.021  38.728   7.864
 2299POPC   C4B31318  12.602  38.696   7.703
 2300POPC   NC331319   8.796  19.296   9.639
 2300POPC   PO431320   9.379  18.892   9.535
 2300POPC   GL131321   9.192  19.018   9.130
 2300POPC   GL231322   8.830  18.944   9.171
 2300POPC   C1A31323   9.037  19.303   8.764
 2300POPC   D2A31324   8.939  19.489   8.314
 2300POPC   C3A31325   9.134  19.227   7.977
 2300POPC   C4A31326   9.290  18.892   7.722
 2300POPC   C1B31327   8.656  18.925   8.757
 2300POPC   C2B31328   8.856  18.984   8.380
 2300POPC   C3B31329   8.690  18.978   7.998
 2300POPC   C4B31330   8.787  18.805   7.643
 2301POPC   NC331331  43.255   6.543   9.431
 2301POPC   PO431332  42.905   7.103   9.443
 2301POPC   GL131333  43.059   6.892   9.106
 2301POPC   GL231334  42.814   6.605   9.093
 2301POPC   C1A31335  43.213   6.616   8.761
 2301POPC   D2A31336  43.140   6.327   8.429
 2301POPC   C3A31337  43.387   6.443   8.066
 2301POPC   C4A31338  43.378   6.483   7.568
 2301POPC   C1B31339  42.774   6.886   8.703
 2301POPC   C2B31340  43.152   7.078   8.499
 2301POPC   C3B31341  43.271   6.975   8.102
 2301POPC   C4B31342  42.996   6.698   7.877
 2302POPC   NC331343  23.882   2.681   9.530
 2302POPC   PO431344  23.256   2.607   9.685
 2302POPC   GL131345  23.517   2.882   9.253
 2302POPC   GL231346  23.760   2.606   9.060
 2302POPC   C1A31347  23.712   3.025   8.797
 2302POPC   D2A31348  23.687   3.139   8.336
 2302POPC   C3A31349  23.712   2.813   8.005
 2302POPC   C4A31350  23.659   2.395   7.860
 2302POPC   C1B31351  24.076   2.634   8.778
 2302POPC   C2B31352  24.062   2.768   8.392
 2302POPC   C3B31353  24.153   2.544   8.000
 2302POPC   C4B31354  24.012   2.650   7.563
 2303POPC   NC331355  24.584  43.535   9.311
 2303POPC   PO431356  24.398  44.076   9.742
 2303POPC   GL131357  24.387  44.131   9.285
 2303POPC   GL231358  24.720  44.098   9.211
 2303POPC   C1A31359  24.253  44.022   8.831
 2303POPC   D2A31360  24.100  44.241   8.484
 2303POPC   C3A31361  24.221  43.993   8.199
 2303POPC   C4A31362  24.402  43.773   7.903
 2303POPC   C1B31363  24.789  43.971   8.796
 2303POPC   C2B31364  24.701  43.761   8.398
 2303POPC   C3B31365  24.849  43.588   7.982
 2303POPC   C4B31366  24.716  43.711   7.524
 2304POPC   NC331367  19.752   0.846   9.386
 2304POPC   PO431368  20.137   0.355   9.380
 2304POPC   GL131369  19.751   0.377   9.181
 2304POPC   GL231370  19.556   0.105   9.074
 2304POPC   C1A31371  19.673   0.510   8.769
 2304POPC   D2A31372  19.384   0.523   8.468
 2304POPC   C3A31373  19.617   0.430   8.135
 2304POPC   C4A31374  19.753   0.453   7.736
 2304POPC   C1B31375  19.985   0.111   8.819
 2304POPC   C2B31376  20.076   0.313   8.459
 2304POPC   C3B31377  20.153   0.368   8.048
 2304POPC   C4B31378  20.231   0.133   7.720
 2305POPC   NC331379  28.142  15.265   9.574
 2305POPC   PO431380  28.762  14.819   9.492
 2305POPC   GL131381  28.515  15.103   9.237
 2305POPC   GL231382  28.180  14.933   9.180
 2305POPC   C1A31383  28.346  15.317   8.865
 2305POPC   D2A31384  28.376  15.229   8.428
 2305POPC   C3A31385  28.197  15.405   8.050
 2305POPC   C4A31386  28.403  15.201   7.678
 2305POPC   C1B31387  28.029  14.915   8.755
 2305POPC   C2B31388  28.059  14.776   8.326
 2305POPC   C3B31389  27.994  14.968   7.918
 2305POPC   C4B31390  27.958  14.972   7.461
 2306POPC   NC331391  26.975  13.493   9.447
 2306POPC   PO431392  26.375  13.905   9.452
 2306POPC   GL131393  26.591  13.678   9.157
 2306POPC   GL231394  26.854  13.900   9.150
 2306POPC   C1A31395  26.718  13.535   8.754
 2306POPC   D2A31396  26.539  13.330   8.369
 2306POPC   C3A31397  26.729  13.471   8.015
 2306POPC   C4A31398  26.667  13.711   7.699
 2306POPC   C1B31399  26.900  14.036   8.748
 2306POPC   C2B31400  26.743  13.867   8.361
 2306POPC   C3B31401  26.989  13.920   8.021
 2306POPC   C4B31402  26.987  14.131   7.649
 2307POPC   NC331403  20.677  44.440   9.491
 2307POPC   PO431404  20.174  44.828   9.712
 2307POPC   GL131405  20.270  44.845   9.228
 2307POPC   GL231406  20.465  44.566   9.052
 2307POPC   C1A31407  20.559   0.013   8.875
 2307POPC   D2A31408  20.645  44.771   8.505
 2307POPC   C3A31409  20.567   0.045   8.147
 2307POPC   C4A31410  20.657  44.876   7.740
 2307POPC   C1B31411  20.186  44.656   8.740
 2307POPC   C2B31412  20.143  44.806   8.350
 2307POPC   C3B31413  20.405  44.563   8.086
 2307POPC   C4B31414  20.319  44.493   7.694
 2308POPC   NC331415   0.242  40.639   9.752
 2308POPC   PO431416   0.835  40.530   9.434
 2308POPC   GL131417   0.625  40.444   9.106
 2308POPC   GL231418   0.286  40.546   9.136
 2308POPC   C1A31419   0.672  40.643   8.712
 2308POPC   D2A31420   0.587  40.886   8.356
 2308POPC   C3A31421   0.693  40.755   7.965
 2308POPC   C4A31422   0.618  41.111   7.687
 2308POPC   C1B31423   0.257  40.927   8.804
 2308POPC   C2B31424   0.067  40.967   8.408
 2308POPC   C3B31425   0.210  40.974   7.971
 2308POPC   C4B31426   0.157  41.035   7.506
 2309POPC   NC331427   3.883  15.946   9.576
 2309POPC   PO431428   4.548  15.882   9.540
 2309POPC   GL131429   4.408  15.863   9.118
 2309POPC   GL231430   4.044  15.982   9.080
 2309POPC   C1A31431   4.532  15.895   8.681
 2309POPC   D2A31432   4.421  16.115   8.287
 2309POPC   C3A31433   4.296  15.816   7.975
 2309POPC   C4A31434   4.593  15.750   7.658
 2309POPC   C1B31435   3.918  16.289   8.766
 2309POPC   C2B31436   3.884  16.183   8.344
 2309POPC   C3B31437   4.049  16.291   7.959
 2309POPC   C4B31438   3.997  16.029   7.582
 2310POPC   NC331439  18.356   4.940   9.605
 2310POPC   PO431440  17.820   5.280   9.312
 2310POPC   GL131441  18.131   4.973   9.147
 2310POPC   GL231442  18.515   5.007   9.135
 2310POPC   C1A31443  18.195   4.914   8.705
 2310POPC   D2A31444  18.024   5.179   8.392
 2310POPC   C3A31445  18.102   4.972   8.023
 2310POPC   C4A31446  18.356   4.954   7.669
 2310POPC   C1B31447  18.480   5.325   8.804
 2310POPC   C2B31448  18.439   5.527   8.401
 2310POPC   C3B31449  18.483   5.337   7.982
 2310POPC   C4B31450  18.523   5.414   7.515
 2311POPC   NC331451  33.168  22.485   9.298
 2311POPC   PO431452  32.858  22.033   9.593
 2311POPC   GL131453  32.938  22.040   9.123
 2311POPC   GL231454  32.870  22.332   8.912
 2311POPC   C1A31455  33.047  21.897   8.691
 2311POPC   D2A31456  33.085  22.131   8.291
 2311POPC   C3A31457  32.938  21.989   7.874
 2311POPC   C4A31458  32.656  22.031   7.490
 2311POPC   C1B31459  33.297  22.360   8.704
 2311POPC   C2B31460  33.560  22.446   8.394
 2311POPC   C3B31461  33.400  22.454   8.032
 2311POPC   C4B31462  33.272  22.303   7.663
 2312POPC   NC331463   7.184  30.121   9.312
 2312POPC   PO431464   6.677  30.139   9.761
 2312POPC   GL131465   6.683  29.962   9.296
 2312POPC   GL231466   6.815  29.632   9.116
 2312POPC   C1A31467   6.713  30.069   8.843
 2312POPC   D2A31468   6.835  30.006   8.403
 2312POPC   C3A31469   6.555  30.197   8.080
 2312POPC   C4A31470   6.628  30.194   7.658
 2312POPC   C1B31471   6.591  29.591   8.683
 2312POPC   C2B31472   6.756  29.511   8.260
 2312POPC   C3B31473   6.697  29.699   7.823
 2312POPC   C4B31474   6.612  29.727   7.356
 2313POPC   NC331475  37.014   0.866   9.590
 2313POPC   PO431476  37.378   0.294   9.341
 2313POPC   GL131477  36.971   0.247   9.175
 2313POPC   GL231478  36.861   0.577   9.190
 2313POPC   C1A31479  36.912   0.160   8.753
 2313POPC   D2A31480  37.117   0.387   8.419
 2313POPC   C3A31481  36.920   0.358   8.012
 2313POPC   C4A31482  36.689   0.102   7.728
 2313POPC   C1B31483  36.842   0.684   8.750
 2313POPC   C2B31484  37.082   0.905   8.459
 2313POPC   C3B31485  37.118   0.839   8.069
 2313POPC   C4B31486  36.798   0.787   7.772
 2314POPC   NC331487  42.678  35.104   9.504
 2314POPC   PO431488  42.360  35.698   9.352
 2314POPC   GL131489  42.332  35.254   9.140
 2314POPC   GL231490  42.025  34.991   9.068
 2314POPC   C1A31491  42.370  35.263   8.726
 2314POPC   D2A31492  42.482  35.577   8.435
 2314POPC   C3A31493  42.461  35.459   8.018
 2314POPC   C4A31494  42.483  35.341   7.592
 2314POPC   C1B31495  41.873  35.162   8.687
 2314POPC   C2B31496  42.076  35.216   8.286
 2314POPC   C3B31497  42.100  35.136   7.860
 2314POPC   C4B31498  42.005  35.368   7.436
 2315POPC   NC331499  36.981  18.324   9.589
 2315POPC   PO431500  36.323  18.104   9.722
 2315POPC   GL131501  36.630  18.076   9.344
 2315POPC   GL231502  36.586  18.454   9.281
 2315POPC   C1A31503  36.916  18.251   8.953
 2315POPC   D2A31504  36.887  18.459   8.541
 2315POPC   C3A31505  36.900  18.200   8.182
 2315POPC   C4A31506  37.158  18.338   7.822
 2315POPC   C1B31507  36.467  18.449   8.819
 2315POPC   C2B31508  36.380  18.433   8.372
 2315POPC   C3B31509  36.496  18.727   8.077
 2315POPC   C4B31510  36.775  18.657   7.706
 2316POPC   NC331511  21.589  36.557   9.546
 2316POPC   PO431512  21.202  35.957   9.658
 2316POPC   GL131513  21.183  35.998   9.199
 2316POPC   GL231514  21.348  36.325   9.167
 2316POPC   C1A31515  21.476  35.975   8.843
 2316POPC   D2A31516  21.564  35.851   8.448
 2316POPC   C3A31517  21.353  36.047   8.128
 2316POPC   C4A31518  21.507  35.904   7.756
 2316POPC   C1B31519  21.497  36.502   8.756
 2316POPC   C2B31520  21.275  36.623   8.380
 2316POPC   C3B31521  21.153  36.510   7.981
 2316POPC   C4B31522  21.451  36.392   7.687
 2317POPC   NC331523  28.517   7.936   9.460
 2317POPC   PO431524  28.135   8.428   9.524
 2317POPC   GL131525  28.426   8.369   9.176
 2317POPC   GL231526  28.344   8.048   8.997
 2317POPC   C1A31527  28.575   8.415   8.746
 2317POPC   D2A31528  28.280   8.203   8.475
 2317POPC   C3A31529  28.379   8.192   8.041
 2317POPC   C4A31530  28.039   8.161   7.741
 2317POPC   C1B31531  28.546   7.747   8.727
 2317POPC   C2B31532  28.710   7.579   8.352
 2317POPC   C3B31533  28.639   7.754   7.977
 2317POPC   C4B31534  28.348   7.753   7.760
 2318POPC   NC331535   9.958  18.341   9.495
 2318POPC   PO431536   9.452  18.025   9.425
 2318POPC   GL131537   9.636  18.103   9.063
 2318POPC   GL231538   9.580  18.418   9.111
 2318POPC   C1A31539   9.583  18.273   8.631
 2318POPC   D2A31540   9.617  18.384   8.210
 2318POPC   C3A31541   9.649  18.011   8.011
 2318POPC   C4A31542   9.305  17.866   7.765
 2318POPC   C1B31543   9.953  18.496   8.876
 2318POPC   C2B31544   9.935  18.665   8.502
 2318POPC   C3B31545  10.090  18.634   8.115
 2318POPC   C4B31546  10.153  18.483   7.733
 2319POPC   NC331547  18.321  20.449   9.621
 2319POPC   PO431548  18.505  19.803   9.840
 2319POPC   GL131549  18.394  19.880   9.354
 2319POPC   GL231550  18.679  19.873   9.107
 2319POPC   C1A31551  18.167  19.834   8.957
 2319POPC   D2A31552  18.146  19.671   8.495
 2319POPC   C3A31553  18.036  19.816   8.031
 2319POPC   C4A31554  18.226  19.648   7.613
 2319POPC   C1B31555  18.566  20.011   8.698
 2319POPC   C2B31556  18.404  20.066   8.292
 2319POPC   C3B31557  18.575  19.862   7.913
 2319POPC   C4B31558  18.619  19.999   7.474
 2320POPC   NC331559  16.108  44.107   9.440
 2320POPC   PO431560  16.044  43.421   9.400
 2320POPC   GL131561  15.838  43.710   9.165
 2320POPC   GL231562  16.154  43.826   9.032
 2320POPC   C1A31563  15.797  43.654   8.734
 2320POPC   D2A31564  16.069  43.710   8.418
 2320POPC   C3A31565  15.863  43.560   8.066
 2320POPC   C4A31566  15.645  43.728   7.726
 2320POPC   C1B31567  16.438  44.005   8.714
 2320POPC   C2B31568  16.413  44.105   8.285
 2320POPC   C3B31569  16.346  44.155   7.871
 2320POPC   C4B31570  16.093  43.963   7.609
 2321POPC   NC331571   5.853  26.382   9.567
 2321POPC   PO431572   6.351  26.056   9.498
 2321POPC   GL131573   5.990  25.946   9.203
 2321POPC   GL231574   5.726  26.207   9.111
 2321POPC   C1A31575   5.894  25.907   8.744
 2321POPC   D2A31576   5.970  26.101   8.364
 2321POPC   C3A31577   5.766  25.943   8.001
 2321POPC   C4A31578   5.989  25.907   7.632
 2321POPC   C1B31579   5.485  26.213   8.723
 2321POPC   C2B31580   5.393  26.005   8.360
 2321POPC   C3B31581   5.293  26.120   7.953
 2321POPC   C4B31582   5.587  26.242   7.610
 2322POPC   NC331583  14.258   4.784   9.568
 2322POPC   PO431584  14.564   5.400   9.615
 2322POPC   GL131585  14.552   5.344   9.177
 2322POPC   GL231586  14.247   5.165   9.133
 2322POPC   C1A31587  14.530   5.213   8.722
 2322POPC   D2A31588  14.254   5.247   8.369
 2322POPC   C3A31589  14.367   5.138   7.955
 2322POPC   C4A31590  14.487   5.362   7.606
 2322POPC   C1B31591  13.946   5.136   8.772
 2322POPC   C2B31592  13.703   5.340   8.419
 2322POPC   C3B31593  13.876   5.351   7.991
 2322POPC   C4B31594  13.941   5.046   7.656
 2323POPC   NC331595  41.094  32.050   9.545
 2323POPC   PO431596  41.610  32.436   9.548
 2323POPC   GL131597  41.563  32.097   9.246
 2323POPC   GL231598  41.240  32.076   9.069
 2323POPC   C1A31599  41.709  32.020   8.827
 2323POPC   D2A31600  41.621  32.213   8.432
 2323POPC   C3A31601  41.689  32.086   8.010
 2323POPC   C4A31602  41.692  32.312   7.634
 2323POPC   C1B31603  41.232  31.896   8.674
 2323POPC   C2B31604  41.119  32.072   8.293
 2323POPC   C3B31605  41.246  32.312   7.959
 2323POPC   C4B31606  41.300  31.973   7.711
 2324POPC   NC331607  40.909  14.193   9.795
 2324POPC   PO431608  40.661  13.578   9.794
 2324POPC   GL131609  40.575  13.691   9.355
 2324POPC   GL231610  40.748  13.433   9.171
 2324POPC   C1A31611  40.514  13.752   8.872
 2324POPC   D2A31612  40.767  13.783   8.501
 2324POPC   C3A31613  40.512  13.721   8.150
 2324POPC   C4A31614  40.596  13.589   7.731
 2324POPC   C1B31615  41.082  13.596   8.894
 2324POPC   C2B31616  41.215  13.494   8.478
 2324POPC   C3B31617  40.982  13.490   8.099
 2324POPC   C4B31618  41.114  13.721   7.747
 2325POPC   NC331619  35.985  26.365   9.592
 2325POPC   PO431620  35.954  25.651   9.549
 2325POPC   GL131621  36.216  25.976   9.254
 2325POPC   GL231622  36.111  26.353   9.099
 2325POPC   C1A31623  36.341  26.021   8.801
 2325POPC   D2A31624  36.176  26.163   8.400
 2325POPC   C3A31625  36.289  25.980   8.001
 2325POPC   C4A31626  35.921  25.926   7.733
 2325POPC   C1B31627  36.345  26.543   8.738
 2325POPC   C2B31628  36.419  26.607   8.316
 2325POPC   C3B31629  36.305  26.534   7.915
 2325POPC   C4B31630  36.160  26.335   7.558
 2326POPC   NC331631  12.888  29.831   9.463
 2326POPC   PO431632  12.597  30.365   9.692
 2326POPC   GL131633  12.781  30.241   9.185
 2326POPC   GL231634  12.683  29.946   9.012
 2326POPC   C1A31635  13.041  30.183   8.755
 2326POPC   D2A31636  13.075  29.939   8.341
 2326POPC   C3A31637  12.928  30.177   7.979
 2326POPC   C4A31638  12.612  30.327   7.701
 2326POPC   C1B31639  12.864  29.655   8.732
 2326POPC   C2B31640  12.711  29.500   8.343
 2326POPC   C3B31641  12.786  29.673   7.968
 2326POPC   C4B31642  12.770  29.858   7.578
 2327POPC   NC331643   0.297  24.852   9.451
 2327POPC   PO431644   0.491  25.500   9.469
 2327POPC   GL131645   0.489  25.201   9.126
 2327POPC   GL231646   0.764  24.956   9.096
 2327POPC   C1A31647   0.234  25.202   8.747
 2327POPC   D2A31648   0.261  25.558   8.441
 2327POPC   C3A31649   0.317  25.481   7.991
 2327POPC   C4A31650   0.190  25.699   7.614
 2327POPC   C1B31651   0.760  25.132   8.664
 2327POPC   C2B31652   0.488  25.098   8.298
 2327POPC   C3B31653   0.405  24.920   7.889
 2327POPC   C4B31654   0.501  25.000   7.455
 2328POPC   NC331655  44.867   8.381   9.496
 2328POPC   PO431656  44.248   8.061   9.414
 2328POPC   GL131657  44.459   8.025   9.036
 2328POPC   GL231658  44.796   8.166   9.059
 2328POPC   C1A31659  44.665   7.940   8.637
 2328POPC   D2A31660  44.911   7.706   8.356
 2328POPC   C3A31661  44.732   7.866   8.011
 2328POPC   C4A31662  44.354   8.032   7.799
 2328POPC   C1B31663  44.599   8.437   8.741
 2328POPC   C2B31664  44.842   8.350   8.371
 2328POPC   C3B31665  44.756   8.372   7.963
 2328POPC   C4B31666  44.793   8.596   7.624
 2329POPC   NC331667  21.602  24.088   9.323
 2329POPC   PO431668  21.362  23.538   9.570
 2329POPC   GL131669  21.348  23.412   9.132
 2329POPC   GL231670  21.495  23.724   9.000
 2329POPC   C1A31671  21.160  23.500   8.715
 2329POPC   D2A31672  21.403  23.764   8.475
 2329POPC   C3A31673  21.338  23.892   8.113
 2329POPC   C4A31674  21.298  23.690   7.750
 2329POPC   C1B31675  21.791  23.956   8.720
 2329POPC   C2B31676  21.843  24.009   8.277
 2329POPC   C3B31677  21.771  23.989   7.843
 2329POPC   C4B31678  21.825  23.674   7.575
 2330POPC   NC331679   6.452  12.298   9.498
 2330POPC   PO431680   6.829  12.842   9.536
 2330POPC   GL131681   6.529  12.813   9.196
 2330POPC   GL231682   6.524  12.502   9.024
 2330POPC   C1A31683   6.521  13.067   8.817
 2330POPC   D2A31684   6.661  13.051   8.415
 2330POPC   C3A31685   6.450  13.140   8.043
 2330POPC   C4A31686   6.660  13.045   7.672
 2330POPC   C1B31687   6.901  12.695   8.794
 2330POPC   C2B31688   7.005  12.685   8.340
 2330POPC   C3B31689   6.693  12.661   8.019
 2330POPC   C4B31690   6.757  12.554   7.594
 2331POPC   NC331691   9.910  37.992   9.428
 2331POPC   PO431692   9.804  37.337   9.500
 2331POPC   GL131693   9.691  37.591   9.142
 2331POPC   GL231694   9.993  37.683   8.947
 2331POPC   C1A31695   9.548  37.530   8.722
 2331POPC   D2A31696   9.827  37.650   8.424
 2331POPC   C3A31697   9.696  37.494   8.070
 2331POPC   C4A31698   9.992  37.318   7.791
 2331POPC   C1B31699   9.695  38.009   8.809
 2331POPC   C2B31700   9.445  37.989   8.439
 2331POPC   C3B31701   9.625  38.037   8.052
 2331POPC   C4B31702   9.878  37.829   7.758
 2332POPC   NC331703   9.488  21.828   9.929
 2332POPC   PO431704   9.759  22.258   9.602
 2332POPC   GL131705   9.781  22.112   9.201
 2332POPC   GL231706   9.428  22.199   9.209
 2332POPC   C1A31707   9.923  22.263   8.756
 2332POPC   D2A31708   9.619  22.453   8.447
 2332POPC   C3A31709   9.768  22.335   8.031
 2332POPC   C4A31710   9.930  22.092   7.683
 2332POPC   C1B31711   9.481  22.048   8.801
 2332POPC   C2B31712   9.619  21.945   8.378
 2332POPC   C3B31713   9.421  21.963   7.964
 2332POPC   C4B31714   9.445  22.011   7.493
 2333POPC   NC331715  30.537  33.899   9.543
 2333POPC   PO431716  30.704  34.508   9.602
 2333POPC   GL131717  30.547  34.277   9.214
 2333POPC   GL231718  30.866  34.114   9.235
 2333POPC   C1A31719  30.527  34.042   8.822
 2333POPC   D2A31720  30.474  34.127   8.377
 2333POPC   C3A31721  30.439  33.770   8.104
 2333POPC   C4A31722  30.698  33.585   7.775
 2333POPC   C1B31723  31.038  34.100   8.847
 2333POPC   C2B31724  31.098  33.968   8.450
 2333POPC   C3B31725  30.894  33.999   8.086
 2333POPC   C4B31726  31.053  33.977   7.713
 2334POPC   NC331727  28.585  31.261   9.897
 2334POPC   PO431728  28.643  30.596   9.618
 2334POPC   GL131729  28.487  30.591   9.210
 2334POPC   GL231730  28.288  30.872   9.095
 2334POPC   C1A31731  28.344  30.396   8.855
 2334POPC   D2A31732  28.203  30.351   8.466
 2334POPC   C3A31733  28.356  30.663   8.166
 2334POPC   C4A31734  28.216  30.560   7.733
 2334POPC   C1B31735  28.412  30.892   8.665
 2334POPC   C2B31736  28.296  31.183   8.313
 2334POPC   C3B31737  28.232  31.069   7.879
 2334POPC   C4B31738  28.124  30.979   7.437
 2335POPC   NC331739   5.789  38.098   9.791
 2335POPC   PO431740   6.125  37.665   9.344
 2335POPC   GL131741   5.834  37.729   9.018
 2335POPC   GL231742   6.071  37.926   8.827
 2335POPC   C1A31743   5.682  37.676   8.584
 2335POPC   D2A31744   5.914  37.880   8.274
 2335POPC   C3A31745   5.811  37.677   7.926
 2335POPC   C4A31746   5.403  37.444   7.835
 2335POPC   C1B31747   6.132  37.486   8.681
 2335POPC   C2B31748   5.952  37.327   8.316
 2335POPC   C3B31749   6.067  37.250   7.889
 2335POPC   C4B31750   6.091  37.404   7.453
 2336POPC   NC331751  27.549  14.528   9.571
 2336POPC   PO431752  27.251  13.883   9.469
 2336POPC   GL131753  27.557  14.142   9.181
 2336POPC   GL231754  27.781  14.488   9.138
 2336POPC   C1A31755  27.456  14.183   8.771
 2336POPC   D2A31756  27.284  14.351   8.416
 2336POPC   C3A31757  27.418  14.170   8.077
 2336POPC   C4A31758  27.478  14.320   7.695
 2336POPC   C1B31759  27.916  14.419   8.721
 2336POPC   C2B31760  27.829  14.178   8.387
 2336POPC   C3B31761  27.940  14.169   7.964
 2336POPC   C4B31762  27.946  14.521   7.713
 2337POPC   NC331763  28.791  11.762   9.564
 2337POPC   PO431764  29.389  11.326   9.464
 2337POPC   GL131765  29.195  11.301   9.086
 2337POPC   GL231766  29.006  11.561   9.161
 2337POPC   C1A31767  29.206  11.338   8.646
 2337POPC   D2A31768  29.117  11.092   8.284
 2337POPC   C3A31769  29.291  11.376   7.987
 2337POPC   C4A31770  29.088  11.280   7.627
 2337POPC   C1B31771  28.779  11.565   8.806
 2337POPC   C2B31772  28.711  11.349   8.455
 2337POPC   C3B31773  28.802  11.481   8.068
 2337POPC   C4B31774  28.802  11.685   7.682
 2338POPC   NC331775   9.256   8.976   9.467
 2338POPC   PO431776   8.749   8.504   9.420
 2338POPC   GL131777   8.872   8.850   9.107
 2338POPC   GL231778   9.068   9.174   9.047
 2338POPC   C1A31779   8.765   9.002   8.687
 2338POPC   D2A31780   8.988   9.105   8.306
 2338POPC   C3A31781   8.713   9.243   7.994
 2338POPC   C4A31782   8.622   8.951   7.705
 2338POPC   C1B31783   9.340   9.210   8.675
 2338POPC   C2B31784   9.325   9.500   8.321
 2338POPC   C3B31785   9.186   9.389   7.909
 2338POPC   C4B31786   9.130   8.949   7.814
 2339POPC   NC331787  39.375  26.068   9.480
 2339POPC   PO431788  38.801  26.409   9.697
 2339POPC   GL131789  38.896  26.240   9.251
 2339POPC   GL231790  39.093  25.917   9.080
 2339POPC   C1A31791  38.866  26.258   8.797
 2339POPC   D2A31792  39.081  26.412   8.418
 2339POPC   C3A31793  39.198  26.196   8.035
 2339POPC   C4A31794  39.076  25.776   7.899
 2339POPC   C1B31795  39.261  25.979   8.631
 2339POPC   C2B31796  39.605  26.091   8.343
 2339POPC   C3B31797  39.653  26.064   7.885
 2339POPC   C4B31798  39.465  25.878   7.520
 2340POPC   NC331799  14.533  20.190   9.572
 2340POPC   PO431800  14.042  20.701   9.723
 2340POPC   GL131801  14.291  20.579   9.325
 2340POPC   GL231802  14.630  20.714   9.401
 2340POPC   C1A31803  14.215  20.444   8.862
 2340POPC   D2A31804  14.124  20.596   8.434
 2340POPC   C3A31805  14.402  20.616   8.044
 2340POPC   C4A31806  14.457  20.494   7.592
 2340POPC   C1B31807  14.655  20.694   8.961
 2340POPC   C2B31808  14.689  21.023   8.631
 2340POPC   C3B31809  14.716  21.073   8.173
 2340POPC   C4B31810  14.680  20.919   7.749
 2341POPC   NC331811  28.865  35.719   9.845
 2341POPC   PO431812  29.179  36.223   9.512
 2341POPC   GL131813  29.420  35.977   9.210
 2341POPC   GL231814  29.169  36.106   9.008
 2341POPC   C1A31815  29.510  35.821   8.800
 2341POPC   D2A31816  29.185  35.949   8.498
 2341POPC   C3A31817  29.282  35.770   8.109
 2341POPC   C4A31818  29.285  36.032   7.763
 2341POPC   C1B31819  29.003  36.388   8.775
 2341POPC   C2B31820  29.141  36.522   8.404
 2341POPC   C3B31821  29.040  36.381   8.043
 2341POPC   C4B31822  29.221  36.577   7.709
 2342POPC   NC331823  15.846  36.539   9.598
 2342POPC   PO431824  15.683  37.259   9.452
 2342POPC   GL131825  15.887  37.188   9.073
 2342POPC   GL231826  16.062  36.868   9.138
 2342POPC   C1A31827  16.038  37.121   8.669
 2342POPC   D2A31828  16.198  37.015   8.274
 2342POPC   C3A31829  15.907  37.122   7.944
 2342POPC   C4A31830  15.917  37.185   7.512
 2342POPC   C1B31831  15.867  36.668   8.778
 2342POPC   C2B31832  15.740  36.753   8.353
 2342POPC   C3B31833  15.902  36.606   7.957
 2342POPC   C4B31834  15.800  36.681   7.545
 2343POPC   NC331835  13.952   7.354   9.293
 2343POPC   PO431836  14.416   7.533   9.825
 2343POPC   GL131837  14.448   7.605   9.343
 2343POPC   GL231838  14.495   7.310   9.215
 2343POPC   C1A31839  14.351   7.597   8.841
 2343POPC   D2A31840  14.441   7.436   8.414
 2343POPC   C3A31841  14.193   7.464   8.035
 2343POPC   C4A31842  14.206   7.593   7.606
 2343POPC   C1B31843  14.557   7.095   8.783
 2343POPC   C2B31844  14.695   6.976   8.390
 2343POPC   C3B31845  14.540   7.017   7.992
 2343POPC   C4B31846  14.325   7.095   7.617
 2344POPC   NC331847  34.073  17.961   9.848
 2344POPC   PO431848  34.613  18.320   9.524
 2344POPC   GL131849  34.707  18.303   9.141
 2344POPC   GL231850  34.626  18.635   9.073
 2344POPC   C1A31851  34.498  18.197   8.779
 2344POPC   D2A31852  34.654  18.241   8.405
 2344POPC   C3A31853  34.536  18.343   8.002
 2344POPC   C4A31854  34.661  18.023   7.688
 2344POPC   C1B31855  34.950  18.550   8.746
 2344POPC   C2B31856  34.980  18.616   8.287
 2344POPC   C3B31857  35.010  18.677   7.859
 2344POPC   C4B31858  34.762  18.509   7.552
 2345POPC   NC331859  41.685  12.057   9.960
 2345POPC   PO431860  41.665  12.339   9.315
 2345POPC   GL131861  41.529  12.266   8.969
 2345POPC   GL231862  41.450  11.921   8.949
 2345POPC   C1A31863  41.448  12.202   8.550
 2345POPC   D2A31864  41.687  12.083   8.257
 2345POPC   C3A31865  41.527  12.368   7.988
 2345POPC   C4A31866  41.747  12.416   7.696
 2345POPC   C1B31867  41.569  11.687   8.592
 2345POPC   C2B31868  41.393  11.661   8.200
 2345POPC   C3B31869  41.475  11.902   7.831
 2345POPC   C4B31870  41.264  11.872   7.478
 2346POPC   NC331871  42.003   3.469   9.984
 2346POPC   PO431872  42.541   3.715   9.567
 2346POPC   GL131873  42.370   3.573   9.172
 2346POPC   GL231874  42.010   3.449   9.237
 2346POPC   C1A31875  42.542   3.549   8.742
 2346POPC   D2A31876  42.401   3.724   8.343
 2346POPC   C3A31877  42.452   3.672   7.900
 2346POPC   C4A31878  42.021   3.661   7.771
 2346POPC   C1B31879  42.143   3.208   8.864
 2346POPC   C2B31880  42.323   3.162   8.467
 2346POPC   C3B31881  42.192   3.273   8.093
 2346POPC   C4B31882  42.082   3.147   7.716
 2347POPC   NC331883  15.370  25.970   9.519
 2347POPC   PO431884  15.455  26.534   9.760
 2347POPC   GL131885  15.377  26.392   9.218
 2347POPC   GL231886  15.316  26.049   9.036
 2347POPC   C1A31887  15.054  26.406   8.829
 2347POPC   D2A31888  14.790  26.263   8.459
 2347POPC   C3A31889  14.992  26.037   8.111
 2347POPC   C4A31890  15.022  26.235   7.695
 2347POPC   C1B31891  15.170  25.930   8.634
 2347POPC   C2B31892  15.409  25.690   8.363
 2347POPC   C3B31893  15.528  25.728   7.984
 2347POPC   C4B31894  15.229  25.784   7.702
 2348POPC   NC331895  30.576   9.608   9.655
 2348POPC   PO431896  30.625  10.189   9.704
 2348POPC   GL131897  30.632   9.873   9.246
 2348POPC   GL231898  30.480   9.543   9.178
 2348POPC   C1A31899  30.787   9.810   8.815
 2348POPC   D2A31900  30.734  10.042   8.435
 2348POPC   C3A31901  30.589   9.833   8.081
 2348POPC   C4A31902  30.348   9.911   7.730
 2348POPC   C1B31903  30.534   9.359   8.815
 2348POPC   C2B31904  30.454   9.468   8.423
 2348POPC   C3B31905  30.600   9.325   8.063
 2348POPC   C4B31906  30.637   9.467   7.674
 2349POPC   NC331907  37.273  24.282   9.431
 2349POPC   PO431908  36.685  24.608   9.361
 2349POPC   GL131909  37.040  24.625   9.114
 2349POPC   GL231910  37.005  24.902   8.919
 2349POPC   C1A31911  37.154  24.400   8.785
 2349POPC   D2A31912  37.153  24.590   8.409
 2349POPC   C3A31913  36.970  24.492   8.037
 2349POPC   C4A31914  37.123  24.659   7.628
 2349POPC   C1B31915  36.705  24.640   8.675
 2349POPC   C2B31916  36.479  24.402   8.371
 2349POPC   C3B31917  36.498  24.226   7.974
 2349POPC   C4B31918  36.605  24.542   7.687
 2350POPC   NC331919  10.567  40.935   9.769
 2350POPC   PO431920  10.170  40.484   9.567
 2350POPC   GL131921  10.485  40.707   9.301
 2350POPC   GL231922  10.801  40.526   9.195
 2350POPC   C1A31923  10.534  40.875   8.883
 2350POPC   D2A31924  10.619  40.808   8.440
 2350POPC   C3A31925  10.497  41.086   8.079
 2350POPC   C4A31926  10.640  41.208   7.681
 2350POPC   C1B31927  10.437  40.356   8.914
 2350POPC   C2B31928  10.260  40.330   8.495
 2350POPC   C3B31929  10.285  40.578   8.125
 2350POPC   C4B31930  10.429  40.709   7.742
 2351POPC   NC331931  20.836   1.896   9.525
 2351POPC   PO431932  20.617   2.566   9.447
 2351POPC   GL131933  20.491   2.204   9.234
 2351POPC   GL231934  20.389   1.859   9.261
 2351POPC   C1A31935  20.469   2.096   8.820
 2351POPC   D2A31936  20.798   2.068   8.539
 2351POPC   C3A31937  20.671   2.212   8.161
 2351POPC   C4A31938  20.683   1.964   7.812
 2351POPC   C1B31939  20.201   1.655   8.905
 2351POPC   C2B31940  20.424   1.666   8.502
 2351POPC   C3B31941  20.354   1.652   8.058
 2351POPC   C4B31942  20.272   1.726   7.616
 2352POPC   NC331943   3.536  11.863   9.525
 2352POPC   PO431944   3.076  12.401   9.526
 2352POPC   GL131945   3.112  12.205   9.102
 2352POPC   GL231946   3.301  11.921   9.079
 2352POPC   C1A31947   3.354  12.200   8.667
 2352POPC   D2A31948   3.257  12.077   8.230
 2352POPC   C3A31949   3.592  11.950   7.957
 2352POPC   C4A31950   3.941  12.225   7.825
 2352POPC   C1B31951   3.133  11.734   8.710
 2352POPC   C2B31952   3.054  11.596   8.302
 2352POPC   C3B31953   3.109  11.684   7.875
 2352POPC   C4B31954   3.317  11.789   7.498
 2353POPC   NC331955  12.767  41.771   9.313
 2353POPC   PO431956  13.131  41.197   9.645
 2353POPC   GL131957  13.046  41.333   9.229
 2353POPC   GL231958  12.714  41.283   9.071
 2353POPC   C1A31959  13.087  41.521   8.814
 2353POPC   D2A31960  13.283  41.520   8.424
 2353POPC   C3A31961  12.922  41.534   8.164
 2353POPC   C4A31962  12.948  41.360   7.802
 2353POPC   C1B31963  12.386  41.216   8.733
 2353POPC   C2B31964  12.279  41.218   8.280
 2353POPC   C3B31965  12.435  41.355   7.882
 2353POPC   C4B31966  12.591  41.351   7.455
 2354POPC   NC331967   4.515  16.953   9.397
 2354POPC   PO431968   5.119  16.697   9.438
 2354POPC   GL131969   5.027  16.836   9.051
 2354POPC   GL231970   4.745  16.642   9.043
 2354POPC   C1A31971   4.925  16.844   8.601
 2354POPC   D2A31972   5.189  16.888   8.294
 2354POPC   C3A31973   5.057  16.669   7.962
 2354POPC   C4A31974   5.061  16.560   7.567
 2354POPC   C1B31975   4.450  16.904   8.765
 2354POPC   C2B31976   4.503  17.095   8.385
 2354POPC   C3B31977   4.775  17.077   8.063
 2354POPC   C4B31978   4.934  17.049   7.621
 2355POPC   NC331979  11.242  11.204   9.486
 2355POPC   PO431980  11.873  11.420   9.564
 2355POPC   GL131981  11.680  11.194   9.176
 2355POPC   GL231982  11.324  11.314   9.008
 2355POPC   C1A31983  11.691  11.077   8.734
 2355POPC   D2A31984  11.726  11.274   8.322
 2355POPC   C3A31985  11.357  11.214   8.072
 2355POPC   C4A31986  11.226  11.293   7.661
 2355POPC   C1B31987  11.011  11.542   8.717
 2355POPC   C2B31988  11.057  11.610   8.285
 2355POPC   C3B31989  10.864  11.360   8.042
 2355POPC   C4B31990  10.707  11.298   7.638
 2356POPC   NC331991  21.237  30.325   9.592
 2356POPC   PO431992  21.047  31.017   9.402
 2356POPC   GL131993  21.196  30.717   9.038
 2356POPC   GL231994  21.461  30.435   9.017
 2356POPC   C1A31995  21.288  30.539   8.579
 2356POPC   D2A31996  21.631  30.435   8.285
 2356POPC   C3A31997  21.461  30.538   7.883
 2356POPC   C4A31998  21.265  30.962   7.848
 2356POPC   C1B31999  21.661  30.811   8.786
 2356POPC   C2B32000  21.554  30.980   8.396
 2356POPC   C3B32001  21.738  30.961   8.051
 2356POPC   C4B32002  21.704  30.924   7.639
 2357POPC   NC332003   7.738   4.207   9.575
 2357POPC   PO432004   7.202   4.182   9.903
 2357POPC   GL132005   7.321   4.284   9.337
 2357POPC   GL232006   7.398   3.981   9.197
 2357POPC   C1A32007   7.530   4.414   8.912
 2357POPC   D2A32008   7.308   4.465   8.493
 2357POPC   C3A32009   7.549   4.453   8.102
 2357POPC   C4A32010   7.443   4.642   7.730
 2357POPC   C1B32011   7.178   4.056   8.807
 2357POPC   C2B32012   7.031   3.881   8.450
 2357POPC   C3B32013   7.269   3.975   8.092
 2357POPC   C4B32014   7.409   4.123   7.708
 2358POPC   NC332015   5.083  28.753   9.726
 2358POPC   PO432016   5.272  29.435   9.518
 2358POPC   GL132017   4.955  29.276   9.203
 2358POPC   GL232018   4.817  29.488   8.934
 2358POPC   C1A32019   4.912  29.018   8.817
 2358POPC   D2A32020   5.119  28.984   8.421
 2358POPC   C3A32021   4.831  29.008   8.073
 2358POPC   C4A32022   4.938  28.957   7.637
 2358POPC   C1B32023   5.257  29.389   8.775
 2358POPC   C2B32024   5.376  29.463   8.339
 2358POPC   C3B32025   5.153  29.383   7.941
 2358POPC   C4B32026   5.137  29.371   7.424
 2359POPC   NC332027  29.883  11.103   9.573
 2359POPC   PO432028  29.931  11.764   9.465
 2359POPC   GL132029  29.847  11.425   9.165
 2359POPC   GL232030  29.676  11.073   9.134
 2359POPC   C1A32031  29.723  11.448   8.758
 2359POPC   D2A32032  29.993  11.502   8.415
 2359POPC   C3A32033  29.853  11.403   8.007
 2359POPC   C4A32034  30.060  11.344   7.634
 2359POPC   C1B32035  29.552  10.977   8.769
 2359POPC   C2B32036  29.608  11.101   8.351
 2359POPC   C3B32037  29.569  10.971   7.915
 2359POPC   C4B32038  29.578  11.257   7.549
 2360POPC   NC332039   0.338  24.100   9.614
 2360POPC   PO432040   0.763  24.708   9.542
 2360POPC   GL132041   0.582  24.462   9.212
 2360POPC   GL232042   0.832  24.276   9.118
 2360POPC   C1A32043   0.407  24.305   8.801
 2360POPC   D2A32044   0.173  24.222   8.386
 2360POPC   C3A32045   0.095  24.555   8.119
 2360POPC   C4A32046   0.174  24.475   7.710
 2360POPC   C1B32047   0.819  24.596   8.746
 2360POPC   C2B32048   0.563  24.592   8.348
 2360POPC   C3B32049   0.648  24.432   7.902
 2360POPC   C4B32050   0.672  24.520   7.432
 2361POPC   NC332051  38.871  41.890   9.397
 2361POPC   PO432052  38.286  42.125   9.685
 2361POPC   GL132053  38.472  42.311   9.306
 2361POPC   GL232054  38.179  42.504   9.169
 2361POPC   C1A32055  38.598  42.378   8.874
 2361POPC   D2A32056  38.365  42.451   8.494
 2361POPC   C3A32057  38.419  42.184   8.140
 2361POPC   C4A32058  38.441  42.276   7.716
 2361POPC   C1B32059  38.178  42.804   8.815
 2361POPC   C2B32060  38.020  42.850   8.367
 2361POPC   C3B32061  38.245  42.692   7.969
 2361POPC   C4B32062  38.244  42.664   7.464
 2362POPC   NC332063  12.967  27.042   9.622
 2362POPC   PO432064  12.347  26.815   9.536
 2362POPC   GL132065  12.677  26.771   9.144
 2362POPC   GL232066  13.042  26.889   9.135
 2362POPC   C1A32067  12.829  26.658   8.689
 2362POPC   D2A32068  13.140  26.860   8.408
 2362POPC   C3A32069  12.988  26.860   7.993
 2362POPC   C4A32070  12.701  26.558   7.921
 2362POPC   C1B32071  12.881  27.145   8.817
 2362POPC   C2B32072  12.846  27.265   8.416
 2362POPC   C3B32073  12.693  27.298   7.994
 2362POPC   C4B32074  12.694  27.125   7.586
 2363POPC   NC332075  32.607  18.185   9.558
 2363POPC   PO432076  32.009  18.399   9.430
 2363POPC   GL132077  32.223  18.175   9.170
 2363POPC   GL232078  32.463  18.469   9.121
 2363POPC   C1A32079  32.076  18.206   8.765
 2363POPC   D2A32080  32.163  18.442   8.425
 2363POPC   C3A32081  32.087  18.221   8.105
 2363POPC   C4A32082  32.179  18.093   7.732
 2363POPC   C1B32083  32.622  18.136   8.837
 2363POPC   C2B32084  32.804  18.113   8.431
 2363POPC   C3B32085  32.604  18.182   8.027
 2363POPC   C4B32086  32.665  18.026   7.592
 2364POPC   NC332087  32.435  23.031   9.400
 2364POPC   PO432088  32.071  22.645   9.667
 2364POPC   GL132089  32.024  22.820   9.211
 2364POPC   GL232090  32.084  23.219   9.101
 2364POPC   C1A32091  32.239  22.827   8.791
 2364POPC   D2A32092  32.199  22.622   8.398
 2364POPC   C3A32093  32.411  22.731   8.052
 2364POPC   C4A32094  32.145  22.903   7.752
 2364POPC   C1B32095  32.434  23.322   8.775
 2364POPC   C2B32096  32.424  23.140   8.354
 2364POPC   C3B32097  32.410  23.308   7.904
 2364POPC   C4B32098  32.322  23.294   7.427
 2365POPC   NC332099  28.908  27.650   9.379
 2365POPC   PO432100  29.579  27.442   9.501
 2365POPC   GL132101  29.360  27.671   9.162
 2365POPC   GL232102  29.318  27.415   8.881
 2365POPC   C1A32103  29.271  27.881   8.756
 2365POPC   D2A32104  29.369  27.601   8.380
 2365POPC   C3A32105  29.106  27.631   8.007
 2365POPC   C4A32106  29.133  27.875   7.662
 2365POPC   C1B32107  29.101  27.166   8.558
 2365POPC   C2B32108  29.023  27.131   8.102
 2365POPC   C3B32109  29.097  27.184   7.655
 2365POPC   C4B32110  29.091  27.284   7.191
 2366POPC   NC332111  15.447  24.177   9.636
 2366POPC   PO432112  15.371  24.847   9.627
 2366POPC   GL132113  15.106  24.688   9.311
 2366POPC   GL232114  15.394  24.543   9.182
 2366POPC   C1A32115  14.961  24.526   8.897
 2366POPC   D2A32116  15.081  24.313   8.494
 2366POPC   C3A32117  15.106  24.460   8.016
 2366POPC   C4A32118  15.096  24.428   7.518
 2366POPC   C1B32119  15.467  24.602   8.742
 2366POPC   C2B32120  15.532  24.491   8.317
 2366POPC   C3B32121  15.585  24.668   7.938
 2366POPC   C4B32122  15.651  24.783   7.523
 2367POPC   NC332123  39.802  31.097   9.419
 2367POPC   PO432124  40.083  30.604   9.668
 2367POPC   GL132125  40.080  30.723   9.179
 2367POPC   GL232126  40.134  31.088   9.046
 2367POPC   C1A32127  40.206  30.728   8.721
 2367POPC   D2A32128  39.971  30.692   8.365
 2367POPC   C3A32129  40.110  30.493   7.994
 2367POPC   C4A32130  39.986  30.624   7.612
 2367POPC   C1B32131  39.741  31.158   8.765
 2367POPC   C2B32132  39.612  31.078   8.337
 2367POPC   C3B32133  39.714  30.866   7.959
 2367POPC   C4B32134  39.610  31.002   7.529
 2368POPC   NC332135  33.181  30.250   9.402
 2368POPC   PO432136  32.707  29.778   9.512
 2368POPC   GL132137  32.836  29.927   9.119
 2368POPC   GL232138  33.178  29.936   8.978
 2368POPC   C1A32139  32.792  30.188   8.756
 2368POPC   D2A32140  32.503  30.246   8.425
 2368POPC   C3A32141  32.487  30.011   8.050
 2368POPC   C4A32142  32.744  30.049   7.714
 2368POPC   C1B32143  33.437  29.744   8.653
 2368POPC   C2B32144  33.507  29.985   8.257
 2368POPC   C3B32145  33.245  30.079   7.882
 2368POPC   C4B32146  33.155  30.050   7.420
 2369POPC   NC332147  40.085  42.680   9.251
 2369POPC   PO432148  40.102  42.118   9.579
 2369POPC   GL132149  39.930  42.213   9.134
 2369POPC   GL232150  39.744  42.500   8.942
 2369POPC   C1A32151  40.026  42.050   8.768
 2369POPC   D2A32152  39.886  41.891   8.424
 2369POPC   C3A32153  39.867  42.140   8.094
 2369POPC   C4A32154  39.874  42.059   7.644
 2369POPC   C1B32155  40.178  42.525   8.662
 2369POPC   C2B32156  40.461  42.448   8.338
 2369POPC   C3B32157  40.309  42.343   7.946
 2369POPC   C4B32158  39.884  42.556   7.771
 2370POPC   NC332159  30.474  36.331   9.454
 2370POPC   PO432160  30.764  36.951   9.526
 2370POPC   GL132161  30.553  36.995   9.165
 2370POPC   GL232162  30.582  36.669   9.081
 2370POPC   C1A32163  30.416  37.063   8.771
 2370POPC   D2A32164  30.595  37.071   8.384
 2370POPC   C3A32165  30.412  37.056   8.005
 2370POPC   C4A32166  30.774  36.943   7.770
 2370POPC   C1B32167  30.935  36.446   8.943
 2370POPC   C2B32168  31.069  36.477   8.541
 2370POPC   C3B32169  31.000  36.734   8.208
 2370POPC   C4B32170  31.180  36.626   7.819
 2371POPC   NC332171  41.825  37.382   9.884
 2371POPC   PO432172  41.415  36.889   9.680
 2371POPC   GL132173  41.543  36.914   9.234
 2371POPC   GL232174  41.604  37.265   9.097
 2371POPC   C1A32175  41.667  36.746   8.820
 2371POPC   D2A32176  41.611  36.959   8.445
 2371POPC   C3A32177  41.586  36.694   8.108
 2371POPC   C4A32178  41.506  36.773   7.680
 2371POPC   C1B32179  41.954  37.190   8.779
 2371POPC   C2B32180  42.095  37.062   8.335
 2371POPC   C3B32181  41.849  37.091   7.906
 2371POPC   C4B32182  41.821  37.134   7.399
 2372POPC   NC332183  37.005  37.195   9.486
 2372POPC   PO432184  36.730  36.557   9.656
 2372POPC   GL132185  36.934  36.608   9.267
 2372POPC   GL232186  36.738  36.889   9.111
 2372POPC   C1A32187  37.016  36.573   8.832
 2372POPC   D2A32188  36.996  36.839   8.441
 2372POPC   C3A32189  36.756  36.759   8.102
 2372POPC   C4A32190  36.860  36.599   7.714
 2372POPC   C1B32191  36.977  37.181   8.819
 2372POPC   C2B32192  37.095  37.356   8.416
 2372POPC   C3B32193  36.841  37.263   8.086
 2372POPC   C4B32194  36.861  37.092   7.689
 2373POPC   NC332195  10.277  27.047   9.614
 2373POPC   PO432196  10.902  26.877   9.868
 2373POPC   GL132197  10.721  26.833   9.401
 2373POPC   GL232198  10.657  27.146   9.225
 2373POPC   C1A32199  10.482  26.691   8.995
 2373POPC   D2A32200  10.568  26.775   8.519
 2373POPC   C3A32201  10.478  26.683   8.051
 2373POPC   C4A32202  10.288  26.387   7.709
 2373POPC   C1B32203  10.447  27.185   8.824
 2373POPC   C2B32204  10.560  27.273   8.402
 2373POPC   C3B32205  10.380  27.356   8.043
 2373POPC   C4B32206  10.360  27.073   7.733
 2374POPC   NC332207   8.692  24.270   9.660
 2374POPC   PO432208   8.016  24.251   9.547
 2374POPC   GL132209   8.047  24.553   9.222
 2374POPC   GL232210   7.724  24.683   9.132
 2374POPC   C1A32211   8.189  24.634   8.817
 2374POPC   D2A32212   8.348  24.333   8.515
 2374POPC   C3A32213   8.335  24.433   8.078
 2374POPC   C4A32214   8.303  24.262   7.660
 2374POPC   C1B32215   7.696  24.557   8.682
 2374POPC   C2B32216   7.964  24.670   8.347
 2374POPC   C3B32217   7.995  24.832   7.935
 2374POPC   C4B32218   7.878  24.578   7.580
 2375POPC   NC332219  32.075  16.557   9.361
 2375POPC   PO432220  32.359  17.107   9.648
 2375POPC   GL132221  32.366  16.965   9.222
 2375POPC   GL232222  32.522  16.625   9.120
 2375POPC   C1A32223  32.165  16.937   8.828
 2375POPC   D2A32224  31.875  16.660   8.619
 2375POPC   C3A32225  32.022  16.641   8.199
 2375POPC   C4A32226  31.892  16.918   7.838
 2375POPC   C1B32227  32.705  16.347   8.793
 2375POPC   C2B32228  32.790  16.338   8.351
 2375POPC   C3B32229  32.507  16.334   7.993
 2375POPC   C4B32230  32.329  16.653   7.776
 2376POPC   NC332231  20.542  16.911   9.556
 2376POPC   PO432232  20.875  16.331   9.336
 2376POPC   GL132233  20.633  16.588   9.088
 2376POPC   GL232234  20.326  16.805   9.113
 2376POPC   C1A32235  20.743  16.559   8.671
 2376POPC   D2A32236  20.801  16.708   8.282
 2376POPC   C3A32237  20.766  16.476   7.903
 2376POPC   C4A32238  20.841  16.877   7.761
 2376POPC   C1B32239  20.228  16.595   8.764
 2376POPC   C2B32240  20.298  16.713   8.404
 2376POPC   C3B32241  20.367  16.784   8.021
 2376POPC   C4B32242  20.356  16.874   7.639
 2377POPC   NC332243   0.810  44.491   9.606
 2377POPC   PO432244   1.470  44.533   9.465
 2377POPC   GL132245   1.255  44.329   9.104
 2377POPC   GL232246   0.904  44.310   9.147
 2377POPC   C1A32247   1.174  44.316   8.649
 2377POPC   D2A32248   1.464  44.317   8.288
 2377POPC   C3A32249   1.297  44.626   7.995
 2377POPC   C4A32250   1.412  44.785   7.608
 2377POPC   C1B32251   0.904  44.692   8.866
 2377POPC   C2B32252   1.096  44.829   8.461
 2377POPC   C3B32253   0.915   0.013   8.068
 2377POPC   C4B32254   0.815  44.749   7.721
 2378POPC   NC332255  29.530  29.911   9.391
 2378POPC   PO432256  28.965  29.996   9.568
 2378POPC   GL132257  29.108  30.133   9.152
 2378POPC   GL232258  29.354  30.418   9.146
 2378POPC   C1A32259  29.246  29.846   8.789
 2378POPC   D2A32260  29.470  29.554   8.471
 2378POPC   C3A32261  29.358  29.710   8.043
 2378POPC   C4A32262  29.018  29.617   7.761
 2378POPC   C1B32263  29.373  30.372   8.697
 2378POPC   C2B32264  29.115  30.158   8.411
 2378POPC   C3B32265  28.940  30.027   8.061
 2378POPC   C4B32266  29.159  30.106   7.711
 2379POPC   NC332267  15.408  27.557   9.462
 2379POPC   PO432268  14.908  27.170   9.771
 2379POPC   GL132269  14.861  27.383   9.228
 2379POPC   GL232270  14.970  27.762   9.206
 2379POPC   C1A32271  15.113  27.480   8.803
 2379POPC   D2A32272  15.049  27.759   8.437
 2379POPC   C3A32273  15.110  27.575   8.016
 2379POPC   C4A32274  15.391  27.297   7.787
 2379POPC   C1B32275  15.304  27.953   8.882
 2379POPC   C2B32276  15.584  27.978   8.487
 2379POPC   C3B32277  15.503  27.917   8.015
 2379POPC   C4B32278  15.474  27.963   7.525
 2380POPC   NC332279  38.733  16.254   9.463
 2380POPC   PO432280  39.337  16.149   9.591
 2380POPC   GL132281  39.287  16.256   9.174
 2380POPC   GL232282  39.115  15.936   9.169
 2380POPC   C1A32283  39.461  16.105   8.751
 2380POPC   D2A32284  39.411  15.698   8.493
 2380POPC   C3A32285  39.361  15.746   8.028
 2380POPC   C4A32286  39.527  16.029   7.713
 2380POPC   C1B32287  38.954  16.072   8.796
 2380POPC   C2B32288  38.982  15.988   8.371
 2380POPC   C3B32289  38.804  15.789   8.020
 2380POPC   C4B32290  39.021  15.969   7.692
 2381POPC   NC332291   1.016  31.137   9.736
 2381POPC   PO432292   1.525  31.408   9.391
 2381POPC   GL132293   1.158  31.412   9.105
 2381POPC   GL232294   0.931  31.135   9.214
 2381POPC   C1A32295   1.254  31.325   8.649
 2381POPC   D2A32296   1.320  31.495   8.238
 2381POPC   C3A32297   1.451  31.198   7.933
 2381POPC   C4A32298   1.415  30.876   7.634
 2381POPC   C1B32299   0.775  31.232   8.780
 2381POPC   C2B32300   0.871  31.247   8.319
 2381POPC   C3B32301   0.929  31.467   7.914
 2381POPC   C4B32302   1.322  31.621   7.693
 2382POPC   NC332303  24.886   4.786   9.580
 2382POPC   PO432304  25.523   5.032   9.515
 2382POPC   GL132305  25.128   5.160   9.261
 2382POPC   GL232306  24.998   4.872   9.090
 2382POPC   C1A32307  25.137   5.364   8.849
 2382POPC   D2A32308  25.412   5.397   8.514
 2382POPC   C3A32309  25.192   5.336   8.140
 2382POPC   C4A32310  25.157   5.252   7.733
 2382POPC   C1B32311  24.997   4.927   8.644
 2382POPC   C2B32312  25.054   4.847   8.249
 2382POPC   C3B32313  25.334   4.831   7.953
 2382POPC   C4B32314  25.444   4.897   7.554
 2383POPC   NC332315  24.492  40.622   9.531
 2383POPC   PO432316  24.406  41.315   9.505
 2383POPC   GL132317  24.516  41.010   9.225
 2383POPC   GL232318  24.166  40.922   9.215
 2383POPC   C1A32319  24.556  40.736   8.866
 2383POPC   D2A32320  24.572  40.922   8.467
 2383POPC   C3A32321  24.609  40.715   8.079
 2383POPC   C4A32322  24.466  40.833   7.708
 2383POPC   C1B32323  24.062  40.810   8.788
 2383POPC   C2B32324  24.160  40.622   8.395
 2383POPC   C3B32325  24.052  40.647   7.966
 2383POPC   C4B32326  24.148  40.446   7.597
 2384POPC   NC332327   7.773  10.146   9.469
 2384POPC   PO432328   7.368   9.562   9.440
 2384POPC   GL132329   7.455   9.726   9.045
 2384POPC   GL232330   7.393  10.055   9.116
 2384POPC   C1A32331   7.286   9.821   8.670
 2384POPC   D2A32332   7.502   9.848   8.301
 2384POPC   C3A32333   7.265   9.878   7.931
 2384POPC   C4A32334   7.338   9.587   7.682
 2384POPC   C1B32335   7.532  10.261   8.709
 2384POPC   C2B32336   7.602  10.378   8.294
 2384POPC   C3B32337   7.691  10.140   7.924
 2384POPC   C4B32338   7.661   9.982   7.491
 2385POPC   NC332339  15.510  13.375   9.324
 2385POPC   PO432340  14.873  13.586   9.465
 2385POPC   GL132341  14.956  13.775   9.113
 2385POPC   GL232342  15.281  13.718   9.021
 2385POPC   C1A32343  14.857  13.590   8.735
 2385POPC   D2A32344  15.052  13.691   8.389
 2385POPC   C3A32345  15.018  13.614   7.963
 2385POPC   C4A32346  15.032  13.940   7.651
 2385POPC   C1B32347  15.512  13.763   8.625
 2385POPC   C2B32348  15.488  13.563   8.203
 2385POPC   C3B32349  15.495  13.761   7.815
 2385POPC   C4B32350  15.414  13.875   7.345
 2386POPC   NC332351   1.064   1.856   9.576
 2386POPC   PO432352   1.318   2.520   9.538
 2386POPC   GL132353   1.363   2.206   9.212
 2386POPC   GL232354   1.060   2.098   9.135
 2386POPC   C1A32355   1.361   2.304   8.762
 2386POPC   D2A32356   1.267   2.374   8.333
 2386POPC   C3A32357   1.048   2.057   8.115
 2386POPC   C4A32358   1.082   2.001   7.693
 2386POPC   C1B32359   1.312   1.819   8.878
 2386POPC   C2B32360   1.248   1.694   8.441
 2386POPC   C3B32361   0.979   1.527   8.113
 2386POPC   C4B32362   1.078   1.509   7.672
 2387POPC   NC332363  27.260  25.903   9.495
 2387POPC   PO432364  27.904  25.721   9.717
 2387POPC   GL132365  27.736  25.779   9.311
 2387POPC   GL232366  27.754  26.119   9.239
 2387POPC   C1A32367  27.559  25.754   8.880
 2387POPC   D2A32368  27.701  25.886   8.459
 2387POPC   C3A32369  27.416  25.840   8.107
 2387POPC   C4A32370  27.671  25.764   7.760
 2387POPC   C1B32371  27.666  26.296   8.822
 2387POPC   C2B32372  27.846  26.376   8.388
 2387POPC   C3B32373  27.787  26.193   8.004
 2387POPC   C4B32374  27.620  26.258   7.611
 2388POPC   NC332375  10.913  28.384   9.674
 2388POPC   PO432376  11.542  28.379   9.699
 2388POPC   GL132377  11.262  28.339   9.293
 2388POPC   GL232378  10.893  28.227   9.201
 2388POPC   C1A32379  11.280  28.303   8.835
 2388POPC   D2A32380  11.590  28.123   8.536
 2388POPC   C3A32381  11.532  28.177   8.114
 2388POPC   C4A32382  11.340  28.495   7.867
 2388POPC   C1B32383  10.797  28.119   8.809
 2388POPC   C2B32384  10.938  28.278   8.430
 2388POPC   C3B32385  10.992  28.160   8.035
 2388POPC   C4B32386  11.109  28.095   7.653
 2389POPC   NC332387  17.572   9.330   9.528
 2389POPC   PO432388  17.885   8.713   9.389
 2389POPC   GL132389  17.571   8.863   9.121
 2389POPC   GL232390  17.444   9.181   9.069
 2389POPC   C1A32391  17.346   8.757   8.751
 2389POPC   D2A32392  17.217   8.965   8.425
 2389POPC   C3A32393  17.387   8.791   8.069
 2389POPC   C4A32394  17.594   8.937   7.695
 2389POPC   C1B32395  17.677   9.131   8.685
 2389POPC   C2B32396  17.819   8.913   8.322
 2389POPC   C3B32397  18.037   9.040   7.946
 2389POPC   C4B32398  18.041   9.024   7.483
 2390POPC   NC332399  18.871  19.840   9.570
 2390POPC   PO432400  19.410  20.278   9.504
 2390POPC   GL132401  19.179  20.025   9.211
 2390POPC   GL232402  19.255  19.637   9.296
 2390POPC   C1A32403  19.079  20.129   8.775
 2390POPC   D2A32404  18.963  19.976   8.360
 2390POPC   C3A32405  19.146  20.023   7.966
 2390POPC   C4A32406  19.004  19.642   7.752
 2390POPC   C1B32407  19.112  19.626   8.878
 2390POPC   C2B32408  19.397  19.711   8.534
 2390POPC   C3B32409  19.368  19.578   8.111
 2390POPC   C4B32410  19.484  19.471   7.684
 2391POPC   NC332411   2.332  39.468   9.490
 2391POPC   PO432412   2.893  39.062   9.527
 2391POPC   GL132413   2.662  39.121   9.144
 2391POPC   GL232414   2.342  39.208   9.006
 2391POPC   C1A32415   2.821  39.138   8.724
 2391POPC   D2A32416   2.623  39.089   8.338
 2391POPC   C3A32417   2.882  39.158   7.984
 2391POPC   C4A32418   2.935  38.841   7.721
 2391POPC   C1B32419   2.566  39.581   8.831
 2391POPC   C2B32420   2.747  39.597   8.398
 2391POPC   C3B32421   2.572  39.573   7.970
 2391POPC   C4B32422   2.402  39.583   7.533
 2392POPC   NC332423  14.003  18.025   9.520
 2392POPC   PO432424  13.509  18.484   9.463
 2392POPC   GL132425  13.577  18.369   9.084
 2392POPC   GL232426  13.705  18.028   9.099
 2392POPC   C1A32427  13.576  18.548   8.692
 2392POPC   D2A32428  13.687  18.387   8.317
 2392POPC   C3A32429  13.723  18.561   7.932
 2392POPC   C4A32430  13.653  18.388   7.527
 2392POPC   C1B32431  13.414  18.039   8.739
 2392POPC   C2B32432  13.309  18.070   8.300
 2392POPC   C3B32433  13.569  18.045   7.914
 2392POPC   C4B32434  13.513  17.900   7.476
 2393POPC   NC332435  25.032  42.858   9.402
 2393POPC   PO432436  25.594  42.556   9.641
 2393POPC   GL132437  25.463  42.576   9.174
 2393POPC   GL232438  25.174  42.435   8.976
 2393POPC   C1A32439  25.611  42.487   8.725
 2393POPC   D2A32440  25.445  42.199   8.392
 2393POPC   C3A32441  25.366  42.342   7.998
 2393POPC   C4A32442  25.668  42.601   7.862
 2393POPC   C1B32443  24.810  42.543   8.728
 2393POPC   C2B32444  24.806  42.745   8.330
 2393POPC   C3B32445  24.943  42.631   7.919
 2393POPC   C4B32446  24.832  42.328   7.602
 2394POPC   NC332447  38.326  34.530   9.467
 2394POPC   PO432448  38.383  35.194   9.367
 2394POPC   GL132449  38.703  34.942   9.128
 2394POPC   GL232450  38.598  34.565   9.031
 2394POPC   C1A32451  38.572  34.962   8.703
 2394POPC   D2A32452  38.287  34.708   8.448
 2394POPC   C3A32453  38.410  34.531   8.046
 2394POPC   C4A32454  38.546  34.772   7.691
 2394POPC   C1B32455  38.370  34.272   8.728
 2394POPC   C2B32456  38.101  34.239   8.363
 2394POPC   C3B32457  37.941  34.191   7.965
 2394POPC   C4B32458  38.256  34.162   7.658
 2395POPC   NC332459  17.330   4.373   9.717
 2395POPC   PO432460  17.941   4.553   9.690
 2395POPC   GL132461  17.663   4.424   9.296
 2395POPC   GL232462  17.708   4.156   9.075
 2395POPC   C1A32463  17.514   4.582   8.853
 2395POPC   D2A32464  17.618   4.838   8.480
 2395POPC   C3A32465  17.694   4.634   8.099
 2395POPC   C4A32466  17.583   4.328   7.795
 2395POPC   C1B32467  17.455   4.079   8.711
 2395POPC   C2B32468  17.453   4.166   8.273
 2395POPC   C3B32469  17.239   3.981   7.912
 2395POPC   C4B32470  17.309   3.986   7.431
 2396POPC   NC332471  14.038  41.993   9.391
 2396POPC   PO432472  13.258  42.011   9.406
 2396POPC   GL132473  13.586  42.167   9.154
 2396POPC   GL232474  13.864  42.403   9.160
 2396POPC   C1A32475  13.500  42.353   8.771
 2396POPC   D2A32476  13.273  42.452   8.406
 2396POPC   C3A32477  13.417  42.296   8.011
 2396POPC   C4A32478  13.793  42.266   7.762
 2396POPC   C1B32479  14.010  42.452   8.756
 2396POPC   C2B32480  13.810  42.442   8.353
 2396POPC   C3B32481  14.037  42.623   8.044
 2396POPC   C4B32482  14.253  42.574   7.684
 2397POPC   NC332483   0.683  10.959   9.399
 2397POPC   PO432484   0.127  11.237   9.495
 2397POPC   GL132485   0.292  11.150   9.091
 2397POPC   GL232486   0.578  11.334   9.047
 2397POPC   C1A32487   0.260  11.372   8.662
 2397POPC   D2A32488   0.443  11.592   8.293
 2397POPC   C3A32489   0.477  11.361   7.912
 2397POPC   C4A32490   0.347  10.951   7.832
 2397POPC   C1B32491   0.785  11.228   8.689
 2397POPC   C2B32492   0.681  11.066   8.286
 2397POPC   C3B32493   0.868  11.048   7.882
 2397POPC   C4B32494   0.668  11.147   7.480
 2398POPC   NC332495  17.987   7.951   9.561
 2398POPC   PO432496  18.415   7.399   9.524
 2398POPC   GL132497  18.597   7.619   9.202
 2398POPC   GL232498  18.621   7.322   9.059
 2398POPC   C1A32499  18.405   7.714   8.798
 2398POPC   D2A32500  18.028   7.567   8.545
 2398POPC   C3A32501  18.071   7.598   8.099
 2398POPC   C4A32502  18.129   7.290   7.788
 2398POPC   C1B32503  18.806   7.200   8.708
 2398POPC   C2B32504  18.733   7.164   8.301
 2398POPC   C3B32505  18.570   7.391   8.007
 2398POPC   C4B32506  18.594   7.244   7.604
 2399POPC   NC332507  36.174  37.253   9.530
 2399POPC   PO432508  35.872  36.556   9.457
 2399POPC   GL132509  35.964  36.884   9.123
 2399POPC   GL232510  36.227  37.077   9.054
 2399POPC   C1A32511  35.959  36.931   8.644
 2399POPC   D2A32512  35.727  36.846   8.263
 2399POPC   C3A32513  36.019  36.775   7.964
 2399POPC   C4A32514  36.392  36.890   7.780
 2399POPC   C1B32515  36.438  37.170   8.670
 2399POPC   C2B32516  36.353  37.129   8.238
 2399POPC   C3B32517  36.390  37.397   7.877
 2399POPC   C4B32518  36.467  37.338   7.456
 2400POPC   NC332519  14.711  40.341   9.389
 2400POPC   PO432520  14.144  39.977   9.613
 2400POPC   GL132521  14.282  40.042   9.166
 2400POPC   GL232522  14.038  40.309   9.031
 2400POPC   C1A32523  14.646  39.906   8.838
 2400POPC   D2A32524  14.731  39.546   8.543
 2400POPC   C3A32525  14.733  39.640   8.097
 2400POPC   C4A32526  14.811  39.999   7.878
 2400POPC   C1B32527  14.419  40.385   8.791
 2400POPC   C2B32528  14.592  40.191   8.412
 2400POPC   C3B32529  14.357  40.062   8.064
 2400POPC   C4B32530  14.256  40.144   7.638
 2401POPC   NC332531  41.722   4.595   9.561
 2401POPC   PO432532  41.200   4.249   9.450
 2401POPC   GL132533  41.470   4.392   9.102
 2401POPC   GL232534  41.852   4.455   9.090
 2401POPC   C1A32535  41.602   4.294   8.679
 2401POPC   D2A32536  41.641   4.017   8.337
 2401POPC   C3A32537  41.519   4.206   7.972
 2401POPC   C4A32538  41.789   4.117   7.678
 2401POPC   C1B32539  41.974   4.760   8.758
 2401POPC   C2B32540  41.883   4.831   8.322
 2401POPC   C3B32541  41.938   4.568   7.936
 2401POPC   C4B32542  41.854   4.552   7.465
 2402POPC   NC332543  32.185   2.357   9.431
 2402POPC   PO432544  31.824   1.812   9.722
 2402POPC   GL132545  32.031   1.738   9.252
 2402POPC   GL232546  32.362   1.862   9.166
 2402POPC   C1A32547  31.996   1.807   8.797
 2402POPC   D2A32548  31.922   2.229   8.597
 2402POPC   C3A32549  31.958   2.248   8.156
 2402POPC   C4A32550  32.179   1.979   7.863
 2402POPC   C1B32551  32.486   1.910   8.736
 2402POPC   C2B32552  32.421   1.803   8.303
 2402POPC   C3B32553  32.576   1.633   7.925
 2402POPC   C4B32554  32.578   1.782   7.507
 2403POPC   NC332555  42.786   1.484   9.499
 2403POPC   PO432556  42.133   1.228   9.507
 2403POPC   GL132557  42.281   1.064   9.130
 2403POPC   GL232558  42.622   1.171   9.125
 2403POPC   C1A32559  42.290   1.189   8.700
 2403POPC   D2A32560  42.051   1.114   8.359
 2403POPC   C3A32561  42.177   1.087   7.920
 2403POPC   C4A32562  41.978   0.905   7.563
 2403POPC   C1B32563  42.533   1.583   8.907
 2403POPC   C2B32564  42.647   1.683   8.494
 2403POPC   C3B32565  42.491   1.443   8.158
 2403POPC   C4B32566  42.421   1.508   7.756
 2404POPC   NC332567   0.802  19.697   9.622
 2404POPC   PO432568   1.469  19.914   9.570
 2404POPC   GL132569   1.128  19.977   9.292
 2404POPC   GL232570   1.084  19.647   9.186
 2404POPC   C1A32571   1.128  20.037   8.839
 2404POPC   D2A32572   1.409  20.127   8.481
 2404POPC   C3A32573   1.290  19.899   8.109
 2404POPC   C4A32574   1.111  20.023   7.741
 2404POPC   C1B32575   1.119  19.503   8.763
 2404POPC   C2B32576   0.955  19.611   8.358
 2404POPC   C3B32577   0.921  19.542   7.902
 2404POPC   C4B32578   0.992  19.617   7.454
 2405POPC   NC332579  33.711   4.227   9.483
 2405POPC   PO432580  34.349   4.535   9.354
 2405POPC   GL132581  33.921   4.533   9.124
 2405POPC   GL232582  33.740   4.153   8.985
 2405POPC   C1A32583  33.684   4.581   8.750
 2405POPC   D2A32584  33.667   4.283   8.414
 2405POPC   C3A32585  33.986   4.342   8.116
 2405POPC   C4A32586  33.822   4.422   7.731
 2405POPC   C1B32587  33.914   3.855   8.647
 2405POPC   C2B32588  33.809   3.722   8.239
 2405POPC   C3B32589  33.661   3.990   7.944
 2405POPC   C4B32590  33.636   3.986   7.505
 2406POPC   NC332591  25.187   0.195   9.513
 2406POPC   PO432592  25.699   0.591   9.402
 2406POPC   GL132593  25.503   0.320   9.140
 2406POPC   GL232594  25.204   0.452   9.057
 2406POPC   C1A32595  25.503   0.097   8.797
 2406POPC   D2A32596  25.338   0.319   8.455
 2406POPC   C3A32597  25.562   0.266   8.080
 2406POPC   C4A32598  25.440   0.558   7.764
 2406POPC   C1B32599  24.910   0.489   8.724
 2406POPC   C2B32600  24.783   0.273   8.393
 2406POPC   C3B32601  25.018   0.135   8.053
 2406POPC   C4B32602  24.936   0.489   7.793
 2407POPC   NC332603  20.804  13.075   9.526
 2407POPC   PO432604  20.249  12.669   9.445
 2407POPC   GL132605  20.499  12.851   9.158
 2407POPC   GL232606  20.827  12.688   9.187
 2407POPC   C1A32607  20.399  13.015   8.749
 2407POPC   D2A32608  20.307  13.213   8.324
 2407POPC   C3A32609  20.471  12.981   7.959
 2407POPC   C4A32610  20.739  12.975   7.588
 2407POPC   C1B32611  20.906  12.988   8.821
 2407POPC   C2B32612  20.814  12.990   8.350
 2407POPC   C3B32613  20.846  12.639   7.975
 2407POPC   C4B32614  20.997  12.501   7.536
 2408POPC   NC332615  43.040   8.079   9.785
 2408POPC   PO432616  43.396   8.583   9.443
 2408POPC   GL132617  43.190   8.232   9.228
 2408POPC   GL232618  42.952   7.938   9.317
 2408POPC   C1A32619  43.344   8.185   8.812
 2408POPC   D2A32620  43.143   8.196   8.425
 2408POPC   C3A32621  43.289   8.029   8.050
 2408POPC   C4A32622  43.186   8.374   7.836
 2408POPC   C1B32623  42.944   7.885   8.888
 2408POPC   C2B32624  42.748   7.888   8.491
 2408POPC   C3B32625  42.753   8.009   8.081
 2408POPC   C4B32626  42.451   7.929   7.780
 2409POPC   NC332627  40.390  40.541   9.306
 2409POPC   PO432628  39.889  41.072   9.580
 2409POPC   GL132629  40.077  40.931   9.206
 2409POPC   GL232630  39.960  40.633   9.017
 2409POPC   C1A32631  40.093  41.045   8.758
 2409POPC   D2A32632  40.279  40.989   8.343
 2409POPC   C3A32633  40.088  40.847   7.961
 2409POPC   C4A32634  39.783  40.819   7.613
 2409POPC   C1B32635  40.171  40.333   8.719
 2409POPC   C2B32636  40.111  40.432   8.327
 2409POPC   C3B32637  40.266  40.308   7.982
 2409POPC   C4B32638  40.164  40.459   7.623
 2410POPC   NC332639  14.948  43.412   9.592
 2410POPC   PO432640  15.238  42.829   9.431
 2410POPC   GL132641  15.182  43.221   9.181
 2410POPC   GL232642  14.858  43.426   9.108
 2410POPC   C1A32643  15.217  43.319   8.756
 2410POPC   D2A32644  15.481  43.381   8.417
 2410POPC   C3A32645  15.259  43.336   8.041
 2410POPC   C4A32646  15.171  43.022   7.770
 2410POPC   C1B32647  14.859  43.692   8.779
 2410POPC   C2B32648  14.956  43.595   8.390
 2410POPC   C3B32649  14.642  43.515   8.101
 2410POPC   C4B32650  14.793  43.424   7.729
 2411POPC   NC332651  11.579  26.151   9.294
 2411POPC   PO432652  11.054  25.911   9.659
 2411POPC   GL132653  11.237  25.793   9.163
 2411POPC   GL232654  11.026  25.863   8.877
 2411POPC   C1A32655  11.493  25.885   8.707
 2411POPC   D2A32656  11.367  26.011   8.270
 2411POPC   C3A32657  11.629  26.145   7.925
 2411POPC   C4A32658  11.537  25.890   7.518
 2411POPC   C1B32659  11.097  26.270   8.613
 2411POPC   C2B32660  10.857  26.419   8.293
 2411POPC   C3B32661  10.902  26.429   7.885
 2411POPC   C4B32662  11.163  26.153   7.736
 2412POPC   NC332663  21.976  16.851   9.839
 2412POPC   PO432664  22.479  16.447   9.743
 2412POPC   GL132665  22.243  16.543   9.318
 2412POPC   GL232666  22.061  16.887   9.272
 2412POPC   C1A32667  22.251  16.676   8.844
 2412POPC   D2A32668  22.349  16.994   8.513
 2412POPC   C3A32669  22.326  16.834   8.101
 2412POPC   C4A32670  22.364  16.623   7.690
 2412POPC   C1B32671  21.971  17.113   8.849
 2412POPC   C2B32672  21.885  17.305   8.436
 2412POPC   C3B32673  21.789  17.159   8.013
 2412POPC   C4B32674  22.075  17.033   7.690
 2413POPC   NC332675   3.269  32.809   9.539
 2413POPC   PO432676   3.998  32.746   9.541
 2413POPC   GL132677   3.709  33.040   9.266
 2413POPC   GL232678   3.428  32.961   9.093
 2413POPC   C1A32679   3.666  33.275   8.821
 2413POPC   D2A32680   3.502  33.071   8.444
 2413POPC   C3A32681   3.601  33.121   8.038
 2413POPC   C4A32682   3.506  32.852   7.713
 2413POPC   C1B32683   3.282  32.678   8.715
 2413POPC   C2B32684   3.264  32.509   8.318
 2413POPC   C3B32685   3.130  32.797   8.030
 2413POPC   C4B32686   2.994  32.774   7.591
 2414POPC   NC332687   6.092  42.646   9.521
 2414POPC   PO432688   5.588  42.261   9.460
 2414POPC   GL132689   5.865  42.369   9.166
 2414POPC   GL232690   5.561  42.443   8.956
 2414POPC   C1A32691   6.099  42.405   8.811
 2414POPC   D2A32692   5.816  42.492   8.497
 2414POPC   C3A32693   5.861  42.294   8.124
 2414POPC   C4A32694   5.961  42.459   7.728
 2414POPC   C1B32695   5.731  42.028   8.800
 2414POPC   C2B32696   5.763  41.826   8.400
 2414POPC   C3B32697   5.518  41.906   8.031
 2414POPC   C4B32698   5.470  42.250   7.709
 2415POPC   NC332699  16.813  29.591   9.433
 2415POPC   PO432700  16.840  28.962   9.627
 2415POPC   GL132701  16.729  29.116   9.206
 2415POPC   GL232702  17.086  29.091   9.146
 2415POPC   C1A32703  16.479  29.268   8.819
 2415POPC   D2A32704  16.312  29.355   8.389
 2415POPC   C3A32705  16.521  29.317   7.990
 2415POPC   C4A32706  16.785  29.064   7.719
 2415POPC   C1B32707  16.981  29.401   8.811
 2415POPC   C2B32708  16.853  29.389   8.384
 2415POPC   C3B32709  17.023  29.449   7.962
 2415POPC   C4B32710  17.098  29.430   7.513
 2416POPC   NC332711  26.708  20.414   9.644
 2416POPC   PO432712  27.174  19.906   9.482
 2416POPC   GL132713  27.124  19.818   9.074
 2416POPC   GL232714  26.766  19.880   9.113
 2416POPC   C1A32715  26.960  19.717   8.661
 2416POPC   D2A32716  26.864  19.890   8.289
 2416POPC   C3A32717  27.099  19.605   8.042
 2416POPC   C4A32718  27.071  19.656   7.653
 2416POPC   C1B32719  26.511  19.973   8.748
 2416POPC   C2B32720  26.336  19.985   8.339
 2416POPC   C3B32721  26.458  19.902   7.913
 2416POPC   C4B32722  26.212  19.810   7.570
 2417POPC   NC332723  42.190   2.454   9.471
 2417POPC   PO432724  42.486   1.839   9.630
 2417POPC   GL132725  42.357   1.944   9.254
 2417POPC   GL232726  42.129   1.678   9.218
 2417POPC   C1A32727  42.444   2.109   8.851
 2417POPC   D2A32728  42.229   2.158   8.466
 2417POPC   C3A32729  42.370   1.944   8.098
 2417POPC   C4A32730  42.482   2.048   7.675
 2417POPC   C1B32731  42.018   1.811   8.831
 2417POPC   C2B32732  42.133   1.624   8.474
 2417POPC   C3B32733  42.001   1.571   8.071
 2417POPC   C4B32734  42.022   1.831   7.717
 2418POPC   NC332735  16.478  44.695   9.452
 2418POPC   PO432736  15.856  44.510   9.474
 2418POPC   GL132737  15.915  44.500   9.092
 2418POPC   GL232738  16.262  44.398   9.028
 2418POPC   C1A32739  15.926  44.675   8.687
 2418POPC   D2A32740  16.068  44.464   8.325
 2418POPC   C3A32741  16.291  44.646   8.019
 2418POPC   C4A32742  15.977  44.801   7.789
 2418POPC   C1B32743  15.971  44.163   8.735
 2418POPC   C2B32744  15.730  44.089   8.423
 2418POPC   C3B32745  15.839  44.093   8.028
 2418POPC   C4B32746  15.764  44.344   7.671
 2419POPC   NC332747  25.831  14.199   9.481
 2419POPC   PO432748  26.323  14.685   9.500
 2419POPC   GL132749  26.179  14.434   9.189
 2419POPC   GL232750  25.861  14.589   9.171
 2419POPC   C1A32751  26.076  14.203   8.825
 2419POPC   D2A32752  26.285  14.118   8.450
 2419POPC   C3A32753  26.079  14.264   8.070
 2419POPC   C4A32754  26.129  14.413   7.657
 2419POPC   C1B32755  25.666  14.502   8.847
 2419POPC   C2B32756  25.801  14.460   8.445
 2419POPC   C3B32757  25.573  14.393   8.050
 2419POPC   C4B32758  25.667  14.652   7.715
 2420POPC   NC332759   6.302  44.767   9.865
 2420POPC   PO432760   6.895  44.606   9.526
 2420POPC   GL132761   6.585  44.692   9.218
 2420POPC   GL232762   6.651  44.366   9.039
 2420POPC   C1A32763   6.396  44.741   8.810
 2420POPC   D2A32764   6.572  44.607   8.426
 2420POPC   C3A32765   6.479  44.856   8.088
 2420POPC   C4A32766   6.674  44.836   7.708
 2420POPC   C1B32767   6.950  44.328   8.690
 2420POPC   C2B32768   7.012  44.369   8.276
 2420POPC   C3B32769   6.732  44.365   7.948
 2420POPC   C4B32770   6.359  44.420   7.730
 2421POPC   NC332771  12.321  17.196   9.531
 2421POPC   PO432772  12.135  17.780   9.399
 2421POPC   GL132773  12.139  17.411   9.103
 2421POPC   GL232774  11.981  17.095   9.167
 2421POPC   C1A32775  12.295  17.206   8.735
 2421POPC   D2A32776  12.266  17.460   8.366
 2421POPC   C3A32777  12.314  17.532   7.926
 2421POPC   C4A32778  12.054  17.849   7.717
 2421POPC   C1B32779  11.766  17.111   8.783
 2421POPC   C2B32780  11.921  17.017   8.387
 2421POPC   C3B32781  11.953  17.186   8.029
 2421POPC   C4B32782  11.881  17.371   7.671
 2422POPC   NC332783  24.856  16.460   9.461
 2422POPC   PO432784  25.188  17.121   9.352
 2422POPC   GL132785  25.313  16.937   9.000
 2422POPC   GL232786  25.271  16.612   9.167
 2422POPC   C1A32787  25.142  16.961   8.587
 2422POPC   D2A32788  24.851  16.938   8.244
 2422POPC   C3A32789  25.116  16.695   7.973
 2422POPC   C4A32790  25.561  16.859   7.892
 2422POPC   C1B32791  25.247  16.467   8.760
 2422POPC   C2B32792  25.480  16.597   8.398
 2422POPC   C3B32793  25.639  16.383   8.058
 2422POPC   C4B32794  25.404  16.394   7.681
 2423POPC   NC332795   3.046  41.186   9.367
 2423POPC   PO432796   2.593  41.746   9.452
 2423POPC   GL132797   2.705  41.509   9.099
 2423POPC   GL232798   2.423  41.675   8.925
 2423POPC   C1A32799   2.951  41.473   8.718
 2423POPC   D2A32800   2.995  41.766   8.414
 2423POPC   C3A32801   2.814  41.673   8.063
 2423POPC   C4A32802   2.777  41.521   7.676
 2423POPC   C1B32803   2.470  41.284   8.692
 2423POPC   C2B32804   2.686  41.228   8.308
 2423POPC   C3B32805   2.568  41.115   7.893
 2423POPC   C4B32806   2.125  41.201   7.687
 2424POPC   NC332807  17.956  25.848   9.497
 2424POPC   PO432808  18.541  26.221   9.496
 2424POPC   GL132809  18.383  25.926   9.213
 2424POPC   GL232810  18.101  26.162   9.110
 2424POPC   C1A32811  18.472  25.979   8.807
 2424POPC   D2A32812  18.428  26.274   8.528
 2424POPC   C3A32813  18.272  26.103   8.175
 2424POPC   C4A32814  18.414  26.091   7.755
 2424POPC   C1B32815  17.968  26.038   8.689
 2424POPC   C2B32816  17.831  25.842   8.307
 2424POPC   C3B32817  17.869  25.930   7.904
 2424POPC   C4B32818  17.964  26.353   7.848
 2425POPC   NC332819  37.720  31.988   9.666
 2425POPC   PO432820  37.949  31.296   9.514
 2425POPC   GL132821  37.574  31.445   9.284
 2425POPC   GL232822  37.735  31.750   9.212
 2425POPC   C1A32823  37.484  31.461   8.823
 2425POPC   D2A32824  37.654  31.205   8.493
 2425POPC   C3A32825  37.545  31.250   8.101
 2425POPC   C4A32826  37.694  31.229   7.734
 2425POPC   C1B32827  37.909  31.876   8.824
 2425POPC   C2B32828  37.936  31.635   8.470
 2425POPC   C3B32829  37.753  31.729   8.083
 2425POPC   C4B32830  37.872  31.683   7.698
 2426POPC   NC332831  27.425  26.885   9.404
 2426POPC   PO432832  27.942  26.559   9.443
 2426POPC   GL132833  27.853  26.816   9.091
 2426POPC   GL232834  27.978  27.155   9.075
 2426POPC   C1A32835  27.742  26.798   8.662
 2426POPC   D2A32836  27.465  26.732   8.327
 2426POPC   C3A32837  27.689  26.691   7.956
 2426POPC   C4A32838  27.417  26.717   7.636
 2426POPC   C1B32839  27.758  27.310   8.698
 2426POPC   C2B32840  27.717  27.176   8.249
 2426POPC   C3B32841  27.496  27.173   7.839
 2426POPC   C4B32842  27.663  27.108   7.397
 2427POPC   NC332843   8.940  15.789   9.507
 2427POPC   PO432844   8.621  16.386   9.580
 2427POPC   GL132845   8.757  16.173   9.217
 2427POPC   GL232846   9.115  16.225   9.217
 2427POPC   C1A32847   8.860  16.079   8.791
 2427POPC   D2A32848   8.813  16.239   8.383
 2427POPC   C3A32849   8.675  15.929   8.091
 2427POPC   C4A32850   8.516  15.801   7.698
 2427POPC   C1B32851   9.370  16.111   8.860
 2427POPC   C2B32852   9.321  16.065   8.430
 2427POPC   C3B32853   9.330  15.983   7.979
 2427POPC   C4B32854   9.091  15.637   7.777
 2428POPC   NC332855  38.244  34.001   9.708
 2428POPC   PO432856  38.787  33.539   9.657
 2428POPC   GL132857  38.499  33.719   9.299
 2428POPC   GL232858  38.582  34.047   9.181
 2428POPC   C1A32859  38.362  33.703   8.830
 2428POPC   D2A32860  38.452  33.844   8.403
 2428POPC   C3A32861  38.288  33.780   7.993
 2428POPC   C4A32862  38.336  33.561   7.594
 2428POPC   C1B32863  38.861  34.142   8.823
 2428POPC   C2B32864  38.785  34.243   8.378
 2428POPC   C3B32865  38.693  34.107   7.950
 2428POPC   C4B32866  38.731  34.317   7.525
 2429POPC   NC332867  13.978  14.343   9.524
 2429POPC   PO432868  14.627  14.558   9.459
 2429POPC   GL132869  14.389  14.486   9.090
 2429POPC   GL232870  14.107  14.288   9.047
 2429POPC   C1A32871  14.339  14.594   8.679
 2429POPC   D2A32872  14.594  14.431   8.389
 2429POPC   C3A32873  14.495  14.491   7.965
 2429POPC   C4A32874  14.773  14.383   7.661
 2429POPC   C1B32875  14.173  14.096   8.661
 2429POPC   C2B32876  14.203  14.126   8.211
 2429POPC   C3B32877  13.976  14.394   7.976
 2429POPC   C4B32878  14.022  14.559   7.579
 2430POPC   NC332879  22.390  28.581   9.465
 2430POPC   PO432880  21.838  28.227   9.492
 2430POPC   GL132881  21.929  28.476   9.168
 2430POPC   GL232882  22.245  28.400   9.030
 2430POPC   C1A32883  21.892  28.677   8.788
 2430POPC   D2A32884  21.904  28.889   8.415
 2430POPC   C3A32885  21.942  28.664   8.033
 2430POPC   C4A32886  22.263  28.605   7.721
 2430POPC   C1B32887  22.458  28.152   8.752
 2430POPC   C2B32888  22.501  28.237   8.317
 2430POPC   C3B32889  22.368  28.132   7.893
 2430POPC   C4B32890  21.933  28.227   7.745
 2431POPC   NC332891  28.124  35.230   9.385
 2431POPC   PO432892  28.802  35.400   9.489
 2431POPC   GL132893  28.564  35.584   9.139
 2431POPC   GL232894  28.272  35.749   9.237
 2431POPC   C1A32895  28.429  35.467   8.725
 2431POPC   D2A32896  28.352  35.069   8.500
 2431POPC   C3A32897  28.378  35.115   8.062
 2431POPC   C4A32898  28.062  35.140   7.750
 2431POPC   C1B32899  28.070  35.842   8.827
 2431POPC   C2B32900  28.219  35.808   8.381
 2431POPC   C3B32901  28.382  35.641   7.968
 2431POPC   C4B32902  28.247  35.702   7.536
 2432POPC   NC332903   6.278   0.223   9.369
 2432POPC   PO432904   6.912   0.343   9.533
 2432POPC   GL132905   6.734   0.487   9.144
 2432POPC   GL232906   6.527   0.223   8.936
 2432POPC   C1A32907   6.845   0.530   8.700
 2432POPC   D2A32908   6.682   0.252   8.395
 2432POPC   C3A32909   6.822   0.280   7.975
 2432POPC   C4A32910   6.708   0.663   7.755
 2432POPC   C1B32911   6.365   0.657   8.827
 2432POPC   C2B32912   6.489   0.822   8.437
 2432POPC   C3B32913   6.361   0.563   8.104
 2432POPC   C4B32914   6.359   0.268   7.748
 2433POPC   NC332915  24.355   0.300   9.492
 2433POPC   PO432916  23.781   0.554   9.485
 2433POPC   GL132917  23.667   0.352   9.161
 2433POPC   GL232918  23.978   0.154   9.139
 2433POPC   C1A32919  23.654   0.503   8.798
 2433POPC   D2A32920  23.825   0.434   8.454
 2433POPC   C3A32921  23.681   0.676   8.142
 2433POPC   C4A32922  24.015   0.525   7.887
 2433POPC   C1B32923  23.738   0.010   8.788
 2433POPC   C2B32924  23.526   0.000   8.430
 2433POPC   C3B32925  23.794   0.063   8.102
 2433POPC   C4B32926  23.845  44.844   7.788
 2434POPC   NC332927  10.146   8.939   9.307
 2434POPC   PO432928  10.803   9.044   9.539
 2434POPC   GL132929  10.602   9.083   9.131
 2434POPC   GL232930  10.522   8.742   9.035
 2434POPC   C1A32931  10.348   9.092   8.718
 2434POPC   D2A32932  10.230   8.971   8.290
 2434POPC   C3A32933  10.529   9.125   7.966
 2434POPC   C4A32934  10.567   9.171   7.527
 2434POPC   C1B32935  10.284   8.563   8.682
 2434POPC   C2B32936  10.208   8.441   8.236
 2434POPC   C3B32937  10.380   8.649   7.857
 2434POPC   C4B32938  10.661   8.672   7.492
 2435POPC   NC332939  42.054  40.535   9.641
 2435POPC   PO432940  42.256  41.175   9.613
 2435POPC   GL132941  42.426  41.007   9.227
 2435POPC   GL232942  42.249  40.662   9.194
 2435POPC   C1A32943  42.524  40.805   8.813
 2435POPC   D2A32944  42.347  40.587   8.481
 2435POPC   C3A32945  42.402  40.819   8.097
 2435POPC   C4A32946  42.329  40.959   7.663
 2435POPC   C1B32947  42.038  40.367   8.904
 2435POPC   C2B32948  41.876  40.361   8.513
 2435POPC   C3B32949  42.088  40.350   8.109
 2435POPC   C4B32950  42.014  40.556   7.773
 2436POPC   NC332951  25.536  42.210   9.928
 2436POPC   PO432952  26.111  42.201   9.645
 2436POPC   GL132953  26.197  42.192   9.195
 2436POPC   GL232954  25.870  42.253   9.119
 2436POPC   C1A32955  26.244  42.389   8.778
 2436POPC   D2A32956  25.993  42.398   8.387
 2436POPC   C3A32957  26.257  42.414   8.030
 2436POPC   C4A32958  26.127  42.553   7.661
 2436POPC   C1B32959  25.750  41.981   8.765
 2436POPC   C2B32960  25.848  41.891   8.340
 2436POPC   C3B32961  25.864  42.105   7.955
 2436POPC   C4B32962  25.684  42.129   7.557
 2437POPC   NC332963   2.476  42.972   9.643
 2437POPC   PO432964   3.143  43.082   9.716
 2437POPC   GL132965   2.893  43.101   9.302
 2437POPC   GL232966   2.621  43.042   9.164
 2437POPC   C1A32967   2.942  43.021   8.794
 2437POPC   D2A32968   2.695  42.945   8.435
 2437POPC   C3A32969   2.753  43.103   8.026
 2437POPC   C4A32970   2.854  43.166   7.577
 2437POPC   C1B32971   2.469  42.744   8.854
 2437POPC   C2B32972   2.273  42.667   8.427
 2437POPC   C3B32973   2.344  42.778   7.991
 2437POPC   C4B32974   2.351  43.174   7.735
 2438POPC   NC332975  25.452  10.945   9.510
 2438POPC   PO432976  25.068  10.337   9.504
 2438POPC   GL132977  25.175  10.473   9.113
 2438POPC   GL232978  25.171  10.810   9.075
 2438POPC   C1A32979  25.194  10.413   8.666
 2438POPC   D2A32980  25.219  10.609   8.258
 2438POPC   C3A32981  24.938  10.428   7.917
 2438POPC   C4A32982  24.961  10.048   7.680
 2438POPC   C1B32983  25.553  10.783   8.791
 2438POPC   C2B32984  25.730  10.690   8.362
 2438POPC   C3B32985  25.648  10.891   7.978
 2438POPC   C4B32986  25.357  10.648   7.766
 2439POPC   NC332987  13.067  14.361   9.800
 2439POPC   PO432988  12.616  14.694   9.457
 2439POPC   GL132989  12.967  14.667   9.216
 2439POPC   GL232990  13.088  14.346   9.259
 2439POPC   C1A32991  12.973  14.634   8.797
 2439POPC   D2A32992  13.016  14.426   8.432
 2439POPC   C3A32993  12.806  14.638   8.094
 2439POPC   C4A32994  12.902  14.514   7.669
 2439POPC   C1B32995  12.869  14.129   8.885
 2439POPC   C2B32996  12.869  13.940   8.456
 2439POPC   C3B32997  12.831  14.125   8.050
 2439POPC   C4B32998  12.632  14.070   7.697
 2440POPC   NC332999   1.411  16.621   9.500
 2440POPC   PO433000   0.823  16.769   9.713
 2440POPC   GL133001   1.001  16.811   9.270
 2440POPC   GL233002   1.204  17.061   9.256
 2440POPC   C1A33003   1.313  16.727   8.868
 2440POPC   D2A33004   1.540  16.795   8.485
 2440POPC   C3A33005   1.443  16.614   8.072
 2440POPC   C4A33006   1.350  16.719   7.614
 2440POPC   C1B33007   0.945  17.083   8.848
 2440POPC   C2B33008   1.055  16.949   8.433
 2440POPC   C3B33009   1.291  17.091   8.064
 2440POPC   C4B33010   0.983  17.070   7.741
 2441POPC   NC333011  38.515  18.044   9.364
 2441POPC   PO433012  38.448  17.354   9.492
 2441POPC   GL133013  38.702  17.609   9.144
 2441POPC   GL233014  38.548  17.893   8.887
 2441POPC   C1A33015  38.898  17.507   8.748
 2441POPC   D2A33016  38.744  17.754   8.391
 2441POPC   C3A33017  38.534  17.512   8.063
 2441POPC   C4A33018  38.767  17.398   7.711
 2441POPC   C1B33019  38.377  17.505   8.737
 2441POPC   C2B33020  38.113  17.347   8.418
 2441POPC   C3B33021  38.008  17.387   7.993
 2441POPC   C4B33022  38.185  17.686   7.693
 2442POPC   NC333023  36.925  22.534   9.587
 2442POPC   PO433024  36.485  23.075   9.582
 2442POPC   GL133025  36.655  23.129   9.171
 2442POPC   GL233026  36.871  22.878   9.216
 2442POPC   C1A33027  36.674  22.867   8.756
 2442POPC   D2A33028  36.756  22.641   8.357
 2442POPC   C3A33029  36.623  22.860   7.994
 2442POPC   C4A33030  36.780  22.899   7.584
 2442POPC   C1B33031  37.158  22.979   8.883
 2442POPC   C2B33032  37.259  23.106   8.460
 2442POPC   C3B33033  37.155  22.916   8.049
 2442POPC   C4B33034  37.026  22.509   7.897
 2443POPC   NC333035  16.975  37.167   9.445
 2443POPC   PO433036  16.414  36.720   9.483
 2443POPC   GL133037  16.594  36.964   9.150
 2443POPC   GL233038  16.909  36.762   9.118
 2443POPC   C1A33039  16.543  37.034   8.694
 2443POPC   D2A33040  16.769  36.912   8.295
 2443POPC   C3A33041  16.490  36.739   7.958
 2443POPC   C4A33042  16.380  37.095   7.736
 2443POPC   C1B33043  17.041  37.030   8.796
 2443POPC   C2B33044  17.254  37.185   8.445
 2443POPC   C3B33045  17.198  37.095   8.017
 2443POPC   C4B33046  16.954  36.841   7.754
 2444POPC   NC333047  15.238  19.516   9.638
 2444POPC   PO433048  15.199  18.827   9.615
 2444POPC   GL133049  15.376  18.929   9.247
 2444POPC   GL233050  15.374  19.257   9.213
 2444POPC   C1A33051  15.176  18.895   8.837
 2444POPC   D2A33052  15.018  19.111   8.480
 2444POPC   C3A33053  15.158  18.977   8.080
 2444POPC   C4A33054  15.082  19.278   7.748
 2444POPC   C1B33055  15.304  19.402   8.808
 2444POPC   C2B33056  15.491  19.335   8.413
 2444POPC   C3B33057  15.542  19.357   7.975
 2444POPC   C4B33058  15.509  18.997   7.695
 2445POPC   NC333059  27.357   0.261   9.570
 2445POPC   PO433060  27.837   0.774   9.658
 2445POPC   GL133061  27.688   0.545   9.236
 2445POPC   GL233062  27.980   0.574   9.016
 2445POPC   C1A33063  27.619   0.272   8.821
 2445POPC   D2A33064  27.466   0.397   8.402
 2445POPC   C3A33065  27.521   0.256   7.986
 2445POPC   C4A33066  27.273   0.401   7.654
 2445POPC   C1B33067  27.636   0.775   8.747
 2445POPC   C2B33068  27.390   0.930   8.425
 2445POPC   C3B33069  27.356   0.760   8.033
 2445POPC   C4B33070  27.658   0.746   7.699
 2446POPC   NC333071   4.480  29.456   9.351
 2446POPC   PO433072   4.740  28.845   9.427
 2446POPC   GL133073   4.470  29.014   9.088
 2446POPC   GL233074   4.115  29.130   9.161
 2446POPC   C1A33075   4.434  29.215   8.704
 2446POPC   D2A33076   4.377  29.056   8.302
 2446POPC   C3A33077   4.425  29.356   7.994
 2446POPC   C4A33078   4.700  29.390   7.711
 2446POPC   C1B33079   3.994  28.926   8.775
 2446POPC   C2B33080   3.857  29.049   8.361
 2446POPC   C3B33081   3.995  28.974   7.941
 2446POPC   C4B33082   3.918  28.958   7.507
 2447POPC   NC333083  32.402  22.346   9.562
 2447POPC   PO433084  32.266  21.704   9.392
 2447POPC   GL133085  32.432  22.023   9.105
 2447POPC   GL233086  32.383  22.403   9.063
 2447POPC   C1A33087  32.552  21.974   8.670
 2447POPC   D2A33088  32.557  22.246   8.306
 2447POPC   C3A33089  32.415  22.046   7.937
 2447POPC   C4A33090  32.349  21.652   7.690
 2447POPC   C1B33091  32.121  22.234   8.725
 2447POPC   C2B33092  32.031  22.149   8.274
 2447POPC   C3B33093  31.982  22.395   7.891
 2447POPC   C4B33094  31.882  22.527   7.452
 2448POPC   NC333095  23.188   5.361   9.504
 2448POPC   PO433096  23.193   5.981   9.518
 2448POPC   GL133097  23.047   5.891   9.134
 2448POPC   GL233098  23.309   5.669   9.087
 2448POPC   C1A33099  22.807   5.855   8.747
 2448POPC   D2A33100  22.633   5.551   8.428
 2448POPC   C3A33101  22.715   5.702   7.988
 2448POPC   C4A33102  22.821   5.872   7.558
 2448POPC   C1B33103  23.356   5.973   8.728
 2448POPC   C2B33104  23.100   6.089   8.359
 2448POPC   C3B33105  23.112   6.079   7.912
 2448POPC   C4B33106  23.327   5.848   7.552
 2449POPC   NC333107   7.727  41.080   9.473
 2449POPC   PO433108   8.263  40.777   9.754
 2449POPC   GL133109   8.243  40.836   9.274
 2449POPC   GL233110   8.017  41.036   9.045
 2449POPC   C1A33111   8.499  40.874   8.881
 2449POPC   D2A33112   8.552  40.821   8.398
 2449POPC   C3A33113   8.295  40.916   7.979
 2449POPC   C4A33114   8.337  40.636   7.560
 2449POPC   C1B33115   8.050  40.725   8.702
 2449POPC   C2B33116   7.922  40.733   8.286
 2449POPC   C3B33117   7.971  40.547   7.888
 2449POPC   C4B33118   7.899  40.862   7.502
 2450POPC   NC333119  17.991  28.521   9.416
 2450POPC   PO433120  17.298  28.317   9.512
 2450POPC   GL133121  17.527  28.379   9.179
 2450POPC   GL233122  17.249  28.589   9.018
 2450POPC   C1A33123  17.635  28.338   8.779
 2450POPC   D2A33124  17.387  28.608   8.491
 2450POPC   C3A33125  17.328  28.397   8.120
 2450POPC   C4A33126  17.552  28.413   7.797
 2450POPC   C1B33127  17.135  28.256   8.756
 2450POPC   C2B33128  17.395  27.990   8.494
 2450POPC   C3B33129  17.409  27.873   8.072
 2450POPC   C4B33130  17.227  28.030   7.710
 2451POPC   NC333131  18.066  35.389   9.660
 2451POPC   PO433132  18.727  35.610   9.477
 2451POPC   GL133133  18.357  35.429   9.220
 2451POPC   GL233134  18.064  35.639   9.183
 2451POPC   C1A33135  18.126  35.371   8.771
 2451POPC   D2A33136  18.122  35.543   8.323
 2451POPC   C3A33137  18.147  35.236   7.925
 2451POPC   C4A33138  17.967  35.011   7.517
 2451POPC   C1B33139  18.435  35.771   8.844
 2451POPC   C2B33140  18.525  35.861   8.404
 2451POPC   C3B33141  18.556  35.606   8.006
 2451POPC   C4B33142  18.663  35.187   7.880
 2452POPC   NC333143  39.987  21.818   9.700
 2452POPC   PO433144  39.668  22.412   9.523
 2452POPC   GL133145  39.946  22.222   9.283
 2452POPC   GL233146  39.736  21.988   9.107
 2452POPC   C1A33147  40.091  22.307   8.879
 2452POPC   D2A33148  39.933  22.051   8.507
 2452POPC   C3A33149  40.113  22.038   8.114
 2452POPC   C4A33150  40.204  22.348   7.824
 2452POPC   C1B33151  39.604  22.304   8.802
 2452POPC   C2B33152  39.512  22.450   8.391
 2452POPC   C3B33153  39.707  22.339   8.021
 2452POPC   C4B33154  39.766  22.484   7.605
 2453POPC   NC333155  13.412  14.873   9.403
 2453POPC   PO433156  13.516  14.318   9.676
 2453POPC   GL133157  13.589  14.260   9.211
 2453POPC   GL233158  13.684  14.572   9.082
 2453POPC   C1A33159  13.366  14.280   8.815
 2453POPC   D2A33160  13.477  14.161   8.422
 2453POPC   C3A33161  13.408  14.365   8.005
 2453POPC   C4A33162  13.636  14.218   7.615
 2453POPC   C1B33163  13.828  14.495   8.659
 2453POPC   C2B33164  13.692  14.697   8.285
 2453POPC   C3B33165  13.704  14.813   7.867
 2453POPC   C4B33166  13.538  14.714   7.476
 2454POPC   NC333167  17.405  20.959   9.250
 2454POPC   PO433168  17.792  20.440   9.548
 2454POPC   GL133169  17.676  20.421   9.117
 2454POPC   GL233170  17.309  20.430   9.063
 2454POPC   C1A33171  17.728  20.676   8.745
 2454POPC   D2A33172  17.555  20.742   8.336
 2454POPC   C3A33173  17.746  20.640   7.924
 2454POPC   C4A33174  17.672  20.884   7.548
 2454POPC   C1B33175  17.416  20.299   8.637
 2454POPC   C2B33176  17.143  20.469   8.320
 2454POPC   C3B33177  17.234  20.636   7.950
 2454POPC   C4B33178  17.361  20.459   7.568
 2455POPC   NC333179   7.904  24.910   9.570
 2455POPC   PO433180   8.420  25.329   9.468
 2455POPC   GL133181   8.091  25.410   9.216
 2455POPC   GL233182   8.084  25.076   9.115
 2455POPC   C1A33183   8.072  25.479   8.777
 2455POPC   D2A33184   8.082  25.181   8.425
 2455POPC   C3A33185   8.200  25.377   8.040
 2455POPC   C4A33186   8.109  25.536   7.646
 2455POPC   C1B33187   8.428  25.083   8.824
 2455POPC   C2B33188   8.484  24.844   8.450
 2455POPC   C3B33189   8.491  24.925   8.055
 2455POPC   C4B33190   8.433  25.095   7.678
 2456POPC   NC333191   0.025  18.039   9.658
 2456POPC   PO433192  44.472  18.447   9.499
 2456POPC   GL133193  44.530  18.241   9.143
 2456POPC   GL233194  44.713  17.965   9.243
 2456POPC   C1A33195  44.613  18.204   8.723
 2456POPC   D2A33196  44.538  18.330   8.311
 2456POPC   C3A33197  44.815  18.422   7.982
 2456POPC   C4A33198  44.608  18.297   7.572
 2456POPC   C1B33199   0.019  17.953   8.907
 2456POPC   C2B33200  44.977  17.917   8.440
 2456POPC   C3B33201  44.766  17.908   7.994
 2456POPC   C4B33202  44.655  17.804   7.541
 2457POPC   NC333203  18.747  22.277   9.698
 2457POPC   PO433204  19.261  22.555   9.344
 2457POPC   GL133205  18.963  22.347   9.143
 2457POPC   GL233206  18.892  22.029   9.266
 2457POPC   C1A33207  18.998  22.397   8.711
 2457POPC   D2A33208  19.292  22.399   8.382
 2457POPC   C3A33209  19.115  22.449   8.000
 2457POPC   C4A33210  19.213  22.175   7.689
 2457POPC   C1B33211  18.856  21.938   8.841
 2457POPC   C2B33212  19.051  21.960   8.427
 2457POPC   C3B33213  18.892  21.937   8.030
 2457POPC   C4B33214  18.768  21.928   7.623
 2458POPC   NC333215  17.180  22.798   9.881
 2458POPC   PO433216  17.824  22.915   9.642
 2458POPC   GL133217  17.590  22.910   9.279
 2458POPC   GL233218  17.286  23.090   9.353
 2458POPC   C1A33219  17.645  22.734   8.857
 2458POPC   D2A33220  17.629  22.938   8.464
 2458POPC   C3A33221  17.733  22.755   8.065
 2458POPC   C4A33222  17.684  22.850   7.617
 2458POPC   C1B33223  17.211  23.012   8.886
 2458POPC   C2B33224  17.126  23.024   8.413
 2458POPC   C3B33225  17.333  23.063   7.995
 2458POPC   C4B33226  17.212  23.177   7.571
 2459POPC   NC333227  12.269  19.426   9.419
 2459POPC   PO433228  11.772  19.159   9.695
 2459POPC   GL133229  11.883  19.089   9.268
 2459POPC   GL233230  12.152  18.863   9.262
 2459POPC   C1A33231  12.086  19.178   8.842
 2459POPC   D2A33232  12.176  18.949   8.452
 2459POPC   C3A33233  12.265  19.144   8.081
 2459POPC   C4A33234  12.151  19.333   7.699
 2459POPC   C1B33235  12.074  18.656   8.848
 2459POPC   C2B33236  12.279  18.438   8.473
 2459POPC   C3B33237  12.362  18.624   8.071
 2459POPC   C4B33238  12.409  18.853   7.670
 2460POPC   NC333239  21.156  38.069   9.522
 2460POPC   PO433240  21.504  38.683   9.400
 2460POPC   GL133241  21.298  38.398   9.137
 2460POPC   GL233242  21.512  38.063   9.157
 2460POPC   C1A33243  21.272  38.646   8.756
 2460POPC   D2A33244  21.598  38.668   8.442
 2460POPC   C3A33245  21.426  38.779   8.056
 2460POPC   C4A33246  21.567  38.785   7.630
 2460POPC   C1B33247  21.541  38.215   8.735
 2460POPC   C2B33248  21.631  38.165   8.321
 2460POPC   C3B33249  21.585  38.300   7.922
 2460POPC   C4B33250  21.235  38.370   7.720
 2461POPC   NC333251   6.347  20.180   9.588
 2461POPC   PO433252   6.901  20.684   9.500
 2461POPC   GL133253   6.617  20.501   9.212
 2461POPC   GL233254   6.887  20.443   9.011
 2461POPC   C1A33255   6.439  20.548   8.777
 2461POPC   D2A33256   6.470  20.823   8.387
 2461POPC   C3A33257   6.400  20.696   7.958
 2461POPC   C4A33258   6.505  20.806   7.502
 2461POPC   C1B33259   6.903  20.490   8.568
 2461POPC   C2B33260   6.943  20.614   8.164
 2461POPC   C3B33261   6.841  20.507   7.740
 2461POPC   C4B33262   6.448  20.303   7.652
 2462POPC   NC333263  28.456  28.229   9.499
 2462POPC   PO433264  28.327  28.937   9.574
 2462POPC   GL133265  28.402  28.710   9.197
 2462POPC   GL233266  28.133  28.476   9.148
 2462POPC   C1A33267  28.522  28.631   8.765
 2462POPC   D2A33268  28.256  28.528   8.413
 2462POPC   C3A33269  28.414  28.379   8.028
 2462POPC   C4A33270  28.311  28.360   7.601
 2462POPC   C1B33271  28.207  28.156   8.796
 2462POPC   C2B33272  28.258  27.990   8.346
 2462POPC   C3B33273  28.013  28.045   7.938
 2462POPC   C4B33274  27.880  28.131   7.501
 2463POPC   NC333275   2.608  14.277   9.509
 2463POPC   PO433276   2.979  14.707   9.944
 2463POPC   GL133277   3.015  14.552   9.432
 2463POPC   GL233278   3.257  14.389   9.241
 2463POPC   C1A33279   2.859  14.353   8.945
 2463POPC   D2A33280   2.652  14.549   8.594
 2463POPC   C3A33281   2.697  14.518   8.140
 2463POPC   C4A33282   2.409  14.591   7.799
 2463POPC   C1B33283   3.322  14.468   8.788
 2463POPC   C2B33284   3.105  14.321   8.412
 2463POPC   C3B33285   3.159  14.392   7.960
 2463POPC   C4B33286   2.944  14.389   7.548
 2464POPC   NC333287  21.302  34.040   9.432
 2464POPC   PO433288  21.565  33.494   9.594
 2464POPC   GL133289  21.610  33.685   9.160
 2464POPC   GL233290  21.678  34.049   9.098
 2464POPC   C1A33291  21.623  33.551   8.721
 2464POPC   D2A33292  21.359  33.596   8.352
 2464POPC   C3A33293  21.620  33.451   7.997
 2464POPC   C4A33294  21.757  33.599   7.574
 2464POPC   C1B33295  21.380  33.998   8.735
 2464POPC   C2B33296  21.165  34.100   8.353
 2464POPC   C3B33297  21.161  33.927   7.952
 2464POPC   C4B33298  21.444  34.169   7.705
 2465POPC   NC333299  10.777  17.675   9.528
 2465POPC   PO433300  10.309  18.109   9.671
 2465POPC   GL133301  10.271  17.840   9.204
 2465POPC   GL233302  10.538  17.591   9.111
 2465POPC   C1A33303  10.249  17.640   8.719
 2465POPC   D2A33304  10.445  17.835   8.378
 2465POPC   C3A33305  10.532  17.680   7.984
 2465POPC   C4A33306  10.314  17.336   7.806
 2465POPC   C1B33307  10.784  17.422   8.772
 2465POPC   C2B33308  10.627  17.325   8.357
 2465POPC   C3B33309  10.803  17.260   7.971
 2465POPC   C4B33310  11.083  17.277   7.692
 2466POPC   NC333311   7.754  22.196   9.476
 2466POPC   PO433312   8.302  21.940   9.530
 2466POPC   GL133313   8.062  21.933   9.147
 2466POPC   GL233314   8.095  22.299   9.122
 2466POPC   C1A33315   7.911  22.028   8.707
 2466POPC   D2A33316   7.952  21.810   8.334
 2466POPC   C3A33317   8.065  21.945   7.947
 2466POPC   C4A33318   7.871  21.960   7.565
 2466POPC   C1B33319   8.111  22.492   8.747
 2466POPC   C2B33320   8.124  22.361   8.361
 2466POPC   C3B33321   7.958  22.592   8.037
 2466POPC   C4B33322   8.095  22.412   7.712
 2467POPC   NC333323  42.540  39.649   9.496
 2467POPC   PO433324  42.289  40.183   9.490
 2467POPC   GL133325  42.335  39.923   9.124
 2467POPC   GL233326  42.723  39.890   9.071
 2467POPC   C1A33327  42.164  39.828   8.715
 2467POPC   D2A33328  41.941  39.905   8.314
 2467POPC   C3A33329  42.196  39.825   7.955
 2467POPC   C4A33330  42.513  39.482   7.958
 2467POPC   C1B33331  42.550  40.212   8.777
 2467POPC   C2B33332  42.457  40.085   8.360
 2467POPC   C3B33333  42.587  40.146   7.949
 2467POPC   C4B33334  42.528  40.511   7.736
 2468POPC   NC333335  23.998  12.522   9.341
 2468POPC   PO433336  23.514  13.028   9.435
 2468POPC   GL133337  23.689  12.938   9.081
 2468POPC   GL233338  23.635  12.635   9.004
 2468POPC   C1A33339  23.884  12.978   8.693
 2468POPC   D2A33340  23.922  12.753   8.304
 2468POPC   C3A33341  23.906  12.950   7.905
 2468POPC   C4A33342  23.569  13.125   7.728
 2468POPC   C1B33343  23.482  12.695   8.585
 2468POPC   C2B33344  23.437  12.512   8.214
 2468POPC   C3B33345  23.515  12.598   7.802
 2468POPC   C4B33346  23.369  12.394   7.412
 2469POPC   NC333347   9.890  33.765   9.804
 2469POPC   PO433348  10.608  33.602   9.817
 2469POPC   GL133349  10.588  33.531   9.291
 2469POPC   GL233350  10.629  33.877   9.089
 2469POPC   C1A33351  10.418  33.521   8.817
 2469POPC   D2A33352  10.313  33.439   8.379
 2469POPC   C3A33353  10.465  33.680   8.016
 2469POPC   C4A33354  10.830  33.839   7.769
 2469POPC   C1B33355  10.258  34.008   8.824
 2469POPC   C2B33356  10.103  33.921   8.415
 2469POPC   C3B33357  10.060  34.093   8.004
 2469POPC   C4B33358  10.343  34.059   7.672
 2470POPC   NC333359  21.624  28.657   9.570
 2470POPC   PO433360  21.188  28.075   9.580
 2470POPC   GL133361  21.385  28.295   9.232
 2470POPC   GL233362  21.200  28.611   9.250
 2470POPC   C1A33363  21.621  28.227   8.834
 2470POPC   D2A33364  21.725  28.356   8.402
 2470POPC   C3A33365  21.528  28.104   8.088
 2470POPC   C4A33366  21.537  27.921   7.699
 2470POPC   C1B33367  21.371  28.688   8.836
 2470POPC   C2B33368  21.384  28.764   8.393
 2470POPC   C3B33369  21.408  28.592   7.956
 2470POPC   C4B33370  21.202  28.625   7.540
 2471POPC   NC333371  14.064   6.497   9.332
 2471POPC   PO433372  13.694   7.046   9.577
 2471POPC   GL133373  13.649   6.783   9.240
 2471POPC   GL233374  13.369   6.578   9.275
 2471POPC   C1A33375  13.658   6.654   8.818
 2471POPC   D2A33376  13.617   6.788   8.384
 2471POPC   C3A33377  13.817   6.541   8.075
 2471POPC   C4A33378  13.673   6.724   7.692
 2471POPC   C1B33379  13.221   6.396   8.893
 2471POPC   C2B33380  13.385   6.330   8.508
 2471POPC   C3B33381  13.331   6.414   8.076
 2471POPC   C4B33382  13.487   6.238   7.718
 2472POPC   NC333383  37.995  16.095   9.849
 2472POPC   PO433384  38.462  15.667   9.549
 2472POPC   GL133385  38.595  15.878   9.162
 2472POPC   GL233386  38.439  15.666   8.965
 2472POPC   C1A33387  38.467  16.178   8.819
 2472POPC   D2A33388  38.652  16.445   8.471
 2472POPC   C3A33389  38.745  16.311   8.042
 2472POPC   C4A33390  38.412  16.192   7.781
 2472POPC   C1B33391  38.595  15.742   8.589
 2472POPC   C2B33392  38.408  16.007   8.311
 2472POPC   C3B33393  38.260  15.763   8.009
 2472POPC   C4B33394  38.398  15.741   7.580
 2473POPC   NC333395  40.838   2.176   9.430
 2473POPC   PO433396  41.213   1.609   9.405
 2473POPC   GL133397  40.956   1.814   9.100
 2473POPC   GL233398  40.577   1.777   9.164
 2473POPC   C1A33399  40.893   2.129   8.769
 2473POPC   D2A33400  41.141   2.226   8.425
 2473POPC   C3A33401  40.899   2.177   8.058
 2473POPC   C4A33402  40.993   2.282   7.656
 2473POPC   C1B33403  40.395   2.005   8.810
 2473POPC   C2B33404  40.496   2.162   8.414
 2473POPC   C3B33405  40.377   2.248   8.015
 2473POPC   C4B33406  40.544   2.049   7.681
 2474POPC   NC333407  29.135   4.555   9.526
 2474POPC   PO433408  29.297   3.928   9.477
 2474POPC   GL133409  29.087   4.238   9.131
 2474POPC   GL233410  29.288   4.577   9.043
 2474POPC   C1A33411  28.823   4.565   8.883
 2474POPC   D2A33412  29.039   4.812   8.596
 2474POPC   C3A33413  29.076   4.650   8.176
 2474POPC   C4A33414  29.125   4.733   7.727
 2474POPC   C1B33415  29.206   4.326   8.641
 2474POPC   C2B33416  29.416   4.187   8.259
 2474POPC   C3B33417  29.484   4.382   7.886
 2474POPC   C4B33418  29.283   4.311   7.497
 2475POPC   NC333419  29.532  27.090   9.197
 2475POPC   PO433420  29.432  26.535   9.597
 2475POPC   GL133421  29.863  26.581   9.316
 2475POPC   GL233422  30.195  26.711   9.160
 2475POPC   C1A33423  29.901  26.542   8.808
 2475POPC   D2A33424  29.918  26.816   8.413
 2475POPC   C3A33425  29.830  26.661   7.997
 2475POPC   C4A33426  29.878  26.683   7.530
 2475POPC   C1B33427  30.151  27.028   8.814
 2475POPC   C2B33428  30.323  27.145   8.401
 2475POPC   C3B33429  30.245  27.075   7.959
 2475POPC   C4B33430  30.353  26.915   7.545
 2476POPC   NC333431  22.478  24.280   9.331
 2476POPC   PO433432  21.808  24.433   9.554
 2476POPC   GL133433  22.021  24.467   9.155
 2476POPC   GL233434  22.200  24.761   9.182
 2476POPC   C1A33435  22.179  24.283   8.728
 2476POPC   D2A33436  22.310  24.188   8.288
 2476POPC   C3A33437  22.007  24.431   7.956
 2476POPC   C4A33438  21.771  24.469   7.548
 2476POPC   C1B33439  22.336  24.771   8.776
 2476POPC   C2B33440  22.179  24.663   8.380
 2476POPC   C3B33441  22.383  24.774   7.993
 2476POPC   C4B33442  22.791  24.881   7.837
 2477POPC   NC333443  44.547  18.900   9.482
 2477POPC   PO433444   0.238  19.089   9.488
 2477POPC   GL133445  44.903  19.140   9.183
 2477POPC   GL233446  44.829  18.793   9.079
 2477POPC   C1A33447  44.897  19.154   8.731
 2477POPC   D2A33448   0.141  19.302   8.389
 2477POPC   C3A33449  44.957  19.135   8.016
 2477POPC   C4A33450  44.677  19.225   7.674
 2477POPC   C1B33451  44.669  18.705   8.673
 2477POPC   C2B33452  44.538  18.868   8.277
 2477POPC   C3B33453  44.483  18.767   7.852
 2477POPC   C4B33454  44.371  18.912   7.439
 2478POPC   NC333455  11.646  33.072   9.541
 2478POPC   PO433456  12.187  32.699   9.736
 2478POPC   GL133457  12.043  32.863   9.308
 2478POPC   GL233458  11.731  32.646   9.262
 2478POPC   C1A33459  12.204  33.061   8.884
 2478POPC   D2A33460  12.101  33.329   8.567
 2478POPC   C3A33461  12.379  33.305   8.236
 2478POPC   C4A33462  12.193  33.182   7.846
 2478POPC   C1B33463  11.712  32.906   8.896
 2478POPC   C2B33464  11.870  32.879   8.490
 2478POPC   C3B33465  11.834  32.891   8.056
 2478POPC   C4B33466  11.939  32.739   7.660
 2479POPC   NC333467   9.575  43.325  10.169
 2479POPC   PO433468  10.034  43.104   9.698
 2479POPC   GL133469   9.732  43.160   9.338
 2479POPC   GL233470   9.800  42.825   9.258
 2479POPC   C1A33471   9.628  43.316   8.881
 2479POPC   D2A33472   9.865  43.448   8.473
 2479POPC   C3A33473   9.808  43.233   8.034
 2479POPC   C4A33474   9.937  43.399   7.604
 2479POPC   C1B33475   9.730  42.765   8.857
 2479POPC   C2B33476   9.821  42.936   8.477
 2479POPC   C3B33477   9.862  42.734   8.105
 2479POPC   C4B33478   9.759  42.796   7.730
 2480POPC   NC333479   4.990  30.963   9.446
 2480POPC   PO433480   4.724  30.451   9.579
 2480POPC   GL133481   4.860  30.510   9.149
 2480POPC   GL233482   5.204  30.560   9.223
 2480POPC   C1A33483   4.840  30.423   8.697
 2480POPC   D2A33484   4.825  30.704   8.335
 2480POPC   C3A33485   5.155  30.736   8.061
 2480POPC   C4A33486   5.153  30.730   7.623
 2480POPC   C1B33487   5.308  30.696   8.816
 2480POPC   C2B33488   5.577  30.660   8.472
 2480POPC   C3B33489   5.538  30.396   8.106
 2480POPC   C4B33490   5.589  30.484   7.675
 2481POPC   NC333491  32.631  14.370   9.824
 2481POPC   PO433492  31.997  14.234   9.545
 2481POPC   GL133493  32.112  14.330   9.134
 2481POPC   GL233494  31.868  14.599   9.163
 2481POPC   C1A33495  32.415  14.310   8.776
 2481POPC   D2A33496  32.441  14.153   8.340
 2481POPC   C3A33497  32.345  14.529   8.089
 2481POPC   C4A33498  32.416  14.502   7.685
 2481POPC   C1B33499  31.708  14.445   8.793
 2481POPC   C2B33500  31.980  14.333   8.473
 2481POPC   C3B33501  31.929  14.266   8.042
 2481POPC   C4B33502  31.911  14.577   7.740
 2482POPC   NC333503   1.593   0.654  10.111
 2482POPC   PO433504   1.285   0.529   9.521
 2482POPC   GL133505   1.122   0.619   9.114
 2482POPC   GL233506   1.464   0.584   9.037
 2482POPC   C1A33507   1.050   0.325   8.756
 2482POPC   D2A33508   1.300   0.286   8.361
 2482POPC   C3A33509   1.381   0.161   7.937
 2482POPC   C4A33510   1.105   0.177   7.548
 2482POPC   C1B33511   1.674   0.438   8.666
 2482POPC   C2B33512   1.784   0.358   8.246
 2482POPC   C3B33513   1.723   0.526   7.844
 2482POPC   C4B33514   1.558   0.461   7.427
 2483POPC   NC333515   4.787  16.285   9.471
 2483POPC   PO433516   5.085  15.715   9.252
 2483POPC   GL133517   4.916  16.022   9.024
 2483POPC   GL233518   5.173  16.273   9.136
 2483POPC   C1A33519   5.049  15.917   8.590
 2483POPC   D2A33520   5.450  15.924   8.369
 2483POPC   C3A33521   5.455  15.767   7.942
 2483POPC   C4A33522   5.098  15.741   7.717
 2483POPC   C1B33523   5.114  16.399   8.738
 2483POPC   C2B33524   4.895  16.357   8.365
 2483POPC   C3B33525   4.874  16.180   7.955
 2483POPC   C4B33526   4.509  16.228   7.736
 2484POPC   NC333527  40.958  36.806   9.587
 2484POPC   PO433528  40.384  36.913   9.319
 2484POPC   GL133529  40.782  36.957   9.118
 2484POPC   GL233530  41.074  37.197   9.218
 2484POPC   C1A33531  40.718  36.892   8.698
 2484POPC   D2A33532  40.494  37.089   8.395
 2484POPC   C3A33533  40.468  36.815   8.049
 2484POPC   C4A33534  40.663  36.576   7.718
 2484POPC   C1B33535  41.211  37.005   8.810
 2484POPC   C2B33536  41.118  36.790   8.402
 2484POPC   C3B33537  40.979  36.929   8.003
 2484POPC   C4B33538  41.022  36.886   7.576
 2485POPC   NC333539  38.726   0.307   9.621
 2485POPC   PO433540  38.273   0.707   9.515
 2485POPC   GL133541  38.469   0.483   9.172
 2485POPC   GL233542  38.609   0.129   9.170
 2485POPC   C1A33543  38.312   0.287   8.776
 2485POPC   D2A33544  38.125   0.374   8.377
 2485POPC   C3A33545  38.389   0.344   8.014
 2485POPC   C4A33546  38.442   0.556   7.593
 2485POPC   C1B33547  38.671  44.914   8.808
 2485POPC   C2B33548  38.865   0.052   8.415
 2485POPC   C3B33549  38.865   0.127   7.968
 2485POPC   C4B33550  38.751   0.137   7.528
 2486POPC   NC333551   4.795  11.610   9.621
 2486POPC   PO433552   5.328  11.286   9.815
 2486POPC   GL133553   5.274  11.347   9.355
 2486POPC   GL233554   4.938  11.344   9.210
 2486POPC   C1A33555   5.348  11.292   8.891
 2486POPC   D2A33556   5.289  11.474   8.490
 2486POPC   C3A33557   5.078  11.186   8.241
 2486POPC   C4A33558   5.255  11.102   7.838
 2486POPC   C1B33559   4.953  11.641   8.838
 2486POPC   C2B33560   4.807  11.635   8.364
 2486POPC   C3B33561   5.005  11.580   7.920
 2486POPC   C4B33562   5.098  11.522   7.448
 2487POPC   NC333563  16.688   7.038   9.852
 2487POPC   PO433564  16.783   6.506   9.396
 2487POPC   GL133565  16.625   6.603   9.004
 2487POPC   GL233566  16.426   6.934   8.948
 2487POPC   C1A33567  16.812   6.666   8.677
 2487POPC   D2A33568  16.747   6.451   8.318
 2487POPC   C3A33569  16.972   6.656   7.975
 2487POPC   C4A33570  16.755   6.583   7.591
 2487POPC   C1B33571  16.356   6.797   8.525
 2487POPC   C2B33572  16.519   6.866   8.119
 2487POPC   C3B33573  16.369   6.905   7.709
 2487POPC   C4B33574  16.455   6.839   7.273
 2488POPC   NC333575   1.949  23.235   9.320
 2488POPC   PO433576   1.796  22.533   9.482
 2488POPC   GL133577   1.839  22.783   9.095
 2488POPC   GL233578   1.565  22.997   8.979
 2488POPC   C1A33579   2.021  23.049   8.721
 2488POPC   D2A33580   2.227  23.312   8.459
 2488POPC   C3A33581   2.104  23.054   8.153
 2488POPC   C4A33582   1.963  23.107   7.764
 2488POPC   C1B33583   1.718  22.672   8.616
 2488POPC   C2B33584   1.801  22.450   8.218
 2488POPC   C3B33585   1.918  22.561   7.812
 2488POPC   C4B33586   1.802  22.749   7.434
 2489POPC   NC333587  40.025  38.963   9.588
 2489POPC   PO433588  39.788  39.605   9.562
 2489POPC   GL133589  39.964  39.327   9.212
 2489POPC   GL233590  40.207  39.070   9.143
 2489POPC   C1A33591  39.960  39.465   8.785
 2489POPC   D2A33592  39.902  39.323   8.365
 2489POPC   C3A33593  39.948  39.466   7.905
 2489POPC   C4A33594  40.041  39.190   7.513
 2489POPC   C1B33595  40.385  39.193   8.775
 2489POPC   C2B33596  40.339  39.064   8.395
 2489POPC   C3B33597  40.147  39.008   8.004
 2489POPC   C4B33598  40.263  38.761   7.675
 2490POPC   NC333599  14.120  40.420   9.736
 2490POPC   PO433600  14.607  40.817   9.488
 2490POPC   GL133601  14.493  40.887   9.092
 2490POPC   GL233602  14.748  41.113   9.059
 2490POPC   C1A33603  14.261  41.001   8.720
 2490POPC   D2A33604  14.096  40.776   8.370
 2490POPC   C3A33605  14.255  40.859   7.958
 2490POPC   C4A33606  14.492  40.588   7.701
 2490POPC   C1B33607  14.746  41.197   8.636
 2490POPC   C2B33608  14.492  41.239   8.275
 2490POPC   C3B33609  14.568  41.245   7.849
 2490POPC   C4B33610  14.811  41.001   7.633
 2491POPC   NC333611  25.795   8.405   9.493
 2491POPC   PO433612  26.355   8.192   9.727
 2491POPC   GL133613  26.185   8.095   9.262
 2491POPC   GL233614  25.817   8.006   9.170
 2491POPC   C1A33615  26.125   8.123   8.775
 2491POPC   D2A33616  25.932   8.206   8.361
 2491POPC   C3A33617  26.068   8.273   7.906
 2491POPC   C4A33618  26.294   8.429   7.542
 2491POPC   C1B33619  25.634   7.906   8.755
 2491POPC   C2B33620  25.709   7.737   8.340
 2491POPC   C3B33621  25.499   7.798   7.941
 2491POPC   C4B33622  25.617   8.081   7.617
 2492POPC   NC333623  20.716  37.038   9.459
 2492POPC   PO433624  20.194  36.695   9.574
 2492POPC   GL133625  20.255  36.891   9.190
 2492POPC   GL233626  20.370  36.584   9.042
 2492POPC   C1A33627  20.515  37.018   8.829
 2492POPC   D2A33628  20.627  37.274   8.508
 2492POPC   C3A33629  20.614  37.106   8.095
 2492POPC   C4A33630  20.848  36.875   7.800
 2492POPC   C1B33631  20.520  36.378   8.657
 2492POPC   C2B33632  20.536  36.607   8.247
 2492POPC   C3B33633  20.307  36.759   7.866
 2492POPC   C4B33634  20.507  36.726   7.450
 2493POPC   NC333635   1.469  11.100   9.571
 2493POPC   PO433636   0.900  11.467   9.395
 2493POPC   GL133637   1.133  11.127   9.167
 2493POPC   GL233638   1.471  11.275   9.097
 2493POPC   C1A33639   1.268  10.973   8.754
 2493POPC   D2A33640   1.171  11.144   8.352
 2493POPC   C3A33641   1.357  11.187   7.974
 2493POPC   C4A33642   1.480  11.324   7.606
 2493POPC   C1B33643   1.242  11.487   8.790
 2493POPC   C2B33644   1.135  11.657   8.432
 2493POPC   C3B33645   0.949  11.533   8.070
 2493POPC   C4B33646   1.011  11.492   7.644
 2494POPC   NC333647   3.245  21.105   9.438
 2494POPC   PO433648   3.734  21.552   9.532
 2494POPC   GL133649   3.649  21.334   9.188
 2494POPC   GL233650   3.801  21.047   9.192
 2494POPC   C1A33651   3.374  21.250   8.820
 2494POPC   D2A33652   3.294  21.509   8.471
 2494POPC   C3A33653   3.442  21.394   8.064
 2494POPC   C4A33654   3.321  21.612   7.707
 2494POPC   C1B33655   3.879  21.203   8.751
 2494POPC   C2B33656   3.889  21.332   8.305
 2494POPC   C3B33657   3.899  21.319   7.833
 2494POPC   C4B33658   3.597  21.233   7.506
 2495POPC   NC333659  20.067  22.102   9.465
 2495POPC   PO433660  19.390  22.227   9.721
 2495POPC   GL133661  19.617  22.226   9.261
 2495POPC   GL233662  19.810  22.456   9.171
 2495POPC   C1A33663  19.596  22.176   8.797
 2495POPC   D2A33664  19.778  21.968   8.431
 2495POPC   C3A33665  19.511  22.002   8.066
 2495POPC   C4A33666  19.663  21.956   7.616
 2495POPC   C1B33667  19.831  22.649   8.771
 2495POPC   C2B33668  19.784  22.503   8.372
 2495POPC   C3B33669  19.635  22.503   7.974
 2495POPC   C4B33670  19.841  22.464   7.614
 2496POPC   NC333671  42.878   2.204   9.548
 2496POPC   PO433672  43.176   1.589   9.723
 2496POPC   GL133673  43.195   1.887   9.297
 2496POPC   GL233674  42.875   1.929   9.113
 2496POPC   C1A33675  43.315   1.998   8.831
 2496POPC   D2A33676  43.321   2.209   8.396
 2496POPC   C3A33677  43.233   2.002   8.009
 2496POPC   C4A33678  42.859   1.762   7.893
 2496POPC   C1B33679  42.909   2.350   8.854
 2496POPC   C2B33680  42.887   2.508   8.419
 2496POPC   C3B33681  42.780   2.285   8.050
 2496POPC   C4B33682  42.959   2.263   7.643
 2497POPC   NC333683  22.496   5.056   9.737
 2497POPC   PO433684  21.894   4.832   9.525
 2497POPC   GL133685  22.035   4.955   9.158
 2497POPC   GL233686  22.337   5.124   9.246
 2497POPC   C1A33687  21.941   5.211   8.831
 2497POPC   D2A33688  22.085   5.311   8.452
 2497POPC   C3A33689  22.074   5.036   8.104
 2497POPC   C4A33690  22.111   5.261   7.724
 2497POPC   C1B33691  22.456   5.102   8.831
 2497POPC   C2B33692  22.510   5.025   8.416
 2497POPC   C3B33693  22.534   5.215   8.009
 2497POPC   C4B33694  22.491   4.938   7.643
 2498POPC   NC333695  28.775   3.905   9.360
 2498POPC   PO433696  29.168   3.503   9.833
 2498POPC   GL133697  29.087   3.501   9.321
 2498POPC   GL233698  29.418   3.509   9.150
 2498POPC   C1A33699  29.004   3.416   8.861
 2498POPC   D2A33700  29.164   3.149   8.555
 2498POPC   C3A33701  29.155   3.240   8.093
 2498POPC   C4A33702  29.232   3.373   7.665
 2498POPC   C1B33703  29.356   3.782   8.783
 2498POPC   C2B33704  29.256   3.687   8.335
 2498POPC   C3B33705  29.264   3.848   7.890
 2498POPC   C4B33706  29.237   3.820   7.433
 2499POPC   NC333707  41.670  28.852   9.653
 2499POPC   PO433708  41.289  29.333   9.354
 2499POPC   GL133709  41.529  29.000   9.184
 2499POPC   GL233710  41.890  28.974   9.215
 2499POPC   C1A33711  41.485  28.916   8.786
 2499POPC   D2A33712  41.260  28.946   8.421
 2499POPC   C3A33713  41.170  29.318   8.202
 2499POPC   C4A33714  41.436  29.130   7.909
 2499POPC   C1B33715  41.981  29.031   8.769
 2499POPC   C2B33716  41.849  29.046   8.308
 2499POPC   C3B33717  41.891  28.939   7.880
 2499POPC   C4B33718  41.748  28.967   7.457
 2500POPC   NC333719   9.319  12.821   9.488
 2500POPC   PO433720   8.653  13.089   9.511
 2500POPC   GL133721   8.909  12.937   9.127
 2500POPC   GL233722   9.202  13.115   9.109
 2500POPC   C1A33723   8.856  12.789   8.672
 2500POPC   D2A33724   9.089  12.758   8.249
 2500POPC   C3A33725   8.920  12.953   7.835
 2500POPC   C4A33726   8.832  12.813   7.392
 2500POPC   C1B33727   9.331  12.916   8.741
 2500POPC   C2B33728   9.386  13.151   8.333
 2500POPC   C3B33729   9.430  13.024   7.913
 2500POPC   C4B33730   9.309  12.991   7.442
 2501POPC   NC333731  26.070  44.427   9.593
 2501POPC   PO433732  25.522  44.844   9.462
 2501POPC   GL133733  25.763  44.551   9.175
 2501POPC   GL233734  26.124  44.520   9.098
 2501POPC   C1A33735  25.791  44.668   8.736
 2501POPC   D2A33736  25.983  44.618   8.323
 2501POPC   C3A33737  25.769  44.782   7.961
 2501POPC   C4A33738  25.643  44.543   7.585
 2501POPC   C1B33739  26.292  44.786   8.762
 2501POPC   C2B33740  26.120   0.097   8.450
 2501POPC   C3B33741  26.131   0.132   7.992
 2501POPC   C4B33742  26.341  44.855   7.689
 2502POPC   NC333743   2.358  15.419   9.460
 2502POPC   PO433744   2.039  14.866   9.700
 2502POPC   GL133745   2.108  15.041   9.222
 2502POPC   GL233746   1.863  15.260   9.063
 2502POPC   C1A33747   2.181  15.052   8.730
 2502POPC   D2A33748   1.843  15.201   8.424
 2502POPC   C3A33749   1.948  15.230   7.980
 2502POPC   C4A33750   2.200  15.529   7.783
 2502POPC   C1B33751   1.759  14.839   8.895
 2502POPC   C2B33752   1.749  14.691   8.475
 2502POPC   C3B33753   1.595  14.861   8.095
 2502POPC   C4B33754   1.517  15.086   7.699
 2503POPC   NC333755   2.959  36.464   9.350
 2503POPC   PO433756   2.848  37.160   9.341
 2503POPC   GL133757   2.901  36.891   9.066
 2503POPC   GL233758   2.592  36.756   9.134
 2503POPC   C1A33759   2.872  36.909   8.648
 2503POPC   D2A33760   3.127  37.101   8.378
 2503POPC   C3A33761   3.052  36.865   8.096
 2503POPC   C4A33762   2.860  36.908   7.768
 2503POPC   C1B33763   2.412  37.051   8.849
 2503POPC   C2B33764   2.307  36.999   8.455
 2503POPC   C3B33765   2.571  37.088   8.159
 2503POPC   C4B33766   2.418  37.133   7.775
 2504POPC   NC333767  43.389  12.124   9.417
 2504POPC   PO433768  44.011  12.252   9.726
 2504POPC   GL133769  43.887  12.213   9.293
 2504POPC   GL233770  43.828  11.863   9.189
 2504POPC   C1A33771  43.879  12.201   8.826
 2504POPC   D2A33772  44.079  12.151   8.445
 2504POPC   C3A33773  43.899  12.223   8.040
 2504POPC   C4A33774  43.965  11.986   7.614
 2504POPC   C1B33775  43.514  11.860   8.825
 2504POPC   C2B33776  43.525  12.023   8.379
 2504POPC   C3B33777  43.523  11.899   7.917
 2504POPC   C4B33778  43.517  11.907   7.430
 2505POPC   NC333779  26.033  21.975   9.522
 2505POPC   PO433780  26.520  22.454   9.520
 2505POPC   GL133781  26.131  22.360   9.169
 2505POPC   GL233782  25.888  22.052   9.036
 2505POPC   C1A33783  26.201  22.244   8.699
 2505POPC   D2A33784  25.867  22.004   8.460
 2505POPC   C3A33785  25.916  22.106   8.015
 2505POPC   C4A33786  26.308  22.302   7.861
 2505POPC   C1B33787  26.210  21.757   8.809
 2505POPC   C2B33788  26.334  21.825   8.326
 2505POPC   C3B33789  26.303  21.787   7.826
 2505POPC   C4B33790  26.037  21.959   7.494
 2506POPC   NC333791  37.907   6.526   9.552
 2506POPC   PO433792  37.694   6.018   9.554
 2506POPC   GL133793  37.725   5.920   9.138
 2506POPC   GL233794  37.912   6.216   9.089
 2506POPC   C1A33795  37.626   5.631   8.759
 2506POPC   D2A33796  37.526   5.431   8.361
 2506POPC   C3A33797  37.603   5.610   7.948
 2506POPC   C4A33798  37.300   5.646   7.601
 2506POPC   C1B33799  37.636   6.139   8.690
 2506POPC   C2B33800  37.532   5.991   8.289
 2506POPC   C3B33801  37.579   6.139   7.887
 2506POPC   C4B33802  37.443   6.119   7.433
 2507POPC   NC333803  21.818  19.794   9.665
 2507POPC   PO433804  22.182  20.278   9.388
 2507POPC   GL133805  22.162  20.084   9.051
 2507POPC   GL233806  21.942  19.850   9.167
 2507POPC   C1A33807  22.403  20.022   8.691
 2507POPC   D2A33808  22.183  19.962   8.334
 2507POPC   C3A33809  22.341  19.989   7.909
 2507POPC   C4A33810  22.361  20.151   7.453
 2507POPC   C1B33811  21.976  19.690   8.758
 2507POPC   C2B33812  21.997  19.491   8.360
 2507POPC   C3B33813  21.964  19.640   7.985
 2507POPC   C4B33814  21.932  19.575   7.581
 2508POPC   NC333815  35.896  37.874   9.515
 2508POPC   PO433816  36.432  37.606   9.752
 2508POPC   GL133817  36.367  37.788   9.285
 2508POPC   GL233818  36.089  37.578   9.153
 2508POPC   C1A33819  36.391  37.748   8.784
 2508POPC   D2A33820  36.563  37.584   8.371
 2508POPC   C3A33821  36.511  37.876   8.031
 2508POPC   C4A33822  36.089  37.826   7.908
 2508POPC   C1B33823  35.936  37.444   8.775
 2508POPC   C2B33824  36.044  37.544   8.360
 2508POPC   C3B33825  35.921  37.311   8.023
 2508POPC   C4B33826  35.962  37.174   7.634
 2509POPC   NC333827  23.096  34.689   9.580
 2509POPC   PO433828  22.409  34.698   9.647
 2509POPC   GL133829  22.730  34.694   9.257
 2509POPC   GL233830  22.966  34.364   9.189
 2509POPC   C1A33831  22.903  34.736   8.863
 2509POPC   D2A33832  23.069  34.576   8.496
 2509POPC   C3A33833  22.939  34.827   8.152
 2509POPC   C4A33834  22.886  34.612   7.780
 2509POPC   C1B33835  23.124  34.165   8.796
 2509POPC   C2B33836  23.273  34.071   8.343
 2509POPC   C3B33837  23.184  34.175   7.899
 2509POPC   C4B33838  23.440  34.337   7.553
 2510POPC   NC333839   3.556  23.131   9.520
 2510POPC   PO433840   3.771  23.714   9.680
 2510POPC   GL133841   3.810  23.631   9.263
 2510POPC   GL233842   3.449  23.726   9.253
 2510POPC   C1A33843   3.721  23.464   8.841
 2510POPC   D2A33844   3.755  23.573   8.387
 2510POPC   C3A33845   3.786  23.558   7.929
 2510POPC   C4A33846   3.683  23.789   7.560
 2510POPC   C1B33847   3.489  23.929   8.855
 2510POPC   C2B33848   3.639  24.069   8.470
 2510POPC   C3B33849   3.558  23.988   8.058
 2510POPC   C4B33850   3.354  24.148   7.712
 2511POPC   NC333851  25.711  12.029   9.849
 2511POPC   PO433852  25.116  12.067   9.499
 2511POPC   GL133853  25.299  12.152   9.102
 2511POPC   GL233854  25.153  11.853   8.975
 2511POPC   C1A33855  25.363  12.221   8.654
 2511POPC   D2A33856  25.475  12.035   8.237
 2511POPC   C3A33857  25.277  12.271   7.896
 2511POPC   C4A33858  24.904  12.185   7.649
 2511POPC   C1B33859  25.265  11.697   8.587
 2511POPC   C2B33860  25.178  11.588   8.158
 2511POPC   C3B33861  25.223  11.771   7.743
 2511POPC   C4B33862  25.545  12.042   7.517
 2512POPC   NC333863  32.615  27.777   9.838
 2512POPC   PO433864  33.126  27.419   9.481
 2512POPC   GL133865  33.086  27.680   9.143
 2512POPC   GL233866  32.761  27.855   9.129
 2512POPC   C1A33867  33.020  27.601   8.717
 2512POPC   D2A33868  32.966  27.411   8.337
 2512POPC   C3A33869  33.182  27.507   7.998
 2512POPC   C4A33870  32.904  27.660   7.694
 2512POPC   C1B33871  33.052  28.095   8.838
 2512POPC   C2B33872  32.940  28.203   8.429
 2512POPC   C3B33873  32.939  27.969   8.087
 2512POPC   C4B33874  33.285  27.976   7.826
 2513POPC   NC333875  30.410  10.591   9.745
 2513POPC   PO433876  30.711  10.366   9.175
 2513POPC   GL133877  30.636  10.800   9.024
 2513POPC   GL233878  30.409  10.637   8.798
 2513POPC   C1A33879  30.537  11.073   8.607
 2513POPC   D2A33880  30.547  10.819   8.205
 2513POPC   C3A33881  30.883  10.844   7.908
 2513POPC   C4A33882  30.746  10.673   7.544
 2513POPC   C1B33883  30.870  10.678   8.590
 2513POPC   C2B33884  30.975  10.452   8.209
 2513POPC   C3B33885  30.763  10.274   7.871
 2513POPC   C4B33886  30.873   9.909   7.654
 2514POPC   NC333887  13.156  36.352   9.396
 2514POPC   PO433888  12.562  35.992   9.637
 2514POPC   GL133889  12.871  36.003   9.197
 2514POPC   GL233890  13.066  35.776   9.161
 2514POPC   C1A33891  12.778  36.128   8.694
 2514POPC   D2A33892  12.681  36.259   8.292
 2514POPC   C3A33893  12.766  36.031   7.922
 2514POPC   C4A33894  12.527  36.025   7.569
 2514POPC   C1B33895  13.256  36.053   8.820
 2514POPC   C2B33896  13.166  36.090   8.365
 2514POPC   C3B33897  13.205  36.315   7.955
 2514POPC   C4B33898  12.963  36.314   7.535
 2515POPC   NC333899  20.117  14.572   9.507
 2515POPC   PO433900  19.742  14.107   9.553
 2515POPC   GL133901  19.827  14.304   9.172
 2515POPC   GL233902  20.136  14.160   9.128
 2515POPC   C1A33903  19.736  14.423   8.741
 2515POPC   D2A33904  19.526  14.303   8.363
 2515POPC   C3A33905  19.681  14.343   7.957
 2515POPC   C4A33906  19.862  14.737   7.849
 2515POPC   C1B33907  20.195  14.172   8.706
 2515POPC   C2B33908  20.029  14.161   8.305
 2515POPC   C3B33909  20.187  14.342   7.924
 2515POPC   C4B33910  20.072  14.398   7.510
 2516POPC   NC333911   0.146   9.963   9.478
 2516POPC   PO433912   0.349  10.640   9.451
 2516POPC   GL133913   0.463  10.576   9.086
 2516POPC   GL233914   0.481  10.210   9.144
 2516POPC   C1A33915   0.428  10.812   8.717
 2516POPC   D2A33916   0.330  10.693   8.310
 2516POPC   C3A33917   0.671  10.582   8.030
 2516POPC   C4A33918   0.720  10.659   7.586
 2516POPC   C1B33919   0.201  10.275   8.775
 2516POPC   C2B33920  44.955  10.330   8.396
 2516POPC   C3B33921   0.249  10.262   8.061
 2516POPC   C4B33922   0.249  10.479   7.692
 2517POPC   NC333923  41.127   1.254   9.672
 2517POPC   PO433924  40.646   0.772   9.655
 2517POPC   GL133925  40.857   0.924   9.237
 2517POPC   GL233926  40.850   1.306   9.181
 2517POPC   C1A33927  40.764   1.012   8.773
 2517POPC   D2A33928  40.468   1.198   8.454
 2517POPC   C3A33929  40.607   1.253   8.055
 2517POPC   C4A33930  40.886   0.929   7.937
 2517POPC   C1B33931  40.755   1.534   8.748
 2517POPC   C2B33932  40.808   1.753   8.359
 2517POPC   C3B33933  40.889   1.686   7.902
 2517POPC   C4B33934  40.871   1.312   7.605
 2518POPC   NC333935   8.588  20.024  10.071
 2518POPC   PO433936   8.131  19.643   9.690
 2518POPC   GL133937   8.016  19.562   9.222
 2518POPC   GL233938   8.149  19.893   9.096
 2518POPC   C1A33939   7.840  19.613   8.785
 2518POPC   D2A33940   8.015  19.546   8.367
 2518POPC   C3A33941   7.983  19.787   7.994
 2518POPC   C4A33942   7.731  20.112   7.819
 2518POPC   C1B33943   8.329  19.803   8.719
 2518POPC   C2B33944   8.313  20.004   8.341
 2518POPC   C3B33945   8.498  19.719   8.101
 2518POPC   C4B33946   8.480  19.650   7.706
 2519POPC   NC333947  42.864  43.638   9.428
 2519POPC   PO433948  43.380  44.113   9.539
 2519POPC   GL133949  43.179  43.962   9.151
 2519POPC   GL233950  42.806  44.083   9.202
 2519POPC   C1A33951  43.282  43.717   8.743
 2519POPC   D2A33952  43.064  43.611   8.368
 2519POPC   C3A33953  43.100  43.858   8.044
 2519POPC   C4A33954  43.423  43.763   7.785
 2519POPC   C1B33955  42.798  43.827   8.800
 2519POPC   C2B33956  42.765  44.033   8.400
 2519POPC   C3B33957  42.737  44.266   8.007
 2519POPC   C4B33958  42.822  44.067   7.602
 2520POPC   NC333959   3.040  34.600   9.393
 2520POPC   PO433960   3.689  34.490   9.507
 2520POPC   GL133961   3.460  34.417   9.153
 2520POPC   GL233962   3.429  34.800   9.135
 2520POPC   C1A33963   3.422  34.126   8.790
 2520POPC   D2A33964   3.460  34.214   8.339
 2520POPC   C3A33965   3.865  34.387   8.188
 2520POPC   C4A33966   3.903  34.753   7.885
 2520POPC   C1B33967   3.641  34.762   8.749
 2520POPC   C2B33968   3.544  34.773   8.317
 2520POPC   C3B33969   3.430  34.584   7.944
 2520POPC   C4B33970   3.430  34.903   7.645
 2521POPC   NC333971  44.159   0.778   9.686
 2521POPC   PO433972  43.864   1.210   9.341
 2521POPC   GL133973  43.915   1.165   8.969
 2521POPC   GL233974  44.121   1.468   8.943
 2521POPC   C1A33975  43.818   1.148   8.562
 2521POPC   D2A33976  43.950   1.330   8.194
 2521POPC   C3A33977  43.925   1.014   7.867
 2521POPC   C4A33978  43.528   0.886   7.673
 2521POPC   C1B33979  43.670   1.582   8.794
 2521POPC   C2B33980  43.548   1.756   8.414
 2521POPC   C3B33981  43.659   1.720   8.000
 2521POPC   C4B33982  43.727   1.430   7.696
 2522POPC   NC333983  24.049   4.299   9.527
 2522POPC   PO433984  23.373   4.133   9.516
 2522POPC   GL133985  23.652   4.248   9.199
 2522POPC   GL233986  23.844   3.942   9.158
 2522POPC   C1A33987  23.682   4.349   8.769
 2522POPC   D2A33988  23.489   4.402   8.373
 2522POPC   C3A33989  23.674   4.444   7.991
 2522POPC   C4A33990  23.533   4.090   7.814
 2522POPC   C1B33991  24.068   3.990   8.781
 2522POPC   C2B33992  23.941   4.019   8.377
 2522POPC   C3B33993  24.026   4.037   7.959
 2522POPC   C4B33994  23.968   4.198   7.556
 2523POPC   NC333995   3.422  42.713   9.836
 2523POPC   PO433996   3.496  43.250   9.366
 2523POPC   GL133997   3.396  43.188   8.994
 2523POPC   GL233998   3.160  43.406   9.025
 2523POPC   C1A33999   3.399  43.170   8.585
 2523POPC   D2A34000   3.672  43.056   8.327
 2523POPC   C3A34001   3.614  42.873   7.983
 2523POPC   C4A34002   3.469  43.079   7.640
 2523POPC   C1B34003   3.127  43.596   8.723
 2523POPC   C2B34004   2.976  43.390   8.394
 2523POPC   C3B34005   3.232  43.253   8.074
 2523POPC   C4B34006   3.184  43.526   7.726
 2524POPC   NC334007  16.283  17.883   9.570
 2524POPC   PO434008  16.067  17.261   9.659
 2524POPC   GL134009  15.986  17.326   9.219
 2524POPC   GL234010  15.944  17.687   9.149
 2524POPC   C1A34011  15.906  17.278   8.768
 2524POPC   D2A34012  15.939  17.601   8.427
 2524POPC   C3A34013  15.776  17.636   7.984
 2524POPC   C4A34014  15.828  17.420   7.583
 2524POPC   C1B34015  16.294  17.650   8.872
 2524POPC   C2B34016  16.436  17.778   8.478
 2524POPC   C3B34017  16.330  17.626   8.089
 2524POPC   C4B34018  16.232  17.680   7.683
 2525POPC   NC334019  38.916  14.447   9.517
 2525POPC   PO434020  39.553  14.259   9.589
 2525POPC   GL134021  39.556  14.183   9.138
 2525POPC   GL234022  39.212  14.257   9.138
 2525POPC   C1A34023  39.526  14.215   8.668
 2525POPC   D2A34024  39.498  14.584   8.356
 2525POPC   C3A34025  39.457  14.558   7.882
 2525POPC   C4A34026  39.372  14.296   7.477
 2525POPC   C1B34027  39.041  14.559   8.806
 2525POPC   C2B34028  39.049  14.858   8.429
 2525POPC   C3B34029  39.079  14.910   7.960
 2525POPC   C4B34030  39.036  14.655   7.551
 2526POPC   NC334031  15.601  41.653   9.565
 2526POPC   PO434032  15.002  41.377   9.534
 2526POPC   GL134033  15.292  41.367   9.217
 2526POPC   GL234034  15.367  41.701   9.112
 2526POPC   C1A34035  15.196  41.383   8.759
 2526POPC   D2A34036  15.114  41.567   8.361
 2526POPC   C3A34037  15.066  41.310   8.003
 2526POPC   C4A34038  15.099  41.417   7.553
 2526POPC   C1B34039  15.596  41.707   8.706
 2526POPC   C2B34040  15.598  41.640   8.239
 2526POPC   C3B34041  15.406  41.708   7.843
 2526POPC   C4B34042  15.480  41.707   7.379
 2527POPC   NC334043  24.921  28.401   9.808
 2527POPC   PO434044  25.281  28.550   9.250
 2527POPC   GL134045  25.373  28.290   8.937
 2527POPC   GL234046  25.501  27.965   9.009
 2527POPC   C1A34047  25.140  28.410   8.593
 2527POPC   D2A34048  25.000  28.370   8.211
 2527POPC   C3A34049  25.379  28.429   7.977
 2527POPC   C4A34050  25.477  28.728   7.659
 2527POPC   C1B34051  25.178  27.911   8.647
 2527POPC   C2B34052  25.193  27.928   8.176
 2527POPC   C3B34053  25.107  28.078   7.725
 2527POPC   C4B34054  25.052  28.016   7.232
 2528POPC   NC334055  10.594  36.468   9.544
 2528POPC   PO434056  10.630  35.803   9.510
 2528POPC   GL134057  10.613  36.131   9.155
 2528POPC   GL234058  10.896  36.416   9.136
 2528POPC   C1A34059  10.423  36.015   8.745
 2528POPC   D2A34060  10.385  35.730   8.396
 2528POPC   C3A34061  10.616  35.829   7.994
 2528POPC   C4A34062  10.474  36.064   7.615
 2528POPC   C1B34063  10.782  36.367   8.699
 2528POPC   C2B34064  10.567  36.298   8.304
 2528POPC   C3B34065  10.702  36.426   7.897
 2528POPC   C4B34066  10.702  36.471   7.420
 2529POPC   NC334067  18.616  12.520   9.209
 2529POPC   PO434068  17.955  12.681   9.420
 2529POPC   GL134069  18.181  12.865   9.104
 2529POPC   GL234070  18.177  12.536   8.959
 2529POPC   C1A34071  18.428  12.974   8.721
 2529POPC   D2A34072  18.667  12.890   8.375
 2529POPC   C3A34073  18.506  13.048   8.016
 2529POPC   C4A34074  18.591  12.845   7.673
 2529POPC   C1B34075  17.930  12.768   8.682
 2529POPC   C2B34076  18.123  12.846   8.330
 2529POPC   C3B34077  18.220  12.609   7.996
 2529POPC   C4B34078  18.071  12.801   7.676
 2530POPC   NC334079  23.592  33.555   9.545
 2530POPC   PO434080  23.249  34.144   9.572
 2530POPC   GL134081  23.497  34.089   9.148
 2530POPC   GL234082  23.842  33.894   9.132
 2530POPC   C1A34083  23.516  33.843   8.746
 2530POPC   D2A34084  23.672  33.738   8.336
 2530POPC   C3A34085  23.714  34.046   8.012
 2530POPC   C4A34086  23.783  33.937   7.583
 2530POPC   C1B34087  24.026  33.717   8.719
 2530POPC   C2B34088  24.169  33.771   8.265
 2530POPC   C3B34089  24.102  33.556   7.847
 2530POPC   C4B34090  24.075  33.435   7.393
 2531POPC   NC334091  22.391  21.476   9.893
 2531POPC   PO434092  22.025  21.941   9.577
 2531POPC   GL134093  21.909  22.053   9.148
 2531POPC   GL234094  21.999  22.406   9.018
 2531POPC   C1A34095  22.006  22.017   8.714
 2531POPC   D2A34096  22.169  21.788   8.440
 2531POPC   C3A34097  22.036  21.970   8.084
 2531POPC   C4A34098  21.961  21.967   7.683
 2531POPC   C1B34099  22.425  22.277   8.848
 2531POPC   C2B34100  22.493  22.183   8.414
 2531POPC   C3B34101  22.394  22.328   7.986
 2531POPC   C4B34102  22.666  22.522   7.698
 2532POPC   NC334103  39.532  41.418   9.542
 2532POPC   PO434104  38.878  41.496   9.671
 2532POPC   GL134105  39.157  41.414   9.226
 2532POPC   GL234106  39.245  41.718   9.091
 2532POPC   C1A34107  39.149  41.404   8.727
 2532POPC   D2A34108  39.185  41.239   8.325
 2532POPC   C3A34109  38.820  41.263   8.069
 2532POPC   C4A34110  38.792  41.113   7.668
 2532POPC   C1B34111  39.052  41.916   8.720
 2532POPC   C2B34112  38.964  41.801   8.278
 2532POPC   C3B34113  39.174  41.630   7.900
 2532POPC   C4B34114  39.523  41.673   7.543
 2533POPC   NC334115  19.738  30.906  10.001
 2533POPC   PO434116  19.990  30.580   9.516
 2533POPC   GL134117  19.850  30.760   9.162
 2533POPC   GL234118  20.050  31.060   9.119
 2533POPC   C1A34119  19.940  30.657   8.739
 2533POPC   D2A34120  19.965  30.424   8.362
 2533POPC   C3A34121  19.694  30.686   8.133
 2533POPC   C4A34122  19.521  30.643   7.741
 2533POPC   C1B34123  20.291  31.027   8.714
 2533POPC   C2B34124  20.156  30.921   8.269
 2533POPC   C3B34125  20.061  30.787   7.812
 2533POPC   C4B34126  20.065  31.026   7.372
 2534POPC   NC334127  44.128   4.399   9.609
 2534POPC   PO434128  44.798   4.457   9.512
 2534POPC   GL134129  44.755   4.342   9.115
 2534POPC   GL234130  44.447   4.176   9.118
 2534POPC   C1A34131  44.898   4.438   8.705
 2534POPC   D2A34132  44.819   4.661   8.334
 2534POPC   C3A34133  44.849   4.400   7.970
 2534POPC   C4A34134  44.497   4.459   7.715
 2534POPC   C1B34135  44.702   3.949   8.783
 2534POPC   C2B34136  44.772   4.056   8.355
 2534POPC   C3B34137  44.587   3.936   7.953
 2534POPC   C4B34138  44.744   3.742   7.604
 2535POPC   NC334139  36.018  18.482   9.810
 2535POPC   PO434140  36.002  19.179   9.691
 2535POPC   GL134141  36.014  19.233   9.226
 2535POPC   GL234142  35.905  18.956   9.037
 2535POPC   C1A34143  36.193  19.291   8.785
 2535POPC   D2A34144  36.214  19.102   8.346
 2535POPC   C3A34145  36.106  19.365   8.053
 2535POPC   C4A34146  35.799  19.273   7.840
 2535POPC   C1B34147  36.040  18.743   8.676
 2535POPC   C2B34148  35.915  18.672   8.245
 2535POPC   C3B34149  35.976  18.780   7.780
 2535POPC   C4B34150  35.773  18.781   7.327
 2536POPC   NC334151  37.469  25.976   9.560
 2536POPC   PO434152  38.132  26.074   9.772
 2536POPC   GL134153  37.892  26.099   9.285
 2536POPC   GL234154  37.563  26.241   9.129
 2536POPC   C1A34155  37.638  25.836   8.873
 2536POPC   D2A34156  37.617  26.074   8.480
 2536POPC   C3A34157  37.673  25.923   8.036
 2536POPC   C4A34158  37.390  25.864   7.662
 2536POPC   C1B34159  37.305  26.406   8.775
 2536POPC   C2B34160  37.344  26.483   8.302
 2536POPC   C3B34161  37.353  26.350   7.849
 2536POPC   C4B34162  37.609  26.338   7.470
 2537POPC   NC334163  22.760  33.963   9.469
 2537POPC   PO434164  23.162  33.367   9.396
 2537POPC   GL134165  23.007  33.707   9.090
 2537POPC   GL234166  22.625  33.736   9.024
 2537POPC   C1A34167  22.996  33.702   8.630
 2537POPC   D2A34168  23.241  33.472   8.318
 2537POPC   C3A34169  23.325  33.682   7.909
 2537POPC   C4A34170  23.280  33.873   7.464
 2537POPC   C1B34171  22.625  34.108   8.745
 2537POPC   C2B34172  22.774  34.121   8.364
 2537POPC   C3B34173  22.840  33.762   8.126
 2537POPC   C4B34174  22.823  33.842   7.709
 2538POPC   NC334175   6.295  10.541   9.593
 2538POPC   PO434176   6.918  10.261   9.510
 2538POPC   GL134177   6.679  10.474   9.232
 2538POPC   GL234178   6.455  10.199   9.214
 2538POPC   C1A34179   6.544  10.541   8.817
 2538POPC   D2A34180   6.631  10.383   8.416
 2538POPC   C3A34181   6.790  10.684   8.145
 2538POPC   C4A34182   6.929  10.793   7.749
 2538POPC   C1B34183   6.167  10.200   8.874
 2538POPC   C2B34184   6.137  10.198   8.472
 2538POPC   C3B34185   6.264  10.253   8.075
 2538POPC   C4B34186   6.532  10.446   7.759
 2539POPC   NC334187  12.370  18.157   9.565
 2539POPC   PO434188  11.778  18.338   9.732
 2539POPC   GL134189  12.047  18.333   9.248
 2539POPC   GL234190  12.403  18.424   9.147
 2539POPC   C1A34191  11.987  18.162   8.806
 2539POPC   D2A34192  11.743  18.402   8.473
 2539POPC   C3A34193  11.915  18.370   8.045
 2539POPC   C4A34194  11.829  18.625   7.678
 2539POPC   C1B34195  12.505  18.094   8.865
 2539POPC   C2B34196  12.540  17.934   8.436
 2539POPC   C3B34197  12.369  18.096   8.035
 2539POPC   C4B34198  12.259  18.330   7.640
 2540POPC   NC334199   8.767  10.904   9.559
 2540POPC   PO434200   8.761  11.590   9.729
 2540POPC   GL134201   8.676  11.371   9.337
 2540POPC   GL234202   9.044  11.289   9.281
 2540POPC   C1A34203   8.722  11.143   8.916
 2540POPC   D2A34204   8.977  11.427   8.638
 2540POPC   C3A34205   8.956  11.463   8.164
 2540POPC   C4A34206   8.895  11.229   7.756
 2540POPC   C1B34207   9.269  11.071   8.920
 2540POPC   C2B34208   9.172  10.969   8.484
 2540POPC   C3B34209   9.287  11.048   8.058
 2540POPC   C4B34210   9.323  10.994   7.609
 2541POPC   NC334211  26.212   1.820   9.341
 2541POPC   PO434212  25.595   2.150   9.598
 2541POPC   GL134213  25.823   2.207   9.167
 2541POPC   GL234214  26.169   2.229   9.066
 2541POPC   C1A34215  25.827   2.410   8.738
 2541POPC   D2A34216  26.112   2.420   8.356
 2541POPC   C3A34217  25.951   2.085   8.110
 2541POPC   C4A34218  25.923   2.023   7.675
 2541POPC   C1B34219  26.427   2.124   8.717
 2541POPC   C2B34220  26.443   1.970   8.304
 2541POPC   C3B34221  26.397   2.067   7.884
 2541POPC   C4B34222  26.396   1.896   7.502
 2542POPC   NC334223  24.868  26.141   9.491
 2542POPC   PO434224  24.205  25.839   9.546
 2542POPC   GL134225  24.510  25.859   9.212
 2542POPC   GL234226  24.514  26.191   9.138
 2542POPC   C1A34227  24.568  25.816   8.772
 2542POPC   D2A34228  24.284  25.828   8.410
 2542POPC   C3A34229  24.475  25.732   8.019
 2542POPC   C4A34230  24.811  25.793   7.700
 2542POPC   C1B34231  24.805  26.364   8.855
 2542POPC   C2B34232  24.904  26.453   8.432
 2542POPC   C3B34233  24.852  26.279   8.029
 2542POPC   C4B34234  25.123  26.220   7.722
 2543POPC   NC334235   7.005   6.891   9.390
 2543POPC   PO434236   7.495   6.609   9.716
 2543POPC   GL134237   7.632   6.571   9.281
 2543POPC   GL234238   7.295   6.470   9.199
 2543POPC   C1A34239   7.673   6.444   8.821
 2543POPC   D2A34240   7.454   6.374   8.398
 2543POPC   C3A34241   7.608   6.677   8.080
 2543POPC   C4A34242   7.716   6.635   7.640
 2543POPC   C1B34243   7.156   6.596   8.785
 2543POPC   C2B34244   6.914   6.427   8.455
 2543POPC   C3B34245   7.010   6.196   8.110
 2543POPC   C4B34246   7.273   6.396   7.844
 2544POPC   NC334247   5.477  10.252   9.639
 2544POPC   PO434248   6.154  10.108   9.612
 2544POPC   GL134249   5.881  10.363   9.298
 2544POPC   GL234250   5.510  10.384   9.130
 2544POPC   C1A34251   5.961  10.646   8.952
 2544POPC   D2A34252   5.895  10.670   8.491
 2544POPC   C3A34253   6.108  10.749   8.097
 2544POPC   C4A34254   6.040  10.525   7.710
 2544POPC   C1B34255   5.470  10.736   8.805
 2544POPC   C2B34256   5.506  10.997   8.436
 2544POPC   C3B34257   5.565  10.760   8.077
 2544POPC   C4B34258   5.522  10.544   7.701
 2545POPC   NC334259  12.355   5.149   9.550
 2545POPC   PO434260  11.836   4.691   9.346
 2545POPC   GL134261  11.859   5.144   9.145
 2545POPC   GL234262  11.577   5.412   9.192
 2545POPC   C1A34263  11.987   5.163   8.720
 2545POPC   D2A34264  12.207   5.068   8.340
 2545POPC   C3A34265  12.081   5.169   7.932
 2545POPC   C4A34266  12.132   4.881   7.591
 2545POPC   C1B34267  11.664   5.542   8.770
 2545POPC   C2B34268  11.899   5.513   8.374
 2545POPC   C3B34269  11.752   5.555   8.004
 2545POPC   C4B34270  11.554   5.264   7.840
 2546POPC   NC334271  25.407  13.342   9.459
 2546POPC   PO434272  24.862  13.684   9.599
 2546POPC   GL134273  24.999  13.485   9.203
 2546POPC   GL234274  25.328  13.614   9.029
 2546POPC   C1A34275  24.968  13.315   8.812
 2546POPC   D2A34276  25.202  13.551   8.515
 2546POPC   C3A34277  24.955  13.591   8.162
 2546POPC   C4A34278  25.125  13.603   7.776
 2546POPC   C1B34279  25.664  13.758   8.728
 2546POPC   C2B34280  25.749  13.956   8.345
 2546POPC   C3B34281  25.616  13.838   7.934
 2546POPC   C4B34282  25.556  13.766   7.496
 2547POPC   NC334283  30.785  44.031   9.592
 2547POPC   PO434284  30.846  43.387   9.528
 2547POPC   GL134285  30.682  43.657   9.157
 2547POPC   GL234286  30.557  44.020   9.113
 2547POPC   C1A34287  30.498  43.675   8.722
 2547POPC   D2A34288  30.301  43.790   8.347
 2547POPC   C3A34289  30.411  43.529   8.031
 2547POPC   C4A34290  30.688  43.533   7.667
 2547POPC   C1B34291  30.896  44.037   8.789
 2547POPC   C2B34292  31.106  44.015   8.338
 2547POPC   C3B34293  30.829  43.993   7.921
 2547POPC   C4B34294  30.782  43.968   7.435
 2548POPC   NC334295  43.654  23.003   9.559
 2548POPC   PO434296  44.351  23.191   9.600
 2548POPC   GL134297  44.046  23.126   9.232
 2548POPC   GL234298  44.013  22.770   9.268
 2548POPC   C1A34299  43.770  23.061   8.837
 2548POPC   D2A34300  43.528  23.082   8.433
 2548POPC   C3A34301  43.757  23.069   8.068
 2548POPC   C4A34302  43.625  23.052   7.666
 2548POPC   C1B34303  43.900  22.571   8.879
 2548POPC   C2B34304  43.838  22.696   8.438
 2548POPC   C3B34305  43.760  22.555   8.014
 2548POPC   C4B34306  43.791  22.564   7.583
 2549POPC   NC334307  21.985  39.412   9.624
 2549POPC   PO434308  22.357  38.820   9.610
 2549POPC   GL134309  22.174  39.078   9.285
 2549POPC   GL234310  22.315  39.417   9.228
 2549POPC   C1A34311  22.138  39.063   8.859
 2549POPC   D2A34312  22.106  38.838   8.499
 2549POPC   C3A34313  22.149  39.051   8.117
 2549POPC   C4A34314  22.050  38.977   7.712
 2549POPC   C1B34315  22.175  39.595   8.857
 2549POPC   C2B34316  22.136  39.425   8.462
 2549POPC   C3B34317  22.026  39.538   8.041
 2549POPC   C4B34318  22.049  39.525   7.609
 2550POPC   NC334319   0.871  43.493   9.578
 2550POPC   PO434320   1.548  43.614   9.463
 2550POPC   GL134321   1.413  43.835   9.132
 2550POPC   GL234322   1.069  43.827   9.158
 2550POPC   C1A34323   1.549  43.967   8.747
 2550POPC   D2A34324   1.247  43.854   8.453
 2550POPC   C3A34325   1.318  43.805   8.054
 2550POPC   C4A34326   1.011  43.547   7.843
 2550POPC   C1B34327   0.845  43.946   8.789
 2550POPC   C2B34328   0.723  43.957   8.376
 2550POPC   C3B34329   0.991  44.206   8.137
 2550POPC   C4B34330   1.040  44.274   7.712
 2551POPC   NC334331   5.729  12.986   9.430
 2551POPC   PO434332   5.968  12.346   9.587
 2551POPC   GL134333   6.036  12.610   9.229
 2551POPC   GL234334   5.696  12.625   9.057
 2551POPC   C1A34335   6.101  12.785   8.813
 2551POPC   D2A34336   5.811  12.753   8.478
 2551POPC   C3A34337   5.996  12.874   8.077
 2551POPC   C4A34338   6.226  12.747   7.708
 2551POPC   C1B34339   5.626  13.071   8.816
 2551POPC   C2B34340   5.628  13.213   8.360
 2551POPC   C3B34341   5.480  12.872   8.098
 2551POPC   C4B34342   5.650  12.615   7.784
 2552POPC   NC334343  44.500   9.806   9.884
 2552POPC   PO434344  44.967   9.496   9.519
 2552POPC   GL134345  44.763   9.667   9.213
 2552POPC   GL234346  44.433   9.703   9.306
 2552POPC   C1A34347  44.732   9.404   8.859
 2552POPC   D2A34348  44.908   9.419   8.469
 2552POPC   C3A34349  44.733   9.317   8.103
 2552POPC   C4A34350  44.582   9.484   7.734
 2552POPC   C1B34351  44.366   9.754   8.858
 2552POPC   C2B34352  44.331   9.908   8.416
 2552POPC   C3B34353  44.449   9.932   7.977
 2552POPC   C4B34354  44.174   9.751   7.643
 2553POPC   NC334355  44.009  22.090   9.758
 2553POPC   PO434356  43.520  22.551   9.649
 2553POPC   GL134357  43.745  22.299   9.338
 2553POPC   GL234358  44.109  22.270   9.297
 2553POPC   C1A34359  43.788  22.071   8.937
 2553POPC   D2A34360  43.792  22.213   8.508
 2553POPC   C3A34361  43.938  22.078   8.099
 2553POPC   C4A34362  43.622  22.076   7.778
 2553POPC   C1B34363  44.298  22.247   8.911
 2553POPC   C2B34364  44.304  22.475   8.532
 2553POPC   C3B34365  44.236  22.592   8.139
 2553POPC   C4B34366  44.247  22.331   7.753
 2554POPC   NC334367  35.591  11.104   9.454
 2554POPC   PO434368  35.324  11.752   9.421
 2554POPC   GL134369  35.530  11.518   9.119
 2554POPC   GL234370  35.278  11.270   9.091
 2554POPC   C1A34371  35.625  11.364   8.704
 2554POPC   D2A34372  35.631  11.393   8.274
 2554POPC   C3A34373  35.268  11.394   8.084
 2554POPC   C4A34374  35.305  11.244   7.747
 2554POPC   C1B34375  35.095  11.057   8.763
 2554POPC   C2B34376  35.260  10.948   8.374
 2554POPC   C3B34377  35.129  10.800   7.986
 2554POPC   C4B34378  34.900  10.948   7.652
 2555POPC   NC334379  42.240   0.768   9.575
 2555POPC   PO434380  42.799   0.528   9.546
 2555POPC   GL134381  42.623   0.642   9.148
 2555POPC   GL234382  42.320   0.460   9.183
 2555POPC   C1A34383  42.428   0.701   8.735
 2555POPC   D2A34384  42.134   0.593   8.388
 2555POPC   C3A34385  42.306   0.580   7.955
 2555POPC   C4A34386  42.531   0.608   7.556
 2555POPC   C1B34387  42.136   0.291   8.824
 2555POPC   C2B34388  42.220   0.066   8.454
 2555POPC   C3B34389  42.126   0.072   8.013
 2555POPC   C4B34390  42.296   0.128   7.596
 2556POPC   NC334391  13.289   6.020   9.475
 2556POPC   PO434392  13.953   6.082   9.510
 2556POPC   GL134393  13.748   6.121   9.124
 2556POPC   GL234394  13.626   5.788   9.146
 2556POPC   C1A34395  13.785   6.010   8.678
 2556POPC   D2A34396  13.708   6.078   8.228
 2556POPC   C3A34397  13.755   5.841   7.875
 2556POPC   C4A34398  14.015   6.109   7.594
 2556POPC   C1B34399  13.291   5.880   8.837
 2556POPC   C2B34400  13.372   5.775   8.435
 2556POPC   C3B34401  13.252   5.924   8.060
 2556POPC   C4B34402  13.277   5.763   7.658
 2557POPC   NC334403  30.897  31.069   9.985
 2557POPC   PO434404  30.703  31.506   9.550
 2557POPC   GL134405  30.740  31.684   9.119
 2557POPC   GL234406  30.591  31.997   9.067
 2557POPC   C1A34407  30.644  31.486   8.714
 2557POPC   D2A34408  30.664  31.182   8.355
 2557POPC   C3A34409  30.830  31.346   7.938
 2557POPC   C4A34410  30.729  31.539   7.511
 2557POPC   C1B34411  30.717  32.002   8.675
 2557POPC   C2B34412  30.747  31.759   8.298
 2557POPC   C3B34413  30.499  31.744   7.957
 2557POPC   C4B34414  30.597  32.020   7.676
 2558POPC   NC334415  28.397   2.594   9.704
 2558POPC   PO434416  28.610   3.213   9.603
 2558POPC   GL134417  28.402   2.946   9.202
 2558POPC   GL234418  28.375   2.587   9.209
 2558POPC   C1A34419  28.191   2.821   8.783
 2558POPC   D2A34420  28.047   2.736   8.349
 2558POPC   C3A34421  28.341   2.924   8.076
 2558POPC   C4A34422  28.255   3.040   7.689
 2558POPC   C1B34423  28.391   2.369   8.888
 2558POPC   C2B34424  28.390   2.376   8.502
 2558POPC   C3B34425  28.395   2.408   8.082
 2558POPC   C4B34426  28.163   2.537   7.747
 2559POPC   NC334427  19.973  21.139   9.500
 2559POPC   PO434428  19.791  21.739   9.355
 2559POPC   GL134429  20.002  21.486   9.061
 2559POPC   GL234430  20.191  21.173   9.062
 2559POPC   C1A34431  19.840  21.436   8.666
 2559POPC   D2A34432  19.544  21.491   8.325
 2559POPC   C3A34433  19.834  21.618   7.982
 2559POPC   C4A34434  20.135  21.402   7.721
 2559POPC   C1B34435  19.942  20.929   8.838
 2559POPC   C2B34436  19.742  20.989   8.457
 2559POPC   C3B34437  19.837  21.118   8.093
 2559POPC   C4B34438  19.843  20.983   7.704
 2560POPC   NC334439   4.734  41.591   9.368
 2560POPC   PO434440   4.207  41.893   9.651
 2560POPC   GL134441   4.124  41.881   9.180
 2560POPC   GL234442   4.298  41.583   9.098
 2560POPC   C1A34443   3.939  41.735   8.762
 2560POPC   D2A34444   4.013  41.358   8.481
 2560POPC   C3A34445   4.236  41.343   8.056
 2560POPC   C4A34446   4.152  41.683   7.788
 2560POPC   C1B34447   4.435  41.817   8.728
 2560POPC   C2B34448   4.433  41.754   8.296
 2560POPC   C3B34449   4.636  41.794   7.898
 2560POPC   C4B34450   4.681  41.573   7.504
 2561POPC   NC334451   0.256  34.752   9.540
 2561POPC   PO434452   0.259  35.453   9.611
 2561POPC   GL134453   0.477  35.433   9.207
 2561POPC   GL234454   0.519  35.074   9.187
 2561POPC   C1A34455   0.491  35.537   8.760
 2561POPC   D2A34456   0.310  35.454   8.358
 2561POPC   C3A34457   0.515  35.526   7.983
 2561POPC   C4A34458   0.396  35.406   7.584
 2561POPC   C1B34459   0.323  35.019   8.790
 2561POPC   C2B34460   0.472  34.972   8.356
 2561POPC   C3B34461   0.320  35.039   7.929
 2561POPC   C4B34462   0.483  34.912   7.499
 2562POPC   NC334463   9.225  24.076   9.333
 2562POPC   PO434464   8.981  24.709   9.502
 2562POPC   GL134465   9.100  24.505   9.108
 2562POPC   GL234466   8.801  24.284   9.147
 2562POPC   C1A34467   9.142  24.237   8.707
 2562POPC   D2A34468   9.282  24.265   8.248
 2562POPC   C3A34469   9.170  24.602   7.946
 2562POPC   C4A34470   9.184  24.792   7.512
 2562POPC   C1B34471   8.718  24.532   8.786
 2562POPC   C2B34472   8.814  24.452   8.345
 2562POPC   C3B34473   8.787  24.247   7.957
 2562POPC   C4B34474   8.705  24.608   7.689
 2563POPC   NC334475  40.113  20.326   9.499
 2563POPC   PO434476  40.022  19.667   9.497
 2563POPC   GL134477  39.929  19.814   9.099
 2563POPC   GL234478  40.089  20.116   8.993
 2563POPC   C1A34479  39.670  19.903   8.770
 2563POPC   D2A34480  39.518  19.774   8.377
 2563POPC   C3A34481  39.822  19.870   8.081
 2563POPC   C4A34482  39.796  19.855   7.657
 2563POPC   C1B34483  40.133  19.907   8.553
 2563POPC   C2B34484  40.326  19.898   8.135
 2563POPC   C3B34485  40.585  19.726   7.804
 2563POPC   C4B34486  40.744  19.772   7.400
 2564POPC   NC334487  37.830   0.291   9.536
 2564POPC   PO434488  37.489   0.952   9.748
 2564POPC   GL134489  37.490   0.756   9.289
 2564POPC   GL234490  37.822   0.615   9.107
 2564POPC   C1A34491  37.377   0.732   8.844
 2564POPC   D2A34492  37.663   0.573   8.511
 2564POPC   C3A34493  37.513   0.457   8.107
 2564POPC   C4A34494  37.342   0.545   7.718
 2564POPC   C1B34495  37.818   0.193   8.833
 2564POPC   C2B34496  37.820  44.979   8.381
 2564POPC   C3B34497  37.893   0.163   7.950
 2564POPC   C4B34498  37.980   0.586   7.823
 2565POPC   NC334499   7.052  20.233   9.458
 2565POPC   PO434500   6.571  19.756   9.586
 2565POPC   GL134501   6.675  19.969   9.220
 2565POPC   GL234502   6.349  19.987   9.119
 2565POPC   C1A34503   6.808  19.979   8.792
 2565POPC   D2A34504   6.557  20.142   8.451
 2565POPC   C3A34505   6.728  20.121   8.048
 2565POPC   C4A34506   6.958  19.782   7.838
 2565POPC   C1B34507   6.357  19.740   8.786
 2565POPC   C2B34508   6.462  19.622   8.391
 2565POPC   C3B34509   6.468  19.695   7.967
 2565POPC   C4B34510   6.248  19.845   7.623
 2566POPC   NC334511   0.911   4.584   9.514
 2566POPC   PO434512   1.405   4.123   9.472
 2566POPC   GL134513   1.139   4.239   9.152
 2566POPC   GL234514   1.409   4.309   8.973
 2566POPC   C1A34515   0.971   4.477   8.790
 2566POPC   D2A34516   0.822   4.465   8.388
 2566POPC   C3A34517   1.013   4.622   8.008
 2566POPC   C4A34518   1.371   4.468   7.745
 2566POPC   C1B34519   1.404   4.348   8.519
 2566POPC   C2B34520   1.237   4.142   8.151
 2566POPC   C3B34521   1.470   3.964   7.781
 2566POPC   C4B34522   1.586   4.188   7.359
 2567POPC   NC334523   8.964  34.665   9.548
 2567POPC   PO434524   8.546  34.280   9.300
 2567POPC   GL134525   8.879  34.457   9.018
 2567POPC   GL234526   9.095  34.768   9.070
 2567POPC   C1A34527   8.921  34.671   8.608
 2567POPC   D2A34528   9.091  34.911   8.307
 2567POPC   C3A34529   9.122  34.586   8.021
 2567POPC   C4A34530   8.737  34.370   7.856
 2567POPC   C1B34531   8.768  35.061   8.885
 2567POPC   C2B34532   8.533  35.083   8.487
 2567POPC   C3B34533   8.629  34.877   8.081
 2567POPC   C4B34534   8.541  35.016   7.661
 2568POPC   NC334535   7.291  11.755   9.470
 2568POPC   PO434536   6.616  11.892   9.671
 2568POPC   GL134537   6.658  11.923   9.214
 2568POPC   GL234538   6.915  12.173   9.230
 2568POPC   C1A34539   6.506  12.052   8.795
 2568POPC   D2A34540   6.658  12.325   8.445
 2568POPC   C3A34541   6.530  12.150   8.033
 2568POPC   C4A34542   6.438  11.829   7.702
 2568POPC   C1B34543   7.003  12.184   8.802
 2568POPC   C2B34544   7.186  12.180   8.408
 2568POPC   C3B34545   7.067  12.293   7.985
 2568POPC   C4B34546   6.882  12.073   7.653
 2569POPC   NC334547  32.102   7.364   9.512
 2569POPC   PO434548  32.549   7.863   9.363
 2569POPC   GL134549  32.345   7.543   9.105
 2569POPC   GL234550  32.392   7.171   9.116
 2569POPC   C1A34551  32.152   7.540   8.726
 2569POPC   D2A34552  32.344   7.636   8.338
 2569POPC   C3A34553  32.082   7.492   8.034
 2569POPC   C4A34554  31.935   7.627   7.657
 2569POPC   C1B34555  32.470   6.895   8.761
 2569POPC   C2B34556  32.565   6.942   8.327
 2569POPC   C3B34557  32.523   7.234   8.025
 2569POPC   C4B34558  32.407   7.448   7.655
 2570POPC   NC334559  19.596  28.348   9.469
 2570POPC   PO434560  20.270  28.186   9.440
 2570POPC   GL134561  19.961  28.135   9.181
 2570POPC   GL234562  19.937  28.494   9.131
 2570POPC   C1A34563  19.927  28.158   8.771
 2570POPC   D2A34564  19.805  28.303   8.382
 2570POPC   C3A34565  20.030  28.227   8.041
 2570POPC   C4A34566  19.971  28.385   7.660
 2570POPC   C1B34567  20.012  28.659   8.754
 2570POPC   C2B34568  20.187  28.641   8.359
 2570POPC   C3B34569  19.992  28.792   8.008
 2570POPC   C4B34570  20.191  28.965   7.653
 2571POPC   NC334571  22.674   7.883   9.553
 2571POPC   PO434572  22.811   7.146   9.570
 2571POPC   GL134573  22.961   7.101   9.161
 2571POPC   GL234574  23.180   6.766   9.149
 2571POPC   C1A34575  22.964   7.436   8.847
 2571POPC   D2A34576  22.822   7.619   8.447
 2571POPC   C3A34577  23.124   7.620   8.113
 2571POPC   C4A34578  23.021   7.705   7.691
 2571POPC   C1B34579  23.283   7.007   8.784
 2571POPC   C2B34580  23.058   7.149   8.423
 2571POPC   C3B34581  23.189   7.129   8.019
 2571POPC   C4B34582  23.128   7.234   7.629
 2572POPC   NC334583  35.601  44.406   9.478
 2572POPC   PO434584  36.268  44.748   9.459
 2572POPC   GL134585  36.074  44.572   9.119
 2572POPC   GL234586  36.380  44.637   8.961
 2572POPC   C1A34587  35.920  44.688   8.703
 2572POPC   D2A34588  35.927  44.460   8.312
 2572POPC   C3A34589  36.005  44.667   7.927
 2572POPC   C4A34590  36.046  44.493   7.505
 2572POPC   C1B34591  36.366  44.400   8.611
 2572POPC   C2B34592  36.438  44.547   8.190
 2572POPC   C3B34593  36.347  44.275   7.847
 2572POPC   C4B34594  36.375  44.097   7.437
 2573POPC   NC334595  28.948   2.124   9.536
 2573POPC   PO434596  29.324   1.608   9.508
 2573POPC   GL134597  29.335   1.968   9.246
 2573POPC   GL234598  29.022   1.857   9.118
 2573POPC   C1A34599  29.378   2.056   8.807
 2573POPC   D2A34600  29.372   1.788   8.434
 2573POPC   C3A34601  29.195   1.923   8.048
 2573POPC   C4A34602  29.214   1.879   7.638
 2573POPC   C1B34603  28.892   2.214   8.850
 2573POPC   C2B34604  29.010   2.241   8.420
 2573POPC   C3B34605  28.904   2.345   8.006
 2573POPC   C4B34606  29.042   2.387   7.591
 2574POPC   NC334607  25.739   9.144   9.485
 2574POPC   PO434608  26.176   8.621   9.357
 2574POPC   GL134609  26.048   8.831   9.034
 2574POPC   GL234610  26.103   9.187   9.112
 2574POPC   C1A34611  26.024   8.697   8.612
 2574POPC   D2A34612  26.195   8.666   8.213
 2574POPC   C3A34613  26.028   8.861   7.852
 2574POPC   C4A34614  26.206   9.236   7.688
 2574POPC   C1B34615  25.816   9.207   8.757
 2574POPC   C2B34616  25.873   9.100   8.329
 2574POPC   C3B34617  25.822   9.332   7.996
 2574POPC   C4B34618  25.751   9.479   7.588
 2575POPC   NC334619  36.906  35.191   9.610
 2575POPC   PO434620  36.720  35.655   9.225
 2575POPC   GL134621  37.026  35.412   9.011
 2575POPC   GL234622  37.070  35.033   9.105
 2575POPC   C1A34623  36.934  35.546   8.576
 2575POPC   D2A34624  36.554  35.588   8.311
 2575POPC   C3A34625  36.718  35.632   7.902
 2575POPC   C4A34626  37.151  35.741   7.796
 2575POPC   C1B34627  37.166  35.084   8.632
 2575POPC   C2B34628  37.253  35.324   8.227
 2575POPC   C3B34629  37.061  35.248   7.833
 2575POPC   C4B34630  36.772  34.931   7.768
 2576POPC   NC334631  31.935  37.128   9.476
 2576POPC   PO434632  32.446  36.718   9.621
 2576POPC   GL134633  32.550  36.792   9.192
 2576POPC   GL234634  32.532  37.143   9.144
 2576POPC   C1A34635  32.393  36.653   8.780
 2576POPC   D2A34636  32.019  36.730   8.521
 2576POPC   C3A34637  31.985  36.576   8.085
 2576POPC   C4A34638  32.163  36.787   7.729
 2576POPC   C1B34639  32.239  37.148   8.797
 2576POPC   C2B34640  32.385  37.061   8.375
 2576POPC   C3B34641  32.355  37.201   7.948
 2576POPC   C4B34642  32.128  37.290   7.580
 2577POPC   NC334643  40.838  23.340   9.521
 2577POPC   PO434644  40.549  22.795   9.532
 2577POPC   GL134645  40.452  22.774   9.088
 2577POPC   GL234646  40.733  23.019   9.081
 2577POPC   C1A34647  40.450  22.773   8.613
 2577POPC   D2A34648  40.680  22.827   8.215
 2577POPC   C3A34649  40.649  22.651   7.794
 2577POPC   C4A34650  40.909  22.622   7.408
 2577POPC   C1B34651  40.800  23.229   8.693
 2577POPC   C2B34652  40.643  23.325   8.305
 2577POPC   C3B34653  40.934  23.411   7.949
 2577POPC   C4B34654  41.017  23.029   7.698
 2578POPC   NC334655  12.498  14.134   9.468
 2578POPC   PO434656  11.953  14.490   9.451
 2578POPC   GL134657  12.173  14.317   9.140
 2578POPC   GL234658  11.913  14.112   9.077
 2578POPC   C1A34659  12.362  14.115   8.786
 2578POPC   D2A34660  12.496  14.278   8.379
 2578POPC   C3A34661  12.340  14.457   7.975
 2578POPC   C4A34662  12.246  14.437   7.536
 2578POPC   C1B34663  11.941  14.389   8.707
 2578POPC   C2B34664  11.979  14.241   8.298
 2578POPC   C3B34665  11.832  14.271   7.867
 2578POPC   C4B34666  11.738  13.880   7.694
 2579POPC   NC334667  26.733  11.202  10.195
 2579POPC   PO434668  26.709  11.432   9.555
 2579POPC   GL134669  26.837  11.274   9.154
 2579POPC   GL234670  27.155  11.402   9.164
 2579POPC   C1A34671  26.704  11.157   8.720
 2579POPC   D2A34672  26.803  10.875   8.410
 2579POPC   C3A34673  26.623  11.111   8.107
 2579POPC   C4A34674  26.503  11.468   7.861
 2579POPC   C1B34675  27.104  11.491   8.739
 2579POPC   C2B34676  27.165  11.242   8.371
 2579POPC   C3B34677  27.083  11.301   7.943
 2579POPC   C4B34678  26.968  11.181   7.527
 2580POPC   NC334679  16.018  38.307   9.863
 2580POPC   PO434680  16.240  38.849   9.593
 2580POPC   GL134681  15.902  38.606   9.389
 2580POPC   GL234682  16.006  38.260   9.274
 2580POPC   C1A34683  15.721  38.603   8.970
 2580POPC   D2A34684  15.957  38.603   8.590
 2580POPC   C3A34685  15.829  38.462   8.200
 2580POPC   C4A34686  15.632  38.645   7.835
 2580POPC   C1B34687  15.939  38.125   8.827
 2580POPC   C2B34688  16.133  37.940   8.447
 2580POPC   C3B34689  16.240  38.084   8.031
 2580POPC   C4B34690  16.176  38.488   7.816
 2581POPC   NC334691  19.776   6.862   9.537
 2581POPC   PO434692  19.964   6.251   9.466
 2581POPC   GL134693  19.913   6.537   9.119
 2581POPC   GL234694  20.064   6.869   9.130
 2581POPC   C1A34695  20.059   6.429   8.695
 2581POPC   D2A34696  19.991   6.422   8.248
 2581POPC   C3A34697  19.635   6.292   8.023
 2581POPC   C4A34698  19.787   6.480   7.633
 2581POPC   C1B34699  19.796   6.905   8.779
 2581POPC   C2B34700  19.576   6.780   8.425
 2581POPC   C3B34701  19.657   6.802   8.006
 2581POPC   C4B34702  19.523   6.921   7.586
 2582POPC   NC334703  23.402  27.350   9.455
 2582POPC   PO434704  23.487  28.028   9.373
 2582POPC   GL134705  23.680  27.676   9.149
 2582POPC   GL234706  23.512  27.389   8.964
 2582POPC   C1A34707  23.916  27.661   8.764
 2582POPC   D2A34708  23.756  27.456   8.439
 2582POPC   C3A34709  23.934  27.470   8.057
 2582POPC   C4A34710  23.761  27.685   7.755
 2582POPC   C1B34711  23.380  27.743   8.700
 2582POPC   C2B34712  23.341  27.710   8.247
 2582POPC   C3B34713  23.270  27.600   7.814
 2582POPC   C4B34714  23.428  27.599   7.352
 2583POPC   NC334715  22.252  44.312   9.334
 2583POPC   PO434716  21.780  43.831   9.570
 2583POPC   GL134717  22.156  43.788   9.254
 2583POPC   GL234718  22.495  43.635   9.352
 2583POPC   C1A34719  22.231  43.938   8.804
 2583POPC   D2A34720  22.010  43.839   8.419
 2583POPC   C3A34721  22.244  43.901   8.056
 2583POPC   C4A34722  22.182  43.981   7.652
 2583POPC   C1B34723  22.602  43.593   8.894
 2583POPC   C2B34724  22.532  43.698   8.458
 2583POPC   C3B34725  22.599  43.507   8.084
 2583POPC   C4B34726  22.448  43.552   7.702
 2584POPC   NC334727   2.491  25.495   9.484
 2584POPC   PO434728   3.023  25.078   9.509
 2584POPC   GL134729   2.895  25.249   9.150
 2584POPC   GL234730   2.867  25.619   9.133
 2584POPC   C1A34731   3.030  25.142   8.745
 2584POPC   D2A34732   2.981  24.826   8.395
 2584POPC   C3A34733   2.632  24.902   8.109
 2584POPC   C4A34734   2.537  25.006   7.682
 2584POPC   C1B34735   2.632  25.510   8.782
 2584POPC   C2B34736   2.708  25.300   8.399
 2584POPC   C3B34737   2.751  25.396   7.983
 2584POPC   C4B34738   2.490  25.670   7.794
 2585POPC   NC334739   1.574  25.457   9.448
 2585POPC   PO434740   2.207  25.106   9.528
 2585POPC   GL134741   2.019  25.323   9.194
 2585POPC   GL234742   1.744  25.111   9.074
 2585POPC   C1A34743   2.157  25.321   8.758
 2585POPC   D2A34744   2.217  25.093   8.376
 2585POPC   C3A34745   2.221  25.273   7.953
 2585POPC   C4A34746   2.174  25.281   7.452
 2585POPC   C1B34747   1.681  25.491   8.809
 2585POPC   C2B34748   1.808  25.494   8.408
 2585POPC   C3B34749   1.756  25.186   8.118
 2585POPC   C4B34750   1.754  25.363   7.713
 2586POPC   NC334751   9.273  17.321   9.598
 2586POPC   PO434752   9.461  16.714   9.424
 2586POPC   GL134753   9.636  16.706   9.044
 2586POPC   GL234754   9.941  16.843   9.171
 2586POPC   C1A34755   9.517  16.860   8.667
 2586POPC   D2A34756   9.752  16.793   8.318
 2586POPC   C3A34757   9.658  16.649   7.893
 2586POPC   C4A34758   9.366  16.419   7.642
 2586POPC   C1B34759   9.932  17.149   8.814
 2586POPC   C2B34760  10.111  17.162   8.388
 2586POPC   C3B34761   9.906  17.124   7.982
 2586POPC   C4B34762   9.963  16.935   7.573
 2587POPC   NC334763  24.107  42.061   9.566
 2587POPC   PO434764  23.576  41.601   9.609
 2587POPC   GL134765  23.596  41.574   9.207
 2587POPC   GL234766  23.910  41.745   9.199
 2587POPC   C1A34767  23.544  41.728   8.814
 2587POPC   D2A34768  23.413  41.914   8.446
 2587POPC   C3A34769  23.485  41.583   8.148
 2587POPC   C4A34770  23.621  41.416   7.758
 2587POPC   C1B34771  24.065  41.786   8.796
 2587POPC   C2B34772  23.919  41.728   8.429
 2587POPC   C3B34773  24.018  41.568   8.062
 2587POPC   C4B34774  24.116  41.645   7.672
 2588POPC   NC334775   0.674  42.029   9.547
 2588POPC   PO434776   0.534  41.314   9.624
 2588POPC   GL134777   0.460  41.633   9.276
 2588POPC   GL234778   0.190  41.866   9.277
 2588POPC   C1A34779   0.602  41.727   8.856
 2588POPC   D2A34780   0.771  41.665   8.430
 2588POPC   C3A34781   0.578  41.386   8.131
 2588POPC   C4A34782   0.581  41.653   7.767
 2588POPC   C1B34783   0.082  41.640   8.896
 2588POPC   C2B34784   0.203  41.456   8.500
 2588POPC   C3B34785   0.173  41.680   8.089
 2588POPC   C4B34786   0.109  41.504   7.680
 2589POPC   NC334787  26.746   9.535   9.371
 2589POPC   PO434788  26.602  10.141   9.696
 2589POPC   GL134789  26.586   9.980   9.229
 2589POPC   GL234790  26.969   9.899   9.099
 2589POPC   C1A34791  26.613  10.031   8.781
 2589POPC   D2A34792  26.951  10.018   8.462
 2589POPC   C3A34793  26.769   9.998   8.072
 2589POPC   C4A34794  26.810   9.990   7.648
 2589POPC   C1B34795  26.931   9.589   8.735
 2589POPC   C2B34796  26.998   9.523   8.263
 2589POPC   C3B34797  26.786   9.514   7.851
 2589POPC   C4B34798  26.920   9.574   7.385
 2590POPC   NC334799  33.996  18.817   9.615
 2590POPC   PO434800  33.369  18.875   9.360
 2590POPC   GL134801  33.783  19.037   9.139
 2590POPC   GL234802  34.122  18.904   9.137
 2590POPC   C1A34803  33.874  18.983   8.688
 2590POPC   D2A34804  33.495  18.874   8.465
 2590POPC   C3A34805  33.422  19.045   8.087
 2590POPC   C4A34806  33.653  18.957   7.760
 2590POPC   C1B34807  34.185  18.602   8.821
 2590POPC   C2B34808  34.311  18.630   8.419
 2590POPC   C3B34809  34.027  18.816   8.106
 2590POPC   C4B34810  34.136  19.036   7.729
 2591POPC   NC334811  20.432   6.108   9.523
 2591POPC   PO434812  20.964   6.635   9.501
 2591POPC   GL134813  20.806   6.376   9.165
 2591POPC   GL234814  20.430   6.456   9.105
 2591POPC   C1A34815  20.774   6.495   8.716
 2591POPC   D2A34816  20.493   6.567   8.350
 2591POPC   C3A34817  20.670   6.789   8.009
 2591POPC   C4A34818  20.885   6.484   7.780
 2591POPC   C1B34819  20.384   6.821   8.770
 2591POPC   C2B34820  20.106   6.905   8.380
 2591POPC   C3B34821  20.156   6.816   7.933
 2591POPC   C4B34822  20.370   7.061   7.618
 2592POPC   NC334823  15.090  35.666   9.524
 2592POPC   PO434824  14.894  35.047   9.732
 2592POPC   GL134825  15.002  35.230   9.269
 2592POPC   GL234826  14.822  35.508   9.107
 2592POPC   C1A34827  15.211  35.382   8.808
 2592POPC   D2A34828  15.094  35.545   8.364
 2592POPC   C3A34829  15.216  35.494   7.894
 2592POPC   C4A34830  15.043  35.615   7.458
 2592POPC   C1B34831  14.760  35.127   8.838
 2592POPC   C2B34832  14.918  34.986   8.452
 2592POPC   C3B34833  14.854  35.150   8.071
 2592POPC   C4B34834  14.976  35.116   7.625
 2593POPC   NC334835   0.434   7.665   9.682
 2593POPC   PO434836   0.371   7.009   9.626
 2593POPC   GL134837   0.361   7.311   9.300
 2593POPC   GL234838   0.651   7.333   9.151
 2593POPC   C1A34839   0.239   7.447   8.857
 2593POPC   D2A34840   0.343   7.353   8.410
 2593POPC   C3A34841   0.296   7.413   7.961
 2593POPC   C4A34842   0.135   7.077   7.685
 2593POPC   C1B34843   0.744   7.504   8.761
 2593POPC   C2B34844   0.862   7.311   8.403
 2593POPC   C3B34845   0.804   7.245   7.996
 2593POPC   C4B34846   0.774   7.322   7.577
 2594POPC   NC334847  40.441  42.438   9.689
 2594POPC   PO434848  41.054  42.148   9.573
 2594POPC   GL134849  40.811  42.377   9.225
 2594POPC   GL234850  40.450  42.344   9.164
 2594POPC   C1A34851  40.741  42.556   8.791
 2594POPC   D2A34852  40.945  42.321   8.474
 2594POPC   C3A34853  40.826  42.235   8.052
 2594POPC   C4A34854  40.772  42.649   7.899
 2594POPC   C1B34855  40.521  42.109   8.763
 2594POPC   C2B34856  40.395  41.919   8.369
 2594POPC   C3B34857  40.247  41.826   7.933
 2594POPC   C4B34858  40.496  41.990   7.580
 2595POPC   NC334859  43.306  15.972   9.469
 2595POPC   PO434860  42.629  15.910   9.645
 2595POPC   GL134861  42.808  16.089   9.246
 2595POPC   GL234862  42.965  15.760   9.165
 2595POPC   C1A34863  43.048  16.133   8.826
 2595POPC   D2A34864  43.324  15.955   8.470
 2595POPC   C3A34865  43.166  16.129   8.057
 2595POPC   C4A34866  42.818  16.434   7.889
 2595POPC   C1B34867  43.000  15.531   8.798
 2595POPC   C2B34868  43.036  15.386   8.403
 2595POPC   C3B34869  42.925  15.413   8.010
 2595POPC   C4B34870  43.172  15.661   7.832
 2596POPC   NC334871  16.658   3.165   9.439
 2596POPC   PO434872  16.738   2.486   9.532
 2596POPC   GL134873  16.906   2.476   9.146
 2596POPC   GL234874  16.945   2.820   9.153
 2596POPC   C1A34875  16.888   2.537   8.702
 2596POPC   D2A34876  16.689   2.777   8.352
 2596POPC   C3A34877  16.512   2.772   7.935
 2596POPC   C4A34878  16.774   2.637   7.586
 2596POPC   C1B34879  16.922   3.047   8.778
 2596POPC   C2B34880  16.951   3.223   8.382
 2596POPC   C3B34881  16.944   3.035   7.977
 2596POPC   C4B34882  17.047   3.094   7.569
 2597POPC   NC334883  40.517   3.692   9.279
 2597POPC   PO434884  40.993   3.307   9.510
 2597POPC   GL134885  40.994   3.542   9.126
 2597POPC   GL234886  40.756   3.310   9.035
 2597POPC   C1A34887  40.880   3.615   8.672
 2597POPC   D2A34888  40.583   3.665   8.347
 2597POPC   C3A34889  40.795   3.600   7.965
 2597POPC   C4A34890  40.984   3.531   7.575
 2597POPC   C1B34891  40.654   3.097   8.672
 2597POPC   C2B34892  40.613   3.109   8.257
 2597POPC   C3B34893  40.360   3.356   8.003
 2597POPC   C4B34894  40.450   3.419   7.534
 2598POPC   NC334895   1.538  39.413   9.485
 2598POPC   PO434896   2.152  39.015   9.440
 2598POPC   GL134897   1.865  39.173   9.201
 2598POPC   GL234898   1.596  38.955   9.156
 2598POPC   C1A34899   1.881  39.393   8.822
 2598POPC   D2A34900   2.218  39.385   8.508
 2598POPC   C3A34901   2.067  39.512   8.103
 2598POPC   C4A34902   1.947  39.421   7.686
 2598POPC   C1B34903   1.820  38.882   8.796
 2598POPC   C2B34904   1.809  39.099   8.399
 2598POPC   C3B34905   1.747  38.848   8.024
 2598POPC   C4B34906   1.786  38.943   7.601
 2599POPC   NC334907  19.343  21.862   9.438
 2599POPC   PO434908  19.052  21.211   9.459
 2599POPC   GL134909  19.092  21.528   9.116
 2599POPC   GL234910  19.455  21.595   8.999
 2599POPC   C1A34911  19.086  21.510   8.664
 2599POPC   D2A34912  18.968  21.468   8.261
 2599POPC   C3A34913  19.218  21.549   7.918
 2599POPC   C4A34914  19.059  21.276   7.559
 2599POPC   C1B34915  19.419  21.150   8.825
 2599POPC   C2B34916  19.249  21.021   8.390
 2599POPC   C3B34917  19.364  21.060   7.924
 2599POPC   C4B34918  19.405  20.873   7.483
 2600POPC   NC334919  11.081   8.631   9.626
 2600POPC   PO434920  11.410   7.935   9.703
 2600POPC   GL134921  11.513   8.057   9.303
 2600POPC   GL234922  11.431   8.421   9.251
 2600POPC   C1A34923  11.480   8.034   8.864
 2600POPC   D2A34924  11.602   8.207   8.460
 2600POPC   C3A34925  11.377   8.092   8.080
 2600POPC   C4A34926  11.554   8.235   7.684
 2600POPC   C1B34927  11.364   8.543   8.806
 2600POPC   C2B34928  11.164   8.464   8.405
 2600POPC   C3B34929  11.335   8.592   7.993
 2600POPC   C4B34930  11.084   8.416   7.652
 2601POPC   NC334931  40.057   9.650   9.700
 2601POPC   PO434932  39.424  10.007   9.623
 2601POPC   GL134933  39.799   9.895   9.302
 2601POPC   GL234934  40.189   9.785   9.219
 2601POPC   C1A34935  39.821   9.882   8.850
 2601POPC   D2A34936  39.723   9.552   8.556
 2601POPC   C3A34937  39.735   9.582   8.103
 2601POPC   C4A34938  39.791   9.933   7.822
 2601POPC   C1B34939  40.325   9.880   8.774
 2601POPC   C2B34940  40.128   9.860   8.334
 2601POPC   C3B34941  40.329   9.844   7.906
 2601POPC   C4B34942  40.430   9.936   7.456
 2602POPC   NC334943  15.118  38.960   9.622
 2602POPC   PO434944  14.872  38.269   9.572
 2602POPC   GL134945  15.087  38.317   9.215
 2602POPC   GL234946  15.295  38.612   9.279
 2602POPC   C1A34947  15.067  38.163   8.808
 2602POPC   D2A34948  14.960  38.273   8.387
 2602POPC   C3A34949  15.337  38.258   8.123
 2602POPC   C4A34950  15.291  38.244   7.693
 2602POPC   C1B34951  15.186  38.676   8.845
 2602POPC   C2B34952  15.228  38.741   8.409
 2602POPC   C3B34953  15.021  38.654   8.019
 2602POPC   C4B34954  15.177  38.740   7.622
 2603POPC   NC334955   4.616  33.860   9.458
 2603POPC   PO434956   5.166  34.150   9.641
 2603POPC   GL134957   5.198  33.887   9.242
 2603POPC   GL234958   4.881  33.818   9.026
 2603POPC   C1A34959   5.342  33.789   8.818
 2603POPC   D2A34960   5.079  33.774   8.457
 2603POPC   C3A34961   5.239  33.776   8.067
 2603POPC   C4A34962   5.234  34.071   7.752
 2603POPC   C1B34963   4.838  33.441   8.765
 2603POPC   C2B34964   4.985  33.243   8.399
 2603POPC   C3B34965   4.829  33.430   8.019
 2603POPC   C4B34966   4.793  33.815   7.813
 2604POPC   NC334967   9.242  28.672   9.287
 2604POPC   PO434968   8.653  28.994   9.537
 2604POPC   GL134969   8.880  29.037   9.128
 2604POPC   GL234970   8.852  28.678   8.957
 2604POPC   C1A34971   9.191  29.250   8.820
 2604POPC   D2A34972   9.290  29.393   8.395
 2604POPC   C3A34973   9.178  29.061   8.114
 2604POPC   C4A34974   9.296  28.900   7.735
 2604POPC   C1B34975   8.963  28.880   8.561
 2604POPC   C2B34976   8.796  29.275   8.415
 2604POPC   C3B34977   8.907  29.479   8.023
 2604POPC   C4B34978   8.851  29.129   7.725
 2605POPC   NC334979   6.907   4.312   9.583
 2605POPC   PO434980   6.242   4.165   9.600
 2605POPC   GL134981   6.497   4.080   9.189
 2605POPC   GL234982   6.818   4.225   9.108
 2605POPC   C1A34983   6.527   3.911   8.747
 2605POPC   D2A34984   6.249   3.967   8.378
 2605POPC   C3A34985   6.413   4.125   7.981
 2605POPC   C4A34986   6.827   4.055   7.819
 2605POPC   C1B34987   6.711   4.399   8.727
 2605POPC   C2B34988   6.780   4.323   8.311
 2605POPC   C3B34989   7.054   4.460   7.995
 2605POPC   C4B34990   6.992   4.510   7.550
 2606POPC   NC334991  37.644  23.227   9.634
 2606POPC   PO434992  37.492  23.881   9.513
 2606POPC   GL134993  37.674  23.600   9.229
 2606POPC   GL234994  37.971  23.808   9.092
 2606POPC   C1A34995  37.665  23.443   8.822
 2606POPC   D2A34996  37.947  23.613   8.540
 2606POPC   C3A34997  37.831  23.495   8.110
 2606POPC   C4A34998  37.374  23.398   8.013
 2606POPC   C1B34999  37.634  23.955   8.777
 2606POPC   C2B35000  37.486  23.752   8.382
 2606POPC   C3B35001  37.540  23.898   7.944
 2606POPC   C4B35002  37.268  24.184   7.730
 2607POPC   NC335003  41.359  30.478   9.439
 2607POPC   PO435004  41.575  31.026   9.487
 2607POPC   GL135005  41.352  30.914   9.088
 2607POPC   GL235006  41.165  30.606   8.981
 2607POPC   C1A35007  41.406  31.059   8.678
 2607POPC   D2A35008  41.596  30.820   8.353
 2607POPC   C3A35009  41.418  30.642   7.987
 2607POPC   C4A35010  41.659  30.661   7.610
 2607POPC   C1B35011  41.567  30.532   8.783
 2607POPC   C2B35012  41.701  30.333   8.392
 2607POPC   C3B35013  41.919  30.446   8.004
 2607POPC   C4B35014  41.954  30.230   7.603
 2608POPC   NC335015  10.455  44.313   9.474
 2608POPC   PO435016  10.725  44.932   9.559
 2608POPC   GL135017  10.829  44.676   9.240
 2608POPC   GL235018  10.496  44.693   9.134
 2608POPC   C1A35019  10.872  44.425   8.894
 2608POPC   D2A35020  10.639  44.497   8.503
 2608POPC   C3A35021  10.740  44.323   8.119
 2608POPC   C4A35022  10.414  44.294   7.830
 2608POPC   C1B35023  10.568  44.914   8.782
 2608POPC   C2B35024  10.352  44.984   8.414
 2608POPC   C3B35025  10.420  44.750   8.062
 2608POPC   C4B35026  10.786  44.747   7.818
 2609POPC   NC335027   4.989  37.555   9.537
 2609POPC   PO435028   5.559  37.688   9.806
 2609POPC   GL135029   5.405  37.664   9.283
 2609POPC   GL235030   5.077  37.517   9.052
 2609POPC   C1A35031   5.333  37.884   8.865
 2609POPC   D2A35032   5.159  37.757   8.456
 2609POPC   C3A35033   5.351  37.914   8.064
 2609POPC   C4A35034   5.229  37.939   7.611
 2609POPC   C1B35035   4.810  37.884   8.859
 2609POPC   C2B35036   4.721  38.059   8.441
 2609POPC   C3B35037   4.821  37.868   8.055
 2609POPC   C4B35038   4.906  37.567   7.755
 2610POPC   NC335039  31.070  10.529   9.420
 2610POPC   PO435040  31.710  10.401   9.145
 2610POPC   GL135041  31.302  10.503   8.974
 2610POPC   GL235042  31.169  10.839   9.034
 2610POPC   C1A35043  31.316  10.410   8.577
 2610POPC   D2A35044  31.733  10.477   8.461
 2610POPC   C3A35045  31.675  10.310   8.108
 2610POPC   C4A35046  31.311  10.197   7.829
 2610POPC   C1B35047  31.412  10.892   8.649
 2610POPC   C2B35048  31.340  10.820   8.218
 2610POPC   C3B35049  31.540  10.714   7.822
 2610POPC   C4B35050  31.954  10.762   7.673
 2611POPC   NC335051  14.407  25.952   9.584
 2611POPC   PO435052  14.959  26.361   9.488
 2611POPC   GL135053  14.640  26.179   9.147
 2611POPC   GL235054  14.243  26.112   9.145
 2611POPC   C1A35055  14.511  25.926   8.762
 2611POPC   D2A35056  14.313  25.987   8.363
 2611POPC   C3A35057  14.511  25.838   7.989
 2611POPC   C4A35058  14.339  25.688   7.592
 2611POPC   C1B35059  14.139  26.327   8.759
 2611POPC   C2B35060  14.112  26.587   8.406
 2611POPC   C3B35061  14.276  26.406   8.038
 2611POPC   C4B35062  14.079  26.082   7.785
 2612POPC   NC335063  16.594  31.668   9.686
 2612POPC   PO435064  17.107  31.767   9.461
 2612POPC   GL135065  16.800  31.517   9.165
 2612POPC   GL235066  16.822  31.150   9.166
 2612POPC   C1A35067  16.906  31.352   8.710
 2612POPC   D2A35068  16.786  31.276   8.272
 2612POPC   C3A35069  16.943  31.352   7.869
 2612POPC   C4A35070  16.831  31.679   7.576
 2612POPC   C1B35071  16.490  31.065   8.792
 2612POPC   C2B35072  16.386  30.993   8.311
 2612POPC   C3B35073  16.456  31.035   7.827
 2612POPC   C4B35074  16.274  31.382   7.482
 2613POPC   NC335075  30.167   8.709   9.527
 2613POPC   PO435076  30.148   7.942   9.623
 2613POPC   GL135077  30.239   8.033   9.180
 2613POPC   GL235078  30.133   8.397   9.080
 2613POPC   C1A35079  30.018   8.003   8.781
 2613POPC   D2A35080  29.912   7.808   8.380
 2613POPC   C3A35081  29.959   8.122   8.058
 2613POPC   C4A35082  29.842   8.203   7.631
 2613POPC   C1B35083  29.751   8.465   8.808
 2613POPC   C2B35084  29.718   8.557   8.359
 2613POPC   C3B35085  29.868   8.693   7.958
 2613POPC   C4B35086  30.240   8.498   7.825
 2614POPC   NC335087  18.754   8.055   9.438
 2614POPC   PO435088  18.234   8.340   9.644
 2614POPC   GL135089  18.338   8.326   9.220
 2614POPC   GL235090  18.002   8.270   9.147
 2614POPC   C1A35091  18.355   8.262   8.763
 2614POPC   D2A35092  18.289   7.989   8.386
 2614POPC   C3A35093  18.392   8.174   8.009
 2614POPC   C4A35094  18.646   8.191   7.639
 2614POPC   C1B35095  17.919   8.004   8.795
 2614POPC   C2B35096  17.783   7.985   8.363
 2614POPC   C3B35097  17.879   8.047   7.965
 2614POPC   C4B35098  18.071   8.152   7.611
 2615POPC   NC335099  26.410  11.938   9.521
 2615POPC   PO435100  25.935  12.395   9.665
 2615POPC   GL135101  25.822  12.305   9.233
 2615POPC   GL235102  26.154  12.222   9.170
 2615POPC   C1A35103  25.862  12.249   8.753
 2615POPC   D2A35104  25.997  12.067   8.330
 2615POPC   C3A35105  25.873  12.156   7.906
 2615POPC   C4A35106  26.117  12.229   7.532
 2615POPC   C1B35107  26.385  12.122   8.792
 2615POPC   C2B35108  26.514  12.030   8.362
 2615POPC   C3B35109  26.438  11.978   7.898
 2615POPC   C4B35110  26.460  11.860   7.453
 2616POPC   NC335111   1.254  27.689   9.611
 2616POPC   PO435112   0.934  27.235   9.225
 2616POPC   GL135113   1.028  27.626   9.146
 2616POPC   GL235114   1.380  27.613   9.119
 2616POPC   C1A35115   1.056  27.772   8.736
 2616POPC   D2A35116   1.194  27.698   8.342
 2616POPC   C3A35117   0.906  27.542   8.017
 2616POPC   C4A35118   1.018  27.776   7.685
 2616POPC   C1B35119   1.366  27.349   8.726
 2616POPC   C2B35120   1.478  27.294   8.292
 2616POPC   C3B35121   1.387  27.441   7.880
 2616POPC   C4B35122   1.645  27.388   7.541
 2617POPC   NC335123  38.708  12.535   9.509
 2617POPC   PO435124  38.303  13.129   9.525
 2617POPC   GL135125  38.472  12.976   9.179
 2617POPC   GL235126  38.374  12.639   9.111
 2617POPC   C1A35127  38.350  13.099   8.776
 2617POPC   D2A35128  38.377  12.881   8.388
 2617POPC   C3A35129  38.527  13.151   8.063
 2617POPC   C4A35130  38.449  13.014   7.667
 2617POPC   C1B35131  38.421  12.412   8.713
 2617POPC   C2B35132  38.233  12.333   8.356
 2617POPC   C3B35133  38.319  12.529   7.978
 2617POPC   C4B35134  38.096  12.631   7.636
 2618POPC   NC335135  33.389  20.103   9.599
 2618POPC   PO435136  34.098  20.138   9.657
 2618POPC   GL135137  33.965  20.013   9.192
 2618POPC   GL235138  33.938  19.643   9.161
 2618POPC   C1A35139  33.892  19.939   8.710
 2618POPC   D2A35140  34.085  19.732   8.326
 2618POPC   C3A35141  33.980  19.905   7.932
 2618POPC   C4A35142  33.711  19.793   7.596
 2618POPC   C1B35143  33.658  19.472   8.822
 2618POPC   C2B35144  33.726  19.368   8.383
 2618POPC   C3B35145  33.795  19.414   7.951
 2618POPC   C4B35146  33.439  19.388   7.666
 2619POPC   NC335147  34.287  25.753   9.576
 2619POPC   PO435148  34.852  26.088   9.658
 2619POPC   GL135149  34.733  26.224   9.225
 2619POPC   GL235150  34.422  26.066   9.167
 2619POPC   C1A35151  34.841  26.128   8.776
 2619POPC   D2A35152  34.642  26.157   8.375
 2619POPC   C3A35153  34.847  26.038   8.015
 2619POPC   C4A35154  34.752  25.927   7.628
 2619POPC   C1B35155  34.269  26.082   8.744
 2619POPC   C2B35156  34.210  25.883   8.343
 2619POPC   C3B35157  34.311  25.824   7.907
 2619POPC   C4B35158  34.280  25.385   7.775
 2620POPC   NC335159  38.753  35.434   9.466
 2620POPC   PO435160  38.203  35.874   9.621
 2620POPC   GL135161  38.247  35.666   9.187
 2620POPC   GL235162  37.968  35.404   9.175
 2620POPC   C1A35163  38.525  35.567   8.789
 2620POPC   D2A35164  38.670  35.356   8.387
 2620POPC   C3A35165  38.499  35.480   7.972
 2620POPC   C4A35166  38.537  35.517   7.504
 2620POPC   C1B35167  38.104  35.254   8.781
 2620POPC   C2B35168  38.186  35.204   8.378
 2620POPC   C3B35169  38.221  35.040   7.999
 2620POPC   C4B35170  38.091  35.311   7.670
 2621POPC   NC335171  32.738  23.892   9.338
 2621POPC   PO435172  33.359  23.635   9.560
 2621POPC   GL135173  33.228  23.927   9.266
 2621POPC   GL235174  33.091  23.624   9.087
 2621POPC   C1A35175  33.189  24.041   8.835
 2621POPC   D2A35176  33.247  23.680   8.559
 2621POPC   C3A35177  33.241  23.662   8.127
 2621POPC   C4A35178  33.147  23.833   7.719
 2621POPC   C1B35179  32.778  23.755   8.731
 2621POPC   C2B35180  32.835  23.922   8.314
 2621POPC   C3B35181  32.725  23.695   7.931
 2621POPC   C4B35182  32.744  23.597   7.453
 2622POPC   NC335183  10.890  33.837   9.546
 2622POPC   PO435184  11.398  33.483   9.657
 2622POPC   GL135185  11.396  33.692   9.245
 2622POPC   GL235186  11.229  33.989   9.180
 2622POPC   C1A35187  11.358  33.623   8.789
 2622POPC   D2A35188  11.297  33.827   8.364
 2622POPC   C3A35189  11.465  33.746   7.973
 2622POPC   C4A35190  11.352  33.579   7.598
 2622POPC   C1B35191  11.082  34.061   8.756
 2622POPC   C2B35192  11.065  34.305   8.360
 2622POPC   C3B35193  11.229  34.192   7.942
 2622POPC   C4B35194  11.166  34.107   7.488
 2623POPC   NC335195  38.688  32.442   9.535
 2623POPC   PO435196  38.119  32.048   9.434
 2623POPC   GL135197  38.334  32.329   9.156
 2623POPC   GL235198  38.649  32.495   9.017
 2623POPC   C1A35199  38.274  32.250   8.750
 2623POPC   D2A35200  38.448  32.415   8.384
 2623POPC   C3A35201  38.578  32.138   8.066
 2623POPC   C4A35202  38.708  32.271   7.663
 2623POPC   C1B35203  38.774  32.177   8.715
 2623POPC   C2B35204  38.986  32.296   8.380
 2623POPC   C3B35205  38.964  32.542   8.026
 2623POPC   C4B35206  39.020  32.749   7.650
 2624POPC   NC335207  31.738  20.388   9.390
 2624POPC   PO435208  31.113  20.637   9.544
 2624POPC   GL135209  31.303  20.609   9.181
 2624POPC   GL235210  31.287  20.265   9.164
 2624POPC   C1A35211  31.515  20.761   8.801
 2624POPC   D2A35212  31.573  20.931   8.386
 2624POPC   C3A35213  31.412  20.737   7.991
 2624POPC   C4A35214  31.645  20.501   7.670
 2624POPC   C1B35215  31.185  20.368   8.737
 2624POPC   C2B35216  31.448  20.371   8.347
 2624POPC   C3B35217  31.479  20.127   7.946
 2624POPC   C4B35218  31.249  20.183   7.500
 2625POPC   NC335219  22.386  40.411   9.629
 2625POPC   PO435220  22.219  39.804   9.542
 2625POPC   GL135221  22.187  40.028   9.179
 2625POPC   GL235222  22.521  40.123   9.222
 2625POPC   C1A35223  22.064  40.097   8.738
 2625POPC   D2A35224  22.244  39.935   8.344
 2625POPC   C3A35225  22.306  40.179   7.984
 2625POPC   C4A35226  21.974  40.405   7.755
 2625POPC   C1B35227  22.562  39.971   8.812
 2625POPC   C2B35228  22.597  39.643   8.541
 2625POPC   C3B35229  22.529  39.592   8.096
 2625POPC   C4B35230  22.486  39.765   7.683
 2626POPC   NC335231  24.762  19.069   9.481
 2626POPC   PO435232  24.069  19.267   9.421
 2626POPC   GL135233  24.424  19.281   9.185
 2626POPC   GL235234  24.427  18.955   9.074
 2626POPC   C1A35235  24.787  19.224   8.860
 2626POPC   D2A35236  24.998  19.157   8.481
 2626POPC   C3A35237  24.679  19.080   8.190
 2626POPC   C4A35238  24.633  19.283   7.821
 2626POPC   C1B35239  24.496  18.801   8.651
 2626POPC   C2B35240  24.193  18.831   8.316
 2626POPC   C3B35241  24.188  19.039   7.918
 2626POPC   C4B35242  23.943  18.903   7.544
 2627POPC   NC335243   2.187   9.195   9.422
 2627POPC   PO435244   1.976   8.536   9.493
 2627POPC   GL135245   1.906   8.840   9.138
 2627POPC   GL235246   2.138   9.084   8.942
 2627POPC   C1A35247   1.744   8.758   8.742
 2627POPC   D2A35248   1.882   8.694   8.314
 2627POPC   C3A35249   2.144   9.038   8.191
 2627POPC   C4A35250   2.248   9.024   7.776
 2627POPC   C1B35251   1.837   9.258   8.665
 2627POPC   C2B35252   1.621   9.163   8.297
 2627POPC   C3B35253   1.723   9.135   7.894
 2627POPC   C4B35254   1.974   9.436   7.750
 2628POPC   NC335255   1.200   9.353   9.407
 2628POPC   PO435256   1.367   9.992   9.612
 2628POPC   GL135257   1.153   9.858   9.232
 2628POPC   GL235258   1.470   9.732   9.172
 2628POPC   C1A35259   1.040   9.676   8.811
 2628POPC   D2A35260   0.801   9.576   8.425
 2628POPC   C3A35261   0.989   9.729   8.060
 2628POPC   C4A35262   0.983   9.638   7.613
 2628POPC   C1B35263   1.485   9.935   8.811
 2628POPC   C2B35264   1.451   9.652   8.446
 2628POPC   C3B35265   1.534   9.710   8.023
 2628POPC   C4B35266   1.331   9.983   7.713
 2629POPC   NC335267  13.473  29.161   9.627
 2629POPC   PO435268  13.987  29.536   9.479
 2629POPC   GL135269  13.696  29.315   9.184
 2629POPC   GL235270  13.582  29.014   9.165
 2629POPC   C1A35271  13.784  29.210   8.749
 2629POPC   D2A35272  13.736  29.426   8.386
 2629POPC   C3A35273  13.671  29.188   8.024
 2629POPC   C4A35274  13.967  28.935   7.763
 2629POPC   C1B35275  13.419  28.792   8.843
 2629POPC   C2B35276  13.421  28.945   8.450
 2629POPC   C3B35277  13.185  28.829   8.099
 2629POPC   C4B35278  13.386  28.880   7.721
 2630POPC   NC335279  11.557   4.322   9.389
 2630POPC   PO435280  11.066   4.794   9.560
 2630POPC   GL135281  11.173   4.574   9.174
 2630POPC   GL235282  10.948   4.332   9.064
 2630POPC   C1A35283  11.271   4.529   8.702
 2630POPC   D2A35284  11.079   4.367   8.278
 2630POPC   C3A35285  11.318   4.442   7.904
 2630POPC   C4A35286  11.704   4.313   7.690
 2630POPC   C1B35287  11.004   4.091   8.698
 2630POPC   C2B35288  11.047   3.810   8.353
 2630POPC   C3B35289  11.168   3.931   7.966
 2630POPC   C4B35290  11.246   4.056   7.561
 2631POPC   NC335291  10.134  43.521   9.889
 2631POPC   PO435292  10.734  43.275   9.709
 2631POPC   GL135293  10.547  43.153   9.312
 2631POPC   GL235294  10.231  43.272   9.260
 2631POPC   C1A35295  10.608  43.116   8.845
 2631POPC   D2A35296  10.705  42.804   8.516
 2631POPC   C3A35297  10.708  42.963   8.089
 2631POPC   C4A35298  10.675  43.002   7.658
 2631POPC   C1B35299  10.104  43.133   8.859
 2631POPC   C2B35300  10.295  43.150   8.438
 2631POPC   C3B35301  10.293  43.364   8.061
 2631POPC   C4B35302  10.213  43.040   7.815
 2632POPC   NC335303  33.171  10.022   9.565
 2632POPC   PO435304  32.883   9.363   9.699
 2632POPC   GL135305  32.957   9.531   9.288
 2632POPC   GL235306  32.877   9.873   9.163
 2632POPC   C1A35307  33.037   9.457   8.846
 2632POPC   D2A35308  33.178   9.614   8.443
 2632POPC   C3A35309  32.914   9.772   8.138
 2632POPC   C4A35310  32.763   9.508   7.829
 2632POPC   C1B35311  33.172   9.958   8.828
 2632POPC   C2B35312  33.448  10.048   8.466
 2632POPC   C3B35313  33.425   9.876   8.052
 2632POPC   C4B35314  33.507   9.563   7.764
 2633POPC   NC335315   8.034  44.556   9.579
 2633POPC   PO435316   8.544  44.900   9.615
 2633POPC   GL135317   8.367  44.619   9.208
 2633POPC   GL235318   8.004  44.764   9.127
 2633POPC   C1A35319   8.142  44.443   8.789
 2633POPC   D2A35320   7.942  44.620   8.417
 2633POPC   C3A35321   7.891  44.322   8.052
 2633POPC   C4A35322   8.232  44.221   7.818
 2633POPC   C1B35323   8.376  44.937   8.826
 2633POPC   C2B35324   8.555  44.935   8.401
 2633POPC   C3B35325   8.392   0.039   7.998
 2633POPC   C4B35326   8.094  44.742   7.860
 2634POPC   NC335327  11.994   8.781   9.555
 2634POPC   PO435328  12.116   9.393   9.781
 2634POPC   GL135329  12.164   9.218   9.331
 2634POPC   GL235330  11.832   9.182   9.224
 2634POPC   C1A35331  12.290   9.273   8.866
 2634POPC   D2A35332  12.141   9.229   8.377
 2634POPC   C3A35333  12.348   9.276   7.896
 2634POPC   C4A35334  12.326   9.325   7.396
 2634POPC   C1B35335  11.888   8.890   8.881
 2634POPC   C2B35336  11.732   8.734   8.474
 2634POPC   C3B35337  11.759   8.915   8.065
 2634POPC   C4B35338  11.754   8.698   7.677
 2635POPC   NC335339  31.209   5.989   9.756
 2635POPC   PO435340  30.586   6.089   9.428
 2635POPC   GL135341  30.652   5.900   9.028
 2635POPC   GL235342  30.613   6.256   8.951
 2635POPC   C1A35343  30.544   5.900   8.595
 2635POPC   D2A35344  30.259   6.010   8.294
 2635POPC   C3A35345  30.447   5.959   7.911
 2635POPC   C4A35346  30.719   5.646   7.694
 2635POPC   C1B35347  30.835   6.375   8.608
 2635POPC   C2B35348  30.874   6.108   8.274
 2635POPC   C3B35349  30.964   6.043   7.893
 2635POPC   C4B35350  31.156   6.382   7.685
 2636POPC   NC335351  16.381  42.945   9.443
 2636POPC   PO435352  16.832  42.328   9.518
 2636POPC   GL135353  16.849  42.237   9.101
 2636POPC   GL235354  16.494  42.144   9.098
 2636POPC   C1A35355  17.019  42.116   8.722
 2636POPC   D2A35356  16.890  42.190   8.320
 2636POPC   C3A35357  16.948  42.475   7.988
 2636POPC   C4A35358  16.799  42.424   7.556
 2636POPC   C1B35359  16.402  42.386   8.717
 2636POPC   C2B35360  16.492  42.535   8.288
 2636POPC   C3B35361  16.382  42.481   7.850
 2636POPC   C4B35362  16.391  42.701   7.412
 2637POPC   NC335363  21.646  17.148   9.435
 2637POPC   PO435364  21.084  16.954   9.712
 2637POPC   GL135365  21.202  17.236   9.244
 2637POPC   GL235366  21.331  17.568   9.124
 2637POPC   C1A35367  21.471  17.193   8.821
 2637POPC   D2A35368  21.408  17.095   8.401
 2637POPC   C3A35369  21.413  17.464   8.183
 2637POPC   C4A35370  21.471  17.619   7.772
 2637POPC   C1B35371  21.232  17.627   8.696
 2637POPC   C2B35372  20.931  17.597   8.388
 2637POPC   C3B35373  20.940  17.513   7.970
 2637POPC   C4B35374  21.035  17.857   7.736
 2638POPC   NC335375  17.311   1.588   9.523
 2638POPC   PO435376  17.367   2.181   9.729
 2638POPC   GL135377  17.380   2.080   9.283
 2638POPC   GL235378  17.627   1.822   9.157
 2638POPC   C1A35379  17.199   2.147   8.870
 2638POPC   D2A35380  17.220   2.255   8.425
 2638POPC   C3A35381  17.475   1.936   8.287
 2638POPC   C4A35382  17.553   1.760   7.864
 2638POPC   C1B35383  17.803   1.905   8.732
 2638POPC   C2B35384  18.025   1.621   8.428
 2638POPC   C3B35385  17.998   1.486   7.984
 2638POPC   C4B35386  17.943   1.592   7.510
 2639POPC   NC335387   6.427   7.169   9.496
 2639POPC   PO435388   6.725   6.525   9.346
 2639POPC   GL135389   6.698   6.779   8.993
 2639POPC   GL235390   6.386   6.960   9.029
 2639POPC   C1A35391   6.621   6.831   8.568
 2639POPC   D2A35392   6.367   7.051   8.312
 2639POPC   C3A35393   6.673   7.002   8.004
 2639POPC   C4A35394   6.827   6.626   7.911
 2639POPC   C1B35395   6.243   6.597   8.805
 2639POPC   C2B35396   6.089   6.541   8.368
 2639POPC   C3B35397   6.285   6.692   7.957
 2639POPC   C4B35398   6.457   6.609   7.536
 2640POPC   NC335399  37.736  37.800   9.585
 2640POPC   PO435400  37.205  37.518   9.784
 2640POPC   GL135401  37.342  37.660   9.294
 2640POPC   GL235402  37.733  37.553   9.150
 2640POPC   C1A35403  37.361  37.532   8.828
 2640POPC   D2A35404  37.681  37.500   8.495
 2640POPC   C3A35405  37.502  37.491   8.080
 2640POPC   C4A35406  37.311  37.509   7.682
 2640POPC   C1B35407  37.735  37.896   8.837
 2640POPC   C2B35408  37.880  38.018   8.403
 2640POPC   C3B35409  37.904  37.838   7.982
 2640POPC   C4B35410  38.040  37.824   7.552
 2641POPC   NC335411  14.136  44.766   9.604
 2641POPC   PO435412  14.442  44.163   9.638
 2641POPC   GL135413  14.478  44.430   9.216
 2641POPC   GL235414  14.423  44.798   9.163
 2641POPC   C1A35415  14.617  44.560   8.769
 2641POPC   D2A35416  14.435  44.424   8.401
 2641POPC   C3A35417  14.496  44.512   8.008
 2641POPC   C4A35418  14.541  44.443   7.576
 2641POPC   C1B35419  14.188  44.846   8.696
 2641POPC   C2B35420  14.110  44.763   8.215
 2641POPC   C3B35421  14.247  44.905   7.793
 2641POPC   C4B35422  14.517   0.197   7.519
 2642POPC   NC335423   2.568  32.808   9.445
 2642POPC   PO435424   3.122  33.228   9.578
 2642POPC   GL135425   2.936  33.099   9.194
 2642POPC   GL235426   2.972  32.769   9.102
 2642POPC   C1A35427   2.648  32.979   8.790
 2642POPC   D2A35428   2.757  32.638   8.486
 2642POPC   C3A35429   2.641  32.696   8.048
 2642POPC   C4A35430   2.712  33.115   7.878
 2642POPC   C1B35431   3.110  33.144   8.755
 2642POPC   C2B35432   2.939  33.130   8.383
 2642POPC   C3B35433   3.139  33.332   8.121
 2642POPC   C4B35434   3.177  33.233   7.738
 2643POPC   NC335435  15.627  10.362   9.571
 2643POPC   PO435436  16.201  10.785   9.503
 2643POPC   GL135437  15.940  10.563   9.202
 2643POPC   GL235438  15.951  10.196   9.183
 2643POPC   C1A35439  15.862  10.652   8.771
 2643POPC   D2A35440  16.160  10.739   8.447
 2643POPC   C3A35441  15.937  10.774   8.111
 2643POPC   C4A35442  15.530  10.831   8.077
 2643POPC   C1B35443  16.069  10.186   8.725
 2643POPC   C2B35444  15.812  10.304   8.336
 2643POPC   C3B35445  15.895  10.307   7.907
 2643POPC   C4B35446  16.292  10.471   7.907
 2644POPC   NC335447  31.864   9.095   9.537
 2644POPC   PO435448  31.275   9.301   9.452
 2644POPC   GL135449  31.415   8.896   9.237
 2644POPC   GL235450  31.764   8.812   9.117
 2644POPC   C1A35451  31.366   8.670   8.839
 2644POPC   D2A35452  31.204   8.709   8.427
 2644POPC   C3A35453  31.494   8.822   8.110
 2644POPC   C4A35454  31.366   8.945   7.688
 2644POPC   C1B35455  31.586   9.145   8.816
 2644POPC   C2B35456  31.419   9.257   8.403
 2644POPC   C3B35457  31.570   9.313   7.989
 2644POPC   C4B35458  31.846   9.029   7.741
 2645POPC   NC335459  36.363  33.062   9.542
 2645POPC   PO435460  35.727  33.138   9.695
 2645POPC   GL135461  35.888  33.126   9.251
 2645POPC   GL235462  36.076  32.828   9.169
 2645POPC   C1A35463  35.863  33.148   8.761
 2645POPC   D2A35464  35.777  33.263   8.310
 2645POPC   C3A35465  36.062  33.281   7.957
 2645POPC   C4A35466  36.112  32.998   7.592
 2645POPC   C1B35467  36.333  32.954   8.796
 2645POPC   C2B35468  36.270  33.065   8.357
 2645POPC   C3B35469  36.494  32.926   7.967
 2645POPC   C4B35470  36.602  32.623   7.618
 2646POPC   NC335471  29.924  25.161   9.553
 2646POPC   PO435472  30.058  25.770   9.750
 2646POPC   GL135473  30.128  25.671   9.278
 2646POPC   GL235474  30.188  25.336   9.169
 2646POPC   C1A35475  30.004  25.594   8.793
 2646POPC   D2A35476  30.137  25.309   8.422
 2646POPC   C3A35477  29.873  25.179   8.101
 2646POPC   C4A35478  29.813  25.352   7.727
 2646POPC   C1B35479  30.238  25.002   8.849
 2646POPC   C2B35480  30.490  24.925   8.453
 2646POPC   C3B35481  30.327  24.973   8.018
 2646POPC   C4B35482  30.049  24.894   7.651
 2647POPC   NC335483  20.189  38.028   9.438
 2647POPC   PO435484  20.509  37.433   9.632
 2647POPC   GL135485  20.702  37.493   9.223
 2647POPC   GL235486  20.791  37.816   9.237
 2647POPC   C1A35487  20.562  37.662   8.823
 2647POPC   D2A35488  20.798  37.800   8.484
 2647POPC   C3A35489  20.747  37.604   8.127
 2647POPC   C4A35490  20.530  37.488   7.776
 2647POPC   C1B35491  21.064  37.987   8.898
 2647POPC   C2B35492  21.055  38.237   8.544
 2647POPC   C3B35493  21.131  38.116   8.150
 2647POPC   C4B35494  20.985  37.915   7.813
 2648POPC   NC335495   1.722  11.938   9.558
 2648POPC   PO435496   2.265  12.341   9.476
 2648POPC   GL135497   1.931  12.222   9.186
 2648POPC   GL235498   1.960  11.928   9.110
 2648POPC   C1A35499   1.778  12.352   8.776
 2648POPC   D2A35500   1.949  12.253   8.364
 2648POPC   C3A35501   1.755  12.227   7.933
 2648POPC   C4A35502   1.824  12.312   7.491
 2648POPC   C1B35503   2.137  11.753   8.769
 2648POPC   C2B35504   2.151  11.559   8.390
 2648POPC   C3B35505   1.992  11.802   8.108
 2648POPC   C4B35506   1.964  11.822   7.690
 2649POPC   NC335507  29.060  32.465   9.801
 2649POPC   PO435508  28.966  33.117   9.534
 2649POPC   GL135509  28.982  33.034   9.112
 2649POPC   GL235510  29.253  32.794   9.213
 2649POPC   C1A35511  29.129  33.191   8.713
 2649POPC   D2A35512  29.216  33.408   8.355
 2649POPC   C3A35513  29.082  33.169   8.006
 2649POPC   C4A35514  29.297  33.201   7.630
 2649POPC   C1B35515  29.362  32.730   8.789
 2649POPC   C2B35516  29.466  32.940   8.407
 2649POPC   C3B35517  29.396  32.761   8.002
 2649POPC   C4B35518  29.109  32.740   7.666
 2650POPC   NC335519  41.183  40.895   9.312
 2650POPC   PO435520  41.637  40.387   9.506
 2650POPC   GL135521  41.708  40.711   9.176
 2650POPC   GL235522  41.895  41.053   9.206
 2650POPC   C1A35523  41.518  40.795   8.767
 2650POPC   D2A35524  41.460  40.640   8.371
 2650POPC   C3A35525  41.453  40.940   8.142
 2650POPC   C4A35526  41.479  40.780   7.760
 2650POPC   C1B35527  42.012  40.863   8.770
 2650POPC   C2B35528  41.932  40.836   8.316
 2650POPC   C3B35529  41.903  41.038   7.915
 2650POPC   C4B35530  41.840  40.925   7.469
 2651POPC   NC335531  29.675  29.345   9.637
 2651POPC   PO435532  30.196  28.963   9.758
 2651POPC   GL135533  29.851  28.903   9.374
 2651POPC   GL235534  29.695  29.213   9.156
 2651POPC   C1A35535  29.700  28.770   8.933
 2651POPC   D2A35536  29.826  28.839   8.494
 2651POPC   C3A35537  29.624  29.105   8.168
 2651POPC   C4A35538  29.806  29.199   7.775
 2651POPC   C1B35539  29.932  29.534   8.896
 2651POPC   C2B35540  30.084  29.608   8.475
 2651POPC   C3B35541  29.848  29.597   8.102
 2651POPC   C4B35542  29.994  29.646   7.693
 2652POPC   NC335543   6.991  21.848   9.331
 2652POPC   PO435544   6.581  22.264   9.581
 2652POPC   GL135545   6.783  22.323   9.157
 2652POPC   GL235546   7.054  22.586   9.055
 2652POPC   C1A35547   6.642  22.386   8.738
 2652POPC   D2A35548   6.843  22.474   8.326
 2652POPC   C3A35549   6.565  22.532   7.970
 2652POPC   C4A35550   6.337  22.249   7.698
 2652POPC   C1B35551   7.138  22.278   8.715
 2652POPC   C2B35552   6.875  21.982   8.447
 2652POPC   C3B35553   6.682  22.010   8.022
 2652POPC   C4B35554   6.745  22.009   7.565
 2653POPC   NC335555  37.884   0.913   9.533
 2653POPC   PO435556  37.623   1.508   9.521
 2653POPC   GL135557  37.599   1.450   9.145
 2653POPC   GL235558  37.724   1.166   9.124
 2653POPC   C1A35559  37.822   1.558   8.801
 2653POPC   D2A35560  37.977   1.398   8.444
 2653POPC   C3A35561  37.807   1.388   8.041
 2653POPC   C4A35562  37.663   1.368   7.612
 2653POPC   C1B35563  37.787   1.030   8.746
 2653POPC   C2B35564  37.572   1.053   8.359
 2653POPC   C3B35565  37.628   0.928   7.941
 2653POPC   C4B35566  37.682   0.866   7.508
 2654POPC   NC335567  17.266  41.162   9.520
 2654POPC   PO435568  17.715  40.699   9.444
 2654POPC   GL135569  17.576  40.586   9.059
 2654POPC   GL235570  17.497  40.946   9.049
 2654POPC   C1A35571  17.364  40.672   8.645
 2654POPC   D2A35572  17.435  40.864   8.240
 2654POPC   C3A35573  17.274  40.589   7.919
 2654POPC   C4A35574  17.083  40.473   7.519
 2654POPC   C1B35575  17.854  40.866   8.743
 2654POPC   C2B35576  17.940  41.040   8.330
 2654POPC   C3B35577  17.722  41.181   7.948
 2654POPC   C4B35578  17.692  40.980   7.553
 2655POPC   NC335579  42.738  42.962   9.543
 2655POPC   PO435580  42.072  42.799   9.450
 2655POPC   GL135581  42.302  42.974   9.133
 2655POPC   GL235582  42.530  42.733   9.078
 2655POPC   C1A35583  42.223  43.182   8.740
 2655POPC   D2A35584  41.998  43.393   8.415
 2655POPC   C3A35585  42.205  43.432   8.025
 2655POPC   C4A35586  42.628  43.272   7.922
 2655POPC   C1B35587  42.644  42.884   8.671
 2655POPC   C2B35588  42.418  42.971   8.283
 2655POPC   C3B35589  42.165  42.962   7.906
 2655POPC   C4B35590  42.143  42.751   7.530
 2656POPC   NC335591  25.407  35.939   9.679
 2656POPC   PO435592  24.811  36.145   9.668
 2656POPC   GL135593  25.107  36.108   9.288
 2656POPC   GL235594  25.311  35.825   9.166
 2656POPC   C1A35595  25.149  36.283   8.861
 2656POPC   D2A35596  24.966  36.408   8.461
 2656POPC   C3A35597  25.310  36.471   8.123
 2656POPC   C4A35598  25.167  36.542   7.699
 2656POPC   C1B35599  25.125  35.772   8.744
 2656POPC   C2B35600  25.197  35.968   8.329
 2656POPC   C3B35601  24.968  36.125   7.973
 2656POPC   C4B35602  24.960  35.958   7.532
 2657POPC   NC335603  15.590  23.246   9.584
 2657POPC   PO435604  15.768  22.687   9.342
 2657POPC   GL135605  15.739  23.023   9.082
 2657POPC   GL235606  16.073  23.064   9.079
 2657POPC   C1A35607  15.716  23.003   8.631
 2657POPC   D2A35608  15.674  23.151   8.217
 2657POPC   C3A35609  15.943  23.042   7.912
 2657POPC   C4A35610  16.270  23.316   7.852
 2657POPC   C1B35611  16.233  23.028   8.690
 2657POPC   C2B35612  16.195  22.866   8.330
 2657POPC   C3B35613  16.448  22.838   8.006
 2657POPC   C4B35614  16.342  22.858   7.626
 2658POPC   NC335615  17.124  21.657   9.623
 2658POPC   PO435616  16.421  21.636   9.527
 2658POPC   GL135617  16.624  21.378   9.182
 2658POPC   GL235618  16.993  21.307   9.235
 2658POPC   C1A35619  16.536  21.240   8.738
 2658POPC   D2A35620  16.651  21.339   8.311
 2658POPC   C3A35621  16.359  21.504   8.009
 2658POPC   C4A35622  16.552  21.512   7.624
 2658POPC   C1B35623  17.042  21.223   8.791
 2658POPC   C2B35624  17.125  21.078   8.368
 2658POPC   C3B35625  16.947  21.072   7.963
 2658POPC   C4B35626  17.189  21.007   7.608
 2659POPC   NC335627  40.228  37.295   9.521
 2659POPC   PO435628  39.708  37.792   9.464
 2659POPC   GL135629  39.885  37.511   9.204
 2659POPC   GL235630  40.250  37.607   9.130
 2659POPC   C1A35631  39.796  37.373   8.808
 2659POPC   D2A35632  40.058  37.445   8.432
 2659POPC   C3A35633  39.826  37.611   8.075
 2659POPC   C4A35634  39.698  37.484   7.668
 2659POPC   C1B35635  40.041  37.829   8.787
 2659POPC   C2B35636  40.161  37.996   8.373
 2659POPC   C3B35637  40.298  37.847   7.959
 2659POPC   C4B35638  40.059  37.813   7.567
 2660POPC   NC335639   0.778   7.943   9.239
 2660POPC   PO435640   0.127   7.971   9.503
 2660POPC   GL135641   0.310   8.333   9.235
 2660POPC   GL235642   0.664   8.435   9.112
 2660POPC   C1A35643   0.284   8.279   8.804
 2660POPC   D2A35644   0.389   8.362   8.394
 2660POPC   C3A35645   0.202   8.098   8.080
 2660POPC   C4A35646   0.222   8.366   7.749
 2660POPC   C1B35647   0.854   8.323   8.695
 2660POPC   C2B35648   0.910   8.497   8.275
 2660POPC   C3B35649   0.695   8.220   7.987
 2660POPC   C4B35650   0.687   7.760   7.892
 2661POPC   NC335651   2.703  12.121   9.493
 2661POPC   PO435652   3.133  11.633   9.444
 2661POPC   GL135653   2.794  11.760   9.093
 2661POPC   GL235654   2.473  11.985   9.085
 2661POPC   C1A35655   2.624  11.767   8.637
 2661POPC   D2A35656   2.573  11.781   8.179
 2661POPC   C3A35657   2.792  12.105   8.009
 2661POPC   C4A35658   3.076  12.267   7.750
 2661POPC   C1B35659   2.301  12.248   8.785
 2661POPC   C2B35660   2.450  12.252   8.372
 2661POPC   C3B35661   2.289  12.195   7.957
 2661POPC   C4B35662   2.320  12.150   7.534
 2662POPC   NC335663  41.801  24.389   9.715
 2662POPC   PO435664  41.479  24.926   9.547
 2662POPC   GL135665  41.461  24.656   9.214
 2662POPC   GL235666  41.811  24.536   9.213
 2662POPC   C1A35667  41.218  24.553   8.841
 2662POPC   D2A35668  41.307  24.279   8.496
 2662POPC   C3A35669  41.316  24.413   8.062
 2662POPC   C4A35670  41.448  24.274   7.662
 2662POPC   C1B35671  41.685  24.306   8.848
 2662POPC   C2B35672  41.804  24.178   8.428
 2662POPC   C3B35673  41.810  24.240   8.008
 2662POPC   C4B35674  41.892  23.971   7.660
 2663POPC   NC335675  38.119  29.034   9.491
 2663POPC   PO435676  37.463  29.030   9.643
 2663POPC   GL135677  37.678  29.264   9.296
 2663POPC   GL235678  37.720  28.938   9.176
 2663POPC   C1A35679  37.877  29.484   8.904
 2663POPC   D2A35680  38.081  29.336   8.503
 2663POPC   C3A35681  37.771  29.162   8.232
 2663POPC   C4A35682  37.713  29.296   7.813
 2663POPC   C1B35683  37.943  28.975   8.811
 2663POPC   C2B35684  38.066  28.757   8.435
 2663POPC   C3B35685  38.085  28.823   7.980
 2663POPC   C4B35686  37.782  28.794   7.653
 2664POPC   NC335687   4.590  39.839   9.623
 2664POPC   PO435688   4.009  40.254   9.588
 2664POPC   GL135689   4.127  40.032   9.228
 2664POPC   GL235690   4.493  40.083   9.190
 2664POPC   C1A35691   4.035  40.094   8.797
 2664POPC   D2A35692   4.224  40.078   8.402
 2664POPC   C3A35693   4.006  40.128   8.011
 2664POPC   C4A35694   4.153  40.001   7.574
 2664POPC   C1B35695   4.510  40.293   8.782
 2664POPC   C2B35696   4.538  40.486   8.374
 2664POPC   C3B35697   4.501  40.317   7.980
 2664POPC   C4B35698   4.241  40.489   7.723
 2665POPC   NC335699  43.488  40.633   9.711
 2665POPC   PO435700  44.196  40.740   9.550
 2665POPC   GL135701  44.000  40.875   9.189
 2665POPC   GL235702  44.035  40.553   9.071
 2665POPC   C1A35703  43.899  40.904   8.743
 2665POPC   D2A35704  43.825  40.740   8.362
 2665POPC   C3A35705  43.753  41.071   8.079
 2665POPC   C4A35706  43.854  41.070   7.675
 2665POPC   C1B35707  44.046  40.362   8.696
 2665POPC   C2B35708  44.207  40.399   8.288
 2665POPC   C3B35709  43.991  40.437   7.918
 2665POPC   C4B35710  44.152  40.342   7.496
 2666POPC   NC335711  37.256  11.433   9.526
 2666POPC   PO435712  36.726  11.186   9.447
 2666POPC   GL135713  37.045  11.185   9.115
 2666POPC   GL235714  36.823  11.342   8.923
 2666POPC   C1A35715  37.300  11.300   8.723
 2666POPC   D2A35716  37.034  11.339   8.358
 2666POPC   C3A35717  37.051  11.195   7.931
 2666POPC   C4A35718  36.949  11.422   7.490
 2666POPC   C1B35719  36.517  11.284   8.625
 2666POPC   C2B35720  36.542  11.381   8.213
 2666POPC   C3B35721  36.574  11.367   7.820
 2666POPC   C4B35722  36.704  10.989   7.633
 2667POPC   NC335723   2.937   9.565   9.573
 2667POPC   PO435724   2.362  10.013   9.515
 2667POPC   GL135725   2.724   9.895   9.216
 2667POPC   GL235726   2.764   9.532   9.116
 2667POPC   C1A35727   2.798   9.882   8.758
 2667POPC   D2A35728   2.942   9.680   8.388
 2667POPC   C3A35729   2.785   9.838   8.000
 2667POPC   C4A35730   2.918   9.869   7.594
 2667POPC   C1B35731   2.853   9.335   8.766
 2667POPC   C2B35732   2.679   9.239   8.387
 2667POPC   C3B35733   2.904   9.341   8.014
 2667POPC   C4B35734   2.703   9.238   7.669
 2668POPC   NC335735   5.513   6.773   9.408
 2668POPC   PO435736   5.971   7.175   9.442
 2668POPC   GL135737   5.881   6.952   9.085
 2668POPC   GL235738   5.947   6.607   9.196
 2668POPC   C1A35739   5.973   6.975   8.642
 2668POPC   D2A35740   5.848   6.989   8.234
 2668POPC   C3A35741   5.787   6.674   7.948
 2668POPC   C4A35742   5.978   6.759   7.525
 2668POPC   C1B35743   5.732   6.539   8.793
 2668POPC   C2B35744   5.557   6.171   8.580
 2668POPC   C3B35745   5.412   6.147   8.177
 2668POPC   C4B35746   5.500   6.309   7.758
 2669POPC   NC335747  24.092  14.096   9.464
 2669POPC   PO435748  24.716  14.511   9.532
 2669POPC   GL135749  24.669  14.318   9.195
 2669POPC   GL235750  24.329  14.410   9.127
 2669POPC   C1A35751  24.742  14.385   8.798
 2669POPC   D2A35752  24.828  14.621   8.495
 2669POPC   C3A35753  24.823  14.371   8.164
 2669POPC   C4A35754  24.675  14.378   7.784
 2669POPC   C1B35755  24.363  14.066   8.809
 2669POPC   C2B35756  24.292  14.178   8.385
 2669POPC   C3B35757  24.049  13.980   8.044
 2669POPC   C4B35758  24.211  14.035   7.670
 2670POPC   NC335759  31.989  35.611   9.208
 2670POPC   PO435760  32.482  35.384   9.498
 2670POPC   GL135761  32.367  35.287   9.092
 2670POPC   GL235762  32.077  35.131   9.024
 2670POPC   C1A35763  32.337  35.563   8.699
 2670POPC   D2A35764  32.526  35.516   8.343
 2670POPC   C3A35765  32.344  35.593   7.987
 2670POPC   C4A35766  32.149  35.389   7.699
 2670POPC   C1B35767  32.230  35.080   8.597
 2670POPC   C2B35768  32.247  35.088   8.131
 2670POPC   C3B35769  31.985  34.943   7.799
 2670POPC   C4B35770  31.812  35.138   7.412
 2671POPC   NC335771  38.554  24.544   9.522
 2671POPC   PO435772  37.943  24.613   9.437
 2671POPC   GL135773  38.227  24.683   9.130
 2671POPC   GL235774  38.371  24.336   9.078
 2671POPC   C1A35775  38.092  24.686   8.706
 2671POPC   D2A35776  37.959  24.535   8.278
 2671POPC   C3A35777  38.193  24.677   7.951
 2671POPC   C4A35778  38.610  24.610   7.839
 2671POPC   C1B35779  38.595  24.526   8.730
 2671POPC   C2B35780  38.828  24.551   8.331
 2671POPC   C3B35781  39.007  24.319   7.986
 2671POPC   C4B35782  38.868  24.264   7.546
 2672POPC   NC335783  29.097  35.004   9.440
 2672POPC   PO435784  29.276  35.612   9.619
 2672POPC   GL135785  29.281  35.457   9.180
 2672POPC   GL235786  29.431  35.114   9.085
 2672POPC   C1A35787  29.112  35.478   8.751
 2672POPC   D2A35788  28.847  35.250   8.453
 2672POPC   C3A35789  28.842  35.371   8.004
 2672POPC   C4A35790  29.160  35.426   7.688
 2672POPC   C1B35791  29.205  34.940   8.751
 2672POPC   C2B35792  29.287  34.784   8.362
 2672POPC   C3B35793  29.232  35.019   8.000
 2672POPC   C4B35794  29.390  34.911   7.614
 2673POPC   NC335795  16.254  22.877   9.510
 2673POPC   PO435796  16.857  23.166   9.654
 2673POPC   GL135797  16.829  22.860   9.298
 2673POPC   GL235798  16.572  22.955   9.112
 2673POPC   C1A35799  16.836  22.612   8.868
 2673POPC   D2A35800  16.658  22.679   8.462
 2673POPC   C3A35801  16.920  22.651   8.110
 2673POPC   C4A35802  16.863  22.744   7.683
 2673POPC   C1B35803  16.742  23.099   8.722
 2673POPC   C2B35804  16.604  23.210   8.338
 2673POPC   C3B35805  16.838  23.166   7.988
 2673POPC   C4B35806  16.705  23.218   7.617
 2674POPC   NC335807   5.065   2.527   9.588
 2674POPC   PO435808   5.258   3.204   9.431
 2674POPC   GL135809   4.993   2.891   9.191
 2674POPC   GL235810   5.262   2.655   9.126
 2674POPC   C1A35811   4.900   2.703   8.764
 2674POPC   D2A35812   5.166   2.714   8.369
 2674POPC   C3A35813   5.003   2.539   8.022
 2674POPC   C4A35814   4.842   2.711   7.658
 2674POPC   C1B35815   5.373   2.471   8.741
 2674POPC   C2B35816   5.290   2.198   8.348
 2674POPC   C3B35817   5.351   2.192   7.887
 2674POPC   C4B35818   5.262   2.484   7.534
 2675POPC   NC335819  26.416  20.836   9.428
 2675POPC   PO435820  25.899  20.602   9.832
 2675POPC   GL135821  25.780  20.558   9.340
 2675POPC   GL235822  26.058  20.640   9.074
 2675POPC   C1A35823  25.624  20.460   8.883
 2675POPC   D2A35824  25.943  20.606   8.535
 2675POPC   C3A35825  25.874  20.521   8.104
 2675POPC   C4A35826  26.107  20.352   7.732
 2675POPC   C1B35827  25.784  20.947   8.884
 2675POPC   C2B35828  25.714  21.059   8.457
 2675POPC   C3B35829  25.959  21.059   8.082
 2675POPC   C4B35830  25.891  20.826   7.708
 2676POPC   NC335831  39.483  11.294   9.461
 2676POPC   PO435832  38.823  11.491   9.510
 2676POPC   GL135833  39.053  11.355   9.152
 2676POPC   GL235834  39.279  11.623   9.144
 2676POPC   C1A35835  39.103  11.461   8.689
 2676POPC   D2A35836  38.984  11.631   8.277
 2676POPC   C3A35837  39.178  11.420   7.940
 2676POPC   C4A35838  39.375  11.038   7.852
 2676POPC   C1B35839  39.576  11.628   8.762
 2676POPC   C2B35840  39.502  11.446   8.351
 2676POPC   C3B35841  39.711  11.401   7.950
 2676POPC   C4B35842  39.575  11.377   7.513
 2677POPC   NC335843  37.874  24.169   9.507
 2677POPC   PO435844  37.390  24.729   9.473
 2677POPC   GL135845  37.575  24.564   9.080
 2677POPC   GL235846  37.862  24.322   9.038
 2677POPC   C1A35847  37.624  24.475   8.644
 2677POPC   D2A35848  37.499  24.253   8.318
 2677POPC   C3A35849  37.496  24.549   8.015
 2677POPC   C4A35850  37.764  24.529   7.716
 2677POPC   C1B35851  38.072  24.172   8.667
 2677POPC   C2B35852  37.945  24.023   8.267
 2677POPC   C3B35853  38.057  24.165   7.890
 2677POPC   C4B35854  38.013  24.158   7.439
 2678POPC   NC335855   6.807  14.014   9.404
 2678POPC   PO435856   6.535  14.657   9.544
 2678POPC   GL135857   6.524  14.383   9.211
 2678POPC   GL235858   6.857  14.479   9.159
 2678POPC   C1A35859   6.527  14.106   8.833
 2678POPC   D2A35860   6.379  14.255   8.455
 2678POPC   C3A35861   6.551  14.243   8.072
 2678POPC   C4A35862   6.750  14.563   7.832
 2678POPC   C1B35863   7.020  14.248   8.816
 2678POPC   C2B35864   6.889  14.077   8.443
 2678POPC   C3B35865   7.055  14.188   8.055
 2678POPC   C4B35866   7.203  14.375   7.694
 2679POPC   NC335867  18.216  31.467   9.544
 2679POPC   PO435868  17.963  32.103   9.442
 2679POPC   GL135869  18.017  31.733   9.127
 2679POPC   GL235870  18.075  31.343   9.059
 2679POPC   C1A35871  18.417  31.651   8.883
 2679POPC   D2A35872  18.479  31.259   8.630
 2679POPC   C3A35873  18.456  31.248   8.174
 2679POPC   C4A35874  18.418  31.482   7.798
 2679POPC   C1B35875  18.014  31.528   8.616
 2679POPC   C2B35876  18.125  31.653   8.177
 2679POPC   C3B35877  17.902  31.639   7.745
 2679POPC   C4B35878  17.805  31.520   7.271
 2680POPC   NC335879   1.669  37.007   9.477
 2680POPC   PO435880   2.305  36.668   9.570
 2680POPC   GL135881   2.084  36.832   9.204
 2680POPC   GL235882   1.974  37.165   9.072
 2680POPC   C1A35883   2.019  36.695   8.796
 2680POPC   D2A35884   1.917  36.659   8.375
 2680POPC   C3A35885   2.226  36.689   8.043
 2680POPC   C4A35886   2.049  36.766   7.649
 2680POPC   C1B35887   1.712  37.077   8.708
 2680POPC   C2B35888   1.693  37.107   8.305
 2680POPC   C3B35889   1.972  37.133   8.013
 2680POPC   C4B35890   1.778  37.197   7.626
 2681POPC   NC335891   3.124  11.228   9.653
 2681POPC   PO435892   2.582  10.955   9.410
 2681POPC   GL135893   2.849  11.234   9.128
 2681POPC   GL235894   3.211  11.329   9.052
 2681POPC   C1A35895   2.852  11.297   8.682
 2681POPC   D2A35896   2.595  11.291   8.325
 2681POPC   C3A35897   2.738  11.178   7.918
 2681POPC   C4A35898   2.812  11.397   7.543
 2681POPC   C1B35899   3.351  11.243   8.619
 2681POPC   C2B35900   3.133  11.092   8.248
 2681POPC   C3B35901   3.242  11.168   7.812
 2681POPC   C4B35902   3.300  11.275   7.390
 2682POPC   NC335903   4.529  43.081   9.564
 2682POPC   PO435904   5.135  43.480   9.521
 2682POPC   GL135905   5.021  43.160   9.217
 2682POPC   GL235906   5.263  42.858   9.161
 2682POPC   C1A35907   4.873  43.042   8.859
 2682POPC   D2A35908   4.942  43.362   8.538
 2682POPC   C3A35909   5.066  43.190   8.155
 2682POPC   C4A35910   5.118  43.081   7.730
 2682POPC   C1B35911   5.380  43.093   8.793
 2682POPC   C2B35912   5.539  43.121   8.391
 2682POPC   C3B35913   5.548  43.183   7.958
 2682POPC   C4B35914   5.513  42.764   7.728
 2683POPC   NC335915  37.659  39.633   9.459
 2683POPC   PO435916  37.841  39.002   9.575
 2683POPC   GL135917  37.962  38.986   9.164
 2683POPC   GL235918  38.049  39.336   9.178
 2683POPC   C1A35919  37.857  38.885   8.708
 2683POPC   D2A35920  37.826  39.173   8.352
 2683POPC   C3A35921  37.600  39.102   7.979
 2683POPC   C4A35922  37.811  38.808   7.737
 2683POPC   C1B35923  37.748  39.366   8.845
 2683POPC   C2B35924  37.714  39.652   8.505
 2683POPC   C3B35925  37.728  39.599   8.060
 2683POPC   C4B35926  37.627  39.596   7.648
 2684POPC   NC335927  31.560   9.658   9.391
 2684POPC   PO435928  31.611  10.243   9.633
 2684POPC   GL135929  31.296  10.082   9.270
 2684POPC   GL235930  31.107   9.731   9.209
 2684POPC   C1A35931  31.368   9.970   8.820
 2684POPC   D2A35932  31.659   9.691   8.572
 2684POPC   C3A35933  31.683   9.797   8.133
 2684POPC   C4A35934  31.622   9.759   7.682
 2684POPC   C1B35935  31.196   9.506   8.815
 2684POPC   C2B35936  31.147   9.703   8.430
 2684POPC   C3B35937  31.046   9.606   8.051
 2684POPC   C4B35938  31.173   9.463   7.698
 2685POPC   NC335939  28.547  10.392   9.625
 2685POPC   PO435940  28.186  10.869   9.456
 2685POPC   GL135941  28.302  10.682   9.079
 2685POPC   GL235942  28.400  10.335   9.093
 2685POPC   C1A35943  28.106  10.534   8.684
 2685POPC   D2A35944  27.998  10.248   8.342
 2685POPC   C3A35945  28.204  10.444   8.017
 2685POPC   C4A35946  28.360  10.839   7.936
 2685POPC   C1B35947  28.643  10.526   8.709
 2685POPC   C2B35948  28.723  10.595   8.226
 2685POPC   C3B35949  28.651  10.483   7.738
 2685POPC   C4B35950  28.683  10.850   7.404
 2686POPC   NC335951  11.914  29.618   9.394
 2686POPC   PO435952  12.189  29.005   9.459
 2686POPC   GL135953  12.329  29.115   9.060
 2686POPC   GL235954  12.325  29.468   9.063
 2686POPC   C1A35955  12.403  29.189   8.615
 2686POPC   D2A35956  12.103  29.075   8.284
 2686POPC   C3A35957  12.176  29.068   7.860
 2686POPC   C4A35958  11.879  29.243   7.643
 2686POPC   C1B35959  11.970  29.506   8.739
 2686POPC   C2B35960  12.007  29.622   8.303
 2686POPC   C3B35961  12.287  29.542   7.974
 2686POPC   C4B35962  12.325  29.482   7.519
 2687POPC   NC335963  44.749  35.448   9.620
 2687POPC   PO435964  44.752  34.797   9.527
 2687POPC   GL135965  44.528  35.188   9.212
 2687POPC   GL235966  44.692  35.513   9.114
 2687POPC   C1A35967  44.315  35.438   8.785
 2687POPC   D2A35968  44.248  35.484   8.307
 2687POPC   C3A35969  44.632  35.420   8.033
 2687POPC   C4A35970  44.860  35.171   7.690
 2687POPC   C1B35971  44.753  35.774   8.725
 2687POPC   C2B35972  44.959  35.806   8.300
 2687POPC   C3B35973   0.042  35.666   7.853
 2687POPC   C4B35974  44.954  35.585   7.399
 2688POPC   NC335975  15.522  22.302   9.259
 2688POPC   PO435976  16.072  22.470   9.698
 2688POPC   GL135977  16.026  22.293   9.190
 2688POPC   GL235978  15.939  21.953   9.107
 2688POPC   C1A35979  15.834  22.461   8.723
 2688POPC   D2A35980  15.759  22.615   8.280
 2688POPC   C3A35981  16.040  22.529   7.942
 2688POPC   C4A35982  16.080  22.457   7.484
 2688POPC   C1B35983  15.723  21.949   8.669
 2688POPC   C2B35984  15.832  22.093   8.234
 2688POPC   C3B35985  16.098  22.023   7.862
 2688POPC   C4B35986  15.891  22.002   7.460
 2689POPC   NC335987  10.362   8.781   9.738
 2689POPC   PO435988   9.723   9.012   9.538
 2689POPC   GL135989   9.664   8.849   9.133
 2689POPC   GL235990   9.628   9.204   9.079
 2689POPC   C1A35991   9.842   8.886   8.701
 2689POPC   D2A35992   9.720   9.118   8.311
 2689POPC   C3A35993   9.598   8.766   8.032
 2689POPC   C4A35994   9.902   8.585   7.742
 2689POPC   C1B35995   9.910   9.390   8.796
 2689POPC   C2B35996  10.127   9.470   8.433
 2689POPC   C3B35997  10.077   9.391   7.997
 2689POPC   C4B35998   9.834   9.103   7.739
 2690POPC   NC335999  39.919  26.257   9.631
 2690POPC   PO436000  39.647  25.934   9.140
 2690POPC   GL136001  40.017  25.942   9.027
 2690POPC   GL236002  40.135  26.155   9.190
 2690POPC   C1A36003  40.230  25.906   8.695
 2690POPC   D2A36004  40.369  26.070   8.379
 2690POPC   C3A36005  40.077  25.909   8.117
 2690POPC   C4A36006  40.103  25.913   7.706
 2690POPC   C1B36007  40.247  26.392   8.825
 2690POPC   C2B36008  40.292  26.571   8.408
 2690POPC   C3B36009  40.248  26.398   7.977
 2690POPC   C4B36010  39.942  26.399   7.627
 2691POPC   NC336011  26.087  37.582   9.543
 2691POPC   PO436012  25.674  38.019   9.641
 2691POPC   GL136013  25.852  37.919   9.238
 2691POPC   GL236014  26.198  37.855   9.131
 2691POPC   C1A36015  25.824  37.784   8.821
 2691POPC   D2A36016  25.978  37.625   8.440
 2691POPC   C3A36017  25.719  37.530   8.081
 2691POPC   C4A36018  25.728  37.282   7.756
 2691POPC   C1B36019  26.357  37.587   8.831
 2691POPC   C2B36020  26.467  37.480   8.412
 2691POPC   C3B36021  26.228  37.384   8.039
 2691POPC   C4B36022  26.131  37.630   7.703
 2692POPC   NC336023  20.910   1.086   9.517
 2692POPC   PO436024  20.530   1.569   9.636
 2692POPC   GL136025  20.540   1.339   9.212
 2692POPC   GL236026  20.511   0.955   9.207
 2692POPC   C1A36027  20.422   1.207   8.765
 2692POPC   D2A36028  20.261   1.188   8.340
 2692POPC   C3A36029  20.627   1.208   8.104
 2692POPC   C4A36030  20.713   1.449   7.769
 2692POPC   C1B36031  20.825   0.910   8.868
 2692POPC   C2B36032  20.923   0.905   8.438
 2692POPC   C3B36033  20.898   0.733   8.035
 2692POPC   C4B36034  20.748   0.932   7.655
 2693POPC   NC336035  29.508  37.064   9.528
 2693POPC   PO436036  28.843  37.132   9.471
 2693POPC   GL136037  28.987  36.777   9.184
 2693POPC   GL236038  29.322  36.636   9.234
 2693POPC   C1A36039  29.082  36.891   8.754
 2693POPC   D2A36040  29.023  37.108   8.372
 2693POPC   C3A36041  29.002  36.980   7.952
 2693POPC   C4A36042  29.256  37.100   7.604
 2693POPC   C1B36043  29.576  36.827   8.894
 2693POPC   C2B36044  29.610  36.774   8.437
 2693POPC   C3B36045  29.520  36.892   8.000
 2693POPC   C4B36046  29.673  36.754   7.583
 2694POPC   NC336047  42.529  25.055   9.671
 2694POPC   PO436048  42.047  25.504   9.471
 2694POPC   GL136049  42.224  25.306   9.102
 2694POPC   GL236050  42.536  25.199   9.168
 2694POPC   C1A36051  42.377  25.204   8.679
 2694POPC   D2A36052  42.329  24.948   8.340
 2694POPC   C3A36053  42.085  25.139   8.043
 2694POPC   C4A36054  42.210  25.275   7.659
 2694POPC   C1B36055  42.572  25.614   8.914
 2694POPC   C2B36056  42.510  25.689   8.476
 2694POPC   C3B36057  42.519  25.416   8.128
 2694POPC   C4B36058  42.619  25.568   7.729
 2695POPC   NC336059  25.957  27.351   9.549
 2695POPC   PO436060  26.322  27.842   9.471
 2695POPC   GL136061  26.223  27.537   9.151
 2695POPC   GL236062  25.866  27.517   9.078
 2695POPC   C1A36063  26.273  27.386   8.757
 2695POPC   D2A36064  25.991  27.375   8.445
 2695POPC   C3A36065  26.045  27.583   8.054
 2695POPC   C4A36066  26.303  27.497   7.706
 2695POPC   C1B36067  25.760  27.123   8.866
 2695POPC   C2B36068  25.623  27.022   8.428
 2695POPC   C3B36069  25.701  27.160   7.987
 2695POPC   C4B36070  25.779  27.470   7.610
 2696POPC   NC336071  35.018  38.351   9.479
 2696POPC   PO436072  35.454  38.867   9.503
 2696POPC   GL136073  35.430  38.621   9.123
 2696POPC   GL236074  35.306  38.282   9.082
 2696POPC   C1A36075  35.320  38.558   8.671
 2696POPC   D2A36076  35.546  38.440   8.303
 2696POPC   C3A36077  35.286  38.659   8.026
 2696POPC   C4A36078  35.082  38.606   7.671
 2696POPC   C1B36079  35.084  38.119   8.738
 2696POPC   C2B36080  35.072  38.276   8.335
 2696POPC   C3B36081  35.258  38.134   7.976
 2696POPC   C4B36082  35.162  38.096   7.571
 2697POPC   NC336083  17.471   8.528   9.504
 2697POPC   PO436084  17.530   7.863   9.564
 2697POPC   GL136085  17.533   7.994   9.141
 2697POPC   GL236086  17.505   8.358   9.033
 2697POPC   C1A36087  17.415   7.999   8.704
 2697POPC   D2A36088  17.437   8.366   8.418
 2697POPC   C3A36089  17.374   8.145   8.054
 2697POPC   C4A36090  17.469   7.759   7.835
 2697POPC   C1B36091  17.835   8.522   8.726
 2697POPC   C2B36092  18.023   8.441   8.311
 2697POPC   C3B36093  17.834   8.543   7.906
 2697POPC   C4B36094  17.842   8.561   7.433
 2698POPC   NC336095   8.910  30.124   9.447
 2698POPC   PO436096   9.102  29.444   9.450
 2698POPC   GL136097   8.966  29.632   9.062
 2698POPC   GL236098   8.727  29.843   9.081
 2698POPC   C1A36099   8.909  29.758   8.599
 2698POPC   D2A36100   8.939  30.157   8.333
 2698POPC   C3A36101   9.221  30.152   7.953
 2698POPC   C4A36102   9.231  30.094   7.488
 2698POPC   C1B36103   8.614  30.159   8.795
 2698POPC   C2B36104   8.456  29.998   8.440
 2698POPC   C3B36105   8.566  29.861   8.030
 2698POPC   C4B36106   8.793  29.982   7.698
 2699POPC   NC336107   3.203  17.525   9.527
 2699POPC   PO436108   3.667  17.074   9.729
 2699POPC   GL136109   3.680  17.364   9.286
 2699POPC   GL236110   3.415  17.522   9.077
 2699POPC   C1A36111   3.846  17.522   8.824
 2699POPC   D2A36112   3.626  17.509   8.405
 2699POPC   C3A36113   3.790  17.642   8.032
 2699POPC   C4A36114   3.952  17.377   7.721
 2699POPC   C1B36115   3.180  17.542   8.700
 2699POPC   C2B36116   3.075  17.550   8.271
 2699POPC   C3B36117   3.233  17.361   7.924
 2699POPC   C4B36118   3.279  17.374   7.501
 2700POPC   NC336119  16.166  42.021   9.490
 2700POPC   PO436120  15.863  41.283   9.645
 2700POPC   GL136121  15.868  41.404   9.205
 2700POPC   GL236122  15.877  41.768   9.153
 2700POPC   C1A36123  16.023  41.413   8.789
 2700POPC   D2A36124  16.185  41.235   8.425
 2700POPC   C3A36125  16.124  41.429   8.041
 2700POPC   C4A36126  15.855  41.489   7.682
 2700POPC   C1B36127  16.076  41.957   8.823
 2700POPC   C2B36128  16.035  41.799   8.426
 2700POPC   C3B36129  15.946  41.932   7.991
 2700POPC   C4B36130  16.264  41.800   7.722
 2701POPC   NC336131   4.775  43.744   9.421
 2701POPC   PO436132   5.428  44.035   9.516
 2701POPC   GL136133   5.133  44.016   9.171
 2701POPC   GL236134   5.258  44.346   9.114
 2701POPC   C1A36135   4.867  43.912   8.795
 2701POPC   D2A36136   4.670  43.981   8.399
 2701POPC   C3A36137   4.852  43.672   8.113
 2701POPC   C4A36138   5.194  43.569   7.817
 2701POPC   C1B36139   5.305  44.148   8.716
 2701POPC   C2B36140   5.181  44.059   8.326
 2701POPC   C3B36141   5.137  44.068   7.919
 2701POPC   C4B36142   5.434  44.013   7.600
 2702POPC   NC336143  13.270  39.398   9.525
 2702POPC   PO436144  13.933  39.214   9.571
 2702POPC   GL136145  13.702  39.334   9.246
 2702POPC   GL236146  13.514  39.048   9.205
 2702POPC   C1A36147  13.748  39.457   8.836
 2702POPC   D2A36148  13.907  39.283   8.474
 2702POPC   C3A36149  13.667  39.420   8.130
 2702POPC   C4A36150  13.628  39.502   7.711
 2702POPC   C1B36151  13.293  39.228   8.887
 2702POPC   C2B36152  13.388  39.224   8.504
 2702POPC   C3B36153  13.261  39.087   8.135
 2702POPC   C4B36154  13.249  39.144   7.710
 2703POPC   NC336155   3.550  31.287   9.577
 2703POPC   PO436156   3.426  31.943   9.708
 2703POPC   GL136157   3.559  31.711   9.263
 2703POPC   GL236158   3.807  31.488   9.205
 2703POPC   C1A36159   3.414  31.584   8.831
 2703POPC   D2A36160   3.256  31.475   8.422
 2703POPC   C3A36161   3.496  31.584   8.087
 2703POPC   C4A36162   3.469  31.475   7.681
 2703POPC   C1B36163   3.956  31.701   8.874
 2703POPC   C2B36164   3.804  31.578   8.494
 2703POPC   C3B36165   3.976  31.341   8.162
 2703POPC   C4B36166   3.953  31.497   7.769
 2704POPC   NC336167  20.454  16.139   9.340
 2704POPC   PO436168  21.023  15.902   9.685
 2704POPC   GL136169  20.951  15.852   9.165
 2704POPC   GL236170  20.566  15.765   9.029
 2704POPC   C1A36171  20.932  15.645   8.730
 2704POPC   D2A36172  20.514  15.639   8.499
 2704POPC   C3A36173  20.539  15.820   8.103
 2704POPC   C4A36174  20.616  15.967   7.690
 2704POPC   C1B36175  20.626  16.077   8.724
 2704POPC   C2B36176  20.487  16.258   8.350
 2704POPC   C3B36177  20.284  16.276   7.969
 2704POPC   C4B36178  20.351  16.367   7.535
 2705POPC   NC336179  42.764   9.040   9.753
 2705POPC   PO436180  42.314   8.813   9.385
 2705POPC   GL136181  42.438   9.084   9.096
 2705POPC   GL236182  42.742   9.059   9.198
 2705POPC   C1A36183  42.230   9.015   8.730
 2705POPC   D2A36184  42.177   8.709   8.415
 2705POPC   C3A36185  42.271   8.914   8.038
 2705POPC   C4A36186  42.122   9.315   7.840
 2705POPC   C1B36187  42.719   8.823   8.789
 2705POPC   C2B36188  42.642   9.007   8.412
 2705POPC   C3B36189  42.789   8.938   8.032
 2705POPC   C4B36190  42.583   8.989   7.649
 2706POPC   NC336191  24.292  15.748   9.881
 2706POPC   PO436192  24.784  15.984   9.445
 2706POPC   GL136193  24.499  16.062   9.145
 2706POPC   GL236194  24.348  15.718   9.129
 2706POPC   C1A36195  24.583  16.286   8.768
 2706POPC   D2A36196  24.402  16.200   8.372
 2706POPC   C3A36197  24.696  15.999   8.111
 2706POPC   C4A36198  24.504  15.844   7.774
 2706POPC   C1B36199  24.321  15.809   8.684
 2706POPC   C2B36200  24.246  15.721   8.230
 2706POPC   C3B36201  24.111  15.537   7.831
 2706POPC   C4B36202  24.222  15.718   7.368
 2707POPC   NC336203   8.234  29.062  10.248
 2707POPC   PO436204   8.035  29.117   9.618
 2707POPC   GL136205   8.012  29.111   9.179
 2707POPC   GL236206   8.341  29.110   9.119
 2707POPC   C1A36207   8.028  29.253   8.731
 2707POPC   D2A36208   8.186  29.067   8.355
 2707POPC   C3A36209   7.969  29.063   8.000
 2707POPC   C4A36210   7.927  29.239   7.637
 2707POPC   C1B36211   8.496  29.000   8.765
 2707POPC   C2B36212   8.487  28.683   8.472
 2707POPC   C3B36213   8.604  28.877   8.097
 2707POPC   C4B36214   8.378  28.943   7.679
 2708POPC   NC336215  18.151   6.030   9.476
 2708POPC   PO436216  18.413   5.432   9.615
 2708POPC   GL136217  18.272   5.537   9.219
 2708POPC   GL236218  18.557   5.714   9.127
 2708POPC   C1A36219  18.169   5.751   8.801
 2708POPC   D2A36220  18.103   5.938   8.394
 2708POPC   C3A36221  18.015   5.606   8.101
 2708POPC   C4A36222  18.267   5.744   7.798
 2708POPC   C1B36223  18.638   5.984   8.814
 2708POPC   C2B36224  18.727   6.331   8.539
 2708POPC   C3B36225  18.537   6.175   8.177
 2708POPC   C4B36226  18.759   5.911   7.885
 2709POPC   NC336227  20.822  19.846   9.583
 2709POPC   PO436228  20.198  19.964   9.251
 2709POPC   GL136229  20.601  19.729   9.140
 2709POPC   GL236230  20.967  19.612   9.165
 2709POPC   C1A36231  20.800  19.902   8.786
 2709POPC   D2A36232  20.665  19.800   8.379
 2709POPC   C3A36233  20.663  20.004   7.989
 2709POPC   C4A36234  20.460  19.875   7.598
 2709POPC   C1B36235  20.930  19.395   8.806
 2709POPC   C2B36236  21.017  19.388   8.404
 2709POPC   C3B36237  21.060  19.640   8.061
 2709POPC   C4B36238  20.810  19.522   7.753
 2710POPC   NC336239   8.618   7.045   9.404
 2710POPC   PO436240   9.265   6.822   9.470
 2710POPC   GL136241   8.951   6.607   9.119
 2710POPC   GL236242   8.831   6.209   9.141
 2710POPC   C1A36243   8.678   6.535   8.755
 2710POPC   D2A36244   8.519   6.363   8.376
 2710POPC   C3A36245   8.633   6.573   8.014
 2710POPC   C4A36246   8.887   6.609   7.663
 2710POPC   C1B36247   9.076   6.193   8.792
 2710POPC   C2B36248   9.061   6.379   8.410
 2710POPC   C3B36249   9.055   6.259   8.006
 2710POPC   C4B36250   9.327   6.335   7.620
 2711POPC   NC336251  27.829  12.012   9.456
 2711POPC   PO436252  27.176  12.282   9.478
 2711POPC   GL136253  27.347  12.133   9.081
 2711POPC   GL236254  27.695  12.264   9.049
 2711POPC   C1A36255  27.546  11.999   8.653
 2711POPC   D2A36256  27.819  12.099   8.271
 2711POPC   C3A36257  27.553  12.055   7.896
 2711POPC   C4A36258  27.422  11.657   7.744
 2711POPC   C1B36259  27.501  12.497   8.725
 2711POPC   C2B36260  27.604  12.552   8.330
 2711POPC   C3B36261  27.796  12.518   7.935
 2711POPC   C4B36262  27.722  12.355   7.484
 2712POPC   NC336263  33.401  34.411   9.655
 2712POPC   PO436264  32.757  34.471   9.432
 2712POPC   GL136265  33.135  34.485   9.197
 2712POPC   GL236266  33.220  34.791   9.345
 2712POPC   C1A36267  33.026  34.415   8.754
 2712POPC   D2A36268  32.871  34.553   8.391
 2712POPC   C3A36269  32.970  34.384   8.006
 2712POPC   C4A36270  32.674  34.329   7.678
 2712POPC   C1B36271  33.075  34.895   8.916
 2712POPC   C2B36272  33.188  34.944   8.492
 2712POPC   C3B36273  33.091  34.886   8.066
 2712POPC   C4B36274  32.961  34.755   7.646
 2713POPC   NC336275  18.375  43.612   9.965
 2713POPC   PO436276  18.228  44.156   9.575
 2713POPC   GL136277  18.201  43.963   9.170
 2713POPC   GL236278  17.958  44.225   9.105
 2713POPC   C1A36279  18.409  43.721   8.791
 2713POPC   D2A36280  18.586  43.517   8.383
 2713POPC   C3A36281  18.550  43.619   7.940
 2713POPC   C4A36282  18.201  43.881   7.813
 2713POPC   C1B36283  18.220  44.234   8.750
 2713POPC   C2B36284  18.315  44.042   8.366
 2713POPC   C3B36285  18.585  44.127   8.050
 2713POPC   C4B36286  18.546  44.261   7.626
 2714POPC   NC336287   7.507  37.918   9.495
 2714POPC   PO436288   7.189  38.549   9.617
 2714POPC   GL136289   7.336  38.398   9.257
 2714POPC   GL236290   7.115  38.135   9.229
 2714POPC   C1A36291   7.461  38.597   8.879
 2714POPC   D2A36292   7.330  38.507   8.478
 2714POPC   C3A36293   7.575  38.527   8.127
 2714POPC   C4A36294   7.418  38.563   7.724
 2714POPC   C1B36295   7.390  38.085   8.842
 2714POPC   C2B36296   7.507  38.040   8.409
 2714POPC   C3B36297   7.241  38.147   8.050
 2714POPC   C4B36298   7.563  38.099   7.771
 2715POPC   NC336299   7.696  35.450   9.533
 2715POPC   PO436300   7.167  35.643   9.304
 2715POPC   GL136301   7.366  35.236   9.188
 2715POPC   GL236302   7.741  35.159   9.111
 2715POPC   C1A36303   7.277  35.145   8.767
 2715POPC   D2A36304   7.102  35.271   8.370
 2715POPC   C3A36305   7.399  35.344   8.079
 2715POPC   C4A36306   7.295  35.712   7.851
 2715POPC   C1B36307   7.623  35.520   8.851
 2715POPC   C2B36308   7.594  35.711   8.449
 2715POPC   C3B36309   7.789  35.708   8.068
 2715POPC   C4B36310   7.739  35.447   7.718
 2716POPC   NC336311  16.363  18.536   9.386
 2716POPC   PO436312  15.831  18.057   9.521
 2716POPC   GL136313  15.907  18.335   9.229
 2716POPC   GL236314  16.183  18.148   9.119
 2716POPC   C1A36315  15.920  18.524   8.843
 2716POPC   D2A36316  16.043  18.608   8.421
 2716POPC   C3A36317  15.859  18.496   8.059
 2716POPC   C4A36318  15.910  18.684   7.666
 2716POPC   C1B36319  16.021  18.046   8.718
 2716POPC   C2B36320  16.081  18.090   8.298
 2716POPC   C3B36321  16.174  18.133   7.905
 2716POPC   C4B36322  16.213  18.164   7.488
 2717POPC   NC336323  12.626  28.867   9.431
 2717POPC   PO436324  13.078  29.403   9.544
 2717POPC   GL136325  13.074  29.047   9.250
 2717POPC   GL236326  12.825  29.248   9.068
 2717POPC   C1A36327  12.921  28.794   8.858
 2717POPC   D2A36328  12.898  29.015   8.479
 2717POPC   C3A36329  12.616  28.969   8.149
 2717POPC   C4A36330  12.666  29.211   7.790
 2717POPC   C1B36331  13.210  29.272   8.801
 2717POPC   C2B36332  13.223  29.415   8.341
 2717POPC   C3B36333  13.165  29.304   7.907
 2717POPC   C4B36334  13.438  29.359   7.534
 2718POPC   NC336335  40.720  25.627   9.435
 2718POPC   PO436336  40.561  26.234   9.411
 2718POPC   GL136337  40.562  25.917   9.063
 2718POPC   GL236338  40.881  25.972   9.073
 2718POPC   C1A36339  40.700  25.725   8.645
 2718POPC   D2A36340  40.863  25.968   8.281
 2718POPC   C3A36341  40.577  25.896   7.945
 2718POPC   C4A36342  40.819  25.651   7.758
 2718POPC   C1B36343  40.745  26.240   8.712
 2718POPC   C2B36344  40.800  26.500   8.327
 2718POPC   C3B36345  40.795  26.346   7.916
 2718POPC   C4B36346  40.927  26.430   7.503
 2719POPC   NC336347  22.316   6.980   9.315
 2719POPC   PO436348  22.097   7.408   9.746
 2719POPC   GL136349  22.169   7.473   9.247
 2719POPC   GL236350  22.052   7.785   9.130
 2719POPC   C1A36351  21.924   7.416   8.800
 2719POPC   D2A36352  21.777   7.456   8.369
 2719POPC   C3A36353  22.054   7.347   8.003
 2719POPC   C4A36354  22.128   7.656   7.670
 2719POPC   C1B36355  22.385   7.653   8.804
 2719POPC   C2B36356  22.322   7.664   8.343
 2719POPC   C3B36357  22.585   7.602   7.944
 2719POPC   C4B36358  22.580   7.824   7.492
 2720POPC   NC336359  18.632  26.687   9.537
 2720POPC   PO436360  18.051  27.091   9.449
 2720POPC   GL136361  18.277  26.827   9.131
 2720POPC   GL236362  18.634  26.965   9.096
 2720POPC   C1A36363  18.093  26.577   8.759
 2720POPC   D2A36364  18.117  26.597   8.270
 2720POPC   C3A36365  18.050  26.977   8.001
 2720POPC   C4A36366  18.373  27.197   7.733
 2720POPC   C1B36367  18.756  26.553   8.870
 2720POPC   C2B36368  18.892  26.476   8.424
 2720POPC   C3B36369  18.603  26.481   8.067
 2720POPC   C4B36370  18.362  26.661   7.726
 2721POPC   NC336371  42.422  16.318   9.535
 2721POPC   PO436372  42.196  16.957   9.553
 2721POPC   GL136373  42.345  16.702   9.197
 2721POPC   GL236374  42.097  16.440   9.177
 2721POPC   C1A36375  42.274  16.796   8.763
 2721POPC   D2A36376  42.177  16.618   8.384
 2721POPC   C3A36377  42.423  16.787   8.031
 2721POPC   C4A36378  42.337  17.146   7.788
 2721POPC   C1B36379  42.384  16.315   8.850
 2721POPC   C2B36380  42.578  16.308   8.432
 2721POPC   C3B36381  42.340  16.277   8.045
 2721POPC   C4B36382  42.278  16.447   7.634
 2722POPC   NC336383  15.544   8.072   9.492
 2722POPC   PO436384  16.258   8.045   9.492
 2722POPC   GL136385  15.954   8.188   9.191
 2722POPC   GL236386  15.849   8.554   9.214
 2722POPC   C1A36387  15.834   8.291   8.778
 2722POPC   D2A36388  15.687   8.198   8.393
 2722POPC   C3A36389  16.019   8.056   8.128
 2722POPC   C4A36390  16.149   7.867   7.733
 2722POPC   C1B36391  15.662   8.765   8.833
 2722POPC   C2B36392  15.770   8.700   8.418
 2722POPC   C3B36393  15.764   8.522   8.011
 2722POPC   C4B36394  16.053   8.349   7.719
 2723POPC   NC336395  17.275  24.155   9.451
 2723POPC   PO436396  17.837  24.639   9.601
 2723POPC   GL136397  17.643  24.521   9.256
 2723POPC   GL236398  17.800  24.211   9.212
 2723POPC   C1A36399  17.572  24.736   8.877
 2723POPC   D2A36400  17.799  24.852   8.508
 2723POPC   C3A36401  17.581  24.798   8.114
 2723POPC   C4A36402  17.538  24.603   7.710
 2723POPC   C1B36403  17.561  24.222   8.838
 2723POPC   C2B36404  17.468  24.426   8.469
 2723POPC   C3B36405  17.493  24.259   8.070
 2723POPC   C4B36406  17.306  24.143   7.677
 2724POPC   NC336407  35.669  16.407   9.486
 2724POPC   PO436408  36.316  16.421   9.487
 2724POPC   GL136409  36.172  16.645   9.156
 2724POPC   GL236410  36.467  16.867   9.167
 2724POPC   C1A36411  35.943  16.681   8.729
 2724POPC   D2A36412  35.799  16.848   8.302
 2724POPC   C3A36413  35.884  16.582   7.914
 2724POPC   C4A36414  35.917  16.632   7.447
 2724POPC   C1B36415  36.397  16.929   8.758
 2724POPC   C2B36416  36.304  16.770   8.357
 2724POPC   C3B36417  36.190  16.996   7.985
 2724POPC   C4B36418  36.480  17.110   7.655
 2725POPC   NC336419  26.557  42.270   9.531
 2725POPC   PO436420  27.267  42.325   9.456
 2725POPC   GL136421  26.898  42.185   9.162
 2725POPC   GL236422  26.671  42.443   9.078
 2725POPC   C1A36423  26.722  42.040   8.757
 2725POPC   D2A36424  26.832  42.163   8.339
 2725POPC   C3A36425  26.871  41.922   7.952
 2725POPC   C4A36426  27.004  41.947   7.516
 2725POPC   C1B36427  26.816  42.586   8.711
 2725POPC   C2B36428  26.600  42.605   8.347
 2725POPC   C3B36429  26.781  42.468   7.926
 2725POPC   C4B36430  27.009  42.450   7.508
 2726POPC   NC336431  41.052  14.483   9.349
 2726POPC   PO436432  40.500  14.194   9.567
 2726POPC   GL136433  40.721  14.134   9.133
 2726POPC   GL236434  41.043  14.156   8.936
 2726POPC   C1A36435  40.630  14.250   8.682
 2726POPC   D2A36436  40.917  14.259   8.307
 2726POPC   C3A36437  40.770  14.082   7.907
 2726POPC   C4A36438  40.311  14.090   7.849
 2726POPC   C1B36439  41.028  14.587   8.725
 2726POPC   C2B36440  41.199  14.928   8.465
 2726POPC   C3B36441  41.078  14.915   8.034
 2726POPC   C4B36442  41.012  14.527   7.849
 2727POPC   NC336443  19.732  10.303   9.474
 2727POPC   PO436444  19.651   9.624   9.497
 2727POPC   GL136445  19.763   9.563   9.099
 2727POPC   GL236446  19.867   9.894   9.096
 2727POPC   C1A36447  19.873   9.547   8.675
 2727POPC   D2A36448  20.003   9.760   8.321
 2727POPC   C3A36449  19.872   9.536   7.970
 2727POPC   C4A36450  19.738   9.678   7.575
 2727POPC   C1B36451  19.661  10.013   8.728
 2727POPC   C2B36452  19.688  10.224   8.316
 2727POPC   C3B36453  19.668  10.444   7.927
 2727POPC   C4B36454  19.571  10.196   7.550
 2728POPC   NC336455  20.587  40.433   9.602
 2728POPC   PO436456  21.013  40.961   9.731
 2728POPC   GL136457  20.796  40.777   9.273
 2728POPC   GL236458  20.437  40.549   9.148
 2728POPC   C1A36459  20.761  40.674   8.811
 2728POPC   D2A36460  20.569  40.589   8.426
 2728POPC   C3A36461  20.372  40.839   8.114
 2728POPC   C4A36462  20.647  40.790   7.722
 2728POPC   C1B36463  20.212  40.419   8.752
 2728POPC   C2B36464  20.105  40.416   8.274
 2728POPC   C3B36465  20.466  40.373   7.950
 2728POPC   C4B36466  20.530  40.377   7.449
 2729POPC   NC336467  36.564  13.452   9.419
 2729POPC   PO436468  36.006  13.869   9.536
 2729POPC   GL136469  36.060  13.701   9.127
 2729POPC   GL236470  35.873  13.393   9.117
 2729POPC   C1A36471  36.228  13.690   8.709
 2729POPC   D2A36472  36.185  13.432   8.353
 2729POPC   C3A36473  36.281  13.596   7.961
 2729POPC   C4A36474  36.107  13.969   7.831
 2729POPC   C1B36475  35.730  13.560   8.689
 2729POPC   C2B36476  35.696  13.474   8.248
 2729POPC   C3B36477  35.735  13.537   7.801
 2729POPC   C4B36478  35.572  13.538   7.330
 2730POPC   NC336479   2.244  16.819   9.735
 2730POPC   PO436480   1.780  16.348   9.495
 2730POPC   GL136481   1.894  16.752   9.319
 2730POPC   GL236482   2.240  16.788   9.211
 2730POPC   C1A36483   1.827  16.938   8.917
 2730POPC   D2A36484   2.058  16.781   8.565
 2730POPC   C3A36485   1.916  16.844   8.129
 2730POPC   C4A36486   1.822  16.632   7.728
 2730POPC   C1B36487   2.328  16.481   8.917
 2730POPC   C2B36488   2.554  16.449   8.553
 2730POPC   C3B36489   2.498  16.706   8.227
 2730POPC   C4B36490   2.282  16.554   7.907
 2731POPC   NC336491  12.749   8.466   9.687
 2731POPC   PO436492  13.194   8.443   9.231
 2731POPC   GL136493  12.897   8.228   9.036
 2731POPC   GL236494  12.639   8.131   9.294
 2731POPC   C1A36495  12.763   8.319   8.606
 2731POPC   D2A36496  12.867   8.096   8.232
 2731POPC   C3A36497  12.960   8.185   7.827
 2731POPC   C4A36498  12.584   8.265   7.620
 2731POPC   C1B36499  12.445   8.033   8.901
 2731POPC   C2B36500  12.445   7.922   8.473
 2731POPC   C3B36501  12.385   8.037   8.043
 2731POPC   C4B36502  12.275   7.831   7.669
 2732POPC   NC336503  32.902  34.046   9.304
 2732POPC   PO436504  33.265  33.629   9.611
 2732POPC   GL136505  33.234  33.676   9.154
 2732POPC   GL236506  32.881  33.590   9.094
 2732POPC   C1A36507  33.271  33.965   8.767
 2732POPC   D2A36508  33.026  34.042   8.382
 2732POPC   C3A36509  33.144  33.895   7.962
 2732POPC   C4A36510  33.370  33.491   7.864
 2732POPC   C1B36511  32.915  33.589   8.702
 2732POPC   C2B36512  32.707  33.605   8.353
 2732POPC   C3B36513  32.835  33.505   7.957
 2732POPC   C4B36514  32.736  33.818   7.634
 2733POPC   NC336515  33.600   6.541   9.489
 2733POPC   PO436516  33.208   7.113   9.428
 2733POPC   GL136517  33.337   6.755   9.090
 2733POPC   GL236518  33.709   6.648   9.021
 2733POPC   C1A36519  33.404   6.623   8.637
 2733POPC   D2A36520  33.671   6.492   8.286
 2733POPC   C3A36521  33.772   6.780   7.964
 2733POPC   C4A36522  33.866   6.837   7.515
 2733POPC   C1B36523  34.001   6.520   8.678
 2733POPC   C2B36524  34.183   6.708   8.290
 2733POPC   C3B36525  34.261   6.714   7.868
 2733POPC   C4B36526  34.053   6.383   7.668
 2734POPC   NC336527   7.542  32.671   9.858
 2734POPC   PO436528   7.435  33.300   9.575
 2734POPC   GL136529   7.488  33.098   9.200
 2734POPC   GL236530   7.577  32.742   9.314
 2734POPC   C1A36531   7.387  33.212   8.758
 2734POPC   D2A36532   7.198  33.239   8.338
 2734POPC   C3A36533   7.461  33.170   7.966
 2734POPC   C4A36534   7.522  32.825   7.687
 2734POPC   C1B36535   7.577  32.725   8.848
 2734POPC   C2B36536   7.737  32.935   8.492
 2734POPC   C3B36537   7.957  32.939   8.103
 2734POPC   C4B36538   7.922  33.148   7.709
 2735POPC   NC336539  27.399  40.883   9.714
 2735POPC   PO436540  26.807  40.597   9.597
 2735POPC   GL136541  26.646  40.749   9.166
 2735POPC   GL236542  26.546  41.093   9.067
 2735POPC   C1A36543  26.491  40.755   8.706
 2735POPC   D2A36544  26.622  40.992   8.347
 2735POPC   C3A36545  26.710  40.649   8.084
 2735POPC   C4A36546  26.370  40.600   7.815
 2735POPC   C1B36547  26.907  41.042   8.789
 2735POPC   C2B36548  27.110  40.823   8.422
 2735POPC   C3B36549  27.223  40.958   7.992
 2735POPC   C4B36550  27.194  40.815   7.526
 2736POPC   NC336551  29.888  27.818   9.486
 2736POPC   PO436552  29.993  27.081   9.448
 2736POPC   GL136553  30.105  27.426   9.125
 2736POPC   GL236554  29.821  27.538   9.027
 2736POPC   C1A36555  30.175  27.606   8.659
 2736POPC   D2A36556  30.297  27.627   8.197
 2736POPC   C3A36557  30.100  27.556   7.832
 2736POPC   C4A36558  30.059  27.770   7.440
 2736POPC   C1B36559  29.758  27.302   8.626
 2736POPC   C2B36560  29.855  27.316   8.208
 2736POPC   C3B36561  29.607  27.554   7.908
 2736POPC   C4B36562  29.459  27.502   7.517
 2737POPC   NC336563  25.781  20.128   9.649
 2737POPC   PO436564  26.318  20.386   9.414
 2737POPC   GL136565  26.203  20.003   9.200
 2737POPC   GL236566  25.859  20.076   9.153
 2737POPC   C1A36567  26.093  19.662   8.872
 2737POPC   D2A36568  25.923  19.639   8.441
 2737POPC   C3A36569  26.097  19.535   8.034
 2737POPC   C4A36570  25.789  19.513   7.721
 2737POPC   C1B36571  26.013  20.150   8.748
 2737POPC   C2B36572  25.762  20.123   8.401
 2737POPC   C3B36573  25.916  20.000   8.024
 2737POPC   C4B36574  25.687  20.014   7.665
 2738POPC   NC336575   5.079  27.255   9.507
 2738POPC   PO436576   4.929  27.864   9.555
 2738POPC   GL136577   5.165  27.675   9.168
 2738POPC   GL236578   4.999  27.381   9.023
 2738POPC   C1A36579   5.329  27.689   8.713
 2738POPC   D2A36580   5.334  27.939   8.330
 2738POPC   C3A36581   5.387  27.686   7.949
 2738POPC   C4A36582   5.076  27.728   7.639
 2738POPC   C1B36583   4.811  27.553   8.673
 2738POPC   C2B36584   4.990  27.551   8.263
 2738POPC   C3B36585   4.962  27.315   7.889
 2738POPC   C4B36586   4.827  27.348   7.425
 2739POPC   NC336587  16.614  20.340   9.532
 2739POPC   PO436588  17.126  20.680   9.464
 2739POPC   GL136589  16.914  20.793   9.109
 2739POPC   GL236590  16.723  20.503   9.067
 2739POPC   C1A36591  16.882  20.742   8.670
 2739POPC   D2A36592  16.617  20.833   8.356
 2739POPC   C3A36593  16.722  20.604   8.024
 2739POPC   C4A36594  16.868  20.596   7.600
 2739POPC   C1B36595  16.441  20.242   8.784
 2739POPC   C2B36596  16.297  19.984   8.449
 2739POPC   C3B36597  16.308  20.169   8.057
 2739POPC   C4B36598  16.481  20.018   7.680
 2740POPC   NC336599   0.748  20.869   9.746
 2740POPC   PO436600   1.245  20.454   9.483
 2740POPC   GL136601   1.286  20.638   9.093
 2740POPC   GL236602   1.649  20.736   9.042
 2740POPC   C1A36603   1.047  20.542   8.715
 2740POPC   D2A36604   0.923  20.386   8.298
 2740POPC   C3A36605   1.263  20.464   7.979
 2740POPC   C4A36606   1.283  20.452   7.511
 2740POPC   C1B36607   1.410  20.951   8.692
 2740POPC   C2B36608   1.102  20.887   8.344
 2740POPC   C3B36609   1.164  21.030   7.937
 2740POPC   C4B36610   1.491  20.877   7.690
 2741POPC   NC336611  41.989   5.159   9.313
 2741POPC   PO436612  41.305   5.243   9.478
 2741POPC   GL136613  41.525   5.262   9.118
 2741POPC   GL236614  41.583   4.907   9.110
 2741POPC   C1A36615  41.699   5.256   8.702
 2741POPC   D2A36616  41.484   5.157   8.336
 2741POPC   C3A36617  41.739   5.169   7.963
 2741POPC   C4A36618  41.664   5.227   7.525
 2741POPC   C1B36619  41.449   4.782   8.694
 2741POPC   C2B36620  41.417   4.647   8.242
 2741POPC   C3B36621  41.488   4.751   7.785
 2741POPC   C4B36622  41.453   4.825   7.319
 2742POPC   NC336623  30.867  14.483   9.499
 2742POPC   PO436624  30.591  13.925   9.251
 2742POPC   GL136625  30.771  14.186   9.000
 2742POPC   GL236626  30.617  14.487   9.055
 2742POPC   C1A36627  30.649  14.261   8.582
 2742POPC   D2A36628  30.936  14.495   8.346
 2742POPC   C3A36629  30.851  14.435   7.922
 2742POPC   C4A36630  30.551  14.258   7.624
 2742POPC   C1B36631  30.647  14.752   8.701
 2742POPC   C2B36632  30.363  14.684   8.356
 2742POPC   C3B36633  30.345  14.617   7.923
 2742POPC   C4B36634  30.626  14.793   7.646
 2743POPC   NC336635  24.316   8.537   9.837
 2743POPC   PO436636  24.726   8.068   9.481
 2743POPC   GL136637  24.484   8.186   9.148
 2743POPC   GL236638  24.759   8.118   8.933
 2743POPC   C1A36639  24.307   8.323   8.751
 2743POPC   D2A36640  24.615   8.253   8.440
 2743POPC   C3A36641  24.433   8.233   8.064
 2743POPC   C4A36642  24.623   8.206   7.730
 2743POPC   C1B36643  24.426   7.844   8.757
 2743POPC   C2B36644  24.213   7.907   8.381
 2743POPC   C3B36645  24.330   7.745   7.941
 2743POPC   C4B36646  24.316   7.876   7.489
 2744POPC   NC336647  34.352  39.002   9.864
 2744POPC   PO436648  34.531  38.488   9.433
 2744POPC   GL136649  34.758  38.387   9.060
 2744POPC   GL236650  34.680  38.067   9.038
 2744POPC   C1A36651  34.760  38.535   8.673
 2744POPC   D2A36652  34.473  38.517   8.352
 2744POPC   C3A36653  34.732  38.521   8.034
 2744POPC   C4A36654  34.841  38.930   8.009
 2744POPC   C1B36655  34.298  38.283   8.812
 2744POPC   C2B36656  34.094  38.174   8.398
 2744POPC   C3B36657  34.330  38.204   7.978
 2744POPC   C4B36658  34.667  38.192   7.644
 2745POPC   NC336659   9.052  16.577   9.588
 2745POPC   PO436660   8.912  17.148   9.826
 2745POPC   GL136661   9.020  16.991   9.314
 2745POPC   GL236662   8.819  16.699   9.167
 2745POPC   C1A36663   9.033  17.028   8.844
 2745POPC   D2A36664   9.124  17.109   8.409
 2745POPC   C3A36665   9.338  17.004   8.059
 2745POPC   C4A36666   9.161  16.893   7.683
 2745POPC   C1B36667   9.110  16.539   8.797
 2745POPC   C2B36668   9.237  16.571   8.344
 2745POPC   C3B36669   8.981  16.495   7.967
 2745POPC   C4B36670   8.914  16.140   7.681
 2746POPC   NC336671   5.731   1.056   9.451
 2746POPC   PO436672   6.075   1.653   9.540
 2746POPC   GL136673   6.132   1.474   9.120
 2746POPC   GL236674   5.818   1.332   9.035
 2746POPC   C1A36675   6.185   1.145   8.772
 2746POPC   D2A36676   5.995   0.908   8.444
 2746POPC   C3A36677   6.144   1.072   8.014
 2746POPC   C4A36678   6.073   1.315   7.624
 2746POPC   C1B36679   5.609   1.191   8.662
 2746POPC   C2B36680   5.519   0.998   8.239
 2746POPC   C3B36681   5.609   1.004   7.781
 2746POPC   C4B36682   5.315   0.956   7.409
 2747POPC   NC336683  18.042  44.578   9.540
 2747POPC   PO436684  18.707  44.633   9.563
 2747POPC   GL136685  18.491  44.454   9.188
 2747POPC   GL236686  18.227  44.690   9.088
 2747POPC   C1A36687  18.574  44.596   8.739
 2747POPC   D2A36688  18.338  44.613   8.381
 2747POPC   C3A36689  18.502  44.630   7.979
 2747POPC   C4A36690  18.117  44.372   7.905
 2747POPC   C1B36691  18.144  44.966   8.747
 2747POPC   C2B36692  17.924  44.916   8.364
 2747POPC   C3B36693  18.062  44.888   7.975
 2747POPC   C4B36694  18.215   0.166   7.709
 2748POPC   NC336695  34.944  21.263   9.652
 2748POPC   PO436696  35.559  21.665   9.444
 2748POPC   GL136697  35.275  21.401   9.227
 2748POPC   GL236698  34.967  21.598   9.246
 2748POPC   C1A36699  35.290  21.074   8.825
 2748POPC   D2A36700  35.529  20.968   8.409
 2748POPC   C3A36701  35.378  21.112   8.001
 2748POPC   C4A36702  35.533  21.536   7.924
 2748POPC   C1B36703  35.112  21.554   8.789
 2748POPC   C2B36704  35.157  21.346   8.400
 2748POPC   C3B36705  35.026  21.527   8.019
 2748POPC   C4B36706  34.802  21.702   7.692
 2749POPC   NC336707  37.744   4.321   9.466
 2749POPC   PO436708  37.749   5.026   9.442
 2749POPC   GL136709  37.536   4.701   9.105
 2749POPC   GL236710  37.378   4.331   9.098
 2749POPC   C1A36711  37.471   4.566   8.665
 2749POPC   D2A36712  37.718   4.369   8.350
 2749POPC   C3A36713  37.624   4.277   7.947
 2749POPC   C4A36714  37.851   4.596   7.706
 2749POPC   C1B36715  37.583   4.067   8.755
 2749POPC   C2B36716  37.785   3.863   8.388
 2749POPC   C3B36717  37.979   3.881   7.969
 2749POPC   C4B36718  37.947   4.116   7.580
 2750POPC   NC336719   9.311  41.404   9.476
 2750POPC   PO436720   8.705  41.563   9.321
 2750POPC   GL136721   9.040  41.639   9.016
 2750POPC   GL236722   9.241  41.937   9.140
 2750POPC   C1A36723   8.989  41.684   8.555
 2750POPC   D2A36724   8.642  41.821   8.268
 2750POPC   C3A36725   8.700  41.728   7.830
 2750POPC   C4A36726   8.812  41.352   7.596
 2750POPC   C1B36727   9.456  41.938   8.746
 2750POPC   C2B36728   9.476  41.659   8.393
 2750POPC   C3B36729   9.193  41.640   8.046
 2750POPC   C4B36730   9.476  41.895   7.838
 2751POPC   NC336731   3.282   0.894   9.562
 2751POPC   PO436732   3.645   1.339   9.779
 2751POPC   GL136733   3.512   1.294   9.315
 2751POPC   GL236734   3.481   0.951   9.097
 2751POPC   C1A36735   3.678   1.407   8.904
 2751POPC   D2A36736   3.535   1.442   8.478
 2751POPC   C3A36737   3.756   1.233   8.153
 2751POPC   C4A36738   3.567   1.304   7.791
 2751POPC   C1B36739   3.210   0.884   8.712
 2751POPC   C2B36740   3.292   0.965   8.247
 2751POPC   C3B36741   3.130   1.050   7.829
 2751POPC   C4B36742   3.398   0.966   7.431
 2752POPC   NC336743  13.310  18.064   9.416
 2752POPC   PO436744  12.770  18.416   9.539
 2752POPC   GL136745  12.930  18.333   9.141
 2752POPC   GL236746  13.123  18.585   9.051
 2752POPC   C1A36747  12.953  18.268   8.690
 2752POPC   D2A36748  12.793  18.412   8.324
 2752POPC   C3A36749  12.868  18.096   8.078
 2752POPC   C4A36750  13.089  17.986   7.754
 2752POPC   C1B36751  13.103  18.754   8.654
 2752POPC   C2B36752  13.275  18.691   8.259
 2752POPC   C3B36753  13.233  18.448   7.897
 2752POPC   C4B36754  13.166  18.378   7.432
 2753POPC   NC336755  16.363   1.410   9.482
 2753POPC   PO436756  16.526   0.772   9.633
 2753POPC   GL136757  16.708   1.024   9.230
 2753POPC   GL236758  17.041   0.846   9.158
 2753POPC   C1A36759  16.789   1.346   8.872
 2753POPC   D2A36760  16.562   1.547   8.517
 2753POPC   C3A36761  16.790   1.474   8.154
 2753POPC   C4A36762  16.732   1.274   7.788
 2753POPC   C1B36763  16.845   0.845   8.771
 2753POPC   C2B36764  16.944   1.063   8.410
 2753POPC   C3B36765  17.063   0.951   8.011
 2753POPC   C4B36766  16.809   0.794   7.665
 2754POPC   NC336767  28.471  34.501   9.509
 2754POPC   PO436768  28.328  33.853   9.627
 2754POPC   GL136769  28.362  34.071   9.197
 2754POPC   GL236770  28.565  34.403   9.030
 2754POPC   C1A36771  28.248  34.127   8.756
 2754POPC   D2A36772  28.483  34.403   8.500
 2754POPC   C3A36773  28.244  34.629   8.214
 2754POPC   C4A36774  28.234  34.628   7.773
 2754POPC   C1B36775  28.711  34.775   8.756
 2754POPC   C2B36776  28.766  34.788   8.274
 2754POPC   C3B36777  28.762  34.854   7.814
 2754POPC   C4B36778  28.930  35.018   7.413
 2755POPC   NC336779   7.088   0.060   9.899
 2755POPC   PO436780   7.612  44.779   9.516
 2755POPC   GL136781   7.478  44.650   9.103
 2755POPC   GL236782   7.132  44.580   9.074
 2755POPC   C1A36783   7.436  44.753   8.690
 2755POPC   D2A36784   7.545   0.020   8.386
 2755POPC   C3A36785   7.589  44.758   8.081
 2755POPC   C4A36786   7.604  44.669   7.698
 2755POPC   C1B36787   6.909  44.846   8.775
 2755POPC   C2B36788   7.040  44.902   8.365
 2755POPC   C3B36789   7.095  44.776   7.977
 2755POPC   C4B36790   7.175  44.945   7.594
 2756POPC   NC336791  30.025  13.281   9.307
 2756POPC   PO436792  29.776  12.706   9.701
 2756POPC   GL136793  29.809  12.628   9.209
 2756POPC   GL236794  29.943  12.900   8.975
 2756POPC   C1A36795  29.812  12.482   8.732
 2756POPC   D2A36796  29.920  12.775   8.378
 2756POPC   C3A36797  29.732  12.722   7.977
 2756POPC   C4A36798  29.469  13.050   7.838
 2756POPC   C1B36799  30.175  13.154   8.644
 2756POPC   C2B36800  30.352  13.377   8.267
 2756POPC   C3B36801  30.348  13.277   7.817
 2756POPC   C4B36802  30.342  12.997   7.458
 2757POPC   NC336803  19.496   1.755   9.353
 2757POPC   PO436804  20.089   2.153   9.560
 2757POPC   GL136805  19.911   2.004   9.171
 2757POPC   GL236806  19.678   2.239   9.110
 2757POPC   C1A36807  19.888   2.021   8.697
 2757POPC   D2A36808  20.204   2.123   8.374
 2757POPC   C3A36809  20.202   2.130   7.925
 2757POPC   C4A36810  19.943   2.242   7.600
 2757POPC   C1B36811  19.372   2.075   8.791
 2757POPC   C2B36812  19.449   1.819   8.431
 2757POPC   C3B36813  19.618   1.901   8.017
 2757POPC   C4B36814  19.475   2.233   7.756
 2758POPC   NC336815  31.139  42.980   9.518
 2758POPC   PO436816  31.760  43.264   9.525
 2758POPC   GL136817  31.556  43.116   9.196
 2758POPC   GL236818  31.539  42.775   9.105
 2758POPC   C1A36819  31.762  43.105   8.803
 2758POPC   D2A36820  31.653  42.909   8.449
 2758POPC   C3A36821  31.723  43.188   8.166
 2758POPC   C4A36822  31.556  43.209   7.749
 2758POPC   C1B36823  31.276  42.927   8.812
 2758POPC   C2B36824  31.089  43.020   8.445
 2758POPC   C3B36825  31.283  42.955   8.086
 2758POPC   C4B36826  31.318  42.733   7.718
 2759POPC   NC336827  22.961  22.638   9.712
 2759POPC   PO436828  22.605  23.124   9.464
 2759POPC   GL136829  22.751  23.087   9.059
 2759POPC   GL236830  23.032  22.874   9.147
 2759POPC   C1A36831  22.748  22.784   8.714
 2759POPC   D2A36832  22.685  22.635   8.289
 2759POPC   C3A36833  22.727  22.954   7.995
 2759POPC   C4A36834  22.772  22.999   7.545
 2759POPC   C1B36835  23.336  22.785   8.812
 2759POPC   C2B36836  23.175  22.746   8.395
 2759POPC   C3B36837  23.129  22.644   7.959
 2759POPC   C4B36838  23.215  23.055   7.763
 2760POPC   NC336839  29.042   0.630   9.945
 2760POPC   PO436840  29.173   0.029   9.585
 2760POPC   GL136841  29.111   0.326   9.232
 2760POPC   GL236842  29.344   0.593   9.276
 2760POPC   C1A36843  28.884   0.376   8.830
 2760POPC   D2A36844  28.839   0.164   8.437
 2760POPC   C3A36845  29.034   0.441   8.142
 2760POPC   C4A36846  29.219   0.512   7.720
 2760POPC   C1B36847  29.357   0.587   8.826
 2760POPC   C2B36848  29.268   0.807   8.441
 2760POPC   C3B36849  29.197   0.926   8.038
 2760POPC   C4B36850  28.957   0.986   7.699
 2761POPC   NC336851  43.791   6.098   9.665
 2761POPC   PO436852  43.580   5.557   9.847
 2761POPC   GL136853  43.734   5.690   9.355
 2761POPC   GL236854  44.094   5.638   9.230
 2761POPC   C1A36855  43.764   5.730   8.852
 2761POPC   D2A36856  43.980   5.694   8.417
 2761POPC   C3A36857  43.741   5.687   7.991
 2761POPC   C4A36858  43.547   6.058   7.786
 2761POPC   C1B36859  44.268   5.402   8.840
 2761POPC   C2B36860  44.310   5.295   8.386
 2761POPC   C3B36861  44.245   5.534   8.000
 2761POPC   C4B36862  44.095   5.547   7.566
 2762POPC   NC336863  30.905  15.242   9.500
 2762POPC   PO436864  30.439  14.713   9.486
 2762POPC   GL136865  30.532  15.007   9.191
 2762POPC   GL236866  30.877  14.899   9.136
 2762POPC   C1A36867  30.367  15.180   8.816
 2762POPC   D2A36868  30.532  15.193   8.448
 2762POPC   C3A36869  30.596  15.063   8.071
 2762POPC   C4A36870  30.585  15.309   7.714
 2762POPC   C1B36871  30.903  15.174   8.833
 2762POPC   C2B36872  31.043  15.153   8.422
 2762POPC   C3B36873  31.092  14.899   8.080
 2762POPC   C4B36874  31.041  15.104   7.725
 2763POPC   NC336875   3.911   6.189   9.343
 2763POPC   PO436876   4.542   6.344   9.678
 2763POPC   GL136877   4.313   6.567   9.266
 2763POPC   GL236878   4.024   6.633   9.137
 2763POPC   C1A36879   4.289   6.453   8.767
 2763POPC   D2A36880   4.554   6.430   8.387
 2763POPC   C3A36881   4.305   6.481   8.064
 2763POPC   C4A36882   4.219   6.637   7.679
 2763POPC   C1B36883   3.849   6.820   8.777
 2763POPC   C2B36884   3.962   6.752   8.355
 2763POPC   C3B36885   3.810   6.904   7.967
 2763POPC   C4B36886   3.917   7.253   7.686
 2764POPC   NC336887  25.456  43.713   9.773
 2764POPC   PO436888  24.999  43.335   9.442
 2764POPC   GL136889  25.274  43.222   9.114
 2764POPC   GL236890  25.592  43.080   9.246
 2764POPC   C1A36891  25.313  42.906   8.786
 2764POPC   D2A36892  25.342  42.787   8.362
 2764POPC   C3A36893  25.144  43.088   8.095
 2764POPC   C4A36894  25.299  42.932   7.733
 2764POPC   C1B36895  25.700  43.235   8.813
 2764POPC   C2B36896  25.552  43.344   8.437
 2764POPC   C3B36897  25.631  43.145   8.067
 2764POPC   C4B36898  25.514  43.375   7.688
 2765POPC   NC336899  42.369  34.277   9.595
 2765POPC   PO436900  42.213  34.953   9.543
 2765POPC   GL136901  42.422  34.732   9.226
 2765POPC   GL236902  42.245  34.416   9.117
 2765POPC   C1A36903  42.305  34.742   8.751
 2765POPC   D2A36904  42.014  34.732   8.438
 2765POPC   C3A36905  42.223  34.696   8.102
 2765POPC   C4A36906  42.087  34.538   7.784
 2765POPC   C1B36907  42.666  34.421   8.949
 2765POPC   C2B36908  42.694  34.505   8.523
 2765POPC   C3B36909  42.704  34.517   8.097
 2765POPC   C4B36910  42.574  34.484   7.659
 2766POPC   NC336911   3.125  27.776   9.428
 2766POPC   PO436912   2.474  27.482   9.538
 2766POPC   GL136913   2.749  27.427   9.216
 2766POPC   GL236914   2.517  27.174   9.107
 2766POPC   C1A36915   2.826  27.642   8.834
 2766POPC   D2A36916   2.762  27.714   8.431
 2766POPC   C3A36917   3.091  27.718   8.193
 2766POPC   C4A36918   3.041  27.885   7.819
 2766POPC   C1B36919   2.340  27.486   8.832
 2766POPC   C2B36920   2.275  27.566   8.387
 2766POPC   C3B36921   2.393  27.465   7.972
 2766POPC   C4B36922   2.456  27.041   7.828
 2767POPC   NC336923   0.735  18.035   9.516
 2767POPC   PO436924   1.182  17.490   9.562
 2767POPC   GL136925   1.244  17.559   9.174
 2767POPC   GL236926   0.913  17.489   9.144
 2767POPC   C1A36927   1.425  17.320   8.868
 2767POPC   D2A36928   1.274  17.389   8.501
 2767POPC   C3A36929   1.495  17.672   8.278
 2767POPC   C4A36930   1.393  17.587   7.874
 2767POPC   C1B36931   0.788  17.594   8.798
 2767POPC   C2B36932   0.728  17.368   8.463
 2767POPC   C3B36933   0.924  17.437   8.097
 2767POPC   C4B36934   0.918  17.609   7.711
 2768POPC   NC336935   4.832  39.057   9.758
 2768POPC   PO436936   5.463  39.383   9.596
 2768POPC   GL136937   5.264  39.180   9.237
 2768POPC   GL236938   5.206  38.841   9.313
 2768POPC   C1A36939   5.305  39.344   8.791
 2768POPC   D2A36940   5.028  39.585   8.506
 2768POPC   C3A36941   4.948  39.562   8.081
 2768POPC   C4A36942   5.278  39.375   7.851
 2768POPC   C1B36943   5.192  38.830   8.853
 2768POPC   C2B36944   5.088  39.032   8.431
 2768POPC   C3B36945   5.228  38.875   8.021
 2768POPC   C4B36946   5.090  38.856   7.593
 2769POPC   NC336947  44.743   5.808   9.565
 2769POPC   PO436948  44.239   6.287   9.663
 2769POPC   GL136949  44.472   6.175   9.229
 2769POPC   GL236950  44.778   5.998   9.113
 2769POPC   C1A36951  44.379   5.898   8.840
 2769POPC   D2A36952  44.526   5.770   8.426
 2769POPC   C3A36953  44.439   5.999   8.048
 2769POPC   C4A36954  44.512   5.836   7.666
 2769POPC   C1B36955  44.913   5.712   8.835
 2769POPC   C2B36956   0.060   5.812   8.440
 2769POPC   C3B36957  44.943   5.899   8.027
 2769POPC   C4B36958  44.982   5.652   7.671
 2770POPC   NC336959   0.976  23.289   9.548
 2770POPC   PO436960   0.728  23.870   9.624
 2770POPC   GL136961   0.456  23.903   9.177
 2770POPC   GL236962   0.675  23.828   8.917
 2770POPC   C1A36963   0.196  23.850   8.761
 2770POPC   D2A36964   0.499  23.839   8.366
 2770POPC   C3A36965   0.344  23.695   7.942
 2770POPC   C4A36966   0.181  23.290   7.804
 2770POPC   C1B36967   0.489  23.437   8.683
 2770POPC   C2B36968   0.720  23.224   8.417
 2770POPC   C3B36969   0.765  23.469   8.092
 2770POPC   C4B36970   0.835  23.910   7.969
 2771POPC   NC336971   0.894   2.791   9.548
 2771POPC   PO436972   0.890   3.341   9.194
 2771POPC   GL136973   1.165   2.969   9.118
 2771POPC   GL236974   1.065   2.621   9.102
 2771POPC   C1A36975   1.272   2.802   8.685
 2771POPC   D2A36976   1.460   2.843   8.259
 2771POPC   C3A36977   1.241   3.143   8.020
 2771POPC   C4A36978   1.003   2.916   7.739
 2771POPC   C1B36979   0.815   2.397   8.816
 2771POPC   C2B36980   0.723   2.391   8.394
 2771POPC   C3B36981   0.844   2.508   7.991
 2771POPC   C4B36982   1.258   2.457   7.789
 2772POPC   NC336983   0.580  16.374   9.770
 2772POPC   PO436984   0.342  16.939   9.478
 2772POPC   GL136985   0.477  16.740   9.152
 2772POPC   GL236986   0.633  16.474   9.278
 2772POPC   C1A36987   0.347  16.416   8.836
 2772POPC   D2A36988   0.175  16.336   8.435
 2772POPC   C3A36989   0.255  16.652   8.133
 2772POPC   C4A36990   0.414  16.789   7.718
 2772POPC   C1B36991   0.837  16.554   8.869
 2772POPC   C2B36992   0.628  16.674   8.491
 2772POPC   C3B36993   0.786  16.685   8.078
 2772POPC   C4B36994   0.871  16.582   7.686
 2773POPC   NC336995   2.497  10.471   9.471
 2773POPC   PO436996   3.140  10.641   9.571
 2773POPC   GL136997   2.922  10.717   9.131
 2773POPC   GL236998   3.132  10.814   8.843
 2773POPC   C1A36999   2.620  10.841   8.750
 2773POPC   D2A37000   2.709  10.784   8.296
 2773POPC   C3A37001   2.501  10.598   7.920
 2773POPC   C4A37002   2.451  10.167   7.737
 2773POPC   C1B37003   2.869  10.406   8.733
 2773POPC   C2B37004   2.732  10.209   8.358
 2773POPC   C3B37005   2.922  10.327   7.994
 2773POPC   C4B37006   2.990  10.737   7.863
 2774POPC   NC337007  30.750  30.208   9.507
 2774POPC   PO437008  30.944  29.623   9.691
 2774POPC   GL137009  30.920  29.661   9.211
 2774POPC   GL237010  30.753  29.983   9.064
 2774POPC   C1A37011  30.727  29.586   8.776
 2774POPC   D2A37012  30.737  29.923   8.460
 2774POPC   C3A37013  30.834  29.835   8.026
 2774POPC   C4A37014  30.494  29.693   7.774
 2774POPC   C1B37015  30.614  30.310   8.767
 2774POPC   C2B37016  30.716  30.442   8.362
 2774POPC   C3B37017  30.578  30.286   7.989
 2774POPC   C4B37018  30.686  30.123   7.578
 2775POPC   NC337019  17.244   2.586   9.543
 2775POPC   PO437020  17.124   3.240   9.447
 2775POPC   GL137021  17.425   2.962   9.148
 2775POPC   GL237022  17.430   2.566   9.093
 2775POPC   C1A37023  17.424   2.857   8.695
 2775POPC   D2A37024  17.198   2.758   8.339
 2775POPC   C3A37025  17.403   2.794   7.958
 2775POPC   C4A37026  17.831   2.729   7.848
 2775POPC   C1B37027  17.634   2.391   8.730
 2775POPC   C2B37028  17.702   2.443   8.293
 2775POPC   C3B37029  17.539   2.300   7.917
 2775POPC   C4B37030  17.136   2.366   7.816
 2776POPC   NC337031  41.858  25.077   9.360
 2776POPC   PO437032  41.164  25.437   9.458
 2776POPC   GL137033  41.432  25.251   9.134
 2776POPC   GL237034  41.730  25.455   9.051
 2776POPC   C1A37035  41.573  24.951   8.783
 2776POPC   D2A37036  41.367  24.804   8.398
 2776POPC   C3A37037  41.477  24.996   7.985
 2776POPC   C4A37038  41.805  24.954   7.650
 2776POPC   C1B37039  41.518  25.462   8.657
 2776POPC   C2B37040  41.686  25.392   8.242
 2776POPC   C3B37041  41.732  25.446   7.791
 2776POPC   C4B37042  41.493  25.728   7.486
 2777POPC   NC337043  41.510   5.662   9.483
 2777POPC   PO437044  41.701   6.273   9.470
 2777POPC   GL137045  41.650   6.030   9.135
 2777POPC   GL237046  41.300   5.999   9.084
 2777POPC   C1A37047  41.706   6.039   8.708
 2777POPC   D2A37048  41.636   5.770   8.350
 2777POPC   C3A37049  41.421   6.005   8.023
 2777POPC   C4A37050  41.616   6.128   7.591
 2777POPC   C1B37051  41.365   5.662   8.815
 2777POPC   C2B37052  41.177   5.583   8.427
 2777POPC   C3B37053  41.296   5.489   8.013
 2777POPC   C4B37054  41.269   5.712   7.649
 2778POPC   NC337055  26.740   0.983   9.487
 2778POPC   PO437056  26.319   1.380   9.280
 2778POPC   GL137057  26.550   1.108   9.037
 2778POPC   GL237058  26.881   1.208   9.033
 2778POPC   C1A37059  26.685   0.868   8.693
 2778POPC   D2A37060  26.901   0.882   8.332
 2778POPC   C3A37061  26.638   0.953   8.012
 2778POPC   C4A37062  26.469   1.234   7.755
 2778POPC   C1B37063  27.117   1.464   8.746
 2778POPC   C2B37064  27.298   1.455   8.323
 2778POPC   C3B37065  27.062   1.251   7.981
 2778POPC   C4B37066  27.219   1.035   7.621
 2779POPC   NC337067   2.944  19.283   9.641
 2779POPC   PO437068   3.437  18.803   9.374
 2779POPC   GL137069   3.396  19.149   8.998
 2779POPC   GL237070   3.033  19.396   9.035
 2779POPC   C1A37071   3.747  19.103   8.698
 2779POPC   D2A37072   3.992  19.097   8.335
 2779POPC   C3A37073   3.749  19.002   7.964
 2779POPC   C4A37074   3.285  19.018   7.804
 2779POPC   C1B37075   3.106  19.317   8.619
 2779POPC   C2B37076   3.331  19.305   8.246
 2779POPC   C3B37077   3.151  19.490   7.923
 2779POPC   C4B37078   3.233  19.568   7.518
 2780POPC   NC337079  25.962  21.050   9.843
 2780POPC   PO437080  25.767  21.682   9.749
 2780POPC   GL137081  25.835  21.583   9.272
 2780POPC   GL237082  25.985  21.273   9.204
 2780POPC   C1A37083  25.772  21.466   8.803
 2780POPC   D2A37084  26.033  21.443   8.452
 2780POPC   C3A37085  25.924  21.593   8.084
 2780POPC   C4A37086  25.904  21.474   7.671
 2780POPC   C1B37087  26.258  21.195   8.851
 2780POPC   C2B37088  26.366  21.065   8.433
 2780POPC   C3B37089  26.385  21.333   8.051
 2780POPC   C4B37090  26.318  21.117   7.675
 2781POPC   NC337091  15.236  37.201   9.562
 2781POPC   PO437092  15.296  36.661   9.859
 2781POPC   GL137093  15.212  36.772   9.312
 2781POPC   GL237094  15.533  36.814   9.150
 2781POPC   C1A37095  15.006  36.950   8.888
 2781POPC   D2A37096  15.038  37.210   8.476
 2781POPC   C3A37097  15.086  36.995   8.041
 2781POPC   C4A37098  15.423  36.976   7.730
 2781POPC   C1B37099  15.357  36.597   8.767
 2781POPC   C2B37100  15.228  36.591   8.336
 2781POPC   C3B37101  15.370  36.506   7.904
 2781POPC   C4B37102  15.334  36.523   7.420
 2782POPC   NC337103  23.971  23.131   9.497
 2782POPC   PO437104  23.286  22.941   9.591
 2782POPC   GL137105  23.517  23.100   9.212
 2782POPC   GL237106  23.813  22.873   9.096
 2782POPC   C1A37107  23.660  23.234   8.790
 2782POPC   D2A37108  23.795  22.981   8.472
 2782POPC   C3A37109  23.576  22.891   8.093
 2782POPC   C4A37110  23.571  22.682   7.701
 2782POPC   C1B37111  24.162  23.098   8.838
 2782POPC   C2B37112  24.304  22.965   8.433
 2782POPC   C3B37113  24.086  22.785   8.088
 2782POPC   C4B37114  23.955  23.012   7.713
 2783POPC   NC337115  18.703  15.755   9.472
 2783POPC   PO437116  19.326  16.119   9.538
 2783POPC   GL137117  19.139  16.012   9.165
 2783POPC   GL237118  18.845  16.085   9.109
 2783POPC   C1A37119  19.190  16.095   8.734
 2783POPC   D2A37120  19.407  16.149   8.360
 2783POPC   C3A37121  19.181  15.955   8.054
 2783POPC   C4A37122  18.988  16.223   7.795
 2783POPC   C1B37123  18.787  15.714   8.827
 2783POPC   C2B37124  18.773  15.560   8.396
 2783POPC   C3B37125  18.699  15.723   7.989
 2783POPC   C4B37126  18.940  15.737   7.624
 2784POPC   NC337127  35.777  41.743   9.550
 2784POPC   PO437128  36.265  41.292   9.528
 2784POPC   GL137129  36.094  41.516   9.185
 2784POPC   GL237130  35.758  41.423   9.174
 2784POPC   C1A37131  36.188  41.417   8.792
 2784POPC   D2A37132  36.461  41.540   8.464
 2784POPC   C3A37133  36.239  41.545   8.085
 2784POPC   C4A37134  36.122  41.338   7.703
 2784POPC   C1B37135  35.671  41.609   8.777
 2784POPC   C2B37136  35.778  41.736   8.346
 2784POPC   C3B37137  35.737  41.612   7.916
 2784POPC   C4B37138  35.752  41.587   7.448
 2785POPC   NC337139   4.087  13.341   9.795
 2785POPC   PO437140   4.400  12.882   9.392
 2785POPC   GL137141   4.347  12.689   9.012
 2785POPC   GL237142   4.164  12.997   8.906
 2785POPC   C1A37143   4.131  12.576   8.629
 2785POPC   D2A37144   4.029  12.855   8.287
 2785POPC   C3A37145   4.152  12.687   7.894
 2785POPC   C4A37146   4.330  12.625   7.505
 2785POPC   C1B37147   4.592  13.069   8.787
 2785POPC   C2B37148   4.651  13.175   8.399
 2785POPC   C3B37149   4.458  13.087   8.028
 2785POPC   C4B37150   4.388  13.222   7.616
 2786POPC   NC337151   3.472   4.513   9.429
 2786POPC   PO437152   3.837   5.025   9.701
 2786POPC   GL137153   3.608   5.193   9.319
 2786POPC   GL237154   3.329   4.983   9.250
 2786POPC   C1A37155   3.485   5.290   8.843
 2786POPC   D2A37156   3.683   5.299   8.413
 2786POPC   C3A37157   3.587   5.399   7.972
 2786POPC   C4A37158   3.755   5.208   7.561
 2786POPC   C1B37159   3.293   4.816   8.833
 2786POPC   C2B37160   3.512   4.800   8.462
 2786POPC   C3B37161   3.560   4.904   8.050
 2786POPC   C4B37162   3.301   4.962   7.718
 2787POPC   NC337163   9.971  13.799   9.455
 2787POPC   PO437164   9.492  13.266   9.518
 2787POPC   GL137165   9.629  13.511   9.191
 2787POPC   GL237166   9.981  13.425   9.103
 2787POPC   C1A37167   9.570  13.755   8.814
 2787POPC   D2A37168   9.363  13.658   8.409
 2787POPC   C3A37169   9.581  13.540   8.026
 2787POPC   C4A37170   9.635  13.767   7.604
 2787POPC   C1B37171  10.143  13.477   8.704
 2787POPC   C2B37172   9.932  13.681   8.371
 2787POPC   C3B37173  10.060  13.708   7.926
 2787POPC   C4B37174  10.108  13.595   7.492
 2788POPC   NC337175   7.538  38.902   9.672
 2788POPC   PO437176   7.158  39.374   9.438
 2788POPC   GL137177   7.510  39.468   9.176
 2788POPC   GL237178   7.794  39.260   9.336
 2788POPC   C1A37179   7.442  39.475   8.709
 2788POPC   D2A37180   7.130  39.365   8.385
 2788POPC   C3A37181   7.214  39.435   7.911
 2788POPC   C4A37182   7.167  39.719   7.512
 2788POPC   C1B37183   7.697  39.064   8.922
 2788POPC   C2B37184   7.493  38.990   8.510
 2788POPC   C3B37185   7.618  39.045   8.099
 2788POPC   C4B37186   7.651  39.032   7.673
 2789POPC   NC337187  19.869  11.322   9.553
 2789POPC   PO437188  19.723  10.756   9.427
 2789POPC   GL137189  19.736  11.132   9.098
 2789POPC   GL237190  20.065  11.291   9.075
 2789POPC   C1A37191  19.694  11.474   8.750
 2789POPC   D2A37192  19.950  11.613   8.363
 2789POPC   C3A37193  19.808  11.499   7.958
 2789POPC   C4A37194  19.373  11.567   7.854
 2789POPC   C1B37195  20.053  11.146   8.615
 2789POPC   C2B37196  19.883  10.879   8.245
 2789POPC   C3B37197  20.019  10.862   7.819
 2789POPC   C4B37198  20.290  11.186   7.620
 2790POPC   NC337199   6.857  17.475   9.495
 2790POPC   PO437200   6.231  17.904   9.493
 2790POPC   GL137201   6.190  17.749   9.084
 2790POPC   GL237202   6.471  17.533   9.111
 2790POPC   C1A37203   6.366  17.671   8.645
 2790POPC   D2A37204   6.688  17.378   8.424
 2790POPC   C3A37205   6.646  17.418   7.962
 2790POPC   C4A37206   6.521  17.812   7.776
 2790POPC   C1B37207   6.850  17.644   8.870
 2790POPC   C2B37208   6.963  17.808   8.482
 2790POPC   C3B37209   7.029  17.771   8.045
 2790POPC   C4B37210   6.996  17.929   7.646
 2791POPC   NC337211  35.598  17.251   9.412
 2791POPC   PO437212  34.982  17.579   9.383
 2791POPC   GL137213  35.273  17.656   9.081
 2791POPC   GL237214  35.579  17.826   9.151
 2791POPC   C1A37215  35.458  17.440   8.739
 2791POPC   D2A37216  35.534  17.275   8.317
 2791POPC   C3A37217  35.538  17.522   7.925
 2791POPC   C4A37218  35.101  17.679   7.811
 2791POPC   C1B37219  35.554  17.937   8.747
 2791POPC   C2B37220  35.415  17.799   8.350
 2791POPC   C3B37221  35.496  18.004   7.979
 2791POPC   C4B37222  35.767  17.938   7.674
 2792POPC   NC337223   7.111   8.181   9.386
 2792POPC   PO437224   6.442   8.384   9.564
 2792POPC   GL137225   6.562   8.335   9.140
 2792POPC   GL237226   6.771   8.092   9.014
 2792POPC   C1A37227   6.370   8.323   8.726
 2792POPC   D2A37228   6.282   8.287   8.292
 2792POPC   C3A37229   6.625   8.317   7.969
 2792POPC   C4A37230   6.852   8.427   7.593
 2792POPC   C1B37231   6.862   7.769   8.724
 2792POPC   C2B37232   6.714   7.925   8.353
 2792POPC   C3B37233   6.846   7.810   7.987
 2792POPC   C4B37234   6.758   7.932   7.609
 2793POPC   NC337235   0.536   5.262   9.856
 2793POPC   PO437236   1.149   5.054   9.626
 2793POPC   GL137237   1.104   5.242   9.232
 2793POPC   GL237238   1.257   5.600   9.208
 2793POPC   C1A37239   1.155   4.940   8.895
 2793POPC   D2A37240   1.205   4.834   8.465
 2793POPC   C3A37241   1.080   5.168   8.203
 2793POPC   C4A37242   1.041   5.264   7.766
 2793POPC   C1B37243   1.511   5.292   8.935
 2793POPC   C2B37244   1.694   5.192   8.549
 2793POPC   C3B37245   1.596   5.243   8.117
 2793POPC   C4B37246   1.509   4.971   7.764
 2794POPC   NC337247   3.255  12.819   9.605
 2794POPC   PO437248   3.712  13.175   9.568
 2794POPC   GL137249   3.389  13.133   9.220
 2794POPC   GL237250   3.616  13.311   9.050
 2794POPC   C1A37251   3.329  12.910   8.809
 2794POPC   D2A37252   3.616  12.637   8.530
 2794POPC   C3A37253   3.593  12.550   8.066
 2794POPC   C4A37254   3.684  12.704   7.639
 2794POPC   C1B37255   3.749  13.167   8.652
 2794POPC   C2B37256   3.484  13.099   8.321
 2794POPC   C3B37257   3.505  13.077   7.915
 2794POPC   C4B37258   3.939  13.151   7.856
 2795POPC   NC337259   8.013  30.239   9.447
 2795POPC   PO437260   8.007  30.967   9.443
 2795POPC   GL137261   8.184  30.817   9.060
 2795POPC   GL237262   8.343  30.475   9.120
 2795POPC   C1A37263   7.985  30.846   8.654
 2795POPC   D2A37264   8.018  30.833   8.213
 2795POPC   C3A37265   7.943  30.514   7.934
 2795POPC   C4A37266   8.027  30.656   7.507
 2795POPC   C1B37267   8.062  30.337   8.791
 2795POPC   C2B37268   8.174  30.398   8.397
 2795POPC   C3B37269   8.473  30.366   8.092
 2795POPC   C4B37270   8.380  30.312   7.679
 2796POPC   NC337271  39.474  32.716   9.353
 2796POPC   PO437272  39.353  32.175   9.731
 2796POPC   GL137273  39.302  32.239   9.262
 2796POPC   GL237274  38.981  32.142   9.175
 2796POPC   C1A37275  39.166  32.500   8.841
 2796POPC   D2A37276  39.427  32.567   8.472
 2796POPC   C3A37277  39.457  32.356   8.061
 2796POPC   C4A37278  39.353  32.320   7.630
 2796POPC   C1B37279  39.290  32.015   8.796
 2796POPC   C2B37280  39.371  31.961   8.351
 2796POPC   C3B37281  39.061  32.021   7.962
 2796POPC   C4B37282  38.964  31.770   7.582
 2797POPC   NC337283  30.258  37.884   9.522
 2797POPC   PO437284  29.850  37.369   9.608
 2797POPC   GL137285  30.028  37.512   9.237
 2797POPC   GL237286  29.733  37.447   9.082
 2797POPC   C1A37287  30.225  37.534   8.823
 2797POPC   D2A37288  30.055  37.591   8.418
 2797POPC   C3A37289  30.179  37.533   7.990
 2797POPC   C4A37290  29.994  37.825   7.741
 2797POPC   C1B37291  29.404  37.304   8.821
 2797POPC   C2B37292  29.485  37.284   8.408
 2797POPC   C3B37293  29.334  37.383   8.029
 2797POPC   C4B37294  29.608  37.494   7.722
 2798POPC   NC337295  22.422  36.096   9.377
 2798POPC   PO437296  21.780  36.155   9.416
 2798POPC   GL137297  22.032  36.285   9.072
 2798POPC   GL237298  22.317  36.539   9.107
 2798POPC   C1A37299  21.913  36.192   8.669
 2798POPC   D2A37300  21.728  36.344   8.306
 2798POPC   C3A37301  21.898  36.202   7.927
 2798POPC   C4A37302  21.993  35.787   7.758
 2798POPC   C1B37303  22.421  36.284   8.714
 2798POPC   C2B37304  22.260  36.107   8.311
 2798POPC   C3B37305  22.438  35.999   7.930
 2798POPC   C4B37306  22.351  36.373   7.752
 2799POPC   NC337307  44.294   6.647   9.381
 2799POPC   PO437308  44.928   6.290   9.495
 2799POPC   GL137309  44.928   6.482   9.082
 2799POPC   GL237310  44.662   6.641   8.883
 2799POPC   C1A37311  44.949   6.246   8.700
 2799POPC   D2A37312  44.667   6.284   8.389
 2799POPC   C3A37313  44.794   6.386   7.969
 2799POPC   C4A37314  44.737   6.788   7.808
 2799POPC   C1B37315  44.275   6.859   8.695
 2799POPC   C2B37316  44.103   6.673   8.328
 2799POPC   C3B37317  44.303   6.516   7.969
 2799POPC   C4B37318  44.221   6.768   7.579
 2800POPC   NC337319  43.066  42.176   9.546
 2800POPC   PO437320  43.195  42.873   9.584
 2800POPC   GL137321  43.219  42.509   9.219
 2800POPC   GL237322  42.961  42.396   9.057
 2800POPC   C1A37323  43.424  42.304   8.837
 2800POPC   D2A37324  43.216  42.220   8.433
 2800POPC   C3A37325  43.391  42.334   8.054
 2800POPC   C4A37326  43.349  42.370   7.675
 2800POPC   C1B37327  42.775  42.389   8.646
 2800POPC   C2B37328  42.807  42.562   8.234
 2800POPC   C3B37329  42.902  42.291   7.887
 2800POPC   C4B37330  42.765  42.140   7.469
 2801POPC   NC337331   7.095  19.234   9.419
 2801POPC   PO437332   7.556  18.826   9.720
 2801POPC   GL137333   7.452  18.916   9.246
 2801POPC   GL237334   7.741  18.963   9.034
 2801POPC   C1A37335   7.306  19.152   8.814
 2801POPC   D2A37336   7.432  19.327   8.400
 2801POPC   C3A37337   7.363  19.042   8.055
 2801POPC   C4A37338   7.212  19.261   7.731
 2801POPC   C1B37339   7.726  18.934   8.605
 2801POPC   C2B37340   7.860  19.082   8.239
 2801POPC   C3B37341   7.783  19.309   7.890
 2801POPC   C4B37342   7.700  19.016   7.611
 2802POPC   NC337343  13.462  13.878   9.543
 2802POPC   PO437344  13.337  13.170   9.446
 2802POPC   GL137345  13.489  13.562   9.144
 2802POPC   GL237346  13.247  13.874   9.109
 2802POPC   C1A37347  13.718  13.835   8.802
 2802POPC   D2A37348  13.938  13.730   8.403
 2802POPC   C3A37349  13.743  13.934   8.056
 2802POPC   C4A37350  13.583  13.694   7.734
 2802POPC   C1B37351  13.222  13.725   8.735
 2802POPC   C2B37352  13.440  13.626   8.394
 2802POPC   C3B37353  13.245  13.844   8.084
 2802POPC   C4B37354  13.161  14.038   7.679
 2803POPC   NC337355   4.751  15.463   9.462
 2803POPC   PO437356   5.417  15.185   9.583
 2803POPC   GL137357   5.208  15.141   9.214
 2803POPC   GL237358   4.903  14.955   9.289
 2803POPC   C1A37359   5.206  15.235   8.771
 2803POPC   D2A37360   4.908  15.206   8.435
 2803POPC   C3A37361   4.947  15.367   8.027
 2803POPC   C4A37362   5.260  15.260   7.730
 2803POPC   C1B37363   4.957  14.803   8.875
 2803POPC   C2B37364   5.013  14.685   8.471
 2803POPC   C3B37365   5.082  14.869   8.086
 2803POPC   C4B37366   4.863  14.946   7.724
 2804POPC   NC337367  10.953  43.455   9.349
 2804POPC   PO437368  10.649  43.941   9.675
 2804POPC   GL137369  10.772  43.935   9.203
 2804POPC   GL237370  10.579  43.625   9.058
 2804POPC   C1A37371  10.665  43.997   8.737
 2804POPC   D2A37372  10.388  43.734   8.497
 2804POPC   C3A37373  10.480  43.848   8.091
 2804POPC   C4A37374  10.262  43.785   7.729
 2804POPC   C1B37375  10.863  43.528   8.696
 2804POPC   C2B37376  10.739  43.414   8.307
 2804POPC   C3B37377  10.764  43.477   7.868
 2804POPC   C4B37378  11.123  43.639   7.688
 2805POPC   NC337379   8.294  38.560   9.661
 2805POPC   PO437380   7.988  37.945   9.498
 2805POPC   GL137381   8.133  38.102   9.113
 2805POPC   GL237382   8.390  38.386   9.174
 2805POPC   C1A37383   7.875  38.216   8.756
 2805POPC   D2A37384   7.858  38.619   8.550
 2805POPC   C3A37385   8.073  38.671   8.173
 2805POPC   C4A37386   7.936  38.588   7.754
 2805POPC   C1B37387   8.344  38.403   8.717
 2805POPC   C2B37388   8.209  38.185   8.344
 2805POPC   C3B37389   8.412  38.308   7.971
 2805POPC   C4B37390   8.501  38.736   7.868
 2806POPC   NC337391  39.156  42.897   9.550
 2806POPC   PO437392  39.222  43.606   9.478
 2806POPC   GL137393  39.345  43.251   9.237
 2806POPC   GL237394  39.030  43.140   9.133
 2806POPC   C1A37395  39.422  43.047   8.830
 2806POPC   D2A37396  39.365  43.247   8.417
 2806POPC   C3A37397  39.163  42.968   8.105
 2806POPC   C4A37398  39.122  42.905   7.658
 2806POPC   C1B37399  39.044  43.435   8.824
 2806POPC   C2B37400  38.737  43.508   8.561
 2806POPC   C3B37401  38.784  43.331   8.184
 2806POPC   C4B37402  39.062  43.408   7.858
 2807POPC   NC337403  19.781  18.617   9.469
 2807POPC   PO437404  20.258  18.216   9.576
 2807POPC   GL137405  20.091  18.353   9.146
 2807POPC   GL237406  19.691  18.349   9.058
 2807POPC   C1A37407  20.033  18.196   8.710
 2807POPC   D2A37408  20.007  17.998   8.315
 2807POPC   C3A37409  20.028  18.249   7.968
 2807POPC   C4A37410  19.893  18.675   7.792
 2807POPC   C1B37411  19.807  18.677   8.758
 2807POPC   C2B37412  19.800  18.707   8.312
 2807POPC   C3B37413  19.549  18.409   8.079
 2807POPC   C4B37414  19.468  18.090   7.800
 2808POPC   NC337415  16.261   2.403   9.531
 2808POPC   PO437416  16.009   2.914   9.677
 2808POPC   GL137417  16.134   2.982   9.235
 2808POPC   GL237418  16.433   2.765   9.208
 2808POPC   C1A37419  15.937   2.870   8.798
 2808POPC   D2A37420  15.937   3.067   8.348
 2808POPC   C3A37421  15.871   2.836   7.938
 2808POPC   C4A37422  15.678   2.418   7.826
 2808POPC   C1B37423  16.442   2.819   8.786
 2808POPC   C2B37424  16.228   2.582   8.432
 2808POPC   C3B37425  16.155   2.410   8.013
 2808POPC   C4B37426  16.189   2.620   7.568
 2809POPC   NC337427  13.555  41.194   9.449
 2809POPC   PO437428  13.521  40.501   9.557
 2809POPC   GL137429  13.562  40.495   9.149
 2809POPC   GL237430  13.719  40.799   9.137
 2809POPC   C1A37431  13.486  40.422   8.725
 2809POPC   D2A37432  13.636  40.538   8.367
 2809POPC   C3A37433  13.471  40.423   8.013
 2809POPC   C4A37434  13.513  40.654   7.605
 2809POPC   C1B37435  13.740  40.908   8.723
 2809POPC   C2B37436  13.520  41.039   8.367
 2809POPC   C3B37437  13.742  40.895   7.998
 2809POPC   C4B37438  13.891  41.091   7.604
 2810POPC   NC337439   7.108  31.771   9.822
 2810POPC   PO437440   7.646  31.554   9.428
 2810POPC   GL137441   7.504  31.414   9.066
 2810POPC   GL237442   7.796  31.200   9.030
 2810POPC   C1A37443   7.193  31.445   8.729
 2810POPC   D2A37444   7.100  31.218   8.332
 2810POPC   C3A37445   7.254  31.441   7.970
 2810POPC   C4A37446   7.378  31.307   7.565
 2810POPC   C1B37447   7.756  31.426   8.629
 2810POPC   C2B37448   7.731  31.445   8.195
 2810POPC   C3B37449   7.795  31.511   7.764
 2810POPC   C4B37450   7.959  31.464   7.355
 2811POPC   NC337451   8.392  25.786   9.596
 2811POPC   PO437452   7.776  26.029   9.762
 2811POPC   GL137453   7.989  25.937   9.264
 2811POPC   GL237454   8.357  25.848   9.111
 2811POPC   C1A37455   8.076  26.026   8.769
 2811POPC   D2A37456   8.247  25.789   8.382
 2811POPC   C3A37457   8.212  25.974   7.924
 2811POPC   C4A37458   8.280  26.282   7.557
 2811POPC   C1B37459   8.598  26.053   8.751
 2811POPC   C2B37460   8.568  26.181   8.307
 2811POPC   C3B37461   8.693  26.182   7.870
 2811POPC   C4B37462   8.772  26.264   7.434
 2812POPC   NC337463  18.852   7.241   9.590
 2812POPC   PO437464  19.158   7.835   9.525
 2812POPC   GL137465  19.115   7.546   9.176
 2812POPC   GL237466  19.100   7.185   9.136
 2812POPC   C1A37467  19.112   7.607   8.745
 2812POPC   D2A37468  18.778   7.673   8.419
 2812POPC   C3A37469  18.820   7.847   7.996
 2812POPC   C4A37470  18.863   7.693   7.555
 2812POPC   C1B37471  19.286   7.044   8.773
 2812POPC   C2B37472  19.245   7.272   8.383
 2812POPC   C3B37473  19.073   7.372   7.960
 2812POPC   C4B37474  19.170   7.292   7.521
 2813POPC   NC337475   0.673  22.538  10.018
 2813POPC   PO437476   0.157  22.357   9.572
 2813POPC   GL137477   0.355  22.037   9.321
 2813POPC   GL237478   0.537  22.274   9.150
 2813POPC   C1A37479   0.281  21.938   8.854
 2813POPC   D2A37480   0.477  22.119   8.448
 2813POPC   C3A37481   0.246  22.185   8.037
 2813POPC   C4A37482   0.207  21.937   7.690
 2813POPC   C1B37483   0.739  22.571   8.877
 2813POPC   C2B37484   0.812  22.731   8.460
 2813POPC   C3B37485   0.782  22.508   8.096
 2813POPC   C4B37486   0.566  22.529   7.727
 2814POPC   NC337487   5.615   4.576   9.390
 2814POPC   PO437488   6.112   4.981   9.640
 2814POPC   GL137489   5.855   5.029   9.218
 2814POPC   GL237490   5.542   5.289   9.181
 2814POPC   C1A37491   5.849   4.847   8.770
 2814POPC   D2A37492   5.761   4.771   8.311
 2814POPC   C3A37493   5.896   5.036   7.947
 2814POPC   C4A37494   6.012   4.918   7.494
 2814POPC   C1B37495   5.512   5.238   8.709
 2814POPC   C2B37496   5.881   5.273   8.406
 2814POPC   C3B37497   6.234   5.398   8.126
 2814POPC   C4B37498   6.376   5.121   7.817
 2815POPC   NC337499  39.253  39.446   9.520
 2815POPC   PO437500  39.544  38.775   9.551
 2815POPC   GL137501  39.493  39.123   9.192
 2815POPC   GL237502  39.202  39.320   9.006
 2815POPC   C1A37503  39.569  39.127   8.738
 2815POPC   D2A37504  39.342  39.193   8.364
 2815POPC   C3A37505  39.574  39.119   8.005
 2815POPC   C4A37506  39.551  39.259   7.610
 2815POPC   C1B37507  39.070  38.959   8.749
 2815POPC   C2B37508  38.826  39.006   8.373
 2815POPC   C3B37509  38.769  39.216   7.995
 2815POPC   C4B37510  39.144  39.401   7.890
 2816POPC   NC337511  34.237   0.255   9.552
 2816POPC   PO437512  34.847   0.637   9.535
 2816POPC   GL137513  34.549   0.506   9.211
 2816POPC   GL237514  34.528   0.160   9.126
 2816POPC   C1A37515  34.369   0.553   8.802
 2816POPC   D2A37516  34.380   0.318   8.423
 2816POPC   C3A37517  34.613   0.388   8.059
 2816POPC   C4A37518  34.468   0.488   7.673
 2816POPC   C1B37519  34.539  44.926   8.741
 2816POPC   C2B37520  34.709  44.950   8.314
 2816POPC   C3B37521  34.588  44.925   7.882
 2816POPC   C4B37522  34.771  44.980   7.440
 2817POPC   NC337523   4.141  42.363   9.598
 2817POPC   PO437524   4.652  42.054   9.312
 2817POPC   GL137525   4.371  42.325   9.130
 2817POPC   GL237526   4.355  42.677   9.222
 2817POPC   C1A37527   4.134  42.241   8.784
 2817POPC   D2A37528   3.978  42.083   8.378
 2817POPC   C3A37529   4.246  42.138   8.008
 2817POPC   C4A37530   4.599  42.327   7.823
 2817POPC   C1B37531   4.441  42.697   8.792
 2817POPC   C2B37532   4.348  42.479   8.387
 2817POPC   C3B37533   4.220  42.652   8.003
 2817POPC   C4B37534   4.376  42.717   7.583
 2818POPC   NC337535  18.938  44.233   9.420
 2818POPC   PO437536  19.327  44.769   9.396
 2818POPC   GL137537  19.113  44.574   9.112
 2818POPC   GL237538  18.881  44.777   9.091
 2818POPC   C1A37539  19.029  44.357   8.755
 2818POPC   D2A37540  18.852  44.455   8.329
 2818POPC   C3A37541  19.046  44.389   7.909
 2818POPC   C4A37542  19.326  44.563   7.556
 2818POPC   C1B37543  19.167  44.887   8.732
 2818POPC   C2B37544  19.018  44.953   8.349
 2818POPC   C3B37545  19.051  44.884   7.942
 2818POPC   C4B37546  19.233   0.079   7.620
 2819POPC   NC337547  25.061   7.726   9.463
 2819POPC   PO437548  25.506   7.202   9.506
 2819POPC   GL137549  25.366   7.252   9.110
 2819POPC   GL237550  25.445   7.609   9.133
 2819POPC   C1A37551  25.549   7.375   8.708
 2819POPC   D2A37552  25.289   7.452   8.352
 2819POPC   C3A37553  25.452   7.266   7.986
 2819POPC   C4A37554  25.129   7.445   7.770
 2819POPC   C1B37555  25.135   7.710   8.800
 2819POPC   C2B37556  24.830   7.733   8.459
 2819POPC   C3B37557  24.837   7.853   8.034
 2819POPC   C4B37558  24.770   7.725   7.594
 2820POPC   NC337559  22.970  43.513   9.586
 2820POPC   PO437560  22.717  44.175   9.520
 2820POPC   GL137561  22.712  44.064   9.109
 2820POPC   GL237562  22.963  43.819   9.167
 2820POPC   C1A37563  22.823  44.051   8.675
 2820POPC   D2A37564  22.672  44.137   8.254
 2820POPC   C3A37565  22.766  43.998   7.852
 2820POPC   C4A37566  22.550  44.313   7.643
 2820POPC   C1B37567  23.117  43.651   8.743
 2820POPC   C2B37568  23.025  43.723   8.275
 2820POPC   C3B37569  23.038  43.554   7.824
 2820POPC   C4B37570  22.849  43.426   7.419
 2821POPC   NC337571  24.957   9.147   9.762
 2821POPC   PO437572  25.465   8.738   9.555
 2821POPC   GL137573  25.280   8.887   9.233
 2821POPC   GL237574  25.228   9.226   9.292
 2821POPC   C1A37575  25.266   8.736   8.821
 2821POPC   D2A37576  25.392   9.003   8.506
 2821POPC   C3A37577  25.286   8.884   8.096
 2821POPC   C4A37578  25.520   9.019   7.723
 2821POPC   C1B37579  24.991   9.143   8.893
 2821POPC   C2B37580  24.889   8.987   8.477
 2821POPC   C3B37581  24.830   9.162   8.050
 2821POPC   C4B37582  24.985   9.019   7.652
 2822POPC   NC337583  27.234  35.392   9.682
 2822POPC   PO437584  27.823  35.601   9.486
 2822POPC   GL137585  27.650  35.310   9.210
 2822POPC   GL237586  27.547  34.981   9.315
 2822POPC   C1A37587  27.807  35.370   8.795
 2822POPC   D2A37588  27.711  35.603   8.461
 2822POPC   C3A37589  27.903  35.489   8.113
 2822POPC   C4A37590  27.711  35.503   7.739
 2822POPC   C1B37591  27.582  34.921   8.851
 2822POPC   C2B37592  27.473  35.105   8.471
 2822POPC   C3B37593  27.612  35.074   8.067
 2822POPC   C4B37594  27.655  34.819   7.735
 2823POPC   NC337595  17.392   6.517   9.517
 2823POPC   PO437596  17.788   7.082   9.329
 2823POPC   GL137597  17.503   6.780   9.096
 2823POPC   GL237598  17.134   6.743   9.118
 2823POPC   C1A37599  17.375   6.405   8.842
 2823POPC   D2A37600  17.233   6.518   8.454
 2823POPC   C3A37601  17.480   6.687   8.166
 2823POPC   C4A37602  17.574   6.456   7.817
 2823POPC   C1B37603  17.153   7.031   8.771
 2823POPC   C2B37604  17.019   7.015   8.351
 2823POPC   C3B37605  17.152   7.176   8.001
 2823POPC   C4B37606  17.331   6.931   7.722
 2824POPC   NC337607  16.073   3.917   9.327
 2824POPC   PO437608  16.234   4.542   9.484
 2824POPC   GL137609  15.918   4.496   9.202
 2824POPC   GL237610  16.100   4.339   8.978
 2824POPC   C1A37611  15.671   4.648   8.882
 2824POPC   D2A37612  15.586   4.642   8.469
 2824POPC   C3A37613  15.839   4.450   8.157
 2824POPC   C4A37614  16.077   4.467   7.775
 2824POPC   C1B37615  15.991   4.197   8.590
 2824POPC   C2B37616  15.976   3.955   8.226
 2824POPC   C3B37617  16.228   3.819   7.903
 2824POPC   C4B37618  16.318   4.032   7.540
 2825POPC   NC337619  29.636  36.255   9.568
 2825POPC   PO437620  30.199  35.961   9.465
 2825POPC   GL137621  30.044  36.209   9.152
 2825POPC   GL237622  29.747  36.391   9.105
 2825POPC   C1A37623  29.975  36.120   8.738
 2825POPC   D2A37624  30.171  36.289   8.395
 2825POPC   C3A37625  30.175  36.154   7.978
 2825POPC   C4A37626  30.457  35.926   7.734
 2825POPC   C1B37627  29.517  36.348   8.752
 2825POPC   C2B37628  29.608  36.204   8.386
 2825POPC   C3B37629  29.550  36.380   8.052
 2825POPC   C4B37630  29.740  36.270   7.717
 2826POPC   NC337631  34.887  43.718   9.514
 2826POPC   PO437632  34.400  44.122   9.499
 2826POPC   GL137633  34.326  43.925   9.099
 2826POPC   GL237634  34.535  43.617   9.144
 2826POPC   C1A37635  34.403  43.775   8.667
 2826POPC   D2A37636  34.622  44.017   8.381
 2826POPC   C3A37637  34.653  43.928   8.015
 2826POPC   C4A37638  34.418  44.049   7.672
 2826POPC   C1B37639  34.785  43.368   8.828
 2826POPC   C2B37640  34.777  43.499   8.412
 2826POPC   C3B37641  34.824  43.446   7.999
 2826POPC   C4B37642  34.648  43.608   7.616
 2827POPC   NC337643  30.341   4.154   9.426
 2827POPC   PO437644  30.881   4.604   9.424
 2827POPC   GL137645  30.688   4.420   9.141
 2827POPC   GL237646  30.340   4.595   9.128
 2827POPC   C1A37647  30.821   4.158   8.797
 2827POPC   D2A37648  30.534   4.091   8.480
 2827POPC   C3A37649  30.392   4.056   8.080
 2827POPC   C4A37650  30.660   4.048   7.778
 2827POPC   C1B37651  30.518   4.574   8.703
 2827POPC   C2B37652  30.415   4.591   8.295
 2827POPC   C3B37653  30.526   4.535   7.896
 2827POPC   C4B37654  30.617   4.446   7.475
 2828POPC   NC337655   5.555  24.472   9.367
 2828POPC   PO437656   4.930  24.653   9.561
 2828POPC   GL137657   4.940  24.657   9.142
 2828POPC   GL237658   5.122  24.347   9.112
 2828POPC   C1A37659   5.212  24.769   8.786
 2828POPC   D2A37660   5.282  24.567   8.396
 2828POPC   C3A37661   5.176  24.715   8.018
 2828POPC   C4A37662   5.324  24.439   7.763
 2828POPC   C1B37663   4.909  24.374   8.722
 2828POPC   C2B37664   4.780  24.515   8.346
 2828POPC   C3B37665   4.883  24.276   7.999
 2828POPC   C4B37666   4.799  24.062   7.625
 2829POPC   NC337667  39.432   6.384   9.651
 2829POPC   PO437668  39.105   6.998   9.899
 2829POPC   GL137669  39.066   6.769   9.393
 2829POPC   GL237670  38.793   6.789   9.157
 2829POPC   C1A37671  39.283   6.740   8.907
 2829POPC   D2A37672  39.466   6.881   8.462
 2829POPC   C3A37673  39.344   6.634   8.059
 2829POPC   C4A37674  39.488   6.208   7.939
 2829POPC   C1B37675  38.894   6.397   8.900
 2829POPC   C2B37676  38.884   6.232   8.464
 2829POPC   C3B37677  38.867   6.389   8.031
 2829POPC   C4B37678  39.095   6.368   7.661
 2830POPC   NC337679  20.338  24.027   9.502
 2830POPC   PO437680  20.875  24.277   9.690
 2830POPC   GL137681  20.786  24.498   9.270
 2830POPC   GL237682  20.607  24.263   9.131
 2830POPC   C1A37683  20.716  24.731   8.850
 2830POPC   D2A37684  20.442  24.810   8.453
 2830POPC   C3A37685  20.656  24.705   8.056
 2830POPC   C4A37686  20.895  24.463   7.738
 2830POPC   C1B37687  20.384  24.357   8.767
 2830POPC   C2B37688  20.399  24.310   8.347
 2830POPC   C3B37689  20.197  24.494   8.012
 2830POPC   C4B37690  20.414  24.268   7.753
 2831POPC   NC337691  22.700  37.846   9.526
 2831POPC   PO437692  23.129  37.387   9.633
 2831POPC   GL137693  23.019  37.551   9.224
 2831POPC   GL237694  23.190  37.862   9.320
 2831POPC   C1A37695  22.777  37.595   8.802
 2831POPC   D2A37696  22.820  37.524   8.333
 2831POPC   C3A37697  23.122  37.435   7.994
 2831POPC   C4A37698  22.853  37.562   7.654
 2831POPC   C1B37699  23.126  37.958   8.888
 2831POPC   C2B37700  23.224  37.851   8.448
 2831POPC   C3B37701  23.064  37.943   8.011
 2831POPC   C4B37702  23.277  37.800   7.617
 2832POPC   NC337703  32.664  19.918   9.557
 2832POPC   PO437704  33.215  19.670   9.631
 2832POPC   GL137705  33.071  19.880   9.240
 2832POPC   GL237706  33.254  19.625   9.114
 2832POPC   C1A37707  32.947  19.916   8.751
 2832POPC   D2A37708  32.625  19.998   8.395
 2832POPC   C3A37709  32.780  19.998   7.958
 2832POPC   C4A37710  32.722  20.106   7.493
 2832POPC   C1B37711  33.432  19.964   8.896
 2832POPC   C2B37712  33.422  20.032   8.455
 2832POPC   C3B37713  33.471  19.846   8.052
 2832POPC   C4B37714  33.187  19.837   7.684
 2833POPC   NC337715  27.995  29.131   9.825
 2833POPC   PO437716  28.398  29.588   9.589
 2833POPC   GL137717  28.413  29.500   9.168
 2833POPC   GL237718  28.778  29.613   9.150
 2833POPC   C1A37719  28.464  29.149   8.852
 2833POPC   D2A37720  28.739  29.067   8.479
 2833POPC   C3A37721  28.530  28.905   8.102
 2833POPC   C4A37722  28.669  28.694   7.720
 2833POPC   C1B37723  28.628  29.592   8.733
 2833POPC   C2B37724  28.390  29.453   8.402
 2833POPC   C3B37725  28.609  29.406   8.032
 2833POPC   C4B37726  28.503  29.360   7.607
 2834POPC   NC337727  13.708   8.604   9.819
 2834POPC   PO437728  13.654   9.203   9.458
 2834POPC   GL137729  13.617   9.065   9.064
 2834POPC   GL237730  13.653   8.705   9.146
 2834POPC   C1A37731  13.323   9.198   8.750
 2834POPC   D2A37732  13.262   9.060   8.338
 2834POPC   C3A37733  13.626   9.067   8.082
 2834POPC   C4A37734  13.592   9.165   7.681
 2834POPC   C1B37735  13.673   8.561   8.700
 2834POPC   C2B37736  13.549   8.599   8.264
 2834POPC   C3B37737  13.366   8.664   7.858
 2834POPC   C4B37738  13.552   8.726   7.427
 2835POPC   NC337739   6.999  33.289   9.289
 2835POPC   PO437740   6.603  32.810   9.313
 2835POPC   GL137741   6.785  32.896   8.978
 2835POPC   GL237742   7.106  32.785   9.063
 2835POPC   C1A37743   6.707  33.180   8.674
 2835POPC   D2A37744   6.477  33.414   8.384
 2835POPC   C3A37745   6.401  33.211   8.010
 2835POPC   C4A37746   6.561  33.274   7.597
 2835POPC   C1B37747   7.116  32.773   8.606
 2835POPC   C2B37748   6.804  32.875   8.280
 2835POPC   C3B37749   6.915  33.084   7.919
 2835POPC   C4B37750   7.067  33.360   7.622
 2836POPC   NC337751  18.398  42.765   9.512
 2836POPC   PO437752  18.020  43.276   9.745
 2836POPC   GL137753  18.052  43.109   9.303
 2836POPC   GL237754  18.405  43.176   9.196
 2836POPC   C1A37755  17.956  43.136   8.853
 2836POPC   D2A37756  18.098  43.390   8.501
 2836POPC   C3A37757  18.246  43.227   8.105
 2836POPC   C4A37758  18.185  43.320   7.660
 2836POPC   C1B37759  18.471  43.092   8.760
 2836POPC   C2B37760  18.294  42.817   8.431
 2836POPC   C3B37761  18.445  42.754   7.999
 2836POPC   C4B37762  18.609  43.084   7.740
 2837POPC   NC337763  17.412  13.643   9.766
 2837POPC   PO437764  17.423  13.916   9.211
 2837POPC   GL137765  17.617  13.520   9.178
 2837POPC   GL237766  17.971  13.618   9.186
 2837POPC   C1A37767  17.502  13.318   8.813
 2837POPC   D2A37768  17.232  13.366   8.438
 2837POPC   C3A37769  17.502  13.485   8.084
 2837POPC   C4A37770  17.766  13.584   7.751
 2837POPC   C1B37771  17.875  13.805   8.802
 2837POPC   C2B37772  17.607  13.740   8.511
 2837POPC   C3B37773  17.808  13.895   8.161
 2837POPC   C4B37774  17.979  14.067   7.808
 2838POPC   NC337775  42.047  13.389   9.695
 2838POPC   PO437776  42.334  14.091   9.510
 2838POPC   GL137777  42.306  13.648   9.292
 2838POPC   GL237778  41.969  13.464   9.195
 2838POPC   C1A37779  42.399  13.429   8.888
 2838POPC   D2A37780  42.428  13.580   8.470
 2838POPC   C3A37781  42.407  13.379   8.073
 2838POPC   C4A37782  42.307  13.610   7.688
 2838POPC   C1B37783  41.932  13.215   8.791
 2838POPC   C2B37784  41.960  13.299   8.325
 2838POPC   C3B37785  41.917  13.335   7.874
 2838POPC   C4B37786  41.984  13.320   7.412
 2839POPC   NC337787  18.877  33.176   9.670
 2839POPC   PO437788  19.165  32.582   9.777
 2839POPC   GL137789  19.145  32.924   9.331
 2839POPC   GL237790  19.336  32.812   9.029
 2839POPC   C1A37791  19.111  33.239   8.929
 2839POPC   D2A37792  19.335  33.335   8.475
 2839POPC   C3A37793  19.123  33.195   8.076
 2839POPC   C4A37794  18.856  33.293   7.687
 2839POPC   C1B37795  19.304  32.853   8.617
 2839POPC   C2B37796  19.271  32.649   8.254
 2839POPC   C3B37797  19.173  32.765   7.826
 2839POPC   C4B37798  18.737  32.813   7.797
 2840POPC   NC337799  30.354  28.631   9.466
 2840POPC   PO437800  29.736  28.260   9.550
 2840POPC   GL137801  29.970  28.381   9.186
 2840POPC   GL237802  30.023  28.042   9.055
 2840POPC   C1A37803  30.016  28.414   8.718
 2840POPC   D2A37804  29.795  28.316   8.327
 2840POPC   C3A37805  29.712  28.600   8.060
 2840POPC   C4A37806  30.076  28.809   7.911
 2840POPC   C1B37807  29.782  27.937   8.706
 2840POPC   C2B37808  29.831  27.815   8.291
 2840POPC   C3B37809  29.943  28.027   7.896
 2840POPC   C4B37810  29.908  28.394   7.643
 2841POPC   NC337811  41.266   9.780   9.583
 2841POPC   PO437812  41.921   9.729   9.466
 2841POPC   GL137813  41.557   9.859   9.165
 2841POPC   GL237814  41.196  10.060   9.168
 2841POPC   C1A37815  41.535   9.639   8.785
 2841POPC   D2A37816  41.761   9.315   8.547
 2841POPC   C3A37817  41.757   9.477   8.140
 2841POPC   C4A37818  41.509   9.357   7.776
 2841POPC   C1B37819  41.374  10.161   8.793
 2841POPC   C2B37820  41.294   9.981   8.418
 2841POPC   C3B37821  41.400   9.823   8.037
 2841POPC   C4B37822  41.323   9.987   7.656
 2842POPC   NC337823  12.311  40.227   9.403
 2842POPC   PO437824  11.671  40.131   9.616
 2842POPC   GL137825  11.822  40.039   9.199
 2842POPC   GL237826  12.102  39.800   9.156
 2842POPC   C1A37827  11.999  40.142   8.796
 2842POPC   D2A37828  11.827  40.168   8.424
 2842POPC   C3A37829  12.018  40.276   8.090
 2842POPC   C4A37830  11.838  40.001   7.789
 2842POPC   C1B37831  12.299  39.743   8.720
 2842POPC   C2B37832  12.334  39.941   8.319
 2842POPC   C3B37833  12.333  39.889   7.872
 2842POPC   C4B37834  12.391  40.041   7.464
 2843POPC   NC337835  22.209   0.821   9.501
 2843POPC   PO437836  22.085   1.460   9.627
 2843POPC   GL137837  21.984   1.279   9.226
 2843POPC   GL237838  22.314   1.171   9.124
 2843POPC   C1A37839  21.870   0.942   8.920
 2843POPC   D2A37840  21.834   0.917   8.476
 2843POPC   C3A37841  22.000   1.225   8.182
 2843POPC   C4A37842  22.029   1.139   7.728
 2843POPC   C1B37843  22.315   1.077   8.678
 2843POPC   C2B37844  22.509   1.281   8.323
 2843POPC   C3B37845  22.517   1.218   7.893
 2843POPC   C4B37846  22.491   0.895   7.616
 2844POPC   NC337847  36.477   1.949   9.508
 2844POPC   PO437848  35.852   2.235   9.442
 2844POPC   GL137849  36.027   1.886   9.195
 2844POPC   GL237850  36.279   2.128   9.042
 2844POPC   C1A37851  36.148   1.703   8.784
 2844POPC   D2A37852  36.318   1.974   8.482
 2844POPC   C3A37853  36.380   1.926   8.036
 2844POPC   C4A37854  36.475   2.296   7.780
 2844POPC   C1B37855  35.900   2.161   8.756
 2844POPC   C2B37856  35.622   2.078   8.432
 2844POPC   C3B37857  35.841   1.892   8.099
 2844POPC   C4B37858  35.982   1.864   7.680
 2845POPC   NC337859  37.753  25.021   9.473
 2845POPC   PO437860  37.897  25.612   9.450
 2845POPC   GL137861  37.606  25.413   9.161
 2845POPC   GL237862  37.452  25.072   9.078
 2845POPC   C1A37863  37.768  25.331   8.761
 2845POPC   D2A37864  37.633  25.511   8.405
 2845POPC   C3A37865  37.935  25.469   8.095
 2845POPC   C4A37866  37.776  25.513   7.694
 2845POPC   C1B37867  37.442  24.951   8.637
 2845POPC   C2B37868  37.724  24.992   8.290
 2845POPC   C3B37869  37.801  25.021   7.851
 2845POPC   C4B37870  37.530  24.929   7.490
 2846POPC   NC337871  25.670   4.168   9.532
 2846POPC   PO437872  24.979   4.333   9.527
 2846POPC   GL137873  25.258   4.212   9.233
 2846POPC   GL237874  25.411   4.548   9.218
 2846POPC   C1A37875  25.510   4.036   8.885
 2846POPC   D2A37876  25.694   3.858   8.518
 2846POPC   C3A37877  25.460   3.974   8.136
 2846POPC   C4A37878  25.663   4.048   7.728
 2846POPC   C1B37879  25.168   4.471   8.821
 2846POPC   C2B37880  25.017   4.345   8.410
 2846POPC   C3B37881  24.952   4.412   8.007
 2846POPC   C4B37882  25.273   4.374   7.749
 2847POPC   NC337883  14.126  12.341   9.654
 2847POPC   PO437884  14.325  13.021   9.488
 2847POPC   GL137885  14.335  12.953   9.113
 2847POPC   GL237886  14.134  12.643   9.192
 2847POPC   C1A37887  14.608  13.055   8.764
 2847POPC   D2A37888  14.475  12.824   8.411
 2847POPC   C3A37889  14.645  12.849   7.997
 2847POPC   C4A37890  14.480  12.647   7.651
 2847POPC   C1B37891  13.972  12.803   8.788
 2847POPC   C2B37892  13.981  12.668   8.383
 2847POPC   C3B37893  14.141  12.840   8.004
 2847POPC   C4B37894  13.992  12.847   7.608
 2848POPC   NC337895  38.443   6.077   9.480
 2848POPC   PO437896  38.658   5.412   9.288
 2848POPC   GL137897  38.548   5.744   9.082
 2848POPC   GL237898  38.233   5.795   9.099
 2848POPC   C1A37899  38.559   5.885   8.676
 2848POPC   D2A37900  38.405   6.049   8.365
 2848POPC   C3A37901  38.630   5.943   8.072
 2848POPC   C4A37902  38.535   5.666   7.814
 2848POPC   C1B37903  38.065   5.866   8.732
 2848POPC   C2B37904  37.951   5.746   8.342
 2848POPC   C3B37905  38.056   5.883   7.920
 2848POPC   C4B37906  37.963   6.082   7.532
 2849POPC   NC337907   3.703  24.132   9.521
 2849POPC   PO437908   3.582  24.751   9.567
 2849POPC   GL137909   3.238  24.584   9.284
 2849POPC   GL237910   3.292  24.255   9.179
 2849POPC   C1A37911   3.224  24.639   8.823
 2849POPC   D2A37912   3.461  24.561   8.466
 2849POPC   C3A37913   3.261  24.478   8.095
 2849POPC   C4A37914   3.480  24.627   7.746
 2849POPC   C1B37915   3.695  24.393   8.914
 2849POPC   C2B37916   3.972  24.457   8.533
 2849POPC   C3B37917   3.827  24.421   8.108
 2849POPC   C4B37918   3.831  24.279   7.695
 2850POPC   NC337919  28.134   3.255   9.491
 2850POPC   PO437920  27.468   3.329   9.510
 2850POPC   GL137921  27.538   3.239   9.097
 2850POPC   GL237922  27.877   3.087   9.092
 2850POPC   C1A37923  27.493   3.512   8.711
 2850POPC   D2A37924  27.532   3.904   8.452
 2850POPC   C3A37925  27.633   3.758   8.053
 2850POPC   C4A37926  27.369   3.384   7.989
 2850POPC   C1B37927  27.765   3.066   8.658
 2850POPC   C2B37928  27.787   3.214   8.247
 2850POPC   C3B37929  27.868   3.346   7.832
 2850POPC   C4B37930  27.976   3.308   7.367
 2851POPC   NC337931  40.183   6.723   9.572
 2851POPC   PO437932  39.544   6.804   9.480
 2851POPC   GL137933  39.859   6.606   9.178
 2851POPC   GL237934  40.221   6.439   9.162
 2851POPC   C1A37935  39.805   6.599   8.740
 2851POPC   D2A37936  39.751   6.432   8.332
 2851POPC   C3A37937  39.820   6.821   8.060
 2851POPC   C4A37938  40.090   6.896   7.702
 2851POPC   C1B37939  40.311   6.653   8.775
 2851POPC   C2B37940  40.215   6.666   8.339
 2851POPC   C3B37941  40.113   6.422   7.951
 2851POPC   C4B37942  40.279   6.465   7.535
 2852POPC   NC337943  15.539  29.148   9.287
 2852POPC   PO437944  14.916  29.269   9.478
 2852POPC   GL137945  15.042  29.167   9.067
 2852POPC   GL237946  15.219  28.851   8.995
 2852POPC   C1A37947  14.835  29.048   8.689
 2852POPC   D2A37948  14.674  29.205   8.297
 2852POPC   C3A37949  14.860  28.995   7.929
 2852POPC   C4A37950  14.991  29.025   7.486
 2852POPC   C1B37951  15.365  29.065   8.658
 2852POPC   C2B37952  15.191  28.944   8.317
 2852POPC   C3B37953  15.356  29.029   7.954
 2852POPC   C4B37954  15.394  29.372   7.734
 2853POPC   NC337955  10.354  37.096   9.463
 2853POPC   PO437956  10.973  36.729   9.564
 2853POPC   GL137957  10.810  36.917   9.226
 2853POPC   GL237958  10.507  36.757   9.110
 2853POPC   C1A37959  10.862  36.885   8.791
 2853POPC   D2A37960  10.568  36.928   8.464
 2853POPC   C3A37961  10.789  36.880   8.106
 2853POPC   C4A37962  10.742  36.888   7.693
 2853POPC   C1B37963  10.301  36.528   8.767
 2853POPC   C2B37964  10.176  36.611   8.336
 2853POPC   C3B37965  10.263  36.869   7.988
 2853POPC   C4B37966  10.244  36.518   7.745
 2854POPC   NC337967   4.298  28.706   9.467
 2854POPC   PO437968   4.764  28.416   9.835
 2854POPC   GL137969   4.707  28.308   9.372
 2854POPC   GL237970   4.353  28.216   9.248
 2854POPC   C1A37971   4.692  28.436   8.921
 2854POPC   D2A37972   4.691  28.667   8.532
 2854POPC   C3A37973   4.597  28.419   8.193
 2854POPC   C4A37974   4.552  28.531   7.801
 2854POPC   C1B37975   4.175  28.433   8.860
 2854POPC   C2B37976   4.182  28.606   8.423
 2854POPC   C3B37977   4.077  28.449   8.003
 2854POPC   C4B37978   3.888  28.062   7.823
 2855POPC   NC337979  24.076  28.745   9.970
 2855POPC   PO437980  23.766  28.998   9.362
 2855POPC   GL137981  23.605  29.208   9.001
 2855POPC   GL237982  23.341  29.525   9.050
 2855POPC   C1A37983  23.848  29.041   8.693
 2855POPC   D2A37984  23.955  29.070   8.306
 2855POPC   C3A37985  23.667  29.092   7.987
 2855POPC   C4A37986  23.927  28.842   7.797
 2855POPC   C1B37987  23.248  29.339   8.674
 2855POPC   C2B37988  23.574  29.383   8.413
 2855POPC   C3B37989  23.651  29.594   8.062
 2855POPC   C4B37990  23.286  29.610   7.896
 2856POPC   NC337991  14.536   7.969   9.698
 2856POPC   PO437992  13.998   7.871   9.390
 2856POPC   GL137993  14.333   8.065   9.148
 2856POPC   GL237994  14.547   8.290   9.295
 2856POPC   C1A37995  14.512   8.060   8.750
 2856POPC   D2A37996  14.669   7.898   8.361
 2856POPC   C3A37997  14.443   7.922   7.982
 2856POPC   C4A37998  14.299   8.287   7.816
 2856POPC   C1B37999  14.754   8.461   8.925
 2856POPC   C2B38000  14.857   8.356   8.503
 2856POPC   C3B38001  14.723   8.453   8.100
 2856POPC   C4B38002  14.802   8.751   7.775
 2857POPC   NC338003  20.192  43.212   9.583
 2857POPC   PO438004  20.873  43.412   9.517
 2857POPC   GL138005  20.726  43.406   9.129
 2857POPC   GL238006  20.510  43.117   9.171
 2857POPC   C1A38007  20.780  43.207   8.734
 2857POPC   D2A38008  20.914  42.945   8.384
 2857POPC   C3A38009  20.778  43.190   8.038
 2857POPC   C4A38010  20.510  43.306   7.743
 2857POPC   C1B38011  20.370  42.900   8.809
 2857POPC   C2B38012  20.418  43.051   8.389
 2857POPC   C3B38013  20.364  42.875   8.014
 2857POPC   C4B38014  20.639  42.820   7.686
 2858POPC   NC338015  35.453   9.421   9.840
 2858POPC   PO438016  35.143   9.967   9.616
 2858POPC   GL138017  35.079   9.916   9.179
 2858POPC   GL238018  35.126   9.578   9.125
 2858POPC   C1A38019  35.250   9.933   8.760
 2858POPC   D2A38020  35.567   9.935   8.430
 2858POPC   C3A38021  35.392   9.864   8.043
 2858POPC   C4A38022  35.066   9.576   7.891
 2858POPC   C1B38023  35.325   9.403   8.768
 2858POPC   C2B38024  35.316   9.449   8.334
 2858POPC   C3B38025  35.564   9.384   7.956
 2858POPC   C4B38026  35.397   9.314   7.537
 2859POPC   NC338027  38.117  15.853   9.314
 2859POPC   PO438028  37.577  16.043   9.633
 2859POPC   GL138029  37.700  16.140   9.179
 2859POPC   GL238030  37.997  16.293   9.049
 2859POPC   C1A38031  37.522  16.179   8.733
 2859POPC   D2A38032  37.260  16.107   8.332
 2859POPC   C3A38033  37.507  15.971   7.948
 2859POPC   C4A38034  37.650  16.272   7.562
 2859POPC   C1B38035  38.009  15.960   8.713
 2859POPC   C2B38036  37.845  15.962   8.336
 2859POPC   C3B38037  37.957  16.184   7.982
 2859POPC   C4B38038  37.911  15.869   7.666
 2860POPC   NC338039   1.822  43.233   9.431
 2860POPC   PO438040   2.118  42.755   9.812
 2860POPC   GL138041   2.174  42.773   9.283
 2860POPC   GL238042   2.137  43.083   9.086
 2860POPC   C1A38043   1.963  42.677   8.845
 2860POPC   D2A38044   1.690  42.914   8.561
 2860POPC   C3A38045   1.830  42.955   8.132
 2860POPC   C4A38046   1.624  42.721   7.785
 2860POPC   C1B38047   2.170  43.122   8.663
 2860POPC   C2B38048   2.296  43.220   8.282
 2860POPC   C3B38049   2.102  43.505   8.065
 2860POPC   C4B38050   1.862  43.337   7.747
 2861POPC   NC338051  27.938   7.703   9.649
 2861POPC   PO438052  27.794   7.109   9.996
 2861POPC   GL138053  27.650   7.243   9.453
 2861POPC   GL238054  27.773   7.500   9.139
 2861POPC   C1A38055  27.357   7.283   9.013
 2861POPC   D2A38056  27.524   7.479   8.606
 2861POPC   C3A38057  27.499   7.421   8.151
 2861POPC   C4A38058  27.472   7.389   7.708
 2861POPC   C1B38059  28.018   7.647   8.704
 2861POPC   C2B38060  28.205   7.727   8.302
 2861POPC   C3B38061  27.934   7.622   7.987
 2861POPC   C4B38062  27.877   7.674   7.591
 2862POPC   NC338063  17.007  13.934   9.366
 2862POPC   PO438064  16.609  13.472   9.585
 2862POPC   GL138065  16.595  13.686   9.179
 2862POPC   GL238066  16.942  13.570   9.010
 2862POPC   C1A38067  16.503  13.583   8.743
 2862POPC   D2A38068  16.731  13.638   8.363
 2862POPC   C3A38069  16.538  13.709   7.965
 2862POPC   C4A38070  16.604  13.323   7.777
 2862POPC   C1B38071  17.102  13.855   8.661
 2862POPC   C2B38072  17.169  13.858   8.230
 2862POPC   C3B38073  17.034  13.573   7.925
 2862POPC   C4B38074  17.290  13.717   7.627
 2863POPC   NC338075  40.453  26.684   9.415
 2863POPC   PO438076  41.075  27.002   9.546
 2863POPC   GL138077  40.886  26.813   9.187
 2863POPC   GL238078  40.705  27.114   9.091
 2863POPC   C1A38079  40.634  26.731   8.783
 2863POPC   D2A38080  40.510  27.054   8.519
 2863POPC   C3A38081  40.587  27.012   8.081
 2863POPC   C4A38082  40.559  26.740   7.739
 2863POPC   C1B38083  41.032  27.049   8.758
 2863POPC   C2B38084  41.056  27.057   8.308
 2863POPC   C3B38085  41.056  26.829   7.915
 2863POPC   C4B38086  41.101  26.940   7.476
 2864POPC   NC338087  19.761  25.486   9.466
 2864POPC   PO438088  19.349  24.893   9.394
 2864POPC   GL138089  19.539  25.175   9.090
 2864POPC   GL238090  19.906  25.215   9.043
 2864POPC   C1A38091  19.619  25.242   8.638
 2864POPC   D2A38092  19.922  25.368   8.365
 2864POPC   C3A38093  19.667  25.500   8.063
 2864POPC   C4A38094  19.674  25.234   7.751
 2864POPC   C1B38095  20.020  25.620   8.803
 2864POPC   C2B38096  20.190  25.794   8.385
 2864POPC   C3B38097  20.165  25.672   7.941
 2864POPC   C4B38098  19.834  25.734   7.641
 2865POPC   NC338099   4.657   8.156   9.453
 2865POPC   PO438100   4.002   8.377   9.522
 2865POPC   GL138101   4.268   8.325   9.173
 2865POPC   GL238102   4.275   7.968   9.073
 2865POPC   C1A38103   4.409   8.521   8.805
 2865POPC   D2A38104   4.403   8.302   8.415
 2865POPC   C3A38105   4.376   8.507   8.042
 2865POPC   C4A38106   4.200   8.456   7.655
 2865POPC   C1B38107   4.478   7.837   8.668
 2865POPC   C2B38108   4.573   7.867   8.203
 2865POPC   C3B38109   4.277   8.009   7.880
 2865POPC   C4B38110   4.372   7.993   7.439
 2866POPC   NC338111  25.637  28.292   9.404
 2866POPC   PO438112  26.221  28.621   9.530
 2866POPC   GL138113  26.081  28.383   9.163
 2866POPC   GL238114  26.017  28.026   9.117
 2866POPC   C1A38115  25.856  28.357   8.769
 2866POPC   D2A38116  26.045  28.309   8.377
 2866POPC   C3A38117  25.939  28.401   7.948
 2866POPC   C4A38118  26.238  28.380   7.597
 2866POPC   C1B38119  25.895  27.856   8.701
 2866POPC   C2B38120  25.619  28.050   8.411
 2866POPC   C3B38121  25.679  27.966   7.966
 2866POPC   C4B38122  26.024  27.925   7.644
 2867POPC   NC338123  15.830  24.831   9.340
 2867POPC   PO438124  16.156  24.255   9.463
 2867POPC   GL138125  16.205  24.486   9.131
 2867POPC   GL238126  15.869  24.405   9.030
 2867POPC   C1A38127  16.249  24.746   8.788
 2867POPC   D2A38128  16.033  24.935   8.444
 2867POPC   C3A38129  16.052  24.616   8.143
 2867POPC   C4A38130  16.033  24.483   7.734
 2867POPC   C1B38131  15.946  24.404   8.603
 2867POPC   C2B38132  15.902  24.129   8.277
 2867POPC   C3B38133  15.728  24.117   7.911
 2867POPC   C4B38134  15.574  24.281   7.552
 2868POPC   NC338135  40.288  16.849   9.557
 2868POPC   PO438136  39.609  17.009   9.641
 2868POPC   GL138137  39.865  16.714   9.284
 2868POPC   GL238138  40.127  16.884   9.081
 2868POPC   C1A38139  40.053  16.452   8.866
 2868POPC   D2A38140  39.988  16.427   8.388
 2868POPC   C3A38141  40.215  16.531   7.965
 2868POPC   C4A38142  40.035  16.849   7.648
 2868POPC   C1B38143  40.120  16.932   8.672
 2868POPC   C2B38144  40.137  16.912   8.275
 2868POPC   C3B38145  40.380  17.033   7.976
 2868POPC   C4B38146  40.322  17.269   7.655
 2869POPC   NC338147  41.367   3.019   9.526
 2869POPC   PO438148  42.017   2.899   9.456
 2869POPC   GL138149  41.731   3.028   9.112
 2869POPC   GL238150  41.437   2.831   9.049
 2869POPC   C1A38151  41.695   3.014   8.638
 2869POPC   D2A38152  41.401   2.807   8.350
 2869POPC   C3A38153  41.477   2.848   7.910
 2869POPC   C4A38154  41.385   2.593   7.608
 2869POPC   C1B38155  41.218   3.175   8.823
 2869POPC   C2B38156  41.085   3.204   8.395
 2869POPC   C3B38157  41.153   3.227   7.963
 2869POPC   C4B38158  41.153   3.047   7.524
 2870POPC   NC338159   4.903   6.141   9.463
 2870POPC   PO438160   5.262   5.589   9.624
 2870POPC   GL138161   5.205   5.705   9.206
 2870POPC   GL238162   4.880   5.766   9.086
 2870POPC   C1A38163   5.279   5.714   8.757
 2870POPC   D2A38164   4.993   5.876   8.454
 2870POPC   C3A38165   4.984   5.781   8.035
 2870POPC   C4A38166   5.360   5.808   7.803
 2870POPC   C1B38167   5.121   6.173   8.877
 2870POPC   C2B38168   5.071   6.376   8.490
 2870POPC   C3B38169   4.963   6.329   8.074
 2870POPC   C4B38170   5.013   6.154   7.665
 2871POPC   NC338171   1.462   2.996   9.605
 2871POPC   PO438172   2.041   2.697   9.521
 2871POPC   GL138173   1.968   2.568   9.109
 2871POPC   GL238174   1.599   2.646   9.095
 2871POPC   C1A38175   2.238   2.599   8.744
 2871POPC   D2A38176   2.213   2.890   8.410
 2871POPC   C3A38177   2.183   2.736   8.015
 2871POPC   C4A38178   2.006   2.824   7.648
 2871POPC   C1B38179   1.748   2.660   8.665
 2871POPC   C2B38180   1.909   2.435   8.341
 2871POPC   C3B38181   1.733   2.503   7.951
 2871POPC   C4B38182   1.525   2.878   7.705
 2872POPC   NC338183  16.202   7.577   9.586
 2872POPC   PO438184  15.552   7.613   9.607
 2872POPC   GL138185  15.802   7.654   9.202
 2872POPC   GL238186  16.083   7.357   9.120
 2872POPC   C1A38187  15.627   7.811   8.775
 2872POPC   D2A38188  15.646   7.701   8.320
 2872POPC   C3A38189  16.029   7.553   8.191
 2872POPC   C4A38190  16.194   7.373   7.853
 2872POPC   C1B38191  16.146   7.272   8.649
 2872POPC   C2B38192  15.999   7.038   8.239
 2872POPC   C3B38193  15.707   7.198   7.929
 2872POPC   C4B38194  15.719   7.603   7.748
 2873POPC   NC338195  10.933  12.147   9.360
 2873POPC   PO438196  10.301  11.957   9.671
 2873POPC   GL138197  10.416  12.140   9.265
 2873POPC   GL238198  10.288  12.470   9.239
 2873POPC   C1A38199  10.556  12.012   8.833
 2873POPC   D2A38200  10.340  11.875   8.463
 2873POPC   C3A38201  10.627  11.923   8.139
 2873POPC   C4A38202  10.592  12.074   7.743
 2873POPC   C1B38203  10.381  12.523   8.798
 2873POPC   C2B38204  10.572  12.373   8.421
 2873POPC   C3B38205  10.690  12.492   8.004
 2873POPC   C4B38206  10.417  12.523   7.620
 2874POPC   NC338207  21.738  29.447   9.443
 2874POPC   PO438208  22.356  29.761   9.450
 2874POPC   GL138209  22.201  29.682   9.079
 2874POPC   GL238210  21.867  29.849   9.117
 2874POPC   C1A38211  22.295  29.792   8.676
 2874POPC   D2A38212  22.605  29.956   8.412
 2874POPC   C3A38213  22.483  29.780   8.021
 2874POPC   C4A38214  22.093  29.621   7.840
 2874POPC   C1B38215  21.787  29.622   8.739
 2874POPC   C2B38216  21.876  29.689   8.316
 2874POPC   C3B38217  21.972  30.052   8.093
 2874POPC   C4B38218  21.953  30.096   7.651
 2875POPC   NC338219  11.119  29.472   9.636
 2875POPC   PO438220  11.667  29.987   9.590
 2875POPC   GL138221  11.389  29.825   9.221
 2875POPC   GL238222  11.096  30.028   9.102
 2875POPC   C1A38223  11.413  29.909   8.742
 2875POPC   D2A38224  11.479  29.671   8.353
 2875POPC   C3A38225  11.265  29.807   7.975
 2875POPC   C4A38226  11.365  30.226   7.970
 2875POPC   C1B38227  10.900  30.057   8.744
 2875POPC   C2B38228  11.013  30.140   8.353
 2875POPC   C3B38229  10.732  30.149   8.007
 2875POPC   C4B38230  10.975  30.165   7.644
 2876POPC   NC338231   1.770  13.487   9.429
 2876POPC   PO438232   2.304  13.922   9.505
 2876POPC   GL138233   2.170  13.681   9.158
 2876POPC   GL238234   1.870  13.876   9.094
 2876POPC   C1A38235   2.262  13.402   8.811
 2876POPC   D2A38236   2.346  13.586   8.397
 2876POPC   C3A38237   2.081  13.668   8.064
 2876POPC   C4A38238   2.195  13.532   7.663
 2876POPC   C1B38239   1.888  13.715   8.672
 2876POPC   C2B38240   1.623  13.703   8.302
 2876POPC   C3B38241   1.634  13.965   7.935
 2876POPC   C4B38242   1.783  13.863   7.523
 2877POPC   NC338243  31.972  31.825   9.338
 2877POPC   PO438244  32.510  32.238   9.451
 2877POPC   GL138245  32.292  32.208   9.123
 2877POPC   GL238246  32.018  32.405   9.007
 2877POPC   C1A38247  32.448  32.330   8.758
 2877POPC   D2A38248  32.438  32.157   8.395
 2877POPC   C3A38249  32.110  32.179   8.111
 2877POPC   C4A38250  32.318  32.180   7.728
 2877POPC   C1B38251  32.092  31.980   8.719
 2877POPC   C2B38252  32.084  31.712   8.369
 2877POPC   C3B38253  31.946  31.717   7.914
 2877POPC   C4B38254  31.931  31.945   7.540
 2878POPC   NC338255  43.441  29.183   9.525
 2878POPC   PO438256  42.830  28.888   9.445
 2878POPC   GL138257  42.980  29.270   9.217
 2878POPC   GL238258  43.330  29.319   9.058
 2878POPC   C1A38259  42.917  29.414   8.782
 2878POPC   D2A38260  43.093  29.559   8.399
 2878POPC   C3A38261  42.943  29.369   7.997
 2878POPC   C4A38262  43.121  29.203   7.619
 2878POPC   C1B38263  43.157  28.941   8.873
 2878POPC   C2B38264  43.157  28.808   8.460
 2878POPC   C3B38265  43.180  28.903   8.029
 2878POPC   C4B38266  43.166  28.685   7.621
 2879POPC   NC338267   5.456  12.205   9.522
 2879POPC   PO438268   4.753  12.059   9.548
 2879POPC   GL138269   5.029  12.076   9.174
 2879POPC   GL238270   5.233  12.380   9.089
 2879POPC   C1A38271   4.996  12.136   8.716
 2879POPC   D2A38272   5.179  12.007   8.352
 2879POPC   C3A38273   4.920  12.084   8.005
 2879POPC   C4A38274   5.109  12.030   7.612
 2879POPC   C1B38275   5.333  12.585   8.687
 2879POPC   C2B38276   5.115  12.542   8.287
 2879POPC   C3B38277   5.144  12.510   7.828
 2879POPC   C4B38278   5.348  12.449   7.397
 2880POPC   NC338279   6.031  17.449   9.531
 2880POPC   PO438280   5.308  17.708   9.535
 2880POPC   GL138281   5.657  17.660   9.245
 2880POPC   GL238282   5.595  17.339   9.106
 2880POPC   C1A38283   5.753  17.704   8.787
 2880POPC   D2A38284   5.578  17.842   8.385
 2880POPC   C3A38285   5.714  17.556   8.044
 2880POPC   C4A38286   6.082  17.574   7.794
 2880POPC   C1B38287   6.030  17.277   8.902
 2880POPC   C2B38288   6.337  17.071   8.639
 2880POPC   C3B38289   6.497  16.942   8.206
 2880POPC   C4B38290   6.181  16.965   7.874
 2881POPC   NC338291  22.377  26.162   9.525
 2881POPC   PO438292  21.619  25.982   9.576
 2881POPC   GL138293  21.906  26.090   9.265
 2881POPC   GL238294  22.054  25.772   9.231
 2881POPC   C1A38295  21.991  26.141   8.821
 2881POPC   D2A38296  21.946  25.957   8.398
 2881POPC   C3A38297  22.256  26.135   8.102
 2881POPC   C4A38298  22.291  26.307   7.699
 2881POPC   C1B38299  21.906  25.565   8.835
 2881POPC   C2B38300  21.842  25.393   8.414
 2881POPC   C3B38301  22.016  25.509   8.007
 2881POPC   C4B38302  21.986  25.882   7.742
 2882POPC   NC338303   7.843  36.931   9.320
 2882POPC   PO438304   8.302  36.498   9.565
 2882POPC   GL138305   8.248  36.707   9.142
 2882POPC   GL238306   7.932  36.580   8.977
 2882POPC   C1A38307   8.228  36.916   8.717
 2882POPC   D2A38308   8.426  37.211   8.406
 2882POPC   C3A38309   8.333  37.221   7.945
 2882POPC   C4A38310   8.415  36.894   7.622
 2882POPC   C1B38311   7.714  36.921   8.686
 2882POPC   C2B38312   7.903  37.055   8.345
 2882POPC   C3B38313   8.110  36.788   8.073
 2882POPC   C4B38314   7.930  36.938   7.718
 2883POPC   NC338315  23.224  35.500   9.346
 2883POPC   PO438316  22.943  35.070   9.796
 2883POPC   GL138317  22.857  35.172   9.265
 2883POPC   GL238318  22.504  35.148   9.155
 2883POPC   C1A38319  23.060  35.212   8.784
 2883POPC   D2A38320  22.991  35.532   8.445
 2883POPC   C3A38321  23.187  35.448   8.039
 2883POPC   C4A38322  23.187  35.082   7.776
 2883POPC   C1B38323  22.611  35.411   8.815
 2883POPC   C2B38324  22.574  35.193   8.443
 2883POPC   C3B38325  22.699  35.300   8.064
 2883POPC   C4B38326  22.684  35.096   7.722
 2884POPC   NC338327   8.929  44.554   9.801
 2884POPC   PO438328   9.426  44.512   9.398
 2884POPC   GL138329   9.244  44.771   9.078
 2884POPC   GL238330   8.853  44.781   9.066
 2884POPC   C1A38331   9.140  44.649   8.652
 2884POPC   D2A38332   8.969  44.364   8.329
 2884POPC   C3A38333   9.132  44.489   7.921
 2884POPC   C4A38334   9.268  44.937   7.783
 2884POPC   C1B38335   8.646  44.488   8.730
 2884POPC   C2B38336   8.448  44.425   8.293
 2884POPC   C3B38337   8.606  44.596   7.876
 2884POPC   C4B38338   8.886  44.706   7.512
 2885POPC   NC338339   0.088  20.383   9.538
 2885POPC   PO438340  44.582  20.812   9.652
 2885POPC   GL138341  44.688  20.667   9.212
 2885POPC   GL238342  44.822  20.328   9.110
 2885POPC   C1A38343  44.455  20.574   8.816
 2885POPC   D2A38344  44.310  20.415   8.411
 2885POPC   C3A38345  44.404  20.582   8.022
 2885POPC   C4A38346  44.435  20.517   7.592
 2885POPC   C1B38347  44.963  20.512   8.719
 2885POPC   C2B38348  44.818  20.397   8.304
 2885POPC   C3B38349  44.989  20.501   7.933
 2885POPC   C4B38350   0.266  20.839   7.835
 2886POPC   NC338351  29.530   3.780   9.875
 2886POPC   PO438352  29.773   3.357   9.493
 2886POPC   GL138353  29.988   3.422   9.084
 2886POPC   GL238354  29.895   3.751   8.897
 2886POPC   C1A38355  30.289   3.479   8.764
 2886POPC   D2A38356  30.240   3.691   8.416
 2886POPC   C3A38357  30.137   3.509   8.046
 2886POPC   C4A38358  30.284   3.695   7.680
 2886POPC   C1B38359  29.680   3.393   8.704
 2886POPC   C2B38360  29.602   3.287   8.318
 2886POPC   C3B38361  29.621   3.482   7.970
 2886POPC   C4B38362  29.786   3.542   7.589
 2887POPC   NC338363  21.841  41.631   9.445
 2887POPC   PO438364  22.506  41.577   9.690
 2887POPC   GL138365  22.313  41.520   9.244
 2887POPC   GL238366  22.155  41.792   9.113
 2887POPC   C1A38367  22.414  41.295   8.858
 2887POPC   D2A38368  22.483  41.432   8.430
 2887POPC   C3A38369  22.375  41.276   7.994
 2887POPC   C4A38370  22.273  41.518   7.581
 2887POPC   C1B38371  22.023  41.675   8.723
 2887POPC   C2B38372  22.124  41.851   8.326
 2887POPC   C3B38373  22.021  41.852   7.896
 2887POPC   C4B38374  21.779  41.515   7.694
 2888POPC   NC338375  34.777   1.092   9.473
 2888POPC   PO438376  34.315   1.490   9.453
 2888POPC   GL138377  34.484   1.328   9.070
 2888POPC   GL238378  34.408   0.990   9.115
 2888POPC   C1A38379  34.448   1.173   8.628
 2888POPC   D2A38380  34.732   1.218   8.261
 2888POPC   C3A38381  34.569   1.337   7.870
 2888POPC   C4A38382  34.703   1.337   7.409
 2888POPC   C1B38383  34.780   0.861   8.853
 2888POPC   C2B38384  34.672   0.740   8.425
 2888POPC   C3B38385  34.455   0.864   8.032
 2888POPC   C4B38386  34.814   0.915   7.768
 2889POPC   NC338387  19.805  24.773   9.403
 2889POPC   PO438388  19.877  24.124   9.526
 2889POPC   GL138389  20.071  24.338   9.181
 2889POPC   GL238390  20.276  24.674   9.183
 2889POPC   C1A38391  19.928  24.158   8.807
 2889POPC   D2A38392  19.898  24.339   8.420
 2889POPC   C3A38393  19.506  24.316   8.240
 2889POPC   C4A38394  19.423  24.368   7.835
 2889POPC   C1B38395  20.043  24.757   8.787
 2889POPC   C2B38396  19.901  24.851   8.366
 2889POPC   C3B38397  19.778  24.762   7.945
 2889POPC   C4B38398  20.054  24.910   7.625
 2890POPC   NC338399  20.692  15.586   9.489
 2890POPC   PO438400  20.403  14.950   9.474
 2890POPC   GL138401  20.726  15.120   9.211
 2890POPC   GL238402  20.799  14.852   8.955
 2890POPC   C1A38403  20.553  15.286   8.858
 2890POPC   D2A38404  20.341  15.103   8.522
 2890POPC   C3A38405  20.473  15.294   8.140
 2890POPC   C4A38406  20.571  15.442   7.751
 2890POPC   C1B38407  21.042  15.137   8.722
 2890POPC   C2B38408  20.971  15.252   8.295
 2890POPC   C3B38409  20.820  15.006   7.914
 2890POPC   C4B38410  20.794  15.072   7.467
 2891POPC   NC338411  42.043  12.594   9.398
 2891POPC   PO438412  42.516  13.157   9.520
 2891POPC   GL138413  42.512  12.959   9.185
 2891POPC   GL238414  42.560  12.624   9.292
 2891POPC   C1A38415  42.347  12.903   8.828
 2891POPC   D2A38416  42.156  12.865   8.479
 2891POPC   C3A38417  42.354  12.833   8.120
 2891POPC   C4A38418  42.273  13.007   7.741
 2891POPC   C1B38419  42.567  12.452   8.871
 2891POPC   C2B38420  42.704  12.606   8.494
 2891POPC   C3B38421  42.690  12.447   8.085
 2891POPC   C4B38422  42.512  12.562   7.689
 2892POPC   NC338423  26.865  21.434   9.650
 2892POPC   PO438424  26.287  21.241   9.586
 2892POPC   GL138425  26.511  21.401   9.261
 2892POPC   GL238426  26.770  21.153   9.234
 2892POPC   C1A38427  26.698  21.517   8.870
 2892POPC   D2A38428  26.698  21.452   8.432
 2892POPC   C3A38429  26.984  21.388   8.059
 2892POPC   C4A38430  26.733  21.504   7.679
 2892POPC   C1B38431  26.730  20.982   8.828
 2892POPC   C2B38432  26.900  20.970   8.429
 2892POPC   C3B38433  26.718  20.953   8.052
 2892POPC   C4B38434  26.907  21.022   7.663
 2893POPC   NC338435  40.215  39.787   9.675
 2893POPC   PO438436  39.953  40.409   9.462
 2893POPC   GL138437  40.085  40.136   9.164
 2893POPC   GL238438  40.111  39.806   9.192
 2893POPC   C1A38439  39.827  39.980   8.809
 2893POPC   D2A38440  39.927  39.858   8.422
 2893POPC   C3A38441  39.801  40.070   8.074
 2893POPC   C4A38442  39.959  39.980   7.683
 2893POPC   C1B38443  40.335  39.816   8.822
 2893POPC   C2B38444  40.348  39.592   8.429
 2893POPC   C3B38445  40.332  39.793   8.009
 2893POPC   C4B38446  40.321  39.585   7.579
 2894POPC   NC338447  33.443   0.198   9.495
 2894POPC   PO438448  32.795   0.506   9.534
 2894POPC   GL138449  33.013   0.418   9.183
 2894POPC   GL238450  33.123   0.067   9.103
 2894POPC   C1A38451  32.877   0.397   8.775
 2894POPC   D2A38452  32.994   0.098   8.468
 2894POPC   C3A38453  32.897   0.293   8.089
 2894POPC   C4A38454  33.088   0.500   7.762
 2894POPC   C1B38455  33.386   0.320   8.792
 2894POPC   C2B38456  33.380   0.406   8.336
 2894POPC   C3B38457  33.376   0.093   7.994
 2894POPC   C4B38458  33.307   0.099   7.542
 2895POPC   NC338459  22.072   6.098   9.560
 2895POPC   PO438460  22.239   5.426   9.653
 2895POPC   GL138461  22.222   5.636   9.260
 2895POPC   GL238462  22.484   5.892   9.248
 2895POPC   C1A38463  22.291   5.605   8.829
 2895POPC   D2A38464  22.195   5.848   8.458
 2895POPC   C3A38465  22.171   5.629   8.074
 2895POPC   C4A38466  21.862   5.727   7.758
 2895POPC   C1B38467  22.386   6.107   8.867
 2895POPC   C2B38468  22.565   6.219   8.446
 2895POPC   C3B38469  22.378   6.117   8.027
 2895POPC   C4B38470  22.341   5.857   7.655
 2896POPC   NC338471   4.148   8.875   9.691
 2896POPC   PO438472   4.769   8.630   9.555
 2896POPC   GL138473   4.466   8.825   9.262
 2896POPC   GL238474   4.068   8.800   9.207
 2896POPC   C1A38475   4.423   9.051   8.884
 2896POPC   D2A38476   4.418   9.210   8.476
 2896POPC   C3A38477   4.514   8.993   8.117
 2896POPC   C4A38478   4.439   8.895   7.688
 2896POPC   C1B38479   3.951   8.859   8.796
 2896POPC   C2B38480   4.103   8.753   8.403
 2896POPC   C3B38481   4.016   8.869   7.988
 2896POPC   C4B38482   4.133   9.278   7.847
 2897POPC   NC338483  34.816  44.441   9.504
 2897POPC   PO438484  35.376  44.845   9.592
 2897POPC   GL138485  35.218  44.676   9.240
 2897POPC   GL238486  34.944  44.912   9.275
 2897POPC   C1A38487  35.404  44.514   8.829
 2897POPC   D2A38488  35.435  44.322   8.408
 2897POPC   C3A38489  35.472  44.589   8.031
 2897POPC   C4A38490  35.420  44.476   7.621
 2897POPC   C1B38491  35.099  44.940   8.819
 2897POPC   C2B38492  35.193  44.838   8.380
 2897POPC   C3B38493  35.098   0.034   7.946
 2897POPC   C4B38494  35.250  44.940   7.507
 2898POPC   NC338495   6.655  13.254   9.438
 2898POPC   PO438496   6.352  13.883   9.520
 2898POPC   GL138497   6.436  13.630   9.151
 2898POPC   GL238498   6.815  13.581   9.059
 2898POPC   C1A38499   6.442  13.579   8.707
 2898POPC   D2A38500   6.792  13.562   8.447
 2898POPC   C3A38501   6.764  13.753   8.054
 2898POPC   C4A38502   6.610  13.536   7.736
 2898POPC   C1B38503   7.009  13.234   8.792
 2898POPC   C2B38504   7.156  13.177   8.405
 2898POPC   C3B38505   6.966  13.261   8.030
 2898POPC   C4B38506   7.079  13.334   7.610
 2899POPC   NC338507  18.736  13.420   9.444
 2899POPC   PO438508  18.924  14.024   9.441
 2899POPC   GL138509  19.005  13.747   9.116
 2899POPC   GL238510  19.213  13.443   9.185
 2899POPC   C1A38511  18.822  13.605   8.746
 2899POPC   D2A38512  18.687  13.753   8.327
 2899POPC   C3A38513  18.779  13.497   7.986
 2899POPC   C4A38514  19.074  13.480   7.646
 2899POPC   C1B38515  19.329  13.528   8.758
 2899POPC   C2B38516  19.132  13.464   8.369
 2899POPC   C3B38517  19.313  13.659   8.043
 2899POPC   C4B38518  19.564  13.390   7.809
 2900POPC   NC338519   5.524  31.516   9.739
 2900POPC   PO438520   4.912  31.430   9.499
 2900POPC   GL138521   4.813  31.327   9.104
 2900POPC   GL238522   4.604  31.025   9.106
 2900POPC   C1A38523   4.935  31.471   8.704
 2900POPC   D2A38524   4.783  31.700   8.357
 2900POPC   C3A38525   5.080  31.742   8.068
 2900POPC   C4A38526   5.207  31.453   7.765
 2900POPC   C1B38527   4.885  30.944   8.785
 2900POPC   C2B38528   5.173  31.068   8.470
 2900POPC   C3B38529   4.932  31.232   8.139
 2900POPC   C4B38530   4.736  31.246   7.734
 2901POPC   NC338531   5.140  41.109   9.469
 2901POPC   PO438532   5.181  41.733   9.491
 2901POPC   GL138533   5.173  41.686   9.081
 2901POPC   GL238534   5.215  41.333   9.016
 2901POPC   C1A38535   4.947  41.761   8.720
 2901POPC   D2A38536   4.985  41.702   8.297
 2901POPC   C3A38537   4.774  41.347   8.136
 2901POPC   C4A38538   4.818  41.165   7.756
 2901POPC   C1B38539   5.351  41.427   8.594
 2901POPC   C2B38540   5.303  41.179   8.218
 2901POPC   C3B38541   5.350  41.272   7.807
 2901POPC   C4B38542   5.117  41.609   7.809
 2902POPC   NC338543  23.717  25.805   9.479
 2902POPC   PO438544  24.065  25.187   9.418
 2902POPC   GL138545  23.917  25.044   9.047
 2902POPC   GL238546  23.759  25.382   9.003
 2902POPC   C1A38547  23.665  25.004   8.662
 2902POPC   D2A38548  23.573  25.301   8.327
 2902POPC   C3A38549  23.736  25.115   7.988
 2902POPC   C4A38550  23.684  24.770   7.751
 2902POPC   C1B38551  23.433  25.674   8.878
 2902POPC   C2B38552  23.229  25.705   8.489
 2902POPC   C3B38553  23.287  25.806   8.058
 2902POPC   C4B38554  23.489  25.534   7.801
 2903POPC   NC338555   3.211  22.370   9.557
 2903POPC   PO438556   2.599  22.106   9.629
 2903POPC   GL138557   2.800  22.309   9.205
 2903POPC   GL238558   3.156  22.438   9.074
 2903POPC   C1A38559   2.913  22.098   8.801
 2903POPC   D2A38560   3.088  22.162   8.396
 2903POPC   C3A38561   2.772  22.160   8.082
 2903POPC   C4A38562   2.559  21.832   7.857
 2903POPC   C1B38563   2.958  22.610   8.754
 2903POPC   C2B38564   2.751  22.559   8.402
 2903POPC   C3B38565   2.870  22.669   8.010
 2903POPC   C4B38566   2.774  22.507   7.626
 2904POPC   NC338567  31.864   8.326   9.391
 2904POPC   PO438568  31.210   8.303   9.435
 2904POPC   GL138569  31.388   8.154   9.065
 2904POPC   GL238570  31.685   8.295   8.926
 2904POPC   C1A38571  31.223   8.217   8.662
 2904POPC   D2A38572  31.448   8.224   8.278
 2904POPC   C3A38573  31.335   8.398   7.891
 2904POPC   C4A38574  31.616   8.497   7.619
 2904POPC   C1B38575  31.649   7.937   8.665
 2904POPC   C2B38576  31.775   7.820   8.262
 2904POPC   C3B38577  31.727   8.035   7.874
 2904POPC   C4B38578  31.691   8.004   7.448
 2905POPC   NC338579   5.627  44.472   9.473
 2905POPC   PO438580   5.979  44.995   9.620
 2905POPC   GL138581   5.867  44.904   9.200
 2905POPC   GL238582   6.036  44.577   9.128
 2905POPC   C1A38583   5.830  44.851   8.740
 2905POPC   D2A38584   6.050  44.564   8.455
 2905POPC   C3A38585   5.953  44.658   8.052
 2905POPC   C4A38586   6.108  44.843   7.703
 2905POPC   C1B38587   5.738  44.370   8.822
 2905POPC   C2B38588   5.531  44.478   8.403
 2905POPC   C3B38589   5.580  44.303   7.998
 2905POPC   C4B38590   5.848  44.421   7.603
 2906POPC   NC338591  40.095  22.733   9.482
 2906POPC   PO438592  39.625  23.176   9.486
 2906POPC   GL138593  39.953  23.126   9.178
 2906POPC   GL238594  40.306  23.216   9.319
 2906POPC   C1A38595  39.958  22.806   8.821
 2906POPC   D2A38596  40.016  22.555   8.427
 2906POPC   C3A38597  40.005  22.775   8.045
 2906POPC   C4A38598  40.172  22.827   7.637
 2906POPC   C1B38599  40.315  23.203   8.850
 2906POPC   C2B38600  40.104  23.138   8.445
 2906POPC   C3B38601  40.152  23.263   8.030
 2906POPC   C4B38602  40.513  23.147   7.837
 2907POPC   NC338603  18.375   2.562   9.376
 2907POPC   PO438604  17.714   2.719   9.532
 2907POPC   GL138605  18.010   2.947   9.250
 2907POPC   GL238606  17.888   2.767   9.008
 2907POPC   C1A38607  18.337   2.954   8.873
 2907POPC   D2A38608  18.570   3.054   8.513
 2907POPC   C3A38609  18.375   3.151   8.140
 2907POPC   C4A38610  18.318   2.897   7.794
 2907POPC   C1B38611  17.928   2.840   8.583
 2907POPC   C2B38612  18.141   2.707   8.254
 2907POPC   C3B38613  18.208   2.396   7.946
 2907POPC   C4B38614  18.218   2.457   7.540
 2908POPC   NC338615  24.833  10.756   9.469
 2908POPC   PO438616  24.384  10.414   9.585
 2908POPC   GL138617  24.612  10.378   9.204
 2908POPC   GL238618  24.797  10.103   9.078
 2908POPC   C1A38619  24.721  10.553   8.814
 2908POPC   D2A38620  24.728  10.365   8.394
 2908POPC   C3A38621  24.483  10.590   8.069
 2908POPC   C4A38622  24.505  10.967   7.813
 2908POPC   C1B38623  24.403  10.148   8.793
 2908POPC   C2B38624  24.247  10.181   8.336
 2908POPC   C3B38625  24.533  10.080   7.987
 2908POPC   C4B38626  24.542  10.308   7.597
 2909POPC   NC338627  25.440  11.744   9.376
 2909POPC   PO438628  25.025  11.180   9.481
 2909POPC   GL138629  25.305  11.307   9.149
 2909POPC   GL238630  25.689  11.305   9.223
 2909POPC   C1A38631  25.221  11.193   8.733
 2909POPC   D2A38632  25.431  11.122   8.367
 2909POPC   C3A38633  25.156  11.071   8.017
 2909POPC   C4A38634  24.877  11.335   7.798
 2909POPC   C1B38635  25.666  11.423   8.786
 2909POPC   C2B38636  25.698  11.561   8.343
 2909POPC   C3B38637  25.599  11.433   7.896
 2909POPC   C4B38638  25.567  11.553   7.415
 2910POPC   NC338639   0.218  44.249   9.601
 2910POPC   PO438640   0.539  44.869   9.610
 2910POPC   GL138641   0.519  44.800   9.201
 2910POPC   GL238642   0.417  44.490   9.213
 2910POPC   C1A38643   0.373  44.832   8.773
 2910POPC   D2A38644   0.576  44.820   8.399
 2910POPC   C3A38645   0.369  44.905   8.010
 2910POPC   C4A38646   0.303  44.832   7.582
 2910POPC   C1B38647   0.520  44.344   8.823
 2910POPC   C2B38648   0.358  44.333   8.438
 2910POPC   C3B38649   0.545  44.424   8.063
 2910POPC   C4B38650   0.434  44.358   7.680
 2911POPC   NC338651  33.971  30.301   9.315
 2911POPC   PO438652  33.465  29.862   9.373
 2911POPC   GL138653  33.767  29.829   9.063
 2911POPC   GL238654  34.124  29.777   9.207
 2911POPC   C1A38655  33.819  30.095   8.681
 2911POPC   D2A38656  34.094  30.181   8.326
 2911POPC   C3A38657  33.950  30.239   7.920
 2911POPC   C4A38658  34.133  30.155   7.517
 2911POPC   C1B38659  34.156  29.677   8.765
 2911POPC   C2B38660  33.934  29.680   8.350
 2911POPC   C3B38661  33.812  29.756   7.913
 2911POPC   C4B38662  33.465  29.613   7.652
 2912POPC   NC338663  28.065   5.772   9.339
 2912POPC   PO438664  28.642   5.874   9.691
 2912POPC   GL138665  28.550   5.896   9.268
 2912POPC   GL238666  28.583   6.235   9.264
 2912POPC   C1A38667  28.507   5.733   8.818
 2912POPC   D2A38668  28.461   5.927   8.421
 2912POPC   C3A38669  28.444   5.672   8.062
 2912POPC   C4A38670  28.142   5.745   7.740
 2912POPC   C1B38671  28.364   6.221   8.858
 2912POPC   C2B38672  28.104   6.285   8.490
 2912POPC   C3B38673  27.997   6.119   8.093
 2912POPC   C4B38674  28.091   6.243   7.678
 2913POPC   NC338675  18.555  37.887   9.474
 2913POPC   PO438676  18.275  37.316   9.444
 2913POPC   GL138677  18.321  37.581   9.078
 2913POPC   GL238678  18.444  37.951   8.983
 2913POPC   C1A38679  18.070  37.627   8.702
 2913POPC   D2A38680  18.184  37.754   8.313
 2913POPC   C3A38681  18.065  37.573   7.950
 2913POPC   C4A38682  18.005  37.810   7.601
 2913POPC   C1B38683  18.598  37.701   8.653
 2913POPC   C2B38684  18.635  37.498   8.258
 2913POPC   C3B38685  18.545  37.733   7.910
 2913POPC   C4B38686  18.837  37.852   7.649
 2914POPC   NC338687  22.406  44.294   9.855
 2914POPC   PO438688  21.865  44.536   9.504
 2914POPC   GL138689  21.934  44.722   9.125
 2914POPC   GL238690  21.723   0.019   9.165
 2914POPC   C1A38691  22.095  44.587   8.749
 2914POPC   D2A38692  22.202  44.312   8.408
 2914POPC   C3A38693  22.313  44.527   8.048
 2914POPC   C4A38694  22.065  44.485   7.673
 2914POPC   C1B38695  21.955   0.129   8.803
 2914POPC   C2B38696  22.078  44.967   8.398
 2914POPC   C3B38697  21.949  44.897   7.979
 2914POPC   C4B38698  21.966  44.982   7.550
 2915POPC   NC338699  28.711  43.993   9.704
 2915POPC   PO438700  29.391  43.855   9.783
 2915POPC   GL138701  29.321  44.021   9.299
 2915POPC   GL238702  28.973  44.022   9.244
 2915POPC   C1A38703  29.395  43.920   8.823
 2915POPC   D2A38704  29.268  43.984   8.389
 2915POPC   C3A38705  29.167  43.782   7.968
 2915POPC   C4A38706  29.433  43.750   7.587
 2915POPC   C1B38707  28.974  44.179   8.824
 2915POPC   C2B38708  28.787  44.137   8.398
 2915POPC   C3B38709  28.954  44.256   8.001
 2915POPC   C4B38710  29.105  44.158   7.583
 2916POPC   NC338711  43.006  26.444   9.445
 2916POPC   PO438712  43.386  25.854   9.373
 2916POPC   GL138713  43.022  26.025   9.158
 2916POPC   GL238714  43.180  26.295   8.989
 2916POPC   C1A38715  42.829  26.040   8.759
 2916POPC   D2A38716  42.979  25.859   8.380
 2916POPC   C3A38717  43.324  25.899   8.113
 2916POPC   C4A38718  43.011  25.913   7.834
 2916POPC   C1B38719  43.371  26.103   8.630
 2916POPC   C2B38720  43.448  26.374   8.262
 2916POPC   C3B38721  43.439  26.335   7.819
 2916POPC   C4B38722  43.510  26.477   7.370
 2917POPC   NC338723   2.526  38.722   9.482
 2917POPC   PO438724   2.912  38.158   9.375
 2917POPC   GL138725   2.654  38.401   9.125
 2917POPC   GL238726   2.919  38.664   9.129
 2917POPC   C1A38727   2.514  38.721   8.817
 2917POPC   D2A38728   2.521  38.507   8.449
 2917POPC   C3A38729   2.682  38.622   8.099
 2917POPC   C4A38730   2.589  38.366   7.772
 2917POPC   C1B38731   2.958  38.438   8.717
 2917POPC   C2B38732   3.155  38.472   8.312
 2917POPC   C3B38733   3.075  38.323   7.899
 2917POPC   C4B38734   3.004  38.411   7.450
 2918POPC   NC338735  34.462  32.015   9.526
 2918POPC   PO438736  34.258  32.554   9.529
 2918POPC   GL138737  34.497  32.375   9.142
 2918POPC   GL238738  34.627  32.034   9.056
 2918POPC   C1A38739  34.727  32.415   8.733
 2918POPC   D2A38740  34.928  32.172   8.406
 2918POPC   C3A38741  34.804  32.325   8.010
 2918POPC   C4A38742  34.387  32.312   7.827
 2918POPC   C1B38743  34.315  32.090   8.740
 2918POPC   C2B38744  34.357  32.105   8.299
 2918POPC   C3B38745  34.290  31.835   7.939
 2918POPC   C4B38746  34.267  31.855   7.477
 2919POPC   NC338747  20.799   8.790   9.863
 2919POPC   PO438748  20.314   8.955   9.482
 2919POPC   GL138749  20.613   8.789   9.229
 2919POPC   GL238750  20.600   9.070   9.031
 2919POPC   C1A38751  20.535   8.636   8.808
 2919POPC   D2A38752  20.353   8.729   8.422
 2919POPC   C3A38753  20.566   8.549   8.095
 2919POPC   C4A38754  20.581   8.620   7.666
 2919POPC   C1B38755  20.648   9.144   8.579
 2919POPC   C2B38756  20.642   9.042   8.126
 2919POPC   C3B38757  20.955   9.167   7.846
 2919POPC   C4B38758  20.892   9.569   7.630
 2920POPC   NC338759  11.037   3.469   9.417
 2920POPC   PO438760  11.144   4.144   9.481
 2920POPC   GL138761  11.150   3.872   9.131
 2920POPC   GL238762  11.485   3.916   9.048
 2920POPC   C1A38763  11.183   3.576   8.786
 2920POPC   D2A38764  11.008   3.294   8.502
 2920POPC   C3A38765  11.042   3.333   8.090
 2920POPC   C4A38766  11.125   3.503   7.690
 2920POPC   C1B38767  11.484   3.956   8.590
 2920POPC   C2B38768  11.544   3.690   8.219
 2920POPC   C3B38769  11.613   3.752   7.735
 2920POPC   C4B38770  11.689   3.977   7.297
 2921POPC   NC338771  34.173   4.954   9.372
 2921POPC   PO438772  34.618   5.142   9.789
 2921POPC   GL138773  34.647   5.035   9.254
 2921POPC   GL238774  34.820   4.744   9.154
 2921POPC   C1A38775  34.524   5.226   8.801
 2921POPC   D2A38776  34.433   5.090   8.377
 2921POPC   C3A38777  34.647   5.309   8.032
 2921POPC   C4A38778  34.736   5.284   7.577
 2921POPC   C1B38779  34.981   5.054   8.836
 2921POPC   C2B38780  34.933   5.070   8.400
 2921POPC   C3B38781  34.858   4.858   7.991
 2921POPC   C4B38782  35.070   4.863   7.620
 2922POPC   NC338783  20.044  12.273   9.380
 2922POPC   PO438784  20.153  11.658   9.466
 2922POPC   GL138785  19.814  11.786   9.144
 2922POPC   GL238786  19.571  12.092   9.134
 2922POPC   C1A38787  19.792  11.986   8.705
 2922POPC   D2A38788  19.936  12.270   8.396
 2922POPC   C3A38789  19.991  12.039   8.033
 2922POPC   C4A38790  19.699  11.950   7.749
 2922POPC   C1B38791  19.565  12.467   8.783
 2922POPC   C2B38792  19.475  12.479   8.310
 2922POPC   C3B38793  19.737  12.466   7.902
 2922POPC   C4B38794  20.206  12.513   7.837
 2923POPC   NC338795   3.067   5.760   9.664
 2923POPC   PO438796   2.416   6.029   9.560
 2923POPC   GL138797   2.748   6.015   9.286
 2923POPC   GL238798   2.802   5.689   9.244
 2923POPC   C1A38799   2.773   6.045   8.848
 2923POPC   D2A38800   2.580   5.899   8.492
 2923POPC   C3A38801   2.764   6.018   8.111
 2923POPC   C4A38802   2.603   6.013   7.715
 2923POPC   C1B38803   2.588   5.541   8.894
 2923POPC   C2B38804   2.549   5.401   8.482
 2923POPC   C3B38805   2.565   5.555   8.082
 2923POPC   C4B38806   2.497   5.416   7.688
 2924POPC   NC338807  31.428  29.658   9.452
 2924POPC   PO438808  31.200  30.413   9.495
 2924POPC   GL138809  31.232  30.098   9.206
 2924POPC   GL238810  31.561  30.047   9.112
 2924POPC   C1A38811  31.144  30.119   8.766
 2924POPC   D2A38812  31.252  29.978   8.368
 2924POPC   C3A38813  31.600  30.065   8.133
 2924POPC   C4A38814  31.607  29.994   7.675
 2924POPC   C1B38815  31.740  29.800   8.770
 2924POPC   C2B38816  31.613  29.595   8.377
 2924POPC   C3B38817  31.513  29.560   7.956
 2924POPC   C4B38818  31.154  29.576   7.692
 2925POPC   NC338819  27.340  12.683   9.666
 2925POPC   PO438820  27.973  12.504   9.453
 2925POPC   GL138821  27.735  12.759   9.086
 2925POPC   GL238822  27.441  12.725   9.169
 2925POPC   C1A38823  27.781  13.056   8.728
 2925POPC   D2A38824  27.498  13.059   8.354
 2925POPC   C3A38825  27.626  13.013   7.941
 2925POPC   C4A38826  27.757  12.866   7.523
 2925POPC   C1B38827  27.291  12.985   8.825
 2925POPC   C2B38828  27.130  12.734   8.477
 2925POPC   C3B38829  27.185  12.665   8.090
 2925POPC   C4B38830  27.355  12.595   7.717
 2926POPC   NC338831  42.285  44.983   9.396
 2926POPC   PO438832  42.537  44.368   9.561
 2926POPC   GL138833  42.581  44.582   9.194
 2926POPC   GL238834  42.219  44.514   9.170
 2926POPC   C1A38835  42.480  44.719   8.782
 2926POPC   D2A38836  42.677  44.546   8.461
 2926POPC   C3A38837  42.449  44.678   8.159
 2926POPC   C4A38838  42.518  44.686   7.765
 2926POPC   C1B38839  42.025  44.439   8.773
 2926POPC   C2B38840  41.960  44.632   8.343
 2926POPC   C3B38841  42.012  44.573   7.884
 2926POPC   C4B38842  42.135  44.577   7.436
 2927POPC   NC338843  28.988  26.364   9.540
 2927POPC   PO438844  29.299  25.772   9.505
 2927POPC   GL138845  29.150  26.047   9.157
 2927POPC   GL238846  28.761  26.069   9.193
 2927POPC   C1A38847  29.059  25.918   8.731
 2927POPC   D2A38848  29.334  25.877   8.364
 2927POPC   C3A38849  29.152  25.875   7.969
 2927POPC   C4A38850  29.053  26.229   7.791
 2927POPC   C1B38851  28.635  26.241   8.804
 2927POPC   C2B38852  28.790  26.189   8.376
 2927POPC   C3B38853  28.627  26.016   8.016
 2927POPC   C4B38854  28.576  26.294   7.678
 2928POPC   NC338855  42.399  28.945   9.576
 2928POPC   PO438856  41.982  29.412   9.525
 2928POPC   GL138857  42.293  29.294   9.189
 2928POPC   GL238858  42.396  28.935   9.077
 2928POPC   C1A38859  42.404  29.340   8.760
 2928POPC   D2A38860  42.624  29.241   8.373
 2928POPC   C3A38861  42.355  29.059   8.060
 2928POPC   C4A38862  42.280  29.154   7.607
 2928POPC   C1B38863  42.665  28.878   8.725
 2928POPC   C2B38864  42.687  28.700   8.299
 2928POPC   C3B38865  42.719  28.765   7.854
 2928POPC   C4B38866  42.718  28.969   7.443
 2929POPC   NC338867  15.735  14.306   9.615
 2929POPC   PO438868  16.341  14.101   9.562
 2929POPC   GL138869  16.014  14.232   9.200
 2929POPC   GL238870  15.787  14.579   9.191
 2929POPC   C1A38871  15.822  14.260   8.782
 2929POPC   D2A38872  16.088  14.301   8.411
 2929POPC   C3A38873  15.894  14.326   7.981
 2929POPC   C4A38874  15.836  14.070   7.597
 2929POPC   C1B38875  15.466  14.673   8.861
 2929POPC   C2B38876  15.480  14.495   8.434
 2929POPC   C3B38877  15.518  14.671   8.022
 2929POPC   C4B38878  15.741  14.626   7.586
 2930POPC   NC338879  32.282  34.303   9.489
 2930POPC   PO438880  31.963  34.991   9.508
 2930POPC   GL138881  32.034  34.664   9.223
 2930POPC   GL238882  32.376  34.740   9.191
 2930POPC   C1A38883  32.143  34.388   8.856
 2930POPC   D2A38884  31.950  34.132   8.549
 2930POPC   C3A38885  32.054  34.246   8.138
 2930POPC   C4A38886  32.162  34.476   7.749
 2930POPC   C1B38887  32.557  34.711   8.788
 2930POPC   C2B38888  32.352  34.628   8.387
 2930POPC   C3B38889  32.557  34.699   8.005
 2930POPC   C4B38890  32.469  34.924   7.656
 2931POPC   NC338891   3.354  38.895   9.518
 2931POPC   PO438892   3.854  39.328   9.453
 2931POPC   GL138893   3.456  39.341   9.215
 2931POPC   GL238894   3.178  39.114   9.106
 2931POPC   C1A38895   3.436  39.353   8.761
 2931POPC   D2A38896   3.672  39.240   8.394
 2931POPC   C3A38897   3.503  39.291   7.977
 2931POPC   C4A38898   3.693  39.189   7.563
 2931POPC   C1B38899   3.268  38.853   8.751
 2931POPC   C2B38900   3.229  38.973   8.319
 2931POPC   C3B38901   3.403  38.764   7.938
 2931POPC   C4B38902   3.364  38.785   7.492
 2932POPC   NC338903   8.983  31.120   9.489
 2932POPC   PO438904   9.207  30.467   9.419
 2932POPC   GL138905   9.068  30.709   9.119
 2932POPC   GL238906   8.743  30.801   9.164
 2932POPC   C1A38907   8.951  30.603   8.706
 2932POPC   D2A38908   8.991  30.883   8.347
 2932POPC   C3A38909   8.960  30.616   8.085
 2932POPC   C4A38910   8.839  30.495   7.754
 2932POPC   C1B38911   8.603  30.950   8.769
 2932POPC   C2B38912   8.485  30.795   8.406
 2932POPC   C3B38913   8.484  30.856   7.982
 2932POPC   C4B38914   8.811  31.047   7.798
 2933POPC   NC338915  25.861   4.894   9.791
 2933POPC   PO438916  26.315   5.312   9.463
 2933POPC   GL138917  25.952   5.218   9.161
 2933POPC   GL238918  25.833   4.859   9.165
 2933POPC   C1A38919  25.899   5.230   8.689
 2933POPC   D2A38920  26.097   5.463   8.317
 2933POPC   C3A38921  26.165   5.175   7.950
 2933POPC   C4A38922  26.355   4.759   7.832
 2933POPC   C1B38923  25.486   4.926   8.855
 2933POPC   C2B38924  25.545   4.909   8.412
 2933POPC   C3B38925  25.676   5.221   8.092
 2933POPC   C4B38926  25.733   5.279   7.656
 2934POPC   NC338927  21.678  25.512   9.539
 2934POPC   PO438928  21.091  25.130   9.565
 2934POPC   GL138929  21.269  25.376   9.223
 2934POPC   GL238930  21.246  25.734   9.288
 2934POPC   C1A38931  21.435  25.344   8.794
 2934POPC   D2A38932  21.337  25.225   8.363
 2934POPC   C3A38933  21.543  25.322   7.996
 2934POPC   C4A38934  21.332  25.250   7.634
 2934POPC   C1B38935  21.073  25.714   8.862
 2934POPC   C2B38936  20.972  25.583   8.461
 2934POPC   C3B38937  21.123  25.601   8.043
 2934POPC   C4B38938  20.906  25.535   7.667
 2935POPC   NC338939   7.882  34.521   9.852
 2935POPC   PO438940   8.521  34.623   9.704
 2935POPC   GL138941   8.500  34.756   9.194
 2935POPC   GL238942   8.104  34.688   9.122
 2935POPC   C1A38943   8.437  34.642   8.747
 2935POPC   D2A38944   8.271  34.411   8.386
 2935POPC   C3A38945   8.186  34.640   8.005
 2935POPC   C4A38946   8.329  34.559   7.585
 2935POPC   C1B38947   7.937  34.477   8.771
 2935POPC   C2B38948   7.774  34.229   8.451
 2935POPC   C3B38949   7.775  34.192   8.018
 2935POPC   C4B38950   7.816  34.496   7.683
 2936POPC   NC338951  13.947  25.288   9.714
 2936POPC   PO438952  14.571  25.448   9.613
 2936POPC   GL138953  14.450  25.265   9.223
 2936POPC   GL238954  14.672  24.962   9.170
 2936POPC   C1A38955  14.284  25.440   8.816
 2936POPC   D2A38956  14.109  25.253   8.434
 2936POPC   C3A38957  14.121  25.459   8.046
 2936POPC   C4A38958  14.114  25.211   7.638
 2936POPC   C1B38959  14.680  25.139   8.726
 2936POPC   C2B38960  14.589  25.451   8.360
 2936POPC   C3B38961  14.582  25.333   7.908
 2936POPC   C4B38962  14.570  24.941   7.740
 2937POPC   NC338963  13.217  15.816   9.587
 2937POPC   PO438964  12.605  15.628   9.622
 2937POPC   GL138965  12.716  15.936   9.280
 2937POPC   GL238966  13.042  16.063   9.201
 2937POPC   C1A38967  12.689  16.057   8.838
 2937POPC   D2A38968  12.474  15.900   8.494
 2937POPC   C3A38969  12.707  15.893   8.103
 2937POPC   C4A38970  12.580  15.968   7.694
 2937POPC   C1B38971  13.206  16.129   8.828
 2937POPC   C2B38972  13.071  16.009   8.447
 2937POPC   C3B38973  13.200  16.034   8.026
 2937POPC   C4B38974  12.963  16.308   7.756
 2938POPC   NC338975  22.456  20.628   9.275
 2938POPC   PO438976  21.914  20.504   9.743
 2938POPC   GL138977  21.896  20.690   9.294
 2938POPC   GL238978  22.073  20.964   9.336
 2938POPC   C1A38979  21.991  20.538   8.842
 2938POPC   D2A38980  21.904  20.402   8.451
 2938POPC   C3A38981  22.240  20.435   8.161
 2938POPC   C4A38982  22.177  20.542   7.745
 2938POPC   C1B38983  22.085  21.039   8.891
 2938POPC   C2B38984  22.269  20.850   8.526
 2938POPC   C3B38985  22.152  20.931   8.120
 2938POPC   C4B38986  22.054  21.062   7.722
 2939POPC   NC338987   3.798   3.633   9.796
 2939POPC   PO438988   4.300   3.442   9.364
 2939POPC   GL138989   4.428   3.523   8.962
 2939POPC   GL238990   4.665   3.230   8.907
 2939POPC   C1A38991   4.090   3.580   8.628
 2939POPC   D2A38992   3.738   3.577   8.328
 2939POPC   C3A38993   3.875   3.677   7.936
 2939POPC   C4A38994   4.097   3.744   7.569
 2939POPC   C1B38995   4.516   3.307   8.494
 2939POPC   C2B38996   4.310   3.480   8.147
 2939POPC   C3B38997   4.533   3.527   7.750
 2939POPC   C4B38998   4.527   3.241   7.366
 2940POPC   NC338999  10.816  38.760   9.363
 2940POPC   PO439000  10.304  38.251   9.476
 2940POPC   GL139001  10.582  38.354   9.142
 2940POPC   GL239002  10.393  38.632   9.125
 2940POPC   C1A39003  10.717  38.248   8.693
 2940POPC   D2A39004  10.546  38.399   8.288
 2940POPC   C3A39005  10.657  38.158   7.911
 2940POPC   C4A39006  10.738  38.219   7.432
 2940POPC   C1B39007  10.588  38.727   8.739
 2940POPC   C2B39008  10.443  38.923   8.382
 2940POPC   C3B39009  10.239  38.788   8.027
 2940POPC   C4B39010  10.440  38.555   7.719
 2941POPC   NC339011   4.082   1.397   9.888
 2941POPC   PO439012   4.556   0.981   9.660
 2941POPC   GL139013   4.524   1.061   9.251
 2941POPC   GL239014   4.483   1.403   9.268
 2941POPC   C1A39015   4.625   1.021   8.808
 2941POPC   D2A39016   4.559   1.294   8.452
 2941POPC   C3A39017   4.543   1.086   8.037
 2941POPC   C4A39018   4.359   1.092   7.638
 2941POPC   C1B39019   4.223   1.340   8.892
 2941POPC   C2B39020   4.053   1.505   8.503
 2941POPC   C3B39021   4.220   1.498   8.097
 2941POPC   C4B39022   4.053   1.495   7.707
 2942POPC   NC339023  34.606   4.160   9.405
 2942POPC   PO439024  34.603   3.488   9.496
 2942POPC   GL139025  34.729   3.492   9.111
 2942POPC   GL239026  34.612   3.801   9.043
 2942POPC   C1A39027  34.886   3.569   8.691
 2942POPC   D2A39028  34.596   3.505   8.378
 2942POPC   C3A39029  34.710   3.743   8.035
 2942POPC   C4A39030  34.549   3.544   7.706
 2942POPC   C1B39031  34.449   3.918   8.636
 2942POPC   C2B39032  34.270   3.918   8.206
 2942POPC   C3B39033  34.405   4.050   7.767
 2942POPC   C4B39034  34.410   3.830   7.339
 2943POPC   NC339035  24.282   7.794   9.458
 2943POPC   PO439036  24.510   7.121   9.517
 2943POPC   GL139037  24.431   7.402   9.177
 2943POPC   GL239038  24.680   7.652   9.141
 2943POPC   C1A39039  24.233   7.376   8.785
 2943POPC   D2A39040  24.364   7.442   8.389
 2943POPC   C3A39041  24.116   7.259   8.066
 2943POPC   C4A39042  24.146   7.044   7.677
 2943POPC   C1B39043  24.777   7.326   8.824
 2943POPC   C2B39044  24.818   7.193   8.417
 2943POPC   C3B39045  24.716   7.368   8.047
 2943POPC   C4B39046  24.630   7.242   7.677
 2944POPC   NC339047  25.347  21.798   9.593
 2944POPC   PO439048  25.086  21.167   9.692
 2944POPC   GL139049  25.108  21.356   9.276
 2944POPC   GL239050  25.356  21.552   9.121
 2944POPC   C1A39051  24.910  21.428   8.898
 2944POPC   D2A39052  25.026  21.560   8.496
 2944POPC   C3A39053  24.946  21.418   8.087
 2944POPC   C4A39054  25.068  21.169   7.724
 2944POPC   C1B39055  25.448  21.844   8.768
 2944POPC   C2B39056  25.508  21.618   8.367
 2944POPC   C3B39057  25.453  21.492   7.929
 2944POPC   C4B39058  25.542  21.845   7.641
 2945POPC   NC339059  36.488  44.283   9.335
 2945POPC   PO439060  35.852  44.037   9.325
 2945POPC   GL139061  36.153  44.073   9.003
 2945POPC   GL239062  35.909  44.181   8.771
 2945POPC   C1A39063  36.403  43.825   8.723
 2945POPC   D2A39064  36.313  43.532   8.400
 2945POPC   C3A39065  36.149  43.770   8.084
 2945POPC   C4A39066  36.313  43.668   7.718
 2945POPC   C1B39067  35.881  43.713   8.687
 2945POPC   C2B39068  35.775  43.472   8.313
 2945POPC   C3B39069  35.680  43.682   7.902
 2945POPC   C4B39070  35.777  44.172   7.884
 2946POPC   NC339071  22.837  38.836   9.569
 2946POPC   PO439072  23.147  39.427   9.519
 2946POPC   GL139073  22.969  39.193   9.174
 2946POPC   GL239074  22.658  39.043   9.163
 2946POPC   C1A39075  23.047  38.953   8.794
 2946POPC   D2A39076  22.983  38.837   8.376
 2946POPC   C3A39077  23.217  39.120   8.135
 2946POPC   C4A39078  23.107  39.238   7.771
 2946POPC   C1B39079  22.600  39.243   8.826
 2946POPC   C2B39080  22.562  39.132   8.429
 2946POPC   C3B39081  22.692  39.122   8.038
 2946POPC   C4B39082  22.503  39.239   7.656
 2947POPC   NC339083   2.201  36.198   9.730
 2947POPC   PO439084   2.697  36.039   9.320
 2947POPC   GL139085   2.652  36.249   8.990
 2947POPC   GL239086   2.298  36.350   9.049
 2947POPC   C1A39087   2.987  36.407   8.687
 2947POPC   D2A39088   3.167  36.345   8.278
 2947POPC   C3A39089   2.982  36.025   8.061
 2947POPC   C4A39090   2.850  35.994   7.665
 2947POPC   C1B39091   2.484  36.569   8.665
 2947POPC   C2B39092   2.683  36.581   8.281
 2947POPC   C3B39093   2.640  36.428   7.870
 2947POPC   C4B39094   2.258  36.259   7.687
 2948POPC   NC339095  32.505   3.260   9.717
 2948POPC   PO439096  31.999   2.856   9.447
 2948POPC   GL139097  32.273   2.813   9.108
 2948POPC   GL239098  32.605   2.699   9.209
 2948POPC   C1A39099  32.200   2.687   8.667
 2948POPC   D2A39100  31.957   2.791   8.284
 2948POPC   C3A39101  32.156   3.063   7.965
 2948POPC   C4A39102  32.142   3.069   7.495
 2948POPC   C1B39103  32.615   2.394   8.859
 2948POPC   C2B39104  32.648   2.283   8.414
 2948POPC   C3B39105  32.371   2.519   8.141
 2948POPC   C4B39106  32.381   2.671   7.721
 2949POPC   NC339107  42.994  44.334   9.669
 2949POPC   PO439108  43.366  44.861   9.722
 2949POPC   GL139109  43.065  44.750   9.371
 2949POPC   GL239110  43.170  44.470   9.209
 2949POPC   C1A39111  42.988  44.821   8.886
 2949POPC   D2A39112  43.147  44.715   8.448
 2949POPC   C3A39113  42.988  44.774   7.998
 2949POPC   C4A39114  43.244  44.924   7.614
 2949POPC   C1B39115  43.011  44.312   8.807
 2949POPC   C2B39116  43.260  44.165   8.485
 2949POPC   C3B39117  43.231  44.332   8.115
 2949POPC   C4B39118  43.281  44.257   7.711
 2950POPC   NC339119  41.839  31.383   9.550
 2950POPC   PO439120  41.283  31.649   9.382
 2950POPC   GL139121  41.507  31.408   9.090
 2950POPC   GL239122  41.824  31.217   9.084
 2950POPC   C1A39123  41.648  31.519   8.686
 2950POPC   D2A39124  41.530  31.718   8.305
 2950POPC   C3A39125  41.587  31.510   7.939
 2950POPC   C4A39126  41.372  31.154   8.051
 2950POPC   C1B39127  41.903  31.053   8.724
 2950POPC   C2B39128  41.858  31.246   8.300
 2950POPC   C3B39129  41.859  31.027   7.910
 2950POPC   C4B39130  41.748  31.198   7.506
 2951POPC   NC339131  23.705  39.333   9.549
 2951POPC   PO439132  23.919  38.699   9.677
 2951POPC   GL139133  23.791  38.906   9.255
 2951POPC   GL239134  23.464  39.088   9.183
 2951POPC   C1A39135  23.828  39.041   8.800
 2951POPC   D2A39136  24.022  38.962   8.401
 2951POPC   C3A39137  23.753  39.142   8.106
 2951POPC   C4A39138  23.594  39.116   7.730
 2951POPC   C1B39139  23.558  39.460   8.916
 2951POPC   C2B39140  23.514  39.435   8.469
 2951POPC   C3B39141  23.492  39.626   8.068
 2951POPC   C4B39142  23.440  39.591   7.654
 2952POPC   NC339143  27.641  32.746   9.426
 2952POPC   PO439144  27.637  33.448   9.527
 2952POPC   GL139145  27.455  33.218   9.125
 2952POPC   GL239146  27.413  32.887   8.965
 2952POPC   C1A39147  27.410  33.298   8.654
 2952POPC   D2A39148  27.651  33.198   8.251
 2952POPC   C3A39149  27.521  32.891   7.930
 2952POPC   C4A39150  27.166  32.693   7.713
 2952POPC   C1B39151  27.784  32.922   8.716
 2952POPC   C2B39152  27.935  32.782   8.302
 2952POPC   C3B39153  28.042  33.019   7.912
 2952POPC   C4B39154  27.783  33.163   7.564
 2953POPC   NC339155   9.191  36.385   9.451
 2953POPC   PO439156   8.845  35.825   9.598
 2953POPC   GL139157   8.954  35.946   9.170
 2953POPC   GL239158   9.155  36.223   8.980
 2953POPC   C1A39159   8.713  36.011   8.788
 2953POPC   D2A39160   8.656  36.145   8.366
 2953POPC   C3A39161   8.950  35.904   8.164
 2953POPC   C4A39162   9.082  35.797   7.758
 2953POPC   C1B39163   9.415  36.199   8.600
 2953POPC   C2B39164   9.372  36.201   8.133
 2953POPC   C3B39165   9.062  36.326   7.795
 2953POPC   C4B39166   9.112  36.495   7.362
 2954POPC   NC339167  43.853  15.146   9.335
 2954POPC   PO439168  44.397  15.519   9.640
 2954POPC   GL139169  44.176  15.481   9.146
 2954POPC   GL239170  44.148  15.149   8.926
 2954POPC   C1A39171  44.029  15.533   8.678
 2954POPC   D2A39172  44.079  15.176   8.380
 2954POPC   C3A39173  44.003  15.317   7.965
 2954POPC   C4A39174  43.635  15.452   7.713
 2954POPC   C1B39175  43.818  14.893   8.756
 2954POPC   C2B39176  43.684  14.782   8.373
 2954POPC   C3B39177  43.780  14.856   7.972
 2954POPC   C4B39178  43.889  14.996   7.577
 2955POPC   NC339179   5.038   6.633   9.751
 2955POPC   PO439180   4.777   7.049   9.353
 2955POPC   GL139181   4.805   6.646   9.246
 2955POPC   GL239182   5.102   6.613   9.163
 2955POPC   C1A39183   4.766   6.644   8.792
 2955POPC   D2A39184   4.943   6.865   8.404
 2955POPC   C3A39185   4.747   6.782   8.028
 2955POPC   C4A39186   4.887   6.644   7.657
 2955POPC   C1B39187   5.276   6.753   8.788
 2955POPC   C2B39188   5.456   6.692   8.381
 2955POPC   C3B39189   5.277   6.740   7.986
 2955POPC   C4B39190   5.442   6.792   7.562
 2956POPC   NC339191   8.434   6.062   9.430
 2956POPC   PO439192   7.955   6.238   9.784
 2956POPC   GL139193   7.927   6.137   9.300
 2956POPC   GL239194   8.064   5.784   9.211
 2956POPC   C1A39195   8.104   6.121   8.850
 2956POPC   D2A39196   8.196   5.971   8.426
 2956POPC   C3A39197   8.206   6.118   8.028
 2956POPC   C4A39198   7.861   6.161   7.726
 2956POPC   C1B39199   8.081   5.620   8.771
 2956POPC   C2B39200   8.358   5.509   8.385
 2956POPC   C3B39201   8.182   5.616   8.018
 2956POPC   C4B39202   8.252   5.814   7.629
 2957POPC   NC339203  24.087  18.763   9.419
 2957POPC   PO439204  23.396  18.960   9.449
 2957POPC   GL139205  23.723  18.950   9.124
 2957POPC   GL239206  23.729  18.599   9.034
 2957POPC   C1A39207  23.865  19.128   8.718
 2957POPC   D2A39208  23.701  19.440   8.406
 2957POPC   C3A39209  23.804  19.362   7.997
 2957POPC   C4A39210  23.658  19.295   7.617
 2957POPC   C1B39211  23.402  18.818   8.761
 2957POPC   C2B39212  23.445  18.990   8.374
 2957POPC   C3B39213  23.677  18.875   8.020
 2957POPC   C4B39214  23.457  18.793   7.654
 2958POPC   NC339215   6.480   7.880   9.527
 2958POPC   PO439216   6.867   7.284   9.571
 2958POPC   GL139217   6.757   7.297   9.133
 2958POPC   GL239218   6.509   7.542   9.142
 2958POPC   C1A39219   6.576   7.324   8.710
 2958POPC   D2A39220   6.760   7.412   8.337
 2958POPC   C3A39221   6.459   7.451   8.021
 2958POPC   C4A39222   6.318   7.150   7.675
 2958POPC   C1B39223   6.373   7.833   8.835
 2958POPC   C2B39224   6.236   7.778   8.396
 2958POPC   C3B39225   6.317   7.917   7.938
 2958POPC   C4B39226   6.269   7.670   7.592
 2959POPC   NC339227  41.679  29.525   9.195
 2959POPC   PO439228  41.489  30.034   9.565
 2959POPC   GL139229  41.424  30.018   9.145
 2959POPC   GL239230  41.213  29.735   9.060
 2959POPC   C1A39231  41.529  29.981   8.719
 2959POPC   D2A39232  41.364  29.918   8.315
 2959POPC   C3A39233  41.505  30.131   7.953
 2959POPC   C4A39234  41.246  30.207   7.623
 2959POPC   C1B39235  41.277  29.505   8.673
 2959POPC   C2B39236  41.630  29.493   8.376
 2959POPC   C3B39237  41.541  29.617   7.945
 2959POPC   C4B39238  41.131  29.740   7.857
 2960POPC   NC339239  37.061  26.542   9.674
 2960POPC   PO439240  36.408  26.540   9.484
 2960POPC   GL139241  36.788  26.686   9.255
 2960POPC   GL239242  37.175  26.740   9.188
 2960POPC   C1A39243  36.774  26.817   8.852
 2960POPC   D2A39244  36.895  26.629   8.491
 2960POPC   C3A39245  36.825  26.812   8.095
 2960POPC   C4A39246  37.014  26.718   7.759
 2960POPC   C1B39247  37.193  27.085   8.817
 2960POPC   C2B39248  37.234  27.011   8.336
 2960POPC   C3B39249  37.183  27.188   7.855
 2960POPC   C4B39250  37.298  27.254   7.352
 2961POPC   NC339251  22.681   0.396   9.705
 2961POPC   PO439252  23.262   0.216   9.545
 2961POPC   GL139253  22.940   0.310   9.272
 2961POPC   GL239254  22.946  44.994   9.179
 2961POPC   C1A39255  22.744   0.392   8.883
 2961POPC   D2A39256  22.649   0.679   8.529
 2961POPC   C3A39257  22.842   0.519   8.154
 2961POPC   C4A39258  22.737   0.492   7.743
 2961POPC   C1B39259  23.243   0.227   8.861
 2961POPC   C2B39260  23.281   0.447   8.447
 2961POPC   C3B39261  23.361   0.320   8.010
 2961POPC   C4B39262  23.239   0.487   7.615
 2962POPC   NC339263  28.472  24.494   9.640
 2962POPC   PO439264  27.897  24.907   9.622
 2962POPC   GL139265  28.220  24.734   9.263
 2962POPC   GL239266  28.329  24.397   9.117
 2962POPC   C1A39267  28.453  24.814   8.845
 2962POPC   D2A39268  28.394  25.041   8.439
 2962POPC   C3A39269  28.310  24.762   8.098
 2962POPC   C4A39270  28.146  24.608   7.713
 2962POPC   C1B39271  28.210  24.408   8.622
 2962POPC   C2B39272  28.297  24.249   8.142
 2962POPC   C3B39273  28.517  24.245   7.695
 2962POPC   C4B39274  28.953  24.371   7.471
 2963POPC   NC339275  30.200   3.165   9.460
 2963POPC   PO439276  30.121   2.464   9.353
 2963POPC   GL139277  29.948   2.670   9.051
 2963POPC   GL239278  29.585   2.582   9.038
 2963POPC   C1A39279  30.163   2.971   8.809
 2963POPC   D2A39280  30.075   3.166   8.438
 2963POPC   C3A39281  30.211   3.000   8.068
 2963POPC   C4A39282  29.955   3.101   7.754
 2963POPC   C1B39283  29.646   2.867   8.662
 2963POPC   C2B39284  29.751   2.814   8.225
 2963POPC   C3B39285  29.860   2.600   7.856
 2963POPC   C4B39286  30.050   2.209   7.748
 2964POPC   NC339287   8.722  23.304   9.478
 2964POPC   PO439288   9.097  22.766   9.493
 2964POPC   GL139289   9.057  23.025   9.144
 2964POPC   GL239290   8.716  22.906   9.147
 2964POPC   C1A39291   8.899  23.071   8.719
 2964POPC   D2A39292   8.740  22.975   8.353
 2964POPC   C3A39293   9.009  23.058   8.059
 2964POPC   C4A39294   9.006  23.317   7.728
 2964POPC   C1B39295   8.780  22.579   8.850
 2964POPC   C2B39296   8.663  22.452   8.438
 2964POPC   C3B39297   8.822  22.585   8.035
 2964POPC   C4B39298   8.801  22.838   7.659
 2965POPC   NC339299  21.541  13.176   9.588
 2965POPC   PO439300  21.158  12.769   9.589
 2965POPC   GL139301  21.228  13.028   9.224
 2965POPC   GL239302  21.522  12.803   9.195
 2965POPC   C1A39303  21.406  13.113   8.818
 2965POPC   D2A39304  21.306  12.845   8.467
 2965POPC   C3A39305  21.227  12.967   8.030
 2965POPC   C4A39306  21.428  12.772   7.694
 2965POPC   C1B39307  21.778  12.776   8.793
 2965POPC   C2B39308  21.786  13.047   8.427
 2965POPC   C3B39309  21.716  13.113   7.986
 2965POPC   C4B39310  21.929  12.910   7.630
 2966POPC   NC339311  40.283  40.783   9.723
 2966POPC   PO439312  40.858  40.562   9.375
 2966POPC   GL139313  40.837  40.651   9.018
 2966POPC   GL239314  40.607  40.958   9.072
 2966POPC   C1A39315  41.005  40.709   8.607
 2966POPC   D2A39316  40.953  41.078   8.318
 2966POPC   C3A39317  41.009  40.982   7.906
 2966POPC   C4A39318  41.115  40.531   7.991
 2966POPC   C1B39319  40.489  40.710   8.692
 2966POPC   C2B39320  40.619  40.439   8.378
 2966POPC   C3B39321  40.617  40.703   8.074
 2966POPC   C4B39322  40.532  40.806   7.694
 2967POPC   NC339323  26.554   2.725   9.593
 2967POPC   PO439324  27.171   2.412   9.472
 2967POPC   GL139325  26.914   2.726   9.224
 2967POPC   GL239326  26.613   2.574   9.132
 2967POPC   C1A39327  26.866   2.951   8.840
 2967POPC   D2A39328  27.037   2.779   8.470
 2967POPC   C3A39329  26.870   2.930   8.127
 2967POPC   C4A39330  26.942   2.764   7.763
 2967POPC   C1B39331  26.841   2.441   8.809
 2967POPC   C2B39332  26.812   2.307   8.416
 2967POPC   C3B39333  26.670   2.448   8.057
 2967POPC   C4B39334  26.507   2.523   7.635
 2968POPC   NC339335  37.801  14.839   9.386
 2968POPC   PO439336  37.401  14.395   9.541
 2968POPC   GL139337  37.623  14.401   9.166
 2968POPC   GL239338  37.891  14.198   9.171
 2968POPC   C1A39339  37.569  14.601   8.741
 2968POPC   D2A39340  37.221  14.673   8.430
 2968POPC   C3A39341  37.252  14.390   8.086
 2968POPC   C4A39342  37.489  14.434   7.714
 2968POPC   C1B39343  37.697  14.078   8.787
 2968POPC   C2B39344  37.622  14.192   8.379
 2968POPC   C3B39345  37.826  14.180   8.001
 2968POPC   C4B39346  37.866  13.879   7.672
 2969POPC   NC339347  37.048  20.157   9.352
 2969POPC   PO439348  36.810  20.748   9.519
 2969POPC   GL139349  36.852  20.588   9.151
 2969POPC   GL239350  37.179  20.696   9.048
 2969POPC   C1A39351  36.690  20.648   8.766
 2969POPC   D2A39352  36.939  20.681   8.432
 2969POPC   C3A39353  36.884  20.832   8.051
 2969POPC   C4A39354  36.891  20.653   7.688
 2969POPC   C1B39355  37.138  20.367   8.768
 2969POPC   C2B39356  37.140  20.187   8.403
 2969POPC   C3B39357  36.929  20.270   8.060
 2969POPC   C4B39358  37.160  20.216   7.723
 2970POPC   NC339359  32.453  30.182   9.532
 2970POPC   PO439360  31.900  29.704   9.423
 2970POPC   GL139361  32.216  29.885   9.189
 2970POPC   GL239362  32.025  30.179   9.270
 2970POPC   C1A39363  32.363  29.804   8.773
 2970POPC   D2A39364  32.116  29.533   8.494
 2970POPC   C3A39365  32.025  29.759   8.104
 2970POPC   C4A39366  32.159  29.697   7.694
 2970POPC   C1B39367  32.087  30.285   8.867
 2970POPC   C2B39368  32.004  30.129   8.471
 2970POPC   C3B39369  32.085  30.306   8.087
 2970POPC   C4B39370  32.107  30.192   7.709
 2971POPC   NC339371  13.251  32.464   9.674
 2971POPC   PO439372  13.527  31.850   9.485
 2971POPC   GL139373  13.585  32.182   9.180
 2971POPC   GL239374  13.336  32.458   9.162
 2971POPC   C1A39375  13.819  32.226   8.773
 2971POPC   D2A39376  13.844  32.053   8.352
 2971POPC   C3A39377  13.583  32.070   8.023
 2971POPC   C4A39378  13.745  32.310   7.683
 2971POPC   C1B39379  13.314  32.268   8.764
 2971POPC   C2B39380  13.487  32.423   8.409
 2971POPC   C3B39381  13.356  32.533   8.013
 2971POPC   C4B39382  13.270  32.422   7.583
 2972POPC   NC339383  26.019  42.764   9.530
 2972POPC   PO439384  25.921  43.498   9.567
 2972POPC   GL139385  26.033  43.356   9.184
 2972POPC   GL239386  26.351  43.287   9.252
 2972POPC   C1A39387  26.158  43.023   8.844
 2972POPC   D2A39388  25.895  42.896   8.467
 2972POPC   C3A39389  26.088  42.919   8.044
 2972POPC   C4A39390  25.871  43.006   7.646
 2972POPC   C1B39391  26.328  43.517   8.819
 2972POPC   C2B39392  26.126  43.386   8.434
 2972POPC   C3B39393  26.312  43.407   8.022
 2972POPC   C4B39394  26.348  43.217   7.603
 2973POPC   NC339395  40.592  10.485   9.804
 2973POPC   PO439396  40.560  10.921   9.292
 2973POPC   GL139397  40.542  10.581   9.069
 2973POPC   GL239398  40.869  10.515   9.124
 2973POPC   C1A39399  40.562  10.624   8.649
 2973POPC   D2A39400  40.548  10.685   8.229
 2973POPC   C3A39401  40.859  10.718   7.994
 2973POPC   C4A39402  40.766  10.882   7.647
 2973POPC   C1B39403  41.051  10.564   8.753
 2973POPC   C2B39404  40.968  10.396   8.374
 2973POPC   C3B39405  41.144  10.280   8.030
 2973POPC   C4B39406  41.141  10.473   7.651
 2974POPC   NC339407   4.282  10.765   9.475
 2974POPC   PO439408   4.642  10.226   9.362
 2974POPC   GL139409   4.547  10.560   9.071
 2974POPC   GL239410   4.626  10.903   9.124
 2974POPC   C1A39411   4.368  10.477   8.688
 2974POPC   D2A39412   4.238  10.123   8.464
 2974POPC   C3A39413   4.417  10.310   8.123
 2974POPC   C4A39414   4.280  10.351   7.721
 2974POPC   C1B39415   4.228  10.944   8.828
 2974POPC   C2B39416   4.118  10.853   8.389
 2974POPC   C3B39417   4.334  10.805   7.995
 2974POPC   C4B39418   4.548  10.803   7.582
 2975POPC   NC339419   1.735  44.906   9.447
 2975POPC   PO439420   2.162  44.341   9.448
 2975POPC   GL139421   2.065  44.605   9.151
 2975POPC   GL239422   1.771  44.405   9.067
 2975POPC   C1A39423   2.131  44.601   8.712
 2975POPC   D2A39424   1.991  44.439   8.311
 2975POPC   C3A39425   2.272  44.627   8.007
 2975POPC   C4A39426   2.214  44.681   7.551
 2975POPC   C1B39427   1.597  44.608   8.703
 2975POPC   C2B39428   1.632  44.852   8.313
 2975POPC   C3B39429   1.822  44.860   7.893
 2975POPC   C4B39430   1.854   0.042   7.465
 2976POPC   NC339431  34.291  19.671   9.585
 2976POPC   PO439432  34.723  20.112   9.384
 2976POPC   GL139433  34.480  19.918   9.126
 2976POPC   GL239434  34.785  19.785   8.952
 2976POPC   C1A39435  34.384  19.919   8.712
 2976POPC   D2A39436  34.660  19.937   8.421
 2976POPC   C3A39437  34.493  19.963   8.072
 2976POPC   C4A39438  34.439  19.918   7.688
 2976POPC   C1B39439  34.688  19.476   8.656
 2976POPC   C2B39440  34.718  19.477   8.232
 2976POPC   C3B39441  34.846  19.641   7.844
 2976POPC   C4B39442  34.677  19.513   7.461
 2977POPC   NC339443   8.747   8.033   9.494
 2977POPC   PO439444   9.196   8.429   9.114
 2977POPC   GL139445   9.090   7.966   9.078
 2977POPC   GL239446   8.707   7.854   9.017
 2977POPC   C1A39447   9.221   7.927   8.657
 2977POPC   D2A39448   9.376   8.270   8.408
 2977POPC   C3A39449   9.224   8.392   7.976
 2977POPC   C4A39450   8.845   8.453   7.751
 2977POPC   C1B39451   8.736   7.857   8.557
 2977POPC   C2B39452   8.939   8.017   8.210
 2977POPC   C3B39453   8.993   7.947   7.798
 2977POPC   C4B39454   8.740   7.657   7.572
 2978POPC   NC339455  37.389  30.298   9.591
 2978POPC   PO439456  38.057  30.400   9.530
 2978POPC   GL139457  37.828  30.094   9.193
 2978POPC   GL239458  37.611  29.789   9.273
 2978POPC   C1A39459  37.610  29.945   8.784
 2978POPC   D2A39460  37.745  29.710   8.430
 2978POPC   C3A39461  37.538  29.805   8.066
 2978POPC   C4A39462  37.567  29.934   7.649
 2978POPC   C1B39463  37.358  29.531   8.963
 2978POPC   C2B39464  37.276  29.527   8.533
 2978POPC   C3B39465  37.114  29.496   8.122
 2978POPC   C4B39466  37.267  29.524   7.715
 2979POPC   NC339467  35.048   3.283   9.540
 2979POPC   PO439468  35.572   3.722   9.569
 2979POPC   GL139469  35.539   3.459   9.231
 2979POPC   GL239470  35.236   3.514   9.100
 2979POPC   C1A39471  35.702   3.405   8.838
 2979POPC   D2A39472  35.435   3.356   8.497
 2979POPC   C3A39473  35.533   3.477   8.064
 2979POPC   C4A39474  35.494   3.274   7.663
 2979POPC   C1B39475  35.106   3.138   8.875
 2979POPC   C2B39476  34.987   3.119   8.444
 2979POPC   C3B39477  35.050   3.401   8.150
 2979POPC   C4B39478  35.041   3.475   7.725
 2980POPC   NC339479  44.986   6.775   9.495
 2980POPC   PO439480   0.736   6.525   9.547
 2980POPC   GL139481   0.424   6.594   9.216
 2980POPC   GL239482   0.562   6.841   9.122
 2980POPC   C1A39483   0.294   6.613   8.747
 2980POPC   D2A39484   0.080   6.615   8.341
 2980POPC   C3A39485   0.272   6.583   7.929
 2980POPC   C4A39486   0.120   6.599   7.490
 2980POPC   C1B39487   0.562   7.033   8.743
 2980POPC   C2B39488   0.568   6.856   8.333
 2980POPC   C3B39489   0.754   6.747   7.930
 2980POPC   C4B39490   0.571   6.853   7.508
 2981POPC   NC339491   3.603  14.174   9.527
 2981POPC   PO439492   3.447  14.863   9.353
 2981POPC   GL139493   3.722  14.618   9.067
 2981POPC   GL239494   3.722  14.289   9.060
 2981POPC   C1A39495   3.839  14.642   8.655
 2981POPC   D2A39496   3.595  14.797   8.328
 2981POPC   C3A39497   3.594  14.666   7.919
 2981POPC   C4A39498   3.452  14.482   7.548
 2981POPC   C1B39499   3.680  14.136   8.674
 2981POPC   C2B39500   3.591  14.275   8.283
 2981POPC   C3B39501   3.732  14.146   7.902
 2981POPC   C4B39502   3.629  13.976   7.506
 2982POPC   NC339503  31.900  42.022   9.571
 2982POPC   PO439504  32.198  41.425   9.568
 2982POPC   GL139505  32.370  41.524   9.177
 2982POPC   GL239506  32.643  41.295   9.179
 2982POPC   C1A39507  32.350  41.756   8.817
 2982POPC   D2A39508  32.092  41.569   8.530
 2982POPC   C3A39509  32.080  41.621   8.074
 2982POPC   C4A39510  31.812  41.762   7.731
 2982POPC   C1B39511  32.477  41.243   8.759
 2982POPC   C2B39512  32.381  41.178   8.335
 2982POPC   C3B39513  32.500  41.348   7.953
 2982POPC   C4B39514  32.228  41.474   7.596
 2983POPC   NC339515  22.441  31.395   9.532
 2983POPC   PO439516  23.110  31.468   9.492
 2983POPC   GL139517  22.796  31.465   9.188
 2983POPC   GL239518  22.673  31.092   9.186
 2983POPC   C1A39519  22.753  31.661   8.806
 2983POPC   D2A39520  22.654  31.814   8.405
 2983POPC   C3A39521  22.888  31.793   8.061
 2983POPC   C4A39522  22.863  31.538   7.716
 2983POPC   C1B39523  22.905  31.146   8.804
 2983POPC   C2B39524  22.844  31.327   8.409
 2983POPC   C3B39525  22.552  31.364   8.108
 2983POPC   C4B39526  22.522  31.148   7.732
 2984POPC   NC339527  42.566   7.193   9.749
 2984POPC   PO439528  42.379   6.591   9.411
 2984POPC   GL139529  42.359   6.369   9.020
 2984POPC   GL239530  41.995   6.404   9.005
 2984POPC   C1A39531  42.636   6.360   8.655
 2984POPC   D2A39532  42.717   6.610   8.281
 2984POPC   C3A39533  42.463   6.588   7.894
 2984POPC   C4A39534  42.039   6.434   7.773
 2984POPC   C1B39535  42.193   6.665   8.652
 2984POPC   C2B39536  42.018   6.755   8.231
 2984POPC   C3B39537  42.074   6.945   7.842
 2984POPC   C4B39538  42.210   6.809   7.453
 2985POPC   NC339539  37.853   1.363   9.884
 2985POPC   PO439540  37.680   2.033   9.686
 2985POPC   GL139541  37.733   1.918   9.225
 2985POPC   GL239542  37.376   1.927   9.222
 2985POPC   C1A39543  37.783   2.070   8.780
 2985POPC   D2A39544  37.828   2.219   8.334
 2985POPC   C3A39545  38.000   1.860   8.102
 2985POPC   C4A39546  38.072   1.665   7.694
 2985POPC   C1B39547  37.364   1.765   8.792
 2985POPC   C2B39548  37.570   1.751   8.375
 2985POPC   C3B39549  37.502   1.784   7.920
 2985POPC   C4B39550  37.213   1.601   7.598
 2986POPC   NC339551  20.007  13.056   9.497
 2986POPC   PO439552  19.620  12.472   9.456
 2986POPC   GL139553  19.675  12.819   9.150
 2986POPC   GL239554  19.989  12.853   9.032
 2986POPC   C1A39555  19.483  13.046   8.802
 2986POPC   D2A39556  19.582  13.232   8.358
 2986POPC   C3A39557  19.528  12.932   8.031
 2986POPC   C4A39558  19.580  12.893   7.592
 2986POPC   C1B39559  19.924  12.934   8.612
 2986POPC   C2B39560  19.981  12.787   8.228
 2986POPC   C3B39561  19.993  12.977   7.841
 2986POPC   C4B39562  20.243  12.947   7.479
 2987POPC   NC339563   0.931   3.782   9.289
 2987POPC   PO439564   0.224   3.751   9.507
 2987POPC   GL139565   0.443   3.692   9.132
 2987POPC   GL239566   0.370   3.321   9.066
 2987POPC   C1A39567   0.553   3.623   8.716
 2987POPC   D2A39568   0.530   3.301   8.460
 2987POPC   C3A39569   0.668   3.547   8.116
 2987POPC   C4A39570   0.554   3.769   7.740
 2987POPC   C1B39571   0.045   3.561   8.851
 2987POPC   C2B39572  44.876   3.548   8.453
 2987POPC   C3B39573   0.151   3.434   8.116
 2987POPC   C4B39574   0.152   3.440   7.688
 2988POPC   NC339575   6.934  14.906   9.477
 2988POPC   PO439576   6.471  15.372   9.602
 2988POPC   GL139577   6.464  15.269   9.189
 2988POPC   GL239578   6.476  14.911   9.110
 2988POPC   C1A39579   6.702  15.318   8.817
 2988POPC   D2A39580   6.835  15.146   8.421
 2988POPC   C3A39581   6.721  15.453   8.108
 2988POPC   C4A39582   6.534  15.383   7.690
 2988POPC   C1B39583   6.575  14.646   8.754
 2988POPC   C2B39584   6.522  14.709   8.314
 2988POPC   C3B39585   6.515  14.987   8.017
 2988POPC   C4B39586   6.893  15.061   7.837
 2989POPC   NC339587  22.902  16.430   9.556
 2989POPC   PO439588  22.989  17.094   9.432
 2989POPC   GL139589  23.022  16.819   9.132
 2989POPC   GL239590  22.723  16.607   9.100
 2989POPC   C1A39591  22.966  16.960   8.733
 2989POPC   D2A39592  23.070  16.749   8.405
 2989POPC   C3A39593  22.829  16.846   8.103
 2989POPC   C4A39594  22.664  17.052   7.760
 2989POPC   C1B39595  23.004  16.414   8.797
 2989POPC   C2B39596  23.026  16.119   8.456
 2989POPC   C3B39597  23.049  16.368   8.075
 2989POPC   C4B39598  22.879  16.568   7.690
 2990POPC   NC339599  31.561  14.490   9.569
 2990POPC   PO439600  31.079  14.076   9.623
 2990POPC   GL139601  31.252  14.259   9.227
 2990POPC   GL239602  31.605  14.122   9.196
 2990POPC   C1A39603  31.160  14.546   8.857
 2990POPC   D2A39604  31.389  14.773   8.508
 2990POPC   C3A39605  31.451  14.486   8.155
 2990POPC   C4A39606  31.194  14.102   8.090
 2990POPC   C1B39607  31.724  13.914   8.810
 2990POPC   C2B39608  31.641  13.973   8.358
 2990POPC   C3B39609  31.617  13.889   7.927
 2990POPC   C4B39610  31.510  14.243   7.695
 2991POPC   NC339611  13.465  36.567   9.900
 2991POPC   PO439612  13.300  35.962   9.581
 2991POPC   GL139613  13.590  36.114   9.208
 2991POPC   GL239614  13.917  35.966   9.087
 2991POPC   C1A39615  13.693  36.324   8.788
 2991POPC   D2A39616  13.562  36.439   8.343
 2991POPC   C3A39617  13.715  36.276   7.926
 2991POPC   C4A39618  13.915  36.375   7.515
 2991POPC   C1B39619  13.812  35.851   8.690
 2991POPC   C2B39620  13.645  35.928   8.323
 2991POPC   C3B39621  13.426  35.852   7.998
 2991POPC   C4B39622  13.372  35.969   7.625
 2992POPC   NC339623  21.617  27.813   9.493
 2992POPC   PO439624  22.242  27.373   9.635
 2992POPC   GL139625  22.081  27.611   9.285
 2992POPC   GL239626  22.269  27.930   9.235
 2992POPC   C1A39627  21.924  27.764   8.877
 2992POPC   D2A39628  21.968  27.593   8.471
 2992POPC   C3A39629  21.970  27.863   8.121
 2992POPC   C4A39630  21.941  27.632   7.717
 2992POPC   C1B39631  22.456  27.648   8.894
 2992POPC   C2B39632  22.457  27.731   8.432
 2992POPC   C3B39633  22.383  27.613   8.009
 2992POPC   C4B39634  22.406  27.718   7.530
 2993POPC   NC339635  10.860  42.835   9.677
 2993POPC   PO439636  11.327  43.372   9.613
 2993POPC   GL139637  11.206  43.018   9.334
 2993POPC   GL239638  11.494  43.040   9.207
 2993POPC   C1A39639  11.106  42.970   8.874
 2993POPC   D2A39640  11.229  42.873   8.466
 2993POPC   C3A39641  11.202  43.218   8.198
 2993POPC   C4A39642  11.142  43.138   7.779
 2993POPC   C1B39643  11.634  42.982   8.816
 2993POPC   C2B39644  11.712  43.106   8.413
 2993POPC   C3B39645  11.614  42.965   8.014
 2993POPC   C4B39646  11.554  42.956   7.557
 2994POPC   NC339647  13.145  41.677   9.700
 2994POPC   PO439648  13.862  41.539   9.475
 2994POPC   GL139649  13.506  41.610   9.172
 2994POPC   GL239650  13.493  41.291   8.963
 2994POPC   C1A39651  13.506  41.820   8.793
 2994POPC   D2A39652  13.840  41.991   8.584
 2994POPC   C3A39653  13.754  41.915   8.147
 2994POPC   C4A39654  13.359  41.724   7.935
 2994POPC   C1B39655  13.835  41.420   8.711
 2994POPC   C2B39656  13.979  41.277   8.320
 2994POPC   C3B39657  13.780  41.423   7.965
 2994POPC   C4B39658  13.821  41.747   7.656
 2995POPC   NC339659   5.932  16.490   9.480
 2995POPC   PO439660   5.704  17.107   9.559
 2995POPC   GL139661   5.825  16.876   9.166
 2995POPC   GL239662   5.559  16.630   9.108
 2995POPC   C1A39663   6.017  16.646   8.806
 2995POPC   D2A39664   6.051  16.729   8.369
 2995POPC   C3A39665   5.692  16.850   8.131
 2995POPC   C4A39666   5.804  16.604   7.803
 2995POPC   C1B39667   5.526  16.679   8.643
 2995POPC   C2B39668   5.394  16.428   8.272
 2995POPC   C3B39669   5.394  16.292   7.847
 2995POPC   C4B39670   5.525  16.481   7.407
 2996POPC   NC339671  21.962  33.264   9.563
 2996POPC   PO439672  22.477  32.837   9.491
 2996POPC   GL139673  22.263  33.145   9.166
 2996POPC   GL239674  21.879  33.236   9.085
 2996POPC   C1A39675  22.385  33.111   8.750
 2996POPC   D2A39676  22.406  32.892   8.374
 2996POPC   C3A39677  22.407  33.199   8.050
 2996POPC   C4A39678  22.082  33.275   7.762
 2996POPC   C1B39679  21.865  33.084   8.713
 2996POPC   C2B39680  21.968  33.181   8.307
 2996POPC   C3B39681  21.806  32.921   7.991
 2996POPC   C4B39682  21.877  32.683   7.624
 2997POPC   NC339683  43.997   3.352   9.617
 2997POPC   PO439684  44.061   3.976   9.419
 2997POPC   GL139685  43.898   3.608   9.181
 2997POPC   GL239686  44.128   3.284   9.129
 2997POPC   C1A39687  43.701   3.650   8.783
 2997POPC   D2A39688  43.837   3.917   8.427
 2997POPC   C3A39689  43.639   3.776   8.035
 2997POPC   C4A39690  43.711   3.375   7.847
 2997POPC   C1B39691  44.040   3.252   8.710
 2997POPC   C2B39692  43.971   3.181   8.255
 2997POPC   C3B39693  44.155   3.119   7.839
 2997POPC   C4B39694  44.188   3.024   7.393
 2998POPC   NC339695  10.530  27.966   9.458
 2998POPC   PO439696  10.673  28.676   9.412
 2998POPC   GL139697  10.452  28.514   9.102
 2998POPC   GL239698  10.357  28.194   9.050
 2998POPC   C1A39699  10.625  28.607   8.725
 2998POPC   D2A39700  10.481  28.532   8.350
 2998POPC   C3A39701  10.697  28.557   7.999
 2998POPC   C4A39702  10.654  28.333   7.626
 2998POPC   C1B39703  10.141  28.321   8.675
 2998POPC   C2B39704  10.205  28.119   8.254
 2998POPC   C3B39705  10.189  28.233   7.808
 2998POPC   C4B39706  10.209  28.021   7.380
 2999POPC   NC339707  13.668  15.471   9.709
 2999POPC   PO439708  13.888  14.873   9.422
 2999POPC   GL139709  13.743  15.258   9.227
 2999POPC   GL239710  13.504  15.127   8.995
 2999POPC   C1A39711  13.770  15.492   8.814
 2999POPC   D2A39712  13.567  15.229   8.479
 2999POPC   C3A39713  13.689  15.276   8.060
 2999POPC   C4A39714  14.093  15.403   7.872
 2999POPC   C1B39715  13.427  14.808   8.711
 2999POPC   C2B39716  13.210  14.881   8.327
 2999POPC   C3B39717  13.220  14.885   7.879
 2999POPC   C4B39718  13.269  15.244   7.601
 3000POPC   NC339719  38.353  25.670   9.565
 3000POPC   PO439720  38.566  25.011   9.680
 3000POPC   GL139721  38.467  25.186   9.265
 3000POPC   GL239722  38.108  25.214   9.160
 3000POPC   C1A39723  38.478  25.037   8.828
 3000POPC   D2A39724  38.179  25.130   8.475
 3000POPC   C3A39725  38.378  25.144   8.074
 3000POPC   C4A39726  38.262  25.351   7.721
 3000POPC   C1B39727  38.276  25.499   8.842
 3000POPC   C2B39728  38.555  25.468   8.470
 3000POPC   C3B39729  38.544  25.638   8.065
 3000POPC   C4B39730  38.636  25.677   7.656
 3001POPC   NC339731  30.918  37.337   9.296
 3001POPC   PO439732  31.449  37.680   9.534
 3001POPC   GL139733  31.540  37.692   9.099
 3001POPC   GL239734  31.725  37.368   9.055
 3001POPC   C1A39735  31.419  37.578   8.675
 3001POPC   D2A39736  31.627  37.614   8.281
 3001POPC   C3A39737  31.384  37.778   7.938
 3001POPC   C4A39738  31.543  37.800   7.540
 3001POPC   C1B39739  31.755  37.181   8.607
 3001POPC   C2B39740  31.870  37.149   8.150
 3001POPC   C3B39741  31.672  37.371   7.798
 3001POPC   C4B39742  31.617  37.332   7.349
 3002POPC   NC339743  28.125  25.407   9.427
 3002POPC   PO439744  28.615  25.060   9.664
 3002POPC   GL139745  28.561  25.141   9.207
 3002POPC   GL239746  28.271  25.284   8.982
 3002POPC   C1A39747  28.712  25.281   8.779
 3002POPC   D2A39748  28.468  25.576   8.514
 3002POPC   C3A39749  28.501  25.503   8.080
 3002POPC   C4A39750  28.559  25.127   7.830
 3002POPC   C1B39751  27.960  25.451   8.718
 3002POPC   C2B39752  28.008  25.368   8.304
 3002POPC   C3B39753  28.062  25.382   7.861
 3002POPC   C4B39754  27.898  25.434   7.459
 3003POPC   NC339755  38.862  19.557   9.497
 3003POPC   PO439756  38.235  19.910   9.499
 3003POPC   GL139757  38.461  19.760   9.157
 3003POPC   GL239758  38.781  19.881   9.096
 3003POPC   C1A39759  38.441  19.809   8.718
 3003POPC   D2A39760  38.573  19.726   8.306
 3003POPC   C3A39761  38.310  19.873   8.001
 3003POPC   C4A39762  38.040  20.079   7.737
 3003POPC   C1B39763  38.942  19.725   8.683
 3003POPC   C2B39764  39.032  19.892   8.253
 3003POPC   C3B39765  38.783  19.905   7.824
 3003POPC   C4B39766  38.873  19.798   7.380
 3004POPC   NC339767   7.231   0.953   9.558
 3004POPC   PO439768   7.763   1.425   9.489
 3004POPC   GL139769   7.554   1.426   9.106
 3004POPC   GL239770   7.225   1.261   9.138
 3004POPC   C1A39771   7.587   1.303   8.711
 3004POPC   D2A39772   7.352   1.320   8.327
 3004POPC   C3A39773   7.542   1.342   7.939
 3004POPC   C4A39774   7.486   1.024   7.664
 3004POPC   C1B39775   7.087   1.433   8.768
 3004POPC   C2B39776   6.901   1.564   8.372
 3004POPC   C3B39777   7.035   1.508   7.947
 3004POPC   C4B39778   7.196   1.569   7.536
 3005POPC   NC339779  10.924  18.581   9.406
 3005POPC   PO439780  11.564  18.392   9.237
 3005POPC   GL139781  11.419  18.101   8.965
 3005POPC   GL239782  11.112  18.281   9.022
 3005POPC   C1A39783  11.251  18.140   8.546
 3005POPC   D2A39784  11.217  18.534   8.349
 3005POPC   C3A39785  11.424  18.488   7.994
 3005POPC   C4A39786  11.494  18.101   7.811
 3005POPC   C1B39787  10.850  18.432   8.721
 3005POPC   C2B39788  10.759  18.233   8.347
 3005POPC   C3B39789  11.022  18.178   8.025
 3005POPC   C4B39790  11.054  18.326   7.588
 3006POPC   NC339791  27.100  11.080   9.584
 3006POPC   PO439792  27.519  11.613   9.490
 3006POPC   GL139793  27.673  11.355   9.178
 3006POPC   GL239794  27.526  11.025   9.283
 3006POPC   C1A39795  27.624  11.493   8.741
 3006POPC   D2A39796  27.488  11.634   8.301
 3006POPC   C3A39797  27.652  11.305   8.073
 3006POPC   C4A39798  27.982  11.141   7.771
 3006POPC   C1B39799  27.391  11.048   8.851
 3006POPC   C2B39800  27.442  10.821   8.480
 3006POPC   C3B39801  27.401  10.880   8.027
 3006POPC   C4B39802  27.470  11.153   7.638
 3007POPC   NC339803   5.016  38.455   9.584
 3007POPC   PO439804   5.532  38.145   9.400
 3007POPC   GL139805   5.202  38.323   9.129
 3007POPC   GL239806   4.818  38.326   9.139
 3007POPC   C1A39807   5.087  38.300   8.715
 3007POPC   D2A39808   5.159  38.532   8.418
 3007POPC   C3A39809   5.041  38.334   8.097
 3007POPC   C4A39810   5.265  38.412   7.768
 3007POPC   C1B39811   4.724  38.644   8.782
 3007POPC   C2B39812   4.637  38.573   8.372
 3007POPC   C3B39813   4.738  38.732   7.979
 3007POPC   C4B39814   4.733  39.151   7.853
 3008POPC   NC339815  39.653  42.304   9.539
 3008POPC   PO439816  38.915  42.486   9.538
 3008POPC   GL139817  39.215  42.536   9.193
 3008POPC   GL239818  39.345  42.213   9.151
 3008POPC   C1A39819  39.148  42.463   8.753
 3008POPC   D2A39820  38.879  42.325   8.427
 3008POPC   C3A39821  39.051  42.448   8.040
 3008POPC   C4A39822  38.913  42.443   7.642
 3008POPC   C1B39823  39.521  42.086   8.767
 3008POPC   C2B39824  39.380  42.154   8.354
 3008POPC   C3B39825  39.400  42.078   7.919
 3008POPC   C4B39826  39.424  42.383   7.606
 3009POPC   NC339827   4.762  20.547   9.653
 3009POPC   PO439828   5.268  20.283   9.408
 3009POPC   GL139829   5.047  20.589   9.153
 3009POPC   GL239830   4.821  20.365   9.000
 3009POPC   C1A39831   4.933  20.742   8.705
 3009POPC   D2A39832   5.090  20.582   8.291
 3009POPC   C3A39833   5.015  20.743   7.859
 3009POPC   C4A39834   5.150  20.800   7.408
 3009POPC   C1B39835   5.232  20.285   8.746
 3009POPC   C2B39836   5.466  20.184   8.368
 3009POPC   C3B39837   5.249  20.150   7.986
 3009POPC   C4B39838   5.204  20.329   7.600
 3010POPC   NC339839   4.129  37.400   9.520
 3010POPC   PO439840   4.606  37.866   9.557
 3010POPC   GL139841   4.333  37.840   9.144
 3010POPC   GL239842   4.130  37.518   9.045
 3010POPC   C1A39843   4.279  37.796   8.671
 3010POPC   D2A39844   4.123  37.549   8.350
 3010POPC   C3A39845   4.266  37.824   8.051
 3010POPC   C4A39846   4.483  37.846   7.676
 3010POPC   C1B39847   4.573  37.437   8.896
 3010POPC   C2B39848   4.662  37.542   8.455
 3010POPC   C3B39849   4.511  37.382   8.039
 3010POPC   C4B39850   4.123  37.389   7.824
 3011POPC   NC339851  25.433   1.686   9.654
 3011POPC   PO439852  24.903   2.122   9.468
 3011POPC   GL139853  24.933   1.754   9.217
 3011POPC   GL239854  25.286   1.694   9.101
 3011POPC   C1A39855  24.912   1.863   8.788
 3011POPC   D2A39856  25.181   2.017   8.472
 3011POPC   C3A39857  25.011   1.855   8.113
 3011POPC   C4A39858  25.066   2.005   7.712
 3011POPC   C1B39859  25.571   1.758   8.716
 3011POPC   C2B39860  25.675   1.684   8.280
 3011POPC   C3B39861  25.500   1.893   7.925
 3011POPC   C4B39862  25.495   1.876   7.448
 3012POPC   NC339863  42.657  32.565   9.680
 3012POPC   PO439864  42.112  32.813   9.495
 3012POPC   GL139865  42.050  33.104   9.163
 3012POPC   GL239866  42.207  32.826   8.977
 3012POPC   C1A39867  42.248  33.367   8.832
 3012POPC   D2A39868  42.436  33.190   8.483
 3012POPC   C3A39869  42.187  33.302   8.158
 3012POPC   C4A39870  42.322  33.399   7.756
 3012POPC   C1B39871  41.943  32.616   8.682
 3012POPC   C2B39872  41.938  32.876   8.335
 3012POPC   C3B39873  42.092  32.873   7.901
 3012POPC   C4B39874  42.062  32.713   7.478
 3013POPC   NC339875  13.612  20.313   9.537
 3013POPC   PO439876  13.919  20.906   9.208
 3013POPC   GL139877  13.633  20.632   9.132
 3013POPC   GL239878  13.304  20.727   9.137
 3013POPC   C1A39879  13.639  20.326   8.857
 3013POPC   D2A39880  13.478  20.206   8.467
 3013POPC   C3A39881  13.843  20.242   8.183
 3013POPC   C4A39882  14.027  20.277   7.783
 3013POPC   C1B39883  13.344  20.704   8.677
 3013POPC   C2B39884  13.518  20.651   8.243
 3013POPC   C3B39885  13.631  20.636   7.801
 3013POPC   C4B39886  13.525  20.849   7.399
 3014POPC   NC339887  24.535  23.851   9.469
 3014POPC   PO439888  24.315  23.325   9.746
 3014POPC   GL139889  24.426  23.398   9.245
 3014POPC   GL239890  24.777  23.542   9.159
 3014POPC   C1A39891  24.362  23.637   8.829
 3014POPC   D2A39892  24.197  23.473   8.439
 3014POPC   C3A39893  24.257  23.695   8.051
 3014POPC   C4A39894  24.320  23.616   7.592
 3014POPC   C1B39895  24.882  23.797   8.795
 3014POPC   C2B39896  24.688  23.746   8.386
 3014POPC   C3B39897  24.754  23.867   7.945
 3014POPC   C4B39898  24.700  23.959   7.497
 3015POPC   NC339899  23.879  28.158   9.192
 3015POPC   PO439900  23.656  28.620   9.723
 3015POPC   GL139901  23.568  28.557   9.206
 3015POPC   GL239902  23.328  28.787   9.168
 3015POPC   C1A39903  23.766  28.525   8.723
 3015POPC   D2A39904  23.950  28.126   8.479
 3015POPC   C3A39905  23.801  28.109   8.026
 3015POPC   C4A39906  23.748  28.380   7.658
 3015POPC   C1B39907  23.326  28.829   8.750
 3015POPC   C2B39908  23.529  28.793   8.377
 3015POPC   C3B39909  23.487  28.610   8.014
 3015POPC   C4B39910  23.249  28.504   7.663
 3016POPC   NC339911   7.702  16.197   9.390
 3016POPC   PO439912   7.041  16.141   9.485
 3016POPC   GL139913   7.242  16.162   9.139
 3016POPC   GL239914   7.405  15.858   9.120
 3016POPC   C1A39915   7.441  16.212   8.765
 3016POPC   D2A39916   7.295  16.075   8.414
 3016POPC   C3A39917   7.480  16.159   8.047
 3016POPC   C4A39918   7.171  16.251   7.752
 3016POPC   C1B39919   7.535  15.705   8.714
 3016POPC   C2B39920   7.782  15.859   8.363
 3016POPC   C3B39921   7.659  15.681   7.974
 3016POPC   C4B39922   7.427  15.801   7.624
 3017POPC   NC339923  32.393  38.692   9.982
 3017POPC   PO439924  32.077  38.380   9.472
 3017POPC   GL139925  32.264  38.642   9.168
 3017POPC   GL239926  32.490  38.913   9.287
 3017POPC   C1A39927  32.107  38.750   8.787
 3017POPC   D2A39928  31.852  38.516   8.488
 3017POPC   C3A39929  32.120  38.506   8.134
 3017POPC   C4A39930  32.055  38.744   7.766
 3017POPC   C1B39931  32.644  38.831   8.862
 3017POPC   C2B39932  32.499  38.762   8.444
 3017POPC   C3B39933  32.542  38.879   8.036
 3017POPC   C4B39934  32.536  38.679   7.671
 3018POPC   NC339935  30.442  43.211   9.667
 3018POPC   PO439936  30.786  42.616   9.625
 3018POPC   GL139937  30.690  42.955   9.289
 3018POPC   GL239938  30.960  43.179   9.089
 3018POPC   C1A39939  30.478  43.195   8.951
 3018POPC   D2A39940  30.623  43.172   8.523
 3018POPC   C3A39941  30.436  42.951   8.151
 3018POPC   C4A39942  30.376  43.119   7.743
 3018POPC   C1B39943  30.981  43.497   8.763
 3018POPC   C2B39944  30.875  43.562   8.322
 3018POPC   C3B39945  30.856  43.228   8.027
 3018POPC   C4B39946  31.070  43.166   7.643
 3019POPC   NC339947  16.820   5.396   9.925
 3019POPC   PO439948  17.069   4.751   9.705
 3019POPC   GL139949  16.778   5.133   9.474
 3019POPC   GL239950  16.411   5.003   9.294
 3019POPC   C1A39951  16.752   5.242   9.028
 3019POPC   D2A39952  16.654   5.077   8.595
 3019POPC   C3A39953  16.877   5.234   8.231
 3019POPC   C4A39954  16.716   5.276   7.800
 3019POPC   C1B39955  16.495   4.680   8.896
 3019POPC   C2B39956  16.588   4.548   8.462
 3019POPC   C3B39957  16.687   4.787   8.103
 3019POPC   C4B39958  16.864   4.820   7.697
 3020POPC   NC339959  18.161  12.297   9.569
 3020POPC   PO439960  18.688  11.982   9.337
 3020POPC   GL139961  18.306  12.038   9.126
 3020POPC   GL239962  17.967  11.883   9.220
 3020POPC   C1A39963  18.282  11.919   8.705
 3020POPC   D2A39964  18.411  11.903   8.274
 3020POPC   C3A39965  18.539  12.211   8.019
 3020POPC   C4A39966  18.277  12.048   7.728
 3020POPC   C1B39967  17.864  12.155   8.876
 3020POPC   C2B39968  18.027  12.303   8.460
 3020POPC   C3B39969  17.915  12.170   8.052
 3020POPC   C4B39970  17.872  12.324   7.613
 3021POPC   NC339971  44.018  26.699   9.751
 3021POPC   PO439972  43.413  26.777   9.757
 3021POPC   GL139973  43.828  26.874   9.313
 3021POPC   GL239974  44.105  26.623   9.257
 3021POPC   C1A39975  43.673  27.023   8.830
 3021POPC   D2A39976  43.619  27.136   8.389
 3021POPC   C3A39977  43.771  26.791   8.163
 3021POPC   C4A39978  43.672  26.792   7.764
 3021POPC   C1B39979  44.098  26.768   8.853
 3021POPC   C2B39980  44.107  27.158   8.563
 3021POPC   C3B39981  44.111  27.192   8.123
 3021POPC   C4B39982  44.196  26.835   7.841
 3022POPC   NC339983   4.206  40.759   9.543
 3022POPC   PO439984   4.800  40.858   9.684
 3022POPC   GL139985   4.603  40.640   9.221
 3022POPC   GL239986   4.227  40.512   9.129
 3022POPC   C1A39987   4.454  40.789   8.780
 3022POPC   D2A39988   4.428  41.040   8.422
 3022POPC   C3A39989   4.489  40.863   8.017
 3022POPC   C4A39990   4.329  41.019   7.634
 3022POPC   C1B39991   3.934  40.597   8.790
 3022POPC   C2B39992   4.019  40.590   8.346
 3022POPC   C3B39993   3.978  40.851   7.988
 3022POPC   C4B39994   3.833  40.727   7.561
 3023POPC   NC339995  15.007  10.953   9.504
 3023POPC   PO439996  15.172  10.303   9.606
 3023POPC   GL139997  15.041  10.378   9.229
 3023POPC   GL239998  14.707  10.535   9.243
 3023POPC   C1A39999  15.123  10.242   8.827
 3023POPC   D2A40000  14.922  10.320   8.471
 3023POPC   C3A40001  15.217  10.341   8.157
 3023POPC   C4A40002  14.921  10.411   7.845
 3023POPC   C1B40003  14.929  10.742   8.874
 3023POPC   C2B40004  15.233  10.711   8.546
 3023POPC   C3B40005  15.039  10.811   8.166
 3023POPC   C4B40006  15.118  10.865   7.758
 3024POPC   NC340007   6.612   0.688   9.628
 3024POPC   PO440008   6.948   1.342   9.567
 3024POPC   GL140009   6.650   1.360   9.219
 3024POPC   GL240010   6.427   1.039   9.214
 3024POPC   C1A40011   6.571   1.479   8.789
 3024POPC   D2A40012   6.422   1.355   8.388
 3024POPC   C3A40013   6.654   1.174   8.080
 3024POPC   C4A40014   6.569   1.440   7.745
 3024POPC   C1B40015   6.753   1.002   8.881
 3024POPC   C2B40016   6.971   1.004   8.478
 3024POPC   C3B40017   7.107   0.900   8.051
 3024POPC   C4B40018   6.966   1.094   7.669
 3025POPC   NC340019  39.420  37.314   9.394
 3025POPC   PO440020  39.151  36.695   9.499
 3025POPC   GL140021  39.187  36.899   9.122
 3025POPC   GL240022  38.935  36.670   8.952
 3025POPC   C1A40023  39.454  36.934   8.757
 3025POPC   D2A40024  39.548  36.767   8.348
 3025POPC   C3A40025  39.674  37.002   7.978
 3025POPC   C4A40026  39.423  37.012   7.674
 3025POPC   C1B40027  38.868  37.074   8.775
 3025POPC   C2B40028  39.055  37.105   8.385
 3025POPC   C3B40029  38.979  37.018   7.958
 3025POPC   C4B40030  38.693  37.055   7.641
 3026POPC   NC340031  22.195  23.336   9.502
 3026POPC   PO440032  22.125  23.986   9.315
 3026POPC   GL140033  22.083  23.657   9.025
 3026POPC   GL240034  21.870  23.391   9.109
 3026POPC   C1A40035  22.206  23.675   8.594
 3026POPC   D2A40036  22.368  23.524   8.227
 3026POPC   C3A40037  22.233  23.798   7.906
 3026POPC   C4A40038  22.404  24.191   7.793
 3026POPC   C1B40039  21.741  23.428   8.654
 3026POPC   C2B40040  21.785  23.504   8.155
 3026POPC   C3B40041  22.072  23.311   7.828
 3026POPC   C4B40042  22.495  23.350   7.775
 3027POPC   NC340043   7.426  25.742   9.851
 3027POPC   PO440044   7.326  26.014   9.280
 3027POPC   GL140045   7.597  26.055   8.947
 3027POPC   GL240046   7.321  26.015   8.753
 3027POPC   C1A40047   7.708  25.784   8.552
 3027POPC   D2A40048   7.456  25.802   8.208
 3027POPC   C3A40049   7.679  25.798   7.829
 3027POPC   C4A40050   7.846  26.014   7.498
 3027POPC   C1B40051   7.247  26.447   8.752
 3027POPC   C2B40052   7.096  26.507   8.381
 3027POPC   C3B40053   7.315  26.381   8.029
 3027POPC   C4B40054   7.175  26.020   7.829
 3028POPC   NC340055  28.021  42.558   9.510
 3028POPC   PO440056  28.642  42.649   9.358
 3028POPC   GL140057  28.306  42.530   9.054
 3028POPC   GL240058  28.089  42.791   9.059
 3028POPC   C1A40059  28.186  42.341   8.621
 3028POPC   D2A40060  27.992  42.003   8.324
 3028POPC   C3A40061  28.163  41.936   7.884
 3028POPC   C4A40062  28.359  42.155   7.547
 3028POPC   C1B40063  28.261  42.850   8.639
 3028POPC   C2B40064  28.580  42.640   8.378
 3028POPC   C3B40065  28.511  42.529   7.948
 3028POPC   C4B40066  28.142  42.694   7.768
 3029POPC   NC340067  33.377  22.181   9.712
 3029POPC   PO440068  33.964  21.986   9.529
 3029POPC   GL140069  33.703  22.255   9.289
 3029POPC   GL240070  33.431  22.061   9.226
 3029POPC   C1A40071  33.797  22.358   8.862
 3029POPC   D2A40072  34.061  22.435   8.481
 3029POPC   C3A40073  33.942  22.170   8.143
 3029POPC   C4A40074  33.943  22.250   7.729
 3029POPC   C1B40075  33.518  21.930   8.870
 3029POPC   C2B40076  33.559  21.921   8.443
 3029POPC   C3B40077  33.491  21.956   8.012
 3029POPC   C4B40078  33.575  21.859   7.601
 3030POPC   NC340079  13.313  11.136   9.401
 3030POPC   PO440080  12.706  11.073   9.549
 3030POPC   GL140081  12.753  11.229   9.133
 3030POPC   GL240082  13.040  11.390   9.064
 3030POPC   C1A40083  12.657  11.369   8.698
 3030POPC   D2A40084  12.708  11.645   8.319
 3030POPC   C3A40085  12.760  11.419   7.939
 3030POPC   C4A40086  12.634  11.032   7.799
 3030POPC   C1B40087  13.109  11.118   8.735
 3030POPC   C2B40088  13.099  11.315   8.367
 3030POPC   C3B40089  13.259  11.325   7.977
 3030POPC   C4B40090  13.243  11.473   7.577
 3031POPC   NC340091   6.564  44.282   9.551
 3031POPC   PO440092   6.693  43.626   9.531
 3031POPC   GL140093   6.690  43.865   9.213
 3031POPC   GL240094   6.365  43.952   9.190
 3031POPC   C1A40095   6.750  43.863   8.785
 3031POPC   D2A40096   6.578  44.065   8.428
 3031POPC   C3A40097   6.777  43.850   8.114
 3031POPC   C4A40098   6.928  43.937   7.715
 3031POPC   C1B40099   6.351  43.550   8.950
 3031POPC   C2B40100   6.392  43.514   8.512
 3031POPC   C3B40101   6.275  43.732   8.162
 3031POPC   C4B40102   6.421  43.920   7.777
 3032POPC   NC340103  32.787  29.333   9.467
 3032POPC   PO440104  33.366  28.985   9.490
 3032POPC   GL140105  33.200  29.090   9.106
 3032POPC   GL240106  33.093  29.443   9.074
 3032POPC   C1A40107  33.259  29.184   8.665
 3032POPC   D2A40108  32.928  29.151   8.369
 3032POPC   C3A40109  33.029  29.218   7.932
 3032POPC   C4A40110  32.754  29.116   7.593
 3032POPC   C1B40111  32.898  29.632   8.679
 3032POPC   C2B40112  32.602  29.583   8.312
 3032POPC   C3B40113  32.630  29.551   7.856
 3032POPC   C4B40114  32.955  29.606   7.559
 3033POPC   NC340115  24.785  36.489   9.369
 3033POPC   PO440116  24.622  37.113   9.580
 3033POPC   GL140117  24.482  36.957   9.205
 3033POPC   GL240118  24.412  36.668   9.046
 3033POPC   C1A40119  24.298  37.132   8.841
 3033POPC   D2A40120  24.209  37.066   8.448
 3033POPC   C3A40121  24.350  37.196   8.069
 3033POPC   C4A40122  24.440  37.294   7.672
 3033POPC   C1B40123  24.437  36.636   8.636
 3033POPC   C2B40124  24.580  36.754   8.250
 3033POPC   C3B40125  24.462  36.770   7.825
 3033POPC   C4B40126  24.736  36.817   7.525
 3034POPC   NC340127  14.608  30.533   9.363
 3034POPC   PO440128  14.662  29.872   9.679
 3034POPC   GL140129  14.560  30.044   9.291
 3034POPC   GL240130  14.354  29.787   9.237
 3034POPC   C1A40131  14.715  30.040   8.841
 3034POPC   D2A40132  14.578  29.767   8.471
 3034POPC   C3A40133  14.649  29.919   8.045
 3034POPC   C4A40134  14.598  29.886   7.580
 3034POPC   C1B40135  14.238  29.919   8.865
 3034POPC   C2B40136  14.046  29.860   8.524
 3034POPC   C3B40137  14.134  29.861   8.127
 3034POPC   C4B40138  14.116  29.965   7.713
 3035POPC   NC340139   0.415  11.617   9.456
 3035POPC   PO440140   0.684  12.246   9.366
 3035POPC   GL140141   0.340  12.093   9.122
 3035POPC   GL240142   0.337  11.788   8.978
 3035POPC   C1A40143   0.108  12.275   8.806
 3035POPC   D2A40144   0.297  12.069   8.490
 3035POPC   C3A40145   0.134  12.120   8.118
 3035POPC   C4A40146   0.274  12.231   7.755
 3035POPC   C1B40147   0.695  11.771   8.702
 3035POPC   C2B40148   0.782  11.990   8.294
 3035POPC   C3B40149   0.598  11.876   7.895
 3035POPC   C4B40150   0.200  11.739   7.766
 3036POPC   NC340151  43.151   5.545   9.581
 3036POPC   PO440152  43.245   6.181   9.695
 3036POPC   GL140153  43.355   6.044   9.285
 3036POPC   GL240154  43.012   6.082   9.157
 3036POPC   C1A40155  43.462   6.158   8.851
 3036POPC   D2A40156  43.546   5.996   8.428
 3036POPC   C3A40157  43.218   5.869   8.130
 3036POPC   C4A40158  43.271   5.642   7.717
 3036POPC   C1B40159  43.042   5.899   8.732
 3036POPC   C2B40160  42.953   5.540   8.468
 3036POPC   C3B40161  42.841   5.516   8.035
 3036POPC   C4B40162  42.816   5.843   7.700
 3037POPC   NC340163  22.067  34.189   9.478
 3037POPC   PO440164  22.426  33.602   9.496
 3037POPC   GL140165  22.121  33.708   9.204
 3037POPC   GL240166  22.184  34.028   9.006
 3037POPC   C1A40167  22.141  33.565   8.797
 3037POPC   D2A40168  22.402  33.707   8.482
 3037POPC   C3A40169  22.170  33.649   8.116
 3037POPC   C4A40170  22.317  33.735   7.705
 3037POPC   C1B40171  21.901  34.008   8.654
 3037POPC   C2B40172  21.722  33.930   8.253
 3037POPC   C3B40173  21.899  33.999   7.855
 3037POPC   C4B40174  21.935  34.055   7.414
 3038POPC   NC340175  37.690  18.367   9.542
 3038POPC   PO440176  37.096  17.892   9.506
 3038POPC   GL140177  37.366  18.057   9.147
 3038POPC   GL240178  37.760  18.127   9.100
 3038POPC   C1A40179  37.391  18.185   8.737
 3038POPC   D2A40180  37.357  18.366   8.323
 3038POPC   C3A40181  37.635  18.318   7.969
 3038POPC   C4A40182  37.563  18.174   7.539
 3038POPC   C1B40183  37.774  18.486   8.855
 3038POPC   C2B40184  37.835  18.542   8.424
 3038POPC   C3B40185  38.101  18.315   8.157
 3038POPC   C4B40186  38.059  18.192   7.712
 3039POPC   NC340187  34.738  15.665   9.312
 3039POPC   PO440188  34.407  15.076   9.594
 3039POPC   GL140189  34.425  15.183   9.166
 3039POPC   GL240190  34.762  15.181   9.108
 3039POPC   C1A40191  34.232  15.105   8.755
 3039POPC   D2A40192  34.278  15.349   8.381
 3039POPC   C3A40193  34.244  15.275   7.924
 3039POPC   C4A40194  34.578  15.488   7.757
 3039POPC   C1B40195  34.709  14.911   8.765
 3039POPC   C2B40196  34.505  14.847   8.398
 3039POPC   C3B40197  34.682  15.127   8.132
 3039POPC   C4B40198  34.747  15.020   7.744
 3040POPC   NC340199  16.023  30.049   9.479
 3040POPC   PO440200  15.655  29.471   9.587
 3040POPC   GL140201  15.806  29.635   9.183
 3040POPC   GL240202  16.166  29.655   9.134
 3040POPC   C1A40203  15.764  29.948   8.834
 3040POPC   D2A40204  15.979  30.224   8.509
 3040POPC   C3A40205  15.698  30.274   8.129
 3040POPC   C4A40206  15.537  30.193   7.686
 3040POPC   C1B40207  16.213  29.756   8.699
 3040POPC   C2B40208  16.055  29.782   8.248
 3040POPC   C3B40209  16.216  29.720   7.810
 3040POPC   C4B40210  16.265  29.559   7.377
 3041POPC   NC340211  44.790  15.765   9.700
 3041POPC   PO440212   0.135  15.563   9.194
 3041POPC   GL140213  44.849  15.897   9.196
 3041POPC   GL240214  44.539  15.811   9.227
 3041POPC   C1A40215  44.832  16.151   8.835
 3041POPC   D2A40216  44.843  15.900   8.442
 3041POPC   C3A40217  44.950  16.072   8.045
 3041POPC   C4A40218  44.827  15.827   7.706
 3041POPC   C1B40219  44.562  15.527   8.833
 3041POPC   C2B40220  44.525  15.488   8.366
 3041POPC   C3B40221  44.430  15.820   8.040
 3041POPC   C4B40222  44.046  15.775   7.755
 3042POPC   NC340223   1.423  15.776   9.450
 3042POPC   PO440224   0.844  16.076   9.537
 3042POPC   GL140225   1.095  16.188   9.203
 3042POPC   GL240226   1.071  15.835   9.099
 3042POPC   C1A40227   1.235  16.202   8.764
 3042POPC   D2A40228   1.087  16.431   8.406
 3042POPC   C3A40229   1.102  16.260   7.970
 3042POPC   C4A40230   1.511  16.214   7.725
 3042POPC   C1B40231   1.011  15.611   8.739
 3042POPC   C2B40232   1.332  15.696   8.448
 3042POPC   C3B40233   1.326  15.829   8.028
 3042POPC   C4B40234   1.173  15.855   7.584
 3043POPC   NC340235   1.464  41.997   9.281
 3043POPC   PO440236   0.933  42.428   9.524
 3043POPC   GL140237   1.175  42.558   9.195
 3043POPC   GL240238   0.872  42.558   9.018
 3043POPC   C1A40239   1.389  42.492   8.784
 3043POPC   D2A40240   1.394  42.142   8.481
 3043POPC   C3A40241   1.406  42.319   8.066
 3043POPC   C4A40242   1.329  42.263   7.606
 3043POPC   C1B40243   0.740  42.289   8.716
 3043POPC   C2B40244   0.930  42.328   8.340
 3043POPC   C3B40245   0.916  42.305   7.938
 3043POPC   C4B40246   0.863  42.521   7.616
 3044POPC   NC340247   3.986  21.178   9.651
 3044POPC   PO440248   4.373  21.637   9.854
 3044POPC   GL140249   4.191  21.478   9.323
 3044POPC   GL240250   4.298  21.164   9.237
 3044POPC   C1A40251   4.176  21.599   8.873
 3044POPC   D2A40252   4.356  21.424   8.501
 3044POPC   C3A40253   4.270  21.600   8.090
 3044POPC   C4A40254   4.403  21.385   7.705
 3044POPC   C1B40255   4.354  21.013   8.829
 3044POPC   C2B40256   4.165  20.918   8.449
 3044POPC   C3B40257   4.283  21.033   8.068
 3044POPC   C4B40258   4.159  20.885   7.696
 3045POPC   NC340259  22.989   1.345   9.637
 3045POPC   PO440260  22.807   0.784   9.477
 3045POPC   GL140261  22.896   1.122   9.132
 3045POPC   GL240262  23.086   1.456   9.146
 3045POPC   C1A40263  22.925   1.141   8.653
 3045POPC   D2A40264  23.154   0.936   8.295
 3045POPC   C3A40265  22.993   0.955   7.841
 3045POPC   C4A40266  22.847   1.240   7.500
 3045POPC   C1B40267  23.344   1.430   8.775
 3045POPC   C2B40268  23.221   1.563   8.365
 3045POPC   C3B40269  22.991   1.488   7.990
 3045POPC   C4B40270  23.257   1.522   7.651
 3046POPC   NC340271  34.722   1.754   9.476
 3046POPC   PO440272  34.422   2.368   9.627
 3046POPC   GL140273  34.430   2.116   9.253
 3046POPC   GL240274  34.707   2.179   9.108
 3046POPC   C1A40275  34.426   1.809   8.881
 3046POPC   D2A40276  34.558   1.656   8.480
 3046POPC   C3A40277  34.505   1.808   8.064
 3046POPC   C4A40278  34.706   1.780   7.667
 3046POPC   C1B40279  34.749   2.179   8.696
 3046POPC   C2B40280  34.596   2.256   8.295
 3046POPC   C3B40281  34.833   2.205   7.900
 3046POPC   C4B40282  34.636   2.228   7.447
 3047POPC   NC340283  15.806  15.292   9.468
 3047POPC   PO440284  16.424  15.292   9.536
 3047POPC   GL140285  16.244  15.358   9.166
 3047POPC   GL240286  16.052  15.034   9.108
 3047POPC   C1A40287  16.056  15.446   8.803
 3047POPC   D2A40288  16.006  15.225   8.463
 3047POPC   C3A40289  16.110  15.491   8.116
 3047POPC   C4A40290  15.918  15.412   7.743
 3047POPC   C1B40291  15.969  14.778   8.737
 3047POPC   C2B40292  15.921  14.756   8.303
 3047POPC   C3B40293  16.008  14.913   7.922
 3047POPC   C4B40294  16.351  15.137   7.849
 3048POPC   NC340295  22.106  22.392   9.502
 3048POPC   PO440296  21.872  23.020   9.569
 3048POPC   GL140297  22.152  22.944   9.180
 3048POPC   GL240298  22.407  22.711   9.125
 3048POPC   C1A40299  22.254  23.187   8.810
 3048POPC   D2A40300  22.071  23.146   8.397
 3048POPC   C3A40301  22.220  22.844   8.141
 3048POPC   C4A40302  22.289  22.833   7.734
 3048POPC   C1B40303  22.229  22.699   8.662
 3048POPC   C2B40304  22.019  22.415   8.360
 3048POPC   C3B40305  21.901  22.495   7.906
 3048POPC   C4B40306  21.690  22.380   7.507
 3049POPC   NC340307   7.847  37.502   9.553
 3049POPC   PO440308   7.117  37.657   9.475
 3049POPC   GL140309   7.361  37.621   9.100
 3049POPC   GL240310   7.731  37.747   9.079
 3049POPC   C1A40311   7.197  37.436   8.725
 3049POPC   D2A40312   6.891  37.308   8.351
 3049POPC   C3A40313   6.999  37.449   7.937
 3049POPC   C4A40314   7.363  37.660   7.875
 3049POPC   C1B40315   7.719  37.441   8.759
 3049POPC   C2B40316   7.550  37.467   8.335
 3049POPC   C3B40317   7.785  37.371   7.963
 3049POPC   C4B40318   7.985  37.566   7.633
 3050POPC   NC340319  25.483   6.302   9.577
 3050POPC   PO440320  25.152   5.707   9.536
 3050POPC   GL140321  25.080   5.757   9.162
 3050POPC   GL240322  24.778   5.571   9.139
 3050POPC   C1A40323  25.263   5.985   8.815
 3050POPC   D2A40324  25.465   5.909   8.439
 3050POPC   C3A40325  25.411   6.096   8.040
 3050POPC   C4A40326  25.464   5.683   7.826
 3050POPC   C1B40327  24.768   5.836   8.782
 3050POPC   C2B40328  24.979   5.698   8.454
 3050POPC   C3B40329  24.994   5.800   8.050
 3050POPC   C4B40330  24.924   5.696   7.654
 3051POPC   NC340331   8.271  18.498   9.544
 3051POPC   PO440332   8.073  17.975   9.806
 3051POPC   GL140333   8.072  18.054   9.302
 3051POPC   GL240334   8.400  18.151   9.174
 3051POPC   C1A40335   8.064  18.124   8.806
 3051POPC   D2A40336   8.231  18.288   8.419
 3051POPC   C3A40337   8.241  18.138   8.035
 3051POPC   C4A40338   7.926  18.205   7.750
 3051POPC   C1B40339   8.571  18.363   8.792
 3051POPC   C2B40340   8.674  18.518   8.399
 3051POPC   C3B40341   8.629  18.460   7.972
 3051POPC   C4B40342   8.455  18.405   7.551
 3052POPC   NC340343   0.811   0.486   9.510
 3052POPC   PO440344   0.185   0.455   9.349
 3052POPC   GL140345   0.474   0.317   9.098
 3052POPC   GL240346   0.593   0.638   9.051
 3052POPC   C1A40347   0.509   0.310   8.654
 3052POPC   D2A40348   0.206   0.283   8.326
 3052POPC   C3A40349   0.440   0.423   8.012
 3052POPC   C4A40350   0.610   0.242   7.677
 3052POPC   C1B40351   0.786   0.773   8.676
 3052POPC   C2B40352   0.851   0.515   8.326
 3052POPC   C3B40353   1.022   0.520   7.952
 3052POPC   C4B40354   0.748   0.723   7.753
 3053POPC   NC340355  35.444  23.405   9.265
 3053POPC   PO440356  35.054  23.867   9.534
 3053POPC   GL140357  34.967  23.661   9.171
 3053POPC   GL240358  35.253  23.864   9.043
 3053POPC   C1A40359  35.024  23.519   8.743
 3053POPC   D2A40360  35.290  23.449   8.388
 3053POPC   C3A40361  35.119  23.516   7.952
 3053POPC   C4A40362  35.136  23.669   7.511
 3053POPC   C1B40363  35.499  23.888   8.668
 3053POPC   C2B40364  35.720  23.737   8.306
 3053POPC   C3B40365  35.556  23.779   7.883
 3053POPC   C4B40366  35.647  23.794   7.435
 3054POPC   NC340367   5.501   7.502   9.576
 3054POPC   PO440368   6.056   7.855   9.702
 3054POPC   GL140369   6.028   7.639   9.247
 3054POPC   GL240370   5.735   7.479   9.127
 3054POPC   C1A40371   6.071   7.448   8.785
 3054POPC   D2A40372   5.798   7.444   8.427
 3054POPC   C3A40373   5.956   7.538   8.030
 3054POPC   C4A40374   5.750   7.648   7.648
 3054POPC   C1B40375   5.544   7.197   8.793
 3054POPC   C2B40376   5.334   7.217   8.377
 3054POPC   C3B40377   5.468   7.219   7.965
 3054POPC   C4B40378   5.805   7.150   7.756
 3055POPC   NC340379   1.639  21.287   9.570
 3055POPC   PO440380   0.946  21.269   9.656
 3055POPC   GL140381   1.019  21.274   9.225
 3055POPC   GL240382   1.360  21.176   9.156
 3055POPC   C1A40383   0.996  21.233   8.783
 3055POPC   D2A40384   1.179  21.372   8.414
 3055POPC   C3A40385   0.947  21.630   8.153
 3055POPC   C4A40386   1.056  21.497   7.765
 3055POPC   C1B40387   1.470  21.493   8.847
 3055POPC   C2B40388   1.684  21.469   8.465
 3055POPC   C3B40389   1.643  21.198   8.125
 3055POPC   C4B40390   1.535  21.379   7.742
 3056POPC   NC340391  17.441   5.521   9.445
 3056POPC   PO440392  17.694   6.124   9.546
 3056POPC   GL140393  17.491   5.990   9.190
 3056POPC   GL240394  17.761   5.765   9.099
 3056POPC   C1A40395  17.373   5.869   8.771
 3056POPC   D2A40396  17.658   5.682   8.474
 3056POPC   C3A40397  17.482   5.703   8.049
 3056POPC   C4A40398  17.336   6.011   7.724
 3056POPC   C1B40399  17.799   6.120   8.770
 3056POPC   C2B40400  17.638   6.175   8.318
 3056POPC   C3B40401  17.843   6.046   7.922
 3056POPC   C4B40402  17.935   5.971   7.500
 3057POPC   NC340403  38.287  31.602   9.454
 3057POPC   PO440404  38.912  31.565   9.603
 3057POPC   GL140405  38.705  31.455   9.210
 3057POPC   GL240406  38.479  31.197   9.149
 3057POPC   C1A40407  38.413  31.566   8.813
 3057POPC   D2A40408  38.425  31.848   8.469
 3057POPC   C3A40409  38.266  31.708   8.070
 3057POPC   C4A40410  38.408  31.619   7.663
 3057POPC   C1B40411  38.817  31.162   8.828
 3057POPC   C2B40412  38.673  31.281   8.442
 3057POPC   C3B40413  38.558  31.125   8.045
 3057POPC   C4B40414  38.197  31.174   7.819
 3058POPC   NC340415  38.003  40.161   9.610
 3058POPC   PO440416  37.400  39.954   9.695
 3058POPC   GL140417  37.586  40.218   9.348
 3058POPC   GL240418  37.408  40.386   9.128
 3058POPC   C1A40419  37.865  40.170   8.947
 3058POPC   D2A40420  37.906  40.199   8.469
 3058POPC   C3A40421  37.516  40.033   8.224
 3058POPC   C4A40422  37.430  40.055   7.777
 3058POPC   C1B40423  37.583  40.577   8.777
 3058POPC   C2B40424  37.521  40.532   8.350
 3058POPC   C3B40425  37.711  40.425   7.971
 3058POPC   C4B40426  38.105  40.257   7.752
 3059POPC   NC340427   2.412  37.147   9.494
 3059POPC   PO440428   2.968  37.591   9.662
 3059POPC   GL140429   2.873  37.676   9.194
 3059POPC   GL240430   2.557  37.503   9.102
 3059POPC   C1A40431   2.785  37.915   8.770
 3059POPC   D2A40432   2.811  38.100   8.325
 3059POPC   C3A40433   2.745  37.885   7.935
 3059POPC   C4A40434   2.643  37.573   7.642
 3059POPC   C1B40435   2.888  37.410   8.761
 3059POPC   C2B40436   2.977  37.595   8.373
 3059POPC   C3B40437   2.965  37.391   7.988
 3059POPC   C4B40438   3.132  37.359   7.599
 3060POPC   NC340439  32.718   4.137   9.589
 3060POPC   PO440440  32.982   4.650   9.389
 3060POPC   GL140441  32.984   4.260   9.128
 3060POPC   GL240442  32.709   3.993   9.089
 3060POPC   C1A40443  33.260   4.288   8.756
 3060POPC   D2A40444  33.270   4.660   8.454
 3060POPC   C3A40445  33.200   4.542   8.035
 3060POPC   C4A40446  33.285   4.281   7.703
 3060POPC   C1B40447  32.918   3.920   8.702
 3060POPC   C2B40448  32.976   4.188   8.332
 3060POPC   C3B40449  32.805   4.246   7.937
 3060POPC   C4B40450  32.863   4.025   7.572
 3061POPC   NC340451  34.066  24.532   9.600
 3061POPC   PO440452  34.733  24.422   9.596
 3061POPC   GL140453  34.472  24.645   9.278
 3061POPC   GL240454  34.303  24.350   9.199
 3061POPC   C1A40455  34.402  24.659   8.819
 3061POPC   D2A40456  34.528  24.346   8.510
 3061POPC   C3A40457  34.699  24.549   8.190
 3061POPC   C4A40458  34.763  24.457   7.786
 3061POPC   C1B40459  34.162  24.196   8.827
 3061POPC   C2B40460  34.070  24.137   8.391
 3061POPC   C3B40461  34.368  24.170   8.035
 3061POPC   C4B40462  34.304  24.301   7.625
 3062POPC   NC340463  30.026  30.897   9.526
 3062POPC   PO440464  29.606  30.329   9.579
 3062POPC   GL140465  29.866  30.517   9.241
 3062POPC   GL240466  29.723  30.832   9.131
 3062POPC   C1A40467  30.122  30.570   8.850
 3062POPC   D2A40468  29.876  30.503   8.455
 3062POPC   C3A40469  30.070  30.464   8.049
 3062POPC   C4A40470  29.870  30.497   7.646
 3062POPC   C1B40471  29.756  30.953   8.686
 3062POPC   C2B40472  29.574  31.073   8.270
 3062POPC   C3B40473  29.672  30.963   7.859
 3062POPC   C4B40474  30.111  30.921   7.819
 3063POPC   NC340475  37.185  44.927   9.524
 3063POPC   PO440476  36.955  44.307   9.343
 3063POPC   GL140477  36.885  44.639   9.079
 3063POPC   GL240478  37.201  44.794   9.022
 3063POPC   C1A40479  36.807  44.661   8.637
 3063POPC   D2A40480  36.853  44.921   8.278
 3063POPC   C3A40481  36.956  44.702   7.909
 3063POPC   C4A40482  36.882  44.298   7.788
 3063POPC   C1B40483  37.246  44.421   8.744
 3063POPC   C2B40484  37.217  44.508   8.312
 3063POPC   C3B40485  37.381  44.308   7.947
 3063POPC   C4B40486  37.309  44.512   7.550
 3064POPC   NC340487  41.911   8.596   9.435
 3064POPC   PO440488  41.816   7.964   9.559
 3064POPC   GL140489  41.602   8.125   9.172
 3064POPC   GL240490  41.261   8.015   9.083
 3064POPC   C1A40491  41.566   8.280   8.723
 3064POPC   D2A40492  41.779   8.295   8.311
 3064POPC   C3A40493  41.515   8.188   7.933
 3064POPC   C4A40494  41.543   8.257   7.485
 3064POPC   C1B40495  41.321   7.805   8.702
 3064POPC   C2B40496  41.216   7.948   8.319
 3064POPC   C3B40497  41.007   7.836   7.963
 3064POPC   C4B40498  41.199   7.866   7.597
 3065POPC   NC340499  33.524  31.738   9.493
 3065POPC   PO440500  32.943  31.337   9.454
 3065POPC   GL140501  32.945  31.526   9.074
 3065POPC   GL240502  33.117  31.801   9.171
 3065POPC   C1A40503  33.059  31.427   8.642
 3065POPC   D2A40504  33.087  31.255   8.227
 3065POPC   C3A40505  32.798  31.441   7.925
 3065POPC   C4A40506  32.757  31.328   7.488
 3065POPC   C1B40507  33.357  31.787   8.832
 3065POPC   C2B40508  33.304  31.854   8.402
 3065POPC   C3B40509  33.404  31.695   8.010
 3065POPC   C4B40510  33.240  31.432   7.690
 3066POPC   NC340511  26.462  22.911   9.564
 3066POPC   PO440512  25.882  23.221   9.464
 3066POPC   GL140513  25.978  23.201   9.089
 3066POPC   GL240514  25.974  22.859   9.055
 3066POPC   C1A40515  26.145  23.251   8.712
 3066POPC   D2A40516  26.099  23.042   8.341
 3066POPC   C3A40517  26.228  23.276   8.011
 3066POPC   C4A40518  26.127  23.102   7.646
 3066POPC   C1B40519  25.824  22.579   8.731
 3066POPC   C2B40520  26.014  22.527   8.311
 3066POPC   C3B40521  25.912  22.669   7.915
 3066POPC   C4B40522  25.510  22.742   7.794
 3067POPC   NC340523   0.809  20.412   9.338
 3067POPC   PO440524   0.329  20.809   9.559
 3067POPC   GL140525   0.442  20.688   9.114
 3067POPC   GL240526   0.791  20.838   9.069
 3067POPC   C1A40527   0.522  20.407   8.721
 3067POPC   D2A40528   0.330  20.329   8.323
 3067POPC   C3A40529   0.540  20.410   7.938
 3067POPC   C4A40530   0.832  20.682   7.776
 3067POPC   C1B40531   0.648  20.889   8.656
 3067POPC   C2B40532   0.598  20.833   8.244
 3067POPC   C3B40533   0.652  21.168   7.970
 3067POPC   C4B40534   0.739  21.135   7.561
 3068POPC   NC340535  32.053  43.295   9.873
 3068POPC   PO440536  32.444  42.916   9.515
 3068POPC   GL140537  32.425  43.054   9.163
 3068POPC   GL240538  32.118  43.246   9.151
 3068POPC   C1A40539  32.259  42.928   8.776
 3068POPC   D2A40540  32.149  43.147   8.459
 3068POPC   C3A40541  32.220  42.912   8.099
 3068POPC   C4A40542  32.051  43.124   7.796
 3068POPC   C1B40543  32.436  43.451   8.871
 3068POPC   C2B40544  32.610  43.451   8.476
 3068POPC   C3B40545  32.404  43.399   8.098
 3068POPC   C4B40546  32.515  43.257   7.709
 3069POPC   NC340547  42.100  26.619   9.517
 3069POPC   PO440548  42.540  27.101   9.717
 3069POPC   GL140549  42.275  27.037   9.261
 3069POPC   GL240550  42.312  26.683   9.058
 3069POPC   C1A40551  42.067  27.090   8.828
 3069POPC   D2A40552  42.084  26.879   8.391
 3069POPC   C3A40553  42.073  27.072   7.954
 3069POPC   C4A40554  42.341  26.925   7.574
 3069POPC   C1B40555  42.713  26.545   8.826
 3069POPC   C2B40556  43.002  26.592   8.455
 3069POPC   C3B40557  42.965  26.422   8.020
 3069POPC   C4B40558  42.597  26.479   7.763
 3070POPC   NC340559  13.845  13.053   9.425
 3070POPC   PO440560  13.637  12.437   9.503
 3070POPC   GL140561  13.591  12.705   9.111
 3070POPC   GL240562  13.557  13.062   9.006
 3070POPC   C1A40563  13.466  12.702   8.677
 3070POPC   D2A40564  13.560  13.002   8.368
 3070POPC   C3A40565  13.647  12.757   8.003
 3070POPC   C4A40566  13.479  12.886   7.626
 3070POPC   C1B40567  13.830  13.312   8.742
 3070POPC   C2B40568  14.052  13.217   8.355
 3070POPC   C3B40569  13.833  13.244   7.947
 3070POPC   C4B40570  13.899  13.328   7.507
 3071POPC   NC340571  35.924  13.060   9.533
 3071POPC   PO440572  36.486  13.004   9.388
 3071POPC   GL140573  36.253  12.927   9.085
 3071POPC   GL240574  36.337  13.250   8.947
 3071POPC   C1A40575  36.152  12.640   8.745
 3071POPC   D2A40576  35.910  12.410   8.413
 3071POPC   C3A40577  36.130  12.446   8.022
 3071POPC   C4A40578  36.359  12.781   7.788
 3071POPC   C1B40579  35.979  13.116   8.703
 3071POPC   C2B40580  35.983  12.923   8.311
 3071POPC   C3B40581  36.031  13.145   7.944
 3071POPC   C4B40582  35.831  13.149   7.536
 3072POPC   NC340583  12.364  30.469   9.304
 3072POPC   PO440584  11.905  30.957   9.527
 3072POPC   GL140585  12.022  30.809   9.129
 3072POPC   GL240586  11.993  30.443   8.981
 3072POPC   C1A40587  12.151  30.958   8.759
 3072POPC   D2A40588  11.930  30.906   8.369
 3072POPC   C3A40589  12.131  30.998   8.004
 3072POPC   C4A40590  11.906  30.969   7.631
 3072POPC   C1B40591  12.193  30.481   8.559
 3072POPC   C2B40592  12.327  30.535   8.101
 3072POPC   C3B40593  12.167  30.542   7.669
 3072POPC   C4B40594  12.105  30.278   7.277
 3073POPC   NC340595  26.320   4.884   9.275
 3073POPC   PO440596  26.025   4.464   9.702
 3073POPC   GL140597  26.123   4.326   9.256
 3073POPC   GL240598  26.234   4.514   8.941
 3073POPC   C1A40599  26.057   4.039   8.873
 3073POPC   D2A40600  26.030   4.250   8.464
 3073POPC   C3A40601  26.122   4.172   8.047
 3073POPC   C4A40602  26.097   4.358   7.662
 3073POPC   C1B40603  25.769   4.477   8.849
 3073POPC   C2B40604  25.530   4.376   8.476
 3073POPC   C3B40605  25.671   4.445   8.066
 3073POPC   C4B40606  25.842   4.786   7.858
 3074POPC   NC340607   2.772   8.557   9.539
 3074POPC   PO440608   2.663   9.190   9.499
 3074POPC   GL140609   2.627   8.964   9.129
 3074POPC   GL240610   2.395   8.689   9.215
 3074POPC   C1A40611   2.929   8.839   8.813
 3074POPC   D2A40612   3.073   8.889   8.394
 3074POPC   C3A40613   2.778   8.857   8.044
 3074POPC   C4A40614   3.058   8.790   7.719
 3074POPC   C1B40615   2.259   8.610   8.802
 3074POPC   C2B40616   2.432   8.625   8.386
 3074POPC   C3B40617   2.363   8.557   7.942
 3074POPC   C4B40618   2.591   8.732   7.542
 3075POPC   NC340619  30.185  14.034   9.420
 3075POPC   PO440620  29.704  14.487   9.437
 3075POPC   GL140621  30.092  14.459   9.147
 3075POPC   GL240622  30.241  14.177   8.943
 3075POPC   C1A40623  30.146  14.720   8.820
 3075POPC   D2A40624  29.836  14.763   8.490
 3075POPC   C3A40625  29.907  14.487   8.144
 3075POPC   C4A40626  29.824  14.675   7.764
 3075POPC   C1B40627  30.049  14.276   8.595
 3075POPC   C2B40628  29.799  14.018   8.384
 3075POPC   C3B40629  29.666  14.026   7.982
 3075POPC   C4B40630  29.909  14.164   7.627
 3076POPC   NC340631  13.766  37.879   9.466
 3076POPC   PO440632  13.929  37.292   9.738
 3076POPC   GL140633  13.591  37.453   9.275
 3076POPC   GL240634  13.329  37.718   9.206
 3076POPC   C1A40635  13.668  37.682   8.830
 3076POPC   D2A40636  13.621  37.864   8.441
 3076POPC   C3A40637  13.919  37.938   8.139
 3076POPC   C4A40638  13.845  37.732   7.769
 3076POPC   C1B40639  13.284  38.024   8.815
 3076POPC   C2B40640  13.162  38.057   8.340
 3076POPC   C3B40641  13.394  37.881   7.958
 3076POPC   C4B40642  13.483  37.914   7.481
 3077POPC   NC340643  17.619  26.999   9.576
 3077POPC   PO440644  17.199  26.531   9.720
 3077POPC   GL140645  17.259  26.595   9.268
 3077POPC   GL240646  17.129  26.948   9.241
 3077POPC   C1A40647  17.511  26.832   8.924
 3077POPC   D2A40648  17.733  26.848   8.511
 3077POPC   C3A40649  17.549  26.816   8.092
 3077POPC   C4A40650  17.652  26.957   7.661
 3077POPC   C1B40651  17.091  27.132   8.791
 3077POPC   C2B40652  16.953  27.080   8.336
 3077POPC   C3B40653  17.104  27.098   7.906
 3077POPC   C4B40654  17.156  26.844   7.534
 3078POPC   NC340655   9.234  38.219   9.682
 3078POPC   PO440656   8.741  38.602   9.541
 3078POPC   GL140657   8.910  38.504   9.169
 3078POPC   GL240658   8.859  38.150   9.097
 3078POPC   C1A40659   8.829  38.554   8.729
 3078POPC   D2A40660   8.791  38.538   8.289
 3078POPC   C3A40661   9.084  38.845   8.153
 3078POPC   C4A40662   8.988  38.922   7.776
 3078POPC   C1B40663   9.257  38.290   8.867
 3078POPC   C2B40664   9.288  38.476   8.452
 3078POPC   C3B40665   9.215  38.361   8.028
 3078POPC   C4B40666   9.371  38.263   7.608
 3079POPC   NC340667  17.256  16.441   9.298
 3079POPC   PO440668  17.736  16.738   9.663
 3079POPC   GL140669  17.769  16.874   9.223
 3079POPC   GL240670  17.792  16.523   9.122
 3079POPC   C1A40671  17.680  17.044   8.778
 3079POPC   D2A40672  17.704  16.984   8.301
 3079POPC   C3A40673  17.420  16.990   7.958
 3079POPC   C4A40674  17.460  16.903   7.467
 3079POPC   C1B40675  17.555  16.553   8.732
 3079POPC   C2B40676  17.659  16.450   8.331
 3079POPC   C3B40677  17.718  16.585   7.949
 3079POPC   C4B40678  17.295  16.531   7.762
 3080POPC   NC340679  34.869  11.753   9.485
 3080POPC   PO440680  34.420  11.343   9.299
 3080POPC   GL140681  34.769  11.318   9.079
 3080POPC   GL240682  34.585  11.061   8.887
 3080POPC   C1A40683  34.797  11.470   8.662
 3080POPC   D2A40684  34.440  11.307   8.436
 3080POPC   C3A40685  34.519  11.211   8.025
 3080POPC   C4A40686  34.680  11.416   7.682
 3080POPC   C1B40687  34.166  10.930   8.719
 3080POPC   C2B40688  34.009  11.025   8.305
 3080POPC   C3B40689  34.114  10.924   7.880
 3080POPC   C4B40690  34.414  10.985   7.560
 3081POPC   NC340691   9.952   7.422   9.770
 3081POPC   PO440692   9.509   7.761   9.449
 3081POPC   GL140693   9.712   7.443   9.143
 3081POPC   GL240694  10.063   7.389   9.267
 3081POPC   C1A40695   9.451   7.217   8.792
 3081POPC   D2A40696   9.199   7.286   8.379
 3081POPC   C3A40697   9.528   7.210   8.105
 3081POPC   C4A40698   9.766   7.205   7.744
 3081POPC   C1B40699  10.108   7.511   8.827
 3081POPC   C2B40700   9.938   7.300   8.482
 3081POPC   C3B40701   9.959   7.554   8.117
 3081POPC   C4B40702  10.165   7.528   7.703
 3082POPC   NC340703  12.927  21.470   9.716
 3082POPC   PO440704  13.414  21.876   9.626
 3082POPC   GL140705  13.281  21.466   9.289
 3082POPC   GL240706  12.902  21.400   9.207
 3082POPC   C1A40707  13.179  21.175   8.862
 3082POPC   D2A40708  13.213  21.319   8.416
 3082POPC   C3A40709  13.046  21.251   7.985
 3082POPC   C4A40710  12.967  21.550   7.598
 3082POPC   C1B40711  12.675  21.288   8.786
 3082POPC   C2B40712  12.659  21.240   8.315
 3082POPC   C3B40713  12.583  21.307   7.838
 3082POPC   C4B40714  12.444  21.313   7.364
 3083POPC   NC340715  35.971   3.456   9.506
 3083POPC   PO440716  36.362   4.095   9.533
 3083POPC   GL140717  36.233   3.775   9.222
 3083POPC   GL240718  35.876   3.866   9.190
 3083POPC   C1A40719  36.230   3.508   8.837
 3083POPC   D2A40720  36.391   3.393   8.440
 3083POPC   C3A40721  36.171   3.558   8.080
 3083POPC   C4A40722  35.958   3.518   7.706
 3083POPC   C1B40723  35.955   3.938   8.789
 3083POPC   C2B40724  35.815   3.725   8.428
 3083POPC   C3B40725  35.790   3.897   8.015
 3083POPC   C4B40726  35.941   4.016   7.626
 3084POPC   NC340727  17.815  43.964   9.516
 3084POPC   PO440728  17.246  43.843   9.423
 3084POPC   GL140729  17.527  43.815   9.101
 3084POPC   GL240730  17.788  43.556   9.151
 3084POPC   C1A40731  17.399  43.908   8.673
 3084POPC   D2A40732  17.410  44.075   8.264
 3084POPC   C3A40733  17.330  43.741   7.962
 3084POPC   C4A40734  17.469  43.725   7.547
 3084POPC   C1B40735  17.899  43.802   8.754
 3084POPC   C2B40736  17.855  43.805   8.286
 3084POPC   C3B40737  17.803  43.550   7.896
 3084POPC   C4B40738  17.711  43.301   7.472
 3085POPC   NC340739  32.584   4.870   9.486
 3085POPC   PO440740  32.119   5.282   9.592
 3085POPC   GL140741  32.242   5.104   9.183
 3085POPC   GL240742  32.081   4.808   9.088
 3085POPC   C1A40743  32.280   5.260   8.756
 3085POPC   D2A40744  32.092   5.491   8.392
 3085POPC   C3A40745  32.190   5.487   7.935
 3085POPC   C4A40746  32.039   5.260   7.544
 3085POPC   C1B40747  32.246   4.744   8.655
 3085POPC   C2B40748  32.332   5.025   8.293
 3085POPC   C3B40749  32.322   4.995   7.854
 3085POPC   C4B40750  32.382   4.835   7.454
 3086POPC   NC340751  15.035  14.780   9.522
 3086POPC   PO440752  15.342  14.303   9.839
 3086POPC   GL140753  15.313  14.365   9.324
 3086POPC   GL240754  14.968  14.292   9.213
 3086POPC   C1A40755  15.299  14.197   8.862
 3086POPC   D2A40756  15.041  14.205   8.496
 3086POPC   C3A40757  15.252  14.102   8.121
 3086POPC   C4A40758  15.403  14.268   7.738
 3086POPC   C1B40759  14.894  14.582   8.854
 3086POPC   C2B40760  15.025  14.739   8.469
 3086POPC   C3B40761  15.009  14.572   8.069
 3086POPC   C4B40762  15.172  14.714   7.663
 3087POPC   NC340763   3.778  41.825   9.547
 3087POPC   PO440764   3.191  41.618   9.310
 3087POPC   GL140765   3.544  41.732   9.099
 3087POPC   GL240766   3.783  41.456   9.171
 3087POPC   C1A40767   3.436  41.739   8.692
 3087POPC   D2A40768   3.426  41.497   8.383
 3087POPC   C3A40769   3.341  41.710   8.003
 3087POPC   C4A40770   3.283  41.533   7.588
 3087POPC   C1B40771   3.583  41.231   8.809
 3087POPC   C2B40772   3.647  41.013   8.380
 3087POPC   C3B40773   3.725  41.312   8.034
 3087POPC   C4B40774   3.878  41.241   7.662
 3088POPC   NC340775  20.216  19.517   9.420
 3088POPC   PO440776  20.127  18.881   9.357
 3088POPC   GL140777  19.940  19.129   9.115
 3088POPC   GL240778  19.645  18.993   9.137
 3088POPC   C1A40779  20.093  19.093   8.721
 3088POPC   D2A40780  19.986  19.210   8.350
 3088POPC   C3A40781  20.114  19.117   7.931
 3088POPC   C4A40782  19.929  19.165   7.510
 3088POPC   C1B40783  19.469  19.255   8.865
 3088POPC   C2B40784  19.496  19.170   8.453
 3088POPC   C3B40785  19.598  19.107   8.042
 3088POPC   C4B40786  19.501  18.969   7.682
 3089POPC   NC340787  40.689  17.487   9.473
 3089POPC   PO440788  41.261  17.064   9.216
 3089POPC   GL140789  40.964  17.370   9.056
 3089POPC   GL240790  40.985  17.730   9.147
 3089POPC   C1A40791  40.591  17.460   8.802
 3089POPC   D2A40792  40.467  17.253   8.437
 3089POPC   C3A40793  40.820  17.146   8.199
 3089POPC   C4A40794  40.821  17.228   7.773
 3089POPC   C1B40795  41.053  17.727   8.697
 3089POPC   C2B40796  40.775  17.658   8.354
 3089POPC   C3B40797  40.531  17.629   7.992
 3089POPC   C4B40798  40.910  17.712   7.789
 3090POPC   NC340799  17.811  10.230   9.702
 3090POPC   PO440800  17.416   9.755   9.687
 3090POPC   GL140801  17.363   9.701   9.227
 3090POPC   GL240802  17.248  10.030   9.108
 3090POPC   C1A40803  17.546   9.620   8.812
 3090POPC   D2A40804  17.393   9.463   8.423
 3090POPC   C3A40805  17.550   9.288   8.090
 3090POPC   C4A40806  17.307   9.351   7.730
 3090POPC   C1B40807  17.452  10.112   8.687
 3090POPC   C2B40808  17.678   9.868   8.350
 3090POPC   C3B40809  17.556   9.802   7.940
 3090POPC   C4B40810  17.147   9.818   7.783
 3091POPC   NC340811  13.969  26.735   9.515
 3091POPC   PO440812  13.312  26.529   9.705
 3091POPC   GL140813  13.451  26.603   9.273
 3091POPC   GL240814  13.576  26.936   9.228
 3091POPC   C1A40815  13.398  26.618   8.789
 3091POPC   D2A40816  13.483  26.491   8.317
 3091POPC   C3A40817  13.768  26.542   7.933
 3091POPC   C4A40818  13.450  26.696   7.590
 3091POPC   C1B40819  13.839  26.828   8.858
 3091POPC   C2B40820  13.725  26.942   8.432
 3091POPC   C3B40821  13.502  26.936   8.036
 3091POPC   C4B40822  13.864  26.982   7.715
 3092POPC   NC340823  39.358  37.727   9.756
 3092POPC   PO440824  38.907  37.268   9.532
 3092POPC   GL140825  38.996  37.424   9.131
 3092POPC   GL240826  39.152  37.743   9.251
 3092POPC   C1A40827  39.268  37.393   8.763
 3092POPC   D2A40828  39.530  37.295   8.379
 3092POPC   C3A40829  39.310  37.415   8.001
 3092POPC   C4A40830  39.283  37.835   7.830
 3092POPC   C1B40831  39.266  37.890   8.838
 3092POPC   C2B40832  39.194  37.730   8.394
 3092POPC   C3B40833  38.890  37.978   8.165
 3092POPC   C4B40834  38.800  38.065   7.776
 3093POPC   NC340835  22.064  44.963   9.550
 3093POPC   PO440836  22.254   0.494   9.819
 3093POPC   GL140837  22.343   0.377   9.319
 3093POPC   GL240838  22.449   0.070   9.243
 3093POPC   C1A40839  22.258   0.551   8.881
 3093POPC   D2A40840  22.143   0.491   8.453
 3093POPC   C3A40841  22.324   0.715   8.094
 3093POPC   C4A40842  22.164   0.523   7.712
 3093POPC   C1B40843  22.436  44.975   8.827
 3093POPC   C2B40844  22.555   0.166   8.448
 3093POPC   C3B40845  22.418   0.189   8.036
 3093POPC   C4B40846  22.452   0.104   7.602
 3094POPC   NC340847  13.953  31.693   9.478
 3094POPC   PO440848  13.487  31.157   9.480
 3094POPC   GL140849  13.637  31.407   9.145
 3094POPC   GL240850  13.461  31.687   9.024
 3094POPC   C1A40851  13.784  31.367   8.721
 3094POPC   D2A40852  13.902  31.182   8.323
 3094POPC   C3A40853  13.666  31.217   7.948
 3094POPC   C4A40854  13.715  31.537   7.651
 3094POPC   C1B40855  13.537  31.811   8.656
 3094POPC   C2B40856  13.596  31.607   8.285
 3094POPC   C3B40857  13.312  31.600   7.980
 3094POPC   C4B40858  13.346  31.882   7.616
 3095POPC   NC340859   6.892   9.739   9.569
 3095POPC   PO440860   6.340   9.350   9.328
 3095POPC   GL140861   6.618   9.684   9.137
 3095POPC   GL240862   6.970   9.623   9.082
 3095POPC   C1A40863   6.636   9.978   8.787
 3095POPC   D2A40864   6.536   9.885   8.365
 3095POPC   C3A40865   6.743  10.044   7.996
 3095POPC   C4A40866   6.395   9.908   7.729
 3095POPC   C1B40867   6.870   9.531   8.670
 3095POPC   C2B40868   6.980   9.670   8.278
 3095POPC   C3B40869   6.845   9.552   7.866
 3095POPC   C4B40870   6.604   9.180   7.825
 3096POPC   NC340871  12.060   0.289   9.516
 3096POPC   PO440872  11.744   0.870   9.422
 3096POPC   GL140873  11.728   0.487   9.154
 3096POPC   GL240874  11.719   0.109   9.172
 3096POPC   C1A40875  12.024   0.310   8.825
 3096POPC   D2A40876  11.928   0.188   8.404
 3096POPC   C3A40877  12.125   0.236   8.014
 3096POPC   C4A40878  12.335   0.569   7.827
 3096POPC   C1B40879  11.715  44.873   8.754
 3096POPC   C2B40880  11.736  44.744   8.264
 3096POPC   C3B40881  11.727  44.963   7.827
 3096POPC   C4B40882  11.666   0.007   7.351
 3097POPC   NC340883   4.998  25.919   9.456
 3097POPC   PO440884   5.441  26.509   9.433
 3097POPC   GL140885   5.186  26.270   9.124
 3097POPC   GL240886   5.316  25.898   9.068
 3097POPC   C1A40887   4.851  26.277   8.786
 3097POPC   D2A40888   4.701  26.483   8.388
 3097POPC   C3A40889   4.784  26.311   7.930
 3097POPC   C4A40890   5.077  26.380   7.569
 3097POPC   C1B40891   5.050  25.801   8.703
 3097POPC   C2B40892   4.864  25.936   8.289
 3097POPC   C3B40893   4.908  25.786   7.843
 3097POPC   C4B40894   5.222  25.888   7.487
 3098POPC   NC340895  40.913   4.608   9.350
 3098POPC   PO440896  40.575   4.059   9.549
 3098POPC   GL140897  40.776   4.125   9.196
 3098POPC   GL240898  40.528   4.374   9.132
 3098POPC   C1A40899  40.821   4.130   8.770
 3098POPC   D2A40900  40.528   4.189   8.443
 3098POPC   C3A40901  40.669   4.118   8.019
 3098POPC   C4A40902  40.998   4.014   7.720
 3098POPC   C1B40903  40.589   4.628   8.759
 3098POPC   C2B40904  40.491   4.703   8.345
 3098POPC   C3B40905  40.642   4.637   7.919
 3098POPC   C4B40906  41.058   4.484   7.900
 3099POPC   NC340907  18.203  24.928   9.608
 3099POPC   PO440908  18.546  25.482   9.486
 3099POPC   GL140909  18.341  25.200   9.221
 3099POPC   GL240910  18.082  25.456   9.211
 3099POPC   C1A40911  18.207  24.939   8.850
 3099POPC   D2A40912  18.262  25.147   8.465
 3099POPC   C3A40913  18.062  25.032   8.097
 3099POPC   C4A40914  18.199  25.165   7.723
 3099POPC   C1B40915  18.315  25.510   8.829
 3099POPC   C2B40916  18.293  25.659   8.429
 3099POPC   C3B40917  18.301  25.600   7.992
 3099POPC   C4B40918  18.707  25.624   7.778
 3100POPC   NC340919   5.735  11.290   9.597
 3100POPC   PO440920   5.468  10.710   9.513
 3100POPC   GL140921   5.663  11.021   9.178
 3100POPC   GL240922   5.764  11.440   9.116
 3100POPC   C1A40923   5.862  11.110   8.772
 3100POPC   D2A40924   6.092  11.186   8.404
 3100POPC   C3A40925   5.823  11.230   8.061
 3100POPC   C4A40926   5.826  10.994   7.712
 3100POPC   C1B40927   5.950  11.760   8.786
 3100POPC   C2B40928   6.203  11.888   8.397
 3100POPC   C3B40929   6.286  11.554   8.082
 3100POPC   C4B40930   6.064  11.482   7.667
 3101POPC   NC340931   0.715  21.664   9.534
 3101POPC   PO440932   0.048  21.636   9.579
 3101POPC   GL140933   0.315  21.517   9.235
 3101POPC   GL240934   0.497  21.209   9.276
 3101POPC   C1A40935   0.567  21.509   8.864
 3101POPC   D2A40936   0.585  21.365   8.448
 3101POPC   C3A40937   0.433  21.675   8.145
 3101POPC   C4A40938   0.580  21.630   7.732
 3101POPC   C1B40939   0.239  21.119   8.861
 3101POPC   C2B40940   0.145  21.048   8.379
 3101POPC   C3B40941   0.129  21.311   7.969
 3101POPC   C4B40942   0.267  21.278   7.539
 3102POPC   NC340943  19.241  20.739   9.505
 3102POPC   PO440944  18.719  20.262   9.449
 3102POPC   GL140945  18.950  20.493   9.188
 3102POPC   GL240946  18.699  20.773   9.227
 3102POPC   C1A40947  19.130  20.644   8.790
 3102POPC   D2A40948  19.269  20.436   8.383
 3102POPC   C3A40949  19.104  20.640   8.046
 3102POPC   C4A40950  19.111  20.471   7.658
 3102POPC   C1B40951  18.611  20.500   8.835
 3102POPC   C2B40952  18.751  20.434   8.426
 3102POPC   C3B40953  18.720  20.330   7.992
 3102POPC   C4B40954  18.620  20.582   7.661
 3103POPC   NC340955   8.657   9.914   9.611
 3103POPC   PO440956   8.906   9.290   9.531
 3103POPC   GL140957   9.127   9.643   9.273
 3103POPC   GL240958   9.050  10.018   9.285
 3103POPC   C1A40959   9.163   9.667   8.815
 3103POPC   D2A40960   8.820   9.534   8.520
 3103POPC   C3A40961   8.763   9.740   8.131
 3103POPC   C4A40962   8.799   9.675   7.698
 3103POPC   C1B40963   9.050  10.161   8.831
 3103POPC   C2B40964   9.142   9.995   8.390
 3103POPC   C3B40965   9.202   9.909   7.914
 3103POPC   C4B40966   9.211   9.763   7.429
 3104POPC   NC340967  34.585  40.596   9.382
 3104POPC   PO440968  34.075  40.942   9.466
 3104POPC   GL140969  34.261  40.824   9.073
 3104POPC   GL240970  34.615  40.981   9.038
 3104POPC   C1A40971  34.322  40.820   8.642
 3104POPC   D2A40972  34.641  41.045   8.405
 3104POPC   C3A40973  34.687  40.933   7.976
 3104POPC   C4A40974  34.369  41.107   7.778
 3104POPC   C1B40975  34.816  40.704   8.745
 3104POPC   C2B40976  34.922  40.605   8.297
 3104POPC   C3B40977  34.994  40.513   7.834
 3104POPC   C4B40978  34.835  40.400   7.406
 3105POPC   NC340979  15.630   8.946   9.460
 3105POPC   PO440980  16.235   9.079   9.435
 3105POPC   GL140981  16.000   9.071   9.068
 3105POPC   GL240982  15.698   9.306   9.100
 3105POPC   C1A40983  16.172   8.924   8.646
 3105POPC   D2A40984  16.237   8.750   8.216
 3105POPC   C3A40985  16.101   8.836   7.795
 3105POPC   C4A40986  16.264   8.654   7.365
 3105POPC   C1B40987  15.845   9.320   8.654
 3105POPC   C2B40988  15.908   9.159   8.233
 3105POPC   C3B40989  15.921   9.310   7.815
 3105POPC   C4B40990  16.291   9.554   7.739
 3106POPC   NC340991  35.609   1.043   9.365
 3106POPC   PO440992  35.097   1.459   9.462
 3106POPC   GL140993  35.253   1.528   9.079
 3106POPC   GL240994  34.889   1.655   9.017
 3106POPC   C1A40995  35.408   1.201   8.758
 3106POPC   D2A40996  35.142   0.947   8.475
 3106POPC   C3A40997  35.232   1.059   8.059
 3106POPC   C4A40998  35.332   0.836   7.696
 3106POPC   C1B40999  34.918   1.364   8.727
 3106POPC   C2B41000  35.163   1.460   8.383
 3106POPC   C3B41001  35.039   1.532   7.967
 3106POPC   C4B41002  35.152   1.319   7.608
 3107POPC   NC341003  36.464   4.543   9.448
 3107POPC   PO441004  35.765   4.603   9.395
 3107POPC   GL141005  36.115   4.541   9.065
 3107POPC   GL241006  36.204   4.257   9.095
 3107POPC   C1A41007  36.253   4.409   8.630
 3107POPC   D2A41008  35.908   4.226   8.368
 3107POPC   C3A41009  35.783   4.404   7.943
 3107POPC   C4A41010  35.826   4.479   7.481
 3107POPC   C1B41011  36.479   3.989   8.823
 3107POPC   C2B41012  36.314   3.912   8.422
 3107POPC   C3B41013  36.280   4.118   8.033
 3107POPC   C4B41014  36.412   3.853   7.722
 3108POPC   NC341015  34.231  20.567   9.874
 3108POPC   PO441016  33.823  20.867   9.469
 3108POPC   GL141017  33.888  20.671   9.099
 3108POPC   GL241018  33.644  20.413   9.048
 3108POPC   C1A41019  34.000  20.860   8.723
 3108POPC   D2A41020  34.184  20.733   8.354
 3108POPC   C3A41021  33.846  20.833   8.111
 3108POPC   C4A41022  33.782  20.682   7.724
 3108POPC   C1B41023  33.707  20.448   8.576
 3108POPC   C2B41024  33.700  20.325   8.125
 3108POPC   C3B41025  33.549  20.240   7.705
 3108POPC   C4B41026  33.275  20.160   7.296
 3109POPC   NC341027  27.624   1.201   9.595
 3109POPC   PO441028  27.004   1.456   9.479
 3109POPC   GL141029  27.389   1.275   9.151
 3109POPC   GL241030  27.767   1.066   9.142
 3109POPC   C1A41031  27.614   1.312   8.735
 3109POPC   D2A41032  27.808   1.202   8.343
 3109POPC   C3A41033  27.578   1.216   7.950
 3109POPC   C4A41034  27.371   1.547   7.710
 3109POPC   C1B41035  28.085   1.011   8.783
 3109POPC   C2B41036  28.220   0.908   8.350
 3109POPC   C3B41037  28.067   1.062   7.930
 3109POPC   C4B41038  27.961   1.427   7.663
 3110POPC   NC341039  20.050  37.161   9.596
 3110POPC   PO441040  19.715  37.804   9.467
 3110POPC   GL141041  19.901  37.692   9.091
 3110POPC   GL241042  20.185  37.457   9.188
 3110POPC   C1A41043  19.692  37.631   8.684
 3110POPC   D2A41044  19.729  37.403   8.290
 3110POPC   C3A41045  19.650  37.679   7.935
 3110POPC   C4A41046  19.783  38.140   7.806
 3110POPC   C1B41047  20.141  37.371   8.745
 3110POPC   C2B41048  20.237  37.554   8.359
 3110POPC   C3B41049  20.212  37.806   8.033
 3110POPC   C4B41050  20.073  37.736   7.665
 3111POPC   NC341051   2.824  31.945   9.776
 3111POPC   PO441052   3.105  31.462   9.396
 3111POPC   GL141053   2.877  31.493   9.089
 3111POPC   GL241054   2.695  31.785   9.187
 3111POPC   C1A41055   2.854  31.337   8.678
 3111POPC   D2A41056   2.721  31.344   8.247
 3111POPC   C3A41057   3.057  31.245   7.955
 3111POPC   C4A41058   3.060  31.272   7.512
 3111POPC   C1B41059   2.489  31.679   8.809
 3111POPC   C2B41060   2.316  31.701   8.407
 3111POPC   C3B41061   2.489  31.816   8.017
 3111POPC   C4B41062   2.677  31.511   7.738
 3112POPC   NC341063  24.047  34.933   9.390
 3112POPC   PO441064  24.123  34.270   9.380
 3112POPC   GL141065  24.388  34.447   9.073
 3112POPC   GL241066  24.555  34.765   9.172
 3112POPC   C1A41067  24.255  34.677   8.733
 3112POPC   D2A41068  24.184  34.891   8.376
 3112POPC   C3A41069  24.432  34.672   8.140
 3112POPC   C4A41070  24.441  34.538   7.726
 3112POPC   C1B41071  24.886  34.762   8.844
 3112POPC   C2B41072  24.976  34.746   8.388
 3112POPC   C3B41073  24.897  34.768   7.923
 3112POPC   C4B41074  24.972  34.526   7.555
 3113POPC   NC341075  43.426  25.390   9.385
 3113POPC   PO441076  42.908  24.961   9.438
 3113POPC   GL141077  43.050  25.173   9.100
 3113POPC   GL241078  42.949  25.515   9.254
 3113POPC   C1A41079  43.353  25.211   8.758
 3113POPC   D2A41080  43.421  25.539   8.473
 3113POPC   C3A41081  43.537  25.416   8.079
 3113POPC   C4A41082  43.464  25.079   7.813
 3113POPC   C1B41083  43.067  25.611   8.838
 3113POPC   C2B41084  42.918  25.367   8.506
 3113POPC   C3B41085  43.030  25.426   8.091
 3113POPC   C4B41086  42.933  25.173   7.770
 3114POPC   NC341087  21.067   7.854   9.469
 3114POPC   PO441088  20.635   8.423   9.618
 3114POPC   GL141089  20.574   8.277   9.187
 3114POPC   GL241090  20.889   8.180   9.076
 3114POPC   C1A41091  20.426   8.102   8.765
 3114POPC   D2A41092  20.519   8.126   8.347
 3114POPC   C3A41093  20.293   8.044   7.984
 3114POPC   C4A41094  20.390   8.106   7.573
 3114POPC   C1B41095  20.895   8.319   8.684
 3114POPC   C2B41096  21.002   8.242   8.275
 3114POPC   C3B41097  20.810   8.164   7.878
 3114POPC   C4B41098  20.876   8.274   7.421
 3115POPC   NC341099  12.733  44.022   9.532
 3115POPC   PO441100  12.611  43.623   9.146
 3115POPC   GL141101  13.055  43.692   9.149
 3115POPC   GL241102  13.172  44.030   9.153
 3115POPC   C1A41103  13.315  43.692   8.777
 3115POPC   D2A41104  13.133  43.617   8.370
 3115POPC   C3A41105  12.924  43.870   8.057
 3115POPC   C4A41106  13.012  43.668   7.684
 3115POPC   C1B41107  12.995  44.097   8.727
 3115POPC   C2B41108  12.631  43.952   8.471
 3115POPC   C3B41109  12.443  43.650   8.172
 3115POPC   C4B41110  12.508  43.725   7.753
 3116POPC   NC341111  18.599  21.301   9.534
 3116POPC   PO441112  17.911  21.299   9.429
 3116POPC   GL141113  18.249  21.507   9.207
 3116POPC   GL241114  18.357  21.178   9.107
 3116POPC   C1A41115  18.549  21.543   8.831
 3116POPC   D2A41116  18.562  21.777   8.428
 3116POPC   C3A41117  18.520  21.546   8.003
 3116POPC   C4A41118  18.376  21.596   7.569
 3116POPC   C1B41119  18.069  21.305   8.755
 3116POPC   C2B41120  18.105  21.502   8.348
 3116POPC   C3B41121  17.983  21.516   7.908
 3116POPC   C4B41122  18.011  21.259   7.507
 3117POPC   NC341123  16.723  14.194   9.801
 3117POPC   PO441124  17.041  14.714   9.676
 3117POPC   GL141125  16.825  14.661   9.258
 3117POPC   GL241126  16.675  14.314   9.227
 3117POPC   C1A41127  16.880  14.788   8.807
 3117POPC   D2A41128  17.124  14.741   8.431
 3117POPC   C3A41129  17.002  14.373   8.217
 3117POPC   C4A41130  16.842  14.390   7.799
 3117POPC   C1B41131  16.429  14.507   8.868
 3117POPC   C2B41132  16.552  14.542   8.424
 3117POPC   C3B41133  16.370  14.539   7.990
 3117POPC   C4B41134  16.336  14.155   7.718
 3118POPC   NC341135   7.661  26.316   9.421
 3118POPC   PO441136   7.724  27.025   9.484
 3118POPC   GL141137   7.559  26.933   9.118
 3118POPC   GL241138   7.636  26.614   9.008
 3118POPC   C1A41139   7.394  27.003   8.740
 3118POPC   D2A41140   7.480  26.825   8.358
 3118POPC   C3A41141   7.415  27.110   8.042
 3118POPC   C4A41142   7.209  27.133   7.657
 3118POPC   C1B41143   7.766  26.416   8.631
 3118POPC   C2B41144   8.020  26.277   8.299
 3118POPC   C3B41145   7.857  26.400   7.880
 3118POPC   C4B41146   7.558  26.731   7.712
 3119POPC   NC341147   1.986   6.242   9.536
 3119POPC   PO441148   2.342   6.776   9.581
 3119POPC   GL141149   2.357   6.867   9.194
 3119POPC   GL241150   2.057   6.627   9.142
 3119POPC   C1A41151   2.210   6.993   8.806
 3119POPC   D2A41152   2.172   6.663   8.514
 3119POPC   C3A41153   2.273   6.614   8.079
 3119POPC   C4A41154   2.087   6.717   7.663
 3119POPC   C1B41155   1.819   6.412   8.809
 3119POPC   C2B41156   1.703   6.438   8.364
 3119POPC   C3B41157   1.531   6.281   7.989
 3119POPC   C4B41158   1.650   6.476   7.621
 3120POPC   NC341159  37.572  28.005   9.366
 3120POPC   PO441160  37.819  27.417   9.501
 3120POPC   GL141161  37.701  27.524   9.127
 3120POPC   GL241162  37.833  27.176   9.049
 3120POPC   C1A41163  37.757  27.826   8.758
 3120POPC   D2A41164  37.596  27.783   8.341
 3120POPC   C3A41165  37.614  27.839   7.895
 3120POPC   C4A41166  37.927  27.925   7.641
 3120POPC   C1B41167  37.641  27.323   8.665
 3120POPC   C2B41168  37.669  27.268   8.261
 3120POPC   C3B41169  37.987  27.089   7.986
 3120POPC   C4B41170  37.668  27.301   7.745
 3121POPC   NC341171  13.366  43.330   9.369
 3121POPC   PO441172  13.722  42.756   9.481
 3121POPC   GL141173  13.890  43.110   9.253
 3121POPC   GL241174  13.932  42.885   9.009
 3121POPC   C1A41175  13.818  43.355   8.858
 3121POPC   D2A41176  13.521  43.302   8.514
 3121POPC   C3A41177  13.652  43.342   8.095
 3121POPC   C4A41178  13.389  43.230   7.749
 3121POPC   C1B41179  13.634  42.832   8.670
 3121POPC   C2B41180  13.579  42.859   8.210
 3121POPC   C3B41181  13.612  42.748   7.770
 3121POPC   C4B41182  13.881  42.727   7.368
 3122POPC   NC341183  27.348   7.494   5.451
 3122POPC   PO441184  27.985   7.122   5.483
 3122POPC   GL141185  27.587   7.117   5.765
 3122POPC   GL241186  27.651   7.455   5.885
 3122POPC   C1A41187  27.396   7.174   6.247
 3122POPC   D2A41188  27.403   7.496   6.622
 3122POPC   C3A41189  27.169   7.496   7.035
 3122POPC   C4A41190  27.404   7.186   7.226
 3122POPC   C1B41191  27.915   7.164   6.163
 3122POPC   C2B41192  27.979   7.078   6.612
 3122POPC   C3B41193  27.909   7.359   6.948
 3122POPC   C4B41194  27.632   7.647   7.127
 3123POPC   NC341195  33.041   8.966   5.426
 3123POPC   PO441196  32.901   9.538   5.022
 3123POPC   GL141197  33.160   9.418   5.577
 3123POPC   GL241198  32.905   9.237   5.823
 3123POPC   C1A41199  33.298   9.132   6.062
 3123POPC   D2A41200  32.986   8.801   6.316
 3123POPC   C3A41201  32.989   8.681   6.797
 3123POPC   C4A41202  33.085   8.776   7.247
 3123POPC   C1B41203  32.803   9.295   6.241
 3123POPC   C2B41204  32.820   9.142   6.653
 3123POPC   C3B41205  32.984   9.222   7.034
 3123POPC   C4B41206  32.801   9.193   7.411
 3124POPC   NC341207  23.462   0.899   5.545
 3124POPC   PO441208  23.982   1.210   5.183
 3124POPC   GL141209  23.942   1.202   5.676
 3124POPC   GL241210  23.626   1.245   5.865
 3124POPC   C1A41211  24.044   1.391   6.108
 3124POPC   D2A41212  24.203   1.355   6.544
 3124POPC   C3A41213  23.996   1.423   6.951
 3124POPC   C4A41214  23.847   1.082   7.231
 3124POPC   C1B41215  23.280   1.226   6.166
 3124POPC   C2B41216  23.257   1.387   6.587
 3124POPC   C3B41217  23.442   1.185   6.952
 3124POPC   C4B41218  23.328   1.085   7.393
 3125POPC   NC341219  14.059  24.502   5.601
 3125POPC   PO441220  14.556  24.552   5.279
 3125POPC   GL141221  14.578  24.585   5.754
 3125POPC   GL241222  14.336  24.795   5.951
 3125POPC   C1A41223  14.618  24.411   6.217
 3125POPC   D2A41224  14.678  24.317   6.705
 3125POPC   C3A41225  14.600  24.429   7.164
 3125POPC   C4A41226  14.607  24.442   7.634
 3125POPC   C1B41227  14.198  24.655   6.385
 3125POPC   C2B41228  14.288  24.727   6.842
 3125POPC   C3B41229  14.292  24.849   7.282
 3125POPC   C4B41230  14.127  24.675   7.671
 3126POPC   NC341231  25.861  10.609   5.643
 3126POPC   PO441232  26.441  10.314   5.506
 3126POPC   GL141233  26.239  10.407   5.933
 3126POPC   GL241234  26.135  10.729   6.053
 3126POPC   C1A41235  26.279  10.281   6.376
 3126POPC   D2A41236  26.586  10.251   6.723
 3126POPC   C3A41237  26.411  10.477   7.102
 3126POPC   C4A41238  26.205  10.501   7.532
 3126POPC   C1B41239  25.809  10.473   6.282
 3126POPC   C2B41240  25.775  10.457   6.727
 3126POPC   C3B41241  25.836  10.422   7.199
 3126POPC   C4B41242  25.781  10.770   7.501
 3127POPC   NC341243  22.562  20.677   5.065
 3127POPC   PO441244  23.124  20.784   5.356
 3127POPC   GL141245  22.933  20.655   5.746
 3127POPC   GL241246  22.791  20.324   5.819
 3127POPC   C1A41247  22.815  20.787   6.158
 3127POPC   D2A41248  23.014  20.954   6.528
 3127POPC   C3A41249  23.054  20.803   6.901
 3127POPC   C4A41250  22.924  20.939   7.310
 3127POPC   C1B41251  23.076  20.346   6.163
 3127POPC   C2B41252  22.891  20.391   6.582
 3127POPC   C3B41253  22.796  20.396   7.033
 3127POPC   C4B41254  23.135  20.475   7.347
 3128POPC   NC341255  35.917  32.527   5.367
 3128POPC   PO441256  35.616  31.960   5.646
 3128POPC   GL141257  36.051  32.190   5.733
 3128POPC   GL241258  36.125  32.589   5.820
 3128POPC   C1A41259  36.174  32.175   6.165
 3128POPC   D2A41260  35.864  32.108   6.496
 3128POPC   C3A41261  36.057  31.961   6.841
 3128POPC   C4A41262  36.075  31.965   7.266
 3128POPC   C1B41263  36.229  32.687   6.250
 3128POPC   C2B41264  36.196  32.477   6.654
 3128POPC   C3B41265  35.970  32.423   7.042
 3128POPC   C4B41266  35.988  32.522   7.483
 3129POPC   NC341267  13.419  34.597   5.585
 3129POPC   PO441268  14.025  34.327   5.396
 3129POPC   GL141269  13.777  34.322   5.848
 3129POPC   GL241270  13.375  34.373   6.031
 3129POPC   C1A41271  13.791  34.351   6.288
 3129POPC   D2A41272  13.738  34.589   6.655
 3129POPC   C3A41273  13.738  34.399   7.059
 3129POPC   C4A41274  13.792  34.596   7.430
 3129POPC   C1B41275  13.284  34.371   6.469
 3129POPC   C2B41276  13.266  34.650   6.827
 3129POPC   C3B41277  13.285  34.558   7.239
 3129POPC   C4B41278  13.306  34.764   7.597
 3130POPC   NC341279  31.190  11.920   5.357
 3130POPC   PO441280  31.784  12.260   5.230
 3130POPC   GL141281  31.663  11.932   5.579
 3130POPC   GL241282  31.505  12.141   5.814
 3130POPC   C1A41283  31.518  11.687   6.024
 3130POPC   D2A41284  31.420  11.644   6.504
 3130POPC   C3A41285  31.464  11.898   6.874
 3130POPC   C4A41286  31.488  11.816   7.348
 3130POPC   C1B41287  31.362  12.101   6.262
 3130POPC   C2B41288  31.025  12.210   6.505
 3130POPC   C3B41289  30.994  12.223   6.926
 3130POPC   C4B41290  31.357  12.285   7.162
 3131POPC   NC341291  37.146  22.528   5.683
 3131POPC   PO441292  36.660  22.039   5.297
 3131POPC   GL141293  36.634  22.289   5.663
 3131POPC   GL241294  36.776  22.032   5.832
 3131POPC   C1A41295  36.511  22.348   6.124
 3131POPC   D2A41296  36.678  22.321   6.564
 3131POPC   C3A41297  36.967  22.222   6.893
 3131POPC   C4A41298  36.802  22.365   7.294
 3131POPC   C1B41299  37.013  22.163   6.201
 3131POPC   C2B41300  37.333  22.086   6.495
 3131POPC   C3B41301  37.458  22.032   6.905
 3131POPC   C4B41302  37.435  21.823   7.260
 3132POPC   NC341303  20.475  19.980   5.589
 3132POPC   PO441304  20.117  19.380   5.506
 3132POPC   GL141305  20.370  19.590   5.881
 3132POPC   GL241306  20.737  19.682   5.927
 3132POPC   C1A41307  20.337  19.930   6.227
 3132POPC   D2A41308  20.551  20.019   6.614
 3132POPC   C3A41309  20.608  19.759   6.982
 3132POPC   C4A41310  20.695  20.116   7.229
 3132POPC   C1B41311  20.761  19.608   6.375
 3132POPC   C2B41312  21.047  19.676   6.732
 3132POPC   C3B41313  21.084  19.779   7.173
 3132POPC   C4B41314  21.025  19.935   7.592
 3133POPC   NC341315  21.699   6.963   5.487
 3133POPC   PO441316  22.156   6.414   5.365
 3133POPC   GL141317  22.295   6.624   5.754
 3133POPC   GL241318  21.953   6.691   5.845
 3133POPC   C1A41319  22.410   6.639   6.224
 3133POPC   D2A41320  22.448   6.443   6.655
 3133POPC   C3A41321  22.252   6.585   7.059
 3133POPC   C4A41322  22.245   6.832   7.458
 3133POPC   C1B41323  21.882   6.638   6.277
 3133POPC   C2B41324  21.941   6.763   6.698
 3133POPC   C3B41325  21.814   6.864   7.140
 3133POPC   C4B41326  21.751   6.950   7.603
 3134POPC   NC341327  35.177  16.435   5.450
 3134POPC   PO441328  35.287  15.725   5.397
 3134POPC   GL141329  35.361  15.967   5.701
 3134POPC   GL241330  35.058  16.077   5.826
 3134POPC   C1A41331  35.471  15.912   6.120
 3134POPC   D2A41332  35.318  15.899   6.515
 3134POPC   C3A41333  35.598  16.053   6.793
 3134POPC   C4A41334  35.533  16.008   7.202
 3134POPC   C1B41335  35.097  16.288   6.245
 3134POPC   C2B41336  35.201  16.372   6.723
 3134POPC   C3B41337  35.082  16.250   7.210
 3134POPC   C4B41338  35.070  16.254   7.736
 3135POPC   NC341339  10.382  27.154   5.468
 3135POPC   PO441340  10.779  26.632   5.413
 3135POPC   GL141341  10.410  26.681   5.734
 3135POPC   GL241342  10.295  26.965   5.912
 3135POPC   C1A41343  10.291  26.522   6.176
 3135POPC   D2A41344  10.542  26.397   6.546
 3135POPC   C3A41345  10.542  26.572   6.953
 3135POPC   C4A41346  10.458  26.768   7.342
 3135POPC   C1B41347  10.637  26.914   6.157
 3135POPC   C2B41348  10.471  26.906   6.554
 3135POPC   C3B41349  10.484  27.088   6.944
 3135POPC   C4B41350  10.182  27.206   7.282
 3136POPC   NC341351  39.532  18.775   5.074
 3136POPC   PO441352  39.883  19.316   5.333
 3136POPC   GL141353  39.890  19.089   5.707
 3136POPC   GL241354  39.561  19.211   5.735
 3136POPC   C1A41355  39.867  18.969   6.137
 3136POPC   D2A41356  39.563  18.910   6.457
 3136POPC   C3A41357  39.847  18.870   6.792
 3136POPC   C4A41358  40.179  19.046   7.089
 3136POPC   C1B41359  39.691  19.439   6.112
 3136POPC   C2B41360  39.869  19.343   6.525
 3136POPC   C3B41361  39.758  19.349   6.969
 3136POPC   C4B41362  39.683  18.999   7.260
 3137POPC   NC341363  20.318  29.092   5.445
 3137POPC   PO441364  20.872  29.338   5.750
 3137POPC   GL141365  20.470  29.296   5.900
 3137POPC   GL241366  20.544  28.957   5.895
 3137POPC   C1A41367  20.474  29.466   6.284
 3137POPC   D2A41368  20.726  29.370   6.634
 3137POPC   C3A41369  20.554  29.421   7.010
 3137POPC   C4A41370  20.179  29.626   7.140
 3137POPC   C1B41371  20.331  28.963   6.294
 3137POPC   C2B41372  20.448  28.926   6.690
 3137POPC   C3B41373  20.567  28.926   7.086
 3137POPC   C4B41374  20.158  29.096   7.166
 3138POPC   NC341375  16.042  18.937   5.605
 3138POPC   PO441376  15.372  18.767   5.478
 3138POPC   GL141377  15.620  18.829   5.908
 3138POPC   GL241378  15.692  19.182   5.973
 3138POPC   C1A41379  15.880  18.580   6.232
 3138POPC   D2A41380  15.840  18.424   6.640
 3138POPC   C3A41381  15.668  18.776   6.876
 3138POPC   C4A41382  15.801  19.041   7.227
 3138POPC   C1B41383  16.051  19.058   6.246
 3138POPC   C2B41384  16.307  18.801   6.513
 3138POPC   C3B41385  16.301  18.966   6.950
 3138POPC   C4B41386  16.220  19.345   7.209
 3139POPC   NC341387  37.761  12.823   5.446
 3139POPC   PO441388  37.999  13.459   5.450
 3139POPC   GL141389  37.745  13.260   5.827
 3139POPC   GL241390  37.556  12.913   5.901
 3139POPC   C1A41391  37.815  13.108   6.275
 3139POPC   D2A41392  37.813  12.772   6.583
 3139POPC   C3A41393  37.808  12.966   6.997
 3139POPC   C4A41394  37.488  13.185   7.246
 3139POPC   C1B41395  37.528  12.523   6.161
 3139POPC   C2B41396  37.418  12.357   6.567
 3139POPC   C3B41397  37.500  12.550   6.950
 3139POPC   C4B41398  37.424  12.307   7.282
 3140POPC   NC341399   9.138   8.391   5.324
 3140POPC   PO441400   8.813   7.763   5.460
 3140POPC   GL141401   9.071   7.967   5.834
 3140POPC   GL241402   8.974   8.288   5.858
 3140POPC   C1A41403   9.088   7.964   6.332
 3140POPC   D2A41404   8.855   7.957   6.731
 3140POPC   C3A41405   8.913   8.321   7.013
 3140POPC   C4A41406   9.155   8.252   7.387
 3140POPC   C1B41407   9.287   8.380   6.153
 3140POPC   C2B41408   9.179   8.462   6.600
 3140POPC   C3B41409   9.370   8.589   7.038
 3140POPC   C4B41410   9.432   8.659   7.533
 3141POPC   NC341411  42.190  31.669   5.018
 3141POPC   PO441412  42.620  31.206   5.388
 3141POPC   GL141413  42.521  31.520   5.702
 3141POPC   GL241414  42.397  31.227   5.884
 3141POPC   C1A41415  42.183  31.665   6.002
 3141POPC   D2A41416  42.147  31.419   6.399
 3141POPC   C3A41417  42.290  31.548   6.804
 3141POPC   C4A41418  42.058  31.226   7.070
 3141POPC   C1B41419  42.368  30.961   6.278
 3141POPC   C2B41420  42.426  31.064   6.717
 3141POPC   C3B41421  42.557  31.200   7.129
 3141POPC   C4B41422  42.275  31.080   7.511
 3142POPC   NC341423   0.690  21.067   5.418
 3142POPC   PO441424   0.089  21.455   5.453
 3142POPC   GL141425   0.354  21.272   5.771
 3142POPC   GL241426   0.701  21.440   5.785
 3142POPC   C1A41427   0.303  21.219   6.204
 3142POPC   D2A41428   0.173  21.309   6.615
 3142POPC   C3A41429   0.294  21.278   7.026
 3142POPC   C4A41430   0.332  21.691   7.251
 3142POPC   C1B41431   0.748  21.486   6.235
 3142POPC   C2B41432   0.810  21.255   6.618
 3142POPC   C3B41433   0.789  21.230   7.054
 3142POPC   C4B41434   0.834  21.566   7.306
 3143POPC   NC341435  37.871  40.513   5.541
 3143POPC   PO441436  37.347  40.893   5.490
 3143POPC   GL141437  37.523  40.755   5.850
 3143POPC   GL241438  37.446  40.420   5.808
 3143POPC   C1A41439  37.618  40.891   6.270
 3143POPC   D2A41440  37.597  40.852   6.717
 3143POPC   C3A41441  37.991  40.851   6.932
 3143POPC   C4A41442  37.862  40.952   7.299
 3143POPC   C1B41443  37.686  40.390   6.202
 3143POPC   C2B41444  37.841  40.387   6.620
 3143POPC   C3B41445  37.695  40.459   7.047
 3143POPC   C4B41446  37.662  40.479   7.470
 3144POPC   NC341447  41.121  17.317   5.475
 3144POPC   PO441448  40.745  17.779   5.048
 3144POPC   GL141449  40.888  17.760   5.580
 3144POPC   GL241450  40.740  17.514   5.784
 3144POPC   C1A41451  40.928  17.763   6.148
 3144POPC   D2A41452  40.699  17.648   6.539
 3144POPC   C3A41453  40.967  17.723   6.915
 3144POPC   C4A41454  40.977  17.598   7.303
 3144POPC   C1B41455  40.754  17.271   6.176
 3144POPC   C2B41456  40.503  17.083   6.480
 3144POPC   C3B41457  40.558  17.057   6.886
 3144POPC   C4B41458  40.680  17.128   7.308
 3145POPC   NC341459  32.716  33.254   5.426
 3145POPC   PO441460  33.246  33.003   5.157
 3145POPC   GL141461  33.126  32.956   5.666
 3145POPC   GL241462  33.287  33.152   5.972
 3145POPC   C1A41463  32.999  32.770   6.108
 3145POPC   D2A41464  32.675  32.892   6.431
 3145POPC   C3A41465  32.860  32.891   6.865
 3145POPC   C4A41466  32.834  32.839   7.344
 3145POPC   C1B41467  32.925  33.306   6.216
 3145POPC   C2B41468  32.831  33.380   6.652
 3145POPC   C3B41469  33.143  33.291   7.004
 3145POPC   C4B41470  33.245  33.223   7.423
 3146POPC   NC341471  10.920   7.198   5.574
 3146POPC   PO441472  11.608   7.207   5.579
 3146POPC   GL141473  11.361   7.186   5.934
 3146POPC   GL241474  11.110   7.406   6.003
 3146POPC   C1A41475  11.409   7.199   6.374
 3146POPC   D2A41476  11.644   7.241   6.731
 3146POPC   C3A41477  11.348   7.177   6.985
 3146POPC   C4A41478  11.333   7.050   7.399
 3146POPC   C1B41479  11.115   7.637   6.406
 3146POPC   C2B41480  10.935   7.498   6.800
 3146POPC   C3B41481  10.976   7.577   7.245
 3146POPC   C4B41482  11.057   7.402   7.646
 3147POPC   NC341483  39.147  25.851   5.042
 3147POPC   PO441484  39.540  25.949   5.629
 3147POPC   GL141485  39.240  26.011   5.931
 3147POPC   GL241486  39.138  25.684   5.872
 3147POPC   C1A41487  39.349  26.192   6.320
 3147POPC   D2A41488  39.390  25.974   6.739
 3147POPC   C3A41489  39.084  26.103   7.068
 3147POPC   C4A41490  38.986  26.078   7.506
 3147POPC   C1B41491  39.212  25.686   6.301
 3147POPC   C2B41492  39.004  25.502   6.597
 3147POPC   C3B41493  38.938  25.613   6.998
 3147POPC   C4B41494  39.063  25.582   7.412
 3148POPC   NC341495  35.644   4.936   5.521
 3148POPC   PO441496  35.150   5.370   5.347
 3148POPC   GL141497  35.178   5.063   5.715
 3148POPC   GL241498  35.359   5.278   5.906
 3148POPC   C1A41499  35.397   4.825   6.131
 3148POPC   D2A41500  35.527   4.745   6.578
 3148POPC   C3A41501  35.261   4.820   6.943
 3148POPC   C4A41502  35.485   4.837   7.356
 3148POPC   C1B41503  34.962   5.126   6.164
 3148POPC   C2B41504  35.021   5.181   6.597
 3148POPC   C3B41505  35.339   5.305   6.888
 3148POPC   C4B41506  35.149   5.233   7.268
 3149POPC   NC341507   3.880   7.953   5.474
 3149POPC   PO441508   3.322   8.179   5.411
 3149POPC   GL141509   3.233   8.317   5.814
 3149POPC   GL241510   3.511   8.081   5.882
 3149POPC   C1A41511   3.474   8.494   6.183
 3149POPC   D2A41512   3.652   8.433   6.594
 3149POPC   C3A41513   3.398   8.410   6.933
 3149POPC   C4A41514   3.507   8.468   7.340
 3149POPC   C1B41515   3.737   8.047   6.251
 3149POPC   C2B41516   3.573   7.936   6.649
 3149POPC   C3B41517   3.635   7.920   7.046
 3149POPC   C4B41518   3.433   7.943   7.405
 3150POPC   NC341519  36.183  21.977   5.245
 3150POPC   PO441520  35.620  22.290   5.381
 3150POPC   GL141521  35.935  22.182   5.754
 3150POPC   GL241522  36.249  21.928   5.760
 3150POPC   C1A41523  35.947  22.074   6.211
 3150POPC   D2A41524  35.807  21.856   6.608
 3150POPC   C3A41525  35.874  22.138   6.972
 3150POPC   C4A41526  35.720  22.093   7.407
 3150POPC   C1B41527  36.402  21.843   6.187
 3150POPC   C2B41528  36.317  21.940   6.610
 3150POPC   C3B41529  36.494  22.048   7.000
 3150POPC   C4B41530  36.504  21.987   7.448
 3151POPC   NC341531  34.833  29.817   5.533
 3151POPC   PO441532  34.172  29.963   5.352
 3151POPC   GL141533  34.332  29.761   5.727
 3151POPC   GL241534  34.423  30.083   5.812
 3151POPC   C1A41535  34.549  29.712   6.150
 3151POPC   D2A41536  34.473  29.871   6.579
 3151POPC   C3A41537  34.670  29.840   6.980
 3151POPC   C4A41538  34.462  29.702   7.405
 3151POPC   C1B41539  34.273  30.167   6.211
 3151POPC   C2B41540  34.485  30.456   6.485
 3151POPC   C3B41541  34.579  30.368   6.913
 3151POPC   C4B41542  34.618  30.190   7.352
 3152POPC   NC341543  33.587  38.116   5.642
 3152POPC   PO441544  34.072  38.579   5.391
 3152POPC   GL141545  33.837  38.571   5.808
 3152POPC   GL241546  33.949  38.895   5.827
 3152POPC   C1A41547  33.690  38.425   6.253
 3152POPC   D2A41548  33.738  38.160   6.627
 3152POPC   C3A41549  33.630  38.391   7.021
 3152POPC   C4A41550  33.630  38.274   7.443
 3152POPC   C1B41551  34.056  38.799   6.244
 3152POPC   C2B41552  33.881  38.744   6.677
 3152POPC   C3B41553  34.009  38.788   7.138
 3152POPC   C4B41554  34.020  38.559   7.565
 3153POPC   NC341555  44.610  18.664   5.376
 3153POPC   PO441556  44.395  19.305   5.223
 3153POPC   GL141557  44.568  19.144   5.683
 3153POPC   GL241558  44.656  18.779   5.853
 3153POPC   C1A41559  44.484  19.115   6.166
 3153POPC   D2A41560  44.316  18.848   6.518
 3153POPC   C3A41561  44.471  18.895   6.944
 3153POPC   C4A41562  44.814  19.125   7.187
 3153POPC   C1B41563  44.882  18.809   6.253
 3153POPC   C2B41564  44.949  18.941   6.695
 3153POPC   C3B41565   0.014  18.683   7.059
 3153POPC   C4B41566  44.843  18.725   7.504
 3154POPC   NC341567  19.476  43.284   5.557
 3154POPC   PO441568  18.893  42.831   5.652
 3154POPC   GL141569  18.660  43.101   5.943
 3154POPC   GL241570  18.851  43.414   5.926
 3154POPC   C1A41571  18.557  43.164   6.378
 3154POPC   D2A41572  18.719  43.313   6.783
 3154POPC   C3A41573  18.869  42.990   7.070
 3154POPC   C4A41574  19.037  42.999   7.478
 3154POPC   C1B41575  19.180  43.199   6.193
 3154POPC   C2B41576  19.381  43.252   6.584
 3154POPC   C3B41577  19.224  43.375   6.973
 3154POPC   C4B41578  19.408  43.289   7.357
 3155POPC   NC341579   3.055   2.765   5.489
 3155POPC   PO441580   2.416   2.480   5.505
 3155POPC   GL141581   2.438   2.657   5.880
 3155POPC   GL241582   2.675   2.925   5.806
 3155POPC   C1A41583   2.668   2.669   6.241
 3155POPC   D2A41584   2.749   2.917   6.583
 3155POPC   C3A41585   2.551   2.722   6.873
 3155POPC   C4A41586   2.629   2.560   7.236
 3155POPC   C1B41587   2.546   3.172   6.149
 3155POPC   C2B41588   2.294   3.241   6.492
 3155POPC   C3B41589   2.428   3.247   6.896
 3155POPC   C4B41590   2.772   3.124   7.191
 3156POPC   NC341591  15.803  12.989   5.464
 3156POPC   PO441592  16.375  12.583   5.390
 3156POPC   GL141593  16.084  12.616   5.735
 3156POPC   GL241594  15.714  12.546   5.719
 3156POPC   C1A41595  15.964  12.812   6.133
 3156POPC   D2A41596  15.970  12.895   6.559
 3156POPC   C3A41597  16.285  12.923   6.853
 3156POPC   C4A41598  16.153  12.848   7.260
 3156POPC   C1B41599  15.561  12.513   6.146
 3156POPC   C2B41600  15.727  12.425   6.550
 3156POPC   C3B41601  15.844  12.585   6.958
 3156POPC   C4B41602  15.700  12.495   7.389
 3157POPC   NC341603   6.976  27.127   5.483
 3157POPC   PO441604   6.846  27.671   5.165
 3157POPC   GL141605   6.717  27.596   5.636
 3157POPC   GL241606   6.343  27.500   5.669
 3157POPC   C1A41607   6.677  27.638   6.123
 3157POPC   D2A41608   6.536  27.919   6.490
 3157POPC   C3A41609   6.720  28.010   6.916
 3157POPC   C4A41610   6.789  27.969   7.386
 3157POPC   C1B41611   6.318  27.266   6.073
 3157POPC   C2B41612   6.423  27.253   6.486
 3157POPC   C3B41613   6.621  27.469   6.798
 3157POPC   C4B41614   6.464  27.644   7.184
 3158POPC   NC341615  29.022  43.773   5.273
 3158POPC   PO441616  29.177  44.410   5.338
 3158POPC   GL141617  29.080  44.224   5.839
 3158POPC   GL241618  29.162  43.862   5.770
 3158POPC   C1A41619  29.257  44.250   6.267
 3158POPC   D2A41620  29.351  44.163   6.702
 3158POPC   C3A41621  29.016  43.940   6.937
 3158POPC   C4A41622  28.979  43.704   7.345
 3158POPC   C1B41623  29.419  43.781   6.134
 3158POPC   C2B41624  29.277  43.684   6.559
 3158POPC   C3B41625  29.461  43.671   6.959
 3158POPC   C4B41626  29.611  43.404   7.252
 3159POPC   NC341627  15.668  35.873   5.353
 3159POPC   PO441628  16.072  36.313   5.562
 3159POPC   GL141629  15.862  36.200   5.920
 3159POPC   GL241630  15.907  35.822   5.858
 3159POPC   C1A41631  15.933  36.360   6.366
 3159POPC   D2A41632  16.237  36.171   6.702
 3159POPC   C3A41633  16.070  36.116   7.119
 3159POPC   C4A41634  15.736  36.201   7.383
 3159POPC   C1B41635  15.981  35.862   6.328
 3159POPC   C2B41636  15.781  35.869   6.747
 3159POPC   C3B41637  15.840  35.662   7.156
 3159POPC   C4B41638  15.971  35.337   7.448
 3160POPC   NC341639  22.432   3.487   5.484
 3160POPC   PO441640  21.824   3.615   5.420
 3160POPC   GL141641  22.013   3.750   5.770
 3160POPC   GL241642  21.822   3.997   5.896
 3160POPC   C1A41643  22.114   3.603   6.172
 3160POPC   D2A41644  22.247   3.552   6.587
 3160POPC   C3A41645  22.007   3.225   6.822
 3160POPC   C4A41646  21.909   3.277   7.269
 3160POPC   C1B41647  21.835   3.996   6.336
 3160POPC   C2B41648  21.746   3.668   6.596
 3160POPC   C3B41649  21.952   3.708   6.974
 3160POPC   C4B41650  22.210   3.722   7.282
 3161POPC   NC341651  24.114   0.204   5.563
 3161POPC   PO441652  24.835   0.148   5.468
 3161POPC   GL141653  24.595   0.400   5.803
 3161POPC   GL241654  24.309   0.255   6.023
 3161POPC   C1A41655  24.689   0.573   6.204
 3161POPC   D2A41656  24.471   0.443   6.579
 3161POPC   C3A41657  24.526   0.624   6.974
 3161POPC   C4A41658  24.588   0.302   7.261
 3161POPC   C1B41659  24.177   0.647   6.210
 3161POPC   C2B41660  24.153   0.850   6.614
 3161POPC   C3B41661  24.005   0.666   6.986
 3161POPC   C4B41662  24.135   0.522   7.389
 3162POPC   NC341663  39.352  42.311   5.062
 3162POPC   PO441664  38.919  42.408   5.552
 3162POPC   GL141665  39.298  42.287   5.835
 3162POPC   GL241666  39.550  42.603   5.957
 3162POPC   C1A41667  39.244  42.239   6.277
 3162POPC   D2A41668  39.241  42.396   6.721
 3162POPC   C3A41669  39.357  42.134   7.097
 3162POPC   C4A41670  39.137  41.992   7.477
 3162POPC   C1B41671  39.200  42.829   6.140
 3162POPC   C2B41672  38.925  42.690   6.423
 3162POPC   C3B41673  38.875  42.723   6.870
 3162POPC   C4B41674  39.151  42.595   7.211
 3163POPC   NC341675  17.833  43.342   5.096
 3163POPC   PO441676  17.741  42.724   5.430
 3163POPC   GL141677  17.575  43.008   5.728
 3163POPC   GL241678  17.730  43.362   5.674
 3163POPC   C1A41679  17.679  42.914   6.170
 3163POPC   D2A41680  17.451  42.762   6.540
 3163POPC   C3A41681  17.606  42.912   6.959
 3163POPC   C4A41682  17.318  43.057   7.282
 3163POPC   C1B41683  17.567  43.413   6.105
 3163POPC   C2B41684  17.677  43.287   6.555
 3163POPC   C3B41685  17.626  43.495   6.978
 3163POPC   C4B41686  17.189  43.559   7.158
 3164POPC   NC341687   5.604  38.493   5.499
 3164POPC   PO441688   6.150  38.835   5.526
 3164POPC   GL141689   5.962  38.590   5.873
 3164POPC   GL241690   5.822  38.214   5.915
 3164POPC   C1A41691   6.126  38.474   6.256
 3164POPC   D2A41692   6.113  38.222   6.613
 3164POPC   C3A41693   6.046  38.503   6.957
 3164POPC   C4A41694   5.939  38.881   7.196
 3164POPC   C1B41695   5.676  38.117   6.362
 3164POPC   C2B41696   5.660  38.112   6.823
 3164POPC   C3B41697   5.598  38.149   7.266
 3164POPC   C4B41698   5.700  38.131   7.727
 3165POPC   NC341699  27.719  36.869   5.372
 3165POPC   PO441700  27.033  37.112   5.420
 3165POPC   GL141701  27.383  37.081   5.739
 3165POPC   GL241702  27.753  37.040   5.836
 3165POPC   C1A41703  27.386  36.964   6.202
 3165POPC   D2A41704  27.504  36.614   6.508
 3165POPC   C3A41705  27.486  36.720   6.971
 3165POPC   C4A41706  27.580  37.129   7.189
 3165POPC   C1B41707  27.883  36.949   6.268
 3165POPC   C2B41708  27.723  37.062   6.687
 3165POPC   C3B41709  28.000  36.892   7.061
 3165POPC   C4B41710  28.036  37.097   7.502
 3166POPC   NC341711  32.568   3.876   5.305
 3166POPC   PO441712  32.852   4.497   5.251
 3166POPC   GL141713  32.736   4.279   5.639
 3166POPC   GL241714  32.575   4.523   5.831
 3166POPC   C1A41715  32.966   4.268   6.059
 3166POPC   D2A41716  33.067   4.335   6.502
 3166POPC   C3A41717  32.927   4.184   6.905
 3166POPC   C4A41718  33.212   4.137   7.219
 3166POPC   C1B41719  32.603   4.640   6.252
 3166POPC   C2B41720  32.555   4.431   6.638
 3166POPC   C3B41721  32.615   4.613   7.047
 3166POPC   C4B41722  32.849   4.498   7.432
 3167POPC   NC341723  36.923  30.468   5.369
 3167POPC   PO441724  37.127  31.117   5.440
 3167POPC   GL141725  36.907  30.825   5.778
 3167POPC   GL241726  37.032  30.456   5.872
 3167POPC   C1A41727  36.579  30.610   6.065
 3167POPC   D2A41728  36.464  30.463   6.476
 3167POPC   C3A41729  36.740  30.612   6.803
 3167POPC   C4A41730  36.645  30.686   7.227
 3167POPC   C1B41731  37.073  30.388   6.330
 3167POPC   C2B41732  37.246  30.376   6.767
 3167POPC   C3B41733  37.168  30.657   7.102
 3167POPC   C4B41734  37.004  31.080   7.223
 3168POPC   NC341735  28.880  15.297   5.179
 3168POPC   PO441736  28.238  15.390   5.406
 3168POPC   GL141737  28.369  15.122   5.713
 3168POPC   GL241738  28.707  15.171   5.725
 3168POPC   C1A41739  28.373  15.031   6.148
 3168POPC   D2A41740  28.083  15.074   6.482
 3168POPC   C3A41741  28.297  15.140   6.844
 3168POPC   C4A41742  28.403  14.949   7.207
 3168POPC   C1B41743  28.781  15.354   6.145
 3168POPC   C2B41744  28.787  15.196   6.591
 3168POPC   C3B41745  28.731  15.349   7.028
 3168POPC   C4B41746  28.346  15.457   7.245
 3169POPC   NC341747  21.963  33.450   5.456
 3169POPC   PO441748  22.219  34.034   5.159
 3169POPC   GL141749  22.172  34.062   5.609
 3169POPC   GL241750  21.827  33.943   5.720
 3169POPC   C1A41751  22.200  34.072   6.063
 3169POPC   D2A41752  22.053  33.999   6.493
 3169POPC   C3A41753  22.363  33.997   6.820
 3169POPC   C4A41754  22.403  33.991   7.262
 3169POPC   C1B41755  21.879  33.649   6.099
 3169POPC   C2B41756  21.790  33.557   6.562
 3169POPC   C3B41757  21.914  33.759   6.965
 3169POPC   C4B41758  22.169  33.531   7.271
 3170POPC   NC341759  33.286  37.585   5.076
 3170POPC   PO441760  33.810  37.628   5.558
 3170POPC   GL141761  33.872  37.612   5.973
 3170POPC   GL241762  33.800  37.948   6.101
 3170POPC   C1A41763  33.622  37.505   6.327
 3170POPC   D2A41764  33.486  37.573   6.748
 3170POPC   C3A41765  33.813  37.538   6.999
 3170POPC   C4A41766  34.045  37.884   7.107
 3170POPC   C1B41767  33.349  37.974   6.275
 3170POPC   C2B41768  33.102  37.883   6.658
 3170POPC   C3B41769  33.315  37.934   7.095
 3170POPC   C4B41770  33.625  37.776   7.400
 3171POPC   NC341771  34.063  15.254   5.562
 3171POPC   PO441772  33.528  15.539   5.489
 3171POPC   GL141773  33.646  15.346   5.859
 3171POPC   GL241774  33.725  15.031   5.897
 3171POPC   C1A41775  33.958  15.327   6.219
 3171POPC   D2A41776  33.893  15.521   6.582
 3171POPC   C3A41777  34.000  15.339   7.001
 3171POPC   C4A41778  33.659  15.317   7.276
 3171POPC   C1B41779  33.719  14.845   6.276
 3171POPC   C2B41780  33.859  14.959   6.679
 3171POPC   C3B41781  33.838  14.829   7.123
 3171POPC   C4B41782  33.964  14.988   7.543
 3172POPC   NC341783  16.961  37.178   5.342
 3172POPC   PO441784  16.489  36.698   5.309
 3172POPC   GL141785  16.760  36.729   5.712
 3172POPC   GL241786  16.846  37.080   5.830
 3172POPC   C1A41787  16.730  36.751   6.188
 3172POPC   D2A41788  16.604  36.931   6.588
 3172POPC   C3A41789  16.767  36.641   6.892
 3172POPC   C4A41790  16.800  36.606   7.335
 3172POPC   C1B41791  16.768  37.297   6.215
 3172POPC   C2B41792  16.908  37.336   6.643
 3172POPC   C3B41793  16.855  37.122   7.010
 3172POPC   C4B41794  16.508  37.026   7.200
 3173POPC   NC341795   9.760  25.666   5.322
 3173POPC   PO441796   9.692  25.017   5.319
 3173POPC   GL141797   9.755  25.298   5.703
 3173POPC   GL241798   9.484  25.572   5.749
 3173POPC   C1A41799   9.866  25.231   6.153
 3173POPC   D2A41800  10.044  25.482   6.487
 3173POPC   C3A41801   9.901  25.404   6.843
 3173POPC   C4A41802   9.717  25.222   7.155
 3173POPC   C1B41803   9.379  25.403   6.135
 3173POPC   C2B41804   9.474  25.290   6.559
 3173POPC   C3B41805   9.362  25.536   6.918
 3173POPC   C4B41806   9.624  25.725   7.197
 3174POPC   NC341807   6.382  37.941   5.468
 3174POPC   PO441808   5.721  38.039   5.435
 3174POPC   GL141809   5.800  37.682   5.775
 3174POPC   GL241810   6.079  37.385   5.778
 3174POPC   C1A41811   5.962  37.714   6.221
 3174POPC   D2A41812   5.733  37.642   6.625
 3174POPC   C3A41813   5.841  37.641   7.056
 3174POPC   C4A41814   5.645  37.683   7.452
 3174POPC   C1B41815   6.247  37.286   6.217
 3174POPC   C2B41816   6.247  37.537   6.642
 3174POPC   C3B41817   6.261  37.902   6.985
 3174POPC   C4B41818   6.091  37.929   7.426
 3175POPC   NC341819   6.500  14.204   5.409
 3175POPC   PO441820   6.911  14.681   5.555
 3175POPC   GL141821   6.700  14.393   5.848
 3175POPC   GL241822   6.330  14.399   5.873
 3175POPC   C1A41823   6.848  14.250   6.242
 3175POPC   D2A41824   6.730  14.393   6.636
 3175POPC   C3A41825   6.909  14.225   6.953
 3175POPC   C4A41826   6.815  14.365   7.362
 3175POPC   C1B41827   6.354  14.307   6.315
 3175POPC   C2B41828   6.281  14.195   6.763
 3175POPC   C3B41829   6.467  14.050   7.143
 3175POPC   C4B41830   6.518  14.020   7.615
 3176POPC   NC341831  42.190  38.665   5.556
 3176POPC   PO441832  42.600  38.109   5.653
 3176POPC   GL141833  42.406  38.368   5.925
 3176POPC   GL241834  42.052  38.255   5.860
 3176POPC   C1A41835  42.429  38.704   6.254
 3176POPC   D2A41836  42.659  38.857   6.584
 3176POPC   C3A41837  42.604  38.529   6.842
 3176POPC   C4A41838  42.517  38.466   7.230
 3176POPC   C1B41839  42.080  38.315   6.306
 3176POPC   C2B41840  42.135  38.589   6.651
 3176POPC   C3B41841  42.086  38.690   7.069
 3176POPC   C4B41842  41.969  38.518   7.448
 3177POPC   NC341843   2.391  18.364   5.377
 3177POPC   PO441844   2.882  17.867   5.353
 3177POPC   GL141845   2.801  18.155   5.757
 3177POPC   GL241846   2.534  18.378   5.856
 3177POPC   C1A41847   2.892  18.343   6.209
 3177POPC   D2A41848   2.886  18.656   6.556
 3177POPC   C3A41849   2.834  18.538   7.021
 3177POPC   C4A41850   2.888  18.236   7.358
 3177POPC   C1B41851   2.393  18.394   6.277
 3177POPC   C2B41852   2.591  18.246   6.653
 3177POPC   C3B41853   2.456  18.168   7.069
 3177POPC   C4B41854   2.434  18.453   7.436
 3178POPC   NC341855   7.697  30.547   5.524
 3178POPC   PO441856   7.255  31.026   5.525
 3178POPC   GL141857   7.505  30.899   5.854
 3178POPC   GL241858   7.320  30.589   5.876
 3178POPC   C1A41859   7.413  30.979   6.266
 3178POPC   D2A41860   7.479  31.128   6.660
 3178POPC   C3A41861   7.304  30.907   7.006
 3178POPC   C4A41862   7.114  30.784   7.392
 3178POPC   C1B41863   7.582  30.493   6.240
 3178POPC   C2B41864   7.518  30.564   6.700
 3178POPC   C3B41865   7.622  30.513   7.165
 3178POPC   C4B41866   7.534  30.553   7.610
 3179POPC   NC341867  37.259  27.417   5.612
 3179POPC   PO441868  36.827  27.874   5.494
 3179POPC   GL141869  36.888  27.696   5.864
 3179POPC   GL241870  36.907  27.999   6.000
 3179POPC   C1A41871  36.780  27.462   6.243
 3179POPC   D2A41872  36.531  27.485   6.601
 3179POPC   C3A41873  36.715  27.538   7.004
 3179POPC   C4A41874  36.812  27.433   7.444
 3179POPC   C1B41875  37.207  27.756   6.251
 3179POPC   C2B41876  37.177  27.535   6.663
 3179POPC   C3B41877  37.203  27.707   7.087
 3179POPC   C4B41878  36.908  27.948   7.316
 3180POPC   NC341879  10.542  20.189   5.507
 3180POPC   PO441880  10.144  19.610   5.455
 3180POPC   GL141881  10.419  19.760   5.790
 3180POPC   GL241882  10.246  20.063   5.898
 3180POPC   C1A41883  10.444  19.767   6.260
 3180POPC   D2A41884  10.304  19.728   6.693
 3180POPC   C3A41885  10.575  19.698   7.084
 3180POPC   C4A41886  10.774  20.028   7.374
 3180POPC   C1B41887  10.335  20.266   6.277
 3180POPC   C2B41888  10.628  20.241   6.586
 3180POPC   C3B41889  10.495  20.183   6.966
 3180POPC   C4B41890  10.313  20.237   7.357
 3181POPC   NC341891  22.813   1.123   5.209
 3181POPC   PO441892  23.348   1.397   5.467
 3181POPC   GL141893  23.011   1.147   5.710
 3181POPC   GL241894  22.673   1.308   5.774
 3181POPC   C1A41895  22.846   0.982   6.129
 3181POPC   D2A41896  23.035   0.921   6.566
 3181POPC   C3A41897  22.945   1.113   6.982
 3181POPC   C4A41898  23.095   1.515   7.161
 3181POPC   C1B41899  22.664   1.441   6.233
 3181POPC   C2B41900  22.737   1.420   6.650
 3181POPC   C3B41901  22.585   1.492   7.065
 3181POPC   C4B41902  22.357   1.293   7.361
 3182POPC   NC341903  32.023  12.656   5.052
 3182POPC   PO441904  31.520  13.052   5.363
 3182POPC   GL141905  31.414  12.889   5.778
 3182POPC   GL241906  31.222  12.556   5.773
 3182POPC   C1A41907  31.548  13.065   6.176
 3182POPC   D2A41908  31.777  13.297   6.497
 3182POPC   C3A41909  31.573  13.256   6.903
 3182POPC   C4A41910  31.640  13.108   7.334
 3182POPC   C1B41911  31.321  12.599   6.219
 3182POPC   C2B41912  31.452  12.494   6.651
 3182POPC   C3B41913  31.549  12.727   7.029
 3182POPC   C4B41914  31.320  12.709   7.450
 3183POPC   NC341915  17.969  42.545   5.069
 3183POPC   PO441916  17.518  42.061   5.353
 3183POPC   GL141917  17.460  42.265   5.731
 3183POPC   GL241918  17.474  41.956   5.908
 3183POPC   C1A41919  17.407  42.403   6.135
 3183POPC   D2A41920  17.454  42.123   6.507
 3183POPC   C3A41921  17.267  42.253   6.867
 3183POPC   C4A41922  17.521  42.418   7.209
 3183POPC   C1B41923  17.835  41.975   6.212
 3183POPC   C2B41924  17.984  42.001   6.623
 3183POPC   C3B41925  17.776  42.020   7.018
 3183POPC   C4B41926  17.434  41.787   7.087
 3184POPC   NC341927  44.386  19.621   5.561
 3184POPC   PO441928   0.058  19.829   5.465
 3184POPC   GL141929  44.803  19.894   5.829
 3184POPC   GL241930  44.700  19.565   5.962
 3184POPC   C1A41931  44.732  19.964   6.292
 3184POPC   D2A41932  44.590  20.232   6.657
 3184POPC   C3A41933  44.524  20.012   7.047
 3184POPC   C4A41934  44.322  20.021   7.436
 3184POPC   C1B41935  44.346  19.585   6.281
 3184POPC   C2B41936  44.269  19.352   6.696
 3184POPC   C3B41937  44.412  19.397   7.130
 3184POPC   C4B41938  44.670  19.645   7.383
 3185POPC   NC341939  35.002  14.023   5.461
 3185POPC   PO441940  35.560  14.454   5.396
 3185POPC   GL141941  35.369  14.281   5.750
 3185POPC   GL241942  35.048  14.476   5.733
 3185POPC   C1A41943  35.440  14.453   6.160
 3185POPC   D2A41944  35.694  14.455   6.521
 3185POPC   C3A41945  35.510  14.475   6.887
 3185POPC   C4A41946  35.667  14.439   7.289
 3185POPC   C1B41947  34.970  14.220   6.095
 3185POPC   C2B41948  35.080  14.318   6.508
 3185POPC   C3B41949  35.047  14.251   6.914
 3185POPC   C4B41950  35.159  14.504   7.257
 3186POPC   NC341951  15.171  11.461   4.887
 3186POPC   PO441952  14.713  11.093   5.209
 3186POPC   GL141953  14.949  11.063   5.651
 3186POPC   GL241954  15.288  11.268   5.698
 3186POPC   C1A41955  14.966  11.224   6.108
 3186POPC   D2A41956  15.101  11.420   6.497
 3186POPC   C3A41957  14.774  11.487   6.788
 3186POPC   C4A41958  14.795  11.408   7.214
 3186POPC   C1B41959  15.449  11.060   6.086
 3186POPC   C2B41960  15.227  10.905   6.438
 3186POPC   C3B41961  15.175  11.046   6.859
 3186POPC   C4B41962  15.135  10.999   7.280
 3187POPC   NC341963  18.529  23.222   5.520
 3187POPC   PO441964  18.181  22.697   5.253
 3187POPC   GL141965  18.106  22.862   5.718
 3187POPC   GL241966  17.996  23.160   5.774
 3187POPC   C1A41967  18.231  22.813   6.161
 3187POPC   D2A41968  18.200  22.687   6.569
 3187POPC   C3A41969  18.368  22.995   6.832
 3187POPC   C4A41970  18.510  23.084   7.219
 3187POPC   C1B41971  17.817  23.086   6.180
 3187POPC   C2B41972  17.910  23.131   6.589
 3187POPC   C3B41973  17.872  22.909   6.937
 3187POPC   C4B41974  18.094  22.787   7.266
 3188POPC   NC341975  32.843  21.668   5.604
 3188POPC   PO441976  33.468  21.559   5.435
 3188POPC   GL141977  33.246  21.262   5.682
 3188POPC   GL241978  32.884  21.143   5.689
 3188POPC   C1A41979  33.168  21.305   6.119
 3188POPC   D2A41980  33.302  21.324   6.550
 3188POPC   C3A41981  33.215  21.666   6.863
 3188POPC   C4A41982  32.820  21.706   7.083
 3188POPC   C1B41983  32.703  21.061   6.111
 3188POPC   C2B41984  32.801  21.128   6.565
 3188POPC   C3B41985  33.023  21.187   6.978
 3188POPC   C4B41986  32.903  21.093   7.409
 3189POPC   NC341987  17.020   5.815   5.284
 3189POPC   PO441988  16.347   5.825   5.378
 3189POPC   GL141989  16.539   5.677   5.799
 3189POPC   GL241990  16.924   5.683   5.820
 3189POPC   C1A41991  16.631   5.813   6.248
 3189POPC   D2A41992  16.437   5.882   6.660
 3189POPC   C3A41993  16.681   5.917   7.062
 3189POPC   C4A41994  16.859   6.105   7.423
 3189POPC   C1B41995  17.096   5.592   6.251
 3189POPC   C2B41996  17.033   5.823   6.663
 3189POPC   C3B41997  17.026   5.538   7.023
 3189POPC   C4B41998  17.070   5.646   7.471
 3190POPC   NC341999  17.132  19.399   5.289
 3190POPC   PO442000  16.656  18.972   5.214
 3190POPC   GL142001  16.937  18.991   5.588
 3190POPC   GL242002  16.628  18.896   5.733
 3190POPC   C1A42003  17.027  18.973   6.036
 3190POPC   D2A42004  16.860  18.971   6.467
 3190POPC   C3A42005  17.027  19.047   6.887
 3190POPC   C4A42006  16.758  18.865   7.194
 3190POPC   C1B42007  16.531  19.172   6.078
 3190POPC   C2B42008  16.466  19.304   6.506
 3190POPC   C3B42009  16.635  19.383   6.920
 3190POPC   C4B42010  16.895  19.335   7.309
 3191POPC   NC342011  36.150  11.980   5.428
 3191POPC   PO442012  35.788  12.510   5.653
 3191POPC   GL142013  36.014  12.175   5.881
 3191POPC   GL242014  36.328  12.101   5.937
 3191POPC   C1A42015  35.990  11.786   6.163
 3191POPC   D2A42016  36.080  11.612   6.585
 3191POPC   C3A42017  35.900  11.838   6.954
 3191POPC   C4A42018  36.141  12.008   7.276
 3191POPC   C1B42019  36.559  12.117   6.335
 3191POPC   C2B42020  36.545  12.197   6.800
 3191POPC   C3B42021  36.452  12.407   7.215
 3191POPC   C4B42022  36.492  12.302   7.673
 3192POPC   NC342023   7.671  18.621   5.557
 3192POPC   PO442024   7.199  18.162   5.548
 3192POPC   GL142025   7.148  18.366   5.920
 3192POPC   GL242026   7.436  18.578   6.017
 3192POPC   C1A42027   7.131  18.298   6.337
 3192POPC   D2A42028   7.396  18.501   6.611
 3192POPC   C3A42029   7.450  18.270   6.983
 3192POPC   C4A42030   7.081  18.222   7.230
 3192POPC   C1B42031   7.689  18.231   6.165
 3192POPC   C2B42032   7.905  18.206   6.564
 3192POPC   C3B42033   7.861  17.972   6.924
 3192POPC   C4B42034   7.822  17.811   7.342
 3193POPC   NC342035   6.282  20.779   5.444
 3193POPC   PO442036   5.706  20.413   5.591
 3193POPC   GL142037   6.063  20.564   5.878
 3193POPC   GL242038   6.063  20.943   5.884
 3193POPC   C1A42039   6.140  20.540   6.343
 3193POPC   D2A42040   5.912  20.754   6.670
 3193POPC   C3A42041   5.859  20.578   7.030
 3193POPC   C4A42042   6.113  20.520   7.353
 3193POPC   C1B42043   5.730  20.824   6.190
 3193POPC   C2B42044   5.439  20.909   6.546
 3193POPC   C3B42045   5.415  20.973   6.977
 3193POPC   C4B42046   5.685  21.062   7.295
 3194POPC   NC342047   8.067   0.191   5.373
 3194POPC   PO442048   7.909   0.834   5.547
 3194POPC   GL142049   8.183   0.560   5.829
 3194POPC   GL242050   8.291   0.206   5.830
 3194POPC   C1A42051   8.135   0.499   6.285
 3194POPC   D2A42052   8.381   0.728   6.611
 3194POPC   C3A42053   8.200   0.716   7.010
 3194POPC   C4A42054   7.894   0.451   7.180
 3194POPC   C1B42055   8.491   0.128   6.240
 3194POPC   C2B42056   8.393   0.219   6.700
 3194POPC   C3B42057   8.183   0.016   7.089
 3194POPC   C4B42058   8.430  44.907   7.472
 3195POPC   NC342059   3.761  44.862   5.180
 3195POPC   PO442060   3.102  44.886   5.470
 3195POPC   GL142061   3.350  44.654   5.773
 3195POPC   GL242062   3.719  44.661   5.702
 3195POPC   C1A42063   3.410  44.480   6.205
 3195POPC   D2A42064   3.640  44.515   6.610
 3195POPC   C3A42065   3.422  44.471   7.034
 3195POPC   C4A42066   3.520  44.651   7.472
 3195POPC   C1B42067   3.796  44.861   6.137
 3195POPC   C2B42068   3.747   0.040   6.565
 3195POPC   C3B42069   3.745  44.858   6.985
 3195POPC   C4B42070   3.840   0.062   7.355
 3196POPC   NC342071  15.961   4.332   5.553
 3196POPC   PO442072  16.065   3.871   5.856
 3196POPC   GL142073  16.036   4.333   6.047
 3196POPC   GL242074  16.233   4.630   5.869
 3196POPC   C1A42075  15.951   4.408   6.474
 3196POPC   D2A42076  15.684   4.232   6.806
 3196POPC   C3A42077  15.840   3.995   7.150
 3196POPC   C4A42078  15.815   4.104   7.561
 3196POPC   C1B42079  16.294   4.799   6.263
 3196POPC   C2B42080  16.332   4.651   6.684
 3196POPC   C3B42081  16.025   4.585   6.971
 3196POPC   C4B42082  15.990   4.764   7.357
 3197POPC   NC342083   0.104  44.575   5.086
 3197POPC   PO442084  44.524  44.513   5.369
 3197POPC   GL142085  44.798  44.545   5.740
 3197POPC   GL242086  44.969  44.853   5.597
 3197POPC   C1A42087  44.787  44.469   6.259
 3197POPC   D2A42088  44.568  44.594   6.680
 3197POPC   C3A42089  44.632  44.465   7.132
 3197POPC   C4A42090  44.465  44.373   7.578
 3197POPC   C1B42091  44.968   0.020   6.034
 3197POPC   C2B42092  44.946  44.928   6.487
 3197POPC   C3B42093  44.860  44.941   6.943
 3197POPC   C4B42094  44.827  44.893   7.383
 3198POPC   NC342095  20.496  28.111   5.375
 3198POPC   PO442096  20.390  28.758   5.094
 3198POPC   GL142097  20.333  28.575   5.608
 3198POPC   GL242098  20.229  28.227   5.782
 3198POPC   C1A42099  20.540  28.495   6.075
 3198POPC   D2A42100  20.834  28.464   6.416
 3198POPC   C3A42101  20.681  28.472   6.826
 3198POPC   C4A42102  20.810  28.451   7.230
 3198POPC   C1B42103  20.296  28.044   6.211
 3198POPC   C2B42104  20.424  27.985   6.672
 3198POPC   C3B42105  20.388  28.120   7.133
 3198POPC   C4B42106  20.378  28.090   7.634
 3199POPC   NC342107  44.135  16.518   5.307
 3199POPC   PO442108  43.688  17.048   5.311
 3199POPC   GL142109  43.925  16.869   5.688
 3199POPC   GL242110  44.141  17.114   5.859
 3199POPC   C1A42111  43.997  16.693   6.127
 3199POPC   D2A42112  43.983  16.434   6.514
 3199POPC   C3A42113  43.880  16.692   6.883
 3199POPC   C4A42114  43.810  16.646   7.302
 3199POPC   C1B42115  44.349  17.126   6.231
 3199POPC   C2B42116  44.259  16.897   6.575
 3199POPC   C3B42117  44.387  16.795   6.966
 3199POPC   C4B42118  44.155  16.999   7.268
 3200POPC   NC342119  27.617  34.884   5.430
 3200POPC   PO442120  27.771  34.177   5.377
 3200POPC   GL142121  27.739  34.459   5.740
 3200POPC   GL242122  27.545  34.220   5.952
 3200POPC   C1A42123  27.574  34.671   6.152
 3200POPC   D2A42124  27.468  34.432   6.543
 3200POPC   C3A42125  27.359  34.684   6.881
 3200POPC   C4A42126  27.527  34.668   7.268
 3200POPC   C1B42127  27.948  34.347   6.184
 3200POPC   C2B42128  27.957  34.615   6.557
 3200POPC   C3B42129  27.824  34.422   6.943
 3200POPC   C4B42130  27.875  34.014   7.100
 3201POPC   NC342131  43.895  14.909   5.319
 3201POPC   PO442132  43.725  14.295   5.346
 3201POPC   GL142133  43.779  14.509   5.691
 3201POPC   GL242134  43.455  14.655   5.667
 3201POPC   C1A42135  43.947  14.364   6.087
 3201POPC   D2A42136  44.010  14.349   6.522
 3201POPC   C3A42137  44.021  14.005   6.781
 3201POPC   C4A42138  44.131  14.094   7.180
 3201POPC   C1B42139  43.446  14.492   6.127
 3201POPC   C2B42140  43.494  14.385   6.587
 3201POPC   C3B42141  43.749  14.415   6.992
 3201POPC   C4B42142  43.639  14.589   7.420
 3202POPC   NC342143  11.708   6.743   5.159
 3202POPC   PO442144  12.089   6.429   5.589
 3202POPC   GL142145  12.252   6.668   5.936
 3202POPC   GL242146  12.519   6.421   5.869
 3202POPC   C1A42147  12.134   6.862   6.316
 3202POPC   D2A42148  11.729   6.791   6.495
 3202POPC   C3A42149  11.754   6.765   6.908
 3202POPC   C4A42150  11.628   6.640   7.295
 3202POPC   C1B42151  12.315   6.311   6.272
 3202POPC   C2B42152  12.140   6.462   6.674
 3202POPC   C3B42153  12.063   6.424   7.115
 3202POPC   C4B42154  12.342   6.408   7.467
 3203POPC   NC342155   8.542   5.193   5.568
 3203POPC   PO442156   8.133   4.788   5.375
 3203POPC   GL142157   8.275   4.799   5.805
 3203POPC   GL242158   8.096   5.098   5.827
 3203POPC   C1A42159   8.274   4.893   6.275
 3203POPC   D2A42160   8.123   4.806   6.720
 3203POPC   C3A42161   8.233   4.996   7.156
 3203POPC   C4A42162   8.268   4.789   7.587
 3203POPC   C1B42163   7.947   5.272   6.205
 3203POPC   C2B42164   8.185   5.302   6.591
 3203POPC   C3B42165   8.496   5.361   6.896
 3203POPC   C4B42166   8.292   5.495   7.246
 3204POPC   NC342167  23.792  27.354   5.389
 3204POPC   PO442168  23.497  26.751   5.237
 3204POPC   GL142169  23.483  26.810   5.680
 3204POPC   GL242170  23.818  26.926   5.747
 3204POPC   C1A42171  23.550  26.743   6.141
 3204POPC   D2A42172  23.753  26.642   6.537
 3204POPC   C3A42173  23.470  26.728   6.886
 3204POPC   C4A42174  23.379  26.792   7.322
 3204POPC   C1B42175  24.016  26.972   6.161
 3204POPC   C2B42176  24.169  26.945   6.562
 3204POPC   C3B42177  23.990  26.871   6.954
 3204POPC   C4B42178  24.043  26.985   7.383
 3205POPC   NC342179   8.915  40.358   5.218
 3205POPC   PO442180   8.763  40.978   5.392
 3205POPC   GL142181   9.035  40.924   5.742
 3205POPC   GL242182   9.147  40.571   5.677
 3205POPC   C1A42183   8.919  40.780   6.167
 3205POPC   D2A42184   8.742  40.644   6.563
 3205POPC   C3A42185   8.930  40.883   6.913
 3205POPC   C4A42186   9.139  41.154   7.234
 3205POPC   C1B42187   9.118  40.297   6.043
 3205POPC   C2B42188   9.217  40.284   6.476
 3205POPC   C3B42189   9.040  40.378   6.864
 3205POPC   C4B42190   9.137  40.517   7.251
 3206POPC   NC342191   5.441  18.759   5.636
 3206POPC   PO442192   4.861  19.047   5.443
 3206POPC   GL142193   4.984  18.915   5.830
 3206POPC   GL242194   5.245  19.170   5.867
 3206POPC   C1A42195   4.806  18.981   6.236
 3206POPC   D2A42196   4.912  19.150   6.626
 3206POPC   C3A42197   4.780  18.928   6.968
 3206POPC   C4A42198   5.014  18.872   7.343
 3206POPC   C1B42199   5.336  19.043   6.270
 3206POPC   C2B42200   5.447  19.170   6.669
 3206POPC   C3B42201   5.444  18.974   7.062
 3206POPC   C4B42202   5.506  18.852   7.502
 3207POPC   NC342203  32.808  38.445   5.256
 3207POPC   PO442204  33.385  38.533   5.581
 3207POPC   GL142205  33.160  38.334   5.877
 3207POPC   GL242206  32.838  38.347   5.754
 3207POPC   C1A42207  33.163  38.471   6.275
 3207POPC   D2A42208  33.272  38.364   6.655
 3207POPC   C3A42209  33.128  38.616   6.962
 3207POPC   C4A42210  33.153  38.476   7.377
 3207POPC   C1B42211  32.680  38.602   6.080
 3207POPC   C2B42212  32.796  38.756   6.499
 3207POPC   C3B42213  32.618  38.838   6.870
 3207POPC   C4B42214  32.672  38.596   7.203
 3208POPC   NC342215  23.915  24.824   5.616
 3208POPC   PO442216  23.510  25.360   5.531
 3208POPC   GL142217  23.591  25.467   5.931
 3208POPC   GL242218  23.876  25.264   5.945
 3208POPC   C1A42219  23.609  25.428   6.372
 3208POPC   D2A42220  23.608  25.153   6.724
 3208POPC   C3A42221  23.700  25.363   7.070
 3208POPC   C4A42222  23.674  25.207   7.474
 3208POPC   C1B42223  23.849  24.969   6.302
 3208POPC   C2B42224  24.067  24.896   6.711
 3208POPC   C3B42225  24.043  24.985   7.171
 3208POPC   C4B42226  24.109  25.033   7.651
 3209POPC   NC342227  24.293  35.756   5.588
 3209POPC   PO442228  24.767  36.234   5.497
 3209POPC   GL142229  24.488  36.145   5.852
 3209POPC   GL242230  24.130  36.205   5.796
 3209POPC   C1A42231  24.379  35.865   6.227
 3209POPC   D2A42232  24.161  35.681   6.550
 3209POPC   C3A42233  24.400  35.786   6.937
 3209POPC   C4A42234  24.562  36.108   7.157
 3209POPC   C1B42235  24.164  36.335   6.226
 3209POPC   C2B42236  24.245  36.181   6.633
 3209POPC   C3B42237  24.130  36.325   7.029
 3209POPC   C4B42238  24.379  36.557   7.294
 3210POPC   NC342239  19.348  24.806   5.374
 3210POPC   PO442240  19.006  24.256   5.518
 3210POPC   GL142241  19.226  24.497   5.795
 3210POPC   GL242242  19.439  24.201   5.867
 3210POPC   C1A42243  19.158  24.796   6.151
 3210POPC   D2A42244  19.292  24.741   6.585
 3210POPC   C3A42245  19.022  24.728   6.966
 3210POPC   C4A42246  18.782  24.607   7.332
 3210POPC   C1B42247  19.208  24.264   6.262
 3210POPC   C2B42248  19.078  24.125   6.671
 3210POPC   C3B42249  19.136  24.243   7.097
 3210POPC   C4B42250  19.469  24.157   7.367
 3211POPC   NC342251  34.284   0.551   5.397
 3211POPC   PO442252  34.871   0.317   5.220
 3211POPC   GL142253  34.752   0.444   5.634
 3211POPC   GL242254  34.518   0.176   5.678
 3211POPC   C1A42255  34.930   0.452   6.073
 3211POPC   D2A42256  35.135   0.411   6.487
 3211POPC   C3A42257  34.810   0.435   6.801
 3211POPC   C4A42258  34.634   0.408   7.207
 3211POPC   C1B42259  34.410   0.317   6.084
 3211POPC   C2B42260  34.439   0.521   6.468
 3211POPC   C3B42261  34.269   0.453   6.862
 3211POPC   C4B42262  34.085   0.391   7.229
 3212POPC   NC342263  26.870   8.341   5.428
 3212POPC   PO442264  26.875   7.674   5.496
 3212POPC   GL142265  26.740   7.992   5.818
 3212POPC   GL242266  26.983   8.256   5.903
 3212POPC   C1A42267  26.724   8.044   6.277
 3212POPC   D2A42268  26.917   8.306   6.594
 3212POPC   C3A42269  26.724   8.286   7.000
 3212POPC   C4A42270  26.722   7.933   7.286
 3212POPC   C1B42271  27.160   8.632   6.146
 3212POPC   C2B42272  27.295   8.654   6.538
 3212POPC   C3B42273  27.047   8.718   6.894
 3212POPC   C4B42274  27.117   8.533   7.222
 3213POPC   NC342275  11.166  36.515   5.657
 3213POPC   PO442276  11.333  35.955   5.207
 3213POPC   GL142277  11.347  36.001   5.696
 3213POPC   GL242278  11.013  36.025   5.824
 3213POPC   C1A42279  11.447  36.098   6.163
 3213POPC   D2A42280  11.663  36.037   6.587
 3213POPC   C3A42281  11.393  36.244   6.879
 3213POPC   C4A42282  11.365  36.632   7.144
 3213POPC   C1B42283  10.932  36.160   6.259
 3213POPC   C2B42284  10.786  36.467   6.545
 3213POPC   C3B42285  10.923  36.456   6.953
 3213POPC   C4B42286  11.058  36.137   7.241
 3214POPC   NC342287   2.078  19.745   5.477
 3214POPC   PO442288   1.910  20.354   5.366
 3214POPC   GL142289   2.094  20.157   5.761
 3214POPC   GL242290   1.797  19.951   5.893
 3214POPC   C1A42291   2.221  19.989   6.194
 3214POPC   D2A42292   1.926  20.107   6.571
 3214POPC   C3A42293   2.004  20.044   7.021
 3214POPC   C4A42294   2.398  19.913   7.139
 3214POPC   C1B42295   1.863  19.658   6.264
 3214POPC   C2B42296   2.209  19.664   6.631
 3214POPC   C3B42297   2.052  19.541   7.040
 3214POPC   C4B42298   1.634  19.686   7.142
 3215POPC   NC342299   6.807  13.311   5.461
 3215POPC   PO442300   6.240  13.197   5.492
 3215POPC   GL142301   6.371  12.853   5.775
 3215POPC   GL242302   6.734  12.912   5.846
 3215POPC   C1A42303   6.326  12.868   6.239
 3215POPC   D2A42304   6.470  13.207   6.545
 3215POPC   C3A42305   6.688  13.095   6.940
 3215POPC   C4A42306   6.500  12.828   7.255
 3215POPC   C1B42307   6.848  12.868   6.307
 3215POPC   C2B42308   7.015  12.560   6.615
 3215POPC   C3B42309   6.933  12.572   7.063
 3215POPC   C4B42310   7.014  12.916   7.329
 3216POPC   NC342311  19.485  35.365   5.521
 3216POPC   PO442312  18.928  35.101   5.113
 3216POPC   GL142313  19.003  35.153   5.610
 3216POPC   GL242314  18.959  35.517   5.789
 3216POPC   C1A42315  19.097  35.093   6.088
 3216POPC   D2A42316  19.141  35.322   6.501
 3216POPC   C3A42317  19.076  35.204   6.944
 3216POPC   C4A42318  19.390  35.121   7.271
 3216POPC   C1B42319  18.868  35.671   6.241
 3216POPC   C2B42320  18.743  35.604   6.696
 3216POPC   C3B42321  18.807  35.737   7.132
 3216POPC   C4B42322  18.833  35.521   7.541
 3217POPC   NC342323   5.460  30.096   5.706
 3217POPC   PO442324   5.790  29.683   5.299
 3217POPC   GL142325   5.927  29.886   5.682
 3217POPC   GL242326   6.088  29.606   5.781
 3217POPC   C1A42327   5.991  30.027   6.132
 3217POPC   D2A42328   6.120  30.232   6.530
 3217POPC   C3A42329   5.957  30.088   6.938
 3217POPC   C4A42330   5.869  30.077   7.413
 3217POPC   C1B42331   6.368  29.670   6.112
 3217POPC   C2B42332   6.185  29.721   6.502
 3217POPC   C3B42333   6.295  29.691   6.907
 3217POPC   C4B42334   6.078  29.650   7.257
 3218POPC   NC342335  21.409  34.189   5.412
 3218POPC   PO442336  21.436  33.484   5.386
 3218POPC   GL142337  21.411  33.628   5.807
 3218POPC   GL242338  21.279  33.953   5.852
 3218POPC   C1A42339  21.382  33.635   6.255
 3218POPC   D2A42340  21.155  33.705   6.611
 3218POPC   C3A42341  21.415  33.573   6.913
 3218POPC   C4A42342  21.703  33.333   7.129
 3218POPC   C1B42343  21.124  34.129   6.254
 3218POPC   C2B42344  20.948  34.185   6.664
 3218POPC   C3B42345  21.189  34.068   7.003
 3218POPC   C4B42346  21.472  33.902   7.285
 3219POPC   NC342347  22.551  38.688   5.518
 3219POPC   PO442348  23.049  38.343   5.061
 3219POPC   GL142349  23.092  38.471   5.573
 3219POPC   GL242350  23.309  38.251   5.817
 3219POPC   C1A42351  23.104  38.675   6.028
 3219POPC   D2A42352  23.089  38.481   6.459
 3219POPC   C3A42353  23.098  38.553   6.912
 3219POPC   C4A42354  22.891  38.515   7.305
 3219POPC   C1B42355  23.353  38.085   6.257
 3219POPC   C2B42356  23.221  38.052   6.734
 3219POPC   C3B42357  23.302  38.127   7.195
 3219POPC   C4B42358  23.234  38.295   7.645
 3220POPC   NC342359  12.531   9.138   5.525
 3220POPC   PO442360  12.960   8.591   5.338
 3220POPC   GL142361  12.768   8.704   5.747
 3220POPC   GL242362  12.912   9.014   5.897
 3220POPC   C1A42363  12.726   8.706   6.225
 3220POPC   D2A42364  13.012   8.907   6.573
 3220POPC   C3A42365  12.857   8.904   7.006
 3220POPC   C4A42366  12.663   8.946   7.445
 3220POPC   C1B42367  12.963   9.307   6.248
 3220POPC   C2B42368  12.796   9.392   6.685
 3220POPC   C3B42369  12.789   9.394   7.155
 3220POPC   C4B42370  12.806   9.407   7.613
 3221POPC   NC342371  40.163  39.866   5.294
 3221POPC   PO442372  40.195  40.545   5.215
 3221POPC   GL142373  40.165  40.218   5.692
 3221POPC   GL242374  39.965  39.916   5.782
 3221POPC   C1A42375  40.198  40.244   6.163
 3221POPC   D2A42376  40.096  40.359   6.607
 3221POPC   C3A42377  39.771  40.160   6.848
 3221POPC   C4A42378  39.917  40.231   7.248
 3221POPC   C1B42379  40.117  39.745   6.190
 3221POPC   C2B42380  40.228  39.839   6.635
 3221POPC   C3B42381  40.103  39.796   7.083
 3221POPC   C4B42382  39.808  39.619   7.365
 3222POPC   NC342383  13.304   6.968   5.365
 3222POPC   PO442384  13.862   6.547   5.210
 3222POPC   GL142385  13.828   6.680   5.678
 3222POPC   GL242386  13.488   6.766   5.796
 3222POPC   C1A42387  13.849   6.582   6.132
 3222POPC   D2A42388  13.651   6.592   6.528
 3222POPC   C3A42389  13.821   6.600   6.924
 3222POPC   C4A42390  13.674   6.415   7.290
 3222POPC   C1B42391  13.283   6.739   6.186
 3222POPC   C2B42392  13.175   6.810   6.610
 3222POPC   C3B42393  13.326   6.798   7.042
 3222POPC   C4B42394  13.214   6.602   7.431
 3223POPC   NC342395  16.259  37.710   5.429
 3223POPC   PO442396  15.672  38.043   5.408
 3223POPC   GL142397  15.827  37.815   5.788
 3223POPC   GL242398  16.137  37.991   5.841
 3223POPC   C1A42399  15.820  37.631   6.240
 3223POPC   D2A42400  15.751  37.795   6.685
 3223POPC   C3A42401  15.880  37.583   7.098
 3223POPC   C4A42402  15.931  37.704   7.549
 3223POPC   C1B42403  16.139  38.070   6.263
 3223POPC   C2B42404  16.270  38.016   6.681
 3223POPC   C3B42405  16.304  37.887   7.106
 3223POPC   C4B42406  16.273  38.088   7.509
 3224POPC   NC342407  18.736  38.701   5.542
 3224POPC   PO442408  19.316  38.339   5.463
 3224POPC   GL142409  19.215  38.288   5.860
 3224POPC   GL242410  18.879  38.251   5.769
 3224POPC   C1A42411  19.197  38.440   6.253
 3224POPC   D2A42412  18.917  38.485   6.594
 3224POPC   C3A42413  19.087  38.558   6.992
 3224POPC   C4A42414  19.158  38.774   7.359
 3224POPC   C1B42415  18.748  38.209   6.176
 3224POPC   C2B42416  18.753  38.000   6.556
 3224POPC   C3B42417  18.816  38.114   7.001
 3224POPC   C4B42418  18.981  38.287   7.425
 3225POPC   NC342419   5.547  25.325   5.086
 3225POPC   PO442420   6.157  25.419   5.371
 3225POPC   GL142421   5.950  25.339   5.774
 3225POPC   GL242422   5.673  25.539   5.699
 3225POPC   C1A42423   5.805  25.220   6.223
 3225POPC   D2A42424   5.801  25.144   6.687
 3225POPC   C3A42425   6.160  25.031   6.978
 3225POPC   C4A42426   6.180  25.122   7.431
 3225POPC   C1B42427   5.477  25.577   6.102
 3225POPC   C2B42428   5.369  25.354   6.495
 3225POPC   C3B42429   5.467  25.456   6.918
 3225POPC   C4B42430   5.751  25.263   7.196
 3226POPC   NC342431   6.874  18.949   5.403
 3226POPC   PO442432   7.567  19.073   5.452
 3226POPC   GL142433   7.337  19.093   5.839
 3226POPC   GL242434   7.044  18.878   5.892
 3226POPC   C1A42435   7.551  19.272   6.196
 3226POPC   D2A42436   7.653  19.116   6.611
 3226POPC   C3A42437   7.593  19.419   6.936
 3226POPC   C4A42438   7.393  19.210   7.266
 3226POPC   C1B42439   7.190  18.919   6.334
 3226POPC   C2B42440   7.160  18.965   6.796
 3226POPC   C3B42441   7.227  18.721   7.123
 3226POPC   C4B42442   7.249  18.781   7.550
 3227POPC   NC342443  38.677  39.157   5.276
 3227POPC   PO442444  38.309  39.593   5.592
 3227POPC   GL142445  38.446  39.243   5.835
 3227POPC   GL242446  38.766  39.055   5.775
 3227POPC   C1A42447  38.261  39.180   6.250
 3227POPC   D2A42448  38.304  38.904   6.591
 3227POPC   C3A42449  38.224  39.099   6.988
 3227POPC   C4A42450  38.364  39.091   7.429
 3227POPC   C1B42451  38.777  39.098   6.232
 3227POPC   C2B42452  38.789  39.040   6.678
 3227POPC   C3B42453  38.727  39.187   7.081
 3227POPC   C4B42454  38.836  39.366   7.480
 3228POPC   NC342455  18.472  42.914   5.498
 3228POPC   PO442456  18.302  43.533   5.255
 3228POPC   GL142457  18.243  43.310   5.712
 3228POPC   GL242458  18.073  42.981   5.779
 3228POPC   C1A42459  18.071  43.288   6.186
 3228POPC   D2A42460  18.162  43.334   6.658
 3228POPC   C3A42461  18.057  43.189   7.088
 3228POPC   C4A42462  18.483  43.262   7.264
 3228POPC   C1B42463  18.201  42.798   6.174
 3228POPC   C2B42464  18.044  42.864   6.593
 3228POPC   C3B42465  18.390  42.870   6.887
 3228POPC   C4B42466  18.617  42.522   7.057
 3229POPC   NC342467  33.957  15.922   5.408
 3229POPC   PO442468  33.435  16.300   5.585
 3229POPC   GL142469  33.640  15.937   5.825
 3229POPC   GL242470  33.971  15.726   5.879
 3229POPC   C1A42471  33.575  15.760   6.225
 3229POPC   D2A42472  33.668  16.001   6.593
 3229POPC   C3A42473  33.717  15.778   6.989
 3229POPC   C4A42474  33.505  15.787   7.383
 3229POPC   C1B42475  34.123  16.089   6.064
 3229POPC   C2B42476  34.144  16.255   6.492
 3229POPC   C3B42477  34.010  16.239   6.917
 3229POPC   C4B42478  34.096  16.003   7.251
 3230POPC   NC342479  34.005  44.622   5.367
 3230POPC   PO442480  33.453   0.032   5.509
 3230POPC   GL142481  33.659  44.850   5.872
 3230POPC   GL242482  33.775  44.526   5.895
 3230POPC   C1A42483  33.617  44.769   6.318
 3230POPC   D2A42484  33.868  44.786   6.670
 3230POPC   C3A42485  33.776   0.022   7.023
 3230POPC   C4A42486  33.495  44.764   7.226
 3230POPC   C1B42487  34.151  44.414   6.142
 3230POPC   C2B42488  34.297  44.505   6.551
 3230POPC   C3B42489  34.120  44.458   6.951
 3230POPC   C4B42490  34.125  44.206   7.294
 3231POPC   NC342491  30.545   0.453   5.406
 3231POPC   PO442492  30.928  44.989   5.706
 3231POPC   GL142493  30.806   0.435   5.859
 3231POPC   GL242494  30.491   0.659   5.873
 3231POPC   C1A42495  30.820   0.592   6.281
 3231POPC   D2A42496  30.984   0.582   6.700
 3231POPC   C3A42497  30.791   0.493   7.086
 3231POPC   C4A42498  30.855   0.061   7.196
 3231POPC   C1B42499  30.322   0.774   6.286
 3231POPC   C2B42500  30.469   0.636   6.685
 3231POPC   C3B42501  30.338   0.306   6.965
 3231POPC   C4B42502  30.287   0.546   7.324
 3232POPC   NC342503  15.035  36.645   5.407
 3232POPC   PO442504  15.066  37.278   5.488
 3232POPC   GL142505  15.258  36.993   5.769
 3232POPC   GL242506  15.497  36.744   5.594
 3232POPC   C1A42507  15.252  37.068   6.222
 3232POPC   D2A42508  15.387  37.390   6.532
 3232POPC   C3A42509  15.314  37.259   6.961
 3232POPC   C4A42510  15.513  36.976   7.232
 3232POPC   C1B42511  15.439  36.584   6.044
 3232POPC   C2B42512  15.482  36.635   6.509
 3232POPC   C3B42513  15.242  36.638   6.919
 3232POPC   C4B42514  14.997  36.890   7.226
 3233POPC   NC342515  41.241   6.799   5.266
 3233POPC   PO442516  40.620   6.930   5.387
 3233POPC   GL142517  40.512   6.675   5.737
 3233POPC   GL242518  40.862   6.619   5.800
 3233POPC   C1A42519  40.523   6.403   6.116
 3233POPC   D2A42520  40.747   6.367   6.547
 3233POPC   C3A42521  40.553   6.435   6.981
 3233POPC   C4A42522  40.761   6.516   7.396
 3233POPC   C1B42523  40.808   6.812   6.215
 3233POPC   C2B42524  40.784   6.919   6.631
 3233POPC   C3B42525  40.971   6.777   6.997
 3233POPC   C4B42526  40.936   7.085   7.281
 3234POPC   NC342527  42.615  37.647   5.562
 3234POPC   PO442528  41.960  37.529   5.461
 3234POPC   GL142529  42.206  37.430   5.798
 3234POPC   GL242530  42.255  37.783   5.925
 3234POPC   C1A42531  42.309  37.381   6.243
 3234POPC   D2A42532  42.140  37.492   6.664
 3234POPC   C3A42533  42.453  37.652   6.919
 3234POPC   C4A42534  42.589  37.526   7.304
 3234POPC   C1B42535  42.369  37.889   6.371
 3234POPC   C2B42536  42.293  38.125   6.770
 3234POPC   C3B42537  42.204  38.028   7.189
 3234POPC   C4B42538  42.014  37.585   7.196
 3235POPC   NC342539   0.996  29.142   5.352
 3235POPC   PO442540   1.589  29.380   5.328
 3235POPC   GL142541   1.332  29.218   5.709
 3235POPC   GL242542   1.400  28.884   5.824
 3235POPC   C1A42543   1.127  29.210   6.121
 3235POPC   D2A42544   1.286  29.320   6.508
 3235POPC   C3A42545   1.110  29.389   6.909
 3235POPC   C4A42546   0.806  29.364   7.223
 3235POPC   C1B42547   1.504  28.887   6.281
 3235POPC   C2B42548   1.299  28.841   6.712
 3235POPC   C3B42549   1.285  28.978   7.143
 3235POPC   C4B42550   1.564  28.915   7.504
 3236POPC   NC342551  11.821  12.252   5.466
 3236POPC   PO442552  12.173  11.766   5.437
 3236POPC   GL142553  11.970  11.929   5.822
 3236POPC   GL242554  12.305  12.044   5.926
 3236POPC   C1A42555  11.953  11.871   6.287
 3236POPC   D2A42556  12.315  11.845   6.625
 3236POPC   C3A42557  12.362  12.081   7.021
 3236POPC   C4A42558  12.265  11.993   7.450
 3236POPC   C1B42559  12.257  12.278   6.332
 3236POPC   C2B42560  11.967  12.213   6.696
 3236POPC   C3B42561  11.811  12.426   7.074
 3236POPC   C4B42562  11.866  12.355   7.542
 3237POPC   NC342563  29.277   6.907   5.508
 3237POPC   PO442564  28.840   6.340   5.354
 3237POPC   GL142565  28.995   6.542   5.769
 3237POPC   GL242566  28.890   6.864   5.861
 3237POPC   C1A42567  29.276   6.687   6.171
 3237POPC   D2A42568  29.454   6.841   6.603
 3237POPC   C3A42569  29.291   6.735   7.028
 3237POPC   C4A42570  29.381   6.428   7.345
 3237POPC   C1B42571  28.775   6.648   6.226
 3237POPC   C2B42572  28.920   6.730   6.649
 3237POPC   C3B42573  28.748   6.635   7.061
 3237POPC   C4B42574  28.939   6.647   7.474
 3238POPC   NC342575   5.911  25.881   5.368
 3238POPC   PO442576   6.055  26.480   5.196
 3238POPC   GL142577   5.960  26.289   5.675
 3238POPC   GL242578   5.721  26.045   5.823
 3238POPC   C1A42579   6.086  26.264   6.113
 3238POPC   D2A42580   5.739  26.166   6.385
 3238POPC   C3A42581   5.761  26.079   6.826
 3238POPC   C4A42582   6.110  26.078   7.117
 3238POPC   C1B42583   5.973  25.759   6.082
 3238POPC   C2B42584   5.864  25.644   6.493
 3238POPC   C3B42585   5.944  25.615   6.898
 3238POPC   C4B42586   5.678  25.781   7.260
 3239POPC   NC342587  13.207  27.297   5.455
 3239POPC   PO442588  12.780  27.863   5.448
 3239POPC   GL142589  12.899  27.545   5.820
 3239POPC   GL242590  13.140  27.257   5.955
 3239POPC   C1A42591  12.940  27.647   6.256
 3239POPC   D2A42592  12.739  27.926   6.524
 3239POPC   C3A42593  12.712  27.798   6.941
 3239POPC   C4A42594  12.485  27.980   7.270
 3239POPC   C1B42595  12.810  27.156   6.249
 3239POPC   C2B42596  12.665  27.347   6.639
 3239POPC   C3B42597  12.953  27.323   6.994
 3239POPC   C4B42598  13.014  27.588   7.311
 3240POPC   NC342599   4.937   5.282   5.391
 3240POPC   PO442600   5.577   4.970   5.378
 3240POPC   GL142601   5.310   5.148   5.718
 3240POPC   GL242602   5.005   4.924   5.756
 3240POPC   C1A42603   5.228   5.218   6.159
 3240POPC   D2A42604   5.329   5.362   6.578
 3240POPC   C3A42605   5.091   5.432   6.920
 3240POPC   C4A42606   5.165   5.263   7.309
 3240POPC   C1B42607   4.998   4.759   6.162
 3240POPC   C2B42608   5.219   4.827   6.546
 3240POPC   C3B42609   5.018   4.922   6.945
 3240POPC   C4B42610   4.748   4.976   7.316
 3241POPC   NC342611  15.505  22.047   5.210
 3241POPC   PO442612  15.028  22.437   5.437
 3241POPC   GL142613  15.362  22.312   5.758
 3241POPC   GL242614  15.342  21.903   5.799
 3241POPC   C1A42615  15.463  22.577   6.165
 3241POPC   D2A42616  15.548  22.525   6.630
 3241POPC   C3A42617  15.234  22.453   6.930
 3241POPC   C4A42618  15.058  22.342   7.298
 3241POPC   C1B42619  15.419  21.773   6.245
 3241POPC   C2B42620  15.295  21.996   6.646
 3241POPC   C3B42621  15.203  21.909   7.088
 3241POPC   C4B42622  15.398  21.977   7.495
 3242POPC   NC342623  24.311  27.974   5.233
 3242POPC   PO442624  24.389  28.651   5.408
 3242POPC   GL142625  24.537  28.419   5.747
 3242POPC   GL242626  24.596  28.728   5.949
 3242POPC   C1A42627  24.704  28.245   6.142
 3242POPC   D2A42628  24.663  28.422   6.551
 3242POPC   C3A42629  24.609  28.262   6.978
 3242POPC   C4A42630  24.629  28.654   7.248
 3242POPC   C1B42631  24.266  28.502   6.192
 3242POPC   C2B42632  24.171  28.345   6.603
 3242POPC   C3B42633  24.200  28.551   6.997
 3242POPC   C4B42634  24.182  28.378   7.389
 3243POPC   NC342635  40.723  14.658   5.385
 3243POPC   PO442636  41.188  14.160   5.288
 3243POPC   GL142637  41.005  14.370   5.717
 3243POPC   GL242638  40.668  14.399   5.823
 3243POPC   C1A42639  40.958  14.296   6.214
 3243POPC   D2A42640  40.788  14.382   6.638
 3243POPC   C3A42641  41.066  14.271   7.004
 3243POPC   C4A42642  41.043  14.136   7.439
 3243POPC   C1B42643  40.448  14.560   6.227
 3243POPC   C2B42644  40.398  14.724   6.689
 3243POPC   C3B42645  40.478  14.436   7.067
 3243POPC   C4B42646  40.618  14.480   7.536
 3244POPC   NC342647  11.114  11.673   5.458
 3244POPC   PO442648  11.457  11.038   5.429
 3244POPC   GL142649  11.440  11.243   5.820
 3244POPC   GL242650  11.429  11.593   5.858
 3244POPC   C1A42651  11.178  11.315   6.196
 3244POPC   D2A42652  11.116  11.571   6.551
 3244POPC   C3A42653  11.189  11.371   6.957
 3244POPC   C4A42654  11.500  11.233   7.233
 3244POPC   C1B42655  11.398  11.854   6.207
 3244POPC   C2B42656  11.558  11.898   6.626
 3244POPC   C3B42657  11.580  11.732   7.035
 3244POPC   C4B42658  11.282  11.699   7.352
 3245POPC   NC342659  36.237  25.153   5.537
 3245POPC   PO442660  35.714  25.583   5.534
 3245POPC   GL142661  35.956  25.452   5.881
 3245POPC   GL242662  35.970  25.108   5.968
 3245POPC   C1A42663  35.899  25.451   6.323
 3245POPC   D2A42664  35.907  25.226   6.669
 3245POPC   C3A42665  35.964  25.558   6.937
 3245POPC   C4A42666  36.239  25.504   7.257
 3245POPC   C1B42667  36.162  24.885   6.304
 3245POPC   C2B42668  36.324  24.888   6.702
 3245POPC   C3B42669  36.275  24.998   7.140
 3245POPC   C4B42670  36.383  25.025   7.595
 3246POPC   NC342671  27.515  18.772   5.526
 3246POPC   PO442672  27.674  19.312   5.138
 3246POPC   GL142673  27.797  19.240   5.647
 3246POPC   GL242674  28.024  19.416   5.885
 3246POPC   C1A42675  27.765  18.984   6.059
 3246POPC   D2A42676  27.816  18.917   6.490
 3246POPC   C3A42677  27.566  18.838   6.869
 3246POPC   C4A42678  27.485  19.105   7.234
 3246POPC   C1B42679  27.742  19.430   6.277
 3246POPC   C2B42680  27.662  19.385   6.712
 3246POPC   C3B42681  27.819  19.466   7.094
 3246POPC   C4B42682  27.777  19.437   7.530
 3247POPC   NC342683   9.565  22.179   5.305
 3247POPC   PO442684   9.978  21.755   5.403
 3247POPC   GL142685   9.747  21.919   5.791
 3247POPC   GL242686   9.459  21.720   5.848
 3247POPC   C1A42687   9.694  22.229   6.218
 3247POPC   D2A42688   9.825  22.328   6.692
 3247POPC   C3A42689   9.546  22.337   7.090
 3247POPC   C4A42690   9.598  22.487   7.552
 3247POPC   C1B42691   9.676  21.735   6.262
 3247POPC   C2B42692   9.516  21.897   6.676
 3247POPC   C3B42693   9.548  21.699   7.097
 3247POPC   C4B42694   9.816  21.653   7.467
 3248POPC   NC342695  20.682  22.514   5.562
 3248POPC   PO442696  20.206  22.064   5.489
 3248POPC   GL142697  20.505  22.074   5.789
 3248POPC   GL242698  20.501  21.724   5.843
 3248POPC   C1A42699  20.712  22.220   6.180
 3248POPC   D2A42700  20.830  22.432   6.568
 3248POPC   C3A42701  20.867  22.170   6.944
 3248POPC   C4A42702  20.752  22.305   7.356
 3248POPC   C1B42703  20.281  21.897   6.203
 3248POPC   C2B42704  20.519  21.928   6.580
 3248POPC   C3B42705  20.324  21.829   6.935
 3248POPC   C4B42706  20.495  21.876   7.285
 3249POPC   NC342707  23.093  24.304   5.384
 3249POPC   PO442708  22.747  24.920   5.464
 3249POPC   GL142709  22.742  24.548   5.764
 3249POPC   GL242710  22.576  24.233   5.616
 3249POPC   C1A42711  22.941  24.473   6.184
 3249POPC   D2A42712  22.886  24.679   6.599
 3249POPC   C3A42713  23.094  24.690   7.009
 3249POPC   C4A42714  22.808  24.636   7.375
 3249POPC   C1B42715  22.529  24.117   6.062
 3249POPC   C2B42716  22.649  24.196   6.513
 3249POPC   C3B42717  22.786  24.269   6.946
 3249POPC   C4B42718  22.590  24.160   7.329
 3250POPC   NC342719  33.076  29.718   5.630
 3250POPC   PO442720  33.094  30.374   5.676
 3250POPC   GL142721  33.022  30.092   5.992
 3250POPC   GL242722  33.365  30.021   5.983
 3250POPC   C1A42723  33.066  29.857   6.409
 3250POPC   D2A42724  32.953  29.584   6.778
 3250POPC   C3A42725  32.808  29.817   7.103
 3250POPC   C4A42726  32.720  30.259   7.056
 3250POPC   C1B42727  33.289  30.323   6.346
 3250POPC   C2B42728  33.118  30.363   6.712
 3250POPC   C3B42729  33.212  30.024   6.915
 3250POPC   C4B42730  33.298  29.638   7.163
 3251POPC   NC342731   7.615  39.290   5.324
 3251POPC   PO442732   7.089  38.970   5.568
 3251POPC   GL142733   7.395  39.200   5.833
 3251POPC   GL242734   7.566  39.523   5.786
 3251POPC   C1A42735   7.375  39.247   6.257
 3251POPC   D2A42736   7.054  39.333   6.558
 3251POPC   C3A42737   7.149  39.134   6.930
 3251POPC   C4A42738   7.329  39.270   7.332
 3251POPC   C1B42739   7.617  39.689   6.223
 3251POPC   C2B42740   7.556  39.505   6.685
 3251POPC   C3B42741   7.586  39.682   7.148
 3251POPC   C4B42742   7.633  39.599   7.649
 3252POPC   NC342743  44.816  38.569   5.637
 3252POPC   PO442744   0.316  38.072   5.571
 3252POPC   GL142745   0.033  38.190   5.925
 3252POPC   GL242746  44.823  37.962   6.010
 3252POPC   C1A42747  44.773  38.407   6.286
 3252POPC   D2A42748  44.403  38.362   6.597
 3252POPC   C3A42749  44.530  38.582   6.956
 3252POPC   C4A42750  44.942  38.719   7.118
 3252POPC   C1B42751  44.577  37.941   6.334
 3252POPC   C2B42752  44.851  38.068   6.674
 3252POPC   C3B42753  44.674  38.106   7.046
 3252POPC   C4B42754  44.209  38.208   7.122
 3253POPC   NC342755  10.058  15.289   5.468
 3253POPC   PO442756   9.401  15.096   5.536
 3253POPC   GL142757   9.654  15.059   5.847
 3253POPC   GL242758   9.751  15.393   5.860
 3253POPC   C1A42759   9.628  15.077   6.274
 3253POPC   D2A42760   9.844  15.299   6.570
 3253POPC   C3A42761   9.873  15.077   6.955
 3253POPC   C4A42762  10.125  14.948   7.335
 3253POPC   C1B42763   9.581  15.611   6.202
 3253POPC   C2B42764   9.444  15.619   6.646
 3253POPC   C3B42765   9.735  15.588   6.979
 3253POPC   C4B42766   9.959  15.443   7.299
 3254POPC   NC342767  28.861  31.687   5.284
 3254POPC   PO442768  28.406  31.239   5.391
 3254POPC   GL142769  28.392  31.471   5.808
 3254POPC   GL242770  28.077  31.611   5.902
 3254POPC   C1A42771  28.380  31.544   6.299
 3254POPC   D2A42772  28.364  31.312   6.682
 3254POPC   C3A42773  28.339  31.399   7.118
 3254POPC   C4A42774  28.526  31.638   7.400
 3254POPC   C1B42775  28.108  31.157   6.133
 3254POPC   C2B42776  28.171  30.862   6.519
 3254POPC   C3B42777  28.044  31.003   6.939
 3254POPC   C4B42778  27.818  31.383   7.152
 3255POPC   NC342779   5.224  10.860   5.313
 3255POPC   PO442780   5.013  10.257   5.280
 3255POPC   GL142781   4.962  10.558   5.654
 3255POPC   GL242782   4.874  10.261   5.791
 3255POPC   C1A42783   4.965  10.733   6.120
 3255POPC   D2A42784   5.277  10.641   6.480
 3255POPC   C3A42785   5.165  10.728   6.913
 3255POPC   C4A42786   5.378  10.488   7.206
 3255POPC   C1B42787   5.141  10.261   6.120
 3255POPC   C2B42788   4.892  10.296   6.472
 3255POPC   C3B42789   4.735  10.365   6.853
 3255POPC   C4B42790   4.909  10.323   7.236
 3256POPC   NC342791   0.140  25.212   5.531
 3256POPC   PO442792   0.768  25.322   5.341
 3256POPC   GL142793   0.594  25.248   5.787
 3256POPC   GL242794   0.448  25.534   5.928
 3256POPC   C1A42795   0.399  25.083   6.189
 3256POPC   D2A42796   0.415  25.303   6.611
 3256POPC   C3A42797   0.242  25.114   6.983
 3256POPC   C4A42798   0.045  25.214   7.372
 3256POPC   C1B42799   0.772  25.417   6.245
 3256POPC   C2B42800   0.941  25.411   6.642
 3256POPC   C3B42801   0.749  25.318   7.007
 3256POPC   C4B42802   0.474  25.474   7.280
 3257POPC   NC342803  34.291  19.063   5.411
 3257POPC   PO442804  33.615  18.970   5.463
 3257POPC   GL142805  33.919  18.998   5.799
 3257POPC   GL242806  34.152  18.715   5.773
 3257POPC   C1A42807  33.788  19.084   6.215
 3257POPC   D2A42808  33.515  19.044   6.548
 3257POPC   C3A42809  33.747  19.244   6.892
 3257POPC   C4A42810  33.817  19.209   7.339
 3257POPC   C1B42811  34.268  18.861   6.185
 3257POPC   C2B42812  34.229  19.042   6.589
 3257POPC   C3B42813  34.256  18.815   6.963
 3257POPC   C4B42814  34.331  18.682   7.383
 3258POPC   NC342815  44.443  44.947   5.106
 3258POPC   PO442816  44.702   0.489   5.493
 3258POPC   GL142817  44.757   0.657   5.916
 3258POPC   GL242818   0.100   0.728   5.890
 3258POPC   C1A42819  44.695   0.470   6.365
 3258POPC   D2A42820  44.485   0.139   6.646
 3258POPC   C3A42821  44.441   0.197   7.100
 3258POPC   C4A42822  44.560   0.299   7.546
 3258POPC   C1B42823   0.189   0.457   6.258
 3258POPC   C2B42824   0.086   0.376   6.711
 3258POPC   C3B42825  44.813   0.551   7.029
 3258POPC   C4B42826  44.784   0.741   7.442
 3259POPC   NC342827  42.122  29.292   5.373
 3259POPC   PO442828  42.668  28.895   5.337
 3259POPC   GL142829  42.538  28.997   5.748
 3259POPC   GL242830  42.213  29.136   5.838
 3259POPC   C1A42831  42.568  29.090   6.196
 3259POPC   D2A42832  42.608  29.333   6.588
 3259POPC   C3A42833  42.478  29.167   7.018
 3259POPC   C4A42834  42.195  28.846   7.215
 3259POPC   C1B42835  42.032  29.021   6.226
 3259POPC   C2B42836  42.137  29.023   6.672
 3259POPC   C3B42837  41.928  29.257   7.020
 3259POPC   C4B42838  41.921  29.461   7.409
 3260POPC   NC342839   6.475  33.156   5.508
 3260POPC   PO442840   7.017  32.671   5.556
 3260POPC   GL142841   6.812  32.891   5.875
 3260POPC   GL242842   6.490  32.753   5.834
 3260POPC   C1A42843   6.914  33.195   6.227
 3260POPC   D2A42844   6.937  33.391   6.650
 3260POPC   C3A42845   6.910  33.113   7.043
 3260POPC   C4A42846   6.511  32.925   7.235
 3260POPC   C1B42847   6.429  33.019   6.201
 3260POPC   C2B42848   6.576  32.972   6.628
 3260POPC   C3B42849   6.465  33.316   6.880
 3260POPC   C4B42850   6.241  33.415   7.231
 3261POPC   NC342851  43.352   4.595   5.597
 3261POPC   PO442852  42.981   4.065   5.559
 3261POPC   GL142853  43.084   4.309   5.934
 3261POPC   GL242854  43.450   4.249   5.981
 3261POPC   C1A42855  43.227   4.601   6.294
 3261POPC   D2A42856  43.404   4.597   6.727
 3261POPC   C3A42857  43.152   4.449   7.069
 3261POPC   C4A42858  42.818   4.711   7.209
 3261POPC   C1B42859  43.272   4.076   6.385
 3261POPC   C2B42860  42.987   3.983   6.752
 3261POPC   C3B42861  43.078   3.893   7.208
 3261POPC   C4B42862  43.086   4.041   7.669
 3262POPC   NC342863  23.382  17.669   5.365
 3262POPC   PO442864  22.835  17.179   5.253
 3262POPC   GL142865  22.981  17.176   5.720
 3262POPC   GL242866  23.298  17.352   5.823
 3262POPC   C1A42867  22.869  17.384   6.142
 3262POPC   D2A42868  22.629  17.397   6.535
 3262POPC   C3A42869  22.809  17.381   6.971
 3262POPC   C4A42870  22.722  17.743   7.205
 3262POPC   C1B42871  23.369  17.458   6.259
 3262POPC   C2B42872  23.347  17.850   6.489
 3262POPC   C3B42873  23.103  17.788   6.844
 3262POPC   C4B42874  23.247  17.567   7.184
 3263POPC   NC342875  23.567  20.909   5.373
 3263POPC   PO442876  24.095  20.442   5.385
 3263POPC   GL142877  23.883  20.654   5.773
 3263POPC   GL242878  23.493  20.630   5.785
 3263POPC   C1A42879  23.803  20.831   6.207
 3263POPC   D2A42880  23.572  21.021   6.574
 3263POPC   C3A42881  23.868  20.920   6.889
 3263POPC   C4A42882  23.906  20.672   7.250
 3263POPC   C1B42883  23.314  20.813   6.142
 3263POPC   C2B42884  23.384  20.554   6.523
 3263POPC   C3B42885  23.502  20.531   6.944
 3263POPC   C4B42886  23.441  20.870   7.218
 3264POPC   NC342887  28.775   7.613   5.578
 3264POPC   PO442888  29.445   7.336   5.435
 3264POPC   GL142889  29.163   7.330   5.797
 3264POPC   GL242890  29.404   7.529   5.996
 3264POPC   C1A42891  29.052   7.183   6.218
 3264POPC   D2A42892  29.341   7.315   6.517
 3264POPC   C3A42893  29.252   7.253   6.949
 3264POPC   C4A42894  28.966   7.093   7.249
 3264POPC   C1B42895  29.080   7.698   6.252
 3264POPC   C2B42896  28.972   7.612   6.697
 3264POPC   C3B42897  29.064   7.700   7.149
 3264POPC   C4B42898  28.982   7.904   7.556
 3265POPC   NC342899   1.780  26.388   5.212
 3265POPC   PO442900   2.126  25.880   5.427
 3265POPC   GL142901   2.281  25.927   5.832
 3265POPC   GL242902   1.932  25.859   5.902
 3265POPC   C1A42903   2.152  26.139   6.242
 3265POPC   D2A42904   2.279  26.198   6.644
 3265POPC   C3A42905   2.023  26.127   7.012
 3265POPC   C4A42906   1.724  26.183   7.384
 3265POPC   C1B42907   1.757  25.654   6.284
 3265POPC   C2B42908   1.915  25.714   6.695
 3265POPC   C3B42909   1.724  25.725   7.100
 3265POPC   C4B42910   1.506  25.723   7.485
 3266POPC   NC342911  34.896  26.365   5.511
 3266POPC   PO442912  34.367  25.946   5.425
 3266POPC   GL142913  34.598  25.991   5.813
 3266POPC   GL242914  34.739  26.286   5.968
 3266POPC   C1A42915  34.456  25.997   6.254
 3266POPC   D2A42916  34.591  26.235   6.605
 3266POPC   C3A42917  34.507  25.965   6.970
 3266POPC   C4A42918  34.387  25.703   7.364
 3266POPC   C1B42919  34.402  26.515   6.185
 3266POPC   C2B42920  34.164  26.555   6.580
 3266POPC   C3B42921  34.357  26.475   7.010
 3266POPC   C4B42922  34.729  26.299   7.288
 3267POPC   NC342923  22.150  27.316   4.988
 3267POPC   PO442924  21.891  27.838   5.384
 3267POPC   GL142925  22.164  27.695   5.699
 3267POPC   GL242926  22.351  27.958   5.753
 3267POPC   C1A42927  22.179  27.453   6.093
 3267POPC   D2A42928  22.358  27.499   6.517
 3267POPC   C3A42929  22.166  27.276   6.866
 3267POPC   C4A42930  22.072  27.407   7.264
 3267POPC   C1B42931  22.038  27.978   6.113
 3267POPC   C2B42932  21.907  27.823   6.538
 3267POPC   C3B42933  22.110  27.820   6.929
 3267POPC   C4B42934  21.965  27.957   7.318
 3268POPC   NC342935  19.640  20.293   5.253
 3268POPC   PO442936  20.229  20.373   5.501
 3268POPC   GL142937  19.869  20.599   5.785
 3268POPC   GL242938  19.570  20.375   5.791
 3268POPC   C1A42939  19.594  20.694   6.199
 3268POPC   D2A42940  19.463  20.905   6.590
 3268POPC   C3A42941  19.634  20.761   6.985
 3268POPC   C4A42942  19.849  20.620   7.360
 3268POPC   C1B42943  19.769  20.225   6.164
 3268POPC   C2B42944  19.570  20.327   6.574
 3268POPC   C3B42945  19.302  20.243   6.897
 3268POPC   C4B42946  19.408  20.391   7.265
 3269POPC   NC342947  14.467   4.004   5.255
 3269POPC   PO442948  14.528   4.619   5.155
 3269POPC   GL142949  14.569   4.509   5.633
 3269POPC   GL242950  14.304   4.315   5.790
 3269POPC   C1A42951  14.627   4.556   6.128
 3269POPC   D2A42952  14.492   4.414   6.583
 3269POPC   C3A42953  14.612   4.420   7.042
 3269POPC   C4A42954  14.830   4.114   7.341
 3269POPC   C1B42955  14.117   4.441   6.225
 3269POPC   C2B42956  13.990   4.374   6.689
 3269POPC   C3B42957  14.073   4.278   7.129
 3269POPC   C4B42958  14.378   4.291   7.489
 3270POPC   NC342959   1.342  36.676   5.536
 3270POPC   PO442960   0.890  37.211   5.516
 3270POPC   GL142961   1.160  37.057   5.807
 3270POPC   GL242962   1.024  36.733   5.940
 3270POPC   C1A42963   1.376  37.086   6.166
 3270POPC   D2A42964   1.207  36.971   6.587
 3270POPC   C3A42965   1.401  37.089   6.979
 3270POPC   C4A42966   1.384  36.920   7.428
 3270POPC   C1B42967   1.366  36.573   6.197
 3270POPC   C2B42968   1.463  36.441   6.631
 3270POPC   C3B42969   1.436  36.592   7.047
 3270POPC   C4B42970   1.656  36.493   7.470
 3271POPC   NC342971   2.692  29.381   5.383
 3271POPC   PO442972   3.272  29.114   5.518
 3271POPC   GL142973   3.007  29.304   5.819
 3271POPC   GL242974   2.656  29.239   5.867
 3271POPC   C1A42975   2.990  29.289   6.261
 3271POPC   D2A42976   2.718  29.326   6.601
 3271POPC   C3A42977   2.945  29.418   6.951
 3271POPC   C4A42978   2.764  29.182   7.261
 3271POPC   C1B42979   2.495  29.049   6.239
 3271POPC   C2B42980   2.359  28.957   6.701
 3271POPC   C3B42981   2.399  28.823   7.167
 3271POPC   C4B42982   2.497  28.911   7.627
 3272POPC   NC342983  14.602   7.735   5.667
 3272POPC   PO442984  14.435   7.165   5.435
 3272POPC   GL142985  14.551   7.274   5.864
 3272POPC   GL242986  14.229   7.432   5.891
 3272POPC   C1A42987  14.522   7.541   6.298
 3272POPC   D2A42988  14.299   7.758   6.654
 3272POPC   C3A42989  14.487   7.680   7.045
 3272POPC   C4A42990  14.569   7.335   7.241
 3272POPC   C1B42991  14.172   6.999   6.093
 3272POPC   C2B42992  14.115   6.856   6.530
 3272POPC   C3B42993  14.148   7.016   6.946
 3272POPC   C4B42994  14.078   7.395   7.164
 3273POPC   NC342995  38.711  27.015   5.273
 3273POPC   PO442996  38.729  26.334   5.300
 3273POPC   GL142997  38.468  26.480   5.667
 3273POPC   GL242998  38.767  26.694   5.697
 3273POPC   C1A42999  38.450  26.748   6.102
 3273POPC   D2A43000  38.694  26.926   6.488
 3273POPC   C3A43001  38.485  26.984   6.903
 3273POPC   C4A43002  38.314  27.071   7.304
 3273POPC   C1B43003  38.796  26.366   6.035
 3273POPC   C2B43004  38.607  26.402   6.447
 3273POPC   C3B43005  38.692  26.521   6.850
 3273POPC   C4B43006  38.670  26.393   7.248
 3274POPC   NC343007  19.598   7.474   5.155
 3274POPC   PO443008  20.178   7.479   5.494
 3274POPC   GL143009  19.956   7.288   5.791
 3274POPC   GL243010  19.676   7.087   5.668
 3274POPC   C1A43011  19.983   7.416   6.204
 3274POPC   D2A43012  20.089   7.235   6.586
 3274POPC   C3A43013  20.008   7.533   6.909
 3274POPC   C4A43014  20.122   7.376   7.281
 3274POPC   C1B43015  19.617   7.049   6.119
 3274POPC   C2B43016  19.573   7.304   6.488
 3274POPC   C3B43017  19.621   7.183   6.875
 3274POPC   C4B43018  19.631   7.300   7.285
 3275POPC   NC343019  31.093  12.841   5.370
 3275POPC   PO443020  30.591  13.286   5.537
 3275POPC   GL143021  30.555  12.907   5.785
 3275POPC   GL243022  30.888  12.933   5.841
 3275POPC   C1A43023  30.413  12.779   6.218
 3275POPC   D2A43024  30.260  13.016   6.612
 3275POPC   C3A43025  30.493  12.879   6.980
 3275POPC   C4A43026  30.562  12.464   7.139
 3275POPC   C1B43027  30.910  12.902   6.269
 3275POPC   C2B43028  30.781  12.652   6.617
 3275POPC   C3B43029  31.015  12.716   6.989
 3275POPC   C4B43030  31.154  13.093   7.146
 3276POPC   NC343031  28.620   2.956   5.476
 3276POPC   PO443032  27.997   2.626   5.424
 3276POPC   GL143033  28.200   2.726   5.809
 3276POPC   GL243034  28.530   2.532   5.801
 3276POPC   C1A43035  28.139   2.923   6.222
 3276POPC   D2A43036  28.352   3.047   6.591
 3276POPC   C3A43037  28.170   3.035   6.969
 3276POPC   C4A43038  28.160   2.745   7.292
 3276POPC   C1B43039  28.624   2.753   6.197
 3276POPC   C2B43040  28.619   2.612   6.653
 3276POPC   C3B43041  28.624   2.799   7.080
 3276POPC   C4B43042  28.619   2.709   7.533
 3277POPC   NC343043  23.458  36.247   5.383
 3277POPC   PO443044  23.926  35.730   5.305
 3277POPC   GL143045  23.771  35.841   5.733
 3277POPC   GL243046  23.596  36.171   5.857
 3277POPC   C1A43047  23.864  35.894   6.168
 3277POPC   D2A43048  23.569  36.013   6.474
 3277POPC   C3A43049  23.785  36.006   6.837
 3277POPC   C4A43050  23.730  36.085   7.229
 3277POPC   C1B43051  23.665  36.483   6.182
 3277POPC   C2B43052  23.790  36.471   6.611
 3277POPC   C3B43053  23.621  36.529   7.016
 3277POPC   C4B43054  23.883  36.624   7.378
 3278POPC   NC343055  35.170  17.777   5.044
 3278POPC   PO443056  35.289  17.238   5.483
 3278POPC   GL143057  35.479  17.454   5.790
 3278POPC   GL243058  35.541  17.776   5.578
 3278POPC   C1A43059  35.532  17.295   6.225
 3278POPC   D2A43060  35.319  17.358   6.638
 3278POPC   C3A43061  35.510  17.348   7.051
 3278POPC   C4A43062  35.244  17.336   7.439
 3278POPC   C1B43063  35.319  17.906   5.984
 3278POPC   C2B43064  35.348  17.891   6.463
 3278POPC   C3B43065  35.239  17.817   6.927
 3278POPC   C4B43066  35.382  17.809   7.373
 3279POPC   NC343067  11.816   6.792   5.654
 3279POPC   PO443068  11.252   6.697   5.111
 3279POPC   GL143069  11.289   6.780   5.613
 3279POPC   GL243070  10.981   6.768   5.826
 3279POPC   C1A43071  11.377   6.709   6.121
 3279POPC   D2A43072  11.195   6.514   6.504
 3279POPC   C3A43073  11.252   6.689   6.905
 3279POPC   C4A43074  11.084   6.608   7.278
 3279POPC   C1B43075  10.938   6.971   6.243
 3279POPC   C2B43076  10.927   7.004   6.695
 3279POPC   C3B43077  10.886   7.078   7.165
 3279POPC   C4B43078  10.908   6.914   7.641
 3280POPC   NC343079  29.735   1.587   5.476
 3280POPC   PO443080  29.956   2.304   5.482
 3280POPC   GL143081  29.896   2.224   5.897
 3280POPC   GL243082  29.670   1.948   5.859
 3280POPC   C1A43083  29.939   2.118   6.334
 3280POPC   D2A43084  30.200   1.796   6.494
 3280POPC   C3A43085  30.090   1.616   6.873
 3280POPC   C4A43086  30.217   1.828   7.235
 3280POPC   C1B43087  29.590   1.738   6.253
 3280POPC   C2B43088  29.564   1.762   6.699
 3280POPC   C3B43089  29.758   1.990   7.010
 3280POPC   C4B43090  29.746   1.859   7.426
 3281POPC   NC343091   0.159  28.450   5.053
 3281POPC   PO443092   0.739  28.736   5.374
 3281POPC   GL143093   0.583  28.574   5.834
 3281POPC   GL243094   0.208  28.585   5.924
 3281POPC   C1A43095   0.593  28.415   6.251
 3281POPC   D2A43096   0.312  28.176   6.511
 3281POPC   C3A43097   0.354  28.196   6.963
 3281POPC   C4A43098   0.213  28.211   7.380
 3281POPC   C1B43099   0.149  28.655   6.357
 3281POPC   C2B43100   0.330  28.672   6.754
 3281POPC   C3B43101   0.286  28.686   7.232
 3281POPC   C4B43102  44.997  28.628   7.617
 3282POPC   NC343103   0.387   8.258   5.442
 3282POPC   PO443104   0.842   7.790   5.542
 3282POPC   GL143105   0.637   8.047   5.838
 3282POPC   GL243106   0.774   8.416   5.776
 3282POPC   C1A43107   0.410   8.008   6.228
 3282POPC   D2A43108   0.437   7.906   6.679
 3282POPC   C3A43109   0.361   8.005   7.131
 3282POPC   C4A43110   0.304   7.899   7.593
 3282POPC   C1B43111   0.840   8.325   6.230
 3282POPC   C2B43112   0.716   8.442   6.646
 3282POPC   C3B43113   0.772   8.304   7.051
 3282POPC   C4B43114   0.658   8.274   7.488
 3283POPC   NC343115  30.146  17.332   5.666
 3283POPC   PO443116  30.484  17.712   5.234
 3283POPC   GL143117  30.154  17.828   5.742
 3283POPC   GL243118  29.842  17.669   5.931
 3283POPC   C1A43119  30.209  17.860   6.238
 3283POPC   D2A43120  30.003  17.662   6.633
 3283POPC   C3A43121  30.097  17.547   7.078
 3283POPC   C4A43122  29.762  17.735   7.309
 3283POPC   C1B43123  29.770  17.346   6.278
 3283POPC   C2B43124  29.818  17.141   6.700
 3283POPC   C3B43125  29.693  17.215   7.142
 3283POPC   C4B43126  29.854  17.302   7.564
 3284POPC   NC343127   1.632  11.786   5.608
 3284POPC   PO443128   2.095  11.311   5.553
 3284POPC   GL143129   1.904  11.088   5.893
 3284POPC   GL243130   2.070  11.380   6.086
 3284POPC   C1A43131   1.885  10.951   6.328
 3284POPC   D2A43132   2.101  11.262   6.596
 3284POPC   C3A43133   2.054  11.268   7.044
 3284POPC   C4A43134   1.840  11.513   7.310
 3284POPC   C1B43135   2.381  11.048   6.188
 3284POPC   C2B43136   2.395  10.830   6.577
 3284POPC   C3B43137   2.468  10.930   7.018
 3284POPC   C4B43138   2.400  11.102   7.450
 3285POPC   NC343139  11.709  13.182   5.141
 3285POPC   PO443140  12.164  13.605   5.433
 3285POPC   GL143141  12.084  13.795   5.807
 3285POPC   GL243142  12.456  13.843   5.811
 3285POPC   C1A43143  11.953  13.653   6.247
 3285POPC   D2A43144  11.771  13.691   6.687
 3285POPC   C3A43145  11.890  13.441   7.094
 3285POPC   C4A43146  11.941  13.420   7.568
 3285POPC   C1B43147  12.335  13.994   6.208
 3285POPC   C2B43148  12.231  13.885   6.625
 3285POPC   C3B43149  12.100  14.095   6.986
 3285POPC   C4B43150  12.138  13.963   7.403
 3286POPC   NC343151  32.536   8.436   5.427
 3286POPC   PO443152  32.060   8.029   5.397
 3286POPC   GL143153  32.188   8.184   5.777
 3286POPC   GL243154  32.520   8.032   5.818
 3286POPC   C1A43155  32.159   8.169   6.227
 3286POPC   D2A43156  32.266   7.974   6.622
 3286POPC   C3A43157  32.239   8.360   6.839
 3286POPC   C4A43158  32.365   8.481   7.226
 3286POPC   C1B43159  32.633   8.361   6.147
 3286POPC   C2B43160  32.698   8.270   6.591
 3286POPC   C3B43161  32.626   8.078   6.996
 3286POPC   C4B43162  32.840   8.341   7.277
 3287POPC   NC343163   8.959  20.037   5.586
 3287POPC   PO443164   8.948  19.564   5.120
 3287POPC   GL143165   8.672  19.619   5.633
 3287POPC   GL243166   8.799  19.378   5.884
 3287POPC   C1A43167   8.831  19.780   6.152
 3287POPC   D2A43168   9.211  19.801   6.427
 3287POPC   C3A43169   9.167  19.901   6.867
 3287POPC   C4A43170   8.999  19.683   7.244
 3287POPC   C1B43171   9.010  19.287   6.282
 3287POPC   C2B43172   9.075  19.405   6.692
 3287POPC   C3B43173   9.342  19.349   7.022
 3287POPC   C4B43174   9.330  19.363   7.476
 3288POPC   NC343175  43.402  41.029   5.550
 3288POPC   PO443176  43.060  40.489   5.408
 3288POPC   GL143177  43.020  40.733   5.811
 3288POPC   GL243178  43.345  40.721   5.966
 3288POPC   C1A43179  42.795  40.768   6.219
 3288POPC   D2A43180  42.790  40.692   6.642
 3288POPC   C3A43181  43.131  40.805   6.902
 3288POPC   C4A43182  43.038  41.121   7.145
 3288POPC   C1B43183  43.270  40.697   6.412
 3288POPC   C2B43184  43.241  40.358   6.690
 3288POPC   C3B43185  43.264  40.364   7.120
 3288POPC   C4B43186  43.197  40.670   7.416
 3289POPC   NC343187  12.492  16.851   5.535
 3289POPC   PO443188  13.199  17.193   5.422
 3289POPC   GL143189  12.973  16.965   5.739
 3289POPC   GL243190  12.991  16.626   5.759
 3289POPC   C1A43191  12.757  16.980   6.140
 3289POPC   D2A43192  12.644  16.738   6.509
 3289POPC   C3A43193  12.743  16.964   6.876
 3289POPC   C4A43194  12.552  17.002   7.250
 3289POPC   C1B43195  12.895  16.443   6.151
 3289POPC   C2B43196  13.128  16.343   6.513
 3289POPC   C3B43197  13.052  16.529   6.910
 3289POPC   C4B43198  12.807  16.388   7.259
 3290POPC   NC343199  11.551   7.675   5.487
 3290POPC   PO443200  11.256   8.384   5.527
 3290POPC   GL143201  11.478   8.114   5.802
 3290POPC   GL243202  11.207   7.880   5.850
 3290POPC   C1A43203  11.391   8.133   6.251
 3290POPC   D2A43204  11.084   8.136   6.558
 3290POPC   C3A43205  11.238   8.236   6.946
 3290POPC   C4A43206  11.326   8.017   7.301
 3290POPC   C1B43207  11.539   7.670   6.112
 3290POPC   C2B43208  11.642   7.685   6.514
 3290POPC   C3B43209  11.403   7.715   6.886
 3290POPC   C4B43210  11.488   7.532   7.296
 3291POPC   NC343211  27.060  24.476   5.348
 3291POPC   PO443212  26.372  24.274   5.373
 3291POPC   GL143213  26.542  24.509   5.743
 3291POPC   GL243214  26.902  24.504   5.831
 3291POPC   C1A43215  26.501  24.557   6.200
 3291POPC   D2A43216  26.563  24.817   6.581
 3291POPC   C3A43217  26.740  24.657   6.979
 3291POPC   C4A43218  26.667  24.488   7.396
 3291POPC   C1B43219  26.994  24.741   6.195
 3291POPC   C2B43220  27.137  24.560   6.566
 3291POPC   C3B43221  27.208  24.246   6.864
 3291POPC   C4B43222  27.159  24.441   7.249
 3292POPC   NC343223  12.820  19.275   5.332
 3292POPC   PO443224  12.277  18.888   5.286
 3292POPC   GL143225  12.546  18.909   5.738
 3292POPC   GL243226  12.907  18.775   5.700
 3292POPC   C1A43227  12.849  19.057   6.135
 3292POPC   D2A43228  13.066  19.263   6.518
 3292POPC   C3A43229  12.845  19.283   6.956
 3292POPC   C4A43230  12.652  19.228   7.416
 3292POPC   C1B43231  13.172  18.669   6.088
 3292POPC   C2B43232  13.073  18.705   6.528
 3292POPC   C3B43233  13.036  18.773   6.982
 3292POPC   C4B43234  12.889  18.794   7.426
 3293POPC   NC343235  16.478  44.597   5.330
 3293POPC   PO443236  17.025  44.348   5.402
 3293POPC   GL143237  16.804  44.522   5.744
 3293POPC   GL243238  16.811  44.827   5.674
 3293POPC   C1A43239  16.384  44.700   5.955
 3293POPC   D2A43240  16.350  44.845   6.391
 3293POPC   C3A43241  16.599  44.590   6.707
 3293POPC   C4A43242  16.598  44.584   7.159
 3293POPC   C1B43243  16.833  44.847   6.145
 3293POPC   C2B43244  16.866  44.999   6.575
 3293POPC   C3B43245  17.052  44.906   6.993
 3293POPC   C4B43246  16.922  44.876   7.438
 3294POPC   NC343247   3.717  24.590   5.415
 3294POPC   PO443248   3.058  24.431   5.294
 3294POPC   GL143249   3.283  24.579   5.717
 3294POPC   GL243250   3.605  24.790   5.869
 3294POPC   C1A43251   3.490  24.325   6.049
 3294POPC   D2A43252   3.659  24.420   6.463
 3294POPC   C3A43253   3.459  24.254   6.825
 3294POPC   C4A43254   3.540  24.373   7.269
 3294POPC   C1B43255   3.355  24.801   6.202
 3294POPC   C2B43256   3.269  24.964   6.579
 3294POPC   C3B43257   3.276  24.730   6.950
 3294POPC   C4B43258   3.383  24.867   7.326
 3295POPC   NC343259  30.217  35.044   5.332
 3295POPC   PO443260  29.981  35.650   5.095
 3295POPC   GL143261  29.998  35.393   5.603
 3295POPC   GL243262  29.691  35.422   5.875
 3295POPC   C1A43263  30.101  35.181   6.044
 3295POPC   D2A43264  30.050  35.152   6.499
 3295POPC   C3A43265  30.335  35.297   6.840
 3295POPC   C4A43266  30.482  35.330   7.266
 3295POPC   C1B43267  29.665  35.474   6.348
 3295POPC   C2B43268  29.627  35.377   6.810
 3295POPC   C3B43269  29.716  35.619   7.197
 3295POPC   C4B43270  29.639  35.653   7.664
 3296POPC   NC343271  19.659  10.313   5.282
 3296POPC   PO443272  19.004  10.443   5.258
 3296POPC   GL143273  18.972  10.598   5.690
 3296POPC   GL243274  19.307  10.682   5.824
 3296POPC   C1A43275  18.831  10.584   6.143
 3296POPC   D2A43276  18.994  10.721   6.553
 3296POPC   C3A43277  18.993  10.527   6.932
 3296POPC   C4A43278  19.280  10.254   7.144
 3296POPC   C1B43279  19.402  10.807   6.248
 3296POPC   C2B43280  19.478  10.826   6.713
 3296POPC   C3B43281  19.388  10.763   7.142
 3296POPC   C4B43282  19.628  10.733   7.510
 3297POPC   NC343283  43.782  44.554   5.393
 3297POPC   PO443284  43.773   0.119   5.629
 3297POPC   GL143285  43.717  44.737   5.889
 3297POPC   GL243286  43.566  44.408   5.837
 3297POPC   C1A43287  43.749  44.641   6.338
 3297POPC   D2A43288  44.043  44.632   6.694
 3297POPC   C3A43289  44.020  44.874   7.072
 3297POPC   C4A43290  44.317  44.818   7.422
 3297POPC   C1B43291  43.458  44.220   6.207
 3297POPC   C2B43292  43.696  44.202   6.590
 3297POPC   C3B43293  43.651  44.425   6.951
 3297POPC   C4B43294  43.353  44.325   7.217
 3298POPC   NC343295  33.323  19.327   5.404
 3298POPC   PO443296  32.639  19.184   5.416
 3298POPC   GL143297  32.892  19.032   5.819
 3298POPC   GL243298  33.263  18.971   5.828
 3298POPC   C1A43299  33.013  18.905   6.273
 3298POPC   D2A43300  32.781  18.827   6.651
 3298POPC   C3A43301  32.906  18.834   7.083
 3298POPC   C4A43302  32.719  18.758   7.500
 3298POPC   C1B43303  33.273  19.329   6.116
 3298POPC   C2B43304  33.051  19.371   6.505
 3298POPC   C3B43305  33.231  19.313   6.883
 3298POPC   C4B43306  33.171  19.214   7.275
 3299POPC   NC343307  38.535  42.643   5.438
 3299POPC   PO443308  38.082  43.134   5.439
 3299POPC   GL143309  38.229  43.215   5.823
 3299POPC   GL243310  38.536  43.009   5.799
 3299POPC   C1A43311  38.250  43.022   6.226
 3299POPC   D2A43312  38.462  42.911   6.617
 3299POPC   C3A43313  38.268  43.003   7.019
 3299POPC   C4A43314  38.334  43.165   7.414
 3299POPC   C1B43315  38.724  43.228   6.154
 3299POPC   C2B43316  38.927  43.172   6.562
 3299POPC   C3B43317  38.732  43.215   6.991
 3299POPC   C4B43318  38.822  43.298   7.420
 3300POPC   NC343319   3.037   4.330   5.151
 3300POPC   PO443320   2.415   4.173   5.372
 3300POPC   GL143321   2.587   4.344   5.764
 3300POPC   GL243322   2.331   4.605   5.805
 3300POPC   C1A43323   2.866   4.262   6.172
 3300POPC   D2A43324   3.123   4.397   6.566
 3300POPC   C3A43325   2.947   4.308   6.972
 3300POPC   C4A43326   2.658   4.031   7.169
 3300POPC   C1B43327   2.499   4.644   6.212
 3300POPC   C2B43328   2.608   4.533   6.619
 3300POPC   C3B43329   2.414   4.654   7.004
 3300POPC   C4B43330   2.597   4.507   7.340
 3301POPC   NC343331  20.185  33.408   5.279
 3301POPC   PO443332  20.148  34.080   5.334
 3301POPC   GL143333  20.128  33.766   5.684
 3301POPC   GL243334  20.401  33.537   5.732
 3301POPC   C1A43335  19.849  33.637   6.037
 3301POPC   D2A43336  19.712  33.780   6.460
 3301POPC   C3A43337  19.634  33.503   6.813
 3301POPC   C4A43338  19.538  33.627   7.228
 3301POPC   C1B43339  20.345  33.665   6.156
 3301POPC   C2B43340  20.149  33.523   6.554
 3301POPC   C3B43341  20.094  33.680   6.979
 3301POPC   C4B43342  20.400  33.692   7.294
 3302POPC   NC343343  43.508  15.887   5.102
 3302POPC   PO443344  44.074  15.768   5.478
 3302POPC   GL143345  43.961  15.996   5.844
 3302POPC   GL243346  43.853  16.347   5.734
 3302POPC   C1A43347  43.785  15.858   6.255
 3302POPC   D2A43348  43.921  15.871   6.669
 3302POPC   C3A43349  43.609  15.748   6.946
 3302POPC   C4A43350  43.750  15.786   7.324
 3302POPC   C1B43351  43.620  16.321   6.132
 3302POPC   C2B43352  43.516  16.185   6.583
 3302POPC   C3B43353  43.660  16.233   7.032
 3302POPC   C4B43354  43.405  16.379   7.385
 3303POPC   NC343355   5.675  22.321   5.231
 3303POPC   PO443356   6.151  21.929   5.335
 3303POPC   GL143357   5.986  22.258   5.658
 3303POPC   GL243358   5.629  22.411   5.749
 3303POPC   C1A43359   5.925  22.203   6.112
 3303POPC   D2A43360   5.812  22.287   6.537
 3303POPC   C3A43361   6.101  22.282   6.867
 3303POPC   C4A43362   6.019  22.299   7.301
 3303POPC   C1B43363   5.421  22.229   6.148
 3303POPC   C2B43364   5.424  21.979   6.560
 3303POPC   C3B43365   5.369  22.218   6.929
 3303POPC   C4B43366   5.518  22.242   7.349
 3304POPC   NC343367  13.970  38.841   5.487
 3304POPC   PO443368  13.435  38.449   5.500
 3304POPC   GL143369  13.705  38.419   5.853
 3304POPC   GL243370  13.727  38.784   5.922
 3304POPC   C1A43371  13.831  38.454   6.297
 3304POPC   D2A43372  13.958  38.436   6.718
 3304POPC   C3A43373  13.631  38.290   6.962
 3304POPC   C4A43374  13.276  38.309   7.232
 3304POPC   C1B43375  13.988  38.945   6.242
 3304POPC   C2B43376  13.866  39.073   6.656
 3304POPC   C3B43377  13.802  38.830   7.017
 3304POPC   C4B43378  13.932  38.513   7.305
 3305POPC   NC343379   4.781  21.983   5.426
 3305POPC   PO443380   5.247  22.363   5.374
 3305POPC   GL143381   5.233  22.041   5.707
 3305POPC   GL243382   5.583  21.900   5.796
 3305POPC   C1A43383   4.925  22.046   6.084
 3305POPC   D2A43384   4.979  22.222   6.509
 3305POPC   C3A43385   4.746  22.358   6.868
 3305POPC   C4A43386   4.993  22.404   7.241
 3305POPC   C1B43387   5.317  21.729   6.122
 3305POPC   C2B43388   5.009  21.700   6.462
 3305POPC   C3B43389   4.965  21.844   6.890
 3305POPC   C4B43390   5.158  21.894   7.300
 3306POPC   NC343391  11.828  34.917   5.505
 3306POPC   PO443392  12.203  34.392   5.199
 3306POPC   GL143393  12.182  34.563   5.664
 3306POPC   GL243394  12.454  34.736   5.826
 3306POPC   C1A43395  12.126  34.406   6.121
 3306POPC   D2A43396  12.250  34.322   6.577
 3306POPC   C3A43397  11.984  34.467   6.946
 3306POPC   C4A43398  11.903  34.448   7.411
 3306POPC   C1B43399  12.294  34.873   6.234
 3306POPC   C2B43400  12.414  34.807   6.679
 3306POPC   C3B43401  12.363  34.750   7.107
 3306POPC   C4B43402  12.004  34.939   7.349
 3307POPC   NC343403  31.348  33.855   5.330
 3307POPC   PO443404  31.859  34.155   5.683
 3307POPC   GL143405  31.585  33.899   5.938
 3307POPC   GL243406  31.356  33.676   5.789
 3307POPC   C1A43407  31.598  33.819   6.372
 3307POPC   D2A43408  31.844  33.933   6.724
 3307POPC   C3A43409  31.655  33.768   7.060
 3307POPC   C4A43410  31.407  33.975   7.358
 3307POPC   C1B43411  31.377  33.418   6.130
 3307POPC   C2B43412  31.223  33.476   6.531
 3307POPC   C3B43413  31.266  33.278   6.905
 3307POPC   C4B43414  31.366  33.417   7.292
 3308POPC   NC343415  44.395  27.431   5.748
 3308POPC   PO443416  44.866  27.822   5.484
 3308POPC   GL143417  44.909  27.589   5.868
 3308POPC   GL243418  44.652  27.735   6.044
 3308POPC   C1A43419  44.808  27.320   6.263
 3308POPC   D2A43420  44.426  27.298   6.532
 3308POPC   C3A43421  44.490  27.424   6.979
 3308POPC   C4A43422  44.902  27.382   7.183
 3308POPC   C1B43423  44.876  27.932   6.337
 3308POPC   C2B43424   0.037  27.810   6.745
 3308POPC   C3B43425  44.839  27.944   7.118
 3308POPC   C4B43426  44.621  27.725   7.438
 3309POPC   NC343427  28.897  34.336   5.520
 3309POPC   PO443428  29.274  34.921   5.376
 3309POPC   GL143429  29.102  34.743   5.770
 3309POPC   GL243430  29.314  34.451   5.803
 3309POPC   C1A43431  28.895  34.602   6.175
 3309POPC   D2A43432  28.846  34.423   6.602
 3309POPC   C3A43433  28.944  34.702   6.971
 3309POPC   C4A43434  29.390  34.745   7.136
 3309POPC   C1B43435  29.296  34.225   6.191
 3309POPC   C2B43436  29.211  34.042   6.583
 3309POPC   C3B43437  29.206  34.260   6.943
 3309POPC   C4B43438  29.215  34.084   7.278
 3310POPC   NC343439  22.050  21.694   5.199
 3310POPC   PO443440  22.362  21.046   5.266
 3310POPC   GL143441  22.334  21.184   5.695
 3310POPC   GL243442  22.162  21.525   5.707
 3310POPC   C1A43443  22.370  21.052   6.120
 3310POPC   D2A43444  22.192  21.114   6.516
 3310POPC   C3A43445  22.431  21.111   6.906
 3310POPC   C4A43446  22.247  21.304   7.250
 3310POPC   C1B43447  21.970  21.438   6.118
 3310POPC   C2B43448  21.799  21.443   6.537
 3310POPC   C3B43449  21.896  21.549   6.963
 3310POPC   C4B43450  21.832  21.529   7.420
 3311POPC   NC343451  14.352  31.150   5.445
 3311POPC   PO443452  14.346  30.506   5.269
 3311POPC   GL143453  14.309  30.632   5.684
 3311POPC   GL243454  14.630  30.780   5.695
 3311POPC   C1A43455  14.423  30.478   6.112
 3311POPC   D2A43456  14.232  30.547   6.541
 3311POPC   C3A43457  14.436  30.582   6.940
 3311POPC   C4A43458  14.384  30.917   7.262
 3311POPC   C1B43459  14.567  30.964   6.098
 3311POPC   C2B43460  14.679  30.842   6.549
 3311POPC   C3B43461  14.780  30.986   6.966
 3311POPC   C4B43462  14.926  30.936   7.379
 3312POPC   NC343463  16.675   1.713   5.599
 3312POPC   PO443464  16.818   1.013   5.525
 3312POPC   GL143465  16.792   1.286   5.867
 3312POPC   GL243466  16.456   1.409   5.932
 3312POPC   C1A43467  16.975   1.332   6.253
 3312POPC   D2A43468  17.209   1.119   6.575
 3312POPC   C3A43469  17.148   1.276   6.990
 3312POPC   C4A43470  16.901   1.133   7.317
 3312POPC   C1B43471  16.561   1.657   6.286
 3312POPC   C2B43472  16.723   1.500   6.667
 3312POPC   C3B43473  16.536   1.268   6.973
 3312POPC   C4B43474  16.512   1.435   7.371
 3313POPC   NC343475  39.741  22.944   5.757
 3313POPC   PO443476  39.218  22.877   5.439
 3313POPC   GL143477  39.153  22.762   5.846
 3313POPC   GL243478  39.432  22.578   5.954
 3313POPC   C1A43479  39.086  22.997   6.241
 3313POPC   D2A43480  39.060  23.272   6.598
 3313POPC   C3A43481  39.109  23.113   7.016
 3313POPC   C4A43482  39.408  23.277   7.300
 3313POPC   C1B43483  39.567  22.813   6.348
 3313POPC   C2B43484  39.786  22.695   6.703
 3313POPC   C3B43485  39.539  22.822   7.029
 3313POPC   C4B43486  39.357  22.665   7.349
 3314POPC   NC343487  27.338   9.662   5.544
 3314POPC   PO443488  27.920   9.846   5.391
 3314POPC   GL143489  27.851  10.044   5.777
 3314POPC   GL243490  27.757   9.727   5.916
 3314POPC   C1A43491  27.937  10.080   6.252
 3314POPC   D2A43492  27.711   9.829   6.589
 3314POPC   C3A43493  27.625   9.999   7.015
 3314POPC   C4A43494  27.280   9.959   7.322
 3314POPC   C1B43495  27.404   9.653   6.192
 3314POPC   C2B43496  27.250   9.522   6.575
 3314POPC   C3B43497  27.437   9.511   6.980
 3314POPC   C4B43498  27.406   9.470   7.405
 3315POPC   NC343499   6.219  31.705   5.758
 3315POPC   PO443500   5.844  31.253   5.369
 3315POPC   GL143501   5.860  31.336   5.814
 3315POPC   GL243502   6.068  31.040   5.822
 3315POPC   C1A43503   5.741  31.501   6.269
 3315POPC   D2A43504   5.892  31.713   6.681
 3315POPC   C3A43505   5.764  31.568   7.098
 3315POPC   C4A43506   5.575  31.384   7.445
 3315POPC   C1B43507   6.166  31.150   6.236
 3315POPC   C2B43508   6.051  31.229   6.630
 3315POPC   C3B43509   6.250  31.380   6.959
 3315POPC   C4B43510   6.236  31.745   7.204
 3316POPC   NC343511  40.118  15.726   5.408
 3316POPC   PO443512  39.878  16.388   5.464
 3316POPC   GL143513  40.048  16.095   5.765
 3316POPC   GL243514  40.361  16.248   5.815
 3316POPC   C1A43515  40.082  15.885   6.185
 3316POPC   D2A43516  39.829  15.819   6.569
 3316POPC   C3A43517  40.061  15.776   6.964
 3316POPC   C4A43518  39.847  15.958   7.305
 3316POPC   C1B43519  40.281  16.365   6.233
 3316POPC   C2B43520  40.191  16.165   6.614
 3316POPC   C3B43521  40.187  16.271   7.027
 3316POPC   C4B43522  40.409  16.215   7.395
 3317POPC   NC343523  40.335   5.005   5.489
 3317POPC   PO443524  39.884   5.413   5.534
 3317POPC   GL143525  40.031   5.174   5.857
 3317POPC   GL243526  40.375   5.181   5.972
 3317POPC   C1A43527  39.924   5.055   6.241
 3317POPC   D2A43528  40.186   5.065   6.560
 3317POPC   C3A43529  39.939   4.983   6.904
 3317POPC   C4A43530  40.169   5.084   7.270
 3317POPC   C1B43531  40.320   4.734   6.129
 3317POPC   C2B43532  40.438   4.601   6.555
 3317POPC   C3B43533  40.285   4.618   6.970
 3317POPC   C4B43534  40.477   4.696   7.379
 3318POPC   NC343535  37.768  42.044   5.491
 3318POPC   PO443536  37.352  42.572   5.461
 3318POPC   GL143537  37.645  42.488   5.765
 3318POPC   GL243538  38.007  42.613   5.694
 3318POPC   C1A43539  37.512  42.310   6.179
 3318POPC   D2A43540  37.700  42.191   6.582
 3318POPC   C3A43541  37.522  42.317   6.989
 3318POPC   C4A43542  37.512  42.228   7.437
 3318POPC   C1B43543  38.013  42.409   6.116
 3318POPC   C2B43544  38.074  42.564   6.539
 3318POPC   C3B43545  37.916  42.646   6.948
 3318POPC   C4B43546  37.730  42.683   7.363
 3319POPC   NC343547  17.132  12.162   5.303
 3319POPC   PO443548  17.762  12.028   5.239
 3319POPC   GL143549  17.652  12.154   5.689
 3319POPC   GL243550  17.340  12.373   5.723
 3319POPC   C1A43551  17.634  12.138   6.155
 3319POPC   D2A43552  17.300  12.106   6.489
 3319POPC   C3A43553  17.424  11.978   6.897
 3319POPC   C4A43554  17.451  11.835   7.318
 3319POPC   C1B43555  17.347  12.585   6.128
 3319POPC   C2B43556  17.616  12.539   6.475
 3319POPC   C3B43557  17.563  12.483   6.890
 3319POPC   C4B43558  17.453  12.335   7.295
 3320POPC   NC343559  41.505  30.157   5.042
 3320POPC   PO443560  41.617  29.639   5.457
 3320POPC   GL143561  41.578  29.817   5.884
 3320POPC   GL243562  41.217  29.718   5.973
 3320POPC   C1A43563  41.902  29.865   6.258
 3320POPC   D2A43564  41.900  30.073   6.675
 3320POPC   C3A43565  41.789  29.844   7.062
 3320POPC   C4A43566  41.610  29.871   7.493
 3320POPC   C1B43567  41.235  30.109   6.210
 3320POPC   C2B43568  41.359  30.212   6.658
 3320POPC   C3B43569  41.334  30.116   7.114
 3320POPC   C4B43570  41.098  29.780   7.342
 3321POPC   NC343571  40.048  42.024   5.302
 3321POPC   PO443572  39.990  41.351   5.295
 3321POPC   GL143573  40.055  41.618   5.666
 3321POPC   GL243574  39.737  41.767   5.750
 3321POPC   C1A43575  40.067  41.628   6.124
 3321POPC   D2A43576  40.060  41.846   6.482
 3321POPC   C3A43577  40.008  41.712   6.926
 3321POPC   C4A43578  40.056  41.645   7.381
 3321POPC   C1B43579  39.567  41.712   6.200
 3321POPC   C2B43580  39.629  41.536   6.609
 3321POPC   C3B43581  39.582  41.222   6.923
 3321POPC   C4B43582  39.715  41.242   7.343
 3322POPC   NC343583  37.049  29.748   5.318
 3322POPC   PO443584  36.520  30.240   5.442
 3322POPC   GL143585  36.819  30.001   5.704
 3322POPC   GL243586  36.655  29.741   5.904
 3322POPC   C1A43587  37.110  29.908   6.050
 3322POPC   D2A43588  37.288  29.916   6.470
 3322POPC   C3A43589  37.133  29.679   6.815
 3322POPC   C4A43590  37.287  29.850   7.204
 3322POPC   C1B43591  36.673  30.070   6.237
 3322POPC   C2B43592  36.824  30.095   6.692
 3322POPC   C3B43593  36.836  30.204   7.177
 3322POPC   C4B43594  36.708  30.308   7.659
 3323POPC   NC343595  37.158  21.757   5.222
 3323POPC   PO443596  36.869  21.158   5.412
 3323POPC   GL143597  36.801  21.168   5.865
 3323POPC   GL243598  36.541  21.404   5.969
 3323POPC   C1A43599  36.885  21.189   6.322
 3323POPC   D2A43600  36.639  21.310   6.678
 3323POPC   C3A43601  36.866  21.168   7.023
 3323POPC   C4A43602  37.197  21.348   7.251
 3323POPC   C1B43603  36.879  21.659   6.149
 3323POPC   C2B43604  36.842  21.821   6.549
 3323POPC   C3B43605  37.028  21.695   6.905
 3323POPC   C4B43606  36.945  21.862   7.276
 3324POPC   NC343607  30.932  14.747   5.594
 3324POPC   PO443608  30.570  14.204   5.458
 3324POPC   GL143609  30.916  14.226   5.813
 3324POPC   GL243610  31.126  14.526   5.995
 3324POPC   C1A43611  30.840  14.238   6.277
 3324POPC   D2A43612  30.573  14.227   6.615
 3324POPC   C3A43613  30.791  14.245   6.997
 3324POPC   C4A43614  30.632  14.567   7.210
 3324POPC   C1B43615  30.766  14.735   6.275
 3324POPC   C2B43616  30.773  14.751   6.742
 3324POPC   C3B43617  31.113  14.662   7.053
 3324POPC   C4B43618  31.090  14.637   7.511
 3325POPC   NC343619   1.241   4.566   5.385
 3325POPC   PO443620   0.789   4.066   5.348
 3325POPC   GL143621   1.013   4.185   5.757
 3325POPC   GL243622   1.365   4.242   5.771
 3325POPC   C1A43623   1.140   4.057   6.179
 3325POPC   D2A43624   1.025   3.987   6.578
 3325POPC   C3A43625   1.247   4.110   6.940
 3325POPC   C4A43626   1.118   4.370   7.293
 3325POPC   C1B43627   1.438   4.484   6.137
 3325POPC   C2B43628   1.585   4.409   6.554
 3325POPC   C3B43629   1.386   4.598   6.894
 3325POPC   C4B43630   1.486   4.714   7.295
 3326POPC   NC343631  20.427  36.939   5.304
 3326POPC   PO443632  20.932  36.538   5.423
 3326POPC   GL143633  20.686  36.789   5.762
 3326POPC   GL243634  20.309  36.806   5.792
 3326POPC   C1A43635  20.573  36.681   6.218
 3326POPC   D2A43636  20.313  36.620   6.608
 3326POPC   C3A43637  20.618  36.639   6.961
 3326POPC   C4A43638  20.979  36.897   7.096
 3326POPC   C1B43639  20.349  37.148   6.131
 3326POPC   C2B43640  20.334  37.176   6.596
 3326POPC   C3B43641  20.484  37.161   7.029
 3326POPC   C4B43642  20.724  37.193   7.411
 3327POPC   NC343643  25.087   5.510   5.193
 3327POPC   PO443644  25.574   5.054   5.182
 3327POPC   GL143645  25.495   5.167   5.623
 3327POPC   GL243646  25.215   5.401   5.736
 3327POPC   C1A43647  25.597   5.207   6.056
 3327POPC   D2A43648  25.389   5.299   6.431
 3327POPC   C3A43649  25.442   5.017   6.774
 3327POPC   C4A43650  25.672   5.157   7.152
 3327POPC   C1B43651  24.978   5.282   6.120
 3327POPC   C2B43652  24.921   5.145   6.548
 3327POPC   C3B43653  24.887   5.226   6.931
 3327POPC   C4B43654  25.155   5.080   7.208
 3328POPC   NC343655  29.252  32.473   5.611
 3328POPC   PO443656  28.684  32.114   5.268
 3328POPC   GL143657  28.963  32.015   5.668
 3328POPC   GL243658  28.804  31.773   5.837
 3328POPC   C1A43659  29.172  32.032   6.115
 3328POPC   D2A43660  29.259  32.288   6.520
 3328POPC   C3A43661  29.427  32.117   6.913
 3328POPC   C4A43662  29.333  32.304   7.320
 3328POPC   C1B43663  28.731  31.890   6.290
 3328POPC   C2B43664  28.731  32.215   6.595
 3328POPC   C3B43665  28.945  32.255   6.974
 3328POPC   C4B43666  28.989  31.909   7.286
 3329POPC   NC343667   3.278  17.724   5.167
 3329POPC   PO443668   3.580  18.343   5.331
 3329POPC   GL143669   3.518  18.455   5.788
 3329POPC   GL243670   3.285  18.243   5.888
 3329POPC   C1A43671   3.722  18.320   6.197
 3329POPC   D2A43672   3.608  18.294   6.621
 3329POPC   C3A43673   3.909  18.240   6.906
 3329POPC   C4A43674   3.866  18.199   7.332
 3329POPC   C1B43675   3.287  18.037   6.290
 3329POPC   C2B43676   3.109  18.174   6.678
 3329POPC   C3B43677   3.298  18.296   7.061
 3329POPC   C4B43678   3.396  18.203   7.511
 3330POPC   NC343679   9.113   0.477   5.403
 3330POPC   PO443680   8.458   0.437   5.359
 3330POPC   GL143681   8.691   0.518   5.734
 3330POPC   GL243682   8.840   0.248   5.852
 3330POPC   C1A43683   8.611   0.628   6.151
 3330POPC   D2A43684   8.815   0.438   6.493
 3330POPC   C3A43685   8.776   0.565   6.899
 3330POPC   C4A43686   8.531   0.354   7.175
 3330POPC   C1B43687   9.125   0.537   6.072
 3330POPC   C2B43688   9.282   0.616   6.491
 3330POPC   C3B43689   9.235   0.334   6.804
 3330POPC   C4B43690   9.205   0.494   7.199
 3331POPC   NC343691  25.574   9.683   5.396
 3331POPC   PO443692  24.931   9.820   5.393
 3331POPC   GL143693  25.171   9.670   5.725
 3331POPC   GL243694  25.402   9.909   5.857
 3331POPC   C1A43695  25.209   9.506   6.152
 3331POPC   D2A43696  25.474   9.635   6.498
 3331POPC   C3A43697  25.557   9.505   6.928
 3331POPC   C4A43698  25.720   9.855   7.178
 3331POPC   C1B43699  25.045  10.010   6.142
 3331POPC   C2B43700  24.819  10.119   6.512
 3331POPC   C3B43701  24.966  10.043   6.905
 3331POPC   C4B43702  25.198   9.866   7.256
 3332POPC   NC343703  11.336  29.608   5.555
 3332POPC   PO443704  11.511  30.217   5.526
 3332POPC   GL143705  11.429  30.073   5.928
 3332POPC   GL243706  11.084  30.017   5.823
 3332POPC   C1A43707  11.632  30.046   6.358
 3332POPC   D2A43708  11.702  30.237   6.757
 3332POPC   C3A43709  11.533  29.976   7.078
 3332POPC   C4A43710  11.460  30.045   7.506
 3332POPC   C1B43711  11.012  30.226   6.210
 3332POPC   C2B43712  11.198  30.173   6.653
 3332POPC   C3B43713  11.069  30.165   7.097
 3332POPC   C4B43714  11.076  29.769   7.327
 3333POPC   NC343715  14.834  42.942   5.373
 3333POPC   PO443716  14.176  42.836   5.481
 3333POPC   GL143717  14.419  43.139   5.738
 3333POPC   GL243718  14.639  43.386   5.578
 3333POPC   C1A43719  14.428  43.227   6.200
 3333POPC   D2A43720  14.531  42.998   6.578
 3333POPC   C3A43721  14.264  42.876   6.933
 3333POPC   C4A43722  14.235  43.112   7.307
 3333POPC   C1B43723  14.791  43.522   5.976
 3333POPC   C2B43724  14.784  43.562   6.422
 3333POPC   C3B43725  14.554  43.494   6.806
 3333POPC   C4B43726  14.603  43.518   7.251
 3334POPC   NC343727  37.198  16.872   5.487
 3334POPC   PO443728  36.696  16.585   5.074
 3334POPC   GL143729  36.598  16.672   5.549
 3334POPC   GL243730  36.564  16.339   5.667
 3334POPC   C1A43731  36.757  16.804   6.007
 3334POPC   D2A43732  36.692  16.800   6.490
 3334POPC   C3A43733  36.741  16.971   6.927
 3334POPC   C4A43734  37.092  16.873   7.194
 3334POPC   C1B43735  36.777  16.284   6.064
 3334POPC   C2B43736  36.689  16.286   6.507
 3334POPC   C3B43737  36.852  16.436   6.892
 3334POPC   C4B43738  36.677  16.551   7.258
 3335POPC   NC343739  10.174   4.249   5.644
 3335POPC   PO443740   9.602   4.238   5.301
 3335POPC   GL143741   9.588   4.561   5.716
 3335POPC   GL243742   9.911   4.645   5.861
 3335POPC   C1A43743   9.566   4.702   6.214
 3335POPC   D2A43744   9.586   4.511   6.624
 3335POPC   C3A43745   9.577   4.335   7.025
 3335POPC   C4A43746   9.330   3.981   7.218
 3335POPC   C1B43747   9.799   4.264   6.167
 3335POPC   C2B43748   9.937   4.154   6.584
 3335POPC   C3B43749  10.127   4.327   6.958
 3335POPC   C4B43750  10.077   4.580   7.304
 3336POPC   NC343751  38.300  20.821   5.328
 3336POPC   PO443752  38.337  21.471   5.458
 3336POPC   GL143753  38.432  21.274   5.831
 3336POPC   GL243754  38.131  21.078   5.802
 3336POPC   C1A43755  38.533  21.416   6.250
 3336POPC   D2A43756  38.392  21.628   6.630
 3336POPC   C3A43757  38.627  21.428   6.941
 3336POPC   C4A43758  38.637  21.179   7.317
 3336POPC   C1B43759  38.180  21.028   6.242
 3336POPC   C2B43760  38.372  21.056   6.644
 3336POPC   C3B43761  38.219  20.880   7.021
 3336POPC   C4B43762  38.003  20.965   7.353
 3337POPC   NC343763  16.916  41.377   5.443
 3337POPC   PO443764  16.800  41.972   5.476
 3337POPC   GL143765  16.624  41.757   5.871
 3337POPC   GL243766  16.928  41.614   5.901
 3337POPC   C1A43767  16.637  41.653   6.356
 3337POPC   D2A43768  16.757  41.360   6.703
 3337POPC   C3A43769  16.621  41.375   7.159
 3337POPC   C4A43770  16.412  41.267   7.601
 3337POPC   C1B43771  17.118  41.812   6.244
 3337POPC   C2B43772  17.124  41.750   6.660
 3337POPC   C3B43773  16.935  41.815   7.038
 3337POPC   C4B43774  17.120  42.110   7.344
 3338POPC   NC343775  35.307  12.485   5.615
 3338POPC   PO443776  35.633  11.948   5.216
 3338POPC   GL143777  35.557  12.049   5.692
 3338POPC   GL243778  35.243  12.020   5.885
 3338POPC   C1A43779  35.625  12.138   6.180
 3338POPC   D2A43780  35.574  11.964   6.572
 3338POPC   C3A43781  35.375  12.147   6.930
 3338POPC   C4A43782  35.551  12.155   7.319
 3338POPC   C1B43783  35.159  12.304   6.262
 3338POPC   C2B43784  35.016  12.488   6.694
 3338POPC   C3B43785  35.036  12.531   7.186
 3338POPC   C4B43786  35.244  12.676   7.606
 3339POPC   NC343787  14.786  28.822   5.483
 3339POPC   PO443788  14.382  29.422   5.261
 3339POPC   GL143789  14.427  29.176   5.677
 3339POPC   GL243790  14.755  29.281   5.778
 3339POPC   C1A43791  14.156  29.017   6.035
 3339POPC   D2A43792  14.241  29.067   6.500
 3339POPC   C3A43793  13.999  28.967   6.882
 3339POPC   C4A43794  14.153  29.043   7.289
 3339POPC   C1B43795  14.666  29.004   6.155
 3339POPC   C2B43796  14.784  29.001   6.610
 3339POPC   C3B43797  14.647  28.961   7.048
 3339POPC   C4B43798  14.587  29.295   7.331
 3340POPC   NC343799  38.725   0.416   5.222
 3340POPC   PO443800  39.421   0.174   5.364
 3340POPC   GL143801  39.479   0.275   5.797
 3340POPC   GL243802  39.259   0.521   5.905
 3340POPC   C1A43803  39.482   0.153   6.241
 3340POPC   D2A43804  39.509   0.379   6.644
 3340POPC   C3A43805  39.239   0.480   7.009
 3340POPC   C4A43806  39.406   0.667   7.398
 3340POPC   C1B43807  39.035   0.422   6.282
 3340POPC   C2B43808  38.736   0.430   6.646
 3340POPC   C3B43809  38.687   0.480   7.103
 3340POPC   C4B43810  38.934   0.591   7.465
 3341POPC   NC343811  41.222  27.079   5.537
 3341POPC   PO443812  41.729  26.691   5.520
 3341POPC   GL143813  41.437  26.666   5.865
 3341POPC   GL243814  41.198  26.379   5.939
 3341POPC   C1A43815  41.643  26.837   6.229
 3341POPC   D2A43816  41.832  26.856   6.638
 3341POPC   C3A43817  41.513  27.036   6.913
 3341POPC   C4A43818  41.515  27.218   7.312
 3341POPC   C1B43819  41.404  26.412   6.359
 3341POPC   C2B43820  41.469  26.517   6.815
 3341POPC   C3B43821  41.497  26.669   7.268
 3341POPC   C4B43822  41.395  26.521   7.670
 3342POPC   NC343823  13.273  19.696   5.570
 3342POPC   PO443824  12.630  19.809   5.450
 3342POPC   GL143825  12.865  19.798   5.854
 3342POPC   GL243826  13.083  19.520   6.012
 3342POPC   C1A43827  12.923  19.999   6.238
 3342POPC   D2A43828  12.632  20.202   6.507
 3342POPC   C3A43829  12.577  20.100   6.936
 3342POPC   C4A43830  12.727  20.041   7.355
 3342POPC   C1B43831  12.701  19.531   6.269
 3342POPC   C2B43832  12.759  19.719   6.655
 3342POPC   C3B43833  13.006  19.770   7.010
 3342POPC   C4B43834  12.989  19.593   7.415
 3343POPC   NC343835  18.993  26.188   5.275
 3343POPC   PO443836  18.627  25.707   5.470
 3343POPC   GL143837  18.924  25.918   5.774
 3343POPC   GL243838  19.222  26.114   5.752
 3343POPC   C1A43839  18.943  25.883   6.200
 3343POPC   D2A43840  18.830  26.239   6.457
 3343POPC   C3A43841  18.853  26.168   6.894
 3343POPC   C4A43842  19.233  26.327   7.089
 3343POPC   C1B43843  19.306  26.252   6.188
 3343POPC   C2B43844  19.275  26.025   6.599
 3343POPC   C3B43845  19.244  25.818   7.000
 3343POPC   C4B43846  19.513  25.970   7.322
 3344POPC   NC343847  39.456  36.427   5.389
 3344POPC   PO443848  39.245  35.807   5.503
 3344POPC   GL143849  39.470  36.074   5.772
 3344POPC   GL243850  39.193  36.280   5.831
 3344POPC   C1A43851  39.521  36.216   6.195
 3344POPC   D2A43852  39.277  36.202   6.575
 3344POPC   C3A43853  39.435  36.253   6.960
 3344POPC   C4A43854  39.331  36.047   7.286
 3344POPC   C1B43855  39.094  35.926   6.122
 3344POPC   C2B43856  38.950  35.824   6.528
 3344POPC   C3B43857  38.918  36.000   6.922
 3344POPC   C4B43858  38.918  35.731   7.249
 3345POPC   NC343859  27.480  34.201   4.996
 3345POPC   PO443860  27.660  33.620   5.359
 3345POPC   GL143861  27.834  33.810   5.767
 3345POPC   GL243862  28.034  33.552   5.938
 3345POPC   C1A43863  27.787  33.869   6.250
 3345POPC   D2A43864  27.678  33.725   6.672
 3345POPC   C3A43865  27.406  34.004   6.882
 3345POPC   C4A43866  27.061  33.877   7.118
 3345POPC   C1B43867  28.102  33.368   6.345
 3345POPC   C2B43868  28.134  33.287   6.826
 3345POPC   C3B43869  27.941  33.500   7.117
 3345POPC   C4B43870  28.070  33.689   7.464
 3346POPC   NC343871   5.803  26.863   5.171
 3346POPC   PO443872   5.512  26.498   5.696
 3346POPC   GL143873   5.742  26.643   6.046
 3346POPC   GL243874   6.081  26.748   5.925
 3346POPC   C1A43875   5.694  26.684   6.478
 3346POPC   D2A43876   5.997  26.530   6.775
 3346POPC   C3A43877   5.866  26.544   7.181
 3346POPC   C4A43878   6.082  26.379   7.529
 3346POPC   C1B43879   6.189  26.804   6.360
 3346POPC   C2B43880   6.000  27.037   6.744
 3346POPC   C3B43881   6.069  27.137   7.185
 3346POPC   C4B43882   6.243  27.203   7.621
 3347POPC   NC343883  27.178  39.884   5.492
 3347POPC   PO443884  26.860  40.404   5.484
 3347POPC   GL143885  26.717  40.038   5.760
 3347POPC   GL243886  26.750  39.654   5.745
 3347POPC   C1A43887  26.582  39.878   6.182
 3347POPC   D2A43888  26.672  40.018   6.593
 3347POPC   C3A43889  27.012  40.058   6.852
 3347POPC   C4A43890  26.793  40.129   7.194
 3347POPC   C1B43891  27.035  39.621   6.120
 3347POPC   C2B43892  26.990  39.603   6.583
 3347POPC   C3B43893  26.734  39.625   6.966
 3347POPC   C4B43894  26.883  39.675   7.412
 3348POPC   NC343895  14.005  25.820   5.498
 3348POPC   PO443896  13.335  26.115   5.437
 3348POPC   GL143897  13.498  25.896   5.791
 3348POPC   GL243898  13.816  26.035   5.930
 3348POPC   C1A43899  13.391  25.990   6.225
 3348POPC   D2A43900  13.504  26.075   6.638
 3348POPC   C3A43901  13.736  25.803   6.895
 3348POPC   C4A43902  13.617  25.893   7.305
 3348POPC   C1B43903  13.964  26.004   6.358
 3348POPC   C2B43904  14.038  26.185   6.743
 3348POPC   C3B43905  13.736  26.353   7.016
 3348POPC   C4B43906  13.780  26.364   7.438
 3349POPC   NC343907   4.213  27.784   5.523
 3349POPC   PO443908   4.714  27.352   5.481
 3349POPC   GL143909   4.589  27.501   5.888
 3349POPC   GL243910   4.399  27.194   5.889
 3349POPC   C1A43911   4.620  27.683   6.357
 3349POPC   D2A43912   4.485  27.930   6.763
 3349POPC   C3A43913   4.247  27.702   7.090
 3349POPC   C4A43914   4.402  27.605   7.487
 3349POPC   C1B43915   4.174  27.355   6.223
 3349POPC   C2B43916   4.262  27.430   6.645
 3349POPC   C3B43917   4.216  27.171   7.001
 3349POPC   C4B43918   4.007  27.292   7.357
 3350POPC   NC343919  41.608   4.532   5.473
 3350POPC   PO443920  41.997   4.065   5.735
 3350POPC   GL143921  41.703   4.368   5.948
 3350POPC   GL243922  41.339   4.569   5.955
 3350POPC   C1A43923  41.694   4.622   6.303
 3350POPC   D2A43924  41.507   4.796   6.676
 3350POPC   C3A43925  41.699   4.553   6.972
 3350POPC   C4A43926  41.671   4.142   7.162
 3350POPC   C1B43927  41.300   4.265   6.303
 3350POPC   C2B43928  41.256   4.164   6.735
 3350POPC   C3B43929  41.232   4.409   7.096
 3350POPC   C4B43930  41.344   4.338   7.505
 3351POPC   NC343931  20.922  27.329   5.322
 3351POPC   PO443932  20.375  27.651   5.323
 3351POPC   GL143933  20.542  27.750   5.743
 3351POPC   GL243934  20.879  27.870   5.662
 3351POPC   C1A43935  20.594  27.613   6.182
 3351POPC   D2A43936  20.824  27.460   6.526
 3351POPC   C3A43937  20.658  27.513   6.934
 3351POPC   C4A43938  20.583  27.286   7.307
 3351POPC   C1B43939  20.835  28.059   6.080
 3351POPC   C2B43940  20.930  27.960   6.513
 3351POPC   C3B43941  20.863  28.001   6.956
 3351POPC   C4B43942  20.716  27.808   7.368
 3352POPC   NC343943   9.785   3.807   5.262
 3352POPC   PO443944   9.844   3.119   5.303
 3352POPC   GL143945   9.718   3.399   5.643
 3352POPC   GL243946  10.042   3.476   5.741
 3352POPC   C1A43947   9.666   3.631   6.068
 3352POPC   D2A43948   9.500   3.883   6.439
 3352POPC   C3A43949   9.562   3.688   6.846
 3352POPC   C4A43950   9.861   3.904   7.105
 3352POPC   C1B43951   9.917   3.135   6.045
 3352POPC   C2B43952   9.932   3.004   6.477
 3352POPC   C3B43953  10.126   3.114   6.879
 3352POPC   C4B43954  10.121   3.486   7.212
 3353POPC   NC343955   7.290  28.800   5.340
 3353POPC   PO443956   7.578  29.399   5.465
 3353POPC   GL143957   7.331  29.190   5.757
 3353POPC   GL243958   7.455  28.857   5.834
 3353POPC   C1A43959   7.192  29.169   6.181
 3353POPC   D2A43960   7.380  29.111   6.569
 3353POPC   C3A43961   7.273  28.874   6.931
 3353POPC   C4A43962   7.221  29.241   7.198
 3353POPC   C1B43963   7.434  28.709   6.267
 3353POPC   C2B43964   7.716  28.757   6.659
 3353POPC   C3B43965   7.702  29.109   6.990
 3353POPC   C4B43966   7.603  28.932   7.392
 3354POPC   NC343967  33.195   9.808   5.258
 3354POPC   PO443968  32.664   9.554   5.554
 3354POPC   GL143969  32.913   9.774   5.852
 3354POPC   GL243970  33.142  10.027   5.737
 3354POPC   C1A43971  33.185   9.650   6.189
 3354POPC   D2A43972  33.045   9.588   6.614
 3354POPC   C3A43973  33.262   9.649   7.003
 3354POPC   C4A43974  33.108   9.580   7.431
 3354POPC   C1B43975  33.063  10.153   6.202
 3354POPC   C2B43976  33.144  10.084   6.678
 3354POPC   C3B43977  33.021  10.053   7.193
 3354POPC   C4B43978  33.068  10.022   7.700
 3355POPC   NC343979  12.461   6.802   5.518
 3355POPC   PO443980  13.052   6.576   5.360
 3355POPC   GL143981  13.017   6.522   5.786
 3355POPC   GL243982  12.901   6.850   5.845
 3355POPC   C1A43983  12.860   6.451   6.221
 3355POPC   D2A43984  12.673   6.467   6.612
 3355POPC   C3A43985  12.905   6.545   6.958
 3355POPC   C4A43986  12.794   6.330   7.286
 3355POPC   C1B43987  12.647   6.920   6.218
 3355POPC   C2B43988  12.538   6.964   6.667
 3355POPC   C3B43989  12.461   6.732   7.068
 3355POPC   C4B43990  12.727   6.801   7.482
 3356POPC   NC343991  23.382  41.805   5.386
 3356POPC   PO443992  23.834  41.372   5.215
 3356POPC   GL143993  23.700  41.479   5.677
 3356POPC   GL243994  23.460  41.196   5.754
 3356POPC   C1A43995  23.703  41.656   6.147
 3356POPC   D2A43996  23.572  41.587   6.597
 3356POPC   C3A43997  23.856  41.592   6.945
 3356POPC   C4A43998  23.677  41.705   7.341
 3356POPC   C1B43999  23.795  41.147   6.056
 3356POPC   C2B44000  23.738  41.082   6.473
 3356POPC   C3B44001  23.751  41.086   6.888
 3356POPC   C4B44002  23.759  41.203   7.304
 3357POPC   NC344003  18.783   5.583   5.403
 3357POPC   PO444004  19.120   4.926   5.283
 3357POPC   GL144005  19.080   5.205   5.662
 3357POPC   GL244006  19.399   5.327   5.779
 3357POPC   C1A44007  19.028   5.261   6.122
 3357POPC   D2A44008  18.898   5.402   6.545
 3357POPC   C3A44009  18.950   5.143   6.880
 3357POPC   C4A44010  19.209   4.916   7.162
 3357POPC   C1B44011  19.516   5.415   6.181
 3357POPC   C2B44012  19.377   5.256   6.557
 3357POPC   C3B44013  19.392   5.407   6.933
 3357POPC   C4B44014  19.626   5.387   7.286
 3358POPC   NC344015   5.964  15.781   5.571
 3358POPC   PO444016   6.312  16.294   5.474
 3358POPC   GL144017   6.099  16.155   5.882
 3358POPC   GL244018   5.709  16.036   5.911
 3358POPC   C1A44019   6.048  16.008   6.331
 3358POPC   D2A44020   5.788  15.714   6.612
 3358POPC   C3A44021   5.726  15.854   7.030
 3358POPC   C4A44022   6.081  15.930   7.277
 3358POPC   C1B44023   5.456  15.852   6.253
 3358POPC   C2B44024   5.301  15.957   6.666
 3358POPC   C3B44025   5.301  16.146   7.068
 3358POPC   C4B44026   5.431  15.990   7.441
 3359POPC   NC344027  17.071  43.795   5.391
 3359POPC   PO444028  16.495  43.535   5.541
 3359POPC   GL144029  16.581  43.849   5.859
 3359POPC   GL244030  16.437  44.183   5.786
 3359POPC   C1A44031  16.872  43.893   6.207
 3359POPC   D2A44032  16.928  43.719   6.612
 3359POPC   C3A44033  16.831  43.929   6.984
 3359POPC   C4A44034  16.654  43.624   7.197
 3359POPC   C1B44035  16.595  44.318   6.207
 3359POPC   C2B44036  16.531  44.099   6.579
 3359POPC   C3B44037  16.366  44.137   6.983
 3359POPC   C4B44038  16.530  44.090   7.383
 3360POPC   NC344039  10.339   0.998   5.142
 3360POPC   PO444040  10.420   1.591   5.296
 3360POPC   GL144041  10.509   1.398   5.699
 3360POPC   GL244042  10.300   1.101   5.782
 3360POPC   C1A44043  10.629   1.417   6.137
 3360POPC   D2A44044  10.793   1.179   6.502
 3360POPC   C3A44045  10.756   1.332   6.928
 3360POPC   C4A44046  10.809   1.209   7.321
 3360POPC   C1B44047  10.351   1.013   6.238
 3360POPC   C2B44048  10.315   1.214   6.680
 3360POPC   C3B44049  10.301   1.201   7.152
 3360POPC   C4B44050  10.147   0.933   7.543
 3361POPC   NC344051  33.552   3.707   5.346
 3361POPC   PO444052  34.170   3.393   5.450
 3361POPC   GL144053  33.929   3.714   5.702
 3361POPC   GL244054  33.547   3.780   5.840
 3361POPC   C1A44055  33.977   3.725   6.129
 3361POPC   D2A44056  34.155   3.733   6.512
 3361POPC   C3A44057  33.833   3.662   6.808
 3361POPC   C4A44058  33.919   3.696   7.219
 3361POPC   C1B44059  33.483   3.430   6.121
 3361POPC   C2B44060  33.470   3.367   6.570
 3361POPC   C3B44061  33.433   3.173   6.968
 3361POPC   C4B44062  33.556   3.365   7.320
 3362POPC   NC344063  10.194  16.753   5.631
 3362POPC   PO444064   9.540  16.603   5.431
 3362POPC   GL144065   9.746  16.616   5.836
 3362POPC   GL244066   9.743  16.980   5.859
 3362POPC   C1A44067   9.904  16.653   6.259
 3362POPC   D2A44068   9.800  16.418   6.570
 3362POPC   C3A44069   9.792  16.548   6.954
 3362POPC   C4A44070  10.171  16.667   7.155
 3362POPC   C1B44071   9.539  17.000   6.272
 3362POPC   C2B44072   9.801  16.999   6.656
 3362POPC   C3B44073   9.780  17.029   7.101
 3362POPC   C4B44074   9.515  16.818   7.347
 3363POPC   NC344075  42.163  44.262   5.442
 3363POPC   PO444076  42.324  43.651   5.657
 3363POPC   GL144077  41.994  43.758   5.918
 3363POPC   GL244078  42.006  44.110   5.903
 3363POPC   C1A44079  42.131  43.805   6.334
 3363POPC   D2A44080  42.548  43.777   6.588
 3363POPC   C3A44081  42.368  43.828   7.010
 3363POPC   C4A44082  42.038  43.583   7.211
 3363POPC   C1B44083  42.389  44.210   6.158
 3363POPC   C2B44084  42.314  44.218   6.606
 3363POPC   C3B44085  42.187  44.317   6.990
 3363POPC   C4B44086  42.531  44.283   7.250
 3364POPC   NC344087   3.492  26.310   5.299
 3364POPC   PO444088   3.814  25.731   5.385
 3364POPC   GL144089   3.603  25.812   5.771
 3364POPC   GL244090   3.432  26.087   5.769
 3364POPC   C1A44091   3.625  25.810   6.207
 3364POPC   D2A44092   3.397  25.860   6.568
 3364POPC   C3A44093   3.582  25.855   6.955
 3364POPC   C4A44094   3.330  25.794   7.288
 3364POPC   C1B44095   3.633  26.336   6.127
 3364POPC   C2B44096   3.826  26.202   6.533
 3364POPC   C3B44097   3.728  26.365   6.948
 3364POPC   C4B44098   3.500  26.310   7.314
 3365POPC   NC344099  12.202   5.860   5.304
 3365POPC   PO444100  11.596   5.762   5.146
 3365POPC   GL144101  11.831   5.843   5.649
 3365POPC   GL244102  12.232   5.935   5.792
 3365POPC   C1A44103  11.871   5.961   6.136
 3365POPC   D2A44104  11.966   5.795   6.568
 3365POPC   C3A44105  11.887   5.942   6.988
 3365POPC   C4A44106  11.972   6.037   7.426
 3365POPC   C1B44107  12.365   5.805   6.228
 3365POPC   C2B44108  12.446   5.984   6.648
 3365POPC   C3B44109  12.401   6.037   7.098
 3365POPC   C4B44110  12.453   5.905   7.542
 3366POPC   NC344111  27.860  24.869   5.493
 3366POPC   PO444112  27.455  24.378   5.142
 3366POPC   GL144113  27.441  24.375   5.664
 3366POPC   GL244114  27.636  24.635   5.876
 3366POPC   C1A44115  27.347  24.336   6.137
 3366POPC   D2A44116  27.680  24.373   6.444
 3366POPC   C3A44117  27.644  24.580   6.834
 3366POPC   C4A44118  27.672  24.292   7.173
 3366POPC   C1B44119  27.907  24.790   6.228
 3366POPC   C2B44120  28.128  24.739   6.598
 3366POPC   C3B44121  28.122  24.835   6.987
 3366POPC   C4B44122  27.891  24.723   7.285
 3367POPC   NC344123   1.163   0.739   5.576
 3367POPC   PO444124   1.431   0.133   5.305
 3367POPC   GL144125   1.357   0.274   5.749
 3367POPC   GL244126   1.565   0.572   5.833
 3367POPC   C1A44127   1.207   0.405   6.195
 3367POPC   D2A44128   1.080   0.575   6.632
 3367POPC   C3A44129   1.101   0.319   7.024
 3367POPC   C4A44130   1.432   0.012   7.151
 3367POPC   C1B44131   1.499   0.857   6.208
 3367POPC   C2B44132   1.525   0.829   6.660
 3367POPC   C3B44133   1.349   0.776   7.061
 3367POPC   C4B44134   1.096   0.671   7.409
 3368POPC   NC344135  24.253   5.971   5.473
 3368POPC   PO444136  24.637   5.383   5.297
 3368POPC   GL144137  24.715   5.609   5.716
 3368POPC   GL244138  24.709   5.998   5.759
 3368POPC   C1A44139  24.589   5.635   6.164
 3368POPC   D2A44140  24.639   5.955   6.466
 3368POPC   C3A44141  24.563   5.882   6.900
 3368POPC   C4A44142  24.852   5.682   7.156
 3368POPC   C1B44143  24.418   6.199   6.071
 3368POPC   C2B44144  24.325   6.353   6.487
 3368POPC   C3B44145  24.202   6.269   6.890
 3368POPC   C4B44146  24.226   6.050   7.279
 3369POPC   NC344147  39.318  29.588   5.350
 3369POPC   PO444148  39.263  28.918   5.345
 3369POPC   GL144149  39.222  29.213   5.703
 3369POPC   GL244150  38.933  29.476   5.687
 3369POPC   C1A44151  39.411  29.098   6.113
 3369POPC   D2A44152  39.374  28.826   6.485
 3369POPC   C3A44153  39.519  28.931   6.854
 3369POPC   C4A44154  39.467  28.877   7.238
 3369POPC   C1B44155  38.915  29.323   6.123
 3369POPC   C2B44156  39.057  29.286   6.578
 3369POPC   C3B44157  39.048  29.224   7.056
 3369POPC   C4B44158  38.962  29.440   7.472
 3370POPC   NC344159  42.062  39.904   5.390
 3370POPC   PO444160  41.372  40.126   5.402
 3370POPC   GL144161  41.440  39.982   5.854
 3370POPC   GL244162  41.734  39.803   5.844
 3370POPC   C1A44163  41.513  40.205   6.299
 3370POPC   D2A44164  41.489  40.529   6.638
 3370POPC   C3A44165  41.456  40.282   7.007
 3370POPC   C4A44166  41.444  39.920   7.282
 3370POPC   C1B44167  41.595  39.703   6.301
 3370POPC   C2B44168  41.554  39.789   6.772
 3370POPC   C3B44169  41.717  39.527   7.140
 3370POPC   C4B44170  41.699  39.453   7.611
 3371POPC   NC344171  25.849  13.908   5.674
 3371POPC   PO444172  25.863  13.341   5.330
 3371POPC   GL144173  25.907  13.381   5.785
 3371POPC   GL244174  26.229  13.306   5.940
 3371POPC   C1A44175  25.821  13.441   6.239
 3371POPC   D2A44176  26.075  13.341   6.626
 3371POPC   C3A44177  25.981  13.605   6.976
 3371POPC   C4A44178  25.969  14.014   7.207
 3371POPC   C1B44179  26.293  13.636   6.228
 3371POPC   C2B44180  26.239  13.852   6.593
 3371POPC   C3B44181  26.451  13.925   6.972
 3371POPC   C4B44182  26.382  13.658   7.301
 3372POPC   NC344183  39.713  14.177   5.650
 3372POPC   PO444184  40.369  14.331   5.373
 3372POPC   GL144185  40.187  14.273   5.811
 3372POPC   GL244186  39.983  14.550   5.874
 3372POPC   C1A44187  40.063  14.206   6.261
 3372POPC   D2A44188  40.080  14.332   6.693
 3372POPC   C3A44189  40.146  14.048   7.061
 3372POPC   C4A44190  40.128  14.290   7.425
 3372POPC   C1B44191  39.666  14.525   6.233
 3372POPC   C2B44192  39.559  14.418   6.660
 3372POPC   C3B44193  39.744  14.365   7.082
 3372POPC   C4B44194  39.750  14.628   7.462
 3373POPC   NC344195   9.193  39.031   5.294
 3373POPC   PO444196   8.653  39.346   5.543
 3373POPC   GL144197   9.010  39.275   5.768
 3373POPC   GL244198   9.011  38.924   5.763
 3373POPC   C1A44199   9.143  39.399   6.181
 3373POPC   D2A44200   9.265  39.250   6.576
 3373POPC   C3A44201   9.246  39.433   6.973
 3373POPC   C4A44202   8.858  39.584   7.160
 3373POPC   C1B44203   8.847  38.953   6.177
 3373POPC   C2B44204   8.952  38.852   6.586
 3373POPC   C3B44205   8.864  39.017   6.990
 3373POPC   C4B44206   8.671  38.854   7.371
 3374POPC   NC344207   9.339  30.502   5.392
 3374POPC   PO444208   9.890  30.886   5.229
 3374POPC   GL144209   9.717  30.737   5.639
 3374POPC   GL244210   9.988  30.577   5.790
 3374POPC   C1A44211   9.540  30.650   6.082
 3374POPC   D2A44212   9.677  30.591   6.545
 3374POPC   C3A44213   9.547  30.796   6.917
 3374POPC   C4A44214   9.329  30.504   7.185
 3374POPC   C1B44215  10.062  30.642   6.219
 3374POPC   C2B44216  10.068  30.936   6.571
 3374POPC   C3B44217  10.053  30.752   6.974
 3374POPC   C4B44218  10.061  30.583   7.360
 3375POPC   NC344219  20.237  23.242   5.469
 3375POPC   PO444220  19.643  22.865   5.284
 3375POPC   GL144221  19.804  22.875   5.672
 3375POPC   GL244222  19.834  23.204   5.793
 3375POPC   C1A44223  19.838  22.750   6.082
 3375POPC   D2A44224  20.132  22.825   6.409
 3375POPC   C3A44225  20.037  22.680   6.813
 3375POPC   C4A44226  20.108  22.707   7.236
 3375POPC   C1B44227  19.984  23.254   6.193
 3375POPC   C2B44228  19.807  23.293   6.608
 3375POPC   C3B44229  19.905  23.137   7.000
 3375POPC   C4B44230  20.029  23.339   7.351
 3376POPC   NC344231   1.389   6.916   5.093
 3376POPC   PO444232   1.235   6.333   5.433
 3376POPC   GL144233   1.193   6.485   5.823
 3376POPC   GL244234   1.277   6.848   5.877
 3376POPC   C1A44235   1.044   6.473   6.225
 3376POPC   D2A44236   1.209   6.386   6.603
 3376POPC   C3A44237   1.202   6.692   6.878
 3376POPC   C4A44238   1.366   6.580   7.224
 3376POPC   C1B44239   1.436   6.836   6.327
 3376POPC   C2B44240   1.563   7.032   6.741
 3376POPC   C3B44241   1.456   7.070   7.180
 3376POPC   C4B44242   1.036   6.962   7.306
 3377POPC   NC344243  20.090  24.858   5.415
 3377POPC   PO444244  20.671  25.244   5.392
 3377POPC   GL144245  20.467  25.421   5.751
 3377POPC   GL244246  20.131  25.262   5.796
 3377POPC   C1A44247  20.559  25.419   6.182
 3377POPC   D2A44248  20.810  25.247   6.540
 3377POPC   C3A44249  20.668  25.409   6.915
 3377POPC   C4A44250  20.822  25.229   7.273
 3377POPC   C1B44251  20.158  25.081   6.232
 3377POPC   C2B44252  20.331  25.073   6.688
 3377POPC   C3B44253  20.317  25.110   7.166
 3377POPC   C4B44254  20.022  25.359   7.386
 3378POPC   NC344255  38.484  13.255   5.506
 3378POPC   PO444256  38.178  12.581   5.493
 3378POPC   GL144257  38.504  12.799   5.759
 3378POPC   GL244258  38.837  12.646   5.860
 3378POPC   C1A44259  38.539  12.971   6.172
 3378POPC   D2A44260  38.632  12.831   6.584
 3378POPC   C3A44261  38.826  13.104   6.885
 3378POPC   C4A44262  38.631  13.243   7.270
 3378POPC   C1B44263  38.534  12.429   6.162
 3378POPC   C2B44264  38.433  12.352   6.592
 3378POPC   C3B44265  38.222  12.616   6.845
 3378POPC   C4B44266  38.301  12.845   7.201
 3379POPC   NC344267   0.621  40.924   5.262
 3379POPC   PO444268   1.191  40.463   5.486
 3379POPC   GL144269   1.103  40.535   5.863
 3379POPC   GL244270   0.977  40.879   5.813
 3379POPC   C1A44271   1.430  40.567   6.195
 3379POPC   D2A44272   1.418  40.789   6.583
 3379POPC   C3A44273   1.049  40.715   6.828
 3379POPC   C4A44274   1.281  40.729   7.195
 3379POPC   C1B44275   0.975  40.818   6.262
 3379POPC   C2B44276   0.969  41.139   6.540
 3379POPC   C3B44277   0.981  41.211   6.953
 3379POPC   C4B44278   0.804  40.952   7.253
 3380POPC   NC344279   7.092   6.316   5.495
 3380POPC   PO444280   7.514   6.806   5.349
 3380POPC   GL144281   7.646   6.550   5.764
 3380POPC   GL244282   7.322   6.395   5.962
 3380POPC   C1A44283   7.804   6.394   6.191
 3380POPC   D2A44284   7.567   6.496   6.583
 3380POPC   C3A44285   7.638   6.751   6.953
 3380POPC   C4A44286   7.644   7.015   7.317
 3380POPC   C1B44287   7.192   6.705   6.300
 3380POPC   C2B44288   7.141   6.774   6.779
 3380POPC   C3B44289   7.222   6.749   7.248
 3380POPC   C4B44290   7.280   6.898   7.704
 3381POPC   NC344291  24.001  28.322   5.532
 3381POPC   PO444292  23.417  28.694   5.640
 3381POPC   GL144293  23.581  28.316   5.838
 3381POPC   GL244294  23.352  28.049   5.904
 3381POPC   C1A44295  23.786  28.304   6.246
 3381POPC   D2A44296  23.668  28.413   6.682
 3381POPC   C3A44297  23.894  28.165   6.998
 3381POPC   C4A44298  23.823  27.986   7.366
 3381POPC   C1B44299  23.277  28.363   6.254
 3381POPC   C2B44300  23.173  28.663   6.550
 3381POPC   C3B44301  23.282  28.659   6.952
 3381POPC   C4B44302  23.493  28.373   7.216
 3382POPC   NC344303  35.685  20.250   5.451
 3382POPC   PO444304  35.293  20.831   5.482
 3382POPC   GL144305  35.198  20.769   5.894
 3382POPC   GL244306  35.197  20.396   5.900
 3382POPC   C1A44307  35.419  20.779   6.291
 3382POPC   D2A44308  35.493  20.470   6.639
 3382POPC   C3A44309  35.427  20.577   7.095
 3382POPC   C4A44310  35.140  20.434   7.444
 3382POPC   C1B44311  34.985  20.526   6.295
 3382POPC   C2B44312  35.062  20.753   6.664
 3382POPC   C3B44313  34.968  20.760   7.077
 3382POPC   C4B44314  35.192  20.948   7.416
 3383POPC   NC344315   0.872   5.624   5.478
 3383POPC   PO444316   0.319   6.071   5.455
 3383POPC   GL144317   0.497   5.895   5.806
 3383POPC   GL244318   0.832   5.982   5.856
 3383POPC   C1A44319   0.509   5.628   6.154
 3383POPC   D2A44320   0.298   5.748   6.514
 3383POPC   C3A44321   0.472   5.733   6.918
 3383POPC   C4A44322   0.205   5.854   7.262
 3383POPC   C1B44323   0.820   6.006   6.294
 3383POPC   C2B44324   0.739   6.176   6.676
 3383POPC   C3B44325   0.932   6.134   7.046
 3383POPC   C4B44326   0.707   5.936   7.328
 3384POPC   NC344327   6.884  42.558   5.709
 3384POPC   PO444328   6.844  42.039   5.239
 3384POPC   GL144329   7.091  42.083   5.718
 3384POPC   GL244330   7.476  42.189   5.796
 3384POPC   C1A44331   7.177  42.235   6.200
 3384POPC   D2A44332   7.370  42.542   6.515
 3384POPC   C3A44333   7.195  42.411   6.901
 3384POPC   C4A44334   7.179  42.205   7.287
 3384POPC   C1B44335   7.690  42.164   6.267
 3384POPC   C2B44336   7.620  42.125   6.749
 3384POPC   C3B44337   7.652  42.313   7.171
 3384POPC   C4B44338   7.553  42.646   7.497
 3385POPC   NC344339  33.662  14.270   5.361
 3385POPC   PO444340  33.824  14.869   5.447
 3385POPC   GL144341  33.645  14.539   5.800
 3385POPC   GL244342  33.844  14.223   5.866
 3385POPC   C1A44343  33.464  14.385   6.223
 3385POPC   D2A44344  33.507  14.559   6.668
 3385POPC   C3A44345  33.595  14.305   7.040
 3385POPC   C4A44346  33.657  14.472   7.465
 3385POPC   C1B44347  33.982  14.399   6.290
 3385POPC   C2B44348  34.010  14.464   6.755
 3385POPC   C3B44349  34.082  14.344   7.193
 3385POPC   C4B44350  34.097  14.310   7.656
 3386POPC   NC344351  12.631  34.967   5.403
 3386POPC   PO444352  12.915  35.624   5.353
 3386POPC   GL144353  12.969  35.374   5.766
 3386POPC   GL244354  12.660  35.210   5.895
 3386POPC   C1A44355  13.074  35.450   6.216
 3386POPC   D2A44356  13.113  35.708   6.588
 3386POPC   C3A44357  13.118  35.547   6.989
 3386POPC   C4A44358  12.847  35.356   7.261
 3386POPC   C1B44359  12.700  35.150   6.356
 3386POPC   C2B44360  12.667  35.414   6.720
 3386POPC   C3B44361  12.400  35.263   7.056
 3386POPC   C4B44362  12.465  35.094   7.470
 3387POPC   NC344363  44.494  26.481   5.451
 3387POPC   PO444364  44.834  25.809   5.420
 3387POPC   GL144365  44.660  26.011   5.763
 3387POPC   GL244366  44.881  26.266   5.789
 3387POPC   C1A44367  44.564  25.892   6.186
 3387POPC   D2A44368  44.560  25.724   6.612
 3387POPC   C3A44369  44.608  25.939   6.974
 3387POPC   C4A44370  44.396  25.989   7.367
 3387POPC   C1B44371  44.626  26.413   6.128
 3387POPC   C2B44372  44.500  26.442   6.568
 3387POPC   C3B44373  44.665  26.458   7.002
 3387POPC   C4B44374  44.442  26.478   7.414
 3388POPC   NC344375   3.912  41.459   5.529
 3388POPC   PO444376   3.300  41.712   5.529
 3388POPC   GL144377   3.426  41.654   5.926
 3388POPC   GL244378   3.790  41.561   6.014
 3388POPC   C1A44379   3.331  41.417   6.270
 3388POPC   D2A44380   3.487  41.575   6.658
 3388POPC   C3A44381   3.464  41.703   7.116
 3388POPC   C4A44382   3.754  41.671   7.442
 3388POPC   C1B44383   3.765  41.138   6.231
 3388POPC   C2B44384   3.483  41.056   6.591
 3388POPC   C3B44385   3.489  41.210   6.998
 3388POPC   C4B44386   3.476  41.094   7.385
 3389POPC   NC344387  44.127  17.259   5.377
 3389POPC   PO444388  43.792  17.846   5.433
 3389POPC   GL144389  43.883  17.539   5.754
 3389POPC   GL244390  43.639  17.266   5.861
 3389POPC   C1A44391  44.077  17.588   6.158
 3389POPC   D2A44392  44.051  17.922   6.511
 3389POPC   C3A44393  43.972  17.716   6.918
 3389POPC   C4A44394  44.025  17.516   7.309
 3389POPC   C1B44395  43.813  17.144   6.299
 3389POPC   C2B44396  43.873  17.202   6.768
 3389POPC   C3B44397  43.688  17.160   7.199
 3389POPC   C4B44398  43.702  16.979   7.643
 3390POPC   NC344399  33.064  35.643   5.552
 3390POPC   PO444400  33.483  35.169   5.557
 3390POPC   GL144401  33.215  35.100   5.893
 3390POPC   GL244402  32.859  35.246   5.862
 3390POPC   C1A44403  33.112  35.266   6.288
 3390POPC   D2A44404  32.739  35.220   6.514
 3390POPC   C3A44405  32.927  35.238   6.877
 3390POPC   C4A44406  33.015  35.096   7.267
 3390POPC   C1B44407  32.756  35.605   6.167
 3390POPC   C2B44408  32.849  35.711   6.654
 3390POPC   C3B44409  32.821  35.634   7.147
 3390POPC   C4B44410  33.089  35.594   7.500
 3391POPC   NC344411  37.424  20.223   5.359
 3391POPC   PO444412  37.825  20.845   5.340
 3391POPC   GL144413  37.748  20.718   5.783
 3391POPC   GL244414  37.762  20.375   5.836
 3391POPC   C1A44415  37.730  20.778   6.240
 3391POPC   D2A44416  37.525  21.025   6.544
 3391POPC   C3A44417  37.715  21.007   6.936
 3391POPC   C4A44418  37.502  20.927   7.334
 3391POPC   C1B44419  37.658  20.268   6.249
 3391POPC   C2B44420  37.657  20.471   6.677
 3391POPC   C3B44421  37.710  20.509   7.111
 3391POPC   C4B44422  37.637  20.280   7.499
 3392POPC   NC344423  42.399  35.898   5.472
 3392POPC   PO444424  42.147  36.557   5.323
 3392POPC   GL144425  42.349  36.322   5.762
 3392POPC   GL244426  42.210  35.992   5.918
 3392POPC   C1A44427  42.475  36.259   6.226
 3392POPC   D2A44428  42.327  36.461   6.590
 3392POPC   C3A44429  42.417  36.266   6.950
 3392POPC   C4A44430  42.629  36.164   7.306
 3392POPC   C1B44431  41.936  35.786   6.216
 3392POPC   C2B44432  41.700  35.760   6.638
 3392POPC   C3B44433  41.987  35.865   6.999
 3392POPC   C4B44434  42.249  35.811   7.384
 3393POPC   NC344435   9.838  27.228   5.248
 3393POPC   PO444436   9.566  27.787   5.515
 3393POPC   GL144437   9.800  27.562   5.860
 3393POPC   GL244438   9.906  27.259   5.773
 3393POPC   C1A44439   9.946  27.694   6.261
 3393POPC   D2A44440   9.737  27.603   6.636
 3393POPC   C3A44441   9.894  27.750   7.015
 3393POPC   C4A44442   9.582  28.018   7.195
 3393POPC   C1B44443   9.961  27.180   6.225
 3393POPC   C2B44444  10.076  27.237   6.671
 3393POPC   C3B44445   9.766  27.231   7.012
 3393POPC   C4B44446   9.672  27.156   7.438
 3394POPC   NC344447  20.097  39.256   5.480
 3394POPC   PO444448  19.408  39.222   5.535
 3394POPC   GL144449  19.713  39.288   5.818
 3394POPC   GL244450  19.856  38.945   5.833
 3394POPC   C1A44451  19.831  39.259   6.234
 3394POPC   D2A44452  19.876  38.967   6.525
 3394POPC   C3A44453  19.831  39.220   6.838
 3394POPC   C4A44454  19.773  39.280   7.246
 3394POPC   C1B44455  19.515  38.851   6.164
 3394POPC   C2B44456  19.305  38.821   6.581
 3394POPC   C3B44457  19.515  38.845   6.990
 3394POPC   C4B44458  19.653  38.838   7.435
 3395POPC   NC344459  39.901  31.885   5.227
 3395POPC   PO444460  40.268  31.262   5.135
 3395POPC   GL144461  40.158  31.402   5.596
 3395POPC   GL244462  39.805  31.439   5.715
 3395POPC   C1A44463  40.097  31.357   6.107
 3395POPC   D2A44464  40.021  31.519   6.528
 3395POPC   C3A44465  40.112  31.263   6.871
 3395POPC   C4A44466  40.439  31.161   7.192
 3395POPC   C1B44467  39.574  31.534   6.118
 3395POPC   C2B44468  39.553  31.727   6.532
 3395POPC   C3B44469  39.707  31.594   6.942
 3395POPC   C4B44470  39.874  31.396   7.315
 3396POPC   NC344471  39.567  19.668   5.441
 3396POPC   PO444472  38.926  19.566   5.482
 3396POPC   GL144473  39.055  19.729   5.843
 3396POPC   GL244474  39.384  19.806   5.911
 3396POPC   C1A44475  38.974  19.912   6.210
 3396POPC   D2A44476  38.964  20.079   6.594
 3396POPC   C3A44477  38.883  19.724   6.851
 3396POPC   C4A44478  39.237  19.561   7.093
 3396POPC   C1B44479  39.432  20.135   6.250
 3396POPC   C2B44480  39.404  20.291   6.696
 3396POPC   C3B44481  39.200  20.072   7.057
 3396POPC   C4B44482  39.339  19.980   7.455
 3397POPC   NC344483  17.719  39.907   5.485
 3397POPC   PO444484  17.109  40.119   5.415
 3397POPC   GL144485  17.327  40.105   5.803
 3397POPC   GL244486  17.420  39.764   5.901
 3397POPC   C1A44487  17.393  40.155   6.268
 3397POPC   D2A44488  17.434  39.953   6.678
 3397POPC   C3A44489  17.578  40.171   7.038
 3397POPC   C4A44490  17.681  39.988   7.429
 3397POPC   C1B44491  17.278  39.611   6.305
 3397POPC   C2B44492  17.197  39.496   6.743
 3397POPC   C3B44493  17.400  39.634   7.149
 3397POPC   C4B44494  17.296  39.658   7.633
 3398POPC   NC344495  36.563  15.785   5.337
 3398POPC   PO444496  37.194  15.703   5.217
 3398POPC   GL144497  37.027  15.851   5.668
 3398POPC   GL244498  36.704  15.828   5.826
 3398POPC   C1A44499  37.098  15.879   6.163
 3398POPC   D2A44500  36.938  15.846   6.613
 3398POPC   C3A44501  37.139  15.986   7.023
 3398POPC   C4A44502  37.117  16.292   7.388
 3398POPC   C1B44503  36.474  15.895   6.231
 3398POPC   C2B44504  36.437  15.728   6.647
 3398POPC   C3B44505  36.557  15.973   6.998
 3398POPC   C4B44506  36.769  15.852   7.362
 3399POPC   NC344507  24.286  20.906   5.533
 3399POPC   PO444508  24.542  21.541   5.437
 3399POPC   GL144509  24.381  21.368   5.793
 3399POPC   GL244510  24.239  21.702   5.847
 3399POPC   C1A44511  24.511  21.140   6.205
 3399POPC   D2A44512  24.792  21.156   6.622
 3399POPC   C3A44513  24.551  21.086   7.035
 3399POPC   C4A44514  24.161  21.095   7.299
 3399POPC   C1B44515  24.584  21.647   6.178
 3399POPC   C2B44516  24.429  21.507   6.583
 3399POPC   C3B44517  24.207  21.463   6.957
 3399POPC   C4B44518  24.432  21.517   7.374
 3400POPC   NC344519  12.120  39.721   5.410
 3400POPC   PO444520  11.856  40.301   5.466
 3400POPC   GL144521  12.126  40.057   5.819
 3400POPC   GL244522  12.289  39.687   5.880
 3400POPC   C1A44523  12.189  40.096   6.282
 3400POPC   D2A44524  11.848  40.133   6.592
 3400POPC   C3A44525  11.920  40.229   7.026
 3400POPC   C4A44526  11.694  40.269   7.395
 3400POPC   C1B44527  12.440  39.630   6.285
 3400POPC   C2B44528  12.160  39.682   6.624
 3400POPC   C3B44529  12.237  39.808   7.020
 3400POPC   C4B44530  11.983  39.787   7.366
 3401POPC   NC344531  38.837  32.274   5.537
 3401POPC   PO444532  38.243  32.562   5.484
 3401POPC   GL144533  38.529  32.580   5.820
 3401POPC   GL244534  38.478  32.210   5.897
 3401POPC   C1A44535  38.529  32.555   6.260
 3401POPC   D2A44536  38.310  32.295   6.550
 3401POPC   C3A44537  38.518  32.286   6.931
 3401POPC   C4A44538  38.353  32.427   7.310
 3401POPC   C1B44539  38.554  31.946   6.254
 3401POPC   C2B44540  38.562  31.784   6.639
 3401POPC   C3B44541  38.755  31.815   7.002
 3401POPC   C4B44542  38.557  31.938   7.310
 3402POPC   NC344543   5.919   7.476   5.382
 3402POPC   PO444544   6.196   7.930   5.738
 3402POPC   GL144545   6.096   7.562   5.922
 3402POPC   GL244546   5.828   7.342   5.877
 3402POPC   C1A44547   6.046   7.477   6.367
 3402POPC   D2A44548   5.751   7.623   6.687
 3402POPC   C3A44549   5.844   7.659   7.113
 3402POPC   C4A44550   5.983   7.310   7.320
 3402POPC   C1B44551   5.547   7.508   6.181
 3402POPC   C2B44552   5.412   7.237   6.529
 3402POPC   C3B44553   5.441   7.277   6.970
 3402POPC   C4B44554   5.459   7.284   7.410
 3403POPC   NC344555  21.503   9.289   5.462
 3403POPC   PO444556  22.078   8.911   5.582
 3403POPC   GL144557  21.675   8.854   5.786
 3403POPC   GL244558  21.818   8.554   5.899
 3403POPC   C1A44559  21.372   8.971   6.155
 3403POPC   D2A44560  21.167   8.885   6.577
 3403POPC   C3A44561  21.327   9.062   6.959
 3403POPC   C4A44562  21.134   9.193   7.354
 3403POPC   C1B44563  21.807   8.705   6.289
 3403POPC   C2B44564  21.585   8.621   6.635
 3403POPC   C3B44565  21.682   8.673   7.020
 3403POPC   C4B44566  21.551   8.861   7.382
 3404POPC   NC344567  14.111  19.966   5.414
 3404POPC   PO444568  13.584  19.566   5.271
 3404POPC   GL144569  13.701  19.836   5.756
 3404POPC   GL244570  13.896  19.717   6.069
 3404POPC   C1A44571  13.439  19.940   6.173
 3404POPC   D2A44572  13.273  19.798   6.575
 3404POPC   C3A44573  13.463  20.020   6.933
 3404POPC   C4A44574  13.309  19.980   7.365
 3404POPC   C1B44575  13.565  19.473   6.322
 3404POPC   C2B44576  13.495  19.349   6.772
 3404POPC   C3B44577  13.488  19.571   7.151
 3404POPC   C4B44578  13.779  19.797   7.440
 3405POPC   NC344579  36.303  29.693   5.509
 3405POPC   PO444580  35.832  30.191   5.433
 3405POPC   GL144581  35.946  29.981   5.828
 3405POPC   GL244582  36.284  30.087   5.861
 3405POPC   C1A44583  35.758  29.793   6.258
 3405POPC   D2A44584  35.565  29.602   6.623
 3405POPC   C3A44585  35.807  29.823   6.915
 3405POPC   C4A44586  36.189  29.810   7.125
 3405POPC   C1B44587  36.251  29.793   6.210
 3405POPC   C2B44588  36.322  29.901   6.632
 3405POPC   C3B44589  36.401  30.231   6.928
 3405POPC   C4B44590  36.300  30.322   7.351
 3406POPC   NC344591  21.070   4.620   5.719
 3406POPC   PO444592  21.366   4.139   5.191
 3406POPC   GL144593  21.384   4.140   5.665
 3406POPC   GL244594  21.096   3.979   5.736
 3406POPC   C1A44595  21.481   4.311   6.122
 3406POPC   D2A44596  21.567   4.352   6.578
 3406POPC   C3A44597  21.355   4.610   6.880
 3406POPC   C4A44598  21.458   4.403   7.250
 3406POPC   C1B44599  21.004   4.117   6.159
 3406POPC   C2B44600  21.053   4.342   6.550
 3406POPC   C3B44601  21.073   4.193   6.990
 3406POPC   C4B44602  21.134   3.896   7.349
 3407POPC   NC344603  39.568  16.786   5.651
 3407POPC   PO444604  40.077  16.967   5.266
 3407POPC   GL144605  40.103  16.866   5.732
 3407POPC   GL244606  39.952  16.578   5.912
 3407POPC   C1A44607  40.099  16.918   6.220
 3407POPC   D2A44608  39.986  16.629   6.584
 3407POPC   C3A44609  40.112  16.779   6.998
 3407POPC   C4A44610  40.173  17.165   7.189
 3407POPC   C1B44611  39.754  16.289   6.209
 3407POPC   C2B44612  39.573  16.285   6.624
 3407POPC   C3B44613  39.697  16.458   6.994
 3407POPC   C4B44614  39.873  16.459   7.386
 3408POPC   NC344615  41.211  34.781   5.415
 3408POPC   PO444616  40.562  34.495   5.485
 3408POPC   GL144617  40.639  34.454   5.899
 3408POPC   GL244618  40.971  34.510   5.820
 3408POPC   C1A44619  40.670  34.348   6.351
 3408POPC   D2A44620  40.570  34.693   6.599
 3408POPC   C3A44621  40.573  34.814   6.997
 3408POPC   C4A44622  40.703  34.586   7.359
 3408POPC   C1B44623  40.953  34.747   6.210
 3408POPC   C2B44624  41.034  34.927   6.635
 3408POPC   C3B44625  41.073  34.846   7.079
 3408POPC   C4B44626  41.225  34.978   7.504
 3409POPC   NC344627  20.898  37.806   5.467
 3409POPC   PO444628  20.376  37.369   5.466
 3409POPC   GL144629  20.632  37.525   5.823
 3409POPC   GL244630  20.569  37.858   5.921
 3409POPC   C1A44631  20.816  37.571   6.254
 3409POPC   D2A44632  20.825  37.389   6.654
 3409POPC   C3A44633  20.705  37.673   6.963
 3409POPC   C4A44634  20.863  37.679   7.385
 3409POPC   C1B44635  20.624  38.087   6.307
 3409POPC   C2B44636  20.507  38.153   6.753
 3409POPC   C3B44637  20.425  38.155   7.217
 3409POPC   C4B44638  20.520  37.971   7.627
 3410POPC   NC344639   9.539  21.491   5.397
 3410POPC   PO444640  10.004  21.072   5.475
 3410POPC   GL144641   9.876  21.364   5.789
 3410POPC   GL244642   9.560  21.222   5.857
 3410POPC   C1A44643   9.899  21.262   6.237
 3410POPC   D2A44644   9.967  20.995   6.574
 3410POPC   C3A44645  10.062  21.284   6.859
 3410POPC   C4A44646  10.151  21.390   7.226
 3410POPC   C1B44647   9.351  21.352   6.226
 3410POPC   C2B44648   9.595  21.382   6.624
 3410POPC   C3B44649   9.575  21.170   6.985
 3410POPC   C4B44650   9.274  21.232   7.269
 3411POPC   NC344651   5.355  37.769   5.452
 3411POPC   PO444652   4.849  38.093   5.419
 3411POPC   GL144653   4.969  37.823   5.804
 3411POPC   GL244654   5.271  37.555   5.878
 3411POPC   C1A44655   4.922  37.681   6.237
 3411POPC   D2A44656   4.816  37.408   6.575
 3411POPC   C3A44657   4.826  37.650   6.955
 3411POPC   C4A44658   4.825  37.916   7.296
 3411POPC   C1B44659   5.435  37.691   6.216
 3411POPC   C2B44660   5.256  37.834   6.600
 3411POPC   C3B44661   5.338  37.737   7.029
 3411POPC   C4B44662   5.170  37.496   7.341
 3412POPC   NC344663  21.225   7.840   5.561
 3412POPC   PO444664  21.781   8.157   5.487
 3412POPC   GL144665  21.495   8.179   5.841
 3412POPC   GL244666  21.560   7.863   5.946
 3412POPC   C1A44667  21.351   8.446   6.208
 3412POPC   D2A44668  21.115   8.379   6.613
 3412POPC   C3A44669  21.183   8.558   7.021
 3412POPC   C4A44670  21.448   8.343   7.299
 3412POPC   C1B44671  21.205   7.958   6.223
 3412POPC   C2B44672  21.168   7.868   6.648
 3412POPC   C3B44673  21.128   8.018   7.056
 3412POPC   C4B44674  21.263   7.866   7.474
 3413POPC   NC344675  30.254   2.785   5.554
 3413POPC   PO444676  29.809   3.118   5.233
 3413POPC   GL144677  29.767   2.917   5.693
 3413POPC   GL244678  29.595   2.636   5.773
 3413POPC   C1A44679  29.926   2.710   6.143
 3413POPC   D2A44680  30.001   2.567   6.581
 3413POPC   C3A44681  29.998   2.847   6.949
 3413POPC   C4A44682  29.988   2.778   7.370
 3413POPC   C1B44683  29.495   2.388   6.166
 3413POPC   C2B44684  29.540   2.281   6.613
 3413POPC   C3B44685  29.622   2.511   6.994
 3413POPC   C4B44686  29.508   2.621   7.427
 3414POPC   NC344687   2.291   7.746   5.420
 3414POPC   PO444688   2.160   7.025   5.561
 3414POPC   GL144689   1.983   7.319   5.914
 3414POPC   GL244690   2.028   7.693   5.872
 3414POPC   C1A44691   1.717   7.327   6.309
 3414POPC   D2A44692   1.968   7.336   6.696
 3414POPC   C3A44693   1.951   7.213   7.132
 3414POPC   C4A44694   2.317   6.960   7.274
 3414POPC   C1B44695   2.091   7.693   6.322
 3414POPC   C2B44696   2.188   7.773   6.770
 3414POPC   C3B44697   2.003   7.783   7.191
 3414POPC   C4B44698   2.002   7.791   7.645
 3415POPC   NC344699  13.460  37.985   5.451
 3415POPC   PO444700  13.314  37.263   5.552
 3415POPC   GL144701  13.571  37.499   5.882
 3415POPC   GL244702  13.598  37.867   5.919
 3415POPC   C1A44703  13.644  37.508   6.319
 3415POPC   D2A44704  13.326  37.364   6.599
 3415POPC   C3A44705  13.447  37.413   7.001
 3415POPC   C4A44706  13.679  37.424   7.372
 3415POPC   C1B44707  13.498  38.060   6.309
 3415POPC   C2B44708  13.478  37.855   6.707
 3415POPC   C3B44709  13.767  37.806   7.049
 3415POPC   C4B44710  14.004  38.013   7.370
 3416POPC   NC344711  28.217  30.013   5.353
 3416POPC   PO444712  28.779  29.596   5.437
 3416POPC   GL144713  28.567  29.844   5.768
 3416POPC   GL244714  28.202  29.847   5.838
 3416POPC   C1A44715  28.660  29.956   6.200
 3416POPC   D2A44716  28.683  29.687   6.564
 3416POPC   C3A44717  28.563  29.825   6.974
 3416POPC   C4A44718  28.482  30.181   7.272
 3416POPC   C1B44719  28.304  29.596   6.226
 3416POPC   C2B44720  28.175  29.744   6.640
 3416POPC   C3B44721  28.090  29.975   7.007
 3416POPC   C4B44722  28.237  29.756   7.386
 3417POPC   NC344723   6.454  44.092   5.404
 3417POPC   PO444724   6.873  43.593   5.200
 3417POPC   GL144725   6.812  43.779   5.627
 3417POPC   GL244726   6.931  44.082   5.730
 3417POPC   C1A44727   6.719  43.755   6.093
 3417POPC   D2A44728   6.746  43.661   6.545
 3417POPC   C3A44729   6.562  43.902   6.918
 3417POPC   C4A44730   6.546  43.729   7.340
 3417POPC   C1B44731   7.009  44.164   6.160
 3417POPC   C2B44732   6.797  44.231   6.574
 3417POPC   C3B44733   6.988  44.226   7.001
 3417POPC   C4B44734   6.724  44.244   7.380
 3418POPC   NC344735  17.845  23.926   5.711
 3418POPC   PO444736  18.374  23.676   5.432
 3418POPC   GL144737  18.371  23.883   5.826
 3418POPC   GL244738  18.185  23.606   5.916
 3418POPC   C1A44739  18.206  23.972   6.273
 3418POPC   D2A44740  18.257  24.182   6.667
 3418POPC   C3A44741  18.224  23.956   7.052
 3418POPC   C4A44742  18.206  24.005   7.509
 3418POPC   C1B44743  18.304  23.328   6.213
 3418POPC   C2B44744  18.312  23.462   6.610
 3418POPC   C3B44745  18.134  23.423   6.995
 3418POPC   C4B44746  18.396  23.573   7.321
 3419POPC   NC344747  31.194   2.876   5.332
 3419POPC   PO444748  31.581   2.391   5.079
 3419POPC   GL144749  31.355   2.443   5.580
 3419POPC   GL244750  31.431   2.750   5.775
 3419POPC   C1A44751  31.367   2.359   6.084
 3419POPC   D2A44752  31.394   2.611   6.503
 3419POPC   C3A44753  31.514   2.554   6.957
 3419POPC   C4A44754  31.833   2.789   7.207
 3419POPC   C1B44755  31.430   3.031   6.145
 3419POPC   C2B44756  31.263   3.092   6.562
 3419POPC   C3B44757  31.462   3.061   6.975
 3419POPC   C4B44758  31.390   3.046   7.419
 3420POPC   NC344759  31.669  34.553   5.768
 3420POPC   PO444760  31.390  35.049   5.601
 3420POPC   GL144761  31.152  34.720   5.808
 3420POPC   GL244762  31.217  34.315   5.841
 3420POPC   C1A44763  31.038  34.789   6.241
 3420POPC   D2A44764  31.302  34.703   6.593
 3420POPC   C3A44765  31.236  34.850   6.968
 3420POPC   C4A44766  31.353  34.889   7.343
 3420POPC   C1B44767  31.313  34.289   6.281
 3420POPC   C2B44768  31.397  34.199   6.708
 3420POPC   C3B44769  31.445  34.395   7.065
 3420POPC   C4B44770  31.842  34.281   7.162
 3421POPC   NC344771  22.949  20.123   5.389
 3421POPC   PO444772  22.637  19.569   5.338
 3421POPC   GL144773  22.642  19.819   5.752
 3421POPC   GL244774  23.002  19.812   5.828
 3421POPC   C1A44775  22.724  19.995   6.220
 3421POPC   D2A44776  23.088  19.909   6.517
 3421POPC   C3A44777  23.129  20.014   6.981
 3421POPC   C4A44778  22.783  19.928   7.270
 3421POPC   C1B44779  23.022  19.493   6.172
 3421POPC   C2B44780  23.018  19.370   6.619
 3421POPC   C3B44781  23.026  19.503   7.066
 3421POPC   C4B44782  23.399  19.640   7.307
 3422POPC   NC344783  43.093  12.464   5.544
 3422POPC   PO444784  43.282  11.973   5.139
 3422POPC   GL144785  43.233  11.895   5.665
 3422POPC   GL244786  42.998  12.109   5.881
 3422POPC   C1A44787  43.302  11.882   6.188
 3422POPC   D2A44788  43.090  11.913   6.619
 3422POPC   C3A44789  43.261  12.031   7.009
 3422POPC   C4A44790  43.015  11.877   7.351
 3422POPC   C1B44791  42.920  12.262   6.293
 3422POPC   C2B44792  42.604  12.221   6.608
 3422POPC   C3B44793  42.748  12.131   6.993
 3422POPC   C4B44794  42.833  12.371   7.333
 3423POPC   NC344795  37.179  39.837   5.285
 3423POPC   PO444796  37.828  40.020   5.500
 3423POPC   GL144797  37.722  39.994   5.884
 3423POPC   GL244798  37.414  39.907   5.771
 3423POPC   C1A44799  37.924  39.929   6.258
 3423POPC   D2A44800  37.799  39.811   6.638
 3423POPC   C3A44801  37.952  40.021   6.976
 3423POPC   C4A44802  37.814  40.019   7.375
 3423POPC   C1B44803  37.274  40.101   6.156
 3423POPC   C2B44804  37.195  39.983   6.533
 3423POPC   C3B44805  37.420  40.060   6.881
 3423POPC   C4B44806  37.324  40.060   7.281
 3424POPC   NC344807  24.840  22.688   5.236
 3424POPC   PO444808  25.439  22.974   5.364
 3424POPC   GL144809  25.482  23.076   5.754
 3424POPC   GL244810  25.133  23.000   5.802
 3424POPC   C1A44811  25.480  22.838   6.163
 3424POPC   D2A44812  25.574  22.651   6.574
 3424POPC   C3A44813  25.461  22.914   6.964
 3424POPC   C4A44814  25.348  22.622   7.298
 3424POPC   C1B44815  24.934  23.043   6.183
 3424POPC   C2B44816  25.144  22.973   6.556
 3424POPC   C3B44817  24.987  22.818   6.934
 3424POPC   C4B44818  25.054  23.075   7.287
 3425POPC   NC344819  25.177  24.292   5.146
 3425POPC   PO444820  25.130  24.924   5.362
 3425POPC   GL144821  25.341  24.566   5.565
 3425POPC   GL244822  25.066  24.361   5.647
 3425POPC   C1A44823  25.445  24.410   5.999
 3425POPC   D2A44824  25.586  24.466   6.438
 3425POPC   C3A44825  25.417  24.733   6.739
 3425POPC   C4A44826  25.407  24.564   7.137
 3425POPC   C1B44827  24.935  24.262   6.064
 3425POPC   C2B44828  25.065  24.428   6.490
 3425POPC   C3B44829  24.964  24.370   6.935
 3425POPC   C4B44830  25.030  24.336   7.390
 3426POPC   NC344831  16.375  42.698   5.218
 3426POPC   PO444832  15.999  43.210   5.418
 3426POPC   GL144833  15.807  43.126   5.746
 3426POPC   GL244834  15.616  43.447   5.718
 3426POPC   C1A44835  15.957  42.946   6.131
 3426POPC   D2A44836  16.136  43.123   6.523
 3426POPC   C3A44837  16.012  42.897   6.890
 3426POPC   C4A44838  15.925  43.030   7.314
 3426POPC   C1B44839  15.832  43.461   6.117
 3426POPC   C2B44840  15.752  43.482   6.523
 3426POPC   C3B44841  15.870  43.392   6.904
 3426POPC   C4B44842  15.662  43.483   7.264
 3427POPC   NC344843  33.100  28.127   5.212
 3427POPC   PO444844  32.887  28.575   5.655
 3427POPC   GL144845  33.188  28.372   5.855
 3427POPC   GL244846  33.224  28.060   5.758
 3427POPC   C1A44847  33.224  28.414   6.272
 3427POPC   D2A44848  32.918  28.549   6.558
 3427POPC   C3A44849  33.052  28.696   6.923
 3427POPC   C4A44850  32.862  28.683   7.307
 3427POPC   C1B44851  33.009  27.978   6.180
 3427POPC   C2B44852  33.049  28.058   6.634
 3427POPC   C3B44853  33.006  28.216   7.057
 3427POPC   C4B44854  33.308  28.149   7.344
 3428POPC   NC344855  40.059  13.308   5.569
 3428POPC   PO444856  39.728  12.660   5.549
 3428POPC   GL144857  39.971  12.525   5.912
 3428POPC   GL244858  40.196  12.759   5.799
 3428POPC   C1A44859  39.950  12.617   6.347
 3428POPC   D2A44860  39.915  13.021   6.566
 3428POPC   C3A44861  39.793  12.923   6.962
 3428POPC   C4A44862  40.062  12.622   7.159
 3428POPC   C1B44863  40.264  12.966   6.166
 3428POPC   C2B44864  40.463  12.805   6.545
 3428POPC   C3B44865  40.491  12.908   6.969
 3428POPC   C4B44866  40.190  13.128   7.172
 3429POPC   NC344867  24.379  34.952   5.400
 3429POPC   PO444868  24.867  34.544   5.559
 3429POPC   GL144869  24.689  34.722   5.868
 3429POPC   GL244870  24.359  34.593   5.808
 3429POPC   C1A44871  24.822  34.961   6.236
 3429POPC   D2A44872  24.832  34.757   6.648
 3429POPC   C3A44873  24.793  34.580   7.055
 3429POPC   C4A44874  24.404  34.415   7.246
 3429POPC   C1B44875  24.327  34.811   6.204
 3429POPC   C2B44876  24.261  34.686   6.639
 3429POPC   C3B44877  24.281  34.853   7.049
 3429POPC   C4B44878  24.110  34.898   7.487
 3430POPC   NC344879  41.110  15.192   5.432
 3430POPC   PO444880  40.527  15.091   5.395
 3430POPC   GL144881  40.540  14.920   5.828
 3430POPC   GL244882  40.893  14.878   5.821
 3430POPC   C1A44883  40.475  15.075   6.290
 3430POPC   D2A44884  40.413  15.285   6.700
 3430POPC   C3A44885  40.633  15.152   7.075
 3430POPC   C4A44886  40.562  15.304   7.491
 3430POPC   C1B44887  40.917  14.821   6.252
 3430POPC   C2B44888  40.877  14.911   6.693
 3430POPC   C3B44889  40.879  14.731   7.121
 3430POPC   C4B44890  40.911  14.927   7.518
 3431POPC   NC344891  31.816  35.185   5.455
 3431POPC   PO444892  32.520  35.435   5.513
 3431POPC   GL144893  32.193  35.324   5.779
 3431POPC   GL244894  31.957  35.594   5.763
 3431POPC   C1A44895  32.093  35.234   6.207
 3431POPC   D2A44896  32.247  35.071   6.590
 3431POPC   C3A44897  32.122  35.204   6.980
 3431POPC   C4A44898  32.507  35.131   7.189
 3431POPC   C1B44899  32.247  35.728   6.095
 3431POPC   C2B44900  32.364  35.595   6.483
 3431POPC   C3B44901  32.379  35.655   6.888
 3431POPC   C4B44902  32.322  35.583   7.287
 3432POPC   NC344903   7.002   4.651   5.337
 3432POPC   PO444904   7.301   4.104   5.197
 3432POPC   GL144905   7.240   4.178   5.715
 3432POPC   GL244906   7.017   3.932   5.900
 3432POPC   C1A44907   7.477   4.390   6.119
 3432POPC   D2A44908   7.775   4.471   6.504
 3432POPC   C3A44909   7.560   4.579   6.896
 3432POPC   C4A44910   7.537   4.388   7.304
 3432POPC   C1B44911   6.999   4.245   6.208
 3432POPC   C2B44912   6.910   4.400   6.628
 3432POPC   C3B44913   7.069   4.351   7.051
 3432POPC   C4B44914   7.038   4.029   7.360
 3433POPC   NC344915  37.976  44.828   5.421
 3433POPC   PO444916  37.258  44.980   5.504
 3433POPC   GL144917  37.479  44.875   5.882
 3433POPC   GL244918  37.772   0.042   5.810
 3433POPC   C1A44919  37.648  44.664   6.267
 3433POPC   D2A44920  37.779  44.309   6.562
 3433POPC   C3A44921  37.678  44.438   6.992
 3433POPC   C4A44922  37.461  44.824   7.154
 3433POPC   C1B44923  38.088  44.911   6.107
 3433POPC   C2B44924  38.059  44.797   6.556
 3433POPC   C3B44925  37.959  44.873   6.999
 3433POPC   C4B44926  37.875  44.838   7.454
 3434POPC   NC344927  20.674  38.780   5.494
 3434POPC   PO444928  20.547  38.116   5.495
 3434POPC   GL144929  20.622  38.385   5.853
 3434POPC   GL244930  20.952  38.224   5.836
 3434POPC   C1A44931  20.493  38.593   6.264
 3434POPC   D2A44932  20.427  38.872   6.637
 3434POPC   C3A44933  20.500  38.623   6.997
 3434POPC   C4A44934  20.685  38.639   7.394
 3434POPC   C1B44935  21.006  38.514   6.191
 3434POPC   C2B44936  20.884  38.597   6.615
 3434POPC   C3B44937  20.931  38.339   6.968
 3434POPC   C4B44938  20.916  38.186   7.381
 3435POPC   NC344939  32.525  18.725   5.429
 3435POPC   PO444940  32.068  18.104   5.398
 3435POPC   GL144941  32.290  18.264   5.740
 3435POPC   GL244942  32.134  18.608   5.790
 3435POPC   C1A44943  32.282  18.023   6.146
 3435POPC   D2A44944  32.015  18.150   6.529
 3435POPC   C3A44945  32.255  18.102   6.896
 3435POPC   C4A44946  32.295  17.901   7.265
 3435POPC   C1B44947  32.195  18.508   6.207
 3435POPC   C2B44948  32.506  18.377   6.528
 3435POPC   C3B44949  32.511  18.525   6.965
 3435POPC   C4B44950  32.391  18.397   7.379
 3436POPC   NC344951  44.007  23.174   5.247
 3436POPC   PO444952  43.621  22.600   5.327
 3436POPC   GL144953  43.712  22.896   5.661
 3436POPC   GL244954  44.041  23.001   5.731
 3436POPC   C1A44955  43.652  23.068   6.096
 3436POPC   D2A44956  43.912  23.033   6.479
 3436POPC   C3A44957  43.747  23.012   6.899
 3436POPC   C4A44958  43.942  22.970   7.280
 3436POPC   C1B44959  44.204  22.669   5.976
 3436POPC   C2B44960  44.229  22.608   6.418
 3436POPC   C3B44961  44.179  22.701   6.876
 3436POPC   C4B44962  44.211  22.538   7.285
 3437POPC   NC344963   4.526   6.135   5.555
 3437POPC   PO444964   5.107   5.710   5.484
 3437POPC   GL144965   4.978   5.580   5.871
 3437POPC   GL244966   4.850   5.927   5.936
 3437POPC   C1A44967   4.934   5.617   6.330
 3437POPC   D2A44968   5.134   5.891   6.613
 3437POPC   C3A44969   4.951   5.936   7.029
 3437POPC   C4A44970   5.071   5.737   7.393
 3437POPC   C1B44971   5.223   6.177   6.104
 3437POPC   C2B44972   5.515   6.256   6.452
 3437POPC   C3B44973   5.372   6.270   6.885
 3437POPC   C4B44974   5.374   6.128   7.306
 3438POPC   NC344975   9.488  44.479   5.434
 3438POPC   PO444976  10.144  44.765   5.581
 3438POPC   GL144977   9.733  44.802   5.847
 3438POPC   GL244978   9.562  44.477   5.919
 3438POPC   C1A44979   9.544  44.788   6.299
 3438POPC   D2A44980   9.543  44.542   6.696
 3438POPC   C3A44981   9.701  44.743   7.062
 3438POPC   C4A44982  10.088  44.968   7.176
 3438POPC   C1B44983   9.906  44.297   6.140
 3438POPC   C2B44984  10.079  44.295   6.570
 3438POPC   C3B44985   9.957  44.201   6.989
 3438POPC   C4B44986   9.847  44.383   7.387
 3439POPC   NC344987   3.762  14.521   5.424
 3439POPC   PO444988   3.264  14.011   5.525
 3439POPC   GL144989   3.404  14.351   5.754
 3439POPC   GL244990   3.231  14.682   5.714
 3439POPC   C1A44991   3.717  14.423   6.081
 3439POPC   D2A44992   3.795  14.240   6.447
 3439POPC   C3A44993   3.657  14.344   6.799
 3439POPC   C4A44994   3.766  14.359   7.186
 3439POPC   C1B44995   3.229  14.576   6.171
 3439POPC   C2B44996   3.339  14.678   6.597
 3439POPC   C3B44997   3.251  14.538   7.027
 3439POPC   C4B44998   3.258  14.145   7.197
 3440POPC   NC344999  33.386  44.552   5.530
 3440POPC   PO445000  32.731  44.801   5.602
 3440POPC   GL145001  32.944  44.524   5.897
 3440POPC   GL245002  32.669  44.249   5.901
 3440POPC   C1A45003  33.159  44.543   6.346
 3440POPC   D2A45004  33.418  44.482   6.734
 3440POPC   C3A45005  33.147  44.425   7.073
 3440POPC   C4A45006  32.905  44.824   7.205
 3440POPC   C1B45007  32.647  44.510   6.298
 3440POPC   C2B45008  32.761  44.509   6.740
 3440POPC   C3B45009  32.634  44.368   7.147
 3440POPC   C4B45010  32.684  44.476   7.542
 3441POPC   NC345011  42.917  18.853   5.324
 3441POPC   PO445012  43.537  18.811   5.365
 3441POPC   GL145013  43.302  18.702   5.768
 3441POPC   GL245014  42.978  18.877   5.863
 3441POPC   C1A45015  43.348  18.712   6.255
 3441POPC   D2A45016  43.420  18.652   6.719
 3441POPC   C3A45017  43.401  18.973   7.091
 3441POPC   C4A45018  43.151  19.023   7.523
 3441POPC   C1B45019  42.859  18.910   6.325
 3441POPC   C2B45020  42.969  18.916   6.762
 3441POPC   C3B45021  42.913  19.182   7.120
 3441POPC   C4B45022  42.653  19.127   7.507
 3442POPC   NC345023  33.950   2.964   5.542
 3442POPC   PO445024  33.323   2.889   5.619
 3442POPC   GL145025  33.563   2.550   5.886
 3442POPC   GL245026  33.939   2.475   5.797
 3442POPC   C1A45027  33.568   2.627   6.338
 3442POPC   D2A45028  33.733   2.891   6.622
 3442POPC   C3A45029  33.837   2.699   6.975
 3442POPC   C4A45030  33.666   2.843   7.311
 3442POPC   C1B45031  34.063   2.598   6.212
 3442POPC   C2B45032  34.074   2.376   6.625
 3442POPC   C3B45033  34.254   2.410   7.061
 3442POPC   C4B45034  34.222   2.731   7.447
 3443POPC   NC345035  11.641  44.133   5.472
 3443POPC   PO445036  10.966  44.198   5.521
 3443POPC   GL145037  11.151  43.917   5.847
 3443POPC   GL245038  11.523  43.820   5.858
 3443POPC   C1A45039  11.232  43.910   6.295
 3443POPC   D2A45040  11.134  44.186   6.643
 3443POPC   C3A45041  11.266  44.102   7.046
 3443POPC   C4A45042  11.031  43.773   7.218
 3443POPC   C1B45043  11.739  43.934   6.247
 3443POPC   C2B45044  11.611  43.981   6.672
 3443POPC   C3B45045  11.767  43.836   7.062
 3443POPC   C4B45046  11.711  43.767   7.485
 3444POPC   NC345047  41.061  26.185   5.454
 3444POPC   PO445048  40.463  25.887   5.388
 3444POPC   GL145049  40.674  26.008   5.756
 3444POPC   GL245050  40.701  26.367   5.772
 3444POPC   C1A45051  40.935  25.810   6.059
 3444POPC   D2A45052  40.988  25.917   6.499
 3444POPC   C3A45053  40.799  25.758   6.891
 3444POPC   C4A45054  40.894  25.954   7.304
 3444POPC   C1B45055  40.720  26.267   6.212
 3444POPC   C2B45056  40.527  26.188   6.633
 3444POPC   C3B45057  40.588  26.300   7.068
 3444POPC   C4B45058  40.438  26.261   7.503
 3445POPC   NC345059  14.398  24.953   5.438
 3445POPC   PO445060  13.977  25.413   5.269
 3445POPC   GL145061  14.278  25.418   5.665
 3445POPC   GL245062  14.554  25.247   5.821
 3445POPC   C1A45063  14.179  25.366   6.127
 3445POPC   D2A45064  14.289  25.136   6.496
 3445POPC   C3A45065  14.079  25.216   6.895
 3445POPC   C4A45066  14.018  25.512   7.222
 3445POPC   C1B45067  14.705  25.401   6.185
 3445POPC   C2B45068  14.750  25.369   6.604
 3445POPC   C3B45069  14.593  25.152   6.952
 3445POPC   C4B45070  14.553  25.298   7.361
 3446POPC   NC345071  18.760  44.576   5.659
 3446POPC   PO445072  19.472  44.522   5.610
 3446POPC   GL145073  19.213  44.546   5.939
 3446POPC   GL245074  19.055  44.894   5.956
 3446POPC   C1A45075  19.196  44.308   6.301
 3446POPC   D2A45076  19.092  44.418   6.727
 3446POPC   C3A45077  19.336  44.467   7.031
 3446POPC   C4A45078  19.341  44.890   7.157
 3446POPC   C1B45079  18.820  44.660   6.297
 3446POPC   C2B45080  18.624  44.607   6.675
 3446POPC   C3B45081  18.810  44.688   7.094
 3446POPC   C4B45082  18.815  44.679   7.535
 3447POPC   NC345083  17.489  14.913   5.115
 3447POPC   PO445084  17.606  15.384   5.571
 3447POPC   GL145085  17.548  15.017   5.843
 3447POPC   GL245086  17.173  14.953   5.823
 3447POPC   C1A45087  17.718  15.044   6.292
 3447POPC   D2A45088  17.862  15.002   6.725
 3447POPC   C3A45089  17.737  15.160   7.140
 3447POPC   C4A45090  17.625  15.369   7.553
 3447POPC   C1B45091  17.270  15.287   6.184
 3447POPC   C2B45092  17.258  15.457   6.614
 3447POPC   C3B45093  17.058  15.494   6.992
 3447POPC   C4B45094  17.229  15.160   7.229
 3448POPC   NC345095  12.392  29.782   5.494
 3448POPC   PO445096  12.217  30.360   5.206
 3448POPC   GL145097  12.084  30.165   5.651
 3448POPC   GL245098  12.347  30.103   5.876
 3448POPC   C1A45099  11.912  29.836   5.984
 3448POPC   D2A45100  12.072  29.703   6.429
 3448POPC   C3A45101  11.990  29.822   6.896
 3448POPC   C4A45102  11.919  29.791   7.355
 3448POPC   C1B45103  12.076  30.271   6.188
 3448POPC   C2B45104  12.214  30.199   6.585
 3448POPC   C3B45105  12.470  29.869   6.741
 3448POPC   C4B45106  12.430  29.870   7.196
 3449POPC   NC345107  21.252  13.191   5.454
 3449POPC   PO445108  21.094  12.542   5.266
 3449POPC   GL145109  21.092  12.728   5.675
 3449POPC   GL245110  20.828  12.635   5.923
 3449POPC   C1A45111  21.365  12.820   6.032
 3449POPC   D2A45112  21.379  13.103   6.390
 3449POPC   C3A45113  21.445  12.970   6.825
 3449POPC   C4A45114  21.645  12.933   7.218
 3449POPC   C1B45115  20.980  12.771   6.360
 3449POPC   C2B45116  21.220  12.551   6.661
 3449POPC   C3B45117  21.278  12.497   7.096
 3449POPC   C4B45118  21.611  12.427   7.387
 3450POPC   NC345119  32.419  15.328   5.441
 3450POPC   PO445120  32.486  14.712   5.504
 3450POPC   GL145121  32.236  14.918   5.818
 3450POPC   GL245122  32.118  15.257   5.828
 3450POPC   C1A45123  32.369  15.074   6.227
 3450POPC   D2A45124  32.541  15.325   6.550
 3450POPC   C3A45125  32.479  15.162   6.935
 3450POPC   C4A45126  32.491  15.341   7.343
 3450POPC   C1B45127  31.938  15.370   6.248
 3450POPC   C2B45128  32.042  15.176   6.633
 3450POPC   C3B45129  32.003  15.301   7.036
 3450POPC   C4B45130  31.609  15.448   7.173
 3451POPC   NC345131  43.234  41.950   5.464
 3451POPC   PO445132  42.600  42.124   5.311
 3451POPC   GL145133  42.901  42.311   5.648
 3451POPC   GL245134  42.889  42.592   5.876
 3451POPC   C1A45135  43.087  42.171   6.085
 3451POPC   D2A45136  43.369  42.090   6.437
 3451POPC   C3A45137  43.122  42.068   6.816
 3451POPC   C4A45138  43.226  42.177   7.219
 3451POPC   C1B45139  43.124  42.667   6.256
 3451POPC   C2B45140  43.243  42.550   6.665
 3451POPC   C3B45141  43.220  42.675   7.073
 3451POPC   C4B45142  42.975  42.592   7.432
 3452POPC   NC345143   1.668  21.448   5.601
 3452POPC   PO445144   1.066  21.316   5.294
 3452POPC   GL145145   1.191  21.198   5.728
 3452POPC   GL245146   1.263  21.528   5.903
 3452POPC   C1A45147   1.131  21.123   6.181
 3452POPC   D2A45148   1.274  21.423   6.506
 3452POPC   C3A45149   1.266  21.193   6.920
 3452POPC   C4A45150   1.201  21.190   7.387
 3452POPC   C1B45151   1.563  21.764   6.186
 3452POPC   C2B45152   1.459  21.911   6.577
 3452POPC   C3B45153   1.410  21.681   6.944
 3452POPC   C4B45154   1.337  21.674   7.351
 3453POPC   NC345155   6.925   3.031   5.403
 3453POPC   PO445156   6.316   2.619   5.461
 3453POPC   GL145157   6.498   2.602   5.882
 3453POPC   GL245158   6.719   2.895   5.887
 3453POPC   C1A45159   6.487   2.717   6.342
 3453POPC   D2A45160   6.354   2.954   6.712
 3453POPC   C3A45161   6.494   2.833   7.101
 3453POPC   C4A45162   6.643   3.098   7.431
 3453POPC   C1B45163   6.953   2.587   6.170
 3453POPC   C2B45164   6.948   2.668   6.617
 3453POPC   C3B45165   6.895   2.461   7.007
 3453POPC   C4B45166   6.857   2.634   7.414
 3454POPC   NC345167  11.070  44.707   5.398
 3454POPC   PO445168  11.813  44.590   5.451
 3454POPC   GL145169  11.490  44.730   5.733
 3454POPC   GL245170  11.363  44.402   5.821
 3454POPC   C1A45171  11.439  44.805   6.180
 3454POPC   D2A45172  11.470  44.551   6.540
 3454POPC   C3A45173  11.426  44.802   6.901
 3454POPC   C4A45174  11.440  44.558   7.270
 3454POPC   C1B45175  11.103  44.410   6.186
 3454POPC   C2B45176  10.951  44.665   6.545
 3454POPC   C3B45177  10.995  44.542   6.987
 3454POPC   C4B45178  10.984  44.424   7.471
 3455POPC   NC345179  41.675  24.681   5.436
 3455POPC   PO445180  41.548  24.011   5.507
 3455POPC   GL145181  41.559  24.339   5.828
 3455POPC   GL245182  41.662  24.697   5.932
 3455POPC   C1A45183  41.609  24.300   6.253
 3455POPC   D2A45184  41.805  24.498   6.541
 3455POPC   C3A45185  41.534  24.442   6.871
 3455POPC   C4A45186  41.665  24.160   7.204
 3455POPC   C1B45187  41.338  24.763   6.242
 3455POPC   C2B45188  41.231  24.954   6.624
 3455POPC   C3B45189  41.401  24.957   7.032
 3455POPC   C4B45190  41.551  24.672   7.318
 3456POPC   NC345191  11.030  35.557   5.273
 3456POPC   PO445192  11.310  34.925   5.272
 3456POPC   GL145193  11.170  35.118   5.692
 3456POPC   GL245194  11.119  35.503   5.775
 3456POPC   C1A45195  11.379  35.201   6.111
 3456POPC   D2A45196  11.428  35.356   6.561
 3456POPC   C3A45197  11.156  35.155   6.879
 3456POPC   C4A45198  11.292  34.872   7.225
 3456POPC   C1B45199  11.176  35.667   6.202
 3456POPC   C2B45200  11.185  35.825   6.632
 3456POPC   C3B45201  11.346  35.706   7.043
 3456POPC   C4B45202  11.359  35.811   7.501
 3457POPC   NC345203  35.901  41.482   5.371
 3457POPC   PO445204  36.422  42.013   5.405
 3457POPC   GL145205  36.146  41.793   5.676
 3457POPC   GL245206  36.404  41.557   5.717
 3457POPC   C1A45207  35.945  41.558   6.047
 3457POPC   D2A45208  35.754  41.384   6.457
 3457POPC   C3A45209  35.959  41.431   6.862
 3457POPC   C4A45210  35.944  41.178   7.222
 3457POPC   C1B45211  36.406  41.853   6.101
 3457POPC   C2B45212  36.472  41.740   6.529
 3457POPC   C3B45213  36.328  41.837   6.938
 3457POPC   C4B45214  36.227  41.610   7.280
 3458POPC   NC345215  21.964  44.909   5.482
 3458POPC   PO445216  22.646  44.726   5.529
 3458POPC   GL145217  22.462  44.451   5.808
 3458POPC   GL245218  22.086  44.444   5.811
 3458POPC   C1A45219  22.375  44.541   6.225
 3458POPC   D2A45220  22.224  44.825   6.529
 3458POPC   C3A45221  22.319  44.639   6.894
 3458POPC   C4A45222  22.347  44.711   7.308
 3458POPC   C1B45223  21.873  44.622   6.179
 3458POPC   C2B45224  21.819  44.488   6.625
 3458POPC   C3B45225  21.832  44.537   7.058
 3458POPC   C4B45226  21.942  44.961   7.028
 3459POPC   NC345227  21.957  20.749   5.358
 3459POPC   PO445228  22.468  20.317   5.330
 3459POPC   GL145229  22.412  20.636   5.679
 3459POPC   GL245230  22.101  20.685   5.824
 3459POPC   C1A45231  22.422  20.488   6.154
 3459POPC   D2A45232  22.499  20.710   6.554
 3459POPC   C3A45233  22.325  20.589   6.942
 3459POPC   C4A45234  22.226  20.803   7.304
 3459POPC   C1B45235  21.919  20.419   6.130
 3459POPC   C2B45236  21.967  20.527   6.555
 3459POPC   C3B45237  21.889  20.330   6.943
 3459POPC   C4B45238  21.873  20.455   7.334
 3460POPC   NC345239   4.962  25.573   5.424
 3460POPC   PO445240   5.243  25.032   5.249
 3460POPC   GL145241   5.268  25.221   5.679
 3460POPC   GL245242   5.549  25.018   5.810
 3460POPC   C1A45243   5.018  25.353   6.082
 3460POPC   D2A45244   4.890  25.151   6.505
 3460POPC   C3A45245   4.977  25.354   6.916
 3460POPC   C4A45246   4.873  25.570   7.301
 3460POPC   C1B45247   5.312  24.943   6.188
 3460POPC   C2B45248   5.356  24.847   6.631
 3460POPC   C3B45249   5.327  24.981   7.043
 3460POPC   C4B45250   5.275  24.804   7.426
 3461POPC   NC345251   2.011   3.930   5.325
 3461POPC   PO445252   1.916   3.315   5.496
 3461POPC   GL145253   1.807   3.517   5.839
 3461POPC   GL245254   1.656   3.795   5.698
 3461POPC   C1A45255   1.821   3.389   6.260
 3461POPC   D2A45256   1.908   3.555   6.671
 3461POPC   C3A45257   1.866   3.299   7.042
 3461POPC   C4A45258   2.008   3.290   7.470
 3461POPC   C1B45259   1.682   3.993   6.102
 3461POPC   C2B45260   1.552   3.903   6.528
 3461POPC   C3B45261   1.784   3.995   6.924
 3461POPC   C4B45262   1.821   3.740   7.310
 3462POPC   NC345263  30.136  10.071   5.343
 3462POPC   PO445264  29.465   9.831   5.372
 3462POPC   GL145265  29.722   9.789   5.750
 3462POPC   GL245266  30.074   9.637   5.681
 3462POPC   C1A45267  29.606   9.734   6.199
 3462POPC   D2A45268  29.633   9.837   6.640
 3462POPC   C3A45269  29.630   9.459   6.882
 3462POPC   C4A45270  29.689   9.505   7.317
 3462POPC   C1B45271  30.153   9.636   6.139
 3462POPC   C2B45272  30.069   9.560   6.589
 3462POPC   C3B45273  30.115   9.603   7.029
 3462POPC   C4B45274  30.174   9.501   7.470
 3463POPC   NC345275  33.513  12.732   5.477
 3463POPC   PO445276  33.970  13.150   5.289
 3463POPC   GL145277  34.001  12.891   5.743
 3463POPC   GL245278  33.695  12.902   5.896
 3463POPC   C1A45279  34.045  12.789   6.249
 3463POPC   D2A45280  34.130  12.843   6.732
 3463POPC   C3A45281  33.859  12.771   7.106
 3463POPC   C4A45282  33.865  13.031   7.498
 3463POPC   C1B45283  33.545  13.116   6.210
 3463POPC   C2B45284  33.666  13.044   6.611
 3463POPC   C3B45285  33.478  13.092   6.993
 3463POPC   C4B45286  33.397  12.851   7.363
 3464POPC   NC345287  10.371  31.924   5.465
 3464POPC   PO445288  10.396  32.587   5.562
 3464POPC   GL145289  10.656  32.259   5.756
 3464POPC   GL245290  10.371  32.155   5.933
 3464POPC   C1A45291  10.799  31.990   6.125
 3464POPC   D2A45292  10.644  32.137   6.534
 3464POPC   C3A45293  10.861  32.299   6.879
 3464POPC   C4A45294  10.687  32.099   7.214
 3464POPC   C1B45295  10.383  32.491   6.214
 3464POPC   C2B45296  10.203  32.442   6.588
 3464POPC   C3B45297  10.280  32.356   7.000
 3464POPC   C4B45298  10.535  32.581   7.281
 3465POPC   NC345299  14.626  21.033   5.541
 3465POPC   PO445300  14.302  20.393   5.480
 3465POPC   GL145301  14.436  20.628   5.892
 3465POPC   GL245302  14.740  20.839   5.985
 3465POPC   C1A45303  14.454  20.531   6.350
 3465POPC   D2A45304  14.203  20.403   6.728
 3465POPC   C3A45305  14.369  20.614   7.071
 3465POPC   C4A45306  14.771  20.571   7.194
 3465POPC   C1B45307  14.465  21.041   6.247
 3465POPC   C2B45308  14.413  20.939   6.658
 3465POPC   C3B45309  14.698  21.026   6.955
 3465POPC   C4B45310  14.900  21.049   7.320
 3466POPC   NC345311  18.857   3.135   5.322
 3466POPC   PO445312  18.989   2.499   5.218
 3466POPC   GL145313  18.935   2.519   5.700
 3466POPC   GL245314  18.918   2.880   5.773
 3466POPC   C1A45315  19.049   2.601   6.179
 3466POPC   D2A45316  19.216   2.829   6.557
 3466POPC   C3A45317  19.243   2.596   6.947
 3466POPC   C4A45318  18.930   2.607   7.207
 3466POPC   C1B45319  18.972   3.125   6.154
 3466POPC   C2B45320  18.818   3.143   6.574
 3466POPC   C3B45321  19.019   3.066   6.976
 3466POPC   C4B45322  19.329   3.048   7.284
 3467POPC   NC345323  32.063  33.398   5.018
 3467POPC   PO445324  32.283  32.928   5.416
 3467POPC   GL145325  32.329  33.211   5.769
 3467POPC   GL245326  32.598  32.992   5.892
 3467POPC   C1A45327  32.416  33.344   6.210
 3467POPC   D2A45328  32.315  33.205   6.628
 3467POPC   C3A45329  32.511  33.227   7.037
 3467POPC   C4A45330  32.280  33.138   7.408
 3467POPC   C1B45331  32.197  32.872   6.147
 3467POPC   C2B45332  31.942  32.884   6.537
 3467POPC   C3B45333  32.117  32.870   6.970
 3467POPC   C4B45334  31.875  32.795   7.334
 3468POPC   NC345335  26.836  18.768   5.678
 3468POPC   PO445336  27.292  19.261   5.622
 3468POPC   GL145337  26.974  19.215   5.909
 3468POPC   GL245338  27.178  18.952   6.038
 3468POPC   C1A45339  26.745  19.064   6.298
 3468POPC   D2A45340  26.502  19.187   6.671
 3468POPC   C3A45341  26.682  19.105   7.069
 3468POPC   C4A45342  26.981  19.251   7.351
 3468POPC   C1B45343  27.298  19.172   6.400
 3468POPC   C2B45344  27.139  19.127   6.828
 3468POPC   C3B45345  27.093  18.782   7.125
 3468POPC   C4B45346  27.097  18.808   7.560
 3469POPC   NC345347   3.953  44.217   5.527
 3469POPC   PO445348   4.415  43.713   5.540
 3469POPC   GL145349   4.377  44.060   5.806
 3469POPC   GL245350   4.067  43.893   5.907
 3469POPC   C1A45351   4.338  44.190   6.237
 3469POPC   D2A45352   4.493  44.033   6.627
 3469POPC   C3A45353   4.307  44.235   6.979
 3469POPC   C4A45354   4.541  44.120   7.314
 3469POPC   C1B45355   4.049  43.638   6.264
 3469POPC   C2B45356   4.025  43.781   6.694
 3469POPC   C3B45357   4.133  43.752   7.118
 3469POPC   C4B45358   4.076  44.011   7.495
 3470POPC   NC345359  31.401  42.925   5.106
 3470POPC   PO445360  31.625  43.460   5.410
 3470POPC   GL145361  31.462  43.278   5.790
 3470POPC   GL245362  31.231  43.033   5.623
 3470POPC   C1A45363  31.582  43.264   6.230
 3470POPC   D2A45364  31.844  42.971   6.482
 3470POPC   C3A45365  31.786  42.950   6.962
 3470POPC   C4A45366  31.427  43.138   7.243
 3470POPC   C1B45367  31.147  42.957   6.072
 3470POPC   C2B45368  31.156  42.760   6.499
 3470POPC   C3B45369  31.300  42.721   6.928
 3470POPC   C4B45370  31.072  42.778   7.290
 3471POPC   NC345371  39.524  22.435   5.414
 3471POPC   PO445372  39.145  21.880   5.453
 3471POPC   GL145373  39.294  22.111   5.774
 3471POPC   GL245374  38.982  22.258   5.897
 3471POPC   C1A45375  39.381  22.115   6.226
 3471POPC   D2A45376  39.182  22.164   6.640
 3471POPC   C3A45377  39.445  22.310   6.966
 3471POPC   C4A45378  39.473  22.146   7.354
 3471POPC   C1B45379  39.028  22.495   6.274
 3471POPC   C2B45380  39.186  22.668   6.671
 3471POPC   C3B45381  38.979  22.492   7.048
 3471POPC   C4B45382  38.861  22.618   7.482
 3472POPC   NC345383   7.849  27.376   5.491
 3472POPC   PO445384   8.020  28.046   5.648
 3472POPC   GL145385   8.111  27.637   5.870
 3472POPC   GL245386   8.447  27.533   5.749
 3472POPC   C1A45387   8.012  27.345   6.237
 3472POPC   D2A45388   7.944  27.482   6.693
 3472POPC   C3A45389   8.028  27.466   7.153
 3472POPC   C4A45390   7.996  27.747   7.513
 3472POPC   C1B45391   8.498  27.357   6.154
 3472POPC   C2B45392   8.481  27.581   6.549
 3472POPC   C3B45393   8.514  27.609   6.988
 3472POPC   C4B45394   8.500  27.641   7.436
 3473POPC   NC345395   3.208  12.056   5.446
 3473POPC   PO445396   2.538  12.076   5.481
 3473POPC   GL145397   2.630  11.960   5.891
 3473POPC   GL245398   2.983  11.979   5.915
 3473POPC   C1A45399   2.618  12.041   6.329
 3473POPC   D2A45400   2.738  11.817   6.713
 3473POPC   C3A45401   2.572  11.981   7.112
 3473POPC   C4A45402   2.771  11.914   7.526
 3473POPC   C1B45403   3.068  11.725   6.297
 3473POPC   C2B45404   3.260  11.867   6.705
 3473POPC   C3B45405   3.077  12.037   7.076
 3473POPC   C4B45406   2.995  11.631   7.141
 3474POPC   NC345407   8.577   5.998   5.525
 3474POPC   PO445408   8.040   5.545   5.574
 3474POPC   GL145409   8.159   5.961   5.799
 3474POPC   GL245410   8.385   5.726   5.975
 3474POPC   C1A45411   8.279   6.138   6.225
 3474POPC   D2A45412   8.311   5.814   6.557
 3474POPC   C3A45413   8.469   5.879   6.960
 3474POPC   C4A45414   8.387   6.151   7.260
 3474POPC   C1B45415   7.937   5.766   6.201
 3474POPC   C2B45416   7.762   5.594   6.561
 3474POPC   C3B45417   7.956   5.678   6.908
 3474POPC   C4B45418   7.899   5.905   7.267
 3475POPC   NC345419  23.894   4.098   5.610
 3475POPC   PO445420  23.205   4.471   5.433
 3475POPC   GL145421  23.471   4.442   5.814
 3475POPC   GL245422  23.514   4.094   5.975
 3475POPC   C1A45423  23.422   4.510   6.263
 3475POPC   D2A45424  23.641   4.470   6.672
 3475POPC   C3A45425  23.383   4.443   7.039
 3475POPC   C4A45426  23.526   4.059   7.254
 3475POPC   C1B45427  23.887   4.267   6.240
 3475POPC   C2B45428  24.162   4.169   6.603
 3475POPC   C3B45429  24.018   4.136   7.033
 3475POPC   C4B45430  23.872   4.508   7.165
 3476POPC   NC345431  20.128  16.150   5.197
 3476POPC   PO445432  19.473  16.016   5.522
 3476POPC   GL145433  19.761  16.094   5.838
 3476POPC   GL245434  20.083  16.111   5.702
 3476POPC   C1A45435  19.737  16.054   6.268
 3476POPC   D2A45436  19.707  15.744   6.576
 3476POPC   C3A45437  19.675  15.905   6.934
 3476POPC   C4A45438  19.739  15.796   7.317
 3476POPC   C1B45439  20.245  16.099   6.122
 3476POPC   C2B45440  20.163  16.172   6.564
 3476POPC   C3B45441  19.865  16.385   6.836
 3476POPC   C4B45442  19.665  16.308   7.255
 3477POPC   NC345443  33.262  20.281   5.649
 3477POPC   PO445444  32.794  20.581   5.274
 3477POPC   GL145445  32.914  20.625   5.787
 3477POPC   GL245446  33.268  20.765   5.845
 3477POPC   C1A45447  33.018  20.351   6.219
 3477POPC   D2A45448  32.805  20.210   6.592
 3477POPC   C3A45449  32.880  20.298   7.002
 3477POPC   C4A45450  32.853  20.588   7.322
 3477POPC   C1B45451  33.133  20.832   6.285
 3477POPC   C2B45452  33.063  20.688   6.709
 3477POPC   C3B45453  33.294  20.746   7.094
 3477POPC   C4B45454  33.298  20.798   7.551
 3478POPC   NC345455  38.015  18.531   5.727
 3478POPC   PO445456  37.560  18.976   5.451
 3478POPC   GL145457  37.576  19.159   5.822
 3478POPC   GL245458  37.852  19.011   5.940
 3478POPC   C1A45459  37.470  19.237   6.230
 3478POPC   D2A45460  37.624  19.086   6.601
 3478POPC   C3A45461  37.699  19.357   6.899
 3478POPC   C4A45462  37.641  19.213   7.311
 3478POPC   C1B45463  38.025  19.219   6.284
 3478POPC   C2B45464  38.152  19.073   6.681
 3478POPC   C3B45465  37.969  18.926   7.064
 3478POPC   C4B45466  38.117  19.103   7.484
 3479POPC   NC345467  10.004   7.860   5.504
 3479POPC   PO445468   9.401   8.049   5.437
 3479POPC   GL145469   9.676   8.176   5.744
 3479POPC   GL245470   9.607   7.807   5.836
 3479POPC   C1A45471   9.827   8.454   6.097
 3479POPC   D2A45472   9.671   8.411   6.530
 3479POPC   C3A45473   9.898   8.273   6.884
 3479POPC   C4A45474   9.820   8.452   7.271
 3479POPC   C1B45475   9.627   7.993   6.217
 3479POPC   C2B45476   9.562   7.872   6.593
 3479POPC   C3B45477   9.366   8.081   6.892
 3479POPC   C4B45478   9.602   8.005   7.202
 3480POPC   NC345479  25.265  27.786   5.451
 3480POPC   PO445480  24.913  27.153   5.602
 3480POPC   GL145481  25.009  27.526   5.815
 3480POPC   GL245482  25.372  27.561   5.911
 3480POPC   C1A45483  24.990  27.812   6.160
 3480POPC   D2A45484  25.188  27.735   6.542
 3480POPC   C3A45485  25.045  27.433   6.807
 3480POPC   C4A45486  25.072  27.300   7.191
 3480POPC   C1B45487  25.629  27.550   6.281
 3480POPC   C2B45488  25.589  27.493   6.715
 3480POPC   C3B45489  25.434  27.690   7.093
 3480POPC   C4B45490  25.549  27.936   7.474
 3481POPC   NC345491  24.523   3.060   5.248
 3481POPC   PO445492  24.733   3.717   5.356
 3481POPC   GL145493  24.640   3.483   5.766
 3481POPC   GL245494  24.620   3.101   5.839
 3481POPC   C1A45495  24.575   3.439   6.220
 3481POPC   D2A45496  24.661   3.253   6.636
 3481POPC   C3A45497  24.860   3.606   6.841
 3481POPC   C4A45498  24.930   3.841   7.212
 3481POPC   C1B45499  24.333   2.994   6.216
 3481POPC   C2B45500  24.142   3.247   6.532
 3481POPC   C3B45501  24.259   3.322   6.970
 3481POPC   C4B45502  24.635   3.360   7.254
 3482POPC   NC345503  17.329  30.393   5.478
 3482POPC   PO445504  17.760  30.873   5.320
 3482POPC   GL145505  17.509  30.853   5.774
 3482POPC   GL245506  17.444  30.542   5.945
 3482POPC   C1A45507  17.388  30.881   6.281
 3482POPC   D2A45508  17.425  30.470   6.571
 3482POPC   C3A45509  17.416  30.621   7.025
 3482POPC   C4A45510  17.348  30.863   7.394
 3482POPC   C1B45511  17.818  30.602   6.258
 3482POPC   C2B45512  17.862  30.680   6.748
 3482POPC   C3B45513  17.864  30.473   7.186
 3482POPC   C4B45514  17.791  30.665   7.616
 3483POPC   NC345515  31.003  42.137   5.376
 3483POPC   PO445516  30.430  42.278   5.300
 3483POPC   GL145517  30.628  42.367   5.676
 3483POPC   GL245518  30.829  42.682   5.652
 3483POPC   C1A45519  30.591  42.192   6.099
 3483POPC   D2A45520  30.740  41.963   6.485
 3483POPC   C3A45521  30.658  42.071   6.938
 3483POPC   C4A45522  30.623  41.982   7.423
 3483POPC   C1B45523  30.707  42.689   6.086
 3483POPC   C2B45524  30.692  42.507   6.491
 3483POPC   C3B45525  30.798  42.587   6.896
 3483POPC   C4B45526  30.701  42.450   7.292
 3484POPC   NC345527  32.846  24.973   5.462
 3484POPC   PO445528  32.977  24.203   5.580
 3484POPC   GL145529  32.924  24.443   5.948
 3484POPC   GL245530  33.105  24.776   5.861
 3484POPC   C1A45531  33.011  24.292   6.381
 3484POPC   D2A45532  33.139  24.225   6.809
 3484POPC   C3A45533  32.888  24.477   7.135
 3484POPC   C4A45534  32.709  24.933   7.161
 3484POPC   C1B45535  33.357  24.650   6.215
 3484POPC   C2B45536  33.204  24.738   6.621
 3484POPC   C3B45537  33.360  24.684   7.012
 3484POPC   C4B45538  33.448  24.331   7.202
 3485POPC   NC345539  18.080  31.963   5.336
 3485POPC   PO445540  18.324  32.518   5.354
 3485POPC   GL145541  18.298  32.312   5.702
 3485POPC   GL245542  18.080  32.587   5.818
 3485POPC   C1A45543  18.417  32.032   6.021
 3485POPC   D2A45544  18.228  31.921   6.417
 3485POPC   C3A45545  18.415  31.944   6.796
 3485POPC   C4A45546  18.515  32.117   7.218
 3485POPC   C1B45547  18.178  32.424   6.243
 3485POPC   C2B45548  18.436  32.432   6.625
 3485POPC   C3B45549  18.568  32.591   7.048
 3485POPC   C4B45550  18.370  32.642   7.462
 3486POPC   NC345551  13.164   6.132   5.277
 3486POPC   PO445552  12.605   5.714   5.117
 3486POPC   GL145553  12.703   5.762   5.578
 3486POPC   GL245554  13.061   5.647   5.651
 3486POPC   C1A45555  12.785   5.984   5.984
 3486POPC   D2A45556  12.930   5.899   6.423
 3486POPC   C3A45557  12.914   6.043   6.854
 3486POPC   C4A45558  12.842   5.814   7.240
 3486POPC   C1B45559  13.062   5.513   6.102
 3486POPC   C2B45560  13.293   5.519   6.487
 3486POPC   C3B45561  13.092   5.563   6.860
 3486POPC   C4B45562  13.227   5.493   7.235
 3487POPC   NC345563  20.111  37.974   5.488
 3487POPC   PO445564  19.577  37.477   5.550
 3487POPC   GL145565  19.737  37.644   5.887
 3487POPC   GL245566  20.100  37.613   5.862
 3487POPC   C1A45567  19.625  37.708   6.308
 3487POPC   D2A45568  19.782  37.927   6.654
 3487POPC   C3A45569  19.643  37.708   7.016
 3487POPC   C4A45570  19.660  37.848   7.413
 3487POPC   C1B45571  20.118  37.875   6.206
 3487POPC   C2B45572  20.300  37.718   6.564
 3487POPC   C3B45573  20.175  37.762   6.971
 3487POPC   C4B45574  20.363  37.582   7.307
 3488POPC   NC345575   2.614  28.018   5.415
 3488POPC   PO445576   3.161  28.283   5.360
 3488POPC   GL145577   2.876  28.422   5.712
 3488POPC   GL245578   2.863  28.800   5.633
 3488POPC   C1A45579   2.760  28.358   6.182
 3488POPC   D2A45580   2.951  28.271   6.596
 3488POPC   C3A45581   2.764  28.274   7.014
 3488POPC   C4A45582   2.900  28.157   7.423
 3488POPC   C1B45583   2.959  28.821   6.068
 3488POPC   C2B45584   2.846  28.805   6.508
 3488POPC   C3B45585   2.963  28.850   6.931
 3488POPC   C4B45586   2.865  28.665   7.326
 3489POPC   NC345587  33.435  34.714   5.562
 3489POPC   PO445588  32.785  34.472   5.465
 3489POPC   GL145589  32.944  34.659   5.824
 3489POPC   GL245590  33.265  34.549   6.001
 3489POPC   C1A45591  32.891  34.817   6.217
 3489POPC   D2A45592  33.073  34.819   6.614
 3489POPC   C3A45593  32.716  34.774   6.875
 3489POPC   C4A45594  32.638  34.629   7.268
 3489POPC   C1B45595  33.012  34.330   6.334
 3489POPC   C2B45596  32.984  34.336   6.794
 3489POPC   C3B45597  33.152  34.577   7.168
 3489POPC   C4B45598  33.501  34.882   7.278
 3490POPC   NC345599   2.263  14.979   5.415
 3490POPC   PO445600   1.775  15.399   5.600
 3490POPC   GL145601   2.008  15.154   5.847
 3490POPC   GL245602   2.382  15.222   5.850
 3490POPC   C1A45603   1.892  15.118   6.260
 3490POPC   D2A45604   1.773  15.374   6.575
 3490POPC   C3A45605   1.823  15.156   6.994
 3490POPC   C4A45606   1.895  15.257   7.426
 3490POPC   C1B45607   2.400  15.051   6.283
 3490POPC   C2B45608   2.228  15.135   6.705
 3490POPC   C3B45609   2.316  15.290   7.146
 3490POPC   C4B45610   2.356  15.095   7.582
 3491POPC   NC345611   2.268   5.476   5.471
 3491POPC   PO445612   1.865   4.969   5.343
 3491POPC   GL145613   2.068   5.029   5.730
 3491POPC   GL245614   1.940   5.310   5.825
 3491POPC   C1A45615   2.167   5.033   6.186
 3491POPC   D2A45616   1.995   5.281   6.538
 3491POPC   C3A45617   2.036   5.057   6.928
 3491POPC   C4A45618   1.868   5.024   7.332
 3491POPC   C1B45619   2.228   5.531   6.136
 3491POPC   C2B45620   2.453   5.539   6.546
 3491POPC   C3B45621   2.229   5.572   6.920
 3491POPC   C4B45622   2.197   5.399   7.294
 3492POPC   NC345623  32.968   0.191   5.488
 3492POPC   PO445624  33.211   0.780   5.567
 3492POPC   GL145625  32.887   0.568   5.863
 3492POPC   GL245626  32.667   0.264   5.879
 3492POPC   C1A45627  32.916   0.443   6.319
 3492POPC   D2A45628  33.278   0.381   6.606
 3492POPC   C3A45629  33.234   0.670   6.952
 3492POPC   C4A45630  33.175   0.811   7.339
 3492POPC   C1B45631  32.976  44.981   6.149
 3492POPC   C2B45632  32.926  44.972   6.583
 3492POPC   C3B45633  32.827   0.320   6.854
 3492POPC   C4B45634  32.938   0.366   7.294
 3493POPC   NC345635  31.805  44.111   5.187
 3493POPC   PO445636  32.399  43.893   5.449
 3493POPC   GL145637  32.252  43.921   5.844
 3493POPC   GL245638  32.387  43.611   5.903
 3493POPC   C1A45639  32.305  44.123   6.235
 3493POPC   D2A45640  32.550  44.064   6.596
 3493POPC   C3A45641  32.263  44.082   6.955
 3493POPC   C4A45642  32.080  43.754   7.179
 3493POPC   C1B45643  32.642  43.709   6.193
 3493POPC   C2B45644  32.541  43.494   6.535
 3493POPC   C3B45645  32.520  43.648   6.923
 3493POPC   C4B45646  32.552  43.592   7.337
 3494POPC   NC345647  18.919  19.987   5.417
 3494POPC   PO445648  19.216  19.422   5.636
 3494POPC   GL145649  18.983  19.677   5.859
 3494POPC   GL245650  19.146  20.024   5.863
 3494POPC   C1A45651  18.915  19.790   6.279
 3494POPC   D2A45652  19.238  19.816   6.584
 3494POPC   C3A45653  19.234  19.485   6.849
 3494POPC   C4A45654  19.217  19.542   7.264
 3494POPC   C1B45655  19.172  20.228   6.266
 3494POPC   C2B45656  18.860  20.154   6.640
 3494POPC   C3B45657  18.908  19.885   7.022
 3494POPC   C4B45658  19.129  20.004   7.435
 3495POPC   NC345659  10.303  11.735   5.505
 3495POPC   PO445660  10.913  12.218   5.370
 3495POPC   GL145661  10.760  11.973   5.747
 3495POPC   GL245662  10.408  12.023   5.915
 3495POPC   C1A45663  10.841  11.844   6.188
 3495POPC   D2A45664  10.598  12.145   6.459
 3495POPC   C3A45665  10.646  12.220   6.872
 3495POPC   C4A45666  10.406  12.176   7.260
 3495POPC   C1B45667  10.354  11.752   6.260
 3495POPC   C2B45668  10.581  11.660   6.638
 3495POPC   C3B45669  10.463  11.751   7.007
 3495POPC   C4B45670  10.498  11.695   7.429
 3496POPC   NC345671   6.288  43.181   5.545
 3496POPC   PO445672   5.672  43.395   5.450
 3496POPC   GL145673   5.807  43.078   5.723
 3496POPC   GL245674   5.498  43.149   5.896
 3496POPC   C1A45675   5.991  43.028   6.133
 3496POPC   D2A45676   6.049  43.175   6.538
 3496POPC   C3A45677   6.093  42.923   6.897
 3496POPC   C4A45678   5.958  43.169   7.223
 3496POPC   C1B45679   5.494  42.802   6.127
 3496POPC   C2B45680   5.681  42.787   6.529
 3496POPC   C3B45681   5.553  42.964   6.929
 3496POPC   C4B45682   5.465  43.123   7.353
 3497POPC   NC345683  18.119  30.521   5.226
 3497POPC   PO445684  18.497  30.917   5.543
 3497POPC   GL145685  18.326  30.744   5.920
 3497POPC   GL245686  18.131  30.459   5.771
 3497POPC   C1A45687  18.585  30.644   6.302
 3497POPC   D2A45688  18.550  30.687   6.738
 3497POPC   C3A45689  18.266  30.948   6.937
 3497POPC   C4A45690  18.263  30.797   7.328
 3497POPC   C1B45691  18.232  30.288   6.190
 3497POPC   C2B45692  18.161  30.282   6.654
 3497POPC   C3B45693  18.348  30.341   7.094
 3497POPC   C4B45694  18.197  30.356   7.557
 3498POPC   NC345695  17.060  42.350   5.437
 3498POPC   PO445696  16.436  42.588   5.668
 3498POPC   GL145697  16.815  42.447   5.926
 3498POPC   GL245698  16.952  42.147   5.912
 3498POPC   C1A45699  16.980  42.299   6.370
 3498POPC   D2A45700  16.756  42.113   6.679
 3498POPC   C3A45701  16.748  42.329   7.051
 3498POPC   C4A45702  17.054  42.639   7.155
 3498POPC   C1B45703  16.527  42.134   6.217
 3498POPC   C2B45704  16.270  42.003   6.610
 3498POPC   C3B45705  16.391  41.954   7.036
 3498POPC   C4B45706  16.368  42.192   7.409
 3499POPC   NC345707  40.430  25.443   5.230
 3499POPC   PO445708  40.877  24.977   5.380
 3499POPC   GL145709  40.815  25.210   5.783
 3499POPC   GL245710  40.570  25.500   5.756
 3499POPC   C1A45711  40.922  25.111   6.212
 3499POPC   D2A45712  40.993  25.405   6.541
 3499POPC   C3A45713  40.941  25.243   6.941
 3499POPC   C4A45714  40.927  25.449   7.322
 3499POPC   C1B45715  40.567  25.499   6.230
 3499POPC   C2B45716  40.509  25.295   6.648
 3499POPC   C3B45717  40.435  25.331   7.102
 3499POPC   C4B45718  40.469  25.233   7.564
 3500POPC   NC345719  38.046  24.577   5.192
 3500POPC   PO445720  37.586  24.807   5.595
 3500POPC   GL145721  37.785  24.512   5.843
 3500POPC   GL245722  37.585  24.254   5.986
 3500POPC   C1A45723  37.766  24.661   6.265
 3500POPC   D2A45724  37.879  24.591   6.664
 3500POPC   C3A45725  37.663  24.782   6.990
 3500POPC   C4A45726  37.959  24.666   7.280
 3500POPC   C1B45727  37.381  24.175   6.378
 3500POPC   C2B45728  37.477  24.281   6.749
 3500POPC   C3B45729  37.738  24.251   7.034
 3500POPC   C4B45730  37.471  24.431   7.326
 3501POPC   NC345731  28.356   4.458   5.379
 3501POPC   PO445732  28.114   3.789   5.358
 3501POPC   GL145733  28.286   4.101   5.743
 3501POPC   GL245734  28.186   4.459   5.862
 3501POPC   C1A45735  28.532   4.208   6.151
 3501POPC   D2A45736  28.670   3.989   6.547
 3501POPC   C3A45737  28.467   4.048   6.934
 3501POPC   C4A45738  28.426   4.397   7.199
 3501POPC   C1B45739  28.159   4.543   6.310
 3501POPC   C2B45740  28.128   4.438   6.758
 3501POPC   C3B45741  28.034   4.684   7.131
 3501POPC   C4B45742  28.098   4.543   7.578
 3502POPC   NC345743   8.341  33.183   5.389
 3502POPC   PO445744   8.009  32.569   5.396
 3502POPC   GL145745   8.137  32.763   5.794
 3502POPC   GL245746   8.406  32.984   5.848
 3502POPC   C1A45747   8.164  32.755   6.255
 3502POPC   D2A45748   8.225  32.558   6.662
 3502POPC   C3A45749   8.007  32.847   6.892
 3502POPC   C4A45750   7.787  32.855   7.261
 3502POPC   C1B45751   8.535  33.164   6.214
 3502POPC   C2B45752   8.487  33.010   6.625
 3502POPC   C3B45753   8.503  32.866   7.030
 3502POPC   C4B45754   8.268  32.941   7.381
 3503POPC   NC345755  27.141  28.599   5.442
 3503POPC   PO445756  27.558  28.080   5.259
 3503POPC   GL145757  27.667  28.374   5.729
 3503POPC   GL245758  27.391  28.595   5.906
 3503POPC   C1A45759  27.678  28.244   6.200
 3503POPC   D2A45760  27.508  28.378   6.608
 3503POPC   C3A45761  27.679  28.282   7.005
 3503POPC   C4A45762  27.578  28.505   7.350
 3503POPC   C1B45763  27.120  28.707   6.257
 3503POPC   C2B45764  27.083  28.664   6.708
 3503POPC   C3B45765  27.270  28.826   7.116
 3503POPC   C4B45766  27.255  28.870   7.588
 3504POPC   NC345767  44.936  14.495   5.351
 3504POPC   PO445768   0.517  14.139   5.493
 3504POPC   GL145769   0.386  14.393   5.805
 3504POPC   GL245770   0.062  14.282   5.809
 3504POPC   C1A45771   0.560  14.487   6.214
 3504POPC   D2A45772   0.388  14.291   6.577
 3504POPC   C3A45773   0.557  14.365   7.003
 3504POPC   C4A45774   0.817  14.161   7.333
 3504POPC   C1B45775   0.076  14.668   6.103
 3504POPC   C2B45776   0.090  14.740   6.559
 3504POPC   C3B45777  44.992  14.421   6.877
 3504POPC   C4B45778   0.107  14.353   7.288
 3505POPC   NC345779  35.308  36.835   5.437
 3505POPC   PO445780  34.929  36.437   5.833
 3505POPC   GL145781  35.144  36.827   5.955
 3505POPC   GL245782  35.503  36.935   5.911
 3505POPC   C1A45783  35.256  36.768   6.379
 3505POPC   D2A45784  35.080  36.551   6.705
 3505POPC   C3A45785  35.222  36.744   7.059
 3505POPC   C4A45786  34.965  37.099   7.188
 3505POPC   C1B45787  35.682  37.033   6.334
 3505POPC   C2B45788  35.595  37.048   6.793
 3505POPC   C3B45789  35.626  36.986   7.252
 3505POPC   C4B45790  35.604  36.799   7.670
 3506POPC   NC345791   9.577  42.687   5.221
 3506POPC   PO445792  10.063  42.211   5.371
 3506POPC   GL145793   9.669  42.251   5.665
 3506POPC   GL245794   9.540  42.551   5.794
 3506POPC   C1A45795   9.629  42.114   6.129
 3506POPC   D2A45796   9.913  42.024   6.518
 3506POPC   C3A45797   9.833  42.277   6.893
 3506POPC   C4A45798  10.153  42.545   7.064
 3506POPC   C1B45799   9.241  42.490   6.168
 3506POPC   C2B45800   9.224  42.541   6.632
 3506POPC   C3B45801   9.521  42.749   6.924
 3506POPC   C4B45802   9.694  42.596   7.287
 3507POPC   NC345803  33.410  13.611   5.651
 3507POPC   PO445804  33.012  13.387   5.124
 3507POPC   GL145805  32.919  13.573   5.596
 3507POPC   GL245806  32.771  13.287   5.777
 3507POPC   C1A45807  32.858  13.756   6.049
 3507POPC   D2A45808  32.973  13.873   6.513
 3507POPC   C3A45809  32.706  13.844   6.899
 3507POPC   C4A45810  32.904  13.817   7.287
 3507POPC   C1B45811  33.038  13.288   6.184
 3507POPC   C2B45812  33.347  13.489   6.514
 3507POPC   C3B45813  33.272  13.601   6.953
 3507POPC   C4B45814  33.093  13.319   7.254
 3508POPC   NC345815   3.652  34.281   5.475
 3508POPC   PO445816   3.390  34.916   5.452
 3508POPC   GL145817   3.410  34.722   5.825
 3508POPC   GL245818   3.741  34.695   5.801
 3508POPC   C1A45819   3.522  34.747   6.270
 3508POPC   D2A45820   3.441  34.802   6.700
 3508POPC   C3A45821   3.321  34.451   6.936
 3508POPC   C4A45822   3.461  34.482   7.386
 3508POPC   C1B45823   3.875  34.413   6.117
 3508POPC   C2B45824   3.805  34.365   6.534
 3508POPC   C3B45825   3.829  34.516   6.941
 3508POPC   C4B45826   3.937  34.283   7.282
 3509POPC   NC345827  25.488  25.218   5.316
 3509POPC   PO445828  26.114  25.138   5.413
 3509POPC   GL145829  26.133  25.187   5.843
 3509POPC   GL245830  26.160  24.830   5.865
 3509POPC   C1A45831  25.954  25.403   6.200
 3509POPC   D2A45832  26.108  25.693   6.500
 3509POPC   C3A45833  25.976  25.687   6.918
 3509POPC   C4A45834  26.215  25.526   7.252
 3509POPC   C1B45835  26.139  24.931   6.297
 3509POPC   C2B45836  25.833  25.051   6.602
 3509POPC   C3B45837  25.845  24.865   7.011
 3509POPC   C4B45838  26.228  24.688   7.185
 3510POPC   NC345839   0.980  44.955   5.386
 3510POPC   PO445840   1.129  44.361   5.557
 3510POPC   GL145841   1.166  44.719   5.830
 3510POPC   GL245842   0.933  44.993   5.901
 3510POPC   C1A45843   1.283  44.625   6.245
 3510POPC   D2A45844   1.359  44.307   6.542
 3510POPC   C3A45845   1.385  44.507   6.904
 3510POPC   C4A45846   1.231  44.462   7.292
 3510POPC   C1B45847   0.929  44.995   6.335
 3510POPC   C2B45848   1.173  44.937   6.674
 3510POPC   C3B45849   0.974  44.806   7.019
 3510POPC   C4B45850   0.690  44.970   7.270
 3511POPC   NC345851  10.891  37.525   5.377
 3511POPC   PO445852  10.241  37.384   5.529
 3511POPC   GL145853  10.517  37.698   5.768
 3511POPC   GL245854  10.910  37.704   5.848
 3511POPC   C1A45855  10.552  37.803   6.218
 3511POPC   D2A45856  10.418  37.852   6.654
 3511POPC   C3A45857  10.221  37.526   6.931
 3511POPC   C4A45858  10.209  37.603   7.402
 3511POPC   C1B45859  10.948  37.479   6.270
 3511POPC   C2B45860  10.889  37.679   6.711
 3511POPC   C3B45861  10.651  37.767   7.128
 3511POPC   C4B45862  10.691  37.746   7.601
 3512POPC   NC345863  11.520  16.552   5.487
 3512POPC   PO445864  11.136  17.076   5.242
 3512POPC   GL145865  11.162  16.876   5.722
 3512POPC   GL245866  11.514  16.808   5.912
 3512POPC   C1A45867  11.113  16.721   6.197
 3512POPC   D2A45868  11.323  16.759   6.624
 3512POPC   C3A45869  11.153  16.723   7.062
 3512POPC   C4A45870  10.922  17.034   7.280
 3512POPC   C1B45871  11.727  16.563   6.240
 3512POPC   C2B45872  11.806  16.617   6.676
 3512POPC   C3B45873  11.666  16.813   7.027
 3512POPC   C4B45874  11.582  16.547   7.334
 3513POPC   NC345875  36.634  37.352   5.493
 3513POPC   PO445876  36.921  36.745   5.337
 3513POPC   GL145877  37.106  36.802   5.735
 3513POPC   GL245878  36.970  37.127   5.796
 3513POPC   C1A45879  37.200  36.626   6.143
 3513POPC   D2A45880  37.101  36.812   6.547
 3513POPC   C3A45881  36.896  36.623   6.917
 3513POPC   C4A45882  37.055  36.782   7.275
 3513POPC   C1B45883  36.902  37.412   6.138
 3513POPC   C2B45884  36.831  37.262   6.529
 3513POPC   C3B45885  37.058  37.188   6.894
 3513POPC   C4B45886  36.945  37.328   7.266
 3514POPC   NC345887  28.616  29.105   5.456
 3514POPC   PO445888  28.153  29.552   5.276
 3514POPC   GL145889  28.309  29.367   5.755
 3514POPC   GL245890  27.984  29.338   5.948
 3514POPC   C1A45891  28.474  29.078   6.116
 3514POPC   D2A45892  28.556  28.733   6.438
 3514POPC   C3A45893  28.368  28.799   6.865
 3514POPC   C4A45894  28.493  28.999   7.258
 3514POPC   C1B45895  28.014  29.118   6.334
 3514POPC   C2B45896  28.299  29.243   6.632
 3514POPC   C3B45897  28.227  29.391   7.043
 3514POPC   C4B45898  28.027  29.314   7.438
 3515POPC   NC345899  18.477  40.011   5.544
 3515POPC   PO445900  17.963  40.426   5.397
 3515POPC   GL145901  18.060  40.226   5.800
 3515POPC   GL245902  17.822  40.079   5.975
 3515POPC   C1A45903  18.321  40.015   6.181
 3515POPC   D2A45904  18.616  40.190   6.494
 3515POPC   C3A45905  18.582  39.966   6.895
 3515POPC   C4A45906  18.297  39.739   7.176
 3515POPC   C1B45907  17.877  40.068   6.429
 3515POPC   C2B45908  18.118  40.201   6.796
 3515POPC   C3B45909  18.065  40.222   7.211
 3515POPC   C4B45910  18.195  40.059   7.596
 3516POPC   NC345911   4.018  25.244   5.388
 3516POPC   PO445912   4.524  25.701   5.439
 3516POPC   GL145913   4.388  25.692   5.836
 3516POPC   GL245914   4.067  25.597   5.801
 3516POPC   C1A45915   4.515  25.498   6.228
 3516POPC   D2A45916   4.532  25.534   6.673
 3516POPC   C3A45917   4.513  25.142   6.911
 3516POPC   C4A45918   4.435  25.285   7.306
 3516POPC   C1B45919   4.059  25.275   6.091
 3516POPC   C2B45920   4.104  25.274   6.541
 3516POPC   C3B45921   4.049  25.345   6.990
 3516POPC   C4B45922   3.980  25.014   7.299
 3517POPC   NC345923  18.218   9.284   5.293
 3517POPC   PO445924  18.109   8.632   5.319
 3517POPC   GL145925  18.094   8.784   5.766
 3517POPC   GL245926  18.086   9.155   5.779
 3517POPC   C1A45927  18.281   8.886   6.189
 3517POPC   D2A45928  18.188   8.708   6.586
 3517POPC   C3A45929  18.536   8.685   6.859
 3517POPC   C4A45930  18.439   8.859   7.249
 3517POPC   C1B45931  18.030   9.342   6.190
 3517POPC   C2B45932  17.968   9.183   6.603
 3517POPC   C3B45933  18.164   9.243   7.005
 3517POPC   C4B45934  18.094   9.557   7.291
 3518POPC   NC345935  33.952  39.853   5.411
 3518POPC   PO445936  33.595  40.458   5.433
 3518POPC   GL145937  33.692  40.113   5.764
 3518POPC   GL245938  33.477  39.801   5.838
 3518POPC   C1A45939  33.913  39.864   6.115
 3518POPC   D2A45940  33.755  39.800   6.546
 3518POPC   C3A45941  33.925  39.966   6.935
 3518POPC   C4A45942  33.700  39.782   7.281
 3518POPC   C1B45943  33.465  40.084   6.227
 3518POPC   C2B45944  33.259  40.101   6.607
 3518POPC   C3B45945  33.449  40.101   6.977
 3518POPC   C4B45946  33.415  40.322   7.348
 3519POPC   NC345947  27.991  43.139   5.505
 3519POPC   PO445948  28.522  42.816   5.602
 3519POPC   GL145949  28.301  43.070   5.903
 3519POPC   GL245950  28.041  43.359   5.943
 3519POPC   C1A45951  28.323  43.103   6.319
 3519POPC   D2A45952  28.267  43.286   6.701
 3519POPC   C3A45953  28.356  43.052   7.070
 3519POPC   C4A45954  28.386  43.087   7.546
 3519POPC   C1B45955  27.859  43.322   6.350
 3519POPC   C2B45956  27.807  43.492   6.742
 3519POPC   C3B45957  28.002  43.402   7.131
 3519POPC   C4B45958  27.973  43.379   7.554
 3520POPC   NC345959  22.634  19.235   5.018
 3520POPC   PO445960  23.148  18.826   5.309
 3520POPC   GL145961  22.937  18.902   5.711
 3520POPC   GL245962  22.821  19.270   5.741
 3520POPC   C1A45963  23.057  18.712   6.120
 3520POPC   D2A45964  23.007  18.854   6.541
 3520POPC   C3A45965  23.050  18.603   6.914
 3520POPC   C4A45966  23.089  18.677   7.326
 3520POPC   C1B45967  22.677  19.065   6.143
 3520POPC   C2B45968  22.547  19.140   6.557
 3520POPC   C3B45969  22.754  19.071   6.960
 3520POPC   C4B45970  22.691  19.196   7.379
 3521POPC   NC345971  38.297  40.060   5.520
 3521POPC   PO445972  38.872  40.068   5.094
 3521POPC   GL145973  38.810  40.096   5.610
 3521POPC   GL245974  38.788  39.728   5.743
 3521POPC   C1A45975  38.705  40.084   6.095
 3521POPC   D2A45976  38.381  40.139   6.451
 3521POPC   C3A45977  38.507  39.963   6.871
 3521POPC   C4A45978  38.346  40.062   7.308
 3521POPC   C1B45979  38.609  39.589   6.181
 3521POPC   C2B45980  38.495  39.468   6.603
 3521POPC   C3B45981  38.191  39.579   6.889
 3521POPC   C4B45982  38.411  39.570   7.275
 3522POPC   NC345983  30.453  33.681   5.545
 3522POPC   PO445984  30.984  34.155   5.413
 3522POPC   GL145985  30.784  33.985   5.801
 3522POPC   GL245986  30.849  33.625   5.873
 3522POPC   C1A45987  30.585  33.900   6.226
 3522POPC   D2A45988  30.690  33.551   6.511
 3522POPC   C3A45989  30.610  33.722   6.929
 3522POPC   C4A45990  30.472  33.508   7.299
 3522POPC   C1B45991  31.088  33.847   6.185
 3522POPC   C2B45992  30.987  33.946   6.591
 3522POPC   C3B45993  31.139  33.791   6.958
 3522POPC   C4B45994  30.947  33.679   7.336
 3523POPC   NC345995  19.388  21.877   5.574
 3523POPC   PO445996  19.014  21.332   5.327
 3523POPC   GL145997  18.979  21.223   5.771
 3523POPC   GL245998  19.250  21.458   5.861
 3523POPC   C1A45999  18.882  21.346   6.221
 3523POPC   D2A46000  18.992  21.131   6.631
 3523POPC   C3A46001  18.829  21.235   7.033
 3523POPC   C4A46002  18.765  21.611   7.236
 3523POPC   C1B46003  19.387  21.328   6.285
 3523POPC   C2B46004  19.361  21.461   6.736
 3523POPC   C3B46005  19.396  21.278   7.155
 3523POPC   C4B46006  19.593  21.403   7.570
 3524POPC   NC346007  24.142   3.316   5.518
 3524POPC   PO446008  23.581   3.723   5.590
 3524POPC   GL146009  23.768   3.421   5.858
 3524POPC   GL246010  24.102   3.406   6.022
 3524POPC   C1A46011  23.636   3.328   6.261
 3524POPC   D2A46012  23.669   3.406   6.681
 3524POPC   C3A46013  23.356   3.614   6.940
 3524POPC   C4A46014  23.381   3.433   7.367
 3524POPC   C1B46015  23.944   3.750   6.298
 3524POPC   C2B46016  23.733   3.900   6.691
 3524POPC   C3B46017  23.840   3.663   7.107
 3524POPC   C4B46018  23.762   3.726   7.562
 3525POPC   NC346019  27.524  42.339   5.421
 3525POPC   PO446020  27.109  42.970   5.529
 3525POPC   GL146021  27.436  42.673   5.785
 3525POPC   GL246022  27.253  42.432   5.910
 3525POPC   C1A46023  27.630  42.473   6.228
 3525POPC   D2A46024  27.546  42.299   6.650
 3525POPC   C3A46025  27.726  42.318   7.057
 3525POPC   C4A46026  27.969  42.428   7.377
 3525POPC   C1B46027  27.234  42.827   6.205
 3525POPC   C2B46028  27.449  42.888   6.586
 3525POPC   C3B46029  27.367  42.660   6.969
 3525POPC   C4B46030  27.225  42.203   7.073
 3526POPC   NC346031   6.849  15.134   5.525
 3526POPC   PO446032   6.212  15.390   5.465
 3526POPC   GL146033   6.432  15.243   5.815
 3526POPC   GL246034   6.485  14.886   5.822
 3526POPC   C1A46035   6.511  15.261   6.245
 3526POPC   D2A46036   6.836  15.366   6.537
 3526POPC   C3A46037   6.668  15.334   6.947
 3526POPC   C4A46038   6.842  15.250   7.324
 3526POPC   C1B46039   6.677  14.760   6.226
 3526POPC   C2B46040   6.601  14.909   6.644
 3526POPC   C3B46041   6.734  14.819   7.067
 3526POPC   C4B46042   6.517  14.883   7.497
 3527POPC   NC346043  41.005  23.258   5.413
 3527POPC   PO446044  40.593  22.754   5.439
 3527POPC   GL146045  40.664  23.057   5.756
 3527POPC   GL246046  40.983  22.995   5.870
 3527POPC   C1A46047  40.571  23.094   6.203
 3527POPC   D2A46048  40.591  22.790   6.577
 3527POPC   C3A46049  40.755  22.859   6.980
 3527POPC   C4A46050  40.570  23.005   7.360
 3527POPC   C1B46051  41.021  22.855   6.314
 3527POPC   C2B46052  41.133  23.066   6.721
 3527POPC   C3B46053  41.221  23.003   7.186
 3527POPC   C4B46054  41.508  22.891   7.545
 3528POPC   NC346055  38.183  13.911   5.430
 3528POPC   PO446056  38.745  13.649   5.474
 3528POPC   GL146057  38.439  13.631   5.855
 3528POPC   GL246058  38.087  13.761   5.895
 3528POPC   C1A46059  38.260  13.410   6.234
 3528POPC   D2A46060  38.211  13.115   6.607
 3528POPC   C3A46061  38.200  13.328   6.993
 3528POPC   C4A46062  38.420  13.685   7.149
 3528POPC   C1B46063  38.144  13.920   6.316
 3528POPC   C2B46064  38.147  13.942   6.769
 3528POPC   C3B46065  38.043  14.009   7.197
 3528POPC   C4B46066  38.333  14.003   7.545
 3529POPC   NC346067   8.783  28.969   5.356
 3529POPC   PO446068   9.277  29.370   5.406
 3529POPC   GL146069   9.066  29.265   5.792
 3529POPC   GL246070   9.086  28.942   5.848
 3529POPC   C1A46071   9.017  29.430   6.192
 3529POPC   D2A46072   9.145  29.122   6.495
 3529POPC   C3A46073   8.948  29.197   6.864
 3529POPC   C4A46074   9.060  29.156   7.276
 3529POPC   C1B46075   8.772  28.978   6.198
 3529POPC   C2B46076   8.447  29.209   6.425
 3529POPC   C3B46077   8.459  29.383   6.850
 3529POPC   C4B46078   8.568  29.130   7.235
 3530POPC   NC346079   9.378   2.208   5.363
 3530POPC   PO446080   8.766   2.027   5.379
 3530POPC   GL146081   8.848   2.108   5.780
 3530POPC   GL246082   8.980   1.782   5.886
 3530POPC   C1A46083   8.675   2.058   6.201
 3530POPC   D2A46084   8.697   1.867   6.607
 3530POPC   C3A46085   8.712   2.214   6.881
 3530POPC   C4A46086   8.875   2.336   7.262
 3530POPC   C1B46087   9.224   2.098   6.128
 3530POPC   C2B46088   9.161   2.222   6.554
 3530POPC   C3B46089   9.279   2.185   6.974
 3530POPC   C4B46090   9.386   2.416   7.317
 3531POPC   NC346091  30.251  11.636   5.163
 3531POPC   PO446092  29.703  11.232   5.299
 3531POPC   GL146093  29.985  11.297   5.717
 3531POPC   GL246094  30.109  11.629   5.870
 3531POPC   C1A46095  30.163  11.097   6.116
 3531POPC   D2A46096  29.947  11.036   6.528
 3531POPC   C3A46097  30.190  10.895   6.870
 3531POPC   C4A46098  30.243  11.115   7.233
 3531POPC   C1B46099  29.992  11.516   6.346
 3531POPC   C2B46100  30.035  11.442   6.830
 3531POPC   C3B46101  29.772  11.549   7.166
 3531POPC   C4B46102  29.491  11.931   7.132
 3532POPC   NC346103  20.956   2.839   5.584
 3532POPC   PO446104  21.647   2.701   5.604
 3532POPC   GL146105  21.350   2.599   5.886
 3532POPC   GL246106  21.181   2.898   6.029
 3532POPC   C1A46107  21.473   2.571   6.317
 3532POPC   D2A46108  21.446   2.865   6.643
 3532POPC   C3A46109  21.550   2.739   7.046
 3532POPC   C4A46110  21.602   2.882   7.449
 3532POPC   C1B46111  20.940   2.562   6.190
 3532POPC   C2B46112  21.051   2.412   6.578
 3532POPC   C3B46113  21.051   2.576   6.972
 3532POPC   C4B46114  21.132   2.645   7.401
 3533POPC   NC346115  32.111   6.187   5.277
 3533POPC   PO446116  31.861   5.636   5.312
 3533POPC   GL146117  32.183   5.715   5.652
 3533POPC   GL246118  32.332   6.062   5.718
 3533POPC   C1A46119  32.348   5.701   6.100
 3533POPC   D2A46120  32.430   5.865   6.521
 3533POPC   C3A46121  32.305   5.717   6.937
 3533POPC   C4A46122  32.234   5.715   7.389
 3533POPC   C1B46123  32.428   6.227   6.119
 3533POPC   C2B46124  32.460   6.377   6.516
 3533POPC   C3B46125  32.561   6.211   6.894
 3533POPC   C4B46126  32.304   6.210   7.216
 3534POPC   NC346127  35.805  14.124   5.127
 3534POPC   PO446128  36.304  14.004   5.608
 3534POPC   GL146129  36.187  14.360   5.834
 3534POPC   GL246130  35.983  14.640   5.654
 3534POPC   C1A46131  36.066  14.251   6.242
 3534POPC   D2A46132  36.279  14.177   6.614
 3534POPC   C3A46133  36.023  14.285   6.939
 3534POPC   C4A46134  36.089  14.174   7.357
 3534POPC   C1B46135  35.889  14.731   6.096
 3534POPC   C2B46136  36.102  14.743   6.512
 3534POPC   C3B46137  35.911  14.801   6.921
 3534POPC   C4B46138  36.130  14.684   7.306
 3535POPC   NC346139  43.340  42.718   5.585
 3535POPC   PO446140  43.750  43.178   5.261
 3535POPC   GL146141  44.054  43.092   5.641
 3535POPC   GL246142  43.892  43.245   5.904
 3535POPC   C1A46143  44.343  43.103   6.065
 3535POPC   D2A46144  44.148  43.039   6.481
 3535POPC   C3A46145  44.285  43.050   6.918
 3535POPC   C4A46146  44.062  42.718   7.149
 3535POPC   C1B46147  44.070  43.536   6.217
 3535POPC   C2B46148  44.170  43.725   6.610
 3535POPC   C3B46149  44.078  43.578   7.013
 3535POPC   C4B46150  43.959  43.215   7.289
 3536POPC   NC346151  23.146  25.146   5.348
 3536POPC   PO446152  22.843  25.718   5.302
 3536POPC   GL146153  23.111  25.606   5.730
 3536POPC   GL246154  23.102  25.210   5.846
 3536POPC   C1A46155  23.128  25.531   6.212
 3536POPC   D2A46156  23.124  25.166   6.517
 3536POPC   C3A46157  23.068  25.228   6.971
 3536POPC   C4A46158  23.260  25.462   7.313
 3536POPC   C1B46159  22.786  24.995   6.149
 3536POPC   C2B46160  22.534  25.035   6.541
 3536POPC   C3B46161  22.571  25.005   7.015
 3536POPC   C4B46162  22.711  25.183   7.416
 3537POPC   NC346163  42.797  23.573   5.458
 3537POPC   PO446164  43.282  24.051   5.471
 3537POPC   GL146165  43.209  23.842   5.837
 3537POPC   GL246166  42.878  23.930   5.809
 3537POPC   C1A46167  43.352  23.520   6.158
 3537POPC   D2A46168  43.460  23.319   6.560
 3537POPC   C3A46169  43.403  23.615   6.878
 3537POPC   C4A46170  43.309  23.736   7.259
 3537POPC   C1B46171  42.860  23.713   6.201
 3537POPC   C2B46172  42.975  23.540   6.603
 3537POPC   C3B46173  42.859  23.596   7.044
 3537POPC   C4B46174  42.815  23.928   7.363
 3538POPC   NC346175  31.233  35.837   5.386
 3538POPC   PO446176  31.846  36.079   5.633
 3538POPC   GL146177  31.457  36.041   5.834
 3538POPC   GL246178  31.341  36.340   5.682
 3538POPC   C1A46179  31.399  35.982   6.273
 3538POPC   D2A46180  31.616  36.046   6.658
 3538POPC   C3A46181  31.405  35.898   7.013
 3538POPC   C4A46182  31.044  36.080   7.148
 3538POPC   C1B46183  31.329  36.465   6.144
 3538POPC   C2B46184  31.178  36.341   6.572
 3538POPC   C3B46185  31.356  36.438   6.970
 3538POPC   C4B46186  31.499  36.590   7.356
 3539POPC   NC346187  13.785  33.949   5.484
 3539POPC   PO446188  13.580  33.446   5.231
 3539POPC   GL146189  13.503  33.621   5.737
 3539POPC   GL246190  13.844  33.692   5.909
 3539POPC   C1A46191  13.448  33.857   6.195
 3539POPC   D2A46192  13.262  33.873   6.605
 3539POPC   C3A46193  13.315  34.117   6.963
 3539POPC   C4A46194  13.232  33.723   7.212
 3539POPC   C1B46195  13.952  33.866   6.324
 3539POPC   C2B46196  13.756  34.035   6.693
 3539POPC   C3B46197  13.721  33.856   7.112
 3539POPC   C4B46198  13.899  33.545   7.391
 3540POPC   NC346199  25.210  38.043   5.493
 3540POPC   PO446200  25.387  38.599   5.639
 3540POPC   GL146201  25.107  38.581   6.002
 3540POPC   GL246202  24.838  38.359   6.122
 3540POPC   C1A46203  25.247  38.578   6.435
 3540POPC   D2A46204  25.620  38.664   6.677
 3540POPC   C3A46205  25.518  38.663   7.099
 3540POPC   C4A46206  25.075  38.544   7.207
 3540POPC   C1B46207  25.218  38.101   6.202
 3540POPC   C2B46208  25.531  38.115   6.520
 3540POPC   C3B46209  25.385  38.217   6.897
 3540POPC   C4B46210  25.406  38.161   7.311
 3541POPC   NC346211  12.867   1.276   5.269
 3541POPC   PO446212  13.060   1.731   5.493
 3541POPC   GL146213  12.845   1.365   5.795
 3541POPC   GL246214  12.554   1.095   5.839
 3541POPC   C1A46215  12.804   1.239   6.274
 3541POPC   D2A46216  12.645   1.385   6.696
 3541POPC   C3A46217  12.870   1.304   7.085
 3541POPC   C4A46218  12.764   1.263   7.530
 3541POPC   C1B46219  12.585   0.771   6.224
 3541POPC   C2B46220  12.589   0.841   6.721
 3541POPC   C3B46221  12.654   0.852   7.206
 3541POPC   C4B46222  12.779   0.778   7.681
 3542POPC   NC346223  29.417  28.507   5.446
 3542POPC   PO446224  30.053  28.179   5.411
 3542POPC   GL146225  29.929  28.471   5.769
 3542POPC   GL246226  29.660  28.296   5.835
 3542POPC   C1A46227  29.899  28.443   6.257
 3542POPC   D2A46228  30.137  28.392   6.635
 3542POPC   C3A46229  29.830  28.530   6.903
 3542POPC   C4A46230  29.578  28.517   7.254
 3542POPC   C1B46231  29.461  28.180   6.209
 3542POPC   C2B46232  29.456  28.360   6.598
 3542POPC   C3B46233  29.509  28.099   6.960
 3542POPC   C4B46234  29.614  28.001   7.409
 3543POPC   NC346235  43.349  12.423   5.007
 3543POPC   PO446236  42.945  12.879   5.393
 3543POPC   GL146237  43.017  12.919   5.791
 3543POPC   GL246238  42.952  13.255   5.805
 3543POPC   C1A46239  43.100  12.715   6.161
 3543POPC   D2A46240  43.249  12.753   6.573
 3543POPC   C3A46241  43.115  12.531   6.917
 3543POPC   C4A46242  43.265  12.631   7.329
 3543POPC   C1B46243  43.127  13.224   6.227
 3543POPC   C2B46244  42.944  13.152   6.622
 3543POPC   C3B46245  43.147  13.064   7.021
 3543POPC   C4B46246  43.172  13.225   7.459
 3544POPC   NC346247  31.844  21.036   5.456
 3544POPC   PO446248  32.455  21.466   5.411
 3544POPC   GL146249  32.357  21.220   5.761
 3544POPC   GL246250  32.345  20.852   5.735
 3544POPC   C1A46251  32.251  21.406   6.169
 3544POPC   D2A46252  32.122  21.553   6.578
 3544POPC   C3A46253  32.458  21.456   6.850
 3544POPC   C4A46254  32.485  21.378   7.279
 3544POPC   C1B46255  32.213  20.901   6.167
 3544POPC   C2B46256  32.275  21.065   6.587
 3544POPC   C3B46257  32.128  21.114   7.039
 3544POPC   C4B46258  32.072  21.207   7.526
 3545POPC   NC346259  30.490  30.525   5.218
 3545POPC   PO446260  30.948  30.182   5.615
 3545POPC   GL146261  30.749  30.592   5.780
 3545POPC   GL246262  30.384  30.699   5.833
 3545POPC   C1A46263  30.767  30.860   6.132
 3545POPC   D2A46264  30.759  30.739   6.559
 3545POPC   C3A46265  31.029  30.829   6.862
 3545POPC   C4A46266  31.061  30.826   7.279
 3545POPC   C1B46267  30.424  30.493   6.266
 3545POPC   C2B46268  30.339  30.531   6.750
 3545POPC   C3B46269  30.551  30.685   7.148
 3545POPC   C4B46270  30.403  30.563   7.592
 3546POPC   NC346271  35.829  31.191   5.157
 3546POPC   PO446272  35.310  31.661   5.281
 3546POPC   GL146273  35.259  31.548   5.762
 3546POPC   GL246274  35.450  31.232   5.829
 3546POPC   C1A46275  35.198  31.321   6.232
 3546POPC   D2A46276  35.511  31.164   6.523
 3546POPC   C3A46277  35.324  31.217   6.904
 3546POPC   C4A46278  35.317  31.484   7.232
 3546POPC   C1B46279  35.645  31.532   6.169
 3546POPC   C2B46280  35.554  31.685   6.598
 3546POPC   C3B46281  35.741  31.590   6.995
 3546POPC   C4B46282  35.689  31.723   7.434
 3547POPC   NC346283  26.259  20.226   5.477
 3547POPC   PO446284  25.868  19.642   5.225
 3547POPC   GL146285  25.776  19.618   5.695
 3547POPC   GL246286  26.120  19.711   5.873
 3547POPC   C1A46287  25.727  19.553   6.153
 3547POPC   D2A46288  25.892  19.807   6.463
 3547POPC   C3A46289  26.020  19.653   6.847
 3547POPC   C4A46290  25.920  19.931   7.190
 3547POPC   C1B46291  26.275  19.484   6.277
 3547POPC   C2B46292  26.513  19.693   6.635
 3547POPC   C3B46293  26.396  20.019   6.923
 3547POPC   C4B46294  26.068  20.364   6.931
 3548POPC   NC346295  37.659  42.932   5.429
 3548POPC   PO446296  37.429  43.565   5.371
 3548POPC   GL146297  37.729  43.461   5.746
 3548POPC   GL246298  37.587  43.169   5.862
 3548POPC   C1A46299  37.866  43.368   6.217
 3548POPC   D2A46300  37.926  43.088   6.601
 3548POPC   C3A46301  37.848  43.297   6.958
 3548POPC   C4A46302  37.694  43.199   7.326
 3548POPC   C1B46303  37.738  42.853   6.158
 3548POPC   C2B46304  37.570  42.700   6.550
 3548POPC   C3B46305  37.453  42.855   6.946
 3548POPC   C4B46306  37.213  42.640   7.264
 3549POPC   NC346307  15.284  12.338   5.305
 3549POPC   PO446308  15.252  11.619   5.311
 3549POPC   GL146309  15.294  11.801   5.753
 3549POPC   GL246310  15.377  12.158   5.774
 3549POPC   C1A46311  15.079  11.792   6.158
 3549POPC   D2A46312  14.926  11.972   6.568
 3549POPC   C3A46313  15.091  11.862   7.004
 3549POPC   C4A46314  14.886  11.867   7.416
 3549POPC   C1B46315  15.106  12.309   6.152
 3549POPC   C2B46316  15.180  12.465   6.579
 3549POPC   C3B46317  15.013  12.383   6.977
 3549POPC   C4B46318  15.203  12.281   7.393
 3550POPC   NC346319   6.101  30.789   5.374
 3550POPC   PO446320   5.473  30.417   5.364
 3550POPC   GL146321   5.698  30.602   5.712
 3550POPC   GL246322   5.555  30.922   5.709
 3550POPC   C1A46323   5.865  30.537   6.138
 3550POPC   D2A46324   5.971  30.738   6.529
 3550POPC   C3A46325   5.728  30.560   6.833
 3550POPC   C4A46326   5.829  30.523   7.223
 3550POPC   C1B46327   5.673  31.004   6.153
 3550POPC   C2B46328   5.556  31.080   6.583
 3550POPC   C3B46329   5.719  31.058   6.991
 3550POPC   C4B46330   5.524  30.902   7.334
 3551POPC   NC346331   5.839  13.040   5.354
 3551POPC   PO446332   5.947  12.440   5.302
 3551POPC   GL146333   5.850  12.678   5.718
 3551POPC   GL246334   5.897  13.040   5.863
 3551POPC   C1A46335   5.828  12.643   6.170
 3551POPC   D2A46336   5.678  12.496   6.565
 3551POPC   C3A46337   5.888  12.596   6.961
 3551POPC   C4A46338   5.888  12.409   7.382
 3551POPC   C1B46339   5.582  13.095   6.211
 3551POPC   C2B46340   5.553  13.014   6.664
 3551POPC   C3B46341   5.477  12.898   7.091
 3551POPC   C4B46342   5.813  12.915   7.390
 3552POPC   NC346343  39.800  14.154   5.104
 3552POPC   PO446344  39.715  13.657   5.608
 3552POPC   GL146345  40.037  13.778   5.893
 3552POPC   GL246346  40.372  13.792   5.747
 3552POPC   C1A46347  39.999  13.710   6.332
 3552POPC   D2A46348  39.804  13.890   6.705
 3552POPC   C3A46349  39.956  13.575   6.971
 3552POPC   C4A46350  39.797  13.407   7.325
 3552POPC   C1B46351  40.459  13.512   6.126
 3552POPC   C2B46352  40.424  13.322   6.525
 3552POPC   C3B46353  40.566  13.417   6.912
 3552POPC   C4B46354  40.382  13.583   7.245
 3553POPC   NC346355  21.650  38.994   5.470
 3553POPC   PO446356  21.189  39.474   5.288
 3553POPC   GL146357  21.289  39.308   5.692
 3553POPC   GL246358  21.641  39.430   5.762
 3553POPC   C1A46359  21.180  39.343   6.138
 3553POPC   D2A46360  21.326  39.192   6.549
 3553POPC   C3A46361  21.199  39.355   6.942
 3553POPC   C4A46362  21.198  39.111   7.276
 3553POPC   C1B46363  21.823  39.170   6.118
 3553POPC   C2B46364  21.817  38.962   6.543
 3553POPC   C3B46365  21.690  39.145   6.951
 3553POPC   C4B46366  21.774  39.594   7.103
 3554POPC   NC346367  14.709  18.896   5.224
 3554POPC   PO446368  14.558  19.527   5.051
 3554POPC   GL146369  14.417  19.211   5.473
 3554POPC   GL246370  14.543  19.320   5.805
 3554POPC   C1A46371  14.269  18.917   5.911
 3554POPC   D2A46372  14.096  18.749   6.365
 3554POPC   C3A46373  14.388  18.827   6.739
 3554POPC   C4A46374  14.323  18.987   7.150
 3554POPC   C1B46375  14.817  19.278   6.156
 3554POPC   C2B46376  14.703  19.178   6.552
 3554POPC   C3B46377  14.785  19.210   6.986
 3554POPC   C4B46378  14.726  19.163   7.417
 3555POPC   NC346379   2.823  14.168   5.582
 3555POPC   PO446380   2.683  14.814   5.522
 3555POPC   GL146381   2.771  14.581   5.902
 3555POPC   GL246382   2.823  14.932   6.006
 3555POPC   C1A46383   2.850  14.224   6.246
 3555POPC   D2A46384   2.998  14.232   6.688
 3555POPC   C3A46385   2.733  14.391   7.020
 3555POPC   C4A46386   2.460  14.295   7.399
 3555POPC   C1B46387   2.791  14.709   6.399
 3555POPC   C2B46388   2.490  14.708   6.677
 3555POPC   C3B46389   2.625  14.925   6.985
 3555POPC   C4B46390   2.650  14.760   7.358
 3556POPC   NC346391  34.211  23.562   5.302
 3556POPC   PO446392  34.706  23.919   5.209
 3556POPC   GL146393  34.431  23.709   5.720
 3556POPC   GL246394  34.475  23.360   5.759
 3556POPC   C1A46395  34.647  23.593   6.199
 3556POPC   D2A46396  34.820  23.504   6.662
 3556POPC   C3A46397  34.786  23.752   7.080
 3556POPC   C4A46398  34.411  24.026   7.173
 3556POPC   C1B46399  34.181  23.406   6.090
 3556POPC   C2B46400  34.321  23.348   6.526
 3556POPC   C3B46401  34.363  23.530   6.915
 3556POPC   C4B46402  34.272  23.402   7.314
 3557POPC   NC346403   1.415  11.011   5.471
 3557POPC   PO446404   0.798  11.071   5.700
 3557POPC   GL146405   1.071  11.246   5.970
 3557POPC   GL246406   1.367  11.104   5.951
 3557POPC   C1A46407   1.126  11.183   6.415
 3557POPC   D2A46408   0.848  11.247   6.756
 3557POPC   C3A46409   0.966  11.385   7.129
 3557POPC   C4A46410   1.361  11.520   7.155
 3557POPC   C1B46411   1.571  11.344   6.201
 3557POPC   C2B46412   1.598  11.290   6.626
 3557POPC   C3B46413   1.339  11.087   6.874
 3557POPC   C4B46414   1.586  11.047   7.191
 3558POPC   NC346415  30.127  14.528   5.427
 3558POPC   PO446416  29.626  14.134   5.310
 3558POPC   GL146417  29.749  14.285   5.733
 3558POPC   GL246418  29.814  14.646   5.820
 3558POPC   C1A46419  29.746  14.273   6.193
 3558POPC   D2A46420  30.079  14.153   6.482
 3558POPC   C3A46421  30.025  14.249   6.926
 3558POPC   C4A46422  29.663  14.327   7.184
 3558POPC   C1B46423  30.066  14.710   6.203
 3558POPC   C2B46424  30.239  14.659   6.622
 3558POPC   C3B46425  30.077  14.738   7.024
 3558POPC   C4B46426  30.164  14.539   7.409
 3559POPC   NC346427   9.780  23.151   5.214
 3559POPC   PO446428   9.418  22.623   5.338
 3559POPC   GL146429   9.477  22.821   5.764
 3559POPC   GL246430   9.536  23.176   5.737
 3559POPC   C1A46431   9.676  22.794   6.164
 3559POPC   D2A46432   9.865  22.916   6.538
 3559POPC   C3A46433   9.616  22.790   6.839
 3559POPC   C4A46434   9.458  22.860   7.192
 3559POPC   C1B46435   9.505  23.289   6.202
 3559POPC   C2B46436   9.567  23.319   6.677
 3559POPC   C3B46437   9.828  23.224   7.077
 3559POPC   C4B46438  10.020  23.402   7.478
 3560POPC   NC346439  43.453  14.039   5.077
 3560POPC   PO446440  43.702  13.530   5.467
 3560POPC   GL146441  43.872  13.669   5.866
 3560POPC   GL246442  43.812  13.989   5.759
 3560POPC   C1A46443  44.020  13.735   6.300
 3560POPC   D2A46444  43.893  13.515   6.677
 3560POPC   C3A46445  44.049  13.563   7.079
 3560POPC   C4A46446  44.413  13.313   7.131
 3560POPC   C1B46447  43.586  13.989   6.150
 3560POPC   C2B46448  43.578  13.886   6.539
 3560POPC   C3B46449  43.513  13.901   6.943
 3560POPC   C4B46450  43.665  13.963   7.308
 3561POPC   NC346451  17.853  23.016   5.297
 3561POPC   PO446452  17.277  22.837   5.509
 3561POPC   GL146453  17.476  23.060   5.797
 3561POPC   GL246454  17.650  22.735   5.850
 3561POPC   C1A46455  17.335  23.240   6.207
 3561POPC   D2A46456  17.450  23.380   6.606
 3561POPC   C3A46457  17.300  23.201   6.993
 3561POPC   C4A46458  17.615  23.212   7.260
 3561POPC   C1B46459  17.421  22.723   6.215
 3561POPC   C2B46460  17.435  22.871   6.614
 3561POPC   C3B46461  17.432  22.675   7.016
 3561POPC   C4B46462  17.269  22.686   7.393
 3562POPC   NC346463  18.779  19.262   5.512
 3562POPC   PO446464  18.962  18.646   5.472
 3562POPC   GL146465  19.195  18.909   5.773
 3562POPC   GL246466  18.965  19.127   5.966
 3562POPC   C1A46467  19.312  18.854   6.215
 3562POPC   D2A46468  19.415  19.018   6.675
 3562POPC   C3A46469  19.098  19.021   7.044
 3562POPC   C4A46470  18.733  18.880   7.277
 3562POPC   C1B46471  19.168  19.338   6.309
 3562POPC   C2B46472  18.883  19.192   6.606
 3562POPC   C3B46473  18.685  19.340   6.964
 3562POPC   C4B46474  18.732  19.510   7.357
 3563POPC   NC346475   5.096  39.112   5.283
 3563POPC   PO446476   4.877  39.580   5.687
 3563POPC   GL146477   5.221  39.405   5.901
 3563POPC   GL246478   5.322  39.063   5.755
 3563POPC   C1A46479   5.241  39.446   6.356
 3563POPC   D2A46480   4.945  39.333   6.653
 3563POPC   C3A46481   5.005  39.480   7.043
 3563POPC   C4A46482   4.974  39.339   7.443
 3563POPC   C1B46483   5.487  39.037   6.180
 3563POPC   C2B46484   5.356  38.985   6.638
 3563POPC   C3B46485   5.251  39.018   7.102
 3563POPC   C4B46486   5.507  39.131   7.473
 3564POPC   NC346487   1.712  31.569   5.206
 3564POPC   PO446488   2.378  31.646   5.411
 3564POPC   GL146489   2.062  31.529   5.770
 3564POPC   GL246490   2.308  31.719   5.911
 3564POPC   C1A46491   1.882  31.361   6.229
 3564POPC   D2A46492   2.057  31.024   6.541
 3564POPC   C3A46493   2.029  31.178   6.991
 3564POPC   C4A46494   1.926  31.572   7.200
 3564POPC   C1B46495   2.362  31.463   6.237
 3564POPC   C2B46496   2.266  31.477   6.667
 3564POPC   C3B46497   2.397  31.645   7.054
 3564POPC   C4B46498   2.297  31.767   7.508
 3565POPC   NC346499   3.980   1.389   5.532
 3565POPC   PO446500   4.432   1.066   5.212
 3565POPC   GL146501   4.452   1.072   5.661
 3565POPC   GL246502   4.484   1.417   5.725
 3565POPC   C1A46503   4.470   1.021   6.127
 3565POPC   D2A46504   4.249   1.176   6.517
 3565POPC   C3A46505   4.383   1.080   6.923
 3565POPC   C4A46506   4.154   0.873   7.230
 3565POPC   C1B46507   4.246   1.496   6.121
 3565POPC   C2B46508   4.044   1.670   6.499
 3565POPC   C3B46509   4.251   1.614   6.883
 3565POPC   C4B46510   4.335   1.421   7.277
 3566POPC   NC346511  35.906  38.435   5.679
 3566POPC   PO446512  36.521  38.496   5.502
 3566POPC   GL146513  36.401  38.270   5.863
 3566POPC   GL246514  36.150  37.997   5.825
 3566POPC   C1A46515  36.512  38.461   6.281
 3566POPC   D2A46516  36.491  38.619   6.726
 3566POPC   C3A46517  36.081  38.732   6.891
 3566POPC   C4A46518  35.884  38.547   7.235
 3566POPC   C1B46519  36.182  38.046   6.278
 3566POPC   C2B46520  36.086  38.233   6.693
 3566POPC   C3B46521  35.960  38.037   7.081
 3566POPC   C4B46522  36.055  38.156   7.506
 3567POPC   NC346523  18.531  17.764   5.277
 3567POPC   PO446524  18.317  17.146   5.488
 3567POPC   GL146525  18.247  17.406   5.836
 3567POPC   GL246526  18.301  17.744   5.728
 3567POPC   C1A46527  18.313  17.348   6.280
 3567POPC   D2A46528  18.518  17.251   6.661
 3567POPC   C3A46529  18.269  17.361   7.010
 3567POPC   C4A46530  18.234  17.196   7.412
 3567POPC   C1B46531  18.506  17.789   6.116
 3567POPC   C2B46532  18.448  17.767   6.562
 3567POPC   C3B46533  18.318  17.873   6.988
 3567POPC   C4B46534  18.252  17.903   7.441
 3568POPC   NC346535  11.554  32.858   5.452
 3568POPC   PO446536  11.039  33.341   5.424
 3568POPC   GL146537  11.269  33.189   5.756
 3568POPC   GL246538  11.223  32.845   5.849
 3568POPC   C1A46539  11.224  33.266   6.182
 3568POPC   D2A46540  10.971  33.156   6.525
 3568POPC   C3A46541  11.277  33.175   6.842
 3568POPC   C4A46542  11.221  33.196   7.285
 3568POPC   C1B46543  11.404  32.775   6.249
 3568POPC   C2B46544  11.195  32.698   6.640
 3568POPC   C3B46545  11.301  32.724   7.060
 3568POPC   C4B46546  11.466  32.745   7.457
 3569POPC   NC346547  37.584  25.992   5.209
 3569POPC   PO446548  38.071  25.625   5.525
 3569POPC   GL146549  37.895  25.984   5.739
 3569POPC   GL246550  37.522  26.080   5.719
 3569POPC   C1A46551  37.803  26.079   6.162
 3569POPC   D2A46552  37.626  25.936   6.532
 3569POPC   C3A46553  37.773  26.057   6.926
 3569POPC   C4A46554  37.786  25.875   7.322
 3569POPC   C1B46555  37.385  26.366   6.067
 3569POPC   C2B46556  37.535  26.440   6.499
 3569POPC   C3B46557  37.369  26.358   6.889
 3569POPC   C4B46558  37.312  26.034   7.176
 3570POPC   NC346559  31.586  42.142   5.699
 3570POPC   PO446560  31.215  42.554   5.306
 3570POPC   GL146561  31.309  42.558   5.766
 3570POPC   GL246562  31.117  42.306   5.852
 3570POPC   C1A46563  31.526  42.592   6.191
 3570POPC   D2A46564  31.667  42.515   6.630
 3570POPC   C3A46565  31.597  42.235   6.972
 3570POPC   C4A46566  31.494  42.451   7.334
 3570POPC   C1B46567  31.098  42.284   6.271
 3570POPC   C2B46568  31.148  42.273   6.709
 3570POPC   C3B46569  31.104  42.203   7.146
 3570POPC   C4B46570  31.072  42.303   7.621
 3571POPC   NC346571  27.161  26.326   5.396
 3571POPC   PO446572  26.819  25.684   5.463
 3571POPC   GL146573  26.923  26.007   5.760
 3571POPC   GL246574  27.110  25.706   5.895
 3571POPC   C1A46575  26.840  26.291   6.138
 3571POPC   D2A46576  26.815  26.149   6.577
 3571POPC   C3A46577  26.784  26.279   6.973
 3571POPC   C4A46578  26.788  26.129   7.388
 3571POPC   C1B46579  26.795  25.761   6.227
 3571POPC   C2B46580  26.695  25.635   6.664
 3571POPC   C3B46581  26.702  25.660   7.129
 3571POPC   C4B46582  26.995  25.544   7.467
 3572POPC   NC346583  28.154   1.436   5.018
 3572POPC   PO446584  28.574   1.012   5.390
 3572POPC   GL146585  28.354   1.164   5.724
 3572POPC   GL246586  28.279   0.821   5.759
 3572POPC   C1A46587  28.331   1.452   6.101
 3572POPC   D2A46588  28.452   1.601   6.522
 3572POPC   C3A46589  28.212   1.360   6.817
 3572POPC   C4A46590  28.273   1.327   7.235
 3572POPC   C1B46591  28.141   0.978   6.158
 3572POPC   C2B46592  28.312   0.923   6.570
 3572POPC   C3B46593  28.269   0.847   7.027
 3572POPC   C4B46594  28.023   0.941   7.416
 3573POPC   NC346595  32.422   4.643   5.367
 3573POPC   PO446596  32.112   3.972   5.247
 3573POPC   GL146597  32.152   4.235   5.661
 3573POPC   GL246598  32.092   3.996   5.957
 3573POPC   C1A46599  32.141   4.449   6.104
 3573POPC   D2A46600  32.135   4.152   6.477
 3573POPC   C3A46601  32.111   4.330   6.896
 3573POPC   C4A46602  32.052   4.422   7.319
 3573POPC   C1B46603  32.504   4.080   6.112
 3573POPC   C2B46604  32.693   3.941   6.484
 3573POPC   C3B46605  32.460   3.945   6.858
 3573POPC   C4B46606  32.493   4.158   7.247
 3574POPC   NC346607  23.207  30.423   5.498
 3574POPC   PO446608  22.605  30.376   5.754
 3574POPC   GL146609  22.843  30.661   5.985
 3574POPC   GL246610  23.162  30.526   5.986
 3574POPC   C1A46611  22.890  30.661   6.428
 3574POPC   D2A46612  22.591  30.474   6.704
 3574POPC   C3A46613  22.658  30.701   7.062
 3574POPC   C4A46614  22.725  30.783   7.466
 3574POPC   C1B46615  23.415  30.261   6.263
 3574POPC   C2B46616  23.481  30.436   6.647
 3574POPC   C3B46617  23.144  30.502   6.921
 3574POPC   C4B46618  23.180  30.574   7.391
 3575POPC   NC346619  18.519  18.581   5.443
 3575POPC   PO446620  18.176  18.062   5.271
 3575POPC   GL146621  18.213  18.253   5.695
 3575POPC   GL246622  18.566  18.212   5.805
 3575POPC   C1A46623  18.149  18.199   6.148
 3575POPC   D2A46624  17.953  18.104   6.552
 3575POPC   C3A46625  17.972  18.440   6.817
 3575POPC   C4A46626  18.092  18.317   7.211
 3575POPC   C1B46627  18.653  18.250   6.263
 3575POPC   C2B46628  18.449  18.261   6.667
 3575POPC   C3B46629  18.596  18.296   7.078
 3575POPC   C4B46630  18.527  18.377   7.487
 3576POPC   NC346631  16.226  39.291   5.135
 3576POPC   PO446632  16.078  38.861   5.567
 3576POPC   GL146633  16.267  39.184   5.823
 3576POPC   GL246634  15.949  39.326   5.936
 3576POPC   C1A46635  16.309  39.344   6.271
 3576POPC   D2A46636  16.029  39.414   6.622
 3576POPC   C3A46637  16.180  39.304   7.032
 3576POPC   C4A46638  16.269  39.595   7.351
 3576POPC   C1B46639  15.637  39.210   6.236
 3576POPC   C2B46640  15.517  39.336   6.658
 3576POPC   C3B46641  15.694  39.095   6.985
 3576POPC   C4B46642  15.624  38.883   7.378
 3577POPC   NC346643  42.080  37.074   5.393
 3577POPC   PO446644  41.377  36.879   5.292
 3577POPC   GL146645  41.545  36.936   5.684
 3577POPC   GL246646  41.498  36.595   5.715
 3577POPC   C1A46647  41.456  37.012   6.137
 3577POPC   D2A46648  41.338  37.071   6.558
 3577POPC   C3A46649  41.570  37.170   6.906
 3577POPC   C4A46650  41.355  37.032   7.235
 3577POPC   C1B46651  41.436  36.496   6.100
 3577POPC   C2B46652  41.626  36.645   6.459
 3577POPC   C3B46653  41.501  36.663   6.859
 3577POPC   C4B46654  41.711  36.665   7.245
 3578POPC   NC346655  36.719  14.152   5.476
 3578POPC   PO446656  36.879  14.775   5.419
 3578POPC   GL146657  37.120  14.706   5.793
 3578POPC   GL246658  36.990  14.353   5.846
 3578POPC   C1A46659  37.258  14.534   6.211
 3578POPC   D2A46660  37.244  14.329   6.616
 3578POPC   C3A46661  37.229  14.561   6.987
 3578POPC   C4A46662  36.922  14.567   7.313
 3578POPC   C1B46663  36.728  14.480   6.222
 3578POPC   C2B46664  36.740  14.464   6.696
 3578POPC   C3B46665  36.553  14.269   7.086
 3578POPC   C4B46666  36.561  14.191   7.553
 3579POPC   NC346667  28.564   3.747   5.497
 3579POPC   PO446668  28.915   3.246   5.281
 3579POPC   GL146669  28.924   3.428   5.686
 3579POPC   GL246670  29.228   3.576   5.582
 3579POPC   C1A46671  28.913   3.697   6.090
 3579POPC   D2A46672  29.052   3.600   6.518
 3579POPC   C3A46673  29.032   3.741   6.959
 3579POPC   C4A46674  29.022   3.357   7.211
 3579POPC   C1B46675  29.366   3.429   5.991
 3579POPC   C2B46676  29.521   3.405   6.401
 3579POPC   C3B46677  29.492   3.696   6.744
 3579POPC   C4B46678  29.526   3.543   7.141
 3580POPC   NC346679  24.346  29.121   5.312
 3580POPC   PO446680  24.902  29.177   5.627
 3580POPC   GL146681  24.553  29.251   5.902
 3580POPC   GL246682  24.235  29.107   5.807
 3580POPC   C1A46683  24.530  29.174   6.364
 3580POPC   D2A46684  24.716  28.900   6.726
 3580POPC   C3A46685  24.810  29.109   7.127
 3580POPC   C4A46686  24.630  29.111   7.566
 3580POPC   C1B46687  24.074  28.988   6.213
 3580POPC   C2B46688  24.204  28.858   6.596
 3580POPC   C3B46689  24.294  29.051   6.982
 3580POPC   C4B46690  24.169  28.937   7.380
 3581POPC   NC346691   2.107   4.562   5.349
 3581POPC   PO446692   1.582   4.148   5.334
 3581POPC   GL146693   1.888   4.260   5.693
 3581POPC   GL246694   1.786   4.589   5.758
 3581POPC   C1A46695   2.178   4.169   6.035
 3581POPC   D2A46696   2.031   4.115   6.467
 3581POPC   C3A46697   2.273   4.194   6.829
 3581POPC   C4A46698   2.182   4.173   7.256
 3581POPC   C1B46699   1.940   4.581   6.184
 3581POPC   C2B46700   2.078   4.641   6.598
 3581POPC   C3B46701   1.895   4.540   7.009
 3581POPC   C4B46702   1.925   4.541   7.474
 3582POPC   NC346703  38.168  33.021   5.413
 3582POPC   PO446704  38.706  33.443   5.389
 3582POPC   GL146705  38.737  33.167   5.770
 3582POPC   GL246706  38.385  33.224   5.840
 3582POPC   C1A46707  38.682  33.083   6.242
 3582POPC   D2A46708  38.639  33.248   6.679
 3582POPC   C3A46709  38.559  32.993   7.044
 3582POPC   C4A46710  38.782  32.650   7.208
 3582POPC   C1B46711  38.192  32.894   6.095
 3582POPC   C2B46712  38.269  32.898   6.545
 3582POPC   C3B46713  38.153  32.677   6.912
 3582POPC   C4B46714  38.101  32.867   7.336
 3583POPC   NC346715  39.352  15.086   5.458
 3583POPC   PO446716  38.844  15.386   5.446
 3583POPC   GL146717  38.977  15.222   5.846
 3583POPC   GL246718  39.050  14.864   5.805
 3583POPC   C1A46719  39.041  15.444   6.252
 3583POPC   D2A46720  38.842  15.660   6.628
 3583POPC   C3A46721  39.072  15.475   6.961
 3583POPC   C4A46722  39.415  15.196   7.053
 3583POPC   C1B46723  39.299  14.871   6.165
 3583POPC   C2B46724  39.325  14.918   6.616
 3583POPC   C3B46725  38.965  14.971   6.910
 3583POPC   C4B46726  38.921  15.104   7.336
 3584POPC   NC346727  22.851  14.797   5.652
 3584POPC   PO446728  22.927  14.206   5.427
 3584POPC   GL146729  22.907  14.320   5.876
 3584POPC   GL246730  23.208  14.563   5.964
 3584POPC   C1A46731  22.826  14.170   6.312
 3584POPC   D2A46732  23.104  14.306   6.622
 3584POPC   C3A46733  23.112  14.067   6.959
 3584POPC   C4A46734  22.902  14.299   7.259
 3584POPC   C1B46735  22.894  14.658   6.294
 3584POPC   C2B46736  22.647  14.639   6.633
 3584POPC   C3B46737  22.742  14.759   7.039
 3584POPC   C4B46738  22.942  14.762   7.433
 3585POPC   NC346739  19.787  19.399   5.154
 3585POPC   PO446740  19.937  18.805   5.362
 3585POPC   GL146741  19.741  18.887   5.795
 3585POPC   GL246742  20.053  19.039   5.893
 3585POPC   C1A46743  19.712  19.128   6.247
 3585POPC   D2A46744  20.000  19.107   6.568
 3585POPC   C3A46745  19.886  19.331   6.939
 3585POPC   C4A46746  19.547  19.187   7.196
 3585POPC   C1B46747  19.975  18.692   6.210
 3585POPC   C2B46748  19.929  18.573   6.646
 3585POPC   C3B46749  20.080  18.560   7.078
 3585POPC   C4B46750  19.719  18.711   7.303
 3586POPC   NC346751   3.127   1.360   5.255
 3586POPC   PO446752   2.624   0.943   5.513
 3586POPC   GL146753   2.807   1.273   5.726
 3586POPC   GL246754   3.117   1.122   5.741
 3586POPC   C1A46755   2.711   1.382   6.156
 3586POPC   D2A46756   2.624   1.156   6.548
 3586POPC   C3A46757   2.696   1.404   6.908
 3586POPC   C4A46758   2.715   1.598   7.287
 3586POPC   C1B46759   2.917   0.922   6.120
 3586POPC   C2B46760   3.014   0.802   6.551
 3586POPC   C3B46761   2.853   0.891   6.953
 3586POPC   C4B46762   2.911   1.094   7.333
 3587POPC   NC346763  32.870  11.748   5.468
 3587POPC   PO446764  33.162  12.435   5.389
 3587POPC   GL146765  33.040  12.217   5.736
 3587POPC   GL246766  32.720  12.266   5.724
 3587POPC   C1A46767  33.145  12.036   6.143
 3587POPC   D2A46768  33.290  12.204   6.558
 3587POPC   C3A46769  33.138  12.037   6.986
 3587POPC   C4A46770  33.052  12.046   7.456
 3587POPC   C1B46771  32.778  12.393   6.176
 3587POPC   C2B46772  32.637  12.262   6.608
 3587POPC   C3B46773  32.671  12.232   7.069
 3587POPC   C4B46774  32.673  12.341   7.562
 3588POPC   NC346775  41.004  41.936   5.582
 3588POPC   PO446776  40.409  42.236   5.500
 3588POPC   GL146777  40.678  42.332   5.835
 3588POPC   GL246778  40.607  42.686   5.790
 3588POPC   C1A46779  40.900  42.213   6.239
 3588POPC   D2A46780  41.006  42.010   6.657
 3588POPC   C3A46781  40.922  42.177   7.086
 3588POPC   C4A46782  40.785  42.404   7.453
 3588POPC   C1B46783  40.714  42.697   6.214
 3588POPC   C2B46784  40.764  42.515   6.629
 3588POPC   C3B46785  40.846  42.689   7.027
 3588POPC   C4B46786  40.554  42.835   7.343
 3589POPC   NC346787  31.349  25.592   5.418
 3589POPC   PO446788  31.631  25.003   5.453
 3589POPC   GL146789  31.390  25.223   5.787
 3589POPC   GL246790  31.008  25.315   5.754
 3589POPC   C1A46791  31.480  25.182   6.229
 3589POPC   D2A46792  31.785  25.226   6.566
 3589POPC   C3A46793  31.691  25.170   6.992
 3589POPC   C4A46794  31.621  25.480   7.278
 3589POPC   C1B46795  31.150  25.562   6.115
 3589POPC   C2B46796  31.407  25.614   6.512
 3589POPC   C3B46797  31.242  25.591   6.938
 3589POPC   C4B46798  31.043  25.410   7.319
 3590POPC   NC346799  11.519  19.996   5.421
 3590POPC   PO446800  10.870  19.744   5.455
 3590POPC   GL146801  10.981  19.801   5.833
 3590POPC   GL246802  11.323  19.717   5.816
 3590POPC   C1A46803  10.954  19.712   6.236
 3590POPC   D2A46804  10.804  19.778   6.626
 3590POPC   C3A46805  11.018  19.989   6.908
 3590POPC   C4A46806  11.109  19.684   7.164
 3590POPC   C1B46807  11.470  19.752   6.236
 3590POPC   C2B46808  11.504  19.945   6.671
 3590POPC   C3B46809  11.590  19.802   7.105
 3590POPC   C4B46810  11.708  19.443   7.371
 3591POPC   NC346811  23.056  26.129   5.454
 3591POPC   PO446812  22.635  25.760   5.826
 3591POPC   GL146813  22.911  26.060   5.924
 3591POPC   GL246814  22.646  26.309   5.881
 3591POPC   C1A46815  23.218  26.034   6.264
 3591POPC   D2A46816  23.288  25.738   6.663
 3591POPC   C3A46817  23.152  25.907   7.087
 3591POPC   C4A46818  23.258  25.902   7.549
 3591POPC   C1B46819  22.703  26.252   6.326
 3591POPC   C2B46820  22.925  26.172   6.669
 3591POPC   C3B46821  22.690  26.119   7.005
 3591POPC   C4B46822  22.576  26.398   7.274
 3592POPC   NC346823   6.069   8.365   5.737
 3592POPC   PO446824   5.558   7.933   5.477
 3592POPC   GL146825   5.699   8.001   5.880
 3592POPC   GL246826   5.605   8.359   5.928
 3592POPC   C1A46827   5.776   7.996   6.321
 3592POPC   D2A46828   6.090   8.040   6.660
 3592POPC   C3A46829   5.898   8.195   7.033
 3592POPC   C4A46830   5.951   8.062   7.448
 3592POPC   C1B46831   5.750   8.542   6.301
 3592POPC   C2B46832   5.678   8.725   6.696
 3592POPC   C3B46833   5.667   8.786   7.137
 3592POPC   C4B46834   5.611   8.468   7.435
 3593POPC   NC346835  19.370  41.646   5.676
 3593POPC   PO446836  19.829  41.326   5.138
 3593POPC   GL146837  19.831  41.309   5.671
 3593POPC   GL246838  20.079  41.611   5.824
 3593POPC   C1A46839  19.912  41.278   6.142
 3593POPC   D2A46840  19.702  41.380   6.533
 3593POPC   C3A46841  19.914  41.362   6.937
 3593POPC   C4A46842  19.568  41.441   7.220
 3593POPC   C1B46843  19.781  41.764   6.192
 3593POPC   C2B46844  19.604  41.920   6.588
 3593POPC   C3B46845  19.788  41.918   6.985
 3593POPC   C4B46846  19.738  41.888   7.405
 3594POPC   NC346847  15.655  39.186   5.558
 3594POPC   PO446848  14.984  39.449   5.598
 3594POPC   GL146849  15.295  39.391   5.876
 3594POPC   GL246850  15.245  39.056   5.841
 3594POPC   C1A46851  15.138  39.352   6.288
 3594POPC   D2A46852  14.833  39.275   6.592
 3594POPC   C3A46853  14.998  39.393   6.973
 3594POPC   C4A46854  15.383  39.449   7.164
 3594POPC   C1B46855  15.201  38.834   6.217
 3594POPC   C2B46856  15.274  38.897   6.651
 3594POPC   C3B46857  15.209  38.934   7.095
 3594POPC   C4B46858  14.898  39.084   7.398
 3595POPC   NC346859   7.172  34.596   5.279
 3595POPC   PO446860   7.597  35.021   5.565
 3595POPC   GL146861   7.332  34.728   5.760
 3595POPC   GL246862   7.455  34.380   5.797
 3595POPC   C1A46863   7.243  34.648   6.179
 3595POPC   D2A46864   7.125  34.833   6.553
 3595POPC   C3A46865   7.320  34.693   6.914
 3595POPC   C4A46866   7.115  34.760   7.278
 3595POPC   C1B46867   7.585  34.237   6.220
 3595POPC   C2B46868   7.651  34.155   6.648
 3595POPC   C3B46869   7.740  34.330   7.050
 3595POPC   C4B46870   7.433  34.337   7.374
 3596POPC   NC346871   3.739  10.078   5.384
 3596POPC   PO446872   3.810   9.379   5.473
 3596POPC   GL146873   3.710   9.602   5.837
 3596POPC   GL246874   3.926   9.905   5.827
 3596POPC   C1A46875   3.398   9.566   6.213
 3596POPC   D2A46876   3.168   9.692   6.598
 3596POPC   C3A46877   3.284   9.513   7.011
 3596POPC   C4A46878   3.377   9.785   7.352
 3596POPC   C1B46879   3.838   9.847   6.261
 3596POPC   C2B46880   3.909   9.927   6.662
 3596POPC   C3B46881   3.542   9.990   6.895
 3596POPC   C4B46882   3.526  10.269   7.222
 3597POPC   NC346883  33.332  28.812   5.610
 3597POPC   PO446884  33.992  29.052   5.332
 3597POPC   GL146885  34.005  29.211   5.780
 3597POPC   GL246886  33.662  29.374   5.804
 3597POPC   C1A46887  33.835  29.088   6.201
 3597POPC   D2A46888  33.607  29.149   6.592
 3597POPC   C3A46889  33.758  28.907   6.993
 3597POPC   C4A46890  33.970  28.865   7.428
 3597POPC   C1B46891  33.530  29.587   6.206
 3597POPC   C2B46892  33.481  29.657   6.659
 3597POPC   C3B46893  33.733  29.472   6.968
 3597POPC   C4B46894  33.707  29.281   7.339
 3598POPC   NC346895  29.741   7.676   5.325
 3598POPC   PO446896  30.166   7.176   5.381
 3598POPC   GL146897  29.852   7.140   5.688
 3598POPC   GL246898  29.867   7.461   5.772
 3598POPC   C1A46899  29.764   7.111   6.141
 3598POPC   D2A46900  29.844   7.339   6.520
 3598POPC   C3A46901  29.763   7.162   6.885
 3598POPC   C4A46902  29.651   7.382   7.246
 3598POPC   C1B46903  29.896   7.686   6.135
 3598POPC   C2B46904  30.075   7.781   6.554
 3598POPC   C3B46905  30.022   7.624   6.961
 3598POPC   C4B46906  30.027   7.757   7.398
 3599POPC   NC346907   4.038  40.839   5.497
 3599POPC   PO446908   4.604  40.544   5.277
 3599POPC   GL146909   4.463  40.584   5.707
 3599POPC   GL246910   4.581  40.920   5.762
 3599POPC   C1A46911   4.273  40.614   6.142
 3599POPC   D2A46912   4.226  40.417   6.561
 3599POPC   C3A46913   4.264  40.683   6.888
 3599POPC   C4A46914   4.338  40.664   7.273
 3599POPC   C1B46915   4.572  41.058   6.166
 3599POPC   C2B46916   4.255  41.043   6.513
 3599POPC   C3B46917   4.381  41.224   6.907
 3599POPC   C4B46918   4.649  41.111   7.252
 3600POPC   NC346919  42.630  17.920   5.105
 3600POPC   PO446920  42.218  18.249   5.576
 3600POPC   GL146921  42.441  18.316   5.944
 3600POPC   GL246922  42.518  18.651   5.911
 3600POPC   C1A46923  42.503  18.150   6.356
 3600POPC   D2A46924  42.202  18.157   6.701
 3600POPC   C3A46925  42.367  18.245   7.117
 3600POPC   C4A46926  42.772  18.112   7.207
 3600POPC   C1B46927  42.443  18.628   6.348
 3600POPC   C2B46928  42.631  18.498   6.744
 3600POPC   C3B46929  42.616  18.723   7.133
 3600POPC   C4B46930  42.245  18.892   7.307
 3601POPC   NC346931  24.638  24.114   5.416
 3601POPC   PO446932  24.536  24.772   5.404
 3601POPC   GL146933  24.622  24.597   5.775
 3601POPC   GL246934  24.295  24.560   5.852
 3601POPC   C1A46935  24.661  24.658   6.219
 3601POPC   D2A46936  24.564  24.384   6.550
 3601POPC   C3A46937  24.508  24.648   6.895
 3601POPC   C4A46938  24.585  24.510   7.295
 3601POPC   C1B46939  24.151  24.552   6.266
 3601POPC   C2B46940  24.067  24.372   6.666
 3601POPC   C3B46941  24.061  24.495   7.080
 3601POPC   C4B46942  24.143  24.577   7.492
 3602POPC   NC346943  40.127  37.327   5.448
 3602POPC   PO446944  40.292  37.930   5.677
 3602POPC   GL146945  39.904  37.728   5.881
 3602POPC   GL246946  39.914  37.440   5.998
 3602POPC   C1A46947  39.711  37.761   6.341
 3602POPC   D2A46948  39.798  37.546   6.753
 3602POPC   C3A46949  39.595  37.719   7.154
 3602POPC   C4A46950  39.560  38.074   7.452
 3602POPC   C1B46951  40.207  37.751   6.276
 3602POPC   C2B46952  40.098  38.000   6.629
 3602POPC   C3B46953  40.095  37.872   7.052
 3602POPC   C4B46954  40.056  37.459   7.191
 3603POPC   NC346955  33.968  40.645   5.183
 3603POPC   PO446956  34.203  41.095   5.656
 3603POPC   GL146957  33.979  40.941   5.957
 3603POPC   GL246958  33.873  40.586   5.899
 3603POPC   C1A46959  33.933  41.023   6.339
 3603POPC   D2A46960  33.761  40.913   6.642
 3603POPC   C3A46961  33.956  40.989   6.992
 3603POPC   C4A46962  34.119  41.042   7.365
 3603POPC   C1B46963  33.546  40.608   6.217
 3603POPC   C2B46964  33.367  40.604   6.635
 3603POPC   C3B46965  33.677  40.544   6.972
 3603POPC   C4B46966  33.754  40.714   7.356
 3604POPC   NC346967  33.596   0.528   5.478
 3604POPC   PO446968  34.156   0.106   5.312
 3604POPC   GL146969  33.959   0.252   5.713
 3604POPC   GL246970  34.038   0.569   5.843
 3604POPC   C1A46971  33.733   0.287   6.132
 3604POPC   D2A46972  33.892   0.296   6.552
 3604POPC   C3A46973  33.724   0.544   6.883
 3604POPC   C4A46974  33.601   0.542   7.328
 3604POPC   C1B46975  34.113   0.813   6.196
 3604POPC   C2B46976  34.100   0.893   6.645
 3604POPC   C3B46977  34.055   0.867   7.095
 3604POPC   C4B46978  34.028   0.760   7.564
 3605POPC   NC346979  38.760   5.266   5.604
 3605POPC   PO446980  38.311   4.820   5.550
 3605POPC   GL146981  38.452   4.974   5.930
 3605POPC   GL246982  38.722   4.829   5.944
 3605POPC   C1A46983  38.318   5.166   6.339
 3605POPC   D2A46984  38.191   5.132   6.784
 3605POPC   C3A46985  38.315   5.254   7.196
 3605POPC   C4A46986  38.714   5.370   7.468
 3605POPC   C1B46987  38.820   5.079   6.274
 3605POPC   C2B46988  38.695   5.227   6.661
 3605POPC   C3B46989  38.752   5.105   7.036
 3605POPC   C4B46990  38.662   4.873   7.437
 3606POPC   NC346991  22.649  16.099   5.499
 3606POPC   PO446992  23.076  15.544   5.398
 3606POPC   GL146993  22.905  15.761   5.760
 3606POPC   GL246994  23.184  15.928   5.820
 3606POPC   C1A46995  22.767  15.977   6.158
 3606POPC   D2A46996  22.606  15.835   6.583
 3606POPC   C3A46997  22.694  16.052   6.953
 3606POPC   C4A46998  22.916  15.849   7.262
 3606POPC   C1B46999  23.286  15.974   6.238
 3606POPC   C2B47000  23.045  16.191   6.543
 3606POPC   C3B47001  23.139  16.312   6.929
 3606POPC   C4B47002  23.062  16.328   7.296
 3607POPC   NC347003  17.038  22.435   5.512
 3607POPC   PO447004  17.606  22.103   5.520
 3607POPC   GL147005  17.642  22.221   5.915
 3607POPC   GL247006  17.653  21.897   5.997
 3607POPC   C1A47007  17.866  22.423   6.236
 3607POPC   D2A47008  17.743  22.469   6.658
 3607POPC   C3A47009  17.701  22.164   6.988
 3607POPC   C4A47010  17.632  22.314   7.444
 3607POPC   C1B47011  17.614  22.003   6.429
 3607POPC   C2B47012  17.344  21.859   6.760
 3607POPC   C3B47013  17.237  22.066   7.140
 3607POPC   C4B47014  17.284  21.968   7.595
 3608POPC   NC347015   2.222  35.039   5.633
 3608POPC   PO447016   1.840  35.596   5.477
 3608POPC   GL147017   1.879  35.716   5.860
 3608POPC   GL247018   1.944  35.338   5.940
 3608POPC   C1A47019   1.936  35.712   6.271
 3608POPC   D2A47020   1.911  35.365   6.503
 3608POPC   C3A47021   1.974  35.508   6.906
 3608POPC   C4A47022   2.070  35.501   7.332
 3608POPC   C1B47023   1.690  35.038   6.165
 3608POPC   C2B47024   1.501  35.002   6.558
 3608POPC   C3B47025   1.710  35.062   6.897
 3608POPC   C4B47026   1.935  34.924   7.250
 3609POPC   NC347027  25.550   7.249   5.466
 3609POPC   PO447028  25.017   7.675   5.300
 3609POPC   GL147029  25.275   7.698   5.686
 3609POPC   GL247030  25.188   7.403   5.847
 3609POPC   C1A47031  25.176   7.780   6.164
 3609POPC   D2A47032  25.444   7.759   6.553
 3609POPC   C3A47033  25.384   7.559   6.968
 3609POPC   C4A47034  25.255   7.767   7.352
 3609POPC   C1B47035  25.226   7.294   6.296
 3609POPC   C2B47036  25.182   7.146   6.712
 3609POPC   C3B47037  25.357   7.030   7.102
 3609POPC   C4B47038  25.455   7.298   7.442
 3610POPC   NC347039  38.582  43.408   5.449
 3610POPC   PO447040  38.239  44.049   5.373
 3610POPC   GL147041  38.279  43.764   5.726
 3610POPC   GL247042  38.430  44.032   5.929
 3610POPC   C1A47043  38.323  43.603   6.166
 3610POPC   D2A47044  38.290  43.855   6.548
 3610POPC   C3A47045  38.279  43.583   6.930
 3610POPC   C4A47046  38.463  43.653   7.321
 3610POPC   C1B47047  38.585  44.210   6.317
 3610POPC   C2B47048  38.804  44.098   6.676
 3610POPC   C3B47049  38.530  44.045   6.997
 3610POPC   C4B47050  38.625  44.253   7.338
 3611POPC   NC347051  16.385  13.648   5.460
 3611POPC   PO447052  15.694  13.470   5.509
 3611POPC   GL147053  15.987  13.676   5.821
 3611POPC   GL247054  16.253  13.425   5.907
 3611POPC   C1A47055  15.901  13.621   6.269
 3611POPC   D2A47056  15.688  13.327   6.529
 3611POPC   C3A47057  15.644  13.505   6.951
 3611POPC   C4A47058  15.857  13.899   7.088
 3611POPC   C1B47059  16.269  13.259   6.327
 3611POPC   C2B47060  16.154  13.395   6.716
 3611POPC   C3B47061  16.102  13.366   7.132
 3611POPC   C4B47062  16.144  13.242   7.585
 3612POPC   NC347063  19.749   1.479   5.082
 3612POPC   PO447064  20.119   0.941   5.400
 3612POPC   GL147065  19.920   1.071   5.800
 3612POPC   GL247066  19.797   1.428   5.795
 3612POPC   C1A47067  20.060   1.125   6.223
 3612POPC   D2A47068  20.063   0.923   6.623
 3612POPC   C3A47069  19.915   1.101   7.006
 3612POPC   C4A47070  19.798   1.225   7.458
 3612POPC   C1B47071  19.607   1.363   6.206
 3612POPC   C2B47072  19.759   1.423   6.652
 3612POPC   C3B47073  19.634   1.543   7.113
 3612POPC   C4B47074  19.768   1.719   7.550
 3613POPC   NC347075  30.296  10.969   5.464
 3613POPC   PO447076  30.882  10.635   5.404
 3613POPC   GL147077  30.693  10.490   5.761
 3613POPC   GL247078  30.988  10.305   5.848
 3613POPC   C1A47079  30.622  10.621   6.209
 3613POPC   D2A47080  30.462  10.436   6.617
 3613POPC   C3A47081  30.537  10.553   7.068
 3613POPC   C4A47082  30.508  10.255   7.408
 3613POPC   C1B47083  31.071  10.336   6.278
 3613POPC   C2B47084  30.919  10.130   6.626
 3613POPC   C3B47085  30.876  10.157   7.057
 3613POPC   C4B47086  31.053  10.314   7.403
 3614POPC   NC347087  24.821   7.313   5.501
 3614POPC   PO447088  24.368   7.810   5.399
 3614POPC   GL147089  24.442   7.560   5.743
 3614POPC   GL247090  24.777   7.750   5.767
 3614POPC   C1A47091  24.277   7.280   6.107
 3614POPC   D2A47092  24.048   7.366   6.520
 3614POPC   C3A47093  24.306   7.605   6.821
 3614POPC   C4A47094  24.453   7.471   7.234
 3614POPC   C1B47095  24.758   7.467   6.125
 3614POPC   C2B47096  24.702   7.349   6.538
 3614POPC   C3B47097  24.857   7.578   6.898
 3614POPC   C4B47098  24.965   7.363   7.263
 3615POPC   NC347099  38.216  14.858   5.348
 3615POPC   PO447100  38.532  14.299   5.350
 3615POPC   GL147101  38.500  14.130   5.766
 3615POPC   GL247102  38.174  14.269   5.796
 3615POPC   C1A47103  38.634  14.058   6.213
 3615POPC   D2A47104  38.562  14.265   6.615
 3615POPC   C3A47105  38.502  14.180   7.059
 3615POPC   C4A47106  38.531  14.451   7.463
 3615POPC   C1B47107  38.254  14.403   6.208
 3615POPC   C2B47108  38.068  14.427   6.627
 3615POPC   C3B47109  38.110  14.501   7.091
 3615POPC   C4B47110  37.978  14.380   7.538
 3616POPC   NC347111  32.627  34.965   5.502
 3616POPC   PO447112  32.036  34.715   5.528
 3616POPC   GL147113  32.400  34.625   5.804
 3616POPC   GL247114  32.460  34.925   5.992
 3616POPC   C1A47115  32.500  34.347   6.140
 3616POPC   D2A47116  32.205  34.238   6.494
 3616POPC   C3A47117  32.275  34.442   6.907
 3616POPC   C4A47118  32.313  34.228   7.324
 3616POPC   C1B47119  32.128  34.709   6.238
 3616POPC   C2B47120  31.813  34.779   6.577
 3616POPC   C3B47121  31.785  34.792   7.021
 3616POPC   C4B47122  32.144  34.757   7.301
 3617POPC   NC347123  28.346  32.590   5.540
 3617POPC   PO447124  28.842  33.061   5.340
 3617POPC   GL147125  28.577  33.013   5.756
 3617POPC   GL247126  28.192  33.103   5.692
 3617POPC   C1A47127  28.556  33.036   6.244
 3617POPC   D2A47128  28.648  32.891   6.709
 3617POPC   C3A47129  28.460  32.984   7.133
 3617POPC   C4A47130  28.278  33.230   7.451
 3617POPC   C1B47131  28.084  32.894   6.083
 3617POPC   C2B47132  28.122  32.887   6.535
 3617POPC   C3B47133  28.025  32.789   6.973
 3617POPC   C4B47134  28.094  32.766   7.442
 3618POPC   NC347135   9.166  14.685   5.504
 3618POPC   PO447136   8.528  14.286   5.391
 3618POPC   GL147137   8.831  14.319   5.738
 3618POPC   GL247138   9.100  14.084   5.749
 3618POPC   C1A47139   9.015  14.447   6.142
 3618POPC   D2A47140   8.898  14.750   6.455
 3618POPC   C3A47141   8.910  14.598   6.888
 3618POPC   C4A47142   9.202  14.468   7.193
 3618POPC   C1B47143   8.924  13.945   6.147
 3618POPC   C2B47144   8.967  14.020   6.569
 3618POPC   C3B47145   8.765  14.077   6.962
 3618POPC   C4B47146   8.756  14.200   7.375
 3619POPC   NC347147   6.408  12.395   5.403
 3619POPC   PO447148   6.660  11.740   5.257
 3619POPC   GL147149   6.722  11.948   5.711
 3619POPC   GL247150   6.592  12.283   5.869
 3619POPC   C1A47151   6.938  11.977   6.131
 3619POPC   D2A47152   7.106  12.052   6.562
 3619POPC   C3A47153   6.740  12.148   6.839
 3619POPC   C4A47154   6.600  11.947   7.235
 3619POPC   C1B47155   6.599  12.405   6.330
 3619POPC   C2B47156   6.518  12.632   6.744
 3619POPC   C3B47157   6.346  12.378   7.119
 3619POPC   C4B47158   6.344  12.286   7.561
 3620POPC   NC347159  39.555  21.661   5.467
 3620POPC   PO447160  39.522  21.060   5.475
 3620POPC   GL147161  39.144  21.169   5.745
 3620POPC   GL247162  38.947  21.506   5.786
 3620POPC   C1A47163  38.964  21.128   6.155
 3620POPC   D2A47164  38.859  21.173   6.577
 3620POPC   C3A47165  39.076  21.174   6.973
 3620POPC   C4A47166  39.386  21.334   7.249
 3620POPC   C1B47167  39.206  21.606   6.171
 3620POPC   C2B47168  39.407  21.699   6.597
 3620POPC   C3B47169  39.253  21.793   7.019
 3620POPC   C4B47170  38.956  21.587   7.287
 3621POPC   NC347171   4.686  26.789   5.378
 3621POPC   PO447172   3.958  26.518   5.330
 3621POPC   GL147173   4.177  26.648   5.725
 3621POPC   GL247174   4.526  26.709   5.858
 3621POPC   C1A47175   4.118  26.813   6.139
 3621POPC   D2A47176   4.229  26.929   6.544
 3621POPC   C3A47177   4.149  26.636   6.853
 3621POPC   C4A47178   4.110  26.641   7.298
 3621POPC   C1B47179   4.631  26.759   6.262
 3621POPC   C2B47180   4.619  26.577   6.660
 3621POPC   C3B47181   4.610  26.721   7.062
 3621POPC   C4B47182   4.597  26.527   7.450
 3622POPC   NC347183   7.924   7.789   5.236
 3622POPC   PO447184   8.189   7.141   5.373
 3622POPC   GL147185   8.257   7.358   5.762
 3622POPC   GL247186   8.338   7.716   5.663
 3622POPC   C1A47187   8.168   7.261   6.203
 3622POPC   D2A47188   8.414   7.116   6.546
 3622POPC   C3A47189   8.249   7.243   6.927
 3622POPC   C4A47190   8.471   7.294   7.302
 3622POPC   C1B47191   8.413   7.721   6.115
 3622POPC   C2B47192   8.327   7.640   6.562
 3622POPC   C3B47193   8.376   7.750   7.013
 3622POPC   C4B47194   8.230   7.835   7.439
 3623POPC   NC347195  22.596   7.025   5.310
 3623POPC   PO447196  22.960   6.518   5.512
 3623POPC   GL147197  22.823   6.610   5.898
 3623POPC   GL247198  22.860   6.942   5.767
 3623POPC   C1A47199  22.922   6.576   6.347
 3623POPC   D2A47200  22.892   6.710   6.772
 3623POPC   C3A47201  22.761   6.527   7.150
 3623POPC   C4A47202  22.911   6.391   7.567
 3623POPC   C1B47203  23.164   6.974   6.091
 3623POPC   C2B47204  23.125   7.104   6.482
 3623POPC   C3B47205  23.001   7.193   6.860
 3623POPC   C4B47206  23.074   6.946   7.203
 3624POPC   NC347207  30.286  18.962   5.411
 3624POPC   PO447208  29.644  19.019   5.291
 3624POPC   GL147209  29.897  19.123   5.691
 3624POPC   GL247210  30.185  19.361   5.748
 3624POPC   C1A47211  30.052  19.020   6.128
 3624POPC   D2A47212  30.228  19.079   6.556
 3624POPC   C3A47213  30.123  18.779   6.869
 3624POPC   C4A47214  30.185  18.619   7.290
 3624POPC   C1B47215  30.170  19.496   6.202
 3624POPC   C2B47216  29.972  19.505   6.618
 3624POPC   C3B47217  30.150  19.375   6.975
 3624POPC   C4B47218  30.045  19.107   7.244
 3625POPC   NC347219  19.687  34.392   5.408
 3625POPC   PO447220  20.194  34.911   5.324
 3625POPC   GL147221  20.006  34.634   5.726
 3625POPC   GL247222  20.050  34.277   5.782
 3625POPC   C1A47223  19.748  34.497   6.132
 3625POPC   D2A47224  19.625  34.740   6.515
 3625POPC   C3A47225  19.806  34.606   6.900
 3625POPC   C4A47226  19.628  34.513   7.280
 3625POPC   C1B47227  20.062  34.090   6.185
 3625POPC   C2B47228  19.900  34.247   6.557
 3625POPC   C3B47229  19.709  34.075   6.915
 3625POPC   C4B47230  19.876  34.045   7.280
 3626POPC   NC347231  26.057  35.859   5.342
 3626POPC   PO447232  26.499  36.278   5.284
 3626POPC   GL147233  26.299  36.130   5.721
 3626POPC   GL247234  25.948  36.228   5.787
 3626POPC   C1A47235  26.176  35.957   6.162
 3626POPC   D2A47236  26.299  35.972   6.628
 3626POPC   C3A47237  25.992  35.884   6.949
 3626POPC   C4A47238  25.862  36.009   7.387
 3626POPC   C1B47239  25.947  36.400   6.258
 3626POPC   C2B47240  25.992  36.409   6.745
 3626POPC   C3B47241  25.849  36.483   7.205
 3626POPC   C4B47242  25.713  36.439   7.690
 3627POPC   NC347243  19.764  30.661   5.384
 3627POPC   PO447244  20.178  31.105   5.116
 3627POPC   GL147245  20.221  30.749   5.602
 3627POPC   GL247246  19.937  30.599   5.844
 3627POPC   C1A47247  20.226  30.847   6.136
 3627POPC   D2A47248  19.976  30.870   6.510
 3627POPC   C3A47249  19.992  30.702   6.946
 3627POPC   C4A47250  19.620  30.837   7.216
 3627POPC   C1B47251  19.948  30.395   6.257
 3627POPC   C2B47252  19.679  30.221   6.605
 3627POPC   C3B47253  19.800  30.222   7.066
 3627POPC   C4B47254  19.929  30.498   7.428
 3628POPC   NC347255   6.622  25.605   5.392
 3628POPC   PO447256   6.738  24.903   5.506
 3628POPC   GL147257   6.685  25.280   5.805
 3628POPC   GL247258   6.415  25.557   5.845
 3628POPC   C1A47259   6.764  25.445   6.245
 3628POPC   D2A47260   6.819  25.687   6.637
 3628POPC   C3A47261   6.942  25.485   7.046
 3628POPC   C4A47262   6.677  25.246   7.387
 3628POPC   C1B47263   6.305  25.247   6.155
 3628POPC   C2B47264   6.287  25.315   6.570
 3628POPC   C3B47265   6.445  25.440   6.953
 3628POPC   C4B47266   6.237  25.606   7.294
 3629POPC   NC347267  31.771  19.382   5.404
 3629POPC   PO447268  31.415  18.860   5.443
 3629POPC   GL147269  31.441  19.132   5.765
 3629POPC   GL247270  31.762  19.020   5.837
 3629POPC   C1A47271  31.231  19.347   6.106
 3629POPC   D2A47272  31.298  19.328   6.530
 3629POPC   C3A47273  31.062  19.256   6.877
 3629POPC   C4A47274  31.355  19.105   7.149
 3629POPC   C1B47275  31.652  19.008   6.266
 3629POPC   C2B47276  31.784  19.145   6.673
 3629POPC   C3B47277  31.865  19.082   7.097
 3629POPC   C4B47278  31.692  18.783   7.363
 3630POPC   NC347279  18.870  42.398   5.479
 3630POPC   PO447280  19.458  42.198   5.434
 3630POPC   GL147281  19.192  42.126   5.819
 3630POPC   GL247282  19.360  42.076   6.127
 3630POPC   C1A47283  18.849  42.215   6.159
 3630POPC   D2A47284  18.781  42.495   6.541
 3630POPC   C3A47285  19.058  42.331   6.898
 3630POPC   C4A47286  18.987  42.234   7.349
 3630POPC   C1B47287  19.263  42.494   6.326
 3630POPC   C2B47288  19.174  42.794   6.683
 3630POPC   C3B47289  19.330  42.771   7.112
 3630POPC   C4B47290  19.276  42.577   7.558
 3631POPC   NC347291  28.313   9.861   5.640
 3631POPC   PO447292  28.532   9.430   5.211
 3631POPC   GL147293  28.337   9.379   5.699
 3631POPC   GL247294  28.011   9.381   5.638
 3631POPC   C1A47295  28.456   9.503   6.169
 3631POPC   D2A47296  28.416   9.897   6.455
 3631POPC   C3A47297  28.402   9.941   6.917
 3631POPC   C4A47298  28.389   9.601   7.219
 3631POPC   C1B47299  27.993   9.268   6.084
 3631POPC   C2B47300  28.064   9.422   6.519
 3631POPC   C3B47301  27.961   9.550   6.944
 3631POPC   C4B47302  27.910   9.339   7.328
 3632POPC   NC347303  21.707  44.072   5.452
 3632POPC   PO447304  21.119  43.714   5.353
 3632POPC   GL147305  21.365  43.818   5.802
 3632POPC   GL247306  21.528  44.143   5.917
 3632POPC   C1A47307  21.414  43.775   6.292
 3632POPC   D2A47308  21.145  43.674   6.693
 3632POPC   C3A47309  21.035  43.760   7.154
 3632POPC   C4A47310  20.910  43.856   7.605
 3632POPC   C1B47311  21.772  44.138   6.262
 3632POPC   C2B47312  21.711  43.983   6.673
 3632POPC   C3B47313  21.524  43.871   7.072
 3632POPC   C4B47314  21.423  43.777   7.547
 3633POPC   NC347315   8.048  20.884   5.430
 3633POPC   PO447316   8.537  20.375   5.519
 3633POPC   GL147317   8.229  20.420   5.872
 3633POPC   GL247318   7.961  20.663   5.876
 3633POPC   C1A47319   8.290  20.371   6.318
 3633POPC   D2A47320   8.610  20.245   6.636
 3633POPC   C3A47321   8.414  20.150   7.038
 3633POPC   C4A47322   8.051  20.319   7.262
 3633POPC   C1B47323   8.351  20.859   6.051
 3633POPC   C2B47324   8.311  20.873   6.469
 3633POPC   C3B47325   8.167  20.720   6.851
 3633POPC   C4B47326   8.357  20.957   7.157
 3634POPC   NC347327  40.745  14.016   5.401
 3634POPC   PO447328  40.519  13.362   5.493
 3634POPC   GL147329  40.857  13.568   5.752
 3634POPC   GL247330  40.869  13.904   5.888
 3634POPC   C1A47331  41.001  13.498   6.167
 3634POPC   D2A47332  40.827  13.674   6.525
 3634POPC   C3A47333  41.062  13.595   6.900
 3634POPC   C4A47334  40.894  13.600   7.307
 3634POPC   C1B47335  40.527  14.017   6.181
 3634POPC   C2B47336  40.387  13.918   6.606
 3634POPC   C3B47337  40.649  13.940   6.975
 3634POPC   C4B47338  40.562  14.003   7.416
 3635POPC   NC347339  37.783   2.225   5.450
 3635POPC   PO447340  37.566   1.541   5.370
 3635POPC   GL147341  37.607   1.811   5.723
 3635POPC   GL247342  37.938   1.741   5.772
 3635POPC   C1A47343  37.567   1.991   6.167
 3635POPC   D2A47344  37.707   1.823   6.606
 3635POPC   C3A47345  37.521   2.041   6.982
 3635POPC   C4A47346  37.552   1.983   7.437
 3635POPC   C1B47347  38.069   1.936   6.148
 3635POPC   C2B47348  37.979   2.235   6.493
 3635POPC   C3B47349  38.040   2.128   6.918
 3635POPC   C4B47350  37.966   1.715   7.134
 3636POPC   NC347351  40.589  35.562   5.484
 3636POPC   PO447352  41.144  35.254   5.361
 3636POPC   GL147353  40.936  35.097   5.778
 3636POPC   GL247354  40.601  35.276   5.915
 3636POPC   C1A47355  41.002  35.247   6.217
 3636POPC   D2A47356  40.640  35.200   6.489
 3636POPC   C3A47357  40.796  35.279   6.919
 3636POPC   C4A47358  40.746  35.163   7.347
 3636POPC   C1B47359  40.655  35.656   6.225
 3636POPC   C2B47360  40.532  35.648   6.690
 3636POPC   C3B47361  40.677  35.756   7.095
 3636POPC   C4B47362  40.694  35.636   7.520
 3637POPC   NC347363  26.529  25.308   5.513
 3637POPC   PO447364  27.082  24.919   5.534
 3637POPC   GL147365  26.894  25.181   5.862
 3637POPC   GL247366  26.622  25.016   5.971
 3637POPC   C1A47367  27.032  25.302   6.252
 3637POPC   D2A47368  27.011  25.071   6.628
 3637POPC   C3A47369  27.027  25.232   7.044
 3637POPC   C4A47370  26.907  24.942   7.370
 3637POPC   C1B47371  26.479  25.325   6.284
 3637POPC   C2B47372  26.310  25.270   6.717
 3637POPC   C3B47373  26.498  25.123   7.107
 3637POPC   C4B47374  26.576  25.277   7.535
 3638POPC   NC347375   1.725  14.137   5.397
 3638POPC   PO447376   1.865  14.770   5.267
 3638POPC   GL147377   1.956  14.647   5.713
 3638POPC   GL247378   2.283  14.722   5.867
 3638POPC   C1A47379   1.885  14.615   6.181
 3638POPC   D2A47380   1.885  14.756   6.643
 3638POPC   C3A47381   1.690  14.461   6.933
 3638POPC   C4A47382   1.760  14.036   7.049
 3638POPC   C1B47383   2.383  14.456   6.217
 3638POPC   C2B47384   2.437  14.211   6.604
 3638POPC   C3B47385   2.203  14.360   6.971
 3638POPC   C4B47386   2.157  14.778   7.183
 3639POPC   NC347387  41.352   7.780   5.445
 3639POPC   PO447388  41.606   7.093   5.438
 3639POPC   GL147389  41.629   7.421   5.768
 3639POPC   GL247390  41.362   7.515   5.905
 3639POPC   C1A47391  41.725   7.331   6.203
 3639POPC   D2A47392  41.418   7.309   6.519
 3639POPC   C3A47393  41.580   7.233   6.915
 3639POPC   C4A47394  41.434   6.955   7.193
 3639POPC   C1B47395  41.440   7.755   6.240
 3639POPC   C2B47396  41.684   7.725   6.643
 3639POPC   C3B47397  41.487   7.715   7.055
 3639POPC   C4B47398  41.341   7.434   7.339
 3640POPC   NC347399  30.754   5.302   5.534
 3640POPC   PO447400  30.697   4.642   5.553
 3640POPC   GL147401  30.912   4.866   5.861
 3640POPC   GL247402  30.658   5.128   6.010
 3640POPC   C1A47403  31.056   4.956   6.282
 3640POPC   D2A47404  30.843   5.263   6.573
 3640POPC   C3A47405  30.546   5.047   6.813
 3640POPC   C4A47406  30.494   4.852   7.202
 3640POPC   C1B47407  30.406   5.424   6.288
 3640POPC   C2B47408  30.352   5.537   6.732
 3640POPC   C3B47409  30.247   5.324   7.132
 3640POPC   C4B47410  30.470   5.221   7.542
 3641POPC   NC347411  10.143  31.254   5.395
 3641POPC   PO447412  10.756  31.663   5.437
 3641POPC   GL147413  10.534  31.442   5.726
 3641POPC   GL247414  10.289  31.648   5.883
 3641POPC   C1A47415  10.659  31.404   6.147
 3641POPC   D2A47416  10.810  31.598   6.505
 3641POPC   C3A47417  10.518  31.551   6.825
 3641POPC   C4A47418  10.470  31.388   7.259
 3641POPC   C1B47419  10.338  31.782   6.315
 3641POPC   C2B47420  10.144  31.914   6.705
 3641POPC   C3B47421  10.251  31.839   7.143
 3641POPC   C4B47422  10.086  31.610   7.498
 3642POPC   NC347423  42.585  13.615   5.288
 3642POPC   PO447424  41.970  13.542   5.365
 3642POPC   GL147425  42.208  13.692   5.760
 3642POPC   GL247426  42.567  13.628   5.807
 3642POPC   C1A47427  42.205  13.580   6.228
 3642POPC   D2A47428  41.954  13.386   6.603
 3642POPC   C3A47429  42.172  13.526   6.977
 3642POPC   C4A47430  42.414  13.828   7.230
 3642POPC   C1B47431  42.703  13.501   6.224
 3642POPC   C2B47432  42.669  13.607   6.663
 3642POPC   C3B47433  42.683  13.348   7.019
 3642POPC   C4B47434  42.457  13.244   7.342
 3643POPC   NC347435  17.083  44.777   5.203
 3643POPC   PO447436  17.725  44.684   5.396
 3643POPC   GL147437  17.632  44.767   5.820
 3643POPC   GL247438  17.276  44.776   5.859
 3643POPC   C1A47439  17.562  44.694   6.258
 3643POPC   D2A47440  17.291  44.713   6.575
 3643POPC   C3A47441  17.558  44.735   6.900
 3643POPC   C4A47442  17.821  44.507   7.174
 3643POPC   C1B47443  17.122  44.421   6.153
 3643POPC   C2B47444  17.028  44.252   6.563
 3643POPC   C3B47445  17.059  44.410   6.984
 3643POPC   C4B47446  17.339  44.623   7.334
 3644POPC   NC347447  25.488   2.460   5.295
 3644POPC   PO447448  24.822   2.721   5.349
 3644POPC   GL147449  25.221   2.729   5.678
 3644POPC   GL247450  25.545   2.505   5.802
 3644POPC   C1A47451  25.410   2.900   6.084
 3644POPC   D2A47452  25.276   2.765   6.503
 3644POPC   C3A47453  25.403   2.870   6.911
 3644POPC   C4A47454  25.297   2.754   7.310
 3644POPC   C1B47455  25.643   2.301   6.235
 3644POPC   C2B47456  25.679   2.445   6.691
 3644POPC   C3B47457  25.651   2.381   7.167
 3644POPC   C4B47458  25.541   2.370   7.640
 3645POPC   NC347459  21.886  35.794   5.158
 3645POPC   PO447460  22.325  36.280   5.512
 3645POPC   GL147461  22.120  36.304   5.879
 3645POPC   GL247462  21.788  36.437   5.858
 3645POPC   C1A47463  22.126  36.340   6.312
 3645POPC   D2A47464  22.036  36.024   6.608
 3645POPC   C3A47465  22.197  36.098   7.016
 3645POPC   C4A47466  22.334  36.002   7.428
 3645POPC   C1B47467  21.602  36.302   6.290
 3645POPC   C2B47468  21.607  36.255   6.768
 3645POPC   C3B47469  21.733  35.939   7.033
 3645POPC   C4B47470  21.836  36.123   7.415
 3646POPC   NC347471  37.791  18.609   5.277
 3646POPC   PO447472  37.893  18.053   5.662
 3646POPC   GL147473  37.578  18.281   5.898
 3646POPC   GL247474  37.464  18.629   5.815
 3646POPC   C1A47475  37.630  18.212   6.347
 3646POPC   D2A47476  38.002  18.321   6.601
 3646POPC   C3A47477  37.945  18.291   7.041
 3646POPC   C4A47478  37.900  17.906   7.262
 3646POPC   C1B47479  37.568  18.714   6.261
 3646POPC   C2B47480  37.560  18.567   6.729
 3646POPC   C3B47481  37.427  18.236   7.030
 3646POPC   C4B47482  37.086  18.128   7.335
 3647POPC   NC347483  38.839  41.936   5.615
 3647POPC   PO447484  38.242  42.190   5.440
 3647POPC   GL147485  38.462  42.322   5.834
 3647POPC   GL247486  38.801  42.247   6.010
 3647POPC   C1A47487  38.480  42.569   6.208
 3647POPC   D2A47488  38.568  42.381   6.601
 3647POPC   C3A47489  38.403  42.502   6.966
 3647POPC   C4A47490  38.643  42.320   7.241
 3647POPC   C1B47491  38.587  41.994   6.270
 3647POPC   C2B47492  38.696  41.839   6.669
 3647POPC   C3B47493  38.841  41.859   7.072
 3647POPC   C4B47494  38.652  41.874   7.474
 3648POPC   NC347495  17.714  18.051   5.319
 3648POPC   PO447496  17.388  18.667   5.387
 3648POPC   GL147497  17.561  18.369   5.729
 3648POPC   GL247498  17.347  18.062   5.709
 3648POPC   C1A47499  17.604  18.190   6.180
 3648POPC   D2A47500  17.434  18.262   6.623
 3648POPC   C3A47501  17.587  18.228   7.078
 3648POPC   C4A47502  17.432  18.415   7.468
 3648POPC   C1B47503  17.396  17.740   6.057
 3648POPC   C2B47504  17.503  17.751   6.489
 3648POPC   C3B47505  17.344  17.815   6.905
 3648POPC   C4B47506  17.431  17.787   7.335
 3649POPC   NC347507  44.870  28.295   5.583
 3649POPC   PO447508  44.244  28.647   5.484
 3649POPC   GL147509  44.443  28.454   5.829
 3649POPC   GL247510  44.439  28.095   5.763
 3649POPC   C1A47511  44.704  28.420   6.217
 3649POPC   D2A47512  44.642  28.263   6.653
 3649POPC   C3A47513  44.907  28.442   6.945
 3649POPC   C4A47514  44.777  28.770   7.188
 3649POPC   C1B47515  44.323  28.075   6.186
 3649POPC   C2B47516  44.407  27.814   6.566
 3649POPC   C3B47517  44.335  27.940   6.985
 3649POPC   C4B47518  44.451  28.338   7.159
 3650POPC   NC347519  31.817  22.868   5.530
 3650POPC   PO447520  32.037  23.449   5.269
 3650POPC   GL147521  32.156  23.267   5.696
 3650POPC   GL247522  32.353  22.932   5.796
 3650POPC   C1A47523  32.056  23.167   6.145
 3650POPC   D2A47524  32.195  23.318   6.552
 3650POPC   C3A47525  32.101  23.133   6.970
 3650POPC   C4A47526  31.872  23.043   7.364
 3650POPC   C1B47527  32.431  22.848   6.280
 3650POPC   C2B47528  32.569  23.002   6.705
 3650POPC   C3B47529  32.550  22.883   7.162
 3650POPC   C4B47530  32.636  22.936   7.630
 3651POPC   NC347531  39.230  20.715   5.462
 3651POPC   PO447532  39.355  20.077   5.460
 3651POPC   GL147533  39.126  20.274   5.830
 3651POPC   GL247534  39.386  20.526   5.909
 3651POPC   C1A47535  39.030  20.465   6.261
 3651POPC   D2A47536  39.119  20.723   6.634
 3651POPC   C3A47537  39.113  20.562   7.056
 3651POPC   C4A47538  39.074  20.853   7.380
 3651POPC   C1B47539  39.404  20.877   6.224
 3651POPC   C2B47540  39.468  21.092   6.650
 3651POPC   C3B47541  39.505  20.882   7.070
 3651POPC   C4B47542  39.564  20.960   7.544
 3652POPC   NC347543  37.964  29.390   5.314
 3652POPC   PO447544  37.327  29.358   5.349
 3652POPC   GL147545  37.574  29.265   5.715
 3652POPC   GL247546  37.894  29.478   5.807
 3652POPC   C1A47547  37.487  29.099   6.123
 3652POPC   D2A47548  37.716  28.928   6.466
 3652POPC   C3A47549  37.824  29.108   6.807
 3652POPC   C4A47550  37.775  29.032   7.204
 3652POPC   C1B47551  37.959  29.350   6.253
 3652POPC   C2B47552  38.078  29.529   6.661
 3652POPC   C3B47553  38.066  29.490   7.117
 3652POPC   C4B47554  38.042  29.636   7.576
 3653POPC   NC347555  35.129  16.989   5.115
 3653POPC   PO447556  35.736  16.750   5.298
 3653POPC   GL147557  35.482  16.776   5.696
 3653POPC   GL247558  35.521  16.433   5.865
 3653POPC   C1A47559  35.251  16.793   6.114
 3653POPC   D2A47560  35.385  16.842   6.547
 3653POPC   C3A47561  35.242  16.892   6.973
 3653POPC   C4A47562  35.440  16.888   7.396
 3653POPC   C1B47563  35.581  16.377   6.319
 3653POPC   C2B47564  35.757  16.527   6.678
 3653POPC   C3B47565  35.549  16.502   7.082
 3653POPC   C4B47566  35.472  16.408   7.516
 3654POPC   NC347567  27.169  20.506   5.170
 3654POPC   PO447568  27.625  20.196   5.500
 3654POPC   GL147569  27.666  20.255   5.926
 3654POPC   GL247570  27.781  20.592   5.934
 3654POPC   C1A47571  27.423  20.319   6.300
 3654POPC   D2A47572  27.163  20.598   6.569
 3654POPC   C3A47573  27.253  20.542   7.020
 3654POPC   C4A47574  27.277  20.932   7.304
 3654POPC   C1B47575  27.660  20.761   6.355
 3654POPC   C2B47576  27.556  20.894   6.775
 3654POPC   C3B47577  27.729  20.718   7.143
 3654POPC   C4B47578  27.664  20.299   7.208
 3655POPC   NC347579   7.136  24.178   5.600
 3655POPC   PO447580   7.453  24.705   5.246
 3655POPC   GL147581   7.335  24.779   5.761
 3655POPC   GL247582   7.034  24.635   5.839
 3655POPC   C1A47583   7.529  24.778   6.193
 3655POPC   D2A47584   7.394  24.660   6.610
 3655POPC   C3A47585   7.545  24.310   6.842
 3655POPC   C4A47586   7.540  24.421   7.225
 3655POPC   C1B47587   7.130  24.409   6.230
 3655POPC   C2B47588   7.037  24.273   6.669
 3655POPC   C3B47589   7.067  24.542   7.034
 3655POPC   C4B47590   7.003  24.847   7.373
 3656POPC   NC347591  14.709  17.701   5.440
 3656POPC   PO447592  14.083  17.652   5.343
 3656POPC   GL147593  14.282  17.687   5.736
 3656POPC   GL247594  14.474  17.360   5.763
 3656POPC   C1A47595  14.228  17.590   6.167
 3656POPC   D2A47596  14.109  17.338   6.508
 3656POPC   C3A47597  14.274  17.483   6.899
 3656POPC   C4A47598  14.348  17.527   7.342
 3656POPC   C1B47599  14.387  17.091   6.138
 3656POPC   C2B47600  14.553  17.101   6.573
 3656POPC   C3B47601  14.556  17.076   7.029
 3656POPC   C4B47602  14.514  17.041   7.478
 3657POPC   NC347603   7.506   8.135   5.367
 3657POPC   PO447604   6.963   8.320   5.572
 3657POPC   GL147605   7.332   8.384   5.822
 3657POPC   GL247606   7.537   8.070   5.867
 3657POPC   C1A47607   7.514   8.390   6.257
 3657POPC   D2A47608   7.692   8.404   6.677
 3657POPC   C3A47609   7.399   8.317   6.983
 3657POPC   C4A47610   7.097   8.596   7.159
 3657POPC   C1B47611   7.408   7.865   6.255
 3657POPC   C2B47612   7.434   7.754   6.705
 3657POPC   C3B47613   7.425   7.773   7.161
 3657POPC   C4B47614   7.713   7.833   7.515
 3658POPC   NC347615  27.624  16.317   5.489
 3658POPC   PO447616  27.547  16.983   5.499
 3658POPC   GL147617  27.779  16.815   5.871
 3658POPC   GL247618  27.941  16.463   5.846
 3658POPC   C1A47619  27.563  16.647   6.243
 3658POPC   D2A47620  27.245  16.588   6.572
 3658POPC   C3A47621  27.369  16.759   6.951
 3658POPC   C4A47622  27.554  16.690   7.349
 3658POPC   C1B47623  28.049  16.502   6.244
 3658POPC   C2B47624  28.004  16.687   6.611
 3658POPC   C3B47625  27.971  16.568   7.034
 3658POPC   C4B47626  28.165  16.438   7.416
 3659POPC   NC347627  29.733  43.317   5.243
 3659POPC   PO447628  30.005  42.724   5.433
 3659POPC   GL147629  29.931  43.114   5.683
 3659POPC   GL247630  30.080  43.431   5.625
 3659POPC   C1A47631  29.835  43.275   6.079
 3659POPC   D2A47632  29.783  43.009   6.407
 3659POPC   C3A47633  29.917  43.158   6.806
 3659POPC   C4A47634  30.012  43.102   7.223
 3659POPC   C1B47635  30.312  43.456   5.997
 3659POPC   C2B47636  30.262  43.365   6.451
 3659POPC   C3B47637  30.395  43.330   6.897
 3659POPC   C4B47638  30.319  43.504   7.327
 3660POPC   NC347639  34.079  31.298   5.577
 3660POPC   PO447640  33.683  31.748   5.557
 3660POPC   GL147641  33.640  31.490   5.931
 3660POPC   GL247642  33.575  31.110   5.864
 3660POPC   C1A47643  33.862  31.583   6.369
 3660POPC   D2A47644  34.137  31.420   6.723
 3660POPC   C3A47645  33.993  31.635   7.095
 3660POPC   C4A47646  33.637  31.542   7.380
 3660POPC   C1B47647  33.772  31.110   6.249
 3660POPC   C2B47648  33.480  31.252   6.544
 3660POPC   C3B47649  33.627  31.283   6.932
 3660POPC   C4B47650  33.931  31.124   7.189
 3661POPC   NC347651  22.202  43.553   5.148
 3661POPC   PO447652  21.857  43.007   5.165
 3661POPC   GL147653  22.027  43.087   5.643
 3661POPC   GL247654  22.341  42.933   5.754
 3661POPC   C1A47655  22.010  43.166   6.116
 3661POPC   D2A47656  21.887  43.048   6.539
 3661POPC   C3A47657  22.028  43.242   6.945
 3661POPC   C4A47658  21.895  43.167   7.374
 3661POPC   C1B47659  22.522  43.067   6.134
 3661POPC   C2B47660  22.369  43.172   6.539
 3661POPC   C3B47661  22.528  43.081   6.949
 3661POPC   C4B47662  22.405  43.167   7.353
 3662POPC   NC347663  26.147   5.164   5.205
 3662POPC   PO447664  26.137   5.846   5.354
 3662POPC   GL147665  26.116   5.444   5.712
 3662POPC   GL247666  26.000   5.069   5.704
 3662POPC   C1A47667  26.053   5.423   6.188
 3662POPC   D2A47668  25.870   5.314   6.627
 3662POPC   C3A47669  26.154   5.319   7.010
 3662POPC   C4A47670  26.597   5.412   7.174
 3662POPC   C1B47671  26.069   4.912   6.148
 3662POPC   C2B47672  25.969   4.785   6.582
 3662POPC   C3B47673  26.168   4.749   6.993
 3662POPC   C4B47674  26.068   4.913   7.416
 3663POPC   NC347675  12.735  30.956   5.517
 3663POPC   PO447676  13.020  31.598   5.290
 3663POPC   GL147677  12.960  31.423   5.710
 3663POPC   GL247678  12.826  31.732   5.819
 3663POPC   C1A47679  12.974  31.410   6.200
 3663POPC   D2A47680  12.939  31.161   6.606
 3663POPC   C3A47681  12.708  31.308   6.958
 3663POPC   C4A47682  12.670  31.364   7.397
 3663POPC   C1B47683  12.650  31.859   6.212
 3663POPC   C2B47684  12.738  31.725   6.597
 3663POPC   C3B47685  13.110  31.652   6.798
 3663POPC   C4B47686  12.974  31.709   7.183
 3664POPC   NC347687  15.414   0.384   5.357
 3664POPC   PO447688  14.883   0.694   5.565
 3664POPC   GL147689  14.988   0.389   5.885
 3664POPC   GL247690  15.285   0.224   5.837
 3664POPC   C1A47691  15.113   0.397   6.331
 3664POPC   D2A47692  15.305   0.703   6.595
 3664POPC   C3A47693  15.162   0.590   6.975
 3664POPC   C4A47694  14.870   0.308   7.145
 3664POPC   C1B47695  15.509   0.093   6.190
 3664POPC   C2B47696  15.525   0.230   6.629
 3664POPC   C3B47697  15.550   0.274   7.082
 3664POPC   C4B47698  15.557   0.261   7.565
 3665POPC   NC347699  18.768  36.269   5.475
 3665POPC   PO447700  19.309  35.830   5.522
 3665POPC   GL147701  19.116  36.111   5.825
 3665POPC   GL247702  18.765  36.012   5.902
 3665POPC   C1A47703  19.035  36.303   6.221
 3665POPC   D2A47704  18.915  36.096   6.603
 3665POPC   C3A47705  19.063  36.177   7.006
 3665POPC   C4A47706  19.437  36.015   7.187
 3665POPC   C1B47707  18.535  36.160   6.255
 3665POPC   C2B47708  18.426  36.061   6.689
 3665POPC   C3B47709  18.510  36.164   7.142
 3665POPC   C4B47710  18.550  35.941   7.561
 3666POPC   NC347711   3.320  32.545   5.599
 3666POPC   PO447712   2.660  32.407   5.407
 3666POPC   GL147713   2.895  32.298   5.794
 3666POPC   GL247714   2.643  32.114   5.874
 3666POPC   C1A47715   2.999  32.220   6.259
 3666POPC   D2A47716   2.812  32.447   6.646
 3666POPC   C3A47717   2.715  32.295   7.073
 3666POPC   C4A47718   2.993  32.286   7.394
 3666POPC   C1B47719   2.548  32.457   6.162
 3666POPC   C2B47720   2.311  32.522   6.558
 3666POPC   C3B47721   2.280  32.563   7.039
 3666POPC   C4B47722   2.516  32.642   7.474
 3667POPC   NC347723  29.228  19.118   5.445
 3667POPC   PO447724  28.668  19.209   5.178
 3667POPC   GL147725  28.811  18.875   5.627
 3667POPC   GL247726  29.184  18.841   5.832
 3667POPC   C1A47727  28.809  18.714   6.103
 3667POPC   D2A47728  29.199  18.858   6.345
 3667POPC   C3A47729  29.280  18.798   6.770
 3667POPC   C4A47730  29.084  18.971   7.140
 3667POPC   C1B47731  29.530  19.099   6.032
 3667POPC   C2B47732  29.657  19.143   6.453
 3667POPC   C3B47733  29.646  19.180   6.888
 3667POPC   C4B47734  29.627  18.829   7.141
 3668POPC   NC347735   4.436  39.475   5.559
 3668POPC   PO447736   4.409  38.786   5.299
 3668POPC   GL147737   4.364  38.967   5.735
 3668POPC   GL247738   4.017  39.059   5.839
 3668POPC   C1A47739   4.387  39.136   6.195
 3668POPC   D2A47740   4.383  39.383   6.622
 3668POPC   C3A47741   4.578  39.147   6.968
 3668POPC   C4A47742   4.500  39.141   7.400
 3668POPC   C1B47743   3.904  38.972   6.282
 3668POPC   C2B47744   3.967  38.924   6.720
 3668POPC   C3B47745   4.078  39.202   7.078
 3668POPC   C4B47746   4.111  39.476   7.441
 3669POPC   NC347747   4.152  38.336   5.262
 3669POPC   PO447748   3.462  38.470   5.355
 3669POPC   GL147749   3.365  38.515   5.818
 3669POPC   GL247750   3.650  38.647   6.006
 3669POPC   C1A47751   3.284  38.464   6.296
 3669POPC   D2A47752   3.423  38.709   6.674
 3669POPC   C3A47753   3.321  38.491   7.047
 3669POPC   C4A47754   3.429  38.070   7.167
 3669POPC   C1B47755   3.810  38.438   6.384
 3669POPC   C2B47756   3.748  38.280   6.804
 3669POPC   C3B47757   3.836  38.377   7.236
 3669POPC   C4B47758   3.859  38.676   7.583
 3670POPC   NC347759  10.053  24.718   5.439
 3670POPC   PO447760   9.750  24.165   5.697
 3670POPC   GL147761   9.598  24.448   5.945
 3670POPC   GL247762   9.728  24.787   5.857
 3670POPC   C1A47763   9.678  24.309   6.346
 3670POPC   D2A47764   9.637  24.448   6.728
 3670POPC   C3A47765   9.707  24.201   7.132
 3670POPC   C4A47766   9.960  24.175   7.560
 3670POPC   C1B47767   9.594  24.827   6.308
 3670POPC   C2B47768   9.826  24.920   6.706
 3670POPC   C3B47769   9.748  24.727   7.120
 3670POPC   C4B47770   9.299  24.515   7.108
 3671POPC   NC347771   8.084  30.036   5.274
 3671POPC   PO447772   8.419  29.447   5.399
 3671POPC   GL147773   8.287  29.797   5.714
 3671POPC   GL247774   7.915  29.909   5.766
 3671POPC   C1A47775   8.271  30.014   6.147
 3671POPC   D2A47776   8.302  30.191   6.587
 3671POPC   C3A47777   8.347  29.894   6.928
 3671POPC   C4A47778   8.402  29.927   7.358
 3671POPC   C1B47779   7.732  29.980   6.209
 3671POPC   C2B47780   7.758  30.093   6.658
 3671POPC   C3B47781   7.871  30.040   7.093
 3671POPC   C4B47782   7.917  30.150   7.534
 3672POPC   NC347783  21.548  14.012   4.959
 3672POPC   PO447784  21.608  13.504   5.426
 3672POPC   GL147785  21.315  13.715   5.719
 3672POPC   GL247786  21.622  13.758   5.919
 3672POPC   C1A47787  21.164  13.926   6.127
 3672POPC   D2A47788  21.277  13.886   6.593
 3672POPC   C3A47789  21.091  13.666   6.929
 3672POPC   C4A47790  21.341  13.363   7.124
 3672POPC   C1B47791  21.531  13.568   6.278
 3672POPC   C2B47792  21.622  13.456   6.698
 3672POPC   C3B47793  21.753  13.688   7.052
 3672POPC   C4B47794  21.663  14.110   7.157
 3673POPC   NC347795  30.842  24.267   5.352
 3673POPC   PO447796  30.583  24.812   5.408
 3673POPC   GL147797  30.698  24.582   5.779
 3673POPC   GL247798  30.387  24.508   5.811
 3673POPC   C1A47799  30.878  24.509   6.245
 3673POPC   D2A47800  30.813  24.746   6.658
 3673POPC   C3A47801  30.705  24.478   7.014
 3673POPC   C4A47802  30.414  24.132   7.099
 3673POPC   C1B47803  30.416  24.690   6.190
 3673POPC   C2B47804  30.373  24.488   6.553
 3673POPC   C3B47805  30.215  24.587   6.918
 3673POPC   C4B47806  30.353  24.870   7.205
 3674POPC   NC347807  41.217  18.902   5.465
 3674POPC   PO447808  41.581  19.380   5.492
 3674POPC   GL147809  41.535  19.025   5.857
 3674POPC   GL247810  41.176  19.031   5.955
 3674POPC   C1A47811  41.504  18.761   6.260
 3674POPC   D2A47812  41.540  18.894   6.704
 3674POPC   C3A47813  41.672  18.766   7.145
 3674POPC   C4A47814  41.814  18.964   7.544
 3674POPC   C1B47815  41.322  19.240   6.343
 3674POPC   C2B47816  41.322  19.373   6.787
 3674POPC   C3B47817  41.238  19.445   7.238
 3674POPC   C4B47818  41.501  19.364   7.645
 3675POPC   NC347819   1.308  37.481   5.490
 3675POPC   PO447820   0.954  38.022   5.281
 3675POPC   GL147821   1.021  37.866   5.710
 3675POPC   GL247822   1.005  37.536   5.898
 3675POPC   C1A47823   1.074  37.987   6.136
 3675POPC   D2A47824   1.118  37.944   6.584
 3675POPC   C3A47825   1.463  38.073   6.832
 3675POPC   C4A47826   1.392  37.908   7.243
 3675POPC   C1B47827   1.141  37.507   6.321
 3675POPC   C2B47828   1.076  37.457   6.754
 3675POPC   C3B47829   1.031  37.536   7.168
 3675POPC   C4B47830   1.391  37.409   7.376
 3676POPC   NC347831  13.268  15.458   5.118
 3676POPC   PO447832  12.979  14.924   5.405
 3676POPC   GL147833  12.864  15.177   5.771
 3676POPC   GL247834  13.143  15.193   5.965
 3676POPC   C1A47835  12.745  15.447   6.147
 3676POPC   D2A47836  12.812  15.290   6.535
 3676POPC   C3A47837  12.753  15.501   6.933
 3676POPC   C4A47838  12.830  15.357   7.335
 3676POPC   C1B47839  12.897  14.870   6.171
 3676POPC   C2B47840  12.685  14.799   6.542
 3676POPC   C3B47841  12.874  14.967   6.939
 3676POPC   C4B47842  13.084  14.857   7.316
 3677POPC   NC347843   5.128  32.455   5.561
 3677POPC   PO447844   5.026  31.824   5.428
 3677POPC   GL147845   4.934  32.078   5.860
 3677POPC   GL247846   4.760  32.445   5.924
 3677POPC   C1A47847   5.102  32.311   6.249
 3677POPC   D2A47848   5.255  32.382   6.675
 3677POPC   C3A47849   5.011  32.158   7.005
 3677POPC   C4A47850   5.073  32.187   7.455
 3677POPC   C1B47851   4.592  32.461   6.311
 3677POPC   C2B47852   4.790  32.557   6.730
 3677POPC   C3B47853   4.814  32.572   7.216
 3677POPC   C4B47854   4.778  32.529   7.697
 3678POPC   NC347855  14.388  16.930   5.466
 3678POPC   PO447856  14.811  16.422   5.459
 3678POPC   GL147857  14.613  16.631   5.865
 3678POPC   GL247858  14.227  16.636   5.910
 3678POPC   C1A47859  14.659  16.640   6.350
 3678POPC   D2A47860  14.823  16.699   6.788
 3678POPC   C3A47861  14.590  16.545   7.195
 3678POPC   C4A47862  14.728  16.602   7.638
 3678POPC   C1B47863  14.153  16.681   6.372
 3678POPC   C2B47864  14.288  16.693   6.797
 3678POPC   C3B47865  14.135  16.789   7.215
 3678POPC   C4B47866  13.816  16.659   7.508
 3679POPC   NC347867  10.861  24.732   5.496
 3679POPC   PO447868  10.384  24.322   5.516
 3679POPC   GL147869  10.306  24.633   5.877
 3679POPC   GL247870  10.630  24.761   5.953
 3679POPC   C1A47871  10.109  24.642   6.321
 3679POPC   D2A47872  10.264  24.608   6.775
 3679POPC   C3A47873  10.208  24.376   7.149
 3679POPC   C4A47874  10.464  24.321   7.532
 3679POPC   C1B47875  10.638  24.727   6.442
 3679POPC   C2B47876  10.723  24.938   6.872
 3679POPC   C3B47877  10.967  25.019   7.255
 3679POPC   C4B47878  10.939  24.732   7.609
 3680POPC   NC347879   1.162  19.825   5.478
 3680POPC   PO447880   1.711  19.399   5.530
 3680POPC   GL147881   1.422  19.580   5.829
 3680POPC   GL247882   1.016  19.548   5.893
 3680POPC   C1A47883   1.355  19.802   6.183
 3680POPC   D2A47884   1.092  19.659   6.493
 3680POPC   C3A47885   1.258  19.885   6.839
 3680POPC   C4A47886   1.191  20.027   7.235
 3680POPC   C1B47887   0.871  19.973   6.112
 3680POPC   C2B47888   0.984  20.193   6.527
 3680POPC   C3B47889   0.837  20.242   6.959
 3680POPC   C4B47890   0.784  20.314   7.420
 3681POPC   NC347891  34.801  15.590   5.628
 3681POPC   PO447892  34.789  16.184   5.303
 3681POPC   GL147893  34.549  16.087   5.754
 3681POPC   GL247894  34.630  15.800   6.032
 3681POPC   C1A47895  34.588  16.232   6.227
 3681POPC   D2A47896  34.773  16.088   6.635
 3681POPC   C3A47897  34.574  16.140   7.047
 3681POPC   C4A47898  34.631  16.281   7.478
 3681POPC   C1B47899  34.316  15.724   6.363
 3681POPC   C2B47900  34.256  15.767   6.828
 3681POPC   C3B47901  34.516  15.665   7.207
 3681POPC   C4B47902  34.985  15.742   7.087
 3682POPC   NC347903  26.414   2.611   5.420
 3682POPC   PO447904  25.798   2.829   5.398
 3682POPC   GL147905  25.999   2.764   5.790
 3682POPC   GL247906  26.315   2.914   5.832
 3682POPC   C1A47907  25.879   2.744   6.231
 3682POPC   D2A47908  25.774   3.010   6.583
 3682POPC   C3A47909  25.890   2.837   7.004
 3682POPC   C4A47910  25.798   2.784   7.463
 3682POPC   C1B47911  26.355   2.556   6.123
 3682POPC   C2B47912  26.196   2.426   6.540
 3682POPC   C3B47913  26.340   2.595   6.950
 3682POPC   C4B47914  26.285   2.879   7.317
 3683POPC   NC347915  37.858  33.749   5.296
 3683POPC   PO447916  37.359  34.138   5.570
 3683POPC   GL147917  37.463  33.696   5.712
 3683POPC   GL247918  37.637  33.831   5.965
 3683POPC   C1A47919  37.418  33.418   6.132
 3683POPC   D2A47920  37.321  33.594   6.554
 3683POPC   C3A47921  37.499  33.467   6.966
 3683POPC   C4A47922  37.514  33.785   7.263
 3683POPC   C1B47923  37.793  33.751   6.383
 3683POPC   C2B47924  37.902  33.757   6.833
 3683POPC   C3B47925  38.014  33.774   7.262
 3683POPC   C4B47926  37.869  33.766   7.705
 3684POPC   NC347927   7.177  38.495   5.549
 3684POPC   PO447928   7.692  38.163   5.536
 3684POPC   GL147929   7.522  38.361   5.892
 3684POPC   GL247930   7.508  38.711   5.850
 3684POPC   C1A47931   7.306  38.443   6.271
 3684POPC   D2A47932   7.615  38.328   6.557
 3684POPC   C3A47933   7.603  38.493   6.945
 3684POPC   C4A47934   7.714  38.305   7.343
 3684POPC   C1B47935   7.700  38.774   6.230
 3684POPC   C2B47936   7.497  38.880   6.598
 3684POPC   C3B47937   7.651  39.016   6.966
 3684POPC   C4B47938   7.849  38.785   7.277
 3685POPC   NC347939   2.185  38.809   5.385
 3685POPC   PO447940   1.927  38.198   5.181
 3685POPC   GL147941   1.963  38.377   5.591
 3685POPC   GL247942   2.307  38.456   5.725
 3685POPC   C1A47943   1.889  38.341   6.033
 3685POPC   D2A47944   1.926  38.217   6.486
 3685POPC   C3A47945   1.759  38.525   6.795
 3685POPC   C4A47946   1.924  38.687   7.193
 3685POPC   C1B47947   2.378  38.389   6.182
 3685POPC   C2B47948   2.436  38.207   6.601
 3685POPC   C3B47949   2.200  38.290   6.972
 3685POPC   C4B47950   2.257  38.355   7.402
 3686POPC   NC347951  19.423  41.528   5.204
 3686POPC   PO447952  18.909  41.728   5.610
 3686POPC   GL147953  19.000  41.447   5.952
 3686POPC   GL247954  19.379  41.322   6.047
 3686POPC   C1A47955  18.943  41.198   6.312
 3686POPC   D2A47956  19.171  41.061   6.662
 3686POPC   C3A47957  19.085  41.385   6.959
 3686POPC   C4A47958  19.074  41.443   7.401
 3686POPC   C1B47959  19.250  41.624   6.355
 3686POPC   C2B47960  19.109  41.845   6.709
 3686POPC   C3B47961  19.253  41.850   7.142
 3686POPC   C4B47962  19.282  41.899   7.612
 3687POPC   NC347963  40.923  13.118   5.521
 3687POPC   PO447964  40.483  12.615   5.404
 3687POPC   GL147965  40.710  12.748   5.796
 3687POPC   GL247966  40.977  12.542   5.870
 3687POPC   C1A47967  40.752  13.051   6.172
 3687POPC   D2A47968  40.959  13.170   6.578
 3687POPC   C3A47969  40.952  13.106   7.060
 3687POPC   C4A47970  40.628  13.170   7.396
 3687POPC   C1B47971  40.932  12.600   6.305
 3687POPC   C2B47972  40.927  12.682   6.739
 3687POPC   C3B47973  40.937  12.527   7.128
 3687POPC   C4B47974  40.891  12.738   7.495
 3688POPC   NC347975   5.638  29.185   5.333
 3688POPC   PO447976   6.113  28.737   5.337
 3688POPC   GL147977   5.817  28.816   5.718
 3688POPC   GL247978   5.837  29.162   5.815
 3688POPC   C1A47979   5.762  28.825   6.193
 3688POPC   D2A47980   6.075  28.843   6.561
 3688POPC   C3A47981   5.911  28.931   6.987
 3688POPC   C4A47982   5.915  29.175   7.378
 3688POPC   C1B47983   6.063  29.254   6.216
 3688POPC   C2B47984   5.868  29.324   6.624
 3688POPC   C3B47985   5.606  29.365   6.995
 3688POPC   C4B47986   5.576  29.634   7.320
 3689POPC   NC347987  33.893  23.060   5.499
 3689POPC   PO447988  33.445  22.558   5.426
 3689POPC   GL147989  33.572  22.833   5.799
 3689POPC   GL247990  33.468  23.212   5.766
 3689POPC   C1A47991  33.809  23.050   6.160
 3689POPC   D2A47992  34.017  22.942   6.551
 3689POPC   C3A47993  33.841  22.783   6.939
 3689POPC   C4A47994  34.047  22.567   7.293
 3689POPC   C1B47995  33.318  23.303   6.192
 3689POPC   C2B47996  33.533  23.191   6.600
 3689POPC   C3B47997  33.440  23.078   7.044
 3689POPC   C4B47998  33.463  23.091   7.517
 3690POPC   NC347999  17.679  34.955   5.404
 3690POPC   PO448000  17.201  35.350   5.324
 3690POPC   GL148001  17.463  35.288   5.773
 3690POPC   GL248002  17.835  35.407   5.820
 3690POPC   C1A48003  17.507  35.188   6.269
 3690POPC   D2A48004  17.762  35.090   6.678
 3690POPC   C3A48005  17.565  35.140   7.097
 3690POPC   C4A48006  17.372  35.072   7.511
 3690POPC   C1B48007  17.882  35.516   6.271
 3690POPC   C2B48008  17.591  35.552   6.661
 3690POPC   C3B48009  17.677  35.684   7.091
 3690POPC   C4B48010  17.742  35.466   7.475
 3691POPC   NC348011  44.325   6.936   5.446
 3691POPC   PO448012  43.751   6.429   5.536
 3691POPC   GL148013  43.799   6.496   5.923
 3691POPC   GL248014  43.766   6.852   5.883
 3691POPC   C1A48015  43.662   6.465   6.329
 3691POPC   D2A48016  43.834   6.478   6.720
 3691POPC   C3A48017  43.596   6.399   7.080
 3691POPC   C4A48018  43.881   6.325   7.364
 3691POPC   C1B48019  44.035   6.816   6.276
 3691POPC   C2B48020  44.197   6.837   6.700
 3691POPC   C3B48021  43.970   6.798   7.103
 3691POPC   C4B48022  43.734   6.833   7.471
 3692POPC   NC348023   6.863   1.436   5.398
 3692POPC   PO448024   6.398   0.951   5.288
 3692POPC   GL148025   6.504   0.903   5.731
 3692POPC   GL248026   6.724   1.124   5.775
 3692POPC   C1A48027   6.494   0.968   6.199
 3692POPC   D2A48028   6.428   1.213   6.606
 3692POPC   C3A48029   6.599   1.017   6.993
 3692POPC   C4A48030   6.471   1.006   7.444
 3692POPC   C1B48031   6.767   1.421   6.086
 3692POPC   C2B48032   6.838   1.528   6.501
 3692POPC   C3B48033   6.689   1.594   6.916
 3692POPC   C4B48034   6.778   1.401   7.290
 3693POPC   NC348035  17.471   7.071   5.523
 3693POPC   PO448036  17.692   7.724   5.356
 3693POPC   GL148037  17.664   7.485   5.779
 3693POPC   GL248038  17.446   7.207   5.999
 3693POPC   C1A48039  17.793   7.467   6.229
 3693POPC   D2A48040  17.527   7.460   6.614
 3693POPC   C3A48041  17.729   7.304   7.006
 3693POPC   C4A48042  17.730   7.234   7.475
 3693POPC   C1B48043  17.082   7.097   6.277
 3693POPC   C2B48044  16.950   7.347   6.604
 3693POPC   C3B48045  17.140   7.411   6.984
 3693POPC   C4B48046  17.289   7.131   7.258
 3694POPC   NC348047  10.733  25.464   5.428
 3694POPC   PO448048  10.461  24.929   5.416
 3694POPC   GL148049  10.271  25.164   5.729
 3694POPC   GL248050  10.600  25.259   5.863
 3694POPC   C1A48051  10.237  25.552   6.019
 3694POPC   D2A48052  10.539  25.517   6.391
 3694POPC   C3A48053  10.437  25.538   6.847
 3694POPC   C4A48054  10.593  25.366   7.232
 3694POPC   C1B48055  10.353  25.084   6.214
 3694POPC   C2B48056  10.304  25.091   6.637
 3694POPC   C3B48057  10.216  25.031   7.072
 3694POPC   C4B48058  10.503  24.804   7.336
 3695POPC   NC348059  35.898  24.201   5.408
 3695POPC   PO448060  35.848  24.880   5.524
 3695POPC   GL148061  36.011  24.610   5.831
 3695POPC   GL248062  36.353  24.745   5.856
 3695POPC   C1A48063  35.937  24.421   6.247
 3695POPC   D2A48064  36.203  24.357   6.634
 3695POPC   C3A48065  36.074  24.413   7.039
 3695POPC   C4A48066  35.819  24.759   7.119
 3695POPC   C1B48067  36.460  24.427   6.180
 3695POPC   C2B48068  36.612  24.097   6.503
 3695POPC   C3B48069  36.545  24.060   6.960
 3695POPC   C4B48070  36.441  24.221   7.354
 3696POPC   NC348071  28.128  33.556   5.403
 3696POPC   PO448072  28.570  34.012   5.488
 3696POPC   GL148073  28.412  33.878   5.839
 3696POPC   GL248074  28.520  33.536   5.764
 3696POPC   C1A48075  28.296  33.899   6.268
 3696POPC   D2A48076  28.174  33.769   6.674
 3696POPC   C3A48077  28.351  33.880   7.052
 3696POPC   C4A48078  28.270  34.172   7.416
 3696POPC   C1B48079  28.673  33.557   6.182
 3696POPC   C2B48080  28.554  33.423   6.581
 3696POPC   C3B48081  28.645  33.426   6.995
 3696POPC   C4B48082  28.602  33.610   7.387
 3697POPC   NC348083  11.724   5.129   5.607
 3697POPC   PO448084  12.285   5.451   5.519
 3697POPC   GL148085  12.194   5.175   5.832
 3697POPC   GL248086  12.035   5.475   5.977
 3697POPC   C1A48087  12.048   5.067   6.269
 3697POPC   D2A48088  12.099   5.312   6.653
 3697POPC   C3A48089  12.163   5.073   7.052
 3697POPC   C4A48090  12.455   4.743   7.201
 3697POPC   C1B48091  11.692   5.482   6.259
 3697POPC   C2B48092  11.580   5.433   6.687
 3697POPC   C3B48093  11.776   5.425   7.066
 3697POPC   C4B48094  11.789   5.192   7.407
 3698POPC   NC348095  26.313  33.977   5.256
 3698POPC   PO448096  25.615  33.926   5.316
 3698POPC   GL148097  25.880  34.083   5.689
 3698POPC   GL248098  25.623  34.107   5.943
 3698POPC   C1A48099  26.099  34.152   6.141
 3698POPC   D2A48100  26.142  33.905   6.567
 3698POPC   C3A48101  26.179  34.033   7.015
 3698POPC   C4A48102  26.253  33.896   7.453
 3698POPC   C1B48103  25.630  33.982   6.410
 3698POPC   C2B48104  25.675  33.978   6.885
 3698POPC   C3B48105  25.832  33.665   7.214
 3698POPC   C4B48106  25.924  33.554   7.646
 3699POPC   NC348107   9.493   5.953   5.560
 3699POPC   PO448108   8.852   5.551   5.544
 3699POPC   GL148109   8.906   5.791   5.924
 3699POPC   GL248110   8.753   6.144   5.981
 3699POPC   C1A48111   8.788   5.777   6.356
 3699POPC   D2A48112   8.888   6.037   6.714
 3699POPC   C3A48113   8.985   5.764   7.075
 3699POPC   C4A48114   8.708   5.693   7.430
 3699POPC   C1B48115   9.146   6.127   6.249
 3699POPC   C2B48116   9.388   6.086   6.616
 3699POPC   C3B48117   9.264   6.205   7.038
 3699POPC   C4B48118   8.911   6.218   7.310
 3700POPC   NC348119  34.429  28.889   5.454
 3700POPC   PO448120  34.928  29.335   5.541
 3700POPC   GL148121  34.559  29.288   5.797
 3700POPC   GL248122  34.703  28.979   5.863
 3700POPC   C1A48123  34.347  29.214   6.213
 3700POPC   D2A48124  34.097  29.334   6.597
 3700POPC   C3A48125  34.198  29.225   7.036
 3700POPC   C4A48126  34.463  29.002   7.303
 3700POPC   C1B48127  34.792  28.782   6.191
 3700POPC   C2B48128  34.560  28.851   6.539
 3700POPC   C3B48129  34.732  28.882   6.908
 3700POPC   C4B48130  34.964  28.909   7.266
 3701POPC   NC348131  25.986  18.248   5.588
 3701POPC   PO448132  26.313  18.782   5.477
 3701POPC   GL148133  26.268  18.628   5.847
 3701POPC   GL248134  25.916  18.679   5.898
 3701POPC   C1A48135  26.330  18.390   6.189
 3701POPC   D2A48136  26.213  18.250   6.595
 3701POPC   C3A48137  26.097  18.522   6.900
 3701POPC   C4A48138  26.239  18.351   7.264
 3701POPC   C1B48139  25.825  18.355   6.216
 3701POPC   C2B48140  25.766  18.029   6.495
 3701POPC   C3B48141  25.705  18.088   6.920
 3701POPC   C4B48142  25.768  18.204   7.326
 3702POPC   NC348143   0.118  13.860   5.485
 3702POPC   PO448144   0.339  13.285   5.367
 3702POPC   GL148145   0.533  13.477   5.758
 3702POPC   GL248146   0.238  13.579   5.892
 3702POPC   C1A48147   0.596  13.532   6.247
 3702POPC   D2A48148   0.775  13.884   6.535
 3702POPC   C3A48149   0.746  13.766   6.983
 3702POPC   C4A48150   0.401  13.525   7.200
 3702POPC   C1B48151   0.203  13.908   6.184
 3702POPC   C2B48152   0.264  13.779   6.593
 3702POPC   C3B48153   0.269  13.957   6.958
 3702POPC   C4B48154  44.933  13.910   7.125
 3703POPC   NC348155  37.455  38.713   5.156
 3703POPC   PO448156  37.857  38.176   5.451
 3703POPC   GL148157  37.585  38.350   5.776
 3703POPC   GL248158  37.622  38.710   5.748
 3703POPC   C1A48159  37.566  38.484   6.216
 3703POPC   D2A48160  37.488  38.390   6.651
 3703POPC   C3A48161  37.728  38.228   6.995
 3703POPC   C4A48162  37.368  38.261   7.267
 3703POPC   C1B48163  37.869  38.879   6.120
 3703POPC   C2B48164  37.816  38.780   6.554
 3703POPC   C3B48165  37.900  38.709   6.961
 3703POPC   C4B48166  37.645  38.678   7.281
 3704POPC   NC348167  20.334  35.515   5.669
 3704POPC   PO448168  20.762  35.087   5.268
 3704POPC   GL148169  20.707  35.158   5.728
 3704POPC   GL248170  20.386  35.055   5.902
 3704POPC   C1A48171  20.743  35.321   6.172
 3704POPC   D2A48172  20.657  35.520   6.583
 3704POPC   C3A48173  20.535  35.294   6.936
 3704POPC   C4A48174  20.598  35.571   7.290
 3704POPC   C1B48175  20.239  35.374   6.296
 3704POPC   C2B48176  20.060  35.500   6.732
 3704POPC   C3B48177  20.114  35.439   7.181
 3704POPC   C4B48178  20.236  35.351   7.606
 3705POPC   NC348179  18.918  40.585   5.532
 3705POPC   PO448180  19.229  41.228   5.519
 3705POPC   GL148181  19.114  40.931   5.859
 3705POPC   GL248182  18.769  41.004   5.880
 3705POPC   C1A48183  19.279  40.576   6.125
 3705POPC   D2A48184  19.512  40.469   6.526
 3705POPC   C3A48185  19.360  40.633   6.927
 3705POPC   C4A48186  19.265  40.972   7.211
 3705POPC   C1B48187  18.810  40.710   6.225
 3705POPC   C2B48188  18.974  40.565   6.593
 3705POPC   C3B48189  18.847  40.689   7.000
 3705POPC   C4B48190  18.749  41.063   7.204
 3706POPC   NC348191  18.017  40.780   5.100
 3706POPC   PO448192  18.468  40.750   5.578
 3706POPC   GL148193  18.340  40.739   5.969
 3706POPC   GL248194  18.451  40.455   6.008
 3706POPC   C1A48195  18.386  40.964   6.340
 3706POPC   D2A48196  18.593  41.126   6.706
 3706POPC   C3A48197  18.257  41.179   7.002
 3706POPC   C4A48198  18.156  41.082   7.416
 3706POPC   C1B48199  18.197  40.485   6.379
 3706POPC   C2B48200  18.168  40.737   6.741
 3706POPC   C3B48201  18.324  40.682   7.117
 3706POPC   C4B48202  18.544  40.353   7.261
 3707POPC   NC348203  39.409  43.992   5.505
 3707POPC   PO448204  38.817  43.797   5.580
 3707POPC   GL148205  39.062  44.008   5.853
 3707POPC   GL248206  38.917  44.246   5.970
 3707POPC   C1A48207  39.278  43.971   6.232
 3707POPC   D2A48208  39.205  43.735   6.582
 3707POPC   C3A48209  39.349  43.895   6.942
 3707POPC   C4A48210  39.146  44.157   7.242
 3707POPC   C1B48211  38.809  43.777   6.231
 3707POPC   C2B48212  38.714  43.609   6.656
 3707POPC   C3B48213  38.900  43.703   7.073
 3707POPC   C4B48214  38.925  43.782   7.534
 3708POPC   NC348215  22.900  37.266   5.204
 3708POPC   PO448216  23.146  36.616   5.396
 3708POPC   GL148217  22.978  36.782   5.770
 3708POPC   GL248218  22.741  36.551   5.931
 3708POPC   C1A48219  23.084  36.905   6.206
 3708POPC   D2A48220  22.856  36.893   6.607
 3708POPC   C3A48221  22.943  37.164   6.972
 3708POPC   C4A48222  22.743  37.146   7.377
 3708POPC   C1B48223  23.145  36.388   6.111
 3708POPC   C2B48224  23.276  36.447   6.551
 3708POPC   C3B48225  23.094  36.567   6.957
 3708POPC   C4B48226  23.260  36.852   7.244
 3709POPC   NC348227  40.125   2.693   5.334
 3709POPC   PO448228  39.676   3.115   5.522
 3709POPC   GL148229  40.064   2.986   5.764
 3709POPC   GL248230  40.008   2.643   5.854
 3709POPC   C1A48231  40.274   2.936   6.160
 3709POPC   D2A48232  40.285   2.637   6.536
 3709POPC   C3A48233  40.133   2.840   6.900
 3709POPC   C4A48234  40.203   2.769   7.311
 3709POPC   C1B48235  39.837   2.631   6.285
 3709POPC   C2B48236  39.825   2.422   6.706
 3709POPC   C3B48237  39.783   2.521   7.143
 3709POPC   C4B48238  39.723   2.934   7.245
 3710POPC   NC348239  40.830   2.464   5.469
 3710POPC   PO448240  40.426   3.050   5.342
 3710POPC   GL148241  40.571   2.825   5.748
 3710POPC   GL248242  40.959   2.774   5.835
 3710POPC   C1A48243  40.615   2.564   6.151
 3710POPC   D2A48244  40.883   2.636   6.541
 3710POPC   C3A48245  40.644   2.698   6.921
 3710POPC   C4A48246  40.651   2.972   7.281
 3710POPC   C1B48247  41.227   2.802   6.199
 3710POPC   C2B48248  41.444   2.771   6.581
 3710POPC   C3B48249  41.288   2.886   7.010
 3710POPC   C4B48250  41.026   2.627   7.262
 3711POPC   NC348251  43.327   6.310   5.415
 3711POPC   PO448252  42.995   5.773   5.384
 3711POPC   GL148253  43.211   5.853   5.758
 3711POPC   GL248254  43.036   5.574   5.944
 3711POPC   C1A48255  43.329   6.099   6.142
 3711POPC   D2A48256  43.243   5.865   6.503
 3711POPC   C3A48257  43.406   5.923   6.938
 3711POPC   C4A48258  43.232   6.015   7.347
 3711POPC   C1B48259  42.830   5.948   6.100
 3711POPC   C2B48260  42.837   6.196   6.457
 3711POPC   C3B48261  42.893   6.013   6.851
 3711POPC   C4B48262  42.712   6.012   7.223
 3712POPC   NC348263  37.267  37.073   5.324
 3712POPC   PO448264  37.615  36.558   5.423
 3712POPC   GL148265  37.599  36.917   5.742
 3712POPC   GL248266  37.450  37.279   5.761
 3712POPC   C1A48267  37.846  37.067   6.079
 3712POPC   D2A48268  37.989  36.929   6.468
 3712POPC   C3A48269  37.983  36.992   6.924
 3712POPC   C4A48270  37.830  36.844   7.339
 3712POPC   C1B48271  37.337  37.142   6.180
 3712POPC   C2B48272  37.520  37.112   6.586
 3712POPC   C3B48273  37.476  36.933   6.985
 3712POPC   C4B48274  37.399  37.123   7.386
 3713POPC   NC348275  33.417  24.152   5.452
 3713POPC   PO448276  33.740  23.513   5.401
 3713POPC   GL148277  33.859  23.778   5.727
 3713POPC   GL248278  33.507  23.757   5.812
 3713POPC   C1A48279  33.776  24.102   6.083
 3713POPC   D2A48280  33.519  24.216   6.454
 3713POPC   C3A48281  33.649  24.027   6.846
 3713POPC   C4A48282  33.959  23.814   7.075
 3713POPC   C1B48283  33.716  23.598   6.190
 3713POPC   C2B48284  33.871  23.585   6.603
 3713POPC   C3B48285  33.902  23.306   6.943
 3713POPC   C4B48286  33.765  23.438   7.330
 3714POPC   NC348287  23.903  42.737   5.438
 3714POPC   PO448288  23.380  42.264   5.434
 3714POPC   GL148289  23.676  42.266   5.745
 3714POPC   GL248290  23.584  42.595   5.804
 3714POPC   C1A48291  23.699  42.178   6.189
 3714POPC   D2A48292  23.510  42.326   6.569
 3714POPC   C3A48293  23.599  42.046   6.910
 3714POPC   C4A48294  23.491  42.185   7.313
 3714POPC   C1B48295  23.846  42.660   6.144
 3714POPC   C2B48296  23.981  42.477   6.555
 3714POPC   C3B48297  23.835  42.492   7.021
 3714POPC   C4B48298  24.138  42.407   7.367
 3715POPC   NC348299  22.810   0.149   5.436
 3715POPC   PO448300  23.111   0.779   5.269
 3715POPC   GL148301  23.008   0.616   5.695
 3715POPC   GL248302  23.222   0.330   5.773
 3715POPC   C1A48303  22.963   0.493   6.167
 3715POPC   D2A48304  23.120   0.425   6.584
 3715POPC   C3A48305  22.848   0.559   6.929
 3715POPC   C4A48306  22.911   0.755   7.337
 3715POPC   C1B48307  23.324   0.105   6.180
 3715POPC   C2B48308  23.171  44.933   6.608
 3715POPC   C3B48309  23.214   0.168   7.030
 3715POPC   C4B48310  22.890   0.212   7.337
 3716POPC   NC348311  38.584  12.325   5.529
 3716POPC   PO448312  38.271  11.722   5.495
 3716POPC   GL148313  38.371  11.957   5.848
 3716POPC   GL248314  38.712  11.961   5.951
 3716POPC   C1A48315  38.310  11.964   6.287
 3716POPC   D2A48316  38.086  11.798   6.637
 3716POPC   C3A48317  38.212  11.876   7.071
 3716POPC   C4A48318  38.588  11.780   7.300
 3716POPC   C1B48319  38.819  12.035   6.391
 3716POPC   C2B48320  38.702  11.982   6.832
 3716POPC   C3B48321  38.563  12.305   7.128
 3716POPC   C4B48322  38.595  12.547   7.521
 3717POPC   NC348323  31.981  28.119   5.348
 3717POPC   PO448324  32.604  28.393   5.234
 3717POPC   GL148325  32.375  28.438   5.687
 3717POPC   GL248326  32.080  28.282   5.816
 3717POPC   C1A48327  32.468  28.456   6.174
 3717POPC   D2A48328  32.566  28.165   6.546
 3717POPC   C3A48329  32.544  28.397   6.975
 3717POPC   C4A48330  32.467  28.388   7.446
 3717POPC   C1B48331  31.934  28.463   6.202
 3717POPC   C2B48332  32.137  28.413   6.615
 3717POPC   C3B48333  32.072  28.200   7.039
 3717POPC   C4B48334  31.973  28.435   7.435
 3718POPC   NC348335  21.312   5.529   5.379
 3718POPC   PO448336  21.530   6.246   5.241
 3718POPC   GL148337  21.507   6.052   5.669
 3718POPC   GL248338  21.213   5.853   5.765
 3718POPC   C1A48339  21.630   6.112   6.121
 3718POPC   D2A48340  21.518   5.907   6.519
 3718POPC   C3A48341  21.589   6.061   6.931
 3718POPC   C4A48342  21.532   5.854   7.319
 3718POPC   C1B48343  20.904   5.705   6.070
 3718POPC   C2B48344  20.962   5.722   6.498
 3718POPC   C3B48345  20.798   5.777   6.899
 3718POPC   C4B48346  21.021   5.725   7.285
 3719POPC   NC348347  19.207  29.126   5.594
 3719POPC   PO448348  19.846  29.092   5.433
 3719POPC   GL148349  19.897  29.275   5.812
 3719POPC   GL248350  20.043  28.997   5.889
 3719POPC   C1A48351  19.982  29.388   6.247
 3719POPC   D2A48352  20.138  29.353   6.662
 3719POPC   C3A48353  19.766  29.285   6.864
 3719POPC   C4A48354  19.674  29.254   7.257
 3719POPC   C1B48355  19.745  28.940   6.212
 3719POPC   C2B48356  19.908  28.855   6.606
 3719POPC   C3B48357  19.706  28.785   6.990
 3719POPC   C4B48358  19.819  28.763   7.377
 3720POPC   NC348359  30.599   7.001   5.442
 3720POPC   PO448360  30.329   6.434   5.344
 3720POPC   GL148361  30.552   6.447   5.794
 3720POPC   GL248362  30.691   6.773   5.891
 3720POPC   C1A48363  30.588   6.467   6.295
 3720POPC   D2A48364  30.591   6.662   6.696
 3720POPC   C3A48365  30.647   6.413   7.024
 3720POPC   C4A48366  30.863   6.574   7.328
 3720POPC   C1B48367  30.659   6.989   6.312
 3720POPC   C2B48368  30.821   7.137   6.731
 3720POPC   C3B48369  30.705   7.004   7.135
 3720POPC   C4B48370  30.561   7.012   7.556
 3721POPC   NC348371  17.747  38.582   5.451
 3721POPC   PO448372  17.035  38.649   5.509
 3721POPC   GL148373  17.313  38.719   5.800
 3721POPC   GL248374  17.384  38.391   5.879
 3721POPC   C1A48375  17.551  38.761   6.190
 3721POPC   D2A48376  17.730  38.884   6.578
 3721POPC   C3A48377  17.511  38.737   6.946
 3721POPC   C4A48378  17.764  38.545   7.227
 3721POPC   C1B48379  17.251  38.106   6.203
 3721POPC   C2B48380  17.446  38.026   6.605
 3721POPC   C3B48381  17.473  38.211   7.007
 3721POPC   C4B48382  17.610  38.124   7.464
 3722POPC   NC348383  21.157  20.218   5.619
 3722POPC   PO448384  21.503  20.817   5.416
 3722POPC   GL148385  21.529  20.656   5.831
 3722POPC   GL248386  21.158  20.627   5.914
 3722POPC   C1A48387  21.479  20.602   6.286
 3722POPC   D2A48388  21.456  20.416   6.655
 3722POPC   C3A48389  21.521  20.680   6.978
 3722POPC   C4A48390  21.409  20.660   7.351
 3722POPC   C1B48391  20.979  20.570   6.365
 3722POPC   C2B48392  21.119  20.841   6.713
 3722POPC   C3B48393  21.065  20.993   7.157
 3722POPC   C4B48394  21.171  20.960   7.650
 3723POPC   NC348395  24.818   0.642   5.412
 3723POPC   PO448396  25.422   0.359   5.252
 3723POPC   GL148397  25.270   0.330   5.681
 3723POPC   GL248398  25.201   0.656   5.762
 3723POPC   C1A48399  25.077   0.259   6.089
 3723POPC   D2A48400  25.148   0.432   6.500
 3723POPC   C3A48401  24.983   0.357   6.910
 3723POPC   C4A48402  25.117   0.484   7.329
 3723POPC   C1B48403  25.266   0.842   6.172
 3723POPC   C2B48404  25.461   0.831   6.590
 3723POPC   C3B48405  25.224   0.869   6.994
 3723POPC   C4B48406  25.525   0.850   7.342
 3724POPC   NC348407  30.134  13.374   5.471
 3724POPC   PO448408  29.478  13.398   5.476
 3724POPC   GL148409  29.734  13.694   5.690
 3724POPC   GL248410  29.468  13.869   5.845
 3724POPC   C1A48411  29.969  13.826   6.063
 3724POPC   D2A48412  30.224  13.641   6.418
 3724POPC   C3A48413  30.126  13.761   6.839
 3724POPC   C4A48414  29.909  13.824   7.244
 3724POPC   C1B48415  29.531  13.803   6.291
 3724POPC   C2B48416  29.633  13.963   6.705
 3724POPC   C3B48417  29.436  13.835   7.077
 3724POPC   C4B48418  29.451  13.832   7.551
 3725POPC   NC348419  21.705  14.020   5.510
 3725POPC   PO448420  21.169  14.188   5.182
 3725POPC   GL148421  21.180  14.218   5.673
 3725POPC   GL248422  21.480  14.263   5.906
 3725POPC   C1A48423  21.035  14.439   6.065
 3725POPC   D2A48424  20.991  14.310   6.492
 3725POPC   C3A48425  21.270  14.319   6.852
 3725POPC   C4A48426  21.340  14.491   7.250
 3725POPC   C1B48427  21.637  14.088   6.295
 3725POPC   C2B48428  21.825  14.210   6.668
 3725POPC   C3B48429  21.712  14.571   6.887
 3725POPC   C4B48430  21.841  14.564   7.300
 3726POPC   NC348431  12.679  30.496   5.278
 3726POPC   PO448432  13.187  30.963   5.533
 3726POPC   GL148433  12.994  30.606   5.800
 3726POPC   GL248434  12.673  30.505   5.813
 3726POPC   C1A48435  12.897  30.727   6.229
 3726POPC   D2A48436  13.138  30.689   6.581
 3726POPC   C3A48437  12.971  30.680   6.980
 3726POPC   C4A48438  12.965  30.982   7.306
 3726POPC   C1B48439  12.623  30.307   6.231
 3726POPC   C2B48440  12.758  30.279   6.634
 3726POPC   C3B48441  12.533  30.343   6.982
 3726POPC   C4B48442  12.546  30.635   7.297
 3727POPC   NC348443   7.721  37.730   5.350
 3727POPC   PO448444   7.218  37.311   5.311
 3727POPC   GL148445   7.430  37.437   5.728
 3727POPC   GL248446   7.459  37.788   5.793
 3727POPC   C1A48447   7.655  37.487   6.153
 3727POPC   D2A48448   7.750  37.744   6.542
 3727POPC   C3A48449   7.673  37.591   6.958
 3727POPC   C4A48450   7.578  37.748   7.392
 3727POPC   C1B48451   7.435  37.957   6.193
 3727POPC   C2B48452   7.245  37.971   6.594
 3727POPC   C3B48453   7.382  38.048   7.017
 3727POPC   C4B48454   7.209  38.148   7.417
 3728POPC   NC348455   3.759   4.579   5.462
 3728POPC   PO448456   3.228   4.082   5.476
 3728POPC   GL148457   3.446   4.332   5.780
 3728POPC   GL248458   3.772   4.153   5.902
 3728POPC   C1A48459   3.470   4.428   6.197
 3728POPC   D2A48460   3.718   4.168   6.475
 3728POPC   C3A48461   3.585   4.225   6.873
 3728POPC   C4A48462   3.643   4.447   7.232
 3728POPC   C1B48463   3.410   3.916   6.114
 3728POPC   C2B48464   3.139   3.877   6.484
 3728POPC   C3B48465   3.229   3.866   6.922
 3728POPC   C4B48466   3.289   4.101   7.300
 3729POPC   NC348467  12.258  14.070   5.388
 3729POPC   PO448468  12.156  14.768   5.422
 3729POPC   GL148469  11.960  14.409   5.665
 3729POPC   GL248470  12.261  14.319   5.828
 3729POPC   C1A48471  11.821  14.165   6.055
 3729POPC   D2A48472  11.892  14.232   6.505
 3729POPC   C3A48473  11.734  14.466   6.880
 3729POPC   C4A48474  11.771  14.352   7.336
 3729POPC   C1B48475  12.152  14.602   6.171
 3729POPC   C2B48476  12.096  14.730   6.608
 3729POPC   C3B48477  12.235  14.603   7.035
 3729POPC   C4B48478  12.577  14.753   7.301
 3730POPC   NC348479  43.271  40.059   5.345
 3730POPC   PO448480  43.552  39.448   5.486
 3730POPC   GL148481  43.334  39.749   5.751
 3730POPC   GL248482  43.357  40.167   5.836
 3730POPC   C1A48483  43.054  39.807   6.077
 3730POPC   D2A48484  43.227  39.920   6.450
 3730POPC   C3A48485  43.007  39.860   6.818
 3730POPC   C4A48486  43.068  39.900   7.238
 3730POPC   C1B48487  43.039  40.316   6.146
 3730POPC   C2B48488  42.781  40.208   6.509
 3730POPC   C3B48489  42.786  40.311   6.960
 3730POPC   C4B48490  42.728  40.707   7.203
 3731POPC   NC348491  36.496  34.742   5.225
 3731POPC   PO448492  37.066  34.413   5.160
 3731POPC   GL148493  36.946  34.642   5.559
 3731POPC   GL248494  37.196  34.788   5.783
 3731POPC   C1A48495  36.691  34.665   5.956
 3731POPC   D2A48496  36.636  34.450   6.390
 3731POPC   C3A48497  36.829  34.515   6.811
 3731POPC   C4A48498  36.839  34.645   7.271
 3731POPC   C1B48499  37.140  34.557   6.176
 3731POPC   C2B48500  37.311  34.524   6.609
 3731POPC   C3B48501  37.296  34.570   7.025
 3731POPC   C4B48502  37.256  34.294   7.348
 3732POPC   NC348503  20.588  34.034   5.453
 3732POPC   PO448504  20.728  33.364   5.315
 3732POPC   GL148505  20.888  33.666   5.692
 3732POPC   GL248506  20.769  34.015   5.900
 3732POPC   C1A48507  20.888  33.625   6.163
 3732POPC   D2A48508  20.659  33.593   6.544
 3732POPC   C3A48509  20.751  33.769   6.921
 3732POPC   C4A48510  21.023  33.656   7.222
 3732POPC   C1B48511  20.584  34.113   6.285
 3732POPC   C2B48512  20.353  34.009   6.647
 3732POPC   C3B48513  20.427  34.155   7.057
 3732POPC   C4B48514  20.755  34.074   7.352
 3733POPC   NC348515  27.189  25.366   5.498
 3733POPC   PO448516  27.845  25.361   5.404
 3733POPC   GL148517  27.747  25.237   5.836
 3733POPC   GL248518  27.404  25.099   5.903
 3733POPC   C1A48519  27.670  25.406   6.240
 3733POPC   D2A48520  27.410  25.412   6.594
 3733POPC   C3A48521  27.619  25.626   6.916
 3733POPC   C4A48522  27.485  25.654   7.297
 3733POPC   C1B48523  27.446  24.949   6.343
 3733POPC   C2B48524  27.769  25.081   6.668
 3733POPC   C3B48525  27.685  25.148   7.098
 3733POPC   C4B48526  27.410  24.889   7.349
 3734POPC   NC348527   6.764  18.039   5.432
 3734POPC   PO448528   6.472  18.707   5.354
 3734POPC   GL148529   6.701  18.483   5.684
 3734POPC   GL248530   6.409  18.473   5.834
 3734POPC   C1A48531   6.682  18.123   6.064
 3734POPC   D2A48532   6.474  18.054   6.489
 3734POPC   C3A48533   6.686  18.186   6.878
 3734POPC   C4A48534   6.602  18.070   7.319
 3734POPC   C1B48535   6.717  18.604   6.176
 3734POPC   C2B48536   6.831  18.628   6.599
 3734POPC   C3B48537   6.716  18.680   7.019
 3734POPC   C4B48538   6.791  18.590   7.427
 3735POPC   NC348539  36.158  16.533   5.284
 3735POPC   PO448540  36.265  17.100   5.650
 3735POPC   GL148541  35.983  16.800   5.800
 3735POPC   GL248542  36.028  16.475   5.757
 3735POPC   C1A48543  35.783  16.824   6.194
 3735POPC   D2A48544  35.851  17.083   6.580
 3735POPC   C3A48545  35.835  16.925   6.999
 3735POPC   C4A48546  35.896  17.140   7.386
 3735POPC   C1B48547  36.321  16.537   6.082
 3735POPC   C2B48548  36.202  16.675   6.469
 3735POPC   C3B48549  36.332  16.656   6.874
 3735POPC   C4B48550  36.315  16.910   7.226
 3736POPC   NC348551  37.983   5.656   5.291
 3736POPC   PO448552  38.625   5.714   5.489
 3736POPC   GL148553  38.393   5.835   5.827
 3736POPC   GL248554  38.367   5.490   5.902
 3736POPC   C1A48555  38.502   5.910   6.268
 3736POPC   D2A48556  38.448   6.088   6.692
 3736POPC   C3A48557  38.785   6.032   6.981
 3736POPC   C4A48558  38.848   5.924   7.404
 3736POPC   C1B48559  38.094   5.598   6.225
 3736POPC   C2B48560  38.164   5.640   6.630
 3736POPC   C3B48561  38.483   5.628   6.925
 3736POPC   C4B48562  38.369   5.731   7.348
 3737POPC   NC348563  33.316  26.396   5.319
 3737POPC   PO448564  33.289  25.703   5.164
 3737POPC   GL148565  33.239  25.756   5.691
 3737POPC   GL248566  32.979  25.992   5.758
 3737POPC   C1A48567  33.153  25.682   6.151
 3737POPC   D2A48568  33.184  25.907   6.547
 3737POPC   C3A48569  33.169  25.686   6.925
 3737POPC   C4A48570  32.942  25.821   7.251
 3737POPC   C1B48571  33.112  26.263   6.117
 3737POPC   C2B48572  33.154  26.429   6.563
 3737POPC   C3B48573  33.312  26.312   6.984
 3737POPC   C4B48574  33.301  26.281   7.448
 3738POPC   NC348575   8.390  25.110   5.128
 3738POPC   PO448576   7.817  25.393   5.457
 3738POPC   GL148577   7.999  25.167   5.767
 3738POPC   GL248578   8.321  25.131   5.650
 3738POPC   C1A48579   7.959  25.100   6.222
 3738POPC   D2A48580   7.702  25.079   6.623
 3738POPC   C3A48581   7.930  25.208   7.004
 3738POPC   C4A48582   7.990  25.065   7.445
 3738POPC   C1B48583   8.487  25.090   6.064
 3738POPC   C2B48584   8.589  25.035   6.508
 3738POPC   C3B48585   8.413  25.009   6.919
 3738POPC   C4B48586   8.371  25.334   7.234
 3739POPC   NC348587   9.478  38.200   5.564
 3739POPC   PO448588  10.077  38.362   5.400
 3739POPC   GL148589   9.935  38.414   5.784
 3739POPC   GL248590   9.612  38.542   5.920
 3739POPC   C1A48591  10.052  38.288   6.159
 3739POPC   D2A48592   9.774  38.365   6.461
 3739POPC   C3A48593   9.844  38.403   6.892
 3739POPC   C4A48594   9.641  38.592   7.251
 3739POPC   C1B48595   9.894  38.778   6.161
 3739POPC   C2B48596  10.075  38.789   6.549
 3739POPC   C3B48597   9.952  38.894   6.918
 3739POPC   C4B48598  10.061  38.892   7.299
 3740POPC   NC348599   1.484  21.432   5.136
 3740POPC   PO448600   2.082  21.237   5.476
 3740POPC   GL148601   2.231  21.314   5.913
 3740POPC   GL248602   1.951  21.495   6.011
 3740POPC   C1A48603   2.160  21.316   6.415
 3740POPC   D2A48604   1.809  21.541   6.587
 3740POPC   C3A48605   1.915  21.660   6.991
 3740POPC   C4A48606   2.152  21.384   7.228
 3740POPC   C1B48607   1.638  21.231   6.197
 3740POPC   C2B48608   1.577  21.021   6.547
 3740POPC   C3B48609   1.780  21.135   6.890
 3740POPC   C4B48610   1.670  21.294   7.270
 3741POPC   NC348611  28.728  30.878   5.348
 3741POPC   PO448612  29.271  30.466   5.407
 3741POPC   GL148613  29.141  30.678   5.766
 3741POPC   GL248614  29.418  30.588   5.904
 3741POPC   C1A48615  29.068  30.875   6.175
 3741POPC   D2A48616  29.241  30.954   6.587
 3741POPC   C3A48617  29.034  30.798   6.961
 3741POPC   C4A48618  29.006  30.893   7.397
 3741POPC   C1B48619  29.415  30.520   6.315
 3741POPC   C2B48620  29.286  30.416   6.678
 3741POPC   C3B48621  29.415  30.494   7.038
 3741POPC   C4B48622  29.488  30.300   7.382
 3742POPC   NC348623   5.017  23.736   5.341
 3742POPC   PO448624   4.384  23.797   5.312
 3742POPC   GL148625   4.709  23.735   5.770
 3742POPC   GL248626   5.107  23.655   5.821
 3742POPC   C1A48627   4.885  23.752   6.255
 3742POPC   D2A48628   5.129  23.927   6.631
 3742POPC   C3A48629   4.949  23.867   7.084
 3742POPC   C4A48630   4.921  23.590   7.497
 3742POPC   C1B48631   5.396  23.670   6.190
 3742POPC   C2B48632   5.448  23.502   6.602
 3742POPC   C3B48633   5.424  23.672   6.977
 3742POPC   C4B48634   5.375  23.544   7.366
 3743POPC   NC348635   7.599  28.194   5.511
 3743POPC   PO448636   7.048  28.569   5.651
 3743POPC   GL148637   7.316  28.337   5.919
 3743POPC   GL248638   7.207  28.007   5.814
 3743POPC   C1A48639   7.425  28.155   6.329
 3743POPC   D2A48640   7.668  28.248   6.705
 3743POPC   C3A48641   7.569  28.468   7.082
 3743POPC   C4A48642   7.800  28.203   7.375
 3743POPC   C1B48643   7.177  27.718   6.171
 3743POPC   C2B48644   7.033  27.716   6.573
 3743POPC   C3B48645   7.238  27.997   6.850
 3743POPC   C4B48646   7.287  28.095   7.275
 3744POPC   NC348647   0.702  35.508   5.305
 3744POPC   PO448648   0.161  35.107   5.492
 3744POPC   GL148649   0.265  35.327   5.848
 3744POPC   GL248650   0.609  35.342   5.783
 3744POPC   C1A48651   0.153  35.436   6.287
 3744POPC   D2A48652   0.551  35.366   6.529
 3744POPC   C3A48653   0.534  35.239   6.971
 3744POPC   C4A48654   0.136  35.159   7.203
 3744POPC   C1B48655   0.528  35.706   6.052
 3744POPC   C2B48656   0.428  35.854   6.464
 3744POPC   C3B48657   0.306  35.687   6.856
 3744POPC   C4B48658   0.558  35.702   7.223
 3745POPC   NC348659  13.350  16.759   5.409
 3745POPC   PO448660  13.929  16.893   5.424
 3745POPC   GL148661  13.718  16.799   5.790
 3745POPC   GL248662  13.493  17.082   5.823
 3745POPC   C1A48663  13.711  16.510   6.150
 3745POPC   D2A48664  13.554  16.612   6.554
 3745POPC   C3A48665  13.599  16.599   7.009
 3745POPC   C4A48666  13.315  16.518   7.364
 3745POPC   C1B48667  13.291  16.833   6.132
 3745POPC   C2B48668  13.130  16.879   6.520
 3745POPC   C3B48669  13.283  17.022   6.892
 3745POPC   C4B48670  13.084  17.116   7.252
 3746POPC   NC348671  19.067  27.173   5.121
 3746POPC   PO448672  19.019  27.791   5.266
 3746POPC   GL148673  19.058  27.630   5.698
 3746POPC   GL248674  18.979  27.284   5.672
 3746POPC   C1A48675  18.892  27.753   6.129
 3746POPC   D2A48676  18.661  27.713   6.532
 3746POPC   C3A48677  18.938  27.792   6.899
 3746POPC   C4A48678  18.865  27.589   7.308
 3746POPC   C1B48679  19.085  27.275   6.112
 3746POPC   C2B48680  19.190  27.488   6.511
 3746POPC   C3B48681  19.212  27.373   6.955
 3746POPC   C4B48682  19.213  27.232   7.367
 3747POPC   NC348683  26.832  27.174   5.556
 3747POPC   PO448684  26.688  26.447   5.398
 3747POPC   GL148685  26.712  26.716   5.778
 3747POPC   GL248686  27.042  26.857   5.882
 3747POPC   C1A48687  26.651  26.795   6.224
 3747POPC   D2A48688  26.919  26.664   6.546
 3747POPC   C3A48689  26.796  26.790   6.946
 3747POPC   C4A48690  26.784  26.645   7.335
 3747POPC   C1B48691  27.207  27.018   6.285
 3747POPC   C2B48692  27.243  27.029   6.751
 3747POPC   C3B48693  27.252  26.912   7.172
 3747POPC   C4B48694  27.037  27.027   7.543
 3748POPC   NC348695  23.173  33.327   5.621
 3748POPC   PO448696  22.788  32.776   5.554
 3748POPC   GL148697  22.974  32.941   5.915
 3748POPC   GL248698  22.798  33.259   5.964
 3748POPC   C1A48699  22.927  32.825   6.350
 3748POPC   D2A48700  23.053  32.562   6.688
 3748POPC   C3A48701  23.072  32.836   7.055
 3748POPC   C4A48702  22.918  32.911   7.526
 3748POPC   C1B48703  23.170  33.288   6.276
 3748POPC   C2B48704  23.072  33.234   6.709
 3748POPC   C3B48705  22.906  33.287   7.138
 3748POPC   C4B48706  23.065  33.414   7.542
 3749POPC   NC348707  22.438  39.380   5.392
 3749POPC   PO448708  22.196  38.811   5.229
 3749POPC   GL148709  22.222  39.050   5.705
 3749POPC   GL248710  22.181  39.406   5.828
 3749POPC   C1A48711  22.330  39.043   6.176
 3749POPC   D2A48712  22.492  39.219   6.586
 3749POPC   C3A48713  22.229  39.052   6.886
 3749POPC   C4A48714  22.110  39.187   7.257
 3749POPC   C1B48715  22.276  39.582   6.250
 3749POPC   C2B48716  22.085  39.689   6.678
 3749POPC   C3B48717  22.290  39.673   7.092
 3749POPC   C4B48718  22.563  39.380   7.165
 3750POPC   NC348719  31.685  23.763   5.384
 3750POPC   PO448720  31.546  23.198   5.701
 3750POPC   GL148721  31.534  23.644   5.892
 3750POPC   GL248722  31.737  23.956   5.840
 3750POPC   C1A48723  31.706  23.751   6.320
 3750POPC   D2A48724  31.758  23.578   6.713
 3750POPC   C3A48725  31.359  23.624   6.910
 3750POPC   C4A48726  31.289  23.802   7.288
 3750POPC   C1B48727  31.434  24.136   6.140
 3750POPC   C2B48728  31.324  24.053   6.572
 3750POPC   C3B48729  31.616  24.064   6.903
 3750POPC   C4B48730  31.601  24.272   7.273
 3751POPC   NC348731  31.796  24.564   5.310
 3751POPC   PO448732  31.271  24.088   5.338
 3751POPC   GL148733  31.476  24.372   5.674
 3751POPC   GL248734  31.149  24.362   5.792
 3751POPC   C1A48735  31.673  24.582   6.096
 3751POPC   D2A48736  31.665  24.430   6.529
 3751POPC   C3A48737  31.701  24.650   6.927
 3751POPC   C4A48738  31.916  24.720   7.307
 3751POPC   C1B48739  31.221  24.770   5.992
 3751POPC   C2B48740  31.286  24.769   6.469
 3751POPC   C3B48741  31.219  24.502   6.865
 3751POPC   C4B48742  31.178  24.566   7.327
 3752POPC   NC348743   5.638  26.934   5.647
 3752POPC   PO448744   5.117  26.675   5.222
 3752POPC   GL148745   5.062  26.744   5.723
 3752POPC   GL248746   4.933  27.042   5.880
 3752POPC   C1A48747   5.092  26.567   6.163
 3752POPC   D2A48748   5.076  26.773   6.544
 3752POPC   C3A48749   5.213  26.674   6.912
 3752POPC   C4A48750   5.035  27.006   7.107
 3752POPC   C1B48751   5.318  27.045   6.199
 3752POPC   C2B48752   5.481  27.121   6.649
 3752POPC   C3B48753   5.575  27.014   7.088
 3752POPC   C4B48754   5.415  26.710   7.401
 3753POPC   NC348755  28.691  37.105   5.365
 3753POPC   PO448756  28.459  37.815   5.347
 3753POPC   GL148757  28.313  37.685   5.777
 3753POPC   GL248758  28.132  37.389   5.784
 3753POPC   C1A48759  28.177  37.729   6.218
 3753POPC   D2A48760  28.330  37.677   6.648
 3753POPC   C3A48761  28.291  37.887   7.064
 3753POPC   C4A48762  28.513  37.991   7.469
 3753POPC   C1B48763  28.304  37.242   6.195
 3753POPC   C2B48764  28.198  37.183   6.634
 3753POPC   C3B48765  28.075  37.398   7.044
 3753POPC   C4B48766  28.348  37.504   7.417
 3754POPC   NC348767  39.889  31.000   5.359
 3754POPC   PO448768  40.204  30.378   5.515
 3754POPC   GL148769  40.051  30.618   5.853
 3754POPC   GL248770  40.109  30.942   5.808
 3754POPC   C1A48771  40.087  30.733   6.280
 3754POPC   D2A48772  39.946  30.770   6.677
 3754POPC   C3A48773  40.333  30.802   6.831
 3754POPC   C4A48774  40.441  30.637   7.175
 3754POPC   C1B48775  39.712  31.019   6.075
 3754POPC   C2B48776  39.646  31.169   6.522
 3754POPC   C3B48777  39.651  31.073   6.977
 3754POPC   C4B48778  40.000  30.906   7.211
 3755POPC   NC348779  38.185  20.052   5.526
 3755POPC   PO448780  38.675  20.531   5.412
 3755POPC   GL148781  38.552  20.733   5.791
 3755POPC   GL248782  38.245  20.570   5.769
 3755POPC   C1A48783  38.607  20.762   6.242
 3755POPC   D2A48784  38.645  20.551   6.629
 3755POPC   C3A48785  38.705  20.813   6.957
 3755POPC   C4A48786  38.589  20.674   7.360
 3755POPC   C1B48787  38.148  20.496   6.172
 3755POPC   C2B48788  38.138  20.597   6.582
 3755POPC   C3B48789  38.201  20.368   6.959
 3755POPC   C4B48790  38.135  20.461   7.373
 3756POPC   NC348791  27.936  15.039   5.382
 3756POPC   PO448792  27.406  15.390   5.458
 3756POPC   GL148793  27.553  15.255   5.852
 3756POPC   GL248794  27.881  15.075   5.904
 3756POPC   C1A48795  27.461  15.109   6.269
 3756POPC   D2A48796  27.334  14.901   6.637
 3756POPC   C3A48797  27.350  15.149   7.014
 3756POPC   C4A48798  27.137  15.056   7.364
 3756POPC   C1B48799  27.859  15.433   6.219
 3756POPC   C2B48800  27.695  15.363   6.668
 3756POPC   C3B48801  27.850  15.346   7.122
 3756POPC   C4B48802  27.978  15.473   7.586
 3757POPC   NC348803  44.013  22.378   5.351
 3757POPC   PO448804  44.480  22.152   5.573
 3757POPC   GL148805  44.106  22.184   5.833
 3757POPC   GL248806  43.768  22.379   5.798
 3757POPC   C1A48807  44.028  22.162   6.258
 3757POPC   D2A48808  43.904  21.979   6.632
 3757POPC   C3A48809  44.078  22.170   6.969
 3757POPC   C4A48810  43.935  22.125   7.380
 3757POPC   C1B48811  43.746  22.589   6.204
 3757POPC   C2B48812  43.787  22.495   6.644
 3757POPC   C3B48813  43.697  22.518   7.072
 3757POPC   C4B48814  43.437  22.242   7.313
 3758POPC   NC348815   1.914  28.757   5.451
 3758POPC   PO448816   2.177  28.152   5.480
 3758POPC   GL148817   2.053  28.354   5.870
 3758POPC   GL248818   1.862  28.673   5.951
 3758POPC   C1A48819   2.225  28.337   6.274
 3758POPC   D2A48820   2.459  28.441   6.638
 3758POPC   C3A48821   2.248  28.342   7.036
 3758POPC   C4A48822   2.080  28.110   7.394
 3758POPC   C1B48823   1.696  28.372   6.256
 3758POPC   C2B48824   1.875  28.208   6.651
 3758POPC   C3B48825   1.675  28.119   7.046
 3758POPC   C4B48826   1.468  28.506   7.127
 3759POPC   NC348827  28.746   5.078   5.073
 3759POPC   PO448828  28.316   4.917   5.560
 3759POPC   GL148829  28.340   5.126   5.901
 3759POPC   GL248830  28.125   5.400   5.847
 3759POPC   C1A48831  28.463   5.015   6.307
 3759POPC   D2A48832  28.551   4.691   6.615
 3759POPC   C3A48833  28.516   4.894   7.025
 3759POPC   C4A48834  28.345   4.976   7.439
 3759POPC   C1B48835  28.424   5.530   6.193
 3759POPC   C2B48836  28.519   5.471   6.643
 3759POPC   C3B48837  28.432   5.524   7.084
 3759POPC   C4B48838  28.535   5.456   7.529
 3760POPC   NC348839  38.041  35.466   5.268
 3760POPC   PO448840  37.450  35.130   5.481
 3760POPC   GL148841  37.348  35.405   5.837
 3760POPC   GL248842  37.457  35.160   6.030
 3760POPC   C1A48843  37.404  35.619   6.231
 3760POPC   D2A48844  37.232  35.422   6.600
 3760POPC   C3A48845  37.399  35.534   7.000
 3760POPC   C4A48846  37.355  35.388   7.431
 3760POPC   C1B48847  37.708  35.199   6.375
 3760POPC   C2B48848  37.507  34.983   6.693
 3760POPC   C3B48849  37.470  35.039   7.090
 3760POPC   C4B48850  37.852  35.160   7.244
 3761POPC   NC348851  33.523  30.385   5.507
 3761POPC   PO448852  33.974  30.866   5.675
 3761POPC   GL148853  33.798  30.644   5.991
 3761POPC   GL248854  33.490  30.558   5.964
 3761POPC   C1A48855  33.864  30.621   6.406
 3761POPC   D2A48856  33.950  30.928   6.708
 3761POPC   C3A48857  33.929  30.634   7.002
 3761POPC   C4A48858  34.105  30.235   7.013
 3761POPC   C1B48859  33.384  30.815   6.292
 3761POPC   C2B48860  33.473  30.769   6.724
 3761POPC   C3B48861  33.479  30.827   7.142
 3761POPC   C4B48862  33.424  30.416   7.194
 3762POPC   NC348863  25.519  40.269   5.355
 3762POPC   PO448864  25.336  39.615   5.622
 3762POPC   GL148865  25.334  39.882   5.980
 3762POPC   GL248866  25.303  40.206   5.809
 3762POPC   C1A48867  25.016  40.057   6.276
 3762POPC   D2A48868  24.793  39.970   6.673
 3762POPC   C3A48869  25.106  39.927   6.990
 3762POPC   C4A48870  25.521  40.028   6.982
 3762POPC   C1B48871  25.371  40.421   6.174
 3762POPC   C2B48872  25.359  40.318   6.586
 3762POPC   C3B48873  25.415  40.564   6.931
 3762POPC   C4B48874  25.439  40.394   7.343
 3763POPC   NC348875  19.471  21.355   5.235
 3763POPC   PO448876  19.990  21.103   5.446
 3763POPC   GL148877  19.783  21.358   5.740
 3763POPC   GL248878  19.579  21.071   5.854
 3763POPC   C1A48879  19.850  21.520   6.168
 3763POPC   D2A48880  19.811  21.277   6.575
 3763POPC   C3A48881  19.853  21.587   6.884
 3763POPC   C4A48882  19.969  21.675   7.299
 3763POPC   C1B48883  19.957  21.034   6.122
 3763POPC   C2B48884  20.170  20.910   6.494
 3763POPC   C3B48885  20.133  20.847   6.948
 3763POPC   C4B48886  19.910  21.152   7.229
 3764POPC   NC348887   6.880  39.671   5.074
 3764POPC   PO448888   6.821  40.269   5.405
 3764POPC   GL148889   6.736  40.023   5.755
 3764POPC   GL248890   6.499  39.767   5.708
 3764POPC   C1A48891   6.701  40.124   6.170
 3764POPC   D2A48892   6.862  40.106   6.596
 3764POPC   C3A48893   6.632  40.402   6.851
 3764POPC   C4A48894   6.653  40.388   7.292
 3764POPC   C1B48895   6.290  39.837   6.110
 3764POPC   C2B48896   6.358  40.050   6.548
 3764POPC   C3B48897   6.397  39.968   7.016
 3764POPC   C4B48898   6.280  39.694   7.365
 3765POPC   NC348899  34.855  43.106   5.410
 3765POPC   PO448900  34.257  42.877   5.561
 3765POPC   GL148901  34.564  43.086   5.842
 3765POPC   GL248902  34.873  42.871   5.862
 3765POPC   C1A48903  34.875  43.338   6.080
 3765POPC   D2A48904  34.957  43.505   6.489
 3765POPC   C3A48905  34.812  43.253   6.853
 3765POPC   C4A48906  34.498  43.258   7.211
 3765POPC   C1B48907  34.736  42.882   6.304
 3765POPC   C2B48908  34.565  42.678   6.677
 3765POPC   C3B48909  34.736  42.631   7.088
 3765POPC   C4B48910  34.548  42.788   7.444
 3766POPC   NC348911  24.910  28.719   5.498
 3766POPC   PO448912  25.465  28.431   5.271
 3766POPC   GL148913  25.393  28.265   5.705
 3766POPC   GL248914  25.622  27.995   5.770
 3766POPC   C1A48915  25.181  28.406   6.114
 3766POPC   D2A48916  25.136  28.239   6.563
 3766POPC   C3A48917  25.055  28.504   6.942
 3766POPC   C4A48918  25.105  28.503   7.401
 3766POPC   C1B48919  25.478  28.017   6.213
 3766POPC   C2B48920  25.600  28.003   6.669
 3766POPC   C3B48921  25.548  28.216   7.056
 3766POPC   C4B48922  25.765  28.410   7.424
 3767POPC   NC348923  20.864  39.601   5.586
 3767POPC   PO448924  20.613  40.236   5.640
 3767POPC   GL148925  20.439  39.912   5.895
 3767POPC   GL248926  20.373  39.528   5.870
 3767POPC   C1A48927  20.431  40.101   6.287
 3767POPC   D2A48928  20.578  40.355   6.603
 3767POPC   C3A48929  20.651  40.110   6.977
 3767POPC   C4A48930  20.380  39.914   7.254
 3767POPC   C1B48931  20.650  39.557   6.221
 3767POPC   C2B48932  20.676  39.758   6.602
 3767POPC   C3B48933  20.704  39.585   6.997
 3767POPC   C4B48934  20.846  39.631   7.385
 3768POPC   NC348935  38.444  34.766   5.445
 3768POPC   PO448936  38.835  34.385   5.078
 3768POPC   GL148937  38.450  34.263   5.527
 3768POPC   GL248938  38.219  34.471   5.777
 3768POPC   C1A48939  38.490  34.181   6.077
 3768POPC   D2A48940  38.507  34.462   6.485
 3768POPC   C3A48941  38.693  34.355   6.925
 3768POPC   C4A48942  38.743  34.724   7.211
 3768POPC   C1B48943  38.140  34.667   6.175
 3768POPC   C2B48944  38.138  34.893   6.561
 3768POPC   C3B48945  38.338  34.731   6.910
 3768POPC   C4B48946  38.261  34.537   7.310
 3769POPC   NC348947  40.991  43.305   5.430
 3769POPC   PO448948  40.379  43.192   5.512
 3769POPC   GL148949  40.648  43.191   5.877
 3769POPC   GL248950  40.884  43.446   5.913
 3769POPC   C1A48951  40.593  43.190   6.309
 3769POPC   D2A48952  40.459  42.915   6.599
 3769POPC   C3A48953  40.558  43.091   6.922
 3769POPC   C4A48954  40.667  43.337   7.235
 3769POPC   C1B48955  40.873  43.602   6.337
 3769POPC   C2B48956  40.864  43.481   6.756
 3769POPC   C3B48957  41.125  43.489   7.088
 3769POPC   C4B48958  41.097  43.391   7.524
 3770POPC   NC348959   4.890   9.821   5.255
 3770POPC   PO448960   5.520   9.582   5.296
 3770POPC   GL148961   5.198   9.637   5.630
 3770POPC   GL248962   4.975   9.368   5.694
 3770POPC   C1A48963   5.122   9.757   6.049
 3770POPC   D2A48964   5.235   9.879   6.479
 3770POPC   C3A48965   4.950   9.897   6.819
 3770POPC   C4A48966   4.997   9.820   7.245
 3770POPC   C1B48967   4.780   9.366   6.119
 3770POPC   C2B48968   4.912   9.433   6.573
 3770POPC   C3B48969   4.690   9.481   7.000
 3770POPC   C4B48970   4.643   9.497   7.465
 3771POPC   NC348971   8.485  41.342   5.255
 3771POPC   PO448972   8.527  41.898   5.706
 3771POPC   GL148973   8.172  41.699   5.922
 3771POPC   GL248974   7.998  41.445   5.715
 3771POPC   C1A48975   8.207  41.432   6.280
 3771POPC   D2A48976   8.382  41.570   6.666
 3771POPC   C3A48977   8.270  41.477   7.089
 3771POPC   C4A48978   8.295  41.627   7.530
 3771POPC   C1B48979   7.750  41.259   6.067
 3771POPC   C2B48980   7.806  41.213   6.525
 3771POPC   C3B48981   7.921  41.113   6.968
 3771POPC   C4B48982   7.793  41.354   7.312
 3772POPC   NC348983  26.394  22.145   5.430
 3772POPC   PO448984  25.804  22.200   5.200
 3772POPC   GL148985  25.788  22.103   5.719
 3772POPC   GL248986  26.011  21.812   5.706
 3772POPC   C1A48987  25.835  22.355   6.161
 3772POPC   D2A48988  25.969  22.290   6.626
 3772POPC   C3A48989  26.249  22.391   6.999
 3772POPC   C4A48990  26.123  22.528   7.439
 3772POPC   C1B48991  26.073  21.917   6.136
 3772POPC   C2B48992  26.048  21.769   6.563
 3772POPC   C3B48993  26.143  21.905   6.979
 3772POPC   C4B48994  26.494  21.932   7.261
 3773POPC   NC348995   6.271   4.412   5.485
 3773POPC   PO448996   6.647   3.891   5.530
 3773POPC   GL148997   6.522   4.129   5.876
 3773POPC   GL248998   6.736   4.398   5.764
 3773POPC   C1A48999   6.536   4.066   6.330
 3773POPC   D2A49000   6.505   3.841   6.713
 3773POPC   C3A49001   6.559   4.189   6.982
 3773POPC   C4A49002   6.585   4.238   7.413
 3773POPC   C1B49003   6.609   4.583   6.166
 3773POPC   C2B49004   6.431   4.579   6.580
 3773POPC   C3B49005   6.393   4.678   7.016
 3773POPC   C4B49006   6.806   4.800   7.148
 3774POPC   NC349007  27.716  13.261   5.400
 3774POPC   PO449008  27.428  13.811   5.526
 3774POPC   GL149009  27.752  13.602   5.826
 3774POPC   GL249010  27.873  13.245   5.887
 3774POPC   C1A49011  27.970  13.711   6.240
 3774POPC   D2A49012  27.683  13.843   6.600
 3774POPC   C3A49013  27.654  13.771   7.058
 3774POPC   C4A49014  27.342  14.022   7.291
 3774POPC   C1B49015  27.686  13.301   6.307
 3774POPC   C2B49016  27.603  13.334   6.754
 3774POPC   C3B49017  27.730  13.213   7.150
 3774POPC   C4B49018  27.641  13.366   7.567
 3775POPC   NC349019  28.026  44.906   5.327
 3775POPC   PO449020  27.496  44.495   5.364
 3775POPC   GL149021  27.747  44.662   5.720
 3775POPC   GL249022  27.900  44.337   5.771
 3775POPC   C1A49023  27.675  44.880   6.144
 3775POPC   D2A49024  27.737  44.736   6.584
 3775POPC   C3A49025  27.486  44.772   6.992
 3775POPC   C4A49026  27.681  44.808   7.460
 3775POPC   C1B49027  27.750  44.344   6.198
 3775POPC   C2B49028  27.996  44.295   6.583
 3775POPC   C3B49029  27.816  44.391   6.992
 3775POPC   C4B49030  27.788  44.309   7.436
 3776POPC   NC349031  26.001   3.240   5.514
 3776POPC   PO449032  26.474   3.693   5.684
 3776POPC   GL149033  26.201   3.407   5.966
 3776POPC   GL249034  25.850   3.237   6.011
 3776POPC   C1A49035  26.240   3.083   6.303
 3776POPC   D2A49036  26.276   3.131   6.734
 3776POPC   C3A49037  26.304   3.571   6.736
 3776POPC   C4A49038  26.206   3.736   7.132
 3776POPC   C1B49039  25.842   3.608   6.328
 3776POPC   C2B49040  25.841   3.767   6.765
 3776POPC   C3B49041  25.874   3.364   6.987
 3776POPC   C4B49042  25.580   3.208   7.274
 3777POPC   NC349043  14.857   7.330   5.273
 3777POPC   PO449044  15.046   7.930   5.640
 3777POPC   GL149045  15.055   7.483   5.739
 3777POPC   GL249046  15.408   7.305   5.845
 3777POPC   C1A49047  14.986   7.375   6.141
 3777POPC   D2A49048  15.194   7.423   6.519
 3777POPC   C3A49049  14.922   7.439   6.853
 3777POPC   C4A49050  15.040   7.521   7.249
 3777POPC   C1B49051  15.639   7.449   6.230
 3777POPC   C2B49052  15.574   7.786   6.527
 3777POPC   C3B49053  15.409   7.749   6.962
 3777POPC   C4B49054  15.575   7.495   7.267
 3778POPC   NC349055  22.835  31.369   5.264
 3778POPC   PO449056  22.987  30.820   5.507
 3778POPC   GL149057  22.824  31.174   5.768
 3778POPC   GL249058  22.814  31.549   5.781
 3778POPC   C1A49059  22.695  31.201   6.171
 3778POPC   D2A49060  22.755  31.454   6.509
 3778POPC   C3A49061  22.684  31.191   6.843
 3778POPC   C4A49062  22.802  31.263   7.291
 3778POPC   C1B49063  23.139  31.477   6.095
 3778POPC   C2B49064  23.255  31.579   6.539
 3778POPC   C3B49065  23.062  31.540   6.943
 3778POPC   C4B49066  23.247  31.618   7.386
 3779POPC   NC349067  37.884  30.267   5.501
 3779POPC   PO449068  37.246  30.168   5.262
 3779POPC   GL149069  37.381  30.105   5.670
 3779POPC   GL249070  37.450  29.765   5.672
 3779POPC   C1A49071  37.592  30.106   6.091
 3779POPC   D2A49072  37.826  29.914   6.429
 3779POPC   C3A49073  37.680  30.068   6.829
 3779POPC   C4A49074  37.813  29.923   7.217
 3779POPC   C1B49075  37.518  29.608   6.104
 3779POPC   C2B49076  37.541  29.456   6.522
 3779POPC   C3B49077  37.617  29.567   6.911
 3779POPC   C4B49078  37.602  29.478   7.346
 3780POPC   NC349079  22.683  25.369   5.593
 3780POPC   PO449080  22.105  25.554   5.326
 3780POPC   GL149081  22.214  25.492   5.811
 3780POPC   GL249082  22.277  25.117   5.924
 3780POPC   C1A49083  22.151  25.458   6.295
 3780POPC   D2A49084  22.320  25.465   6.749
 3780POPC   C3A49085  22.169  25.432   7.194
 3780POPC   C4A49086  21.840  25.408   7.523
 3780POPC   C1B49087  22.063  24.939   6.335
 3780POPC   C2B49088  22.102  24.925   6.805
 3780POPC   C3B49089  22.023  24.937   7.235
 3780POPC   C4B49090  22.237  25.098   7.617
 3781POPC   NC349091   0.761  40.264   5.412
 3781POPC   PO449092   1.212  39.825   5.395
 3781POPC   GL149093   1.065  40.017   5.763
 3781POPC   GL249094   0.741  39.889   5.854
 3781POPC   C1A49095   1.190  40.103   6.202
 3781POPC   D2A49096   1.287  39.906   6.619
 3781POPC   C3A49097   1.174  40.239   6.974
 3781POPC   C4A49098   1.281  40.125   7.414
 3781POPC   C1B49099   0.819  39.761   6.294
 3781POPC   C2B49100   0.807  39.995   6.700
 3781POPC   C3B49101   0.928  39.821   7.103
 3781POPC   C4B49102   0.763  39.769   7.514
 3782POPC   NC349103   2.355  19.128   5.351
 3782POPC   PO449104   1.979  18.593   5.329
 3782POPC   GL149105   2.044  18.889   5.740
 3782POPC   GL249106   2.233  19.251   5.830
 3782POPC   C1A49107   1.790  18.934   6.159
 3782POPC   D2A49108   1.812  18.811   6.603
 3782POPC   C3A49109   2.189  18.940   6.819
 3782POPC   C4A49110   2.144  18.815   7.234
 3782POPC   C1B49111   2.172  19.246   6.302
 3782POPC   C2B49112   1.840  19.306   6.646
 3782POPC   C3B49113   1.762  19.122   7.075
 3782POPC   C4B49114   1.979  19.193   7.516
 3783POPC   NC349115  18.724  10.124   5.490
 3783POPC   PO449116  18.266  10.608   5.603
 3783POPC   GL149117  18.085  10.446   5.940
 3783POPC   GL249118  17.948  10.172   5.812
 3783POPC   C1A49119  18.285  10.431   6.316
 3783POPC   D2A49120  18.492  10.782   6.522
 3783POPC   C3A49121  18.508  10.688   6.943
 3783POPC   C4A49122  18.337  10.285   7.165
 3783POPC   C1B49123  17.760  10.215   6.244
 3783POPC   C2B49124  17.833  10.536   6.546
 3783POPC   C3B49125  18.003  10.593   6.927
 3783POPC   C4B49126  17.856  10.432   7.315
 3784POPC   NC349127  12.222  36.873   5.339
 3784POPC   PO449128  11.643  36.548   5.670
 3784POPC   GL149129  11.977  36.848   5.826
 3784POPC   GL249130  12.370  36.944   5.820
 3784POPC   C1A49131  12.114  36.911   6.263
 3784POPC   D2A49132  12.042  36.976   6.686
 3784POPC   C3A49133  12.198  36.671   6.955
 3784POPC   C4A49134  12.174  36.885   7.339
 3784POPC   C1B49135  12.537  37.216   6.147
 3784POPC   C2B49136  12.445  37.256   6.574
 3784POPC   C3B49137  12.544  37.018   6.946
 3784POPC   C4B49138  12.582  37.252   7.291
 3785POPC   NC349139   0.124  42.566   5.385
 3785POPC   PO449140  44.470  42.595   5.486
 3785POPC   GL149141  44.737  42.280   5.711
 3785POPC   GL249142  44.677  42.509   5.950
 3785POPC   C1A49143  44.810  42.072   6.156
 3785POPC   D2A49144  44.736  41.889   6.573
 3785POPC   C3A49145  44.650  42.098   6.976
 3785POPC   C4A49146  44.550  42.061   7.415
 3785POPC   C1B49147  44.499  42.661   6.291
 3785POPC   C2B49148  44.720  42.468   6.576
 3785POPC   C3B49149  44.486  42.579   6.896
 3785POPC   C4B49150  44.532  42.539   7.310
 3786POPC   NC349151   8.732  27.342   5.357
 3786POPC   PO449152   9.306  26.917   5.422
 3786POPC   GL149153   9.025  26.875   5.774
 3786POPC   GL249154   8.787  27.119   5.799
 3786POPC   C1A49155   8.825  26.729   6.144
 3786POPC   D2A49156   8.661  26.464   6.467
 3786POPC   C3A49157   8.595  26.732   6.814
 3786POPC   C4A49158   8.596  26.690   7.246
 3786POPC   C1B49159   8.986  27.233   6.180
 3786POPC   C2B49160   8.846  27.187   6.619
 3786POPC   C3B49161   9.047  27.067   7.024
 3786POPC   C4B49162   9.150  27.140   7.478
 3787POPC   NC349163  39.478  28.453   5.425
 3787POPC   PO449164  38.834  28.379   5.600
 3787POPC   GL149165  39.093  28.669   5.793
 3787POPC   GL249166  39.305  28.404   5.916
 3787POPC   C1A49167  38.955  28.828   6.205
 3787POPC   D2A49168  38.783  28.854   6.655
 3787POPC   C3A49169  39.051  28.687   7.003
 3787POPC   C4A49170  39.212  28.280   7.135
 3787POPC   C1B49171  39.394  28.056   6.213
 3787POPC   C2B49172  39.321  27.934   6.627
 3787POPC   C3B49173  39.586  27.954   6.969
 3787POPC   C4B49174  39.884  27.980   7.296
 3788POPC   NC349175  27.609   2.333   5.343
 3788POPC   PO449176  27.488   3.017   5.410
 3788POPC   GL149177  27.642   2.760   5.787
 3788POPC   GL249178  27.641   3.019   6.074
 3788POPC   C1A49179  27.805   2.550   6.167
 3788POPC   D2A49180  27.593   2.629   6.561
 3788POPC   C3A49181  27.708   2.970   6.756
 3788POPC   C4A49182  27.708   2.931   7.181
 3788POPC   C1B49183  27.280   2.830   6.216
 3788POPC   C2B49184  27.084   2.755   6.565
 3788POPC   C3B49185  27.240   2.777   6.961
 3788POPC   C4B49186  27.260   2.871   7.393
 3789POPC   NC349187  34.942  28.019   5.682
 3789POPC   PO449188  34.645  28.454   5.273
 3789POPC   GL149189  34.741  28.482   5.736
 3789POPC   GL249190  34.397  28.507   5.799
 3789POPC   C1A49191  34.622  28.296   6.190
 3789POPC   D2A49192  34.393  28.355   6.564
 3789POPC   C3A49193  34.619  28.175   6.907
 3789POPC   C4A49194  34.814  28.438   7.156
 3789POPC   C1B49195  34.228  28.697   6.164
 3789POPC   C2B49196  34.040  28.773   6.567
 3789POPC   C3B49197  34.239  28.710   6.953
 3789POPC   C4B49198  34.339  28.524   7.354
 3790POPC   NC349199  41.751  42.669   5.328
 3790POPC   PO449200  41.444  42.060   5.517
 3790POPC   GL149201  41.298  42.220   5.911
 3790POPC   GL249202  41.136  42.570   5.897
 3790POPC   C1A49203  41.483  42.185   6.318
 3790POPC   D2A49204  41.675  42.218   6.728
 3790POPC   C3A49205  41.417  42.051   7.033
 3790POPC   C4A49206  41.475  42.140   7.461
 3790POPC   C1B49207  41.208  42.617   6.348
 3790POPC   C2B49208  41.236  42.477   6.769
 3790POPC   C3B49209  41.374  42.546   7.169
 3790POPC   C4B49210  41.825  42.510   7.190
 3791POPC   NC349211  27.973  28.231   5.361
 3791POPC   PO449212  28.208  28.836   5.522
 3791POPC   GL149213  28.356  28.591   5.901
 3791POPC   GL249214  28.142  28.299   5.879
 3791POPC   C1A49215  28.490  28.196   6.216
 3791POPC   D2A49216  28.549  28.001   6.611
 3791POPC   C3A49217  28.609  28.360   6.806
 3791POPC   C4A49218  28.635  28.515   7.226
 3791POPC   C1B49219  28.102  28.504   6.319
 3791POPC   C2B49220  28.092  28.255   6.678
 3791POPC   C3B49221  28.192  28.255   7.101
 3791POPC   C4B49222  28.070  28.651   7.274
 3792POPC   NC349223  22.426  25.898   5.429
 3792POPC   PO449224  21.835  26.268   5.509
 3792POPC   GL149225  22.105  26.392   5.842
 3792POPC   GL249226  22.206  26.050   5.864
 3792POPC   C1A49227  22.192  26.420   6.278
 3792POPC   D2A49228  22.283  26.126   6.598
 3792POPC   C3A49229  22.183  26.270   6.993
 3792POPC   C4A49230  22.275  25.964   7.315
 3792POPC   C1B49231  21.953  25.930   6.188
 3792POPC   C2B49232  21.777  25.765   6.540
 3792POPC   C3B49233  21.958  25.819   6.904
 3792POPC   C4B49234  21.785  25.834   7.280
 3793POPC   NC349235   6.619  19.847   5.310
 3793POPC   PO449236   7.249  20.017   5.387
 3793POPC   GL149237   6.877  19.988   5.748
 3793POPC   GL249238   6.623  19.726   5.803
 3793POPC   C1A49239   6.875  19.918   6.206
 3793POPC   D2A49240   6.973  19.828   6.635
 3793POPC   C3A49241   6.682  19.798   6.976
 3793POPC   C4A49242   6.704  19.944   7.416
 3793POPC   C1B49243   6.453  19.538   6.193
 3793POPC   C2B49244   6.257  19.636   6.635
 3793POPC   C3B49245   6.148  19.699   7.073
 3793POPC   C4B49246   6.285  20.099   7.170
 3794POPC   NC349247   3.871  35.011   5.388
 3794POPC   PO449248   4.450  35.454   5.364
 3794POPC   GL149249   4.360  35.290   5.738
 3794POPC   GL249250   4.607  35.037   5.818
 3794POPC   C1A49251   4.060  35.438   6.033
 3794POPC   D2A49252   4.029  35.386   6.455
 3794POPC   C3A49253   4.097  35.663   6.774
 3794POPC   C4A49254   4.317  35.442   7.094
 3794POPC   C1B49255   4.476  35.177   6.234
 3794POPC   C2B49256   4.543  35.339   6.640
 3794POPC   C3B49257   4.738  35.184   7.021
 3794POPC   C4B49258   4.717  35.261   7.461
 3795POPC   NC349259   5.102  30.767   5.339
 3795POPC   PO449260   5.065  30.126   5.486
 3795POPC   GL149261   5.123  30.504   5.764
 3795POPC   GL249262   4.825  30.764   5.786
 3795POPC   C1A49263   5.218  30.773   6.113
 3795POPC   D2A49264   5.042  30.899   6.517
 3795POPC   C3A49265   5.251  30.782   6.906
 3795POPC   C4A49266   5.321  30.452   7.212
 3795POPC   C1B49267   4.719  31.075   6.122
 3795POPC   C2B49268   4.553  31.104   6.555
 3795POPC   C3B49269   4.788  31.055   6.935
 3795POPC   C4B49270   4.845  30.678   7.206
 3796POPC   NC349271  40.286  29.912   5.500
 3796POPC   PO449272  39.735  29.565   5.525
 3796POPC   GL149273  39.929  29.768   5.894
 3796POPC   GL249274  40.006  30.112   5.935
 3796POPC   C1A49275  40.305  29.711   6.200
 3796POPC   D2A49276  40.456  29.821   6.651
 3796POPC   C3A49277  40.222  29.651   6.990
 3796POPC   C4A49278  39.803  29.788   7.117
 3796POPC   C1B49279  39.770  30.294   6.330
 3796POPC   C2B49280  39.793  30.288   6.815
 3796POPC   C3B49281  40.172  30.211   7.071
 3796POPC   C4B49282  40.354  30.281   7.511
 3797POPC   NC349283  14.840  16.086   5.148
 3797POPC   PO449284  15.393  16.024   5.506
 3797POPC   GL149285  15.407  16.155   5.909
 3797POPC   GL249286  15.281  15.908   6.078
 3797POPC   C1A49287  15.492  16.341   6.300
 3797POPC   D2A49288  15.478  15.993   6.557
 3797POPC   C3A49289  15.261  16.025   6.909
 3797POPC   C4A49290  15.396  16.004   7.317
 3797POPC   C1B49291  14.963  15.685   6.321
 3797POPC   C2B49292  14.900  15.713   6.761
 3797POPC   C3B49293  14.938  15.619   7.209
 3797POPC   C4B49294  14.629  15.596   7.607
 3798POPC   NC349295  31.746  37.197   5.268
 3798POPC   PO449296  31.534  37.863   5.320
 3798POPC   GL149297  31.361  37.659   5.689
 3798POPC   GL249298  31.649  37.428   5.725
 3798POPC   C1A49299  31.311  37.457   6.112
 3798POPC   D2A49300  31.189  37.313   6.529
 3798POPC   C3A49301  31.421  37.352   6.875
 3798POPC   C4A49302  31.286  37.667   7.131
 3798POPC   C1B49303  31.808  37.411   6.159
 3798POPC   C2B49304  31.609  37.669   6.508
 3798POPC   C3B49305  31.761  37.807   6.947
 3798POPC   C4B49306  31.997  37.704   7.336
 3799POPC   NC349307  15.454  37.549   5.486
 3799POPC   PO449308  14.902  37.954   5.460
 3799POPC   GL149309  15.226  37.885   5.814
 3799POPC   GL249310  15.208  37.516   5.934
 3799POPC   C1A49311  15.347  37.862   6.281
 3799POPC   D2A49312  15.148  37.813   6.688
 3799POPC   C3A49313  15.367  37.771   7.044
 3799POPC   C4A49314  15.600  38.004   7.327
 3799POPC   C1B49315  14.909  37.544   6.288
 3799POPC   C2B49316  14.850  37.376   6.713
 3799POPC   C3B49317  14.900  37.505   7.155
 3799POPC   C4B49318  15.039  37.271   7.549
 3800POPC   NC349319  39.990  40.945   5.069
 3800POPC   PO449320  40.216  40.754   5.694
 3800POPC   GL149321  39.862  40.845   5.904
 3800POPC   GL249322  39.820  41.200   5.871
 3800POPC   C1A49323  39.874  40.664   6.269
 3800POPC   D2A49324  39.757  40.925   6.559
 3800POPC   C3A49325  39.788  40.722   6.914
 3800POPC   C4A49326  40.091  40.695   7.186
 3800POPC   C1B49327  40.108  41.132   6.234
 3800POPC   C2B49328  40.122  41.316   6.606
 3800POPC   C3B49329  40.117  41.203   7.027
 3800POPC   C4B49330  40.214  41.102   7.451
 3801POPC   NC349331  23.373   8.352   5.405
 3801POPC   PO449332  22.761   8.271   5.323
 3801POPC   GL149333  22.797   8.313   5.768
 3801POPC   GL249334  23.128   8.187   5.852
 3801POPC   C1A49335  22.744   8.217   6.207
 3801POPC   D2A49336  22.828   7.996   6.594
 3801POPC   C3A49337  22.959   8.313   6.952
 3801POPC   C4A49338  22.951   8.651   7.322
 3801POPC   C1B49339  23.236   7.978   6.242
 3801POPC   C2B49340  23.355   8.090   6.672
 3801POPC   C3B49341  23.368   8.004   7.109
 3801POPC   C4B49342  23.072   8.124   7.420
 3802POPC   NC349343  18.115  15.494   5.614
 3802POPC   PO449344  18.300  14.880   5.497
 3802POPC   GL149345  18.366  15.144   5.877
 3802POPC   GL249346  18.629  15.057   6.010
 3802POPC   C1A49347  18.393  15.384   6.298
 3802POPC   D2A49348  18.246  15.355   6.720
 3802POPC   C3A49349  18.487  15.498   7.071
 3802POPC   C4A49350  18.491  15.523   7.547
 3802POPC   C1B49351  18.346  14.823   6.303
 3802POPC   C2B49352  18.340  14.831   6.767
 3802POPC   C3B49353  18.224  15.055   7.146
 3802POPC   C4B49354  18.028  14.819   7.485
 3803POPC   NC349355  13.398  43.791   5.383
 3803POPC   PO449356  13.697  44.395   5.290
 3803POPC   GL149357  13.598  44.170   5.733
 3803POPC   GL249358  13.485  43.872   5.877
 3803POPC   C1A49359  13.841  44.087   6.156
 3803POPC   D2A49360  13.705  43.971   6.568
 3803POPC   C3A49361  13.760  44.216   6.957
 3803POPC   C4A49362  13.775  44.010   7.387
 3803POPC   C1B49363  13.247  43.978   6.265
 3803POPC   C2B49364  13.225  43.874   6.702
 3803POPC   C3B49365  13.535  43.745   7.010
 3803POPC   C4B49366  13.419  43.637   7.406
 3804POPC   NC349367  10.754   2.399   5.469
 3804POPC   PO449368  10.840   3.078   5.382
 3804POPC   GL149369  10.639   2.848   5.724
 3804POPC   GL249370  10.294   2.803   5.730
 3804POPC   C1A49371  10.684   2.793   6.175
 3804POPC   D2A49372  10.656   3.045   6.550
 3804POPC   C3A49373  10.763   2.909   6.968
 3804POPC   C4A49374  10.738   2.734   7.378
 3804POPC   C1B49375  10.186   2.676   6.164
 3804POPC   C2B49376  10.301   2.673   6.632
 3804POPC   C3B49377  10.300   2.600   7.096
 3804POPC   C4B49378  10.245   2.673   7.557
 3805POPC   NC349379  41.071  30.490   5.647
 3805POPC   PO449380  41.736  30.421   5.335
 3805POPC   GL149381  41.595  30.337   5.777
 3805POPC   GL249382  41.518  30.644   5.900
 3805POPC   C1A49383  41.687  30.302   6.243
 3805POPC   D2A49384  41.737  30.570   6.598
 3805POPC   C3A49385  41.726  30.439   7.021
 3805POPC   C4A49386  41.694  30.867   7.128
 3805POPC   C1B49387  41.304  30.635   6.294
 3805POPC   C2B49388  41.267  30.907   6.606
 3805POPC   C3B49389  41.260  30.655   6.918
 3805POPC   C4B49390  41.280  30.601   7.306
 3806POPC   NC349391   0.705  44.167   5.459
 3806POPC   PO449392   0.492  44.795   5.244
 3806POPC   GL149393   0.352  44.520   5.565
 3806POPC   GL249394   0.655  44.596   5.730
 3806POPC   C1A49395   0.223  44.534   6.000
 3806POPC   D2A49396   0.338  44.572   6.430
 3806POPC   C3A49397   0.076  44.490   6.764
 3806POPC   C4A49398   0.179  44.552   7.180
 3806POPC   C1B49399   0.783  44.534   6.144
 3806POPC   C2B49400   0.875  44.514   6.573
 3806POPC   C3B49401   0.607  44.455   6.899
 3806POPC   C4B49402   0.731  44.449   7.306
 3807POPC   NC349403   0.592  41.700   5.452
 3807POPC   PO449404   0.254  41.207   5.201
 3807POPC   GL149405   0.339  41.367   5.707
 3807POPC   GL249406   0.121  41.619   5.824
 3807POPC   C1A49407   0.648  41.595   6.070
 3807POPC   D2A49408   0.712  41.827   6.475
 3807POPC   C3A49409   0.539  41.700   6.870
 3807POPC   C4A49410   0.470  41.861   7.305
 3807POPC   C1B49411   0.215  41.768   6.240
 3807POPC   C2B49412   0.249  42.041   6.562
 3807POPC   C3B49413   0.153  42.062   6.961
 3807POPC   C4B49414  44.967  41.804   7.274
 3808POPC   NC349415  14.365  13.566   5.304
 3808POPC   PO449416  14.242  14.232   5.450
 3808POPC   GL149417  14.376  13.863   5.747
 3808POPC   GL249418  14.368  13.463   5.802
 3808POPC   C1A49419  14.453  13.773   6.202
 3808POPC   D2A49420  14.532  13.936   6.605
 3808POPC   C3A49421  14.394  13.758   6.995
 3808POPC   C4A49422  14.327  13.569   7.373
 3808POPC   C1B49423  14.314  13.251   6.205
 3808POPC   C2B49424  14.358  13.416   6.614
 3808POPC   C3B49425  14.539  13.254   7.004
 3808POPC   C4B49426  14.392  13.066   7.386
 3809POPC   NC349427   2.849  13.329   5.244
 3809POPC   PO449428   2.464  13.832   5.474
 3809POPC   GL149429   2.781  13.648   5.744
 3809POPC   GL249430   2.768  13.295   5.777
 3809POPC   C1A49431   2.761  13.638   6.207
 3809POPC   D2A49432   2.934  13.706   6.612
 3809POPC   C3A49433   2.652  13.851   6.907
 3809POPC   C4A49434   2.801  13.951   7.263
 3809POPC   C1B49435   2.538  13.178   6.175
 3809POPC   C2B49436   2.578  13.260   6.606
 3809POPC   C3B49437   2.781  13.360   6.990
 3809POPC   C4B49438   2.627  13.484   7.379
 3810POPC   NC349439  16.079  43.670   5.414
 3810POPC   PO449440  15.567  44.026   5.463
 3810POPC   GL149441  15.701  43.934   5.859
 3810POPC   GL249442  16.048  43.860   5.891
 3810POPC   C1A49443  15.702  43.944   6.277
 3810POPC   D2A49444  15.924  43.954   6.637
 3810POPC   C3A49445  15.628  43.859   6.904
 3810POPC   C4A49446  15.700  43.999   7.294
 3810POPC   C1B49447  16.259  43.764   6.290
 3810POPC   C2B49448  16.320  43.663   6.756
 3810POPC   C3B49449  16.145  43.713   7.181
 3810POPC   C4B49450  16.065  43.464   7.571
 3811POPC   NC349451   4.976  14.927   5.632
 3811POPC   PO449452   5.065  14.244   5.481
 3811POPC   GL149453   4.984  14.443   5.835
 3811POPC   GL249454   5.295  14.570   5.892
 3811POPC   C1A49455   4.827  14.554   6.230
 3811POPC   D2A49456   4.788  14.318   6.605
 3811POPC   C3A49457   4.937  14.438   7.006
 3811POPC   C4A49458   4.835  14.608   7.359
 3811POPC   C1B49459   5.344  14.351   6.248
 3811POPC   C2B49460   5.304  14.404   6.672
 3811POPC   C3B49461   5.427  14.150   7.049
 3811POPC   C4B49462   5.204  14.225   7.405
 3812POPC   NC349463   3.279  25.606   5.425
 3812POPC   PO449464   3.607  25.038   5.439
 3812POPC   GL149465   3.623  25.303   5.775
 3812POPC   GL249466   3.280  25.304   5.842
 3812POPC   C1A49467   3.570  25.287   6.243
 3812POPC   D2A49468   3.616  25.412   6.643
 3812POPC   C3A49469   3.623  25.103   6.926
 3812POPC   C4A49470   3.590  25.362   7.265
 3812POPC   C1B49471   3.131  25.566   6.182
 3812POPC   C2B49472   3.080  25.446   6.615
 3812POPC   C3B49473   3.136  25.230   7.023
 3812POPC   C4B49474   3.135  25.269   7.491
 3813POPC   NC349475  31.377  41.210   5.404
 3813POPC   PO449476  31.285  41.822   5.547
 3813POPC   GL149477  31.586  41.571   5.771
 3813POPC   GL249478  31.541  41.217   5.898
 3813POPC   C1A49479  31.577  41.658   6.220
 3813POPC   D2A49480  31.260  41.808   6.533
 3813POPC   C3A49481  31.385  41.761   6.976
 3813POPC   C4A49482  31.795  41.719   7.202
 3813POPC   C1B49483  31.791  41.205   6.299
 3813POPC   C2B49484  31.732  41.400   6.737
 3813POPC   C3B49485  31.522  41.272   7.151
 3813POPC   C4B49486  31.714  41.266   7.572
 3814POPC   NC349487  10.470  44.301   5.461
 3814POPC   PO449488  10.669  44.838   5.218
 3814POPC   GL149489  10.673  44.694   5.710
 3814POPC   GL249490  10.981  44.771   5.882
 3814POPC   C1A49491  10.585  44.550   6.155
 3814POPC   D2A49492  10.411  44.732   6.554
 3814POPC   C3A49493  10.353  44.549   6.998
 3814POPC   C4A49494  10.399  44.630   7.447
 3814POPC   C1B49495  10.814   0.023   6.179
 3814POPC   C2B49496  10.742   0.172   6.568
 3814POPC   C3B49497  10.688  44.953   6.924
 3814POPC   C4B49498  10.827  44.869   7.317
 3815POPC   NC349499  10.706  41.197   5.452
 3815POPC   PO449500  10.189  41.585   5.300
 3815POPC   GL149501  10.344  41.486   5.672
 3815POPC   GL249502  10.523  41.794   5.707
 3815POPC   C1A49503  10.428  41.450   6.107
 3815POPC   D2A49504  10.195  41.312   6.467
 3815POPC   C3A49505  10.407  41.210   6.863
 3815POPC   C4A49506  10.215  41.256   7.274
 3815POPC   C1B49507  10.648  41.927   6.136
 3815POPC   C2B49508  10.538  41.736   6.559
 3815POPC   C3B49509  10.716  41.719   6.988
 3815POPC   C4B49510  10.790  41.316   7.207
 3816POPC   NC349511  39.303  41.359   5.369
 3816POPC   PO449512  39.215  41.981   5.347
 3816POPC   GL149513  39.235  41.726   5.800
 3816POPC   GL249514  39.324  41.374   5.869
 3816POPC   C1A49515  39.056  41.730   6.241
 3816POPC   D2A49516  39.215  41.868   6.663
 3816POPC   C3A49517  39.290  41.612   7.052
 3816POPC   C4A49518  39.058  41.478   7.420
 3816POPC   C1B49519  39.335  41.255   6.290
 3816POPC   C2B49520  39.073  41.370   6.625
 3816POPC   C3B49521  39.001  41.158   6.982
 3816POPC   C4B49522  39.269  41.013   7.276
 3817POPC   NC349523  24.312   8.678   5.456
 3817POPC   PO449524  24.186   9.320   5.305
 3817POPC   GL149525  24.475   9.194   5.646
 3817POPC   GL249526  24.571   8.882   5.829
 3817POPC   C1A49527  24.378   9.306   6.086
 3817POPC   D2A49528  24.337   9.376   6.546
 3817POPC   C3A49529  24.249   9.101   6.924
 3817POPC   C4A49530  24.475   8.880   7.250
 3817POPC   C1B49531  24.279   8.824   6.160
 3817POPC   C2B49532  24.438   8.821   6.534
 3817POPC   C3B49533  24.434   8.552   6.853
 3817POPC   C4B49534  24.052   8.621   7.075
 3818POPC   NC349535  25.986  41.723   5.495
 3818POPC   PO449536  26.505  41.361   5.565
 3818POPC   GL149537  26.173  41.429   5.885
 3818POPC   GL249538  26.288  41.763   5.895
 3818POPC   C1A49539  25.939  41.654   6.249
 3818POPC   D2A49540  25.733  41.701   6.678
 3818POPC   C3A49541  25.894  41.722   7.098
 3818POPC   C4A49542  25.875  41.325   7.307
 3818POPC   C1B49543  26.414  41.958   6.216
 3818POPC   C2B49544  26.193  41.957   6.567
 3818POPC   C3B49545  26.335  41.911   6.929
 3818POPC   C4B49546  26.447  41.753   7.309
 3819POPC   NC349547   8.565  30.551   5.605
 3819POPC   PO449548   9.042  30.877   5.290
 3819POPC   GL149549   9.228  30.920   5.710
 3819POPC   GL249550   9.047  30.676   5.803
 3819POPC   C1A49551   9.155  31.008   6.161
 3819POPC   D2A49552   9.200  30.766   6.534
 3819POPC   C3A49553   9.039  30.874   6.919
 3819POPC   C4A49554   9.014  30.848   7.373
 3819POPC   C1B49555   9.041  30.458   6.163
 3819POPC   C2B49556   8.801  30.432   6.537
 3819POPC   C3B49557   8.723  30.241   6.904
 3819POPC   C4B49558   8.802  30.316   7.300
 3820POPC   NC349559   5.726   4.580   5.179
 3820POPC   PO449560   5.978   4.054   5.336
 3820POPC   GL149561   5.977   4.162   5.818
 3820POPC   GL249562   5.618   4.229   5.939
 3820POPC   C1A49563   6.130   4.354   6.211
 3820POPC   D2A49564   6.132   4.184   6.649
 3820POPC   C3A49565   5.842   4.283   6.971
 3820POPC   C4A49566   5.612   4.403   7.346
 3820POPC   C1B49567   5.672   4.561   6.262
 3820POPC   C2B49568   5.927   4.682   6.619
 3820POPC   C3B49569   5.833   4.797   7.031
 3820POPC   C4B49570   5.435   4.852   7.262
 3821POPC   NC349571  31.154  33.039   5.230
 3821POPC   PO449572  30.571  32.919   5.368
 3821POPC   GL149573  30.732  33.034   5.741
 3821POPC   GL249574  31.051  33.183   5.714
 3821POPC   C1A49575  30.623  33.223   6.119
 3821POPC   D2A49576  30.433  33.060   6.474
 3821POPC   C3A49577  30.521  33.204   6.869
 3821POPC   C4A49578  30.437  32.956   7.215
 3821POPC   C1B49579  31.097  32.984   6.113
 3821POPC   C2B49580  30.939  33.039   6.540
 3821POPC   C3B49581  30.920  32.882   6.960
 3821POPC   C4B49582  30.889  33.180   7.265
 3822POPC   NC349583   5.516  12.208   5.439
 3822POPC   PO449584   6.202  12.034   5.586
 3822POPC   GL149585   5.917  12.177   5.819
 3822POPC   GL249586   5.689  11.893   5.797
 3822POPC   C1A49587   6.088  12.221   6.230
 3822POPC   D2A49588   6.175  12.282   6.648
 3822POPC   C3A49589   6.162  11.918   6.925
 3822POPC   C4A49590   6.071  11.912   7.354
 3822POPC   C1B49591   5.569  12.114   6.191
 3822POPC   C2B49592   5.771  11.991   6.577
 3822POPC   C3B49593   5.676  12.101   7.007
 3822POPC   C4B49594   5.283  11.922   7.159
 3823POPC   NC349595   7.408  32.824   5.367
 3823POPC   PO449596   7.845  33.378   5.448
 3823POPC   GL149597   7.686  33.062   5.748
 3823POPC   GL249598   7.301  33.063   5.815
 3823POPC   C1A49599   7.652  33.030   6.194
 3823POPC   D2A49600   7.482  33.318   6.488
 3823POPC   C3A49601   7.613  33.174   6.887
 3823POPC   C4A49602   7.427  33.205   7.304
 3823POPC   C1B49603   7.214  32.787   6.203
 3823POPC   C2B49604   7.203  32.919   6.651
 3823POPC   C3B49605   7.305  32.756   7.081
 3823POPC   C4B49606   7.052  32.825   7.470
 3824POPC   NC349607  41.644   2.246   5.375
 3824POPC   PO449608  40.973   2.003   5.435
 3824POPC   GL149609  41.286   2.153   5.761
 3824POPC   GL249610  41.644   2.004   5.817
 3824POPC   C1A49611  41.419   2.317   6.162
 3824POPC   D2A49612  41.308   2.178   6.556
 3824POPC   C3A49613  41.422   2.380   6.902
 3824POPC   C4A49614  41.329   2.199   7.269
 3824POPC   C1B49615  41.778   1.700   6.127
 3824POPC   C2B49616  41.914   1.779   6.545
 3824POPC   C3B49617  41.730   1.967   6.925
 3824POPC   C4B49618  41.693   1.792   7.323
 3825POPC   NC349619  22.228  19.787   5.375
 3825POPC   PO449620  21.592  19.892   5.557
 3825POPC   GL149621  21.930  19.887   5.852
 3825POPC   GL249622  22.163  19.602   5.852
 3825POPC   C1A49623  22.205  19.992   6.200
 3825POPC   D2A49624  22.370  20.184   6.569
 3825POPC   C3A49625  22.215  19.932   6.859
 3825POPC   C4A49626  22.009  19.893   7.200
 3825POPC   C1B49627  22.499  19.551   6.187
 3825POPC   C2B49628  22.599  19.668   6.631
 3825POPC   C3B49629  22.483  19.548   7.074
 3825POPC   C4B49630  22.439  19.625   7.550
 3826POPC   NC349631  37.718   9.538   5.312
 3826POPC   PO449632  37.329   9.987   5.453
 3826POPC   GL149633  37.593   9.780   5.777
 3826POPC   GL249634  37.422   9.533   5.959
 3826POPC   C1A49635  37.779   9.895   6.210
 3826POPC   D2A49636  37.609  10.003   6.668
 3826POPC   C3A49637  37.795   9.920   7.097
 3826POPC   C4A49638  37.812   9.699   7.506
 3826POPC   C1B49639  37.455   9.565   6.411
 3826POPC   C2B49640  37.787   9.528   6.730
 3826POPC   C3B49641  37.619   9.419   7.121
 3826POPC   C4B49642  37.260   9.611   7.361
 3827POPC   NC349643  25.072   6.516   5.653
 3827POPC   PO449644  25.268   5.983   5.224
 3827POPC   GL149645  25.221   5.930   5.682
 3827POPC   GL249646  25.445   6.137   5.854
 3827POPC   C1A49647  25.063   5.798   6.119
 3827POPC   D2A49648  25.007   5.633   6.575
 3827POPC   C3A49649  25.308   5.503   6.914
 3827POPC   C4A49650  25.307   5.538   7.354
 3827POPC   C1B49651  25.352   6.169   6.300
 3827POPC   C2B49652  25.196   6.090   6.699
 3827POPC   C3B49653  25.393   5.979   7.095
 3827POPC   C4B49654  25.248   6.049   7.540
 3828POPC   NC349655  11.718  14.912   5.368
 3828POPC   PO449656  11.167  15.306   5.298
 3828POPC   GL149657  11.256  15.109   5.682
 3828POPC   GL249658  10.935  15.047   5.819
 3828POPC   C1A49659  11.439  14.959   6.062
 3828POPC   D2A49660  11.428  15.216   6.444
 3828POPC   C3A49661  11.432  15.095   6.856
 3828POPC   C4A49662  11.576  15.277   7.268
 3828POPC   C1B49663  10.977  15.093   6.221
 3828POPC   C2B49664  10.798  14.924   6.557
 3828POPC   C3B49665  10.888  15.172   6.854
 3828POPC   C4B49666  11.095  15.112   7.227
 3829POPC   NC349667  30.953  36.509   5.274
 3829POPC   PO449668  30.638  37.036   5.466
 3829POPC   GL149669  30.578  36.844   5.840
 3829POPC   GL249670  30.346  36.555   5.766
 3829POPC   C1A49671  30.638  36.961   6.276
 3829POPC   D2A49672  30.754  36.938   6.698
 3829POPC   C3A49673  30.477  37.118   7.008
 3829POPC   C4A49674  30.781  37.163   7.317
 3829POPC   C1B49675  30.274  36.653   6.204
 3829POPC   C2B49676  30.251  36.809   6.615
 3829POPC   C3B49677  30.336  36.615   6.976
 3829POPC   C4B49678  30.538  36.729   7.357
 3830POPC   NC349679  18.818  33.765   5.474
 3830POPC   PO449680  19.288  34.181   5.268
 3830POPC   GL149681  19.222  34.020   5.688
 3830POPC   GL249682  18.923  34.035   5.904
 3830POPC   C1A49683  19.400  34.048   6.119
 3830POPC   D2A49684  19.343  34.142   6.559
 3830POPC   C3A49685  19.230  33.865   6.901
 3830POPC   C4A49686  19.274  34.137   7.252
 3830POPC   C1B49687  18.858  34.210   6.319
 3830POPC   C2B49688  18.870  34.211   6.788
 3830POPC   C3B49689  18.767  34.009   7.178
 3830POPC   C4B49690  18.529  33.856   7.546
 3831POPC   NC349691  16.336  19.367   5.070
 3831POPC   PO449692  16.859  19.788   5.385
 3831POPC   GL149693  16.909  19.791   5.811
 3831POPC   GL249694  16.950  19.448   5.805
 3831POPC   C1A49695  16.569  19.732   6.122
 3831POPC   D2A49696  16.395  19.804   6.517
 3831POPC   C3A49697  16.614  19.955   6.885
 3831POPC   C4A49698  16.615  19.762   7.273
 3831POPC   C1B49699  16.943  19.424   6.235
 3831POPC   C2B49700  16.884  19.665   6.572
 3831POPC   C3B49701  17.053  19.710   6.994
 3831POPC   C4B49702  17.343  19.590   7.324
 3832POPC   NC349703  30.406   9.285   5.443
 3832POPC   PO449704  30.983   8.892   5.467
 3832POPC   GL149705  31.024   9.079   5.858
 3832POPC   GL249706  30.759   9.272   5.810
 3832POPC   C1A49707  30.941   9.138   6.332
 3832POPC   D2A49708  31.000   9.188   6.771
 3832POPC   C3A49709  30.836   8.923   7.068
 3832POPC   C4A49710  30.456   8.678   7.006
 3832POPC   C1B49711  30.471   9.228   6.154
 3832POPC   C2B49712  30.564   9.398   6.562
 3832POPC   C3B49713  30.537   9.342   6.988
 3832POPC   C4B49714  30.454   9.106   7.333
 3833POPC   NC349715   8.505  38.915   5.582
 3833POPC   PO449716   8.063  39.327   5.335
 3833POPC   GL149717   8.174  39.269   5.759
 3833POPC   GL249718   7.886  39.065   5.770
 3833POPC   C1A49719   8.440  39.307   6.168
 3833POPC   D2A49720   8.747  39.368   6.514
 3833POPC   C3A49721   8.477  39.491   6.838
 3833POPC   C4A49722   8.368  39.448   7.272
 3833POPC   C1B49723   7.882  39.256   6.167
 3833POPC   C2B49724   7.961  39.176   6.571
 3833POPC   C3B49725   7.987  39.404   6.937
 3833POPC   C4B49726   7.878  39.306   7.322
 3834POPC   NC349727  37.387   5.790   5.599
 3834POPC   PO449728  37.805   6.127   5.210
 3834POPC   GL149729  37.871   5.996   5.684
 3834POPC   GL249730  37.857   5.638   5.788
 3834POPC   C1A49731  37.763   5.970   6.166
 3834POPC   D2A49732  37.600   5.742   6.575
 3834POPC   C3A49733  37.644   5.913   6.982
 3834POPC   C4A49734  38.080   6.009   7.042
 3834POPC   C1B49735  37.612   5.450   6.152
 3834POPC   C2B49736  37.782   5.263   6.537
 3834POPC   C3B49737  37.870   5.447   7.005
 3834POPC   C4B49738  37.910   5.528   7.488
 3835POPC   NC349739   3.476  29.920   5.249
 3835POPC   PO449740   3.887  29.668   5.737
 3835POPC   GL149741   3.690  30.061   5.829
 3835POPC   GL249742   3.352  29.993   5.748
 3835POPC   C1A49743   3.657  30.117   6.281
 3835POPC   D2A49744   3.458  29.693   6.480
 3835POPC   C3A49745   3.508  29.575   6.893
 3835POPC   C4A49746   3.755  29.785   7.205
 3835POPC   C1B49747   3.199  29.960   6.142
 3835POPC   C2B49748   3.258  30.141   6.605
 3835POPC   C3B49749   3.086  29.948   6.964
 3835POPC   C4B49750   3.218  29.711   7.293
 3836POPC   NC349751   4.596  41.944   5.332
 3836POPC   PO449752   4.329  41.258   5.460
 3836POPC   GL149753   4.418  41.445   5.813
 3836POPC   GL249754   4.361  41.796   5.798
 3836POPC   C1A49755   4.259  41.464   6.225
 3836POPC   D2A49756   3.972  41.611   6.528
 3836POPC   C3A49757   3.941  41.499   6.968
 3836POPC   C4A49758   4.219  41.466   7.344
 3836POPC   C1B49759   4.419  41.947   6.221
 3836POPC   C2B49760   4.489  41.734   6.616
 3836POPC   C3B49761   4.483  41.773   7.050
 3836POPC   C4B49762   4.457  42.015   7.439
 3837POPC   NC349763  32.054  30.494   5.356
 3837POPC   PO449764  32.466  31.045   5.403
 3837POPC   GL149765  32.359  30.726   5.737
 3837POPC   GL249766  32.045  30.672   5.830
 3837POPC   C1A49767  32.425  30.520   6.153
 3837POPC   D2A49768  32.603  30.442   6.569
 3837POPC   C3A49769  32.364  30.621   6.912
 3837POPC   C4A49770  32.304  30.478   7.324
 3837POPC   C1B49771  32.075  30.900   6.187
 3837POPC   C2B49772  31.953  30.947   6.596
 3837POPC   C3B49773  31.867  31.122   6.978
 3837POPC   C4B49774  32.144  30.988   7.242
 3838POPC   NC349775   1.215  15.752   5.462
 3838POPC   PO449776   1.566  16.375   5.544
 3838POPC   GL149777   1.215  16.155   5.771
 3838POPC   GL249778   0.902  16.299   5.787
 3838POPC   C1A49779   1.175  15.912   6.170
 3838POPC   D2A49780   1.340  15.759   6.566
 3838POPC   C3A49781   1.189  15.862   7.015
 3838POPC   C4A49782   1.571  15.914   7.302
 3838POPC   C1B49783   0.738  16.181   6.192
 3838POPC   C2B49784   0.759  16.022   6.628
 3838POPC   C3B49785   0.889  16.291   6.981
 3838POPC   C4B49786   1.164  16.313   7.339
 3839POPC   NC349787  30.398  35.467   5.064
 3839POPC   PO449788  30.575  35.043   5.623
 3839POPC   GL149789  30.688  35.417   5.886
 3839POPC   GL249790  30.917  35.683   5.755
 3839POPC   C1A49791  30.752  35.450   6.343
 3839POPC   D2A49792  31.022  35.194   6.606
 3839POPC   C3A49793  30.820  35.111   6.980
 3839POPC   C4A49794  30.961  35.206   7.386
 3839POPC   C1B49795  30.905  35.932   6.146
 3839POPC   C2B49796  30.988  35.870   6.601
 3839POPC   C3B49797  30.959  35.608   6.973
 3839POPC   C4B49798  30.699  35.766   7.317
 3840POPC   NC349799  18.893  32.066   5.335
 3840POPC   PO449800  19.306  31.451   5.461
 3840POPC   GL149801  19.040  31.534   5.822
 3840POPC   GL249802  18.802  31.798   5.771
 3840POPC   C1A49803  19.128  31.392   6.244
 3840POPC   D2A49804  19.294  31.146   6.575
 3840POPC   C3A49805  19.346  31.374   6.934
 3840POPC   C4A49806  19.069  31.376   7.251
 3840POPC   C1B49807  18.688  31.640   6.196
 3840POPC   C2B49808  18.856  31.628   6.641
 3840POPC   C3B49809  18.720  31.678   7.069
 3840POPC   C4B49810  18.778  31.706   7.495
 3841POPC   NC349811  40.823  34.092   5.532
 3841POPC   PO449812  40.300  33.530   5.523
 3841POPC   GL149813  40.557  33.790   5.893
 3841POPC   GL249814  40.874  34.015   6.019
 3841POPC   C1A49815  40.742  33.622   6.279
 3841POPC   D2A49816  40.619  33.878   6.597
 3841POPC   C3A49817  40.805  33.809   6.972
 3841POPC   C4A49818  40.581  33.865   7.339
 3841POPC   C1B49819  41.200  34.269   6.199
 3841POPC   C2B49820  41.129  34.442   6.608
 3841POPC   C3B49821  40.846  34.351   6.929
 3841POPC   C4B49822  40.995  34.144   7.314
 3842POPC   NC349823  38.690   4.538   5.507
 3842POPC   PO449824  38.125   4.105   5.438
 3842POPC   GL149825  38.426   4.139   5.739
 3842POPC   GL249826  38.370   4.449   5.903
 3842POPC   C1A49827  38.535   4.011   6.133
 3842POPC   D2A49828  38.535   3.950   6.545
 3842POPC   C3A49829  38.587   4.230   6.840
 3842POPC   C4A49830  38.745   4.172   7.254
 3842POPC   C1B49831  38.553   4.504   6.311
 3842POPC   C2B49832  38.442   4.721   6.661
 3842POPC   C3B49833  38.324   4.749   7.089
 3842POPC   C4B49834  38.314   4.502   7.465
 3843POPC   NC349835  26.031  19.198   5.407
 3843POPC   PO449836  26.727  19.127   5.398
 3843POPC   GL149837  26.454  19.118   5.851
 3843POPC   GL249838  26.071  19.193   5.895
 3843POPC   C1A49839  26.239  18.942   6.276
 3843POPC   D2A49840  25.982  19.194   6.592
 3843POPC   C3A49841  26.103  19.147   7.008
 3843POPC   C4A49842  26.300  18.848   7.256
 3843POPC   C1B49843  25.729  19.062   6.172
 3843POPC   C2B49844  25.473  19.238   6.509
 3843POPC   C3B49845  25.559  19.171   6.947
 3843POPC   C4B49846  25.732  19.453   7.232
 3844POPC   NC349847  27.390   4.202   5.372
 3844POPC   PO449848  27.950   4.655   5.178
 3844POPC   GL149849  27.764   4.491   5.587
 3844POPC   GL249850  27.778   4.154   5.685
 3844POPC   C1A49851  27.701   4.474   6.083
 3844POPC   D2A49852  27.692   4.643   6.526
 3844POPC   C3A49853  27.641   4.419   6.921
 3844POPC   C4A49854  27.625   4.522   7.353
 3844POPC   C1B49855  27.498   3.988   6.039
 3844POPC   C2B49856  27.429   4.185   6.457
 3844POPC   C3B49857  27.187   4.222   6.857
 3844POPC   C4B49858  27.394   4.081   7.263
 3845POPC   NC349859  24.648  16.968   5.501
 3845POPC   PO449860  24.680  17.601   5.567
 3845POPC   GL149861  24.316  17.490   5.805
 3845POPC   GL249862  24.327  17.129   5.881
 3845POPC   C1A49863  24.313  17.541   6.242
 3845POPC   D2A49864  24.383  17.739   6.649
 3845POPC   C3A49865  24.685  17.814   6.977
 3845POPC   C4A49866  24.586  17.670   7.397
 3845POPC   C1B49867  24.660  17.140   6.194
 3845POPC   C2B49868  24.791  17.321   6.600
 3845POPC   C3B49869  24.629  17.307   6.997
 3845POPC   C4B49870  24.408  17.217   7.362
 3846POPC   NC349871  32.043  24.996   5.656
 3846POPC   PO449872  32.552  25.385   5.525
 3846POPC   GL149873  32.246  25.434   5.883
 3846POPC   GL249874  31.872  25.461   5.819
 3846POPC   C1A49875  32.222  25.214   6.279
 3846POPC   D2A49876  32.462  25.129   6.657
 3846POPC   C3A49877  32.217  25.144   7.036
 3846POPC   C4A49878  32.291  25.019   7.459
 3846POPC   C1B49879  31.902  25.633   6.254
 3846POPC   C2B49880  32.170  25.575   6.650
 3846POPC   C3B49881  32.121  25.647   7.091
 3846POPC   C4B49882  32.073  25.487   7.514
 3847POPC   NC349883  30.102  24.779   5.508
 3847POPC   PO449884  30.020  24.096   5.370
 3847POPC   GL149885  29.978  24.195   5.816
 3847POPC   GL249886  29.881  24.542   5.913
 3847POPC   C1A49887  29.995  24.227   6.301
 3847POPC   D2A49888  29.781  24.399   6.697
 3847POPC   C3A49889  29.875  24.267   7.127
 3847POPC   C4A49890  30.165  24.438   7.439
 3847POPC   C1B49891  29.941  24.738   6.318
 3847POPC   C2B49892  29.859  24.912   6.704
 3847POPC   C3B49893  29.837  24.839   7.160
 3847POPC   C4B49894  29.530  25.002   7.472
 3848POPC   NC349895  16.670  21.514   5.382
 3848POPC   PO449896  16.608  22.172   5.528
 3848POPC   GL149897  16.807  22.137   5.909
 3848POPC   GL249898  17.158  21.997   5.829
 3848POPC   C1A49899  16.698  22.320   6.316
 3848POPC   D2A49900  16.551  22.409   6.738
 3848POPC   C3A49901  16.690  22.050   6.993
 3848POPC   C4A49902  16.844  21.758   7.282
 3848POPC   C1B49903  17.213  22.256   6.206
 3848POPC   C2B49904  17.153  22.423   6.628
 3848POPC   C3B49905  16.966  22.475   7.034
 3848POPC   C4B49906  16.911  22.300   7.434
 3849POPC   NC349907  20.596  17.780   5.429
 3849POPC   PO449908  20.251  17.216   5.512
 3849POPC   GL149909  20.569  17.403   5.844
 3849POPC   GL249910  20.844  17.681   5.865
 3849POPC   C1A49911  20.645  17.526   6.310
 3849POPC   D2A49912  20.694  17.610   6.775
 3849POPC   C3A49913  20.853  17.273   7.033
 3849POPC   C4A49914  21.081  17.009   7.325
 3849POPC   C1B49915  20.942  17.970   6.225
 3849POPC   C2B49916  20.885  18.137   6.623
 3849POPC   C3B49917  20.899  18.095   7.046
 3849POPC   C4B49918  20.729  17.745   7.279
 3850POPC   NC349919  44.199  42.210   5.513
 3850POPC   PO449920  43.527  42.289   5.614
 3850POPC   GL149921  43.869  42.325   5.887
 3850POPC   GL249922  44.150  42.589   5.887
 3850POPC   C1A49923  43.875  42.420   6.303
 3850POPC   D2A49924  43.974  42.566   6.671
 3850POPC   C3A49925  43.660  42.374   6.924
 3850POPC   C4A49926  43.661  42.443   7.316
 3850POPC   C1B49927  44.311  42.220   6.145
 3850POPC   C2B49928  44.314  42.176   6.578
 3850POPC   C3B49929  44.154  42.219   7.011
 3850POPC   C4B49930  43.899  41.972   7.226
 3851POPC   NC349931   8.403  28.342   5.504
 3851POPC   PO449932   7.762  28.693   5.412
 3851POPC   GL149933   7.871  28.527   5.833
 3851POPC   GL249934   8.231  28.434   5.968
 3851POPC   C1A49935   7.850  28.439   6.270
 3851POPC   D2A49936   8.171  28.477   6.572
 3851POPC   C3A49937   8.081  28.478   7.005
 3851POPC   C4A49938   8.402  28.557   7.308
 3851POPC   C1B49939   8.170  28.035   6.281
 3851POPC   C2B49940   8.097  27.963   6.738
 3851POPC   C3B49941   8.245  28.015   7.166
 3851POPC   C4B49942   8.255  28.179   7.614
 3852POPC   NC349943  33.877  41.703   5.342
 3852POPC   PO449944  33.881  41.094   5.218
 3852POPC   GL149945  33.787  41.365   5.678
 3852POPC   GL249946  34.069  41.586   5.812
 3852POPC   C1A49947  33.706  41.411   6.113
 3852POPC   D2A49948  33.627  41.600   6.499
 3852POPC   C3A49949  33.844  41.416   6.758
 3852POPC   C4A49950  34.032  41.479   7.125
 3852POPC   C1B49951  34.140  41.743   6.267
 3852POPC   C2B49952  34.245  41.768   6.740
 3852POPC   C3B49953  34.325  41.865   7.205
 3852POPC   C4B49954  34.092  41.976   7.584
 3853POPC   NC349955  28.558   6.715   5.496
 3853POPC   PO449956  28.037   6.291   5.375
 3853POPC   GL149957  28.189   6.450   5.766
 3853POPC   GL249958  28.204   6.822   5.865
 3853POPC   C1A49959  28.293   6.410   6.208
 3853POPC   D2A49960  28.459   6.486   6.593
 3853POPC   C3A49961  28.191   6.573   6.877
 3853POPC   C4A49962  28.295   6.461   7.260
 3853POPC   C1B49963  28.377   6.956   6.292
 3853POPC   C2B49964  28.477   6.997   6.755
 3853POPC   C3B49965  28.355   6.982   7.212
 3853POPC   C4B49966  28.494   6.823   7.650
 3854POPC   NC349967  10.033  10.252   5.504
 3854POPC   PO449968   9.401  10.583   5.462
 3854POPC   GL149969   9.692  10.532   5.784
 3854POPC   GL249970   9.965  10.742   5.640
 3854POPC   C1A49971   9.690  10.371   6.223
 3854POPC   D2A49972   9.436  10.470   6.598
 3854POPC   C3A49973   9.478  10.271   7.002
 3854POPC   C4A49974   9.853  10.278   7.243
 3854POPC   C1B49975   9.937  10.886   6.048
 3854POPC   C2B49976   9.882  10.803   6.473
 3854POPC   C3B49977   9.942  10.640   6.880
 3854POPC   C4B49978  10.013  10.836   7.264
 3855POPC   NC349979  29.017  26.117   5.427
 3855POPC   PO449980  29.118  25.517   5.454
 3855POPC   GL149981  29.130  25.816   5.820
 3855POPC   GL249982  29.447  25.893   6.004
 3855POPC   C1A49983  29.040  26.078   6.213
 3855POPC   D2A49984  29.311  25.984   6.545
 3855POPC   C3A49985  29.164  25.986   6.970
 3855POPC   C4A49986  29.303  25.963   7.415
 3855POPC   C1B49987  29.445  26.362   6.166
 3855POPC   C2B49988  29.203  26.504   6.550
 3855POPC   C3B49989  29.351  26.453   6.995
 3855POPC   C4B49990  29.376  26.504   7.461
 3856POPC   NC349991   0.737  39.766   5.350
 3856POPC   PO449992   0.299  40.257   5.511
 3856POPC   GL149993   0.310  40.175   5.913
 3856POPC   GL249994   0.047  39.970   6.020
 3856POPC   C1A49995   0.421  40.068   6.346
 3856POPC   D2A49996   0.417  39.691   6.628
 3856POPC   C3A49997   0.426  39.842   7.008
 3856POPC   C4A49998   0.559  40.159   7.261
 3856POPC   C1B49999   0.021  40.392   6.275
 3856POPC   C2B50000   0.077  40.500   6.706
 3856POPC   C3B50001   0.092  40.203   7.073
 3856POPC   C4B50002   0.113  40.220   7.528
 3857POPC   NC350003  27.546  17.954   5.521
 3857POPC   PO450004  27.228  18.517   5.782
 3857POPC   GL150005  27.519  18.242   5.938
 3857POPC   GL250006  27.874  18.259   5.788
 3857POPC   C1A50007  27.399  17.982   6.271
 3857POPC   D2A50008  27.581  17.978   6.682
 3857POPC   C3A50009  27.396  18.289   6.951
 3857POPC   C4A50010  27.446  17.998   7.245
 3857POPC   C1B50011  27.918  18.491   6.184
 3857POPC   C2B50012  27.834  18.439   6.645
 3857POPC   C3B50013  27.886  18.396   7.083
 3857POPC   C4B50014  27.981  17.988   7.244
 3858POPC   NC350015   1.268  42.613   5.365
 3858POPC   PO450016   0.965  42.011   5.333
 3858POPC   GL150017   0.917  42.327   5.646
 3858POPC   GL250018   1.277  42.279   5.763
 3858POPC   C1A50019   0.964  42.576   6.027
 3858POPC   D2A50020   1.120  42.540   6.433
 3858POPC   C3A50021   0.967  42.642   6.857
 3858POPC   C4A50022   1.059  42.351   7.174
 3858POPC   C1B50023   1.573  42.314   6.110
 3858POPC   C2B50024   1.601  42.422   6.538
 3858POPC   C3B50025   1.600  42.277   6.958
 3858POPC   C4B50026   1.736  42.476   7.346
 3859POPC   NC350027   2.602   0.515   5.351
 3859POPC   PO450028   3.253   0.445   5.256
 3859POPC   GL150029   3.122   0.574   5.703
 3859POPC   GL250030   2.772   0.534   5.820
 3859POPC   C1A50031   3.147   0.477   6.171
 3859POPC   D2A50032   2.910   0.278   6.542
 3859POPC   C3A50033   3.032   0.363   6.992
 3859POPC   C4A50034   2.843   0.209   7.389
 3859POPC   C1B50035   2.487   0.640   6.140
 3859POPC   C2B50036   2.506   0.657   6.557
 3859POPC   C3B50037   2.548   0.462   6.938
 3859POPC   C4B50038   2.553   0.651   7.317
 3860POPC   NC350039   0.768  43.281   5.679
 3860POPC   PO450040   0.856  42.782   5.284
 3860POPC   GL150041   0.601  42.795   5.708
 3860POPC   GL250042   0.356  43.067   5.864
 3860POPC   C1A50043   0.542  42.783   6.211
 3860POPC   D2A50044   0.842  42.999   6.487
 3860POPC   C3A50045   0.682  43.110   6.888
 3860POPC   C4A50046   0.380  42.824   7.083
 3860POPC   C1B50047   0.305  43.273   6.242
 3860POPC   C2B50048   0.252  43.119   6.629
 3860POPC   C3B50049   0.160  43.269   7.025
 3860POPC   C4B50050   0.203  43.140   7.463
 3861POPC   NC350051  40.233  19.014   5.321
 3861POPC   PO450052  40.828  18.748   5.282
 3861POPC   GL150053  40.660  18.890   5.689
 3861POPC   GL250054  40.746  18.599   5.805
 3861POPC   C1A50055  40.392  18.840   6.111
 3861POPC   D2A50056  40.352  19.094   6.552
 3861POPC   C3A50057  40.673  19.138   6.938
 3861POPC   C4A50058  40.786  18.947   7.365
 3861POPC   C1B50059  40.939  18.666   6.214
 3861POPC   C2B50060  41.020  18.923   6.603
 3861POPC   C3B50061  41.168  18.964   7.037
 3861POPC   C4B50062  41.290  18.959   7.463
 3862POPC   NC350063   5.679  40.446   5.490
 3862POPC   PO450064   5.405  41.098   5.506
 3862POPC   GL150065   5.617  40.996   5.912
 3862POPC   GL250066   5.871  40.737   5.882
 3862POPC   C1A50067   5.785  40.899   6.349
 3862POPC   D2A50068   5.749  40.747   6.784
 3862POPC   C3A50069   5.902  40.969   7.128
 3862POPC   C4A50070   6.180  41.245   7.322
 3862POPC   C1B50071   5.669  40.426   6.153
 3862POPC   C2B50072   5.532  40.323   6.556
 3862POPC   C3B50073   5.513  40.326   6.996
 3862POPC   C4B50074   5.713  40.526   7.308
 3863POPC   NC350075  19.873  29.581   5.399
 3863POPC   PO450076  19.997  30.257   5.469
 3863POPC   GL150077  19.986  30.069   5.856
 3863POPC   GL250078  20.129  29.736   5.907
 3863POPC   C1A50079  19.633  29.961   6.112
 3863POPC   D2A50080  19.585  29.671   6.464
 3863POPC   C3A50081  19.832  29.781   6.815
 3863POPC   C4A50082  19.680  29.754   7.257
 3863POPC   C1B50083  20.063  29.902   6.360
 3863POPC   C2B50084  20.192  30.236   6.705
 3863POPC   C3B50085  20.289  30.247   7.170
 3863POPC   C4B50086  20.059  30.002   7.510
 3864POPC   NC350087   5.365   0.334   5.488
 3864POPC   PO450088   4.796   0.690   5.589
 3864POPC   GL150089   5.114   0.699   5.898
 3864POPC   GL250090   5.142   0.359   5.955
 3864POPC   C1A50091   5.115   0.681   6.355
 3864POPC   D2A50092   4.945   0.393   6.661
 3864POPC   C3A50093   5.097   0.563   7.040
 3864POPC   C4A50094   5.083   0.511   7.461
 3864POPC   C1B50095   5.303   0.189   6.329
 3864POPC   C2B50096   5.411   0.220   6.770
 3864POPC   C3B50097   5.332   0.132   7.209
 3864POPC   C4B50098   5.363   0.067   7.680
 3865POPC   NC350099  12.496  37.988   5.593
 3865POPC   PO450100  12.286  37.345   5.472
 3865POPC   GL150101  12.266  37.569   5.836
 3865POPC   GL250102  12.082  37.343   5.974
 3865POPC   C1A50103  12.380  37.713   6.260
 3865POPC   D2A50104  12.140  37.879   6.614
 3865POPC   C3A50105  12.270  38.087   6.999
 3865POPC   C4A50106  12.079  37.841   7.338
 3865POPC   C1B50107  11.970  37.434   6.376
 3865POPC   C2B50108  11.903  37.461   6.772
 3865POPC   C3B50109  12.095  37.355   7.125
 3865POPC   C4B50110  11.904  37.386   7.525
 3866POPC   NC350111  11.833  42.388   5.296
 3866POPC   PO450112  12.298  41.969   5.247
 3866POPC   GL150113  11.954  42.019   5.620
 3866POPC   GL250114  11.947  42.342   5.827
 3866POPC   C1A50115  11.883  41.926   6.093
 3866POPC   D2A50116  11.819  42.099   6.515
 3866POPC   C3A50117  12.141  42.021   6.832
 3866POPC   C4A50118  12.201  42.157   7.257
 3866POPC   C1B50119  12.104  42.573   6.190
 3866POPC   C2B50120  12.284  42.768   6.554
 3866POPC   C3B50121  12.170  42.550   6.940
 3866POPC   C4B50122  11.755  42.304   7.017
 3867POPC   NC350123  26.594  18.491   5.257
 3867POPC   PO450124  27.125  18.211   5.358
 3867POPC   GL150125  26.796  18.259   5.777
 3867POPC   GL250126  26.630  17.948   5.864
 3867POPC   C1A50127  26.804  18.502   6.263
 3867POPC   D2A50128  26.532  18.670   6.606
 3867POPC   C3A50129  26.647  18.553   7.021
 3867POPC   C4A50130  26.667  18.517   7.472
 3867POPC   C1B50131  26.766  17.994   6.272
 3867POPC   C2B50132  26.725  18.165   6.687
 3867POPC   C3B50133  26.619  18.029   7.106
 3867POPC   C4B50134  26.822  17.910   7.487
 3868POPC   NC350135  18.180  28.677   5.398
 3868POPC   PO450136  18.448  28.018   5.484
 3868POPC   GL150137  18.220  28.281   5.792
 3868POPC   GL250138  18.400  28.595   5.881
 3868POPC   C1A50139  18.103  28.292   6.244
 3868POPC   D2A50140  18.271  28.095   6.624
 3868POPC   C3A50141  18.090  28.184   7.034
 3868POPC   C4A50142  18.361  28.221   7.397
 3868POPC   C1B50143  18.405  28.692   6.339
 3868POPC   C2B50144  18.160  28.601   6.693
 3868POPC   C3B50145  18.260  28.663   7.111
 3868POPC   C4B50146  17.968  28.947   7.265
 3869POPC   NC350147  20.358  15.217   5.474
 3869POPC   PO450148  20.953  15.009   5.419
 3869POPC   GL150149  20.773  15.209   5.822
 3869POPC   GL250150  20.483  15.443   5.918
 3869POPC   C1A50151  20.836  15.068   6.255
 3869POPC   D2A50152  20.720  14.935   6.698
 3869POPC   C3A50153  20.747  15.275   7.007
 3869POPC   C4A50154  20.727  15.624   7.305
 3869POPC   C1B50155  20.327  15.091   6.147
 3869POPC   C2B50156  20.156  15.032   6.536
 3869POPC   C3B50157  20.234  15.059   6.949
 3869POPC   C4B50158  20.331  15.238   7.338
 3870POPC   NC350159   5.857  41.029   5.435
 3870POPC   PO450160   5.933  41.737   5.479
 3870POPC   GL150161   5.922  41.433   5.829
 3870POPC   GL250162   5.639  41.504   6.028
 3870POPC   C1A50163   6.070  41.370   6.273
 3870POPC   D2A50164   5.998  41.218   6.681
 3870POPC   C3A50165   5.964  41.504   6.950
 3870POPC   C4A50166   5.979  41.706   7.316
 3870POPC   C1B50167   5.379  41.791   6.264
 3870POPC   C2B50168   5.372  41.980   6.688
 3870POPC   C3B50169   5.539  41.778   7.055
 3870POPC   C4B50170   5.527  41.778   7.537
 3871POPC   NC350171  33.395  42.178   5.376
 3871POPC   PO450172  32.882  42.520   5.305
 3871POPC   GL150173  33.132  42.504   5.728
 3871POPC   GL250174  33.376  42.293   5.886
 3871POPC   C1A50175  33.109  42.627   6.177
 3871POPC   D2A50176  33.053  42.460   6.605
 3871POPC   C3A50177  32.923  42.704   6.943
 3871POPC   C4A50178  32.954  42.617   7.351
 3871POPC   C1B50179  33.196  42.101   6.259
 3871POPC   C2B50180  33.352  42.037   6.675
 3871POPC   C3B50181  33.239  42.130   7.097
 3871POPC   C4B50182  33.155  41.779   7.347
 3872POPC   NC350183   4.863  40.980   5.337
 3872POPC   PO450184   5.253  40.423   5.302
 3872POPC   GL150185   4.983  40.602   5.653
 3872POPC   GL250186   5.113  40.848   5.830
 3872POPC   C1A50187   4.797  40.571   6.108
 3872POPC   D2A50188   4.656  40.709   6.544
 3872POPC   C3A50189   4.795  40.640   6.996
 3872POPC   C4A50190   5.058  40.366   7.237
 3872POPC   C1B50191   5.285  40.758   6.241
 3872POPC   C2B50192   5.237  40.730   6.689
 3872POPC   C3B50193   5.342  40.814   7.108
 3872POPC   C4B50194   5.149  41.063   7.390
 3873POPC   NC350195  30.966  20.716   5.587
 3873POPC   PO450196  30.449  21.007   5.497
 3873POPC   GL150197  30.505  20.667   5.830
 3873POPC   GL250198  30.583  20.320   5.681
 3873POPC   C1A50199  30.775  20.622   6.252
 3873POPC   D2A50200  31.009  20.490   6.670
 3873POPC   C3A50201  30.935  20.777   7.031
 3873POPC   C4A50202  30.815  20.896   7.453
 3873POPC   C1B50203  30.496  20.226   6.123
 3873POPC   C2B50204  30.550  20.278   6.575
 3873POPC   C3B50205  30.440  20.230   7.008
 3873POPC   C4B50206  30.433  20.599   7.255
 3874POPC   NC350207  34.551  36.632   5.678
 3874POPC   PO450208  34.617  37.224   5.475
 3874POPC   GL150209  34.677  37.076   5.903
 3874POPC   GL250210  34.364  36.881   6.065
 3874POPC   C1A50211  34.749  37.068   6.337
 3874POPC   D2A50212  34.427  37.013   6.639
 3874POPC   C3A50213  34.591  36.683   6.853
 3874POPC   C4A50214  34.760  36.620   7.214
 3874POPC   C1B50215  34.234  37.278   6.190
 3874POPC   C2B50216  34.083  37.426   6.583
 3874POPC   C3B50217  34.314  37.404   7.012
 3874POPC   C4B50218  34.395  36.984   7.227
 3875POPC   NC350219  22.368  14.412   5.266
 3875POPC   PO450220  21.698  14.496   5.517
 3875POPC   GL150221  21.989  14.401   5.812
 3875POPC   GL250222  22.366  14.391   5.760
 3875POPC   C1A50223  21.923  14.503   6.246
 3875POPC   D2A50224  22.124  14.730   6.575
 3875POPC   C3A50225  22.224  14.530   6.936
 3875POPC   C4A50226  22.327  14.691   7.314
 3875POPC   C1B50227  22.423  14.478   6.171
 3875POPC   C2B50228  22.340  14.231   6.520
 3875POPC   C3B50229  22.595  14.185   6.865
 3875POPC   C4B50230  22.393  14.175   7.279
 3876POPC   NC350231  33.590  22.814   5.070
 3876POPC   PO450232  33.079  23.088   5.394
 3876POPC   GL150233  32.865  23.084   5.779
 3876POPC   GL250234  33.108  22.904   5.959
 3876POPC   C1A50235  32.793  23.194   6.206
 3876POPC   D2A50236  33.047  23.074   6.561
 3876POPC   C3A50237  32.964  23.242   6.947
 3876POPC   C4A50238  32.997  23.068   7.319
 3876POPC   C1B50239  33.390  22.797   6.281
 3876POPC   C2B50240  33.321  22.637   6.674
 3876POPC   C3B50241  33.014  22.694   6.946
 3876POPC   C4B50242  33.303  22.645   7.270
 3877POPC   NC350243  11.513  39.066   5.446
 3877POPC   PO450244  11.021  39.461   5.620
 3877POPC   GL150245  11.336  39.291   5.884
 3877POPC   GL250246  11.381  38.932   5.914
 3877POPC   C1A50247  11.593  39.295   6.259
 3877POPC   D2A50248  11.751  39.340   6.694
 3877POPC   C3A50249  11.358  39.369   6.936
 3877POPC   C4A50250  11.148  39.770   6.972
 3877POPC   C1B50251  11.406  38.803   6.325
 3877POPC   C2B50252  11.173  38.888   6.690
 3877POPC   C3B50253  11.385  38.851   7.066
 3877POPC   C4B50254  11.361  39.067   7.424
 3878POPC   NC350255   8.127  39.743   5.167
 3878POPC   PO450256   8.506  40.221   5.408
 3878POPC   GL150257   8.326  40.224   5.821
 3878POPC   GL250258   8.627  40.401   5.933
 3878POPC   C1A50259   8.030  40.052   6.169
 3878POPC   D2A50260   8.007  39.766   6.554
 3878POPC   C3A50261   8.108  39.925   6.974
 3878POPC   C4A50262   8.020  39.835   7.406
 3878POPC   C1B50263   8.341  40.446   6.287
 3878POPC   C2B50264   8.340  40.344   6.719
 3878POPC   C3B50265   8.574  40.473   7.081
 3878POPC   C4B50266   8.405  40.173   7.337
 3879POPC   NC350267   0.410  15.502   5.455
 3879POPC   PO450268   0.283  14.792   5.462
 3879POPC   GL150269   0.463  14.987   5.841
 3879POPC   GL250270   0.393  15.354   5.938
 3879POPC   C1A50271   0.458  14.990   6.288
 3879POPC   D2A50272   0.467  15.272   6.609
 3879POPC   C3A50273   0.450  15.168   7.009
 3879POPC   C4A50274   0.254  14.808   7.087
 3879POPC   C1B50275   0.336  15.656   6.305
 3879POPC   C2B50276   0.172  15.649   6.775
 3879POPC   C3B50277   0.226  15.624   7.253
 3879POPC   C4B50278   0.330  15.791   7.697
 3880POPC   NC350279   8.070  16.259   5.408
 3880POPC   PO450280   8.603  15.955   5.593
 3880POPC   GL150281   8.291  16.126   5.874
 3880POPC   GL250282   7.908  16.183   5.886
 3880POPC   C1A50283   8.261  16.182   6.276
 3880POPC   D2A50284   8.403  16.269   6.659
 3880POPC   C3A50285   8.096  16.171   6.961
 3880POPC   C4A50286   8.246  16.045   7.341
 3880POPC   C1B50287   7.918  15.829   6.166
 3880POPC   C2B50288   8.108  15.810   6.598
 3880POPC   C3B50289   8.004  15.677   7.035
 3880POPC   C4B50290   7.947  15.688   7.514
 3881POPC   NC350291  24.907  13.692   5.418
 3881POPC   PO450292  24.469  13.175   5.444
 3881POPC   GL150293  24.684  13.355   5.850
 3881POPC   GL250294  24.702  13.684   5.875
 3881POPC   C1A50295  24.699  13.492   6.336
 3881POPC   D2A50296  24.329  13.571   6.649
 3881POPC   C3A50297  24.330  13.386   7.054
 3881POPC   C4A50298  24.687  13.524   7.249
 3881POPC   C1B50299  24.624  13.986   6.179
 3881POPC   C2B50300  24.545  14.085   6.585
 3881POPC   C3B50301  24.621  14.260   6.966
 3881POPC   C4B50302  24.478  13.995   7.243
 3882POPC   NC350303  26.070  17.473   5.362
 3882POPC   PO450304  26.403  18.084   5.418
 3882POPC   GL150305  26.166  17.782   5.739
 3882POPC   GL250306  25.878  17.903   5.960
 3882POPC   C1A50307  26.074  17.436   6.056
 3882POPC   D2A50308  25.962  17.536   6.486
 3882POPC   C3A50309  25.993  17.339   6.888
 3882POPC   C4A50310  26.181  17.387   7.286
 3882POPC   C1B50311  26.243  17.894   6.223
 3882POPC   C2B50312  26.407  17.769   6.599
 3882POPC   C3B50313  26.161  17.830   6.961
 3882POPC   C4B50314  26.197  17.881   7.394
 3883POPC   NC350315  26.977  13.883   5.503
 3883POPC   PO450316  26.304  13.878   5.596
 3883POPC   GL150317  26.652  13.547   5.790
 3883POPC   GL250318  27.033  13.560   5.877
 3883POPC   C1A50319  26.718  13.363   6.239
 3883POPC   D2A50320  26.582  13.325   6.682
 3883POPC   C3A50321  26.765  13.438   7.049
 3883POPC   C4A50322  26.879  13.806   7.255
 3883POPC   C1B50323  27.215  13.725   6.302
 3883POPC   C2B50324  27.171  13.580   6.752
 3883POPC   C3B50325  27.263  13.464   7.197
 3883POPC   C4B50326  27.179  13.623   7.635
 3884POPC   NC350327  42.875  38.449   5.513
 3884POPC   PO450328  43.522  38.449   5.447
 3884POPC   GL150329  43.270  38.643   5.821
 3884POPC   GL250330  42.909  38.561   6.003
 3884POPC   C1A50331  43.331  38.570   6.271
 3884POPC   D2A50332  43.077  38.523   6.646
 3884POPC   C3A50333  43.035  38.477   7.099
 3884POPC   C4A50334  43.298  38.555   7.440
 3884POPC   C1B50335  42.733  38.279   6.334
 3884POPC   C2B50336  42.779  37.996   6.688
 3884POPC   C3B50337  42.732  38.028   7.138
 3884POPC   C4B50338  42.730  37.957   7.588
 3885POPC   NC350339  11.232  38.080   5.488
 3885POPC   PO450340  11.544  38.615   5.514
 3885POPC   GL150341  11.307  38.427   5.860
 3885POPC   GL250342  10.947  38.439   5.821
 3885POPC   C1A50343  11.270  38.256   6.256
 3885POPC   D2A50344  11.374  38.398   6.665
 3885POPC   C3A50345  11.245  38.063   6.927
 3885POPC   C4A50346  11.408  38.151   7.327
 3885POPC   C1B50347  10.928  38.639   6.248
 3885POPC   C2B50348  10.850  38.472   6.675
 3885POPC   C3B50349  11.026  38.494   7.108
 3885POPC   C4B50350  11.065  38.573   7.590
 3886POPC   NC350351  22.372  22.677   5.522
 3886POPC   PO450352  22.219  22.010   5.489
 3886POPC   GL150353  22.222  22.234   5.850
 3886POPC   GL250354  22.056  21.958   6.027
 3886POPC   C1A50355  22.442  22.245   6.248
 3886POPC   D2A50356  22.476  22.113   6.693
 3886POPC   C3A50357  22.223  22.353   6.995
 3886POPC   C4A50358  22.196  22.385   7.474
 3886POPC   C1B50359  21.887  22.216   6.387
 3886POPC   C2B50360  21.747  22.252   6.836
 3886POPC   C3B50361  21.855  22.023   7.183
 3886POPC   C4B50362  22.242  21.837   7.291
 3887POPC   NC350363   0.929  13.913   5.497
 3887POPC   PO450364   0.993  13.258   5.452
 3887POPC   GL150365   1.064  13.377   5.871
 3887POPC   GL250366   0.967  13.727   5.966
 3887POPC   C1A50367   1.116  13.386   6.316
 3887POPC   D2A50368   1.176  13.599   6.700
 3887POPC   C3A50369   1.099  13.352   7.034
 3887POPC   C4A50370   1.011  13.228   7.442
 3887POPC   C1B50371   1.242  13.915   6.284
 3887POPC   C2B50372   1.326  14.098   6.708
 3887POPC   C3B50373   1.242  13.913   7.123
 3887POPC   C4B50374   1.374  13.585   7.406
 3888POPC   NC350375  33.763  35.534   5.434
 3888POPC   PO450376  34.205  35.035   5.556
 3888POPC   GL150377  33.958  35.294   5.855
 3888POPC   GL250378  34.065  35.631   5.887
 3888POPC   C1A50379  33.644  35.305   6.213
 3888POPC   D2A50380  33.414  35.521   6.593
 3888POPC   C3A50381  33.440  35.304   6.966
 3888POPC   C4A50382  33.528  35.433   7.358
 3888POPC   C1B50383  34.134  35.529   6.294
 3888POPC   C2B50384  33.911  35.408   6.671
 3888POPC   C3B50385  33.853  35.658   7.032
 3888POPC   C4B50386  33.953  35.633   7.516
 3889POPC   NC350387   9.112  13.046   5.477
 3889POPC   PO450388   8.499  12.801   5.321
 3889POPC   GL150389   8.720  12.843   5.750
 3889POPC   GL250390   8.988  12.585   5.781
 3889POPC   C1A50391   9.003  13.014   6.134
 3889POPC   D2A50392   9.116  12.756   6.526
 3889POPC   C3A50393   9.021  12.958   6.940
 3889POPC   C4A50394   8.957  13.291   7.262
 3889POPC   C1B50395   8.744  12.582   6.179
 3889POPC   C2B50396   8.712  12.435   6.631
 3889POPC   C3B50397   8.917  12.451   7.035
 3889POPC   C4B50398   9.352  12.575   7.160
 3890POPC   NC350399  31.366  22.241   5.124
 3890POPC   PO450400  30.873  21.949   5.475
 3890POPC   GL150401  31.159  22.028   5.874
 3890POPC   GL250402  31.480  22.192   5.800
 3890POPC   C1A50403  31.227  22.124   6.365
 3890POPC   D2A50404  31.449  22.315   6.766
 3890POPC   C3A50405  31.324  22.257   7.222
 3890POPC   C4A50406  31.140  22.165   7.659
 3890POPC   C1B50407  31.710  22.094   6.219
 3890POPC   C2B50408  31.772  21.931   6.674
 3890POPC   C3B50409  31.825  22.107   7.116
 3890POPC   C4B50410  31.642  22.053   7.567
 3891POPC   NC350411  31.507  16.110   5.466
 3891POPC   PO450412  31.744  15.544   5.626
 3891POPC   GL150413  31.440  15.749   5.898
 3891POPC   GL250414  31.392  16.143   5.973
 3891POPC   C1A50415  31.545  15.742   6.342
 3891POPC   D2A50416  31.776  15.684   6.740
 3891POPC   C3A50417  31.563  15.946   7.063
 3891POPC   C4A50418  31.750  16.254   7.315
 3891POPC   C1B50419  31.172  16.353   6.352
 3891POPC   C2B50420  31.218  16.371   6.828
 3891POPC   C3B50421  31.233  16.312   7.296
 3891POPC   C4B50422  31.157  16.340   7.770
 3892POPC   NC350423  14.332  28.163   5.465
 3892POPC   PO450424  14.325  28.771   5.401
 3892POPC   GL150425  14.257  28.567   5.805
 3892POPC   GL250426  14.579  28.381   5.885
 3892POPC   C1A50427  14.327  28.601   6.268
 3892POPC   D2A50428  14.737  28.519   6.430
 3892POPC   C3A50429  14.733  28.456   6.868
 3892POPC   C4A50430  14.314  28.586   7.069
 3892POPC   C1B50431  14.432  28.105   6.246
 3892POPC   C2B50432  14.305  28.223   6.677
 3892POPC   C3B50433  14.424  28.086   7.102
 3892POPC   C4B50434  14.620  28.075   7.528
 3893POPC   NC350435  17.546  41.478   5.381
 3893POPC   PO450436  18.091  41.666   5.720
 3893POPC   GL150437  17.736  41.513   5.959
 3893POPC   GL250438  17.405  41.431   5.879
 3893POPC   C1A50439  17.560  41.577   6.372
 3893POPC   D2A50440  17.751  41.554   6.759
 3893POPC   C3A50441  17.708  41.302   7.139
 3893POPC   C4A50442  17.862  41.483   7.556
 3893POPC   C1B50443  17.157  41.289   6.240
 3893POPC   C2B50444  17.271  41.271   6.674
 3893POPC   C3B50445  17.161  41.351   7.102
 3893POPC   C4B50446  17.376  41.483   7.498
 3894POPC   NC350447  10.967  10.969   5.575
 3894POPC   PO450448  10.388  10.538   5.310
 3894POPC   GL150449  10.437  10.438   5.746
 3894POPC   GL250450  10.727  10.568   5.854
 3894POPC   C1A50451  10.206  10.440   6.128
 3894POPC   D2A50452  10.331  10.503   6.546
 3894POPC   C3A50453  10.236  10.215   6.857
 3894POPC   C4A50454  10.339  10.422   7.240
 3894POPC   C1B50455  10.733  10.318   6.250
 3894POPC   C2B50456  10.679   9.993   6.588
 3894POPC   C3B50457  10.712  10.104   7.027
 3894POPC   C4B50458  10.838  10.510   7.249
 3895POPC   NC350459  10.239   9.354   5.526
 3895POPC   PO450460   9.620   9.010   5.270
 3895POPC   GL150461   9.596   8.863   5.685
 3895POPC   GL250462   9.904   9.038   5.846
 3895POPC   C1A50463   9.481   8.837   6.119
 3895POPC   D2A50464   9.783   8.921   6.424
 3895POPC   C3A50465   9.659   8.992   6.827
 3895POPC   C4A50466   9.711   8.956   7.247
 3895POPC   C1B50467  10.069   9.300   6.214
 3895POPC   C2B50468  10.158   9.223   6.664
 3895POPC   C3B50469   9.994   9.344   7.060
 3895POPC   C4B50470  10.115   9.425   7.470
 3896POPC   NC350471   9.265  28.094   5.304
 3896POPC   PO450472   8.770  28.531   5.206
 3896POPC   GL150473   8.947  28.469   5.653
 3896POPC   GL250474   8.912  28.121   5.773
 3896POPC   C1A50475   9.045  28.528   6.133
 3896POPC   D2A50476   8.818  28.597   6.553
 3896POPC   C3A50477   9.017  28.691   6.964
 3896POPC   C4A50478   8.882  28.711   7.389
 3896POPC   C1B50479   8.648  28.209   6.167
 3896POPC   C2B50480   8.569  28.121   6.622
 3896POPC   C3B50481   8.700  28.225   7.047
 3896POPC   C4B50482   9.110  28.242   7.214
 3897POPC   NC350483  33.095   2.483   5.678
 3897POPC   PO450484  32.613   2.838   5.337
 3897POPC   GL150485  32.792   2.923   5.772
 3897POPC   GL250486  32.664   2.630   5.888
 3897POPC   C1A50487  33.027   2.858   6.199
 3897POPC   D2A50488  33.209   2.934   6.573
 3897POPC   C3A50489  33.310   2.633   6.883
 3897POPC   C4A50490  33.152   2.829   7.245
 3897POPC   C1B50491  32.684   2.526   6.340
 3897POPC   C2B50492  32.790   2.693   6.738
 3897POPC   C3B50493  32.805   2.490   7.113
 3897POPC   C4B50494  32.861   2.570   7.568
 3898POPC   NC350495  42.408   0.258   5.208
 3898POPC   PO450496  42.292   0.924   5.340
 3898POPC   GL150497  42.404   0.594   5.611
 3898POPC   GL250498  42.581   0.790   5.838
 3898POPC   C1A50499  42.436   0.331   5.997
 3898POPC   D2A50500  42.628   0.446   6.405
 3898POPC   C3A50501  42.393   0.509   6.793
 3898POPC   C4A50502  42.532   0.264   7.126
 3898POPC   C1B50503  42.167   0.761   6.085
 3898POPC   C2B50504  41.979   0.776   6.513
 3898POPC   C3B50505  41.964   0.851   6.961
 3898POPC   C4B50506  42.118   0.537   7.243
 3899POPC   NC350507  15.869  40.185   5.468
 3899POPC   PO450508  16.100  39.551   5.484
 3899POPC   GL150509  15.999  39.830   5.818
 3899POPC   GL250510  15.644  39.866   5.847
 3899POPC   C1A50511  16.021  39.792   6.248
 3899POPC   D2A50512  16.071  40.084   6.581
 3899POPC   C3A50513  15.970  39.908   6.975
 3899POPC   C4A50514  16.149  40.089   7.321
 3899POPC   C1B50515  15.676  40.181   6.198
 3899POPC   C2B50516  15.572  40.101   6.645
 3899POPC   C3B50517  15.656  40.341   6.992
 3899POPC   C4B50518  15.663  40.184   7.407
 3900POPC   NC350519  34.907  10.779   5.496
 3900POPC   PO450520  34.451  10.451   5.403
 3900POPC   GL150521  34.652  10.458   5.808
 3900POPC   GL250522  34.519  10.797   5.832
 3900POPC   C1A50523  34.825  10.648   6.214
 3900POPC   D2A50524  34.612  10.628   6.605
 3900POPC   C3A50525  34.611  10.383   6.976
 3900POPC   C4A50526  34.711  10.728   7.227
 3900POPC   C1B50527  34.287  10.691   6.204
 3900POPC   C2B50528  34.090  10.572   6.572
 3900POPC   C3B50529  34.223  10.754   6.937
 3900POPC   C4B50530  34.177  10.623   7.317
 3901POPC   NC350531   9.837   4.607   5.133
 3901POPC   PO450532   9.660   5.235   5.253
 3901POPC   GL150533   9.584   5.151   5.748
 3901POPC   GL250534   9.865   5.308   5.945
 3901POPC   C1A50535   9.461   5.195   6.217
 3901POPC   D2A50536   9.330   4.975   6.604
 3901POPC   C3A50537   9.610   4.927   6.948
 3901POPC   C4A50538   9.572   5.336   7.129
 3901POPC   C1B50539  10.008   4.991   6.211
 3901POPC   C2B50540  10.057   4.710   6.559
 3901POPC   C3B50541  10.163   4.929   6.928
 3901POPC   C4B50542  10.003   5.103   7.299
 3902POPC   NC350543   3.797   3.769   5.555
 3902POPC   PO450544   3.699   3.261   5.153
 3902POPC   GL150545   3.567   3.238   5.646
 3902POPC   GL250546   3.332   3.539   5.732
 3902POPC   C1A50547   3.638   3.354   6.119
 3902POPC   D2A50548   3.830   3.691   6.327
 3902POPC   C3A50549   3.776   3.733   6.783
 3902POPC   C4A50550   3.729   3.846   7.207
 3902POPC   C1B50551   3.160   3.452   6.171
 3902POPC   C2B50552   3.380   3.427   6.610
 3902POPC   C3B50553   3.413   3.427   7.101
 3902POPC   C4B50554   3.203   3.256   7.502
 3903POPC   NC350555   2.961  39.484   5.286
 3903POPC   PO450556   2.593  38.943   5.216
 3903POPC   GL150557   2.891  39.117   5.647
 3903POPC   GL250558   2.853  39.488   5.784
 3903POPC   C1A50559   2.913  39.146   6.168
 3903POPC   D2A50560   2.609  39.114   6.560
 3903POPC   C3A50561   2.569  39.345   6.997
 3903POPC   C4A50562   2.719  39.217   7.419
 3903POPC   C1B50563   2.645  39.584   6.196
 3903POPC   C2B50564   2.805  39.595   6.619
 3903POPC   C3B50565   3.016  39.601   7.041
 3903POPC   C4B50566   2.878  39.722   7.468
 3904POPC   NC350567   8.495  12.336   5.275
 3904POPC   PO450568   9.092  12.117   5.551
 3904POPC   GL150569   9.003  12.077   5.957
 3904POPC   GL250570   8.834  11.773   5.993
 3904POPC   C1A50571   9.095  12.252   6.329
 3904POPC   D2A50572   9.095  12.085   6.716
 3904POPC   C3A50573   9.136  11.842   7.043
 3904POPC   C4A50574   9.127  12.118   7.392
 3904POPC   C1B50575   8.722  11.884   6.413
 3904POPC   C2B50576   8.467  11.979   6.783
 3904POPC   C3B50577   8.640  12.017   7.196
 3904POPC   C4B50578   8.662  12.335   7.498
 3905POPC   NC350579  41.163   1.586   5.360
 3905POPC   PO450580  41.597   1.120   5.329
 3905POPC   GL150581  41.600   1.272   5.784
 3905POPC   GL250582  41.374   1.571   5.816
 3905POPC   C1A50583  41.462   1.298   6.245
 3905POPC   D2A50584  41.135   1.244   6.551
 3905POPC   C3A50585  41.269   1.187   6.956
 3905POPC   C4A50586  41.637   1.145   7.229
 3905POPC   C1B50587  41.275   1.784   6.205
 3905POPC   C2B50588  41.417   1.676   6.612
 3905POPC   C3B50589  41.266   1.742   7.015
 3905POPC   C4B50590  41.275   1.478   7.366
 3906POPC   NC350591  21.212  21.197   5.425
 3906POPC   PO450592  21.618  21.709   5.345
 3906POPC   GL150593  21.628  21.417   5.720
 3906POPC   GL250594  21.820  21.113   5.717
 3906POPC   C1A50595  21.458  21.280   6.146
 3906POPC   D2A50596  21.266  21.363   6.563
 3906POPC   C3A50597  21.459  21.254   6.947
 3906POPC   C4A50598  21.338  21.366   7.366
 3906POPC   C1B50599  21.841  20.945   6.157
 3906POPC   C2B50600  21.683  20.959   6.572
 3906POPC   C3B50601  21.916  21.006   6.941
 3906POPC   C4B50602  21.743  21.029   7.335
 3907POPC   NC350603  19.562  12.615   5.413
 3907POPC   PO450604  19.655  13.250   5.636
 3907POPC   GL150605  19.823  13.034   5.930
 3907POPC   GL250606  19.922  12.767   5.766
 3907POPC   C1A50607  19.846  12.942   6.351
 3907POPC   D2A50608  19.631  12.913   6.721
 3907POPC   C3A50609  19.847  12.988   7.112
 3907POPC   C4A50610  19.877  13.290   7.439
 3907POPC   C1B50611  19.727  12.507   6.103
 3907POPC   C2B50612  19.736  12.402   6.557
 3907POPC   C3B50613  19.690  12.496   6.995
 3907POPC   C4B50614  19.907  12.554   7.401
 3908POPC   NC350615  44.825   4.567   5.560
 3908POPC   PO450616  44.780   5.195   5.368
 3908POPC   GL150617  44.845   5.036   5.795
 3908POPC   GL250618  44.512   4.920   5.800
 3908POPC   C1A50619  44.772   4.850   6.241
 3908POPC   D2A50620  44.977   4.934   6.636
 3908POPC   C3A50621  44.816   5.148   6.964
 3908POPC   C4A50622  44.870   5.101   7.353
 3908POPC   C1B50623  44.514   5.274   6.128
 3908POPC   C2B50624  44.455   5.163   6.587
 3908POPC   C3B50625  44.390   4.872   6.931
 3908POPC   C4B50626  44.441   4.844   7.372
 3909POPC   NC350627  17.785  29.774   5.529
 3909POPC   PO450628  17.132  29.967   5.407
 3909POPC   GL150629  17.362  29.987   5.794
 3909POPC   GL250630  17.718  30.147   5.840
 3909POPC   C1A50631  17.284  30.127   6.187
 3909POPC   D2A50632  17.380  29.830   6.491
 3909POPC   C3A50633  17.244  29.885   6.894
 3909POPC   C4A50634  17.056  30.254   7.044
 3909POPC   C1B50635  17.778  30.083   6.273
 3909POPC   C2B50636  17.864  29.851   6.631
 3909POPC   C3B50637  17.752  29.970   7.039
 3909POPC   C4B50638  17.688  29.658   7.325
 3910POPC   NC350639  19.343  18.388   5.532
 3910POPC   PO450640  18.894  17.883   5.530
 3910POPC   GL150641  19.079  18.111   5.883
 3910POPC   GL250642  19.024  18.463   5.965
 3910POPC   C1A50643  19.155  18.061   6.324
 3910POPC   D2A50644  18.950  18.166   6.696
 3910POPC   C3A50645  19.013  17.978   7.076
 3910POPC   C4A50646  18.741  17.829   7.369
 3910POPC   C1B50647  18.841  18.723   6.312
 3910POPC   C2B50648  18.820  18.677   6.758
 3910POPC   C3B50649  19.057  18.507   7.078
 3910POPC   C4B50650  19.201  18.668   7.446
 3911POPC   NC350651  30.690   1.433   5.543
 3911POPC   PO450652  30.930   0.848   5.344
 3911POPC   GL150653  30.962   0.958   5.763
 3911POPC   GL250654  31.082   1.315   5.841
 3911POPC   C1A50655  30.721   1.065   6.121
 3911POPC   D2A50656  30.817   1.041   6.551
 3911POPC   C3A50657  30.637   1.284   6.865
 3911POPC   C4A50658  30.620   0.974   7.157
 3911POPC   C1B50659  31.060   1.413   6.283
 3911POPC   C2B50660  31.131   1.425   6.721
 3911POPC   C3B50661  31.014   1.477   7.173
 3911POPC   C4B50662  30.919   1.215   7.558
 3912POPC   NC350663  16.001  38.386   5.496
 3912POPC   PO450664  15.475  38.773   5.433
 3912POPC   GL150665  15.671  38.763   5.890
 3912POPC   GL250666  15.957  38.511   5.982
 3912POPC   C1A50667  15.693  38.714   6.370
 3912POPC   D2A50668  16.030  38.470   6.596
 3912POPC   C3A50669  15.957  38.255   7.007
 3912POPC   C4A50670  15.888  38.441   7.399
 3912POPC   C1B50671  16.157  38.853   6.214
 3912POPC   C2B50672  16.247  38.939   6.638
 3912POPC   C3B50673  16.084  38.783   7.049
 3912POPC   C4B50674  16.110  38.908   7.495
 3913POPC   NC350675  39.388   9.993   5.420
 3913POPC   PO450676  38.938   9.443   5.401
 3913POPC   GL150677  39.177   9.608   5.781
 3913POPC   GL250678  39.543   9.724   5.818
 3913POPC   C1A50679  39.286   9.546   6.230
 3913POPC   D2A50680  39.124   9.740   6.603
 3913POPC   C3A50681  39.213   9.469   6.930
 3913POPC   C4A50682  39.073   9.393   7.340
 3913POPC   C1B50683  39.382  10.038   6.149
 3913POPC   C2B50684  39.387  10.185   6.587
 3913POPC   C3B50685  39.359   9.988   7.001
 3913POPC   C4B50686  39.679  10.028   7.315
 3914POPC   NC350687  35.402  35.804   5.341
 3914POPC   PO450688  35.161  36.395   5.340
 3914POPC   GL150689  35.284  36.129   5.736
 3914POPC   GL250690  35.461  36.428   5.830
 3914POPC   C1A50691  35.317  36.196   6.264
 3914POPC   D2A50692  35.482  36.240   6.682
 3914POPC   C3A50693  35.187  36.193   7.052
 3914POPC   C4A50694  35.235  35.853   7.379
 3914POPC   C1B50695  35.714  36.537   6.210
 3914POPC   C2B50696  35.828  36.618   6.639
 3914POPC   C3B50697  35.691  36.497   7.066
 3914POPC   C4B50698  35.653  36.016   7.131
 3915POPC   NC350699   7.026  17.236   5.734
 3915POPC   PO450700   7.610  17.269   5.365
 3915POPC   GL150701   7.415  17.559   5.675
 3915POPC   GL250702   7.506  17.365   5.934
 3915POPC   C1A50703   7.315  17.822   6.091
 3915POPC   D2A50704   7.459  17.936   6.529
 3915POPC   C3A50705   7.144  17.871   6.844
 3915POPC   C4A50706   7.206  17.702   7.255
 3915POPC   C1B50707   7.798  17.634   6.146
 3915POPC   C2B50708   7.871  17.602   6.569
 3915POPC   C3B50709   7.576  17.554   6.920
 3915POPC   C4B50710   7.568  17.335   7.321
 3916POPC   NC350711  37.135  24.877   5.476
 3916POPC   PO450712  37.366  24.227   5.178
 3916POPC   GL150713  37.226  24.406   5.660
 3916POPC   GL250714  36.868  24.572   5.784
 3916POPC   C1A50715  37.241  24.609   6.130
 3916POPC   D2A50716  37.338  24.756   6.573
 3916POPC   C3A50717  37.127  24.621   6.972
 3916POPC   C4A50718  36.946  24.327   7.284
 3916POPC   C1B50719  36.776  24.851   6.169
 3916POPC   C2B50720  36.760  24.620   6.570
 3916POPC   C3B50721  36.592  24.564   6.979
 3916POPC   C4B50722  36.735  24.815   7.292
 3917POPC   NC350723  33.324   7.121   5.596
 3917POPC   PO450724  32.814   7.398   5.219
 3917POPC   GL150725  32.904   7.696   5.605
 3917POPC   GL250726  33.201   7.699   5.859
 3917POPC   C1A50727  32.744   7.585   6.044
 3917POPC   D2A50728  32.704   7.340   6.462
 3917POPC   C3A50729  32.590   7.530   6.888
 3917POPC   C4A50730  32.716   7.678   7.321
 3917POPC   C1B50731  33.198   7.518   6.287
 3917POPC   C2B50732  33.185   7.345   6.703
 3917POPC   C3B50733  33.081   7.374   7.128
 3917POPC   C4B50734  33.192   7.323   7.550
 3918POPC   NC350735  21.109  33.192   5.596
 3918POPC   PO450736  21.791  32.909   5.479
 3918POPC   GL150737  21.545  32.710   5.828
 3918POPC   GL250738  21.160  32.697   5.827
 3918POPC   C1A50739  21.470  32.894   6.255
 3918POPC   D2A50740  21.496  33.071   6.723
 3918POPC   C3A50741  21.582  32.831   7.154
 3918POPC   C4A50742  21.594  33.102   7.571
 3918POPC   C1B50743  20.952  32.864   6.182
 3918POPC   C2B50744  21.058  33.213   6.441
 3918POPC   C3B50745  20.997  33.277   6.870
 3918POPC   C4B50746  21.217  33.185   7.235
 3919POPC   NC350747  20.971  28.923   5.590
 3919POPC   PO450748  21.520  29.315   5.468
 3919POPC   GL150749  21.382  29.132   5.858
 3919POPC   GL250750  21.428  28.760   5.814
 3919POPC   C1A50751  21.172  28.982   6.254
 3919POPC   D2A50752  20.949  28.913   6.642
 3919POPC   C3A50753  21.195  28.977   6.983
 3919POPC   C4A50754  21.389  29.056   7.355
 3919POPC   C1B50755  21.651  28.815   6.218
 3919POPC   C2B50756  21.669  28.981   6.647
 3919POPC   C3B50757  21.666  28.745   7.061
 3919POPC   C4B50758  21.736  28.762   7.566
 3920POPC   NC350759   6.216   6.542   5.183
 3920POPC   PO450760   5.870   7.019   5.484
 3920POPC   GL150761   6.039   6.621   5.730
 3920POPC   GL250762   5.768   6.473   5.948
 3920POPC   C1A50763   6.230   6.422   6.161
 3920POPC   D2A50764   6.409   6.402   6.602
 3920POPC   C3A50765   6.238   6.507   7.026
 3920POPC   C4A50766   6.299   6.931   7.171
 3920POPC   C1B50767   5.965   6.887   6.175
 3920POPC   C2B50768   5.913   7.051   6.629
 3920POPC   C3B50769   5.804   6.900   7.050
 3920POPC   C4B50770   5.714   6.480   7.220
 3921POPC   NC350771  16.290  12.148   5.227
 3921POPC   PO450772  15.665  12.091   5.337
 3921POPC   GL150773  15.954  12.103   5.675
 3921POPC   GL250774  15.850  11.844   5.911
 3921POPC   C1A50775  16.010  12.270   6.114
 3921POPC   D2A50776  15.997  11.948   6.414
 3921POPC   C3A50777  15.922  11.958   6.837
 3921POPC   C4A50778  16.035  12.167   7.181
 3921POPC   C1B50779  15.546  12.003   6.205
 3921POPC   C2B50780  15.434  12.001   6.608
 3921POPC   C3B50781  15.497  12.209   6.981
 3921POPC   C4B50782  15.609  11.955   7.323
 3922POPC   NC350783  34.318  30.670   5.452
 3922POPC   PO450784  34.865  30.285   5.668
 3922POPC   GL150785  34.655  30.630   5.876
 3922POPC   GL250786  34.310  30.590   5.956
 3922POPC   C1A50787  34.772  30.891   6.222
 3922POPC   D2A50788  35.069  30.927   6.541
 3922POPC   C3A50789  34.890  30.940   6.933
 3922POPC   C4A50790  34.807  30.649   7.247
 3922POPC   C1B50791  34.262  30.906   6.266
 3922POPC   C2B50792  34.459  30.965   6.647
 3922POPC   C3B50793  34.384  30.902   7.067
 3922POPC   C4B50794  34.315  30.592   7.345
 3923POPC   NC350795  21.018  41.366   5.543
 3923POPC   PO450796  21.356  41.891   5.418
 3923POPC   GL150797  21.377  41.693   5.831
 3923POPC   GL250798  21.473  41.340   5.822
 3923POPC   C1A50799  21.396  41.579   6.272
 3923POPC   D2A50800  21.705  41.506   6.589
 3923POPC   C3A50801  21.480  41.414   6.946
 3923POPC   C4A50802  21.316  41.696   7.248
 3923POPC   C1B50803  21.190  41.120   6.137
 3923POPC   C2B50804  21.141  41.003   6.543
 3923POPC   C3B50805  21.008  41.174   6.896
 3923POPC   C4B50806  21.170  41.198   7.294
 3924POPC   NC350807  19.093  25.535   5.510
 3924POPC   PO450808  18.808  24.948   5.430
 3924POPC   GL150809  18.936  25.171   5.827
 3924POPC   GL250810  18.706  25.454   5.908
 3924POPC   C1A50811  19.175  25.375   6.164
 3924POPC   D2A50812  19.284  25.477   6.598
 3924POPC   C3A50813  19.328  25.141   6.919
 3924POPC   C4A50814  19.173  25.085   7.346
 3924POPC   C1B50815  18.721  25.412   6.362
 3924POPC   C2B50816  18.902  25.116   6.632
 3924POPC   C3B50817  18.796  25.198   7.055
 3924POPC   C4B50818  18.943  25.529   7.330
 3925POPC   NC350819  17.123  40.580   5.500
 3925POPC   PO450820  16.748  41.010   5.236
 3925POPC   GL150821  16.773  40.952   5.688
 3925POPC   GL250822  16.576  40.671   5.740
 3925POPC   C1A50823  16.709  41.025   6.151
 3925POPC   D2A50824  16.965  40.870   6.520
 3925POPC   C3A50825  16.864  40.924   6.958
 3925POPC   C4A50826  16.490  40.868   7.171
 3925POPC   C1B50827  16.743  40.504   6.160
 3925POPC   C2B50828  16.663  40.398   6.600
 3925POPC   C3B50829  16.801  40.394   7.027
 3925POPC   C4B50830  16.576  40.420   7.389
 3926POPC   NC350831  37.082  20.760   5.248
 3926POPC   PO450832  36.574  20.305   5.542
 3926POPC   GL150833  36.894  20.560   5.762
 3926POPC   GL250834  37.251  20.552   5.685
 3926POPC   C1A50835  36.795  20.705   6.172
 3926POPC   D2A50836  36.744  20.787   6.616
 3926POPC   C3A50837  36.866  20.467   6.916
 3926POPC   C4A50838  36.730  20.720   7.224
 3926POPC   C1B50839  37.286  20.561   6.096
 3926POPC   C2B50840  37.189  20.557   6.510
 3926POPC   C3B50841  37.267  20.751   6.916
 3926POPC   C4B50842  37.210  20.502   7.301
 3927POPC   NC350843  12.162  15.950   5.255
 3927POPC   PO450844  12.638  16.421   5.461
 3927POPC   GL150845  12.298  16.175   5.717
 3927POPC   GL250846  12.131  15.830   5.741
 3927POPC   C1A50847  12.028  16.150   6.107
 3927POPC   D2A50848  12.030  15.945   6.522
 3927POPC   C3A50849  12.000  16.189   6.905
 3927POPC   C4A50850  11.824  16.102   7.285
 3927POPC   C1B50851  12.235  15.633   6.143
 3927POPC   C2B50852  12.459  15.670   6.532
 3927POPC   C3B50853  12.247  15.598   6.916
 3927POPC   C4B50854  12.370  15.691   7.324
 3928POPC   NC350855  27.201  11.861   5.463
 3928POPC   PO450856  26.564  12.206   5.547
 3928POPC   GL150857  26.834  12.164   5.843
 3928POPC   GL250858  26.620  12.376   6.036
 3928POPC   C1A50859  26.808  11.965   6.253
 3928POPC   D2A50860  26.706  11.748   6.635
 3928POPC   C3A50861  27.050  11.877   6.906
 3928POPC   C4A50862  26.864  12.066   7.243
 3928POPC   C1B50863  26.426  12.441   6.392
 3928POPC   C2B50864  26.583  12.245   6.752
 3928POPC   C3B50865  26.554  12.435   7.126
 3928POPC   C4B50866  26.593  12.381   7.581
 3929POPC   NC350867   5.373  16.146   5.527
 3929POPC   PO450868   4.710  15.790   5.545
 3929POPC   GL150869   4.896  16.090   5.832
 3929POPC   GL250870   5.139  15.846   5.871
 3929POPC   C1A50871   4.981  16.114   6.296
 3929POPC   D2A50872   4.794  15.816   6.653
 3929POPC   C3A50873   4.910  15.813   7.091
 3929POPC   C4A50874   4.917  16.098   7.426
 3929POPC   C1B50875   4.917  15.631   6.198
 3929POPC   C2B50876   5.133  15.407   6.519
 3929POPC   C3B50877   5.365  15.498   6.862
 3929POPC   C4B50878   5.321  15.521   7.281
 3930POPC   NC350879   5.066  17.087   5.669
 3930POPC   PO450880   5.351  17.629   5.462
 3930POPC   GL150881   5.006  17.588   5.748
 3930POPC   GL250882   4.671  17.726   5.664
 3930POPC   C1A50883   5.010  17.516   6.192
 3930POPC   D2A50884   5.269  17.439   6.567
 3930POPC   C3A50885   5.093  17.520   6.980
 3930POPC   C4A50886   5.220  17.426   7.427
 3930POPC   C1B50887   4.861  17.990   6.030
 3930POPC   C2B50888   5.083  17.996   6.442
 3930POPC   C3B50889   5.115  18.041   6.888
 3930POPC   C4B50890   4.796  17.922   7.163
 3931POPC   NC350891   0.236  16.073   5.340
 3931POPC   PO450892   0.771  15.803   5.425
 3931POPC   GL150893   0.537  15.911   5.753
 3931POPC   GL250894   0.763  15.719   5.933
 3931POPC   C1A50895   0.254  16.115   6.028
 3931POPC   D2A50896   0.265  16.170   6.451
 3931POPC   C3A50897   0.186  16.147   6.848
 3931POPC   C4A50898   0.477  16.053   7.159
 3931POPC   C1B50899   0.828  15.408   6.239
 3931POPC   C2B50900   0.909  15.508   6.654
 3931POPC   C3B50901   0.689  15.630   6.987
 3931POPC   C4B50902   0.731  15.629   7.426
 3932POPC   NC350903  43.148   1.644   5.353
 3932POPC   PO450904  42.903   2.307   5.521
 3932POPC   GL150905  42.980   2.017   5.861
 3932POPC   GL250906  43.316   1.877   5.785
 3932POPC   C1A50907  42.876   1.954   6.312
 3932POPC   D2A50908  42.787   2.107   6.730
 3932POPC   C3A50909  43.022   2.174   7.067
 3932POPC   C4A50910  42.832   1.895   7.339
 3932POPC   C1B50911  43.330   1.768   6.217
 3932POPC   C2B50912  43.276   1.891   6.669
 3932POPC   C3B50913  43.204   1.676   7.076
 3932POPC   C4B50914  43.278   1.736   7.560
 3933POPC   NC350915   7.769   7.105   5.591
 3933POPC   PO450916   7.473   7.673   5.278
 3933POPC   GL150917   7.502   7.568   5.728
 3933POPC   GL250918   7.834   7.652   5.767
 3933POPC   C1A50919   7.516   7.361   6.165
 3933POPC   D2A50920   7.455   7.097   6.537
 3933POPC   C3A50921   7.441   7.281   6.941
 3933POPC   C4A50922   7.186   7.272   7.337
 3933POPC   C1B50923   7.900   7.696   6.211
 3933POPC   C2B50924   7.845   7.447   6.593
 3933POPC   C3B50925   7.872   7.580   7.021
 3933POPC   C4B50926   7.979   7.397   7.379
 3934POPC   NC350927  40.628   4.237   5.544
 3934POPC   PO450928  41.286   4.228   5.597
 3934POPC   GL150929  40.964   4.195   5.911
 3934POPC   GL250930  40.724   3.870   5.888
 3934POPC   C1A50931  40.827   4.504   6.206
 3934POPC   D2A50932  40.998   4.654   6.607
 3934POPC   C3A50933  40.772   4.538   6.980
 3934POPC   C4A50934  40.779   4.276   7.349
 3934POPC   C1B50935  40.882   3.909   6.313
 3934POPC   C2B50936  40.745   4.196   6.596
 3934POPC   C3B50937  40.489   4.108   6.918
 3934POPC   C4B50938  40.595   3.811   7.266
 3935POPC   NC350939  14.257   9.034   5.209
 3935POPC   PO450940  14.858   8.715   5.445
 3935POPC   GL150941  14.689   8.991   5.813
 3935POPC   GL250942  14.330   9.085   5.780
 3935POPC   C1A50943  14.680   9.045   6.261
 3935POPC   D2A50944  14.385   9.215   6.573
 3935POPC   C3A50945  14.522   9.088   6.985
 3935POPC   C4A50946  14.497   9.079   7.421
 3935POPC   C1B50947  14.285   8.777   6.157
 3935POPC   C2B50948  14.467   8.711   6.597
 3935POPC   C3B50949  14.227   8.667   6.990
 3935POPC   C4B50950  14.029   8.897   7.344
 3936POPC   NC350951  38.735  18.283   5.338
 3936POPC   PO450952  39.458  18.225   5.530
 3936POPC   GL150953  39.246  18.380   5.899
 3936POPC   GL250954  38.950  18.263   5.790
 3936POPC   C1A50955  39.342  18.424   6.354
 3936POPC   D2A50956  39.354  18.561   6.806
 3936POPC   C3A50957  39.361  18.179   7.140
 3936POPC   C4A50958  39.456  18.136   7.594
 3936POPC   C1B50959  39.085  17.964   6.112
 3936POPC   C2B50960  39.075  17.953   6.529
 3936POPC   C3B50961  38.890  17.765   6.855
 3936POPC   C4B50962  38.849  17.941   7.242
 3937POPC   NC350963   1.364  36.605   5.010
 3937POPC   PO450964   1.234  36.191   5.523
 3937POPC   GL150965   1.277  36.083   5.928
 3937POPC   GL250966   1.019  35.837   5.942
 3937POPC   C1A50967   1.197  36.120   6.335
 3937POPC   D2A50968   1.250  35.976   6.711
 3937POPC   C3A50969   1.052  36.189   7.000
 3937POPC   C4A50970   1.343  36.157   7.298
 3937POPC   C1B50971   0.924  35.698   6.377
 3937POPC   C2B50972   0.829  35.732   6.808
 3937POPC   C3B50973   1.056  35.720   7.229
 3937POPC   C4B50974   0.947  35.652   7.706
 3938POPC   NC350975  28.652  25.408   5.334
 3938POPC   PO450976  28.247  25.022   5.704
 3938POPC   GL150977  28.508  25.312   5.940
 3938POPC   GL250978  28.471  25.624   5.789
 3938POPC   C1A50979  28.602  25.343   6.391
 3938POPC   D2A50980  28.543  25.025   6.697
 3938POPC   C3A50981  28.495  25.173   7.122
 3938POPC   C4A50982  28.224  25.061   7.456
 3938POPC   C1B50983  28.141  25.637   6.150
 3938POPC   C2B50984  28.037  25.592   6.612
 3938POPC   C3B50985  28.182  25.589   7.065
 3938POPC   C4B50986  28.401  25.540   7.496
 3939POPC   NC350987  25.357  27.007   5.493
 3939POPC   PO450988  25.042  26.402   5.469
 3939POPC   GL150989  25.145  26.688   5.848
 3939POPC   GL250990  25.262  27.056   5.976
 3939POPC   C1A50991  25.063  26.708   6.284
 3939POPC   D2A50992  24.805  26.651   6.618
 3939POPC   C3A50993  24.985  26.897   6.897
 3939POPC   C4A50994  25.172  26.813   7.254
 3939POPC   C1B50995  25.241  27.192   6.404
 3939POPC   C2B50996  25.458  27.019   6.777
 3939POPC   C3B50997  25.584  27.193   7.163
 3939POPC   C4B50998  25.386  27.147   7.574
 3940POPC   NC350999  35.708  31.529   5.514
 3940POPC   PO451000  36.231  31.395   5.096
 3940POPC   GL151001  36.193  31.679   5.530
 3940POPC   GL251002  36.496  31.816   5.707
 3940POPC   C1A51003  36.143  31.590   6.028
 3940POPC   D2A51004  36.055  31.582   6.499
 3940POPC   C3A51005  36.079  31.245   6.842
 3940POPC   C4A51006  36.089  31.373   7.302
 3940POPC   C1B51007  36.587  31.778   6.188
 3940POPC   C2B51008  36.563  31.540   6.608
 3940POPC   C3B51009  36.421  31.655   7.041
 3940POPC   C4B51010  36.444  31.681   7.523
 3941POPC   NC351011  16.231  20.725   4.967
 3941POPC   PO451012  15.893  20.456   5.391
 3941POPC   GL151013  16.160  20.416   5.748
 3941POPC   GL251014  15.864  20.304   5.865
 3941POPC   C1A51015  16.238  20.643   6.152
 3941POPC   D2A51016  16.062  20.933   6.492
 3941POPC   C3A51017  16.160  20.876   6.935
 3941POPC   C4A51018  16.109  20.569   7.274
 3941POPC   C1B51019  15.612  20.256   6.168
 3941POPC   C2B51020  15.841  20.477   6.431
 3941POPC   C3B51021  15.898  20.450   6.820
 3941POPC   C4B51022  15.722  20.220   7.122
 3942POPC   NC351023  42.500  14.600   5.435
 3942POPC   PO451024  41.981  14.221   5.374
 3942POPC   GL151025  42.245  14.213   5.765
 3942POPC   GL251026  42.455  14.488   5.927
 3942POPC   C1A51027  42.213  14.152   6.217
 3942POPC   D2A51028  42.168  14.402   6.597
 3942POPC   C3A51029  42.433  14.240   6.905
 3942POPC   C4A51030  42.540  14.363   7.322
 3942POPC   C1B51031  42.178  14.727   6.195
 3942POPC   C2B51032  42.254  14.939   6.583
 3942POPC   C3B51033  42.374  14.756   7.000
 3942POPC   C4B51034  42.233  14.760   7.431
 3943POPC   NC351035  21.174   0.680   5.514
 3943POPC   PO451036  21.592   0.166   5.332
 3943POPC   GL151037  21.655   0.425   5.739
 3943POPC   GL251038  21.346   0.281   5.831
 3943POPC   C1A51039  21.577   0.470   6.250
 3943POPC   D2A51040  21.557   0.342   6.741
 3943POPC   C3A51041  21.505   0.610   7.132
 3943POPC   C4A51042  21.685   0.681   7.572
 3943POPC   C1B51043  21.124   0.112   6.193
 3943POPC   C2B51044  21.083   0.106   6.612
 3943POPC   C3B51045  21.118   0.226   7.030
 3943POPC   C4B51046  20.972   0.058   7.392
 3944POPC   NC351047  27.373  34.014   5.525
 3944POPC   PO451048  26.764  34.065   5.312
 3944POPC   GL151049  26.900  33.899   5.698
 3944POPC   GL251050  26.966  34.217   5.772
 3944POPC   C1A51051  27.128  33.874   6.125
 3944POPC   D2A51052  27.022  34.027   6.531
 3944POPC   C3A51053  26.653  33.887   6.805
 3944POPC   C4A51054  26.568  33.581   7.171
 3944POPC   C1B51055  26.620  34.324   6.061
 3944POPC   C2B51056  26.496  34.293   6.496
 3944POPC   C3B51057  26.493  34.422   6.912
 3944POPC   C4B51058  26.651  34.151   7.251
 3945POPC   NC351059  37.992  36.281   5.520
 3945POPC   PO451060  37.624  35.679   5.465
 3945POPC   GL151061  37.659  35.930   5.816
 3945POPC   GL251062  37.523  36.270   5.823
 3945POPC   C1A51063  37.757  36.024   6.237
 3945POPC   D2A51064  37.526  36.066   6.609
 3945POPC   C3A51065  37.639  35.994   7.024
 3945POPC   C4A51066  37.366  35.897   7.366
 3945POPC   C1B51067  37.710  36.542   6.153
 3945POPC   C2B51068  37.583  36.594   6.586
 3945POPC   C3B51069  37.389  36.446   6.968
 3945POPC   C4B51070  37.554  36.377   7.366
 3946POPC   NC351071  14.713   4.958   5.425
 3946POPC   PO451072  14.189   5.418   5.359
 3946POPC   GL151073  14.216   5.308   5.826
 3946POPC   GL251074  14.444   5.012   5.876
 3946POPC   C1A51075  14.243   5.294   6.316
 3946POPC   D2A51076  14.070   5.131   6.743
 3946POPC   C3A51077  14.261   5.223   7.171
 3946POPC   C4A51078  14.352   4.837   7.464
 3946POPC   C1B51079  14.726   5.331   6.107
 3946POPC   C2B51080  14.794   5.437   6.557
 3946POPC   C3B51081  14.687   5.147   6.904
 3946POPC   C4B51082  14.785   5.057   7.348
 3947POPC   NC351083  28.370   0.584   5.303
 3947POPC   PO451084  28.689   0.022   5.462
 3947POPC   GL151085  28.580   0.353   5.737
 3947POPC   GL251086  28.265   0.255   5.701
 3947POPC   C1A51087  28.431   0.537   6.151
 3947POPC   D2A51088  28.518   0.460   6.591
 3947POPC   C3A51089  28.386   0.257   6.961
 3947POPC   C4A51090  28.404   0.372   7.362
 3947POPC   C1B51091  28.129   0.138   6.082
 3947POPC   C2B51092  28.142   0.072   6.526
 3947POPC   C3B51093  27.915   0.052   6.947
 3947POPC   C4B51094  28.138  44.944   7.319
 3948POPC   NC351095   0.134  19.390   5.686
 3948POPC   PO451096   0.732  19.649   5.442
 3948POPC   GL151097   0.525  19.686   5.812
 3948POPC   GL251098   0.333  19.972   5.868
 3948POPC   C1A51099   0.577  19.562   6.232
 3948POPC   D2A51100   0.622  19.836   6.592
 3948POPC   C3A51101   0.800  19.692   6.967
 3948POPC   C4A51102   0.535  19.919   7.217
 3948POPC   C1B51103   0.251  20.011   6.279
 3948POPC   C2B51104   0.085  20.038   6.700
 3948POPC   C3B51105   0.037  19.975   7.131
 3948POPC   C4B51106   0.132  19.753   7.521
 3949POPC   NC351107   2.779  26.472   5.408
 3949POPC   PO451108   3.272  26.959   5.228
 3949POPC   GL151109   2.888  26.961   5.649
 3949POPC   GL251110   2.855  26.703   5.862
 3949POPC   C1A51111   2.620  27.039   6.108
 3949POPC   D2A51112   2.809  26.965   6.524
 3949POPC   C3A51113   2.607  26.994   6.909
 3949POPC   C4A51114   2.676  27.003   7.337
 3949POPC   C1B51115   3.033  26.605   6.242
 3949POPC   C2B51116   2.833  26.443   6.631
 3949POPC   C3B51117   2.808  26.555   7.059
 3949POPC   C4B51118   3.119  26.649   7.363
 3950POPC   NC351119   8.208  10.237   5.508
 3950POPC   PO451120   7.869  10.746   5.542
 3950POPC   GL151121   8.094  10.538   5.900
 3950POPC   GL251122   7.952  10.188   5.955
 3950POPC   C1A51123   8.481  10.521   6.178
 3950POPC   D2A51124   8.469  10.705   6.605
 3950POPC   C3A51125   8.622  10.511   6.985
 3950POPC   C4A51126   8.510  10.499   7.431
 3950POPC   C1B51127   8.034  10.407   6.388
 3950POPC   C2B51128   8.094  10.449   6.838
 3950POPC   C3B51129   8.011  10.267   7.232
 3950POPC   C4B51130   8.116  10.206   7.670
 3951POPC   NC351131  39.649  30.038   5.484
 3951POPC   PO451132  38.943  29.842   5.318
 3951POPC   GL151133  39.147  29.972   5.728
 3951POPC   GL251134  39.369  29.741   5.836
 3951POPC   C1A51135  39.259  30.112   6.187
 3951POPC   D2A51136  39.441  29.956   6.617
 3951POPC   C3A51137  39.286  30.180   7.004
 3951POPC   C4A51138  39.358  30.138   7.459
 3951POPC   C1B51139  39.337  29.592   6.240
 3951POPC   C2B51140  39.582  29.350   6.537
 3951POPC   C3B51141  39.466  29.451   6.930
 3951POPC   C4B51142  39.280  29.718   7.195
 3952POPC   NC351143  44.733   7.752   5.403
 3952POPC   PO451144  44.558   8.399   5.489
 3952POPC   GL151145  44.558   8.054   5.800
 3952POPC   GL251146  44.885   7.866   5.899
 3952POPC   C1A51147  44.500   8.163   6.224
 3952POPC   D2A51148  44.659   8.147   6.643
 3952POPC   C3A51149  44.460   8.402   6.962
 3952POPC   C4A51150  44.452   8.311   7.377
 3952POPC   C1B51151  44.740   7.727   6.332
 3952POPC   C2B51152  44.886   7.688   6.756
 3952POPC   C3B51153  44.920   7.772   7.206
 3952POPC   C4B51154  44.838   8.062   7.554
 3953POPC   NC351155   2.450  11.609   5.513
 3953POPC   PO451156   2.926  11.161   5.373
 3953POPC   GL151157   2.914  11.164   5.829
 3953POPC   GL251158   2.846  11.489   5.878
 3953POPC   C1A51159   2.912  11.140   6.293
 3953POPC   D2A51160   3.098  11.362   6.672
 3953POPC   C3A51161   2.963  11.127   7.039
 3953POPC   C4A51162   2.855  10.899   7.404
 3953POPC   C1B51163   2.575  11.529   6.248
 3953POPC   C2B51164   2.595  11.310   6.659
 3953POPC   C3B51165   2.540  11.438   7.071
 3953POPC   C4B51166   2.337  11.628   7.399
 3954POPC   NC351167  38.179  37.895   5.266
 3954POPC   PO451168  38.728  37.582   5.522
 3954POPC   GL151169  38.356  37.694   5.760
 3954POPC   GL251170  38.305  38.070   5.772
 3954POPC   C1A51171  38.231  37.488   6.170
 3954POPC   D2A51172  38.556  37.330   6.466
 3954POPC   C3A51173  38.474  37.483   6.871
 3954POPC   C4A51174  38.135  37.569   7.119
 3954POPC   C1B51175  38.317  37.982   6.235
 3954POPC   C2B51176  38.159  37.902   6.682
 3954POPC   C3B51177  38.222  38.081   7.126
 3954POPC   C4B51178  38.535  37.874   7.382
 3955POPC   NC351179  38.778   2.124   5.457
 3955POPC   PO451180  38.147   1.922   5.363
 3955POPC   GL151181  38.449   1.861   5.772
 3955POPC   GL251182  38.663   2.145   5.936
 3955POPC   C1A51183  38.539   1.737   6.222
 3955POPC   D2A51184  38.293   1.790   6.613
 3955POPC   C3A51185  38.487   1.828   7.045
 3955POPC   C4A51186  38.519   1.852   7.535
 3955POPC   C1B51187  38.444   2.256   6.286
 3955POPC   C2B51188  38.435   2.429   6.701
 3955POPC   C3B51189  38.487   2.340   7.143
 3955POPC   C4B51190  38.642   2.339   7.565
 3956POPC   NC351191  41.073  36.390   5.497
 3956POPC   PO451192  40.461  36.024   5.540
 3956POPC   GL151193  40.774  36.127   5.808
 3956POPC   GL251194  40.687  36.465   5.920
 3956POPC   C1A51195  40.984  36.150   6.184
 3956POPC   D2A51196  40.796  36.072   6.575
 3956POPC   C3A51197  40.966  36.212   6.910
 3956POPC   C4A51198  41.062  36.041   7.267
 3956POPC   C1B51199  40.458  36.216   6.204
 3956POPC   C2B51200  40.285  36.052   6.553
 3956POPC   C3B51201  40.362  36.139   6.958
 3956POPC   C4B51202  40.629  36.325   7.266
 3957POPC   NC351203  21.759  25.738   5.569
 3957POPC   PO451204  21.132  25.782   5.300
 3957POPC   GL151205  21.254  25.779   5.738
 3957POPC   GL251206  21.400  26.132   5.782
 3957POPC   C1A51207  21.441  25.811   6.162
 3957POPC   D2A51208  21.315  26.050   6.522
 3957POPC   C3A51209  21.446  25.927   6.927
 3957POPC   C4A51210  21.380  26.138   7.361
 3957POPC   C1B51211  21.636  26.329   6.161
 3957POPC   C2B51212  21.789  26.273   6.599
 3957POPC   C3B51213  21.689  26.383   7.023
 3957POPC   C4B51214  21.876  26.309   7.425
 3958POPC   NC351215  19.720  26.369   5.447
 3958POPC   PO451216  19.392  25.841   5.340
 3958POPC   GL151217  19.719  25.973   5.741
 3958POPC   GL251218  19.989  25.751   5.815
 3958POPC   C1A51219  19.936  26.155   6.129
 3958POPC   D2A51220  20.054  26.107   6.581
 3958POPC   C3A51221  19.716  26.230   6.874
 3958POPC   C4A51222  19.795  26.378   7.288
 3958POPC   C1B51223  20.042  25.596   6.220
 3958POPC   C2B51224  20.296  25.593   6.575
 3958POPC   C3B51225  20.156  25.536   6.932
 3958POPC   C4B51226  19.971  25.871   7.135
 3959POPC   NC351227  24.932  16.267   5.504
 3959POPC   PO451228  25.397  15.824   5.440
 3959POPC   GL151229  25.218  15.901   5.793
 3959POPC   GL251230  25.505  15.925   5.931
 3959POPC   C1A51231  25.066  15.886   6.209
 3959POPC   D2A51232  25.129  16.151   6.573
 3959POPC   C3A51233  24.948  16.041   6.950
 3959POPC   C4A51234  25.214  15.871   7.259
 3959POPC   C1B51235  25.783  15.928   6.224
 3959POPC   C2B51236  25.839  16.047   6.617
 3959POPC   C3B51237  25.546  16.167   6.911
 3959POPC   C4B51238  25.710  16.409   7.289
 3960POPC   NC351239   2.935  34.806   5.368
 3960POPC   PO451240   2.870  34.167   5.434
 3960POPC   GL151241   2.985  34.414   5.827
 3960POPC   GL251242   2.655  34.585   5.756
 3960POPC   C1A51243   3.072  34.481   6.344
 3960POPC   D2A51244   2.922  34.734   6.747
 3960POPC   C3A51245   3.012  34.729   7.220
 3960POPC   C4A51246   3.012  34.576   7.648
 3960POPC   C1B51247   2.606  34.344   6.144
 3960POPC   C2B51248   2.481  34.498   6.543
 3960POPC   C3B51249   2.616  34.377   6.947
 3960POPC   C4B51250   2.574  34.417   7.376
 3961POPC   NC351251  29.250  13.027   5.298
 3961POPC   PO451252  29.160  12.346   5.251
 3961POPC   GL151253  29.069  12.706   5.653
 3961POPC   GL251254  29.338  12.947   5.782
 3961POPC   C1A51255  28.928  12.979   6.080
 3961POPC   D2A51256  28.974  12.831   6.516
 3961POPC   C3A51257  28.921  13.030   6.916
 3961POPC   C4A51258  29.006  12.833   7.312
 3961POPC   C1B51259  29.410  12.841   6.210
 3961POPC   C2B51260  29.400  12.564   6.552
 3961POPC   C3B51261  29.348  12.734   6.937
 3961POPC   C4B51262  29.523  12.857   7.332
 3962POPC   NC351263  17.111   2.856   5.093
 3962POPC   PO451264  16.667   2.458   5.305
 3962POPC   GL151265  16.595   2.511   5.820
 3962POPC   GL251266  16.599   2.856   5.856
 3962POPC   C1A51267  16.868   2.460   6.249
 3962POPC   D2A51268  17.060   2.701   6.641
 3962POPC   C3A51269  16.834   2.730   7.053
 3962POPC   C4A51270  16.553   2.391   7.191
 3962POPC   C1B51271  16.451   2.750   6.267
 3962POPC   C2B51272  16.504   2.562   6.702
 3962POPC   C3B51273  16.335   2.832   7.095
 3962POPC   C4B51274  16.538   3.055   7.467
 3963POPC   NC351275   1.698  43.126   5.347
 3963POPC   PO451276   1.066  43.399   5.326
 3963POPC   GL151277   1.308  43.311   5.725
 3963POPC   GL251278   1.394  42.953   5.740
 3963POPC   C1A51279   1.224  43.269   6.207
 3963POPC   D2A51280   1.140  43.400   6.655
 3963POPC   C3A51281   1.158  43.175   7.060
 3963POPC   C4A51282   0.898  43.402   7.374
 3963POPC   C1B51283   1.450  42.804   6.164
 3963POPC   C2B51284   1.365  42.935   6.603
 3963POPC   C3B51285   1.477  42.764   6.977
 3963POPC   C4B51286   1.292  42.743   7.366
 3964POPC   NC351287  13.883  32.306   5.488
 3964POPC   PO451288  13.241  32.567   5.317
 3964POPC   GL151289  13.468  32.466   5.762
 3964POPC   GL251290  13.579  32.105   5.862
 3964POPC   C1A51291  13.458  32.436   6.247
 3964POPC   D2A51292  13.550  32.434   6.703
 3964POPC   C3A51293  13.812  32.158   6.940
 3964POPC   C4A51294  13.797  31.934   7.338
 3964POPC   C1B51295  13.919  32.237   6.166
 3964POPC   C2B51296  14.053  32.422   6.569
 3964POPC   C3B51297  14.313  32.247   6.915
 3964POPC   C4B51298  14.200  32.237   7.362
 3965POPC   NC351299   0.438   9.335   5.150
 3965POPC   PO451300   0.165   9.790   5.591
 3965POPC   GL151301   0.535   9.790   5.840
 3965POPC   GL251302   0.613  10.135   5.889
 3965POPC   C1A51303   0.591   9.649   6.262
 3965POPC   D2A51304   0.678   9.940   6.594
 3965POPC   C3A51305   0.595   9.846   7.038
 3965POPC   C4A51306   0.519   9.612   7.435
 3965POPC   C1B51307   0.278  10.048   6.235
 3965POPC   C2B51308   0.169   9.972   6.697
 3965POPC   C3B51309   0.094  10.035   7.158
 3965POPC   C4B51310  44.777   9.925   7.509
 3966POPC   NC351311  24.442  23.858   4.793
 3966POPC   PO451312  24.192  23.834   5.433
 3966POPC   GL151313  24.440  23.812   5.813
 3966POPC   GL251314  24.716  23.638   5.683
 3966POPC   C1A51315  24.452  23.934   6.270
 3966POPC   D2A51316  24.654  23.864   6.683
 3966POPC   C3A51317  24.403  23.837   7.052
 3966POPC   C4A51318  24.221  24.093   7.334
 3966POPC   C1B51319  24.899  23.736   6.097
 3966POPC   C2B51320  24.954  23.476   6.466
 3966POPC   C3B51321  24.845  23.333   6.876
 3966POPC   C4B51322  24.709  23.485   7.260
 3967POPC   NC351323   6.065  44.963   5.103
 3967POPC   PO451324   6.049  44.322   5.462
 3967POPC   GL151325   5.777  44.509   5.806
 3967POPC   GL251326   5.917  44.818   5.982
 3967POPC   C1A51327   5.695  44.486   6.270
 3967POPC   D2A51328   5.723  44.921   6.460
 3967POPC   C3A51329   5.817  44.959   6.924
 3967POPC   C4A51330   5.730  44.859   7.362
 3967POPC   C1B51331   6.193  44.585   6.255
 3967POPC   C2B51332   6.102  44.591   6.691
 3967POPC   C3B51333   6.065  44.515   7.127
 3967POPC   C4B51334   6.239  44.148   7.317
 3968POPC   NC351335  24.216   5.201   5.466
 3968POPC   PO451336  24.174   4.527   5.533
 3968POPC   GL151337  24.256   4.895   5.880
 3968POPC   GL251338  24.565   5.118   5.858
 3968POPC   C1A51339  24.224   5.231   6.257
 3968POPC   D2A51340  24.480   5.443   6.625
 3968POPC   C3A51341  24.400   5.319   7.057
 3968POPC   C4A51342  24.243   4.920   7.211
 3968POPC   C1B51343  24.597   4.888   6.282
 3968POPC   C2B51344  24.523   4.900   6.762
 3968POPC   C3B51345  24.728   4.812   7.192
 3968POPC   C4B51346  24.896   4.795   7.641
 3969POPC   NC351347   8.047  35.041   5.547
 3969POPC   PO451348   8.430  34.497   5.386
 3969POPC   GL151349   8.296  34.458   5.826
 3969POPC   GL251350   7.958  34.443   5.768
 3969POPC   C1A51351   8.127  34.276   6.250
 3969POPC   D2A51352   8.152  34.086   6.691
 3969POPC   C3A51353   8.293  34.352   7.070
 3969POPC   C4A51354   8.533  34.763   7.169
 3969POPC   C1B51355   7.772  34.699   6.101
 3969POPC   C2B51356   7.654  34.672   6.525
 3969POPC   C3B51357   7.821  34.835   6.919
 3969POPC   C4B51358   7.638  34.795   7.308
 3970POPC   NC351359  28.702  17.508   4.967
 3970POPC   PO451360  28.909  17.833   5.479
 3970POPC   GL151361  28.873  17.839   5.857
 3970POPC   GL251362  29.226  17.861   5.926
 3970POPC   C1A51363  28.817  17.638   6.233
 3970POPC   D2A51364  28.963  17.686   6.639
 3970POPC   C3A51365  28.799  17.430   6.965
 3970POPC   C4A51366  28.891  17.551   7.385
 3970POPC   C1B51367  29.374  17.692   6.306
 3970POPC   C2B51368  29.410  17.442   6.688
 3970POPC   C3B51369  29.305  17.528   7.106
 3970POPC   C4B51370  29.347  17.294   7.522
 3971POPC   NC351371  20.432   0.576   5.302
 3971POPC   PO451372  20.893   0.218   5.606
 3971POPC   GL151373  20.736   0.596   5.802
 3971POPC   GL251374  20.415   0.787   5.797
 3971POPC   C1A51375  20.789   0.584   6.207
 3971POPC   D2A51376  20.616   0.247   6.407
 3971POPC   C3A51377  20.643   0.275   6.853
 3971POPC   C4A51378  20.515   0.212   7.288
 3971POPC   C1B51379  20.270   0.635   6.221
 3971POPC   C2B51380  20.185   0.426   6.632
 3971POPC   C3B51381  20.305   0.618   7.031
 3971POPC   C4B51382  20.738   0.685   7.209
 3972POPC   NC351383  13.640  26.422   5.240
 3972POPC   PO451384  13.631  27.062   5.483
 3972POPC   GL151385  13.392  26.806   5.802
 3972POPC   GL251386  13.519  26.447   5.826
 3972POPC   C1A51387  13.368  26.849   6.276
 3972POPC   D2A51388  13.373  26.610   6.701
 3972POPC   C3A51389  13.247  26.847   7.098
 3972POPC   C4A51390  13.178  27.123   7.462
 3972POPC   C1B51391  13.671  26.426   6.284
 3972POPC   C2B51392  13.960  26.666   6.571
 3972POPC   C3B51393  13.924  27.012   6.868
 3972POPC   C4B51394  13.742  26.897   7.233
 3973POPC   NC351395  10.920   9.149   5.530
 3973POPC   PO451396  10.390   8.886   5.513
 3973POPC   GL151397  10.658   8.878   5.867
 3973POPC   GL251398  10.496   9.191   5.953
 3973POPC   C1A51399  10.819   8.996   6.277
 3973POPC   D2A51400  10.542   8.900   6.610
 3973POPC   C3A51401  10.612   8.961   7.035
 3973POPC   C4A51402  10.964   9.176   7.209
 3973POPC   C1B51403  10.256   8.811   6.174
 3973POPC   C2B51404  10.148   8.588   6.557
 3973POPC   C3B51405  10.114   8.764   6.967
 3973POPC   C4B51406  10.183   8.867   7.407
 3974POPC   NC351407  28.888  30.067   5.415
 3974POPC   PO451408  29.501  29.746   5.309
 3974POPC   GL151409  29.230  29.758   5.676
 3974POPC   GL251410  29.286  30.099   5.761
 3974POPC   C1A51411  29.278  29.742   6.139
 3974POPC   D2A51412  29.109  29.966   6.512
 3974POPC   C3A51413  29.065  29.731   6.922
 3974POPC   C4A51414  28.908  29.883   7.330
 3974POPC   C1B51415  29.017  30.294   6.072
 3974POPC   C2B51416  28.839  30.445   6.456
 3974POPC   C3B51417  28.856  30.262   6.900
 3974POPC   C4B51418  28.985  30.393   7.309
 3975POPC   NC351419  30.429  26.975   5.388
 3975POPC   PO451420  31.093  26.696   5.359
 3975POPC   GL151421  30.763  26.717   5.697
 3975POPC   GL251422  30.730  27.075   5.793
 3975POPC   C1A51423  30.609  26.571   6.104
 3975POPC   D2A51424  30.356  26.570   6.505
 3975POPC   C3A51425  30.643  26.464   6.864
 3975POPC   C4A51426  30.749  26.611   7.289
 3975POPC   C1B51427  30.453  27.053   6.159
 3975POPC   C2B51428  30.586  27.044   6.596
 3975POPC   C3B51429  30.570  27.020   7.050
 3975POPC   C4B51430  30.823  27.116   7.456
 3976POPC   NC351431  26.429   1.079   5.514
 3976POPC   PO451432  25.760   1.296   5.338
 3976POPC   GL151433  26.019   1.305   5.739
 3976POPC   GL251434  26.054   0.970   5.825
 3976POPC   C1A51435  26.202   1.413   6.171
 3976POPC   D2A51436  26.378   1.369   6.596
 3976POPC   C3A51437  26.071   1.373   6.923
 3976POPC   C4A51438  25.954   1.168   7.360
 3976POPC   C1B51439  26.223   0.902   6.224
 3976POPC   C2B51440  26.091   0.938   6.648
 3976POPC   C3B51441  26.400   0.987   7.000
 3976POPC   C4B51442  26.387   0.852   7.422
 3977POPC   NC351443  38.857  16.343   5.423
 3977POPC   PO451444  38.418  16.779   5.185
 3977POPC   GL151445  38.499  16.809   5.668
 3977POPC   GL251446  38.246  17.015   5.896
 3977POPC   C1A51447  38.613  16.706   6.114
 3977POPC   D2A51448  38.422  16.880   6.511
 3977POPC   C3A51449  38.375  16.624   6.877
 3977POPC   C4A51450  38.691  16.588   7.165
 3977POPC   C1B51451  38.032  17.148   6.314
 3977POPC   C2B51452  38.042  17.052   6.821
 3977POPC   C3B51453  38.194  16.928   7.265
 3977POPC   C4B51454  38.299  17.079   7.706
 3978POPC   NC351455  17.739  21.668   5.504
 3978POPC   PO451456  17.689  21.073   5.335
 3978POPC   GL151457  17.565  21.114   5.789
 3978POPC   GL251458  17.444  21.437   5.851
 3978POPC   C1A51459  17.726  21.127   6.255
 3978POPC   D2A51460  18.026  21.275   6.663
 3978POPC   C3A51461  17.892  21.051   7.037
 3978POPC   C4A51462  17.453  21.111   7.166
 3978POPC   C1B51463  17.404  21.543   6.292
 3978POPC   C2B51464  17.537  21.370   6.675
 3978POPC   C3B51465  17.691  21.542   7.040
 3978POPC   C4B51466  17.323  21.592   7.254
 3979POPC   NC351467   1.919  27.037   5.560
 3979POPC   PO451468   2.475  26.808   5.293
 3979POPC   GL151469   2.362  26.764   5.731
 3979POPC   GL251470   2.401  26.419   5.766
 3979POPC   C1A51471   2.090  26.667   6.123
 3979POPC   D2A51472   1.895  26.620   6.559
 3979POPC   C3A51473   1.983  26.992   6.780
 3979POPC   C4A51474   1.881  27.165   7.145
 3979POPC   C1B51475   2.550  26.457   6.192
 3979POPC   C2B51476   2.396  26.688   6.551
 3979POPC   C3B51477   2.274  26.595   6.974
 3979POPC   C4B51478   1.853  26.616   7.131
 3980POPC   NC351479  42.827   7.784   5.560
 3980POPC   PO451480  43.377   7.493   5.438
 3980POPC   GL151481  43.222   7.544   5.846
 3980POPC   GL251482  42.901   7.377   5.893
 3980POPC   C1A51483  43.166   7.565   6.298
 3980POPC   D2A51484  43.088   7.178   6.559
 3980POPC   C3A51485  43.190   7.286   6.969
 3980POPC   C4A51486  43.147   7.669   7.188
 3980POPC   C1B51487  42.635   7.595   6.187
 3980POPC   C2B51488  42.738   7.727   6.594
 3980POPC   C3B51489  42.702   7.511   6.965
 3980POPC   C4B51490  42.648   7.706   7.361
 3981POPC   NC351491  10.575  39.574   5.518
 3981POPC   PO451492  10.309  38.956   5.537
 3981POPC   GL151493  10.571  39.167   5.847
 3981POPC   GL251494  10.861  38.960   5.850
 3981POPC   C1A51495  10.501  39.351   6.276
 3981POPC   D2A51496  10.244  39.279   6.654
 3981POPC   C3A51497  10.381  39.220   7.078
 3981POPC   C4A51498  10.605  39.434   7.402
 3981POPC   C1B51499  10.996  39.158   6.246
 3981POPC   C2B51500  10.951  39.554   6.491
 3981POPC   C3B51501  10.739  39.502   6.873
 3981POPC   C4B51502  10.915  39.132   7.113
 3982POPC   NC351503   0.153  12.255   5.366
 3982POPC   PO451504   0.778  11.934   5.396
 3982POPC   GL151505   0.554  12.154   5.690
 3982POPC   GL251506   0.782  12.408   5.804
 3982POPC   C1A51507   0.445  12.134   6.133
 3982POPC   D2A51508   0.356  12.377   6.526
 3982POPC   C3A51509   0.494  12.208   6.919
 3982POPC   C4A51510   0.267  12.045   7.267
 3982POPC   C1B51511   0.794  12.475   6.264
 3982POPC   C2B51512   0.922  12.287   6.647
 3982POPC   C3B51513   0.932  12.345   7.112
 3982POPC   C4B51514   0.693  12.229   7.477
 3983POPC   NC351515  18.232  13.690   5.348
 3983POPC   PO451516  18.565  14.172   5.593
 3983POPC   GL151517  18.424  13.826   5.895
 3983POPC   GL251518  18.388  13.467   5.782
 3983POPC   C1A51519  18.495  13.738   6.362
 3983POPC   D2A51520  18.655  13.905   6.764
 3983POPC   C3A51521  18.378  13.786   7.079
 3983POPC   C4A51522  18.101  13.682   7.397
 3983POPC   C1B51523  18.166  13.396   6.182
 3983POPC   C2B51524  18.091  13.544   6.649
 3983POPC   C3B51525  18.081  13.309   7.043
 3983POPC   C4B51526  17.803  13.193   7.407
 3984POPC   NC351527  41.975  30.069   5.562
 3984POPC   PO451528  42.499  29.612   5.410
 3984POPC   GL151529  42.390  29.760   5.819
 3984POPC   GL251530  42.052  29.620   5.816
 3984POPC   C1A51531  42.414  29.993   6.259
 3984POPC   D2A51532  42.408  29.986   6.733
 3984POPC   C3A51533  42.198  30.164   7.107
 3984POPC   C4A51534  42.441  30.283   7.465
 3984POPC   C1B51535  42.244  29.492   6.229
 3984POPC   C2B51536  42.129  29.561   6.659
 3984POPC   C3B51537  42.281  29.644   7.096
 3984POPC   C4B51538  42.265  29.808   7.549
 3985POPC   NC351539   4.759  21.172   5.421
 3985POPC   PO451540   5.309  21.577   5.155
 3985POPC   GL151541   5.080  21.563   5.567
 3985POPC   GL251542   5.350  21.404   5.720
 3985POPC   C1A51543   4.909  21.426   6.020
 3985POPC   D2A51544   5.032  21.172   6.394
 3985POPC   C3A51545   5.014  21.312   6.803
 3985POPC   C4A51546   4.894  21.148   7.149
 3985POPC   C1B51547   5.470  21.254   6.131
 3985POPC   C2B51548   5.477  21.444   6.538
 3985POPC   C3B51549   5.442  21.554   6.957
 3985POPC   C4B51550   5.301  21.386   7.325
 3986POPC   NC351551  19.113   6.978   5.449
 3986POPC   PO451552  18.910   6.418   5.433
 3986POPC   GL151553  18.883   6.687   5.813
 3986POPC   GL251554  18.578   6.803   5.973
 3986POPC   C1A51555  19.194   6.725   6.131
 3986POPC   D2A51556  19.402   6.800   6.531
 3986POPC   C3A51557  19.136   6.881   6.860
 3986POPC   C4A51558  19.147   6.752   7.281
 3986POPC   C1B51559  18.738   6.827   6.392
 3986POPC   C2B51560  18.890   6.487   6.649
 3986POPC   C3B51561  18.897   6.303   7.071
 3986POPC   C4B51562  18.852   6.384   7.527
 3987POPC   NC351563  18.680  16.840   5.429
 3987POPC   PO451564  18.046  16.574   5.450
 3987POPC   GL151565  18.263  16.725   5.806
 3987POPC   GL251566  18.574  16.576   5.887
 3987POPC   C1A51567  18.150  16.871   6.220
 3987POPC   D2A51568  17.993  17.082   6.596
 3987POPC   C3A51569  18.125  16.879   6.958
 3987POPC   C4A51570  17.940  16.786   7.322
 3987POPC   C1B51571  18.687  16.885   6.202
 3987POPC   C2B51572  18.600  16.751   6.616
 3987POPC   C3B51573  18.371  16.448   6.826
 3987POPC   C4B51574  18.337  16.473   7.256
 3988POPC   NC351575  26.549  37.209   5.392
 3988POPC   PO451576  26.438  36.617   5.719
 3988POPC   GL151577  26.713  36.975   5.859
 3988POPC   GL251578  27.010  36.773   5.902
 3988POPC   C1A51579  26.895  37.086   6.298
 3988POPC   D2A51580  26.793  36.911   6.708
 3988POPC   C3A51581  26.629  37.076   7.112
 3988POPC   C4A51582  26.509  36.716   7.380
 3988POPC   C1B51583  26.996  36.572   6.320
 3988POPC   C2B51584  27.076  36.431   6.741
 3988POPC   C3B51585  26.926  36.592   7.095
 3988POPC   C4B51586  27.100  36.959   7.214
 3989POPC   NC351587  41.222  39.629   5.514
 3989POPC   PO451588  41.916  39.451   5.400
 3989POPC   GL151589  41.783  39.289   5.821
 3989POPC   GL251590  41.421  39.362   5.919
 3989POPC   C1A51591  41.785  39.194   6.274
 3989POPC   D2A51592  41.554  39.276   6.640
 3989POPC   C3A51593  41.704  39.046   6.967
 3989POPC   C4A51594  41.490  39.106   7.305
 3989POPC   C1B51595  41.109  39.551   6.202
 3989POPC   C2B51596  41.073  39.657   6.620
 3989POPC   C3B51597  41.210  39.490   7.027
 3989POPC   C4B51598  41.184  39.524   7.486
 3990POPC   NC351599  20.450  30.152   5.565
 3990POPC   PO451600  20.363  29.554   5.462
 3990POPC   GL151601  20.637  29.778   5.838
 3990POPC   GL251602  20.925  30.012   5.774
 3990POPC   C1A51603  20.556  29.973   6.252
 3990POPC   D2A51604  20.436  29.795   6.671
 3990POPC   C3A51605  20.621  29.916   7.012
 3990POPC   C4A51606  20.537  29.853   7.427
 3990POPC   C1B51607  21.055  30.053   6.197
 3990POPC   C2B51608  20.955  29.836   6.578
 3990POPC   C3B51609  21.090  30.046   6.942
 3990POPC   C4B51610  21.025  29.926   7.332
 3991POPC   NC351611  42.058   1.337   5.343
 3991POPC   PO451612  42.734   1.400   5.379
 3991POPC   GL151613  42.451   1.283   5.707
 3991POPC   GL251614  42.125   1.441   5.830
 3991POPC   C1A51615  42.478   1.173   6.141
 3991POPC   D2A51616  42.475   0.930   6.512
 3991POPC   C3A51617  42.404   1.114   6.934
 3991POPC   C4A51618  42.451   1.108   7.396
 3991POPC   C1B51619  41.973   1.229   6.221
 3991POPC   C2B51620  41.816   1.275   6.649
 3991POPC   C3B51621  41.999   1.484   7.008
 3991POPC   C4B51622  42.019   1.391   7.462
 3992POPC   NC351623  23.149  42.686   5.508
 3992POPC   PO451624  22.492  42.415   5.479
 3992POPC   GL151625  22.755  42.173   5.829
 3992POPC   GL251626  23.156  42.175   5.888
 3992POPC   C1A51627  22.816  42.210   6.295
 3992POPC   D2A51628  23.028  42.522   6.601
 3992POPC   C3A51629  22.916  42.467   7.054
 3992POPC   C4A51630  22.540  42.675   7.257
 3992POPC   C1B51631  23.254  41.938   6.294
 3992POPC   C2B51632  23.116  42.032   6.706
 3992POPC   C3B51633  23.136  41.869   7.083
 3992POPC   C4B51634  22.997  42.034   7.467
 3993POPC   NC351635  19.278  10.951   5.392
 3993POPC   PO451636  18.859  11.404   5.482
 3993POPC   GL151637  19.142  11.261   5.802
 3993POPC   GL251638  19.385  11.522   5.687
 3993POPC   C1A51639  19.015  11.132   6.234
 3993POPC   D2A51640  18.852  11.187   6.686
 3993POPC   C3A51641  18.924  10.984   7.154
 3993POPC   C4A51642  18.883  10.922   7.683
 3993POPC   C1B51643  19.434  11.529   6.151
 3993POPC   C2B51644  19.366  11.301   6.572
 3993POPC   C3B51645  19.208  11.409   7.003
 3993POPC   C4B51646  19.446  11.597   7.364
 3994POPC   NC351647  14.952  35.921   5.456
 3994POPC   PO451648  15.350  36.410   5.141
 3994POPC   GL151649  15.298  36.263   5.639
 3994POPC   GL251650  15.407  35.968   5.819
 3994POPC   C1A51651  15.037  36.215   6.065
 3994POPC   D2A51652  14.789  36.249   6.459
 3994POPC   C3A51653  14.908  36.216   6.869
 3994POPC   C4A51654  14.863  36.336   7.286
 3994POPC   C1B51655  15.501  36.111   6.272
 3994POPC   C2B51656  15.380  36.169   6.718
 3994POPC   C3B51657  15.299  36.029   7.167
 3994POPC   C4B51658  15.504  35.772   7.522
 3995POPC   NC351659  42.775  41.674   5.162
 3995POPC   PO451660  43.333  41.487   5.547
 3995POPC   GL151661  43.216  41.461   5.932
 3995POPC   GL251662  43.538  41.522   6.070
 3995POPC   C1A51663  43.132  41.153   6.217
 3995POPC   D2A51664  42.955  41.181   6.618
 3995POPC   C3A51665  43.001  41.566   6.844
 3995POPC   C4A51666  42.957  41.734   7.211
 3995POPC   C1B51667  43.326  41.556   6.468
 3995POPC   C2B51668  43.427  41.279   6.851
 3995POPC   C3B51669  43.506  41.216   7.320
 3995POPC   C4B51670  43.487  41.484   7.758
 3996POPC   NC351671  12.507  39.258   5.088
 3996POPC   PO451672  12.962  39.326   5.579
 3996POPC   GL151673  12.951  39.310   5.983
 3996POPC   GL251674  12.846  39.634   5.981
 3996POPC   C1A51675  12.697  39.151   6.324
 3996POPC   D2A51676  12.780  38.892   6.708
 3996POPC   C3A51677  12.651  39.040   7.120
 3996POPC   C4A51678  12.772  39.164   7.550
 3996POPC   C1B51679  12.976  39.569   6.415
 3996POPC   C2B51680  12.792  39.412   6.780
 3996POPC   C3B51681  12.752  39.571   7.165
 3996POPC   C4B51682  12.450  39.544   7.452
 3997POPC   NC351683  41.889  10.070   5.459
 3997POPC   PO451684  41.525   9.472   5.434
 3997POPC   GL151685  41.633   9.444   5.876
 3997POPC   GL251686  41.841   9.742   5.855
 3997POPC   C1A51687  41.556   9.477   6.335
 3997POPC   D2A51688  41.342   9.872   6.526
 3997POPC   C3A51689  41.215   9.806   6.947
 3997POPC   C4A51690  41.363   9.615   7.333
 3997POPC   C1B51691  41.781   9.914   6.264
 3997POPC   C2B51692  41.891   9.715   6.648
 3997POPC   C3B51693  41.773   9.781   7.071
 3997POPC   C4B51694  41.537  10.118   7.229
 3998POPC   NC351695  19.821   3.125   5.588
 3998POPC   PO451696  19.743   2.480   5.549
 3998POPC   GL151697  19.686   2.715   5.873
 3998POPC   GL251698  20.030   2.768   5.906
 3998POPC   C1A51699  19.562   2.947   6.206
 3998POPC   D2A51700  19.761   3.028   6.583
 3998POPC   C3A51701  19.686   2.884   6.972
 3998POPC   C4A51702  19.832   2.996   7.395
 3998POPC   C1B51703  19.973   2.636   6.320
 3998POPC   C2B51704  20.101   2.663   6.762
 3998POPC   C3B51705  20.120   2.581   7.226
 3998POPC   C4B51706  20.268   2.623   7.684
 3999POPC   NC351707  23.661  21.755   5.683
 3999POPC   PO451708  23.891  21.154   5.585
 3999POPC   GL151709  23.918  21.314   6.002
 3999POPC   GL251710  23.836  21.672   6.159
 3999POPC   C1A51711  24.007  21.262   6.423
 3999POPC   D2A51712  23.757  21.496   6.684
 3999POPC   C3A51713  23.730  21.357   7.112
 3999POPC   C4A51714  23.937  21.563   7.452
 3999POPC   C1B51715  23.459  21.414   6.222
 3999POPC   C2B51716  23.226  21.442   6.565
 3999POPC   C3B51717  23.337  21.626   6.932
 3999POPC   C4B51718  23.496  21.780   7.312
 4000POPC   NC351719  40.844   3.290   5.307
 4000POPC   PO451720  40.407   3.789   5.415
 4000POPC   GL151721  40.535   3.404   5.727
 4000POPC   GL251722  40.884   3.283   5.829
 4000POPC   C1A51723  40.534   3.477   6.194
 4000POPC   D2A51724  40.865   3.438   6.548
 4000POPC   C3A51725  40.889   3.777   6.833
 4000POPC   C4A51726  41.117   3.907   7.192
 4000POPC   C1B51727  40.774   3.044   6.227
 4000POPC   C2B51728  40.470   3.113   6.594
 4000POPC   C3B51729  40.487   3.349   6.966
 4000POPC   C4B51730  40.909   3.362   7.115
 4001POPC   NC351731  37.557  31.207   5.595
 4001POPC   PO451732  38.004  30.688   5.657
 4001POPC   GL151733  37.899  30.504   5.995
 4001POPC   GL251734  37.546  30.564   5.889
 4001POPC   C1A51735  38.049  30.597   6.423
 4001POPC   D2A51736  37.922  30.924   6.738
 4001POPC   C3A51737  37.718  30.676   7.042
 4001POPC   C4A51738  37.994  30.377   7.150
 4001POPC   C1B51739  37.611  30.855   6.249
 4001POPC   C2B51740  37.391  30.874   6.639
 4001POPC   C3B51741  37.450  31.096   6.999
 4001POPC   C4B51742  37.452  30.928   7.428
 4002POPC   NC351743   3.135  41.265   5.538
 4002POPC   PO451744   2.936  40.553   5.491
 4002POPC   GL151745   2.947  40.563   5.885
 4002POPC   GL251746   2.846  40.917   5.941
 4002POPC   C1A51747   2.775  40.502   6.261
 4002POPC   D2A51748   2.564  40.569   6.635
 4002POPC   C3A51749   2.744  40.872   6.917
 4002POPC   C4A51750   2.897  40.748   7.310
 4002POPC   C1B51751   2.855  41.005   6.408
 4002POPC   C2B51752   3.034  41.279   6.724
 4002POPC   C3B51753   3.001  41.274   7.175
 4002POPC   C4B51754   2.593  41.159   7.371
 4003POPC   NC351755   0.672   2.374   5.523
 4003POPC   PO451756   0.352   1.860   5.397
 4003POPC   GL151757   0.434   2.013   5.811
 4003POPC   GL251758   0.247   2.316   5.878
 4003POPC   C1A51759   0.300   1.933   6.242
 4003POPC   D2A51760   0.133   1.955   6.674
 4003POPC   C3A51761   0.378   1.829   7.009
 4003POPC   C4A51762   0.266   1.643   7.369
 4003POPC   C1B51763   0.627   2.378   6.164
 4003POPC   C2B51764   0.766   2.467   6.593
 4003POPC   C3B51765   0.715   2.333   7.054
 4003POPC   C4B51766   0.843   2.430   7.480
 4004POPC   NC351767  31.651  13.515   5.398
 4004POPC   PO451768  31.105  13.969   5.297
 4004POPC   GL151769  31.258  13.704   5.685
 4004POPC   GL251770  31.152  13.341   5.635
 4004POPC   C1A51771  31.529  13.587   6.082
 4004POPC   D2A51772  31.523  13.732   6.529
 4004POPC   C3A51773  31.692  13.750   6.948
 4004POPC   C4A51774  31.695  13.880   7.388
 4004POPC   C1B51775  31.053  13.374   6.074
 4004POPC   C2B51776  31.210  13.327   6.491
 4004POPC   C3B51777  31.148  13.551   6.874
 4004POPC   C4B51778  31.325  13.547   7.279
 4005POPC   NC351779   9.107  16.439   5.378
 4005POPC   PO451780   8.669  16.874   5.666
 4005POPC   GL151781   8.921  16.709   5.973
 4005POPC   GL251782   9.243  16.706   5.834
 4005POPC   C1A51783   8.859  16.594   6.396
 4005POPC   D2A51784   8.842  16.630   6.838
 4005POPC   C3A51785   9.092  16.947   7.038
 4005POPC   C4A51786   9.323  17.290   7.180
 4005POPC   C1B51787   9.366  16.517   6.240
 4005POPC   C2B51788   9.353  16.650   6.679
 4005POPC   C3B51789   9.260  16.460   7.091
 4005POPC   C4B51790   8.915  16.561   7.376
 4006POPC   NC351791  43.416  38.975   5.393
 4006POPC   PO451792  42.762  38.970   5.171
 4006POPC   GL151793  42.996  39.094   5.674
 4006POPC   GL251794  43.304  39.199   5.842
 4006POPC   C1A51795  43.015  39.014   6.199
 4006POPC   D2A51796  43.142  39.173   6.641
 4006POPC   C3A51797  43.202  38.967   7.071
 4006POPC   C4A51798  42.863  38.876   7.375
 4006POPC   C1B51799  43.376  39.428   6.231
 4006POPC   C2B51800  43.507  39.535   6.643
 4006POPC   C3B51801  43.315  39.500   7.038
 4006POPC   C4B51802  43.075  39.417   7.430
 4007POPC   NC351803  31.924  12.567   5.562
 4007POPC   PO451804  32.351  12.996   5.219
 4007POPC   GL151805  32.340  12.942   5.696
 4007POPC   GL251806  32.360  12.604   5.837
 4007POPC   C1A51807  32.104  12.962   6.129
 4007POPC   D2A51808  32.257  13.120   6.539
 4007POPC   C3A51809  32.024  13.034   6.906
 4007POPC   C4A51810  32.108  12.906   7.294
 4007POPC   C1B51811  32.286  12.489   6.247
 4007POPC   C2B51812  32.058  12.620   6.582
 4007POPC   C3B51813  32.286  12.568   6.923
 4007POPC   C4B51814  32.255  12.411   7.293
 4008POPC   NC351815   7.078  11.917   5.341
 4008POPC   PO451816   7.026  12.581   5.439
 4008POPC   GL151817   7.269  12.291   5.730
 4008POPC   GL251818   7.317  11.947   5.804
 4008POPC   C1A51819   7.396  12.283   6.176
 4008POPC   D2A51820   7.632  12.290   6.541
 4008POPC   C3A51821   7.377  12.308   6.932
 4008POPC   C4A51822   7.108  12.057   7.197
 4008POPC   C1B51823   7.615  11.812   6.124
 4008POPC   C2B51824   7.564  11.771   6.542
 4008POPC   C3B51825   7.458  11.763   6.926
 4008POPC   C4B51826   7.593  11.910   7.281
 4009POPC   NC351827  11.293  21.620   5.295
 4009POPC   PO451828  11.651  21.165   5.401
 4009POPC   GL151829  11.320  21.302   5.735
 4009POPC   GL251830  11.213  20.999   5.904
 4009POPC   C1A51831  11.165  21.402   6.200
 4009POPC   D2A51832  10.963  21.286   6.635
 4009POPC   C3A51833  11.016  21.527   7.040
 4009POPC   C4A51834  11.361  21.663   7.343
 4009POPC   C1B51835  11.590  21.109   6.178
 4009POPC   C2B51836  11.701  21.066   6.654
 4009POPC   C3B51837  11.557  21.199   7.110
 4009POPC   C4B51838  11.604  21.250   7.584
 4010POPC   NC351839  39.127  40.450   5.165
 4010POPC   PO451840  39.567  40.032   5.456
 4010POPC   GL151841  39.551  40.228   5.860
 4010POPC   GL251842  39.248  40.043   5.903
 4010POPC   C1A51843  39.575  40.210   6.323
 4010POPC   D2A51844  39.274  39.957   6.582
 4010POPC   C3A51845  39.234  40.076   7.016
 4010POPC   C4A51846  39.486  40.035   7.384
 4010POPC   C1B51847  39.103  39.709   6.138
 4010POPC   C2B51848  39.022  39.489   6.511
 4010POPC   C3B51849  38.932  39.633   6.926
 4010POPC   C4B51850  38.828  39.859   7.294
 4011POPC   NC351851  18.690  43.829   5.264
 4011POPC   PO451852  19.298  43.613   5.259
 4011POPC   GL151853  19.125  43.796   5.676
 4011POPC   GL251854  19.380  44.030   5.813
 4011POPC   C1A51855  18.899  43.920   6.099
 4011POPC   D2A51856  18.786  44.084   6.550
 4011POPC   C3A51857  18.755  43.826   6.991
 4011POPC   C4A51858  18.521  43.772   7.410
 4011POPC   C1B51859  19.364  43.692   6.141
 4011POPC   C2B51860  19.123  43.697   6.532
 4011POPC   C3B51861  19.251  43.941   6.899
 4011POPC   C4B51862  19.223  43.776   7.311
 4012POPC   NC351863  13.894  43.202   5.560
 4012POPC   PO451864  13.430  42.825   5.378
 4012POPC   GL151865  13.471  42.996   5.794
 4012POPC   GL251866  13.421  43.367   5.748
 4012POPC   C1A51867  13.692  43.086   6.208
 4012POPC   D2A51868  13.997  43.143   6.559
 4012POPC   C3A51869  13.771  43.041   6.950
 4012POPC   C4A51870  13.722  43.230   7.349
 4012POPC   C1B51871  13.370  43.489   6.190
 4012POPC   C2B51872  13.496  43.390   6.612
 4012POPC   C3B51873  13.312  43.285   7.001
 4012POPC   C4B51874  13.069  43.274   7.351
 4013POPC   NC351875  27.109  44.724   5.420
 4013POPC   PO451876  26.541  44.639   5.622
 4013POPC   GL151877  26.840  44.818   5.869
 4013POPC   GL251878  26.938   0.138   5.690
 4013POPC   C1A51879  26.920  44.728   6.330
 4013POPC   D2A51880  26.670  44.778   6.720
 4013POPC   C3A51881  26.769  44.539   7.108
 4013POPC   C4A51882  26.775  44.645   7.559
 4013POPC   C1B51883  27.016   0.225   6.119
 4013POPC   C2B51884  27.280   0.087   6.481
 4013POPC   C3B51885  27.073   0.086   6.863
 4013POPC   C4B51886  27.053  44.937   7.260
 4014POPC   NC351887  19.682   5.504   5.370
 4014POPC   PO451888  19.910   6.192   5.382
 4014POPC   GL151889  19.947   5.907   5.753
 4014POPC   GL251890  19.611   5.801   5.773
 4014POPC   C1A51891  19.912   5.814   6.218
 4014POPC   D2A51892  19.772   5.603   6.630
 4014POPC   C3A51893  19.877   5.779   7.057
 4014POPC   C4A51894  20.063   5.645   7.456
 4014POPC   C1B51895  19.386   5.918   6.112
 4014POPC   C2B51896  19.282   5.764   6.500
 4014POPC   C3B51897  19.435   5.928   6.852
 4014POPC   C4B51898  19.372   5.823   7.249
 4015POPC   NC351899  44.420  29.177   5.443
 4015POPC   PO451900  44.884  28.683   5.328
 4015POPC   GL151901  44.792  28.838   5.732
 4015POPC   GL251902  44.953  29.159   5.739
 4015POPC   C1A51903  44.721  28.947   6.182
 4015POPC   D2A51904  44.792  28.892   6.648
 4015POPC   C3A51905  44.605  29.181   6.959
 4015POPC   C4A51906  44.391  29.054   7.367
 4015POPC   C1B51907  44.822  29.459   6.086
 4015POPC   C2B51908  44.668  29.518   6.507
 4015POPC   C3B51909  44.809  29.648   6.898
 4015POPC   C4B51910  44.901  29.468   7.246
 4016POPC   NC351911  25.224   8.750   5.478
 4016POPC   PO451912  25.666   9.189   5.298
 4016POPC   GL151913  25.385   9.188   5.720
 4016POPC   GL251914  24.992   9.185   5.815
 4016POPC   C1A51915  25.319   8.993   6.161
 4016POPC   D2A51916  25.233   9.186   6.576
 4016POPC   C3A51917  25.403   8.991   6.907
 4016POPC   C4A51918  25.337   8.799   7.294
 4016POPC   C1B51919  24.815   9.128   6.270
 4016POPC   C2B51920  24.747   9.147   6.746
 4016POPC   C3B51921  24.944   9.051   7.135
 4016POPC   C4B51922  25.287   9.323   7.353
 4017POPC   NC351923  35.452  25.643   5.157
 4017POPC   PO451924  35.349  26.308   5.363
 4017POPC   GL151925  35.216  26.020   5.742
 4017POPC   GL251926  35.309  26.291   5.937
 4017POPC   C1A51927  35.385  25.776   6.146
 4017POPC   D2A51928  35.633  25.832   6.571
 4017POPC   C3A51929  35.466  25.700   7.004
 4017POPC   C4A51930  35.726  25.615   7.395
 4017POPC   C1B51931  35.075  26.147   6.318
 4017POPC   C2B51932  35.019  25.961   6.727
 4017POPC   C3B51933  35.195  26.125   7.116
 4017POPC   C4B51934  35.588  26.127   7.372
 4018POPC   NC351935   6.516  21.582   5.427
 4018POPC   PO451936   6.953  20.969   5.467
 4018POPC   GL151937   6.683  21.214   5.772
 4018POPC   GL251938   6.805  21.574   5.839
 4018POPC   C1A51939   6.775  21.244   6.225
 4018POPC   D2A51940   7.077  21.170   6.521
 4018POPC   C3A51941   6.902  21.328   6.885
 4018POPC   C4A51942   6.599  21.223   7.173
 4018POPC   C1B51943   6.622  21.737   6.228
 4018POPC   C2B51944   6.486  21.601   6.673
 4018POPC   C3B51945   6.426  21.718   7.141
 4018POPC   C4B51946   6.234  21.762   7.576
 4019POPC   NC351947  11.653  10.644   5.219
 4019POPC   PO451948  11.179  10.255   5.517
 4019POPC   GL151949  11.235  10.499   5.862
 4019POPC   GL251950  11.504  10.716   5.815
 4019POPC   C1A51951  11.263  10.462   6.296
 4019POPC   D2A51952  11.130  10.300   6.690
 4019POPC   C3A51953  11.475  10.351   6.963
 4019POPC   C4A51954  11.323  10.356   7.343
 4019POPC   C1B51955  11.527  10.919   6.203
 4019POPC   C2B51956  11.350  11.007   6.613
 4019POPC   C3B51957  11.221  10.820   7.007
 4019POPC   C4B51958  10.988  11.005   7.316
 4020POPC   NC351959  35.628  21.154   5.365
 4020POPC   PO451960  35.060  21.568   5.366
 4020POPC   GL151961  35.147  21.280   5.763
 4020POPC   GL251962  35.524  21.187   5.875
 4020POPC   C1A51963  35.150  21.240   6.249
 4020POPC   D2A51964  35.392  21.434   6.627
 4020POPC   C3A51965  35.204  21.392   7.055
 4020POPC   C4A51966  35.224  21.431   7.537
 4020POPC   C1B51967  35.845  21.044   6.212
 4020POPC   C2B51968  35.726  20.991   6.667
 4020POPC   C3B51969  35.616  21.081   7.111
 4020POPC   C4B51970  35.670  21.156   7.578
 4021POPC   NC351971  42.619  26.084   5.211
 4021POPC   PO451972  43.211  26.075   5.550
 4021POPC   GL151973  43.207  25.991   5.937
 4021POPC   GL251974  42.979  25.711   5.924
 4021POPC   C1A51975  43.095  26.021   6.358
 4021POPC   D2A51976  43.334  26.216   6.667
 4021POPC   C3A51977  43.265  26.090   7.082
 4021POPC   C4A51978  43.449  25.964   7.478
 4021POPC   C1B51979  42.696  25.688   6.218
 4021POPC   C2B51980  42.693  25.806   6.625
 4021POPC   C3B51981  42.761  25.644   7.000
 4021POPC   C4B51982  42.909  25.767   7.367
 4022POPC   NC351983   8.319  37.540   4.999
 4022POPC   PO451984   7.907  37.347   5.519
 4022POPC   GL151985   8.001  37.707   5.804
 4022POPC   GL251986   8.344  37.900   5.838
 4022POPC   C1A51987   8.164  37.605   6.232
 4022POPC   D2A51988   8.471  37.572   6.595
 4022POPC   C3A51989   8.217  37.569   6.974
 4022POPC   C4A51990   8.039  37.917   7.204
 4022POPC   C1B51991   8.475  38.014   6.277
 4022POPC   C2B51992   8.344  38.060   6.725
 4022POPC   C3B51993   8.565  37.922   7.111
 4022POPC   C4B51994   8.540  38.027   7.552
 4023POPC   NC351995  23.276   5.320   5.144
 4023POPC   PO451996  22.718   5.004   5.343
 4023POPC   GL151997  22.873   5.016   5.766
 4023POPC   GL251998  23.050   5.340   5.848
 4023POPC   C1A51999  22.732   5.091   6.196
 4023POPC   D2A52000  22.665   5.232   6.645
 4023POPC   C3A52001  22.702   5.125   7.111
 4023POPC   C4A52002  22.572   5.403   7.513
 4023POPC   C1B52003  23.205   5.245   6.293
 4023POPC   C2B52004  23.177   5.193   6.761
 4023POPC   C3B52005  23.277   4.964   7.132
 4023POPC   C4B52006  23.410   4.786   7.573
 4024POPC   NC352007   8.596  13.866   5.569
 4024POPC   PO452008   9.183  13.515   5.407
 4024POPC   GL152009   9.123  13.574   5.831
 4024POPC   GL252010   8.790  13.510   5.934
 4024POPC   C1A52011   9.282  13.544   6.249
 4024POPC   D2A52012   9.210  13.336   6.643
 4024POPC   C3A52013   9.073  13.653   6.917
 4024POPC   C4A52014   9.229  13.952   7.182
 4024POPC   C1B52015   8.783  13.500   6.400
 4024POPC   C2B52016   8.677  13.364   6.819
 4024POPC   C3B52017   8.590  13.612   7.204
 4024POPC   C4B52018   8.606  13.391   7.644
 4025POPC   NC352019   0.623  19.208   5.331
 4025POPC   PO452020   0.007  18.964   5.512
 4025POPC   GL152021   0.271  18.906   5.900
 4025POPC   GL252022   0.596  19.083   5.892
 4025POPC   C1A52023   0.342  19.022   6.352
 4025POPC   D2A52024   0.463  18.870   6.774
 4025POPC   C3A52025   0.330  19.075   7.149
 4025POPC   C4A52026   0.168  19.117   7.566
 4025POPC   C1B52027   0.854  19.106   6.302
 4025POPC   C2B52028   0.959  18.980   6.751
 4025POPC   C3B52029   0.835  19.176   7.157
 4025POPC   C4B52030   0.657  18.980   7.557
 4026POPC   NC352031  32.551  31.515   5.384
 4026POPC   PO452032  31.903  31.624   5.668
 4026POPC   GL152033  32.121  31.344   5.926
 4026POPC   GL252034  32.458  31.470   5.891
 4026POPC   C1A52035  32.210  31.361   6.383
 4026POPC   D2A52036  32.502  31.537   6.683
 4026POPC   C3A52037  32.421  31.468   7.118
 4026POPC   C4A52038  32.039  31.513   7.296
 4026POPC   C1B52039  32.313  31.806   6.154
 4026POPC   C2B52040  32.485  32.021   6.469
 4026POPC   C3B52041  32.368  32.103   6.864
 4026POPC   C4B52042  32.364  31.940   7.259
 4027POPC   NC352043   6.150  34.090   5.354
 4027POPC   PO452044   6.026  33.459   5.449
 4027POPC   GL152045   5.940  33.799   5.753
 4027POPC   GL252046   5.629  33.744   5.750
 4027POPC   C1A52047   5.754  33.981   6.171
 4027POPC   D2A52048   5.454  34.051   6.509
 4027POPC   C3A52049   5.586  33.919   6.908
 4027POPC   C4A52050   5.955  33.834   7.183
 4027POPC   C1B52051   5.681  33.465   6.097
 4027POPC   C2B52052   5.667  33.561   6.526
 4027POPC   C3B52053   5.800  33.439   6.929
 4027POPC   C4B52054   5.753  33.382   7.391
 4028POPC   NC352055   5.720  19.482   5.068
 4028POPC   PO452056   5.818  18.940   5.416
 4028POPC   GL152057   5.912  18.939   5.805
 4028POPC   GL252058   5.886  18.580   5.846
 4028POPC   C1A52059   5.888  19.189   6.180
 4028POPC   D2A52060   6.133  19.164   6.534
 4028POPC   C3A52061   5.910  19.273   6.896
 4028POPC   C4A52062   5.902  19.167   7.307
 4028POPC   C1B52063   5.758  18.703   6.278
 4028POPC   C2B52064   5.803  18.788   6.729
 4028POPC   C3B52065   5.851  18.666   7.181
 4028POPC   C4B52066   6.003  18.791   7.630
 4029POPC   NC352067   1.748  28.035   5.613
 4029POPC   PO452068   1.661  27.402   5.619
 4029POPC   GL152069   1.863  27.643   5.911
 4029POPC   GL252070   2.194  27.778   5.817
 4029POPC   C1A52071   1.943  27.895   6.246
 4029POPC   D2A52072   2.105  27.694   6.576
 4029POPC   C3A52073   2.122  27.862   6.929
 4029POPC   C4A52074   1.927  27.665   7.221
 4029POPC   C1B52075   2.321  27.479   6.139
 4029POPC   C2B52076   2.488  27.363   6.564
 4029POPC   C3B52077   2.329  27.402   7.000
 4029POPC   C4B52078   2.267  27.339   7.449
 4030POPC   NC352079  25.172  41.141   5.506
 4030POPC   PO452080  25.012  40.454   5.415
 4030POPC   GL152081  25.099  40.693   5.781
 4030POPC   GL252082  25.457  40.747   5.769
 4030POPC   C1A52083  25.008  40.894   6.180
 4030POPC   D2A52084  25.196  40.908   6.583
 4030POPC   C3A52085  24.997  40.970   6.923
 4030POPC   C4A52086  25.128  40.785   7.288
 4030POPC   C1B52087  25.518  40.910   6.204
 4030POPC   C2B52088  25.700  40.967   6.651
 4030POPC   C3B52089  25.473  41.128   7.031
 4030POPC   C4B52090  25.411  41.158   7.485
 4031POPC   NC352091  22.708   4.539   5.404
 4031POPC   PO452092  22.701   3.845   5.409
 4031POPC   GL152093  22.904   4.081   5.755
 4031POPC   GL252094  22.636   4.298   5.844
 4031POPC   C1A52095  22.890   4.085   6.229
 4031POPC   D2A52096  23.158   4.209   6.595
 4031POPC   C3A52097  23.061   4.045   7.007
 4031POPC   C4A52098  22.781   4.111   7.312
 4031POPC   C1B52099  22.931   4.593   6.069
 4031POPC   C2B52100  23.028   4.754   6.487
 4031POPC   C3B52101  22.860   4.563   6.854
 4031POPC   C4B52102  22.913   4.632   7.255
 4032POPC   NC352103  11.623   4.188   5.451
 4032POPC   PO452104  10.939   4.416   5.444
 4032POPC   GL152105  11.103   4.282   5.862
 4032POPC   GL252106  11.427   4.355   5.911
 4032POPC   C1A52107  11.216   4.115   6.300
 4032POPC   D2A52108  11.282   3.861   6.657
 4032POPC   C3A52109  11.281   4.121   7.008
 4032POPC   C4A52110  11.396   4.446   7.300
 4032POPC   C1B52111  11.173   4.605   6.277
 4032POPC   C2B52112  11.268   4.558   6.711
 4032POPC   C3B52113  11.684   4.439   6.890
 4032POPC   C4B52114  11.885   4.599   7.262
 4033POPC   NC352115  25.727   6.056   5.376
 4033POPC   PO452116  26.323   6.101   5.813
 4033POPC   GL152117  25.935   5.926   5.907
 4033POPC   GL252118  25.677   5.678   5.722
 4033POPC   C1A52119  25.990   5.901   6.370
 4033POPC   D2A52120  26.285   5.638   6.614
 4033POPC   C3A52121  26.381   5.831   7.003
 4033POPC   C4A52122  26.201   5.938   7.389
 4033POPC   C1B52123  25.556   5.705   6.150
 4033POPC   C2B52124  25.562   5.766   6.577
 4033POPC   C3B52125  25.847   5.763   6.913
 4033POPC   C4B52126  25.783   5.665   7.331
 4034POPC   NC352127   7.665   9.540   5.249
 4034POPC   PO452128   7.121  10.003   5.385
 4034POPC   GL152129   7.422   9.804   5.697
 4034POPC   GL252130   7.479   9.438   5.741
 4034POPC   C1A52131   7.482   9.770   6.152
 4034POPC   D2A52132   7.262   9.911   6.526
 4034POPC   C3A52133   7.437   9.783   6.901
 4034POPC   C4A52134   7.245   9.830   7.259
 4034POPC   C1B52135   7.643   9.289   6.172
 4034POPC   C2B52136   7.821   9.430   6.566
 4034POPC   C3B52137   7.745   9.316   6.954
 4034POPC   C4B52138   7.645   9.516   7.299
 4035POPC   NC352139  17.263  20.894   5.391
 4035POPC   PO452140  17.672  20.306   5.459
 4035POPC   GL152141  17.662  20.594   5.838
 4035POPC   GL252142  17.297  20.676   5.869
 4035POPC   C1A52143  17.562  20.648   6.307
 4035POPC   D2A52144  17.520  20.840   6.726
 4035POPC   C3A52145  17.607  20.601   7.105
 4035POPC   C4A52146  17.852  20.446   7.424
 4035POPC   C1B52147  17.028  20.576   6.238
 4035POPC   C2B52148  16.857  20.340   6.605
 4035POPC   C3B52149  17.048  20.337   6.990
 4035POPC   C4B52150  17.121  20.733   7.180
 4036POPC   NC352151  33.647  40.907   5.568
 4036POPC   PO452152  32.947  40.819   5.387
 4036POPC   GL152153  32.844  40.670   5.797
 4036POPC   GL252154  33.151  40.787   5.970
 4036POPC   C1A52155  32.719  40.776   6.229
 4036POPC   D2A52156  32.892  40.999   6.574
 4036POPC   C3A52157  32.834  40.873   6.997
 4036POPC   C4A52158  32.868  40.764   7.446
 4036POPC   C1B52159  33.341  41.078   6.332
 4036POPC   C2B52160  33.328  41.099   6.812
 4036POPC   C3B52161  33.303  40.835   7.182
 4036POPC   C4B52162  33.366  40.925   7.636
 4037POPC   NC352163  33.099  40.375   5.394
 4037POPC   PO452164  32.915  39.728   5.501
 4037POPC   GL152165  32.975  39.952   5.858
 4037POPC   GL252166  33.197  40.261   5.862
 4037POPC   C1A52167  33.067  39.776   6.265
 4037POPC   D2A52168  32.942  39.656   6.679
 4037POPC   C3A52169  32.999  39.910   7.006
 4037POPC   C4A52170  33.195  39.854   7.359
 4037POPC   C1B52171  32.941  40.307   6.230
 4037POPC   C2B52172  32.872  40.484   6.627
 4037POPC   C3B52173  33.047  40.419   7.009
 4037POPC   C4B52174  32.895  40.268   7.383
 4038POPC   NC352175   6.684   9.694   5.365
 4038POPC   PO452176   6.284  10.203   5.470
 4038POPC   GL152177   6.612  10.016   5.776
 4038POPC   GL252178   6.553   9.680   5.853
 4038POPC   C1A52179   6.946   9.843   6.116
 4038POPC   D2A52180   6.844   9.590   6.517
 4038POPC   C3A52181   6.875   9.699   6.948
 4038POPC   C4A52182   6.767   9.914   7.388
 4038POPC   C1B52183   6.454   9.821   6.272
 4038POPC   C2B52184   6.262   9.605   6.656
 4038POPC   C3B52185   6.385   9.694   7.079
 4038POPC   C4B52186   6.484   9.491   7.446
 4039POPC   NC352187  34.354  38.949   5.490
 4039POPC   PO452188  34.586  39.529   5.346
 4039POPC   GL152189  34.621  39.298   5.760
 4039POPC   GL252190  34.757  39.478   5.995
 4039POPC   C1A52191  34.548  38.996   6.143
 4039POPC   D2A52192  34.435  38.910   6.592
 4039POPC   C3A52193  34.381  39.239   6.901
 4039POPC   C4A52194  34.325  39.138   7.354
 4039POPC   C1B52195  34.631  39.424   6.424
 4039POPC   C2B52196  34.780  39.617   6.797
 4039POPC   C3B52197  34.888  39.432   7.162
 4039POPC   C4B52198  34.602  39.538   7.500
 4040POPC   NC352199  44.796  36.529   5.322
 4040POPC   PO452200  44.417  36.015   5.463
 4040POPC   GL152201  44.627  36.247   5.781
 4040POPC   GL252202  44.820  35.938   5.797
 4040POPC   C1A52203  44.620  36.177   6.237
 4040POPC   D2A52204  44.420  35.958   6.589
 4040POPC   C3A52205  44.541  36.242   6.875
 4040POPC   C4A52206  44.692  36.376   7.273
 4040POPC   C1B52207   0.059  35.940   6.141
 4040POPC   C2B52208  44.933  35.959   6.579
 4040POPC   C3B52209  44.884  35.914   7.002
 4040POPC   C4B52210   0.172  36.020   7.253
 4041POPC   NC352211  25.190  12.140   5.330
 4041POPC   PO452212  25.874  11.934   5.173
 4041POPC   GL152213  25.623  11.886   5.572
 4041POPC   GL252214  25.599  12.242   5.699
 4041POPC   C1A52215  25.431  11.860   6.028
 4041POPC   D2A52216  25.312  11.772   6.487
 4041POPC   C3A52217  25.441  11.886   6.942
 4041POPC   C4A52218  25.114  11.937   7.255
 4041POPC   C1B52219  25.423  12.364   6.133
 4041POPC   C2B52220  25.487  12.240   6.575
 4041POPC   C3B52221  25.211  12.354   6.949
 4041POPC   C4B52222  25.240  12.437   7.379
 4042POPC   NC352223  24.707  20.092   5.133
 4042POPC   PO452224  24.753  20.710   5.537
 4042POPC   GL152225  24.461  20.540   5.852
 4042POPC   GL252226  24.706  20.391   6.077
 4042POPC   C1A52227  24.278  20.654   6.229
 4042POPC   D2A52228  24.316  20.881   6.614
 4042POPC   C3A52229  24.327  20.608   6.961
 4042POPC   C4A52230  24.401  20.653   7.386
 4042POPC   C1B52231  24.787  20.710   6.352
 4042POPC   C2B52232  24.817  20.672   6.799
 4042POPC   C3B52233  24.804  20.434   7.165
 4042POPC   C4B52234  24.874  20.608   7.642
 4043POPC   NC352235  30.362   4.330   5.446
 4043POPC   PO452236  29.705   4.112   5.257
 4043POPC   GL152237  29.871   4.162   5.693
 4043POPC   GL252238  30.010   4.469   5.775
 4043POPC   C1A52239  29.751   4.238   6.151
 4043POPC   D2A52240  29.660   4.174   6.600
 4043POPC   C3A52241  29.719   4.475   6.927
 4043POPC   C4A52242  29.769   4.452   7.392
 4043POPC   C1B52243  30.151   4.558   6.166
 4043POPC   C2B52244  29.950   4.635   6.497
 4043POPC   C3B52245  30.160   4.697   6.861
 4043POPC   C4B52246  30.215   4.385   7.156
 4044POPC   NC352247   4.396  22.642   5.394
 4044POPC   PO452248   3.993  23.189   5.390
 4044POPC   GL152249   4.054  23.125   5.845
 4044POPC   GL252250   4.383  23.007   5.864
 4044POPC   C1A52251   4.085  23.068   6.287
 4044POPC   D2A52252   4.127  22.876   6.674
 4044POPC   C3A52253   4.436  22.893   6.980
 4044POPC   C4A52254   4.122  23.004   7.270
 4044POPC   C1B52255   4.506  23.340   6.176
 4044POPC   C2B52256   4.540  23.225   6.574
 4044POPC   C3B52257   4.508  23.401   6.949
 4044POPC   C4B52258   4.548  23.258   7.353
 4045POPC   NC352259  13.301  36.754   5.540
 4045POPC   PO452260  12.680  36.891   5.413
 4045POPC   GL152261  12.922  36.990   5.807
 4045POPC   GL252262  12.874  36.702   5.890
 4045POPC   C1A52263  13.046  37.193   6.177
 4045POPC   D2A52264  12.920  37.046   6.581
 4045POPC   C3A52265  12.964  37.282   6.960
 4045POPC   C4A52266  13.176  37.160   7.355
 4045POPC   C1B52267  13.150  36.709   6.231
 4045POPC   C2B52268  13.322  36.698   6.605
 4045POPC   C3B52269  13.261  36.854   6.967
 4045POPC   C4B52270  12.943  36.732   7.240
 4046POPC   NC352271  43.966  39.432   5.308
 4046POPC   PO452272  43.731  40.160   5.343
 4046POPC   GL152273  43.810  39.951   5.727
 4046POPC   GL252274  44.075  39.773   5.720
 4046POPC   C1A52275  43.638  39.861   6.140
 4046POPC   D2A52276  43.736  39.985   6.546
 4046POPC   C3A52277  43.517  39.974   6.918
 4046POPC   C4A52278  43.734  40.189   7.242
 4046POPC   C1B52279  44.143  39.927   6.183
 4046POPC   C2B52280  44.217  40.120   6.611
 4046POPC   C3B52281  44.233  40.023   7.079
 4046POPC   C4B52282  44.271  39.832   7.504
 4047POPC   NC352283  12.178  20.002   5.477
 4047POPC   PO452284  11.672  19.525   5.450
 4047POPC   GL152285  11.865  19.754   5.871
 4047POPC   GL252286  12.239  19.866   5.964
 4047POPC   C1A52287  11.885  20.034   6.288
 4047POPC   D2A52288  12.164  20.022   6.616
 4047POPC   C3A52289  12.065  19.762   6.938
 4047POPC   C4A52290  12.098  19.750   7.370
 4047POPC   C1B52291  12.194  19.593   6.339
 4047POPC   C2B52292  12.370  19.410   6.737
 4047POPC   C3B52293  12.524  19.627   7.141
 4047POPC   C4B52294  12.530  19.680   7.642
 4048POPC   NC352295   6.833   8.746   5.520
 4048POPC   PO452296   6.644   9.272   5.539
 4048POPC   GL152297   6.527   9.024   5.850
 4048POPC   GL252298   6.289   9.268   5.939
 4048POPC   C1A52299   6.734   8.895   6.204
 4048POPC   D2A52300   6.937   9.086   6.551
 4048POPC   C3A52301   6.845   9.005   6.979
 4048POPC   C4A52302   6.580   8.702   7.188
 4048POPC   C1B52303   6.481   9.311   6.292
 4048POPC   C2B52304   6.433   9.066   6.635
 4048POPC   C3B52305   6.373   9.182   7.037
 4048POPC   C4B52306   6.201   9.068   7.410
 4049POPC   NC352307  24.025  35.297   5.133
 4049POPC   PO452308  24.707  35.310   5.323
 4049POPC   GL152309  24.612  35.291   5.802
 4049POPC   GL252310  24.649  35.622   5.893
 4049POPC   C1A52311  24.450  35.328   6.228
 4049POPC   D2A52312  24.464  35.126   6.572
 4049POPC   C3A52313  24.275  35.308   6.857
 4049POPC   C4A52314  24.378  35.302   7.278
 4049POPC   C1B52315  24.875  35.628   6.290
 4049POPC   C2B52316  24.763  35.500   6.685
 4049POPC   C3B52317  24.772  35.177   6.986
 4049POPC   C4B52318  24.916  35.539   7.223
 4050POPC   NC352319  27.723   9.060   5.371
 4050POPC   PO452320  27.255   8.583   5.487
 4050POPC   GL152321  27.487   8.837   5.776
 4050POPC   GL252322  27.547   9.218   5.845
 4050POPC   C1A52323  27.685   8.752   6.146
 4050POPC   D2A52324  27.926   8.911   6.453
 4050POPC   C3A52325  27.868   8.734   6.839
 4050POPC   C4A52326  27.967   8.843   7.214
 4050POPC   C1B52327  27.338   9.130   6.219
 4050POPC   C2B52328  27.497   9.095   6.657
 4050POPC   C3B52329  27.474   8.972   7.081
 4050POPC   C4B52330  27.560   9.017   7.521
 4051POPC   NC352331  21.616  42.260   5.332
 4051POPC   PO452332  21.310  42.739   5.494
 4051POPC   GL152333  21.362  42.379   5.755
 4051POPC   GL252334  21.113  42.146   5.808
 4051POPC   C1A52335  21.538  42.193   6.121
 4051POPC   D2A52336  21.422  42.026   6.532
 4051POPC   C3A52337  21.598  42.340   6.819
 4051POPC   C4A52338  21.609  42.352   7.251
 4051POPC   C1B52339  21.063  42.464   6.162
 4051POPC   C2B52340  21.106  42.415   6.604
 4051POPC   C3B52341  21.173  42.612   6.983
 4051POPC   C4B52342  20.973  42.649   7.351
 4052POPC   NC352343  34.719   2.487   5.403
 4052POPC   PO452344  34.506   1.952   5.387
 4052POPC   GL152345  34.456   2.221   5.742
 4052POPC   GL252346  34.818   2.188   5.815
 4052POPC   C1A52347  34.390   2.199   6.175
 4052POPC   D2A52348  34.687   1.970   6.431
 4052POPC   C3A52349  34.454   1.778   6.753
 4052POPC   C4A52350  34.535   1.782   7.185
 4052POPC   C1B52351  34.827   2.461   6.178
 4052POPC   C2B52352  34.605   2.461   6.592
 4052POPC   C3B52353  34.709   2.208   6.928
 4052POPC   C4B52354  35.069   2.258   7.169
 4053POPC   NC352355  33.508  16.795   5.599
 4053POPC   PO452356  33.890  16.359   5.258
 4053POPC   GL152357  33.920  16.407   5.721
 4053POPC   GL252358  33.975  16.757   5.834
 4053POPC   C1A52359  33.728  16.391   6.167
 4053POPC   D2A52360  33.725  16.560   6.592
 4053POPC   C3A52361  34.116  16.732   6.800
 4053POPC   C4A52362  34.344  16.581   7.161
 4053POPC   C1B52363  33.737  16.927   6.197
 4053POPC   C2B52364  33.808  17.094   6.597
 4053POPC   C3B52365  33.566  17.248   6.938
 4053POPC   C4B52366  33.392  17.031   7.238
 4054POPC   NC352367  21.822  14.935   5.650
 4054POPC   PO452368  22.449  14.853   5.426
 4054POPC   GL152369  22.364  15.115   5.800
 4054POPC   GL252370  22.090  15.376   5.705
 4054POPC   C1A52371  22.426  15.021   6.268
 4054POPC   D2A52372  22.632  15.153   6.664
 4054POPC   C3A52373  22.372  15.134   7.034
 4054POPC   C4A52374  21.966  14.989   7.029
 4054POPC   C1B52375  22.100  15.426   6.157
 4054POPC   C2B52376  22.217  15.470   6.600
 4054POPC   C3B52377  22.012  15.507   6.992
 4054POPC   C4B52378  21.846  15.379   7.353
 4055POPC   NC352379   8.031  43.649   5.175
 4055POPC   PO452380   8.439  44.131   5.463
 4055POPC   GL152381   8.169  43.895   5.794
 4055POPC   GL252382   8.015  43.571   5.737
 4055POPC   C1A52383   8.011  43.936   6.241
 4055POPC   D2A52384   8.115  44.259   6.545
 4055POPC   C3A52385   8.186  44.269   6.977
 4055POPC   C4A52386   8.091  44.048   7.348
 4055POPC   C1B52387   8.321  43.541   6.117
 4055POPC   C2B52388   8.399  43.753   6.527
 4055POPC   C3B52389   8.133  43.761   6.885
 4055POPC   C4B52390   8.283  43.561   7.248
 4056POPC   NC352391  13.325  30.152   5.608
 4056POPC   PO452392  12.737  30.091   5.522
 4056POPC   GL152393  12.916  30.037   5.908
 4056POPC   GL252394  13.129  29.739   5.861
 4056POPC   C1A52395  12.809  29.833   6.292
 4056POPC   D2A52396  13.043  29.785   6.642
 4056POPC   C3A52397  12.895  29.923   7.006
 4056POPC   C4A52398  12.938  30.261   7.289
 4056POPC   C1B52399  13.378  29.629   6.212
 4056POPC   C2B52400  13.343  29.392   6.588
 4056POPC   C3B52401  13.354  29.563   7.024
 4056POPC   C4B52402  13.221  29.805   7.352
 4057POPC   NC352403  43.359  24.519   5.432
 4057POPC   PO452404  42.803  24.895   5.316
 4057POPC   GL152405  42.984  24.798   5.736
 4057POPC   GL252406  42.995  24.425   5.779
 4057POPC   C1A52407  42.977  24.723   6.202
 4057POPC   D2A52408  42.908  24.464   6.602
 4057POPC   C3A52409  43.007  24.653   7.018
 4057POPC   C4A52410  42.840  24.750   7.433
 4057POPC   C1B52411  43.079  24.209   6.179
 4057POPC   C2B52412  43.250  23.960   6.493
 4057POPC   C3B52413  43.082  24.037   6.898
 4057POPC   C4B52414  43.231  24.248   7.256
 4058POPC   NC352415  43.457  18.357   5.353
 4058POPC   PO452416  44.148  18.535   5.233
 4058POPC   GL152417  43.914  18.490   5.666
 4058POPC   GL252418  44.244  18.444   5.868
 4058POPC   C1A52419  43.839  18.221   6.086
 4058POPC   D2A52420  43.552  18.180   6.459
 4058POPC   C3A52421  43.724  18.178   6.874
 4058POPC   C4A52422  43.780  18.264   7.305
 4058POPC   C1B52423  44.289  18.366   6.333
 4058POPC   C2B52424  44.227  18.321   6.804
 4058POPC   C3B52425  44.268  18.468   7.226
 4058POPC   C4B52426  44.127  18.399   7.680
 4059POPC   NC352427   6.947  30.627   5.415
 4059POPC   PO452428   6.468  31.130   5.428
 4059POPC   GL152429   6.554  30.776   5.751
 4059POPC   GL252430   6.248  30.556   5.810
 4059POPC   C1A52431   6.854  30.591   6.101
 4059POPC   D2A52432   7.039  30.733   6.527
 4059POPC   C3A52433   6.922  30.544   6.935
 4059POPC   C4A52434   6.652  30.558   7.300
 4059POPC   C1B52435   6.365  30.658   6.215
 4059POPC   C2B52436   6.555  30.493   6.565
 4059POPC   C3B52437   6.291  30.539   6.930
 4059POPC   C4B52438   6.159  30.893   7.165
 4060POPC   NC352439   2.434  34.008   5.344
 4060POPC   PO452440   2.655  33.398   5.536
 4060POPC   GL152441   2.708  33.798   5.767
 4060POPC   GL252442   3.063  33.900   5.845
 4060POPC   C1A52443   2.519  33.820   6.166
 4060POPC   D2A52444   2.520  33.477   6.486
 4060POPC   C3A52445   2.699  33.568   6.906
 4060POPC   C4A52446   2.644  33.928   7.183
 4060POPC   C1B52447   2.974  33.987   6.245
 4060POPC   C2B52448   2.870  34.013   6.654
 4060POPC   C3B52449   3.109  33.965   7.002
 4060POPC   C4B52450   3.047  34.211   7.304
 4061POPC   NC352451  30.773  26.360   5.314
 4061POPC   PO452452  30.902  25.679   5.338
 4061POPC   GL152453  30.647  25.835   5.703
 4061POPC   GL252454  30.506  26.176   5.712
 4061POPC   C1A52455  30.767  25.970   6.139
 4061POPC   D2A52456  30.906  25.772   6.534
 4061POPC   C3A52457  30.649  25.896   6.880
 4061POPC   C4A52458  30.768  26.095   7.234
 4061POPC   C1B52459  30.297  26.177   6.085
 4061POPC   C2B52460  30.351  26.048   6.489
 4061POPC   C3B52461  30.186  26.188   6.864
 4061POPC   C4B52462  30.260  26.131   7.291
 4062POPC   NC352463  39.007   0.144   5.611
 4062POPC   PO452464  39.167  44.403   5.490
 4062POPC   GL152465  39.369  44.459   5.824
 4062POPC   GL252466  39.327  44.796   5.837
 4062POPC   C1A52467  39.308  44.487   6.258
 4062POPC   D2A52468  39.313  44.302   6.649
 4062POPC   C3A52469  39.198  44.598   6.958
 4062POPC   C4A52470  39.001  44.635   7.355
 4062POPC   C1B52471  39.029  44.908   6.193
 4062POPC   C2B52472  39.075   0.038   6.627
 4062POPC   C3B52473  38.933   0.042   7.041
 4062POPC   C4B52474  39.238   0.130   7.375
 4063POPC   NC352475  21.104  15.439   5.478
 4063POPC   PO452476  21.411  16.061   5.420
 4063POPC   GL152477  21.243  16.051   5.829
 4063POPC   GL252478  21.386  15.723   5.869
 4063POPC   C1A52479  21.247  16.003   6.301
 4063POPC   D2A52480  21.265  15.682   6.636
 4063POPC   C3A52481  21.129  15.828   7.023
 4063POPC   C4A52482  21.251  16.237   7.103
 4063POPC   C1B52483  21.634  15.649   6.265
 4063POPC   C2B52484  21.764  15.819   6.683
 4063POPC   C3B52485  21.662  15.853   7.155
 4063POPC   C4B52486  21.560  15.704   7.607
 4064POPC   NC352487   7.261  20.684   5.265
 4064POPC   PO452488   6.695  20.376   5.448
 4064POPC   GL152489   6.647  20.692   5.771
 4064POPC   GL252490   6.944  20.779   5.963
 4064POPC   C1A52491   6.475  20.862   6.150
 4064POPC   D2A52492   6.682  20.801   6.553
 4064POPC   C3A52493   6.413  20.706   6.913
 4064POPC   C4A52494   6.160  20.983   7.157
 4064POPC   C1B52495   6.702  20.410   6.176
 4064POPC   C2B52496   6.711  20.262   6.592
 4064POPC   C3B52497   6.961  20.259   6.954
 4064POPC   C4B52498   6.705  20.421   7.244
 4065POPC   NC352499  33.470  12.084   5.413
 4065POPC   PO452500  34.010  12.479   5.435
 4065POPC   GL152501  33.861  12.398   5.875
 4065POPC   GL252502  33.499  12.396   5.871
 4065POPC   C1A52503  33.800  12.133   6.279
 4065POPC   D2A52504  34.056  12.050   6.668
 4065POPC   C3A52505  34.101  12.306   7.060
 4065POPC   C4A52506  33.930  12.139   7.468
 4065POPC   C1B52507  33.571  12.590   6.273
 4065POPC   C2B52508  33.763  12.491   6.656
 4065POPC   C3B52509  33.628  12.200   6.957
 4065POPC   C4B52510  33.463  12.319   7.315
 4066POPC   NC352511  34.819  20.924   5.510
 4066POPC   PO452512  34.493  20.237   5.399
 4066POPC   GL152513  34.376  20.327   5.831
 4066POPC   GL252514  34.689  20.551   5.863
 4066POPC   C1A52515  34.349  20.576   6.226
 4066POPC   D2A52516  34.565  20.611   6.614
 4066POPC   C3A52517  34.255  20.590   6.921
 4066POPC   C4A52518  34.142  20.662   7.338
 4066POPC   C1B52519  34.720  20.935   6.164
 4066POPC   C2B52520  34.701  21.107   6.597
 4066POPC   C3B52521  34.534  20.988   7.028
 4066POPC   C4B52522  34.628  20.851   7.450
 4067POPC   NC352523  17.337  15.742   5.653
 4067POPC   PO452524  17.972  15.956   5.610
 4067POPC   GL152525  17.697  15.931   5.946
 4067POPC   GL252526  17.474  16.202   5.998
 4067POPC   C1A52527  17.488  15.807   6.319
 4067POPC   D2A52528  17.600  16.117   6.641
 4067POPC   C3A52529  17.516  16.008   7.044
 4067POPC   C4A52530  17.523  15.607   7.116
 4067POPC   C1B52531  17.188  16.200   6.334
 4067POPC   C2B52532  17.067  15.936   6.687
 4067POPC   C3B52533  16.994  15.989   7.124
 4067POPC   C4B52534  17.234  16.129   7.469
 4068POPC   NC352535  44.647  24.574   5.460
 4068POPC   PO452536  44.163  24.217   5.615
 4068POPC   GL152537  44.538  24.367   5.911
 4068POPC   GL252538  44.947  24.328   5.795
 4068POPC   C1A52539  44.595  24.394   6.350
 4068POPC   D2A52540  44.350  24.338   6.706
 4068POPC   C3A52541  44.409  24.699   6.951
 4068POPC   C4A52542  44.774  24.882   7.110
 4068POPC   C1B52543   0.086  24.241   6.222
 4068POPC   C2B52544   0.084  24.414   6.642
 4068POPC   C3B52545  44.825  24.360   6.991
 4068POPC   C4B52546  44.953  24.165   7.350
 4069POPC   NC352547  14.993  18.507   5.548
 4069POPC   PO452548  14.972  19.178   5.504
 4069POPC   GL152549  15.155  19.030   5.880
 4069POPC   GL252550  15.116  18.724   5.967
 4069POPC   C1A52551  15.263  19.063   6.319
 4069POPC   D2A52552  15.156  19.380   6.633
 4069POPC   C3A52553  15.404  19.290   6.965
 4069POPC   C4A52554  15.233  19.033   7.258
 4069POPC   C1B52555  14.852  18.732   6.312
 4069POPC   C2B52556  14.929  18.764   6.750
 4069POPC   C3B52557  14.799  18.715   7.186
 4069POPC   C4B52558  15.018  18.755   7.612
 4070POPC   NC352559   9.386  26.523   5.678
 4070POPC   PO452560   9.997  26.849   5.459
 4070POPC   GL152561   9.829  26.741   5.840
 4070POPC   GL252562   9.533  26.958   5.906
 4070POPC   C1A52563   9.813  26.700   6.275
 4070POPC   D2A52564   9.744  26.854   6.665
 4070POPC   C3A52565  10.066  26.761   6.977
 4070POPC   C4A52566  10.157  26.351   7.204
 4070POPC   C1B52567   9.314  26.857   6.263
 4070POPC   C2B52568   9.099  26.729   6.604
 4070POPC   C3B52569   9.365  26.612   6.890
 4070POPC   C4B52570   9.600  26.740   7.178
 4071POPC   NC352571  43.871  36.644   5.255
 4071POPC   PO452572  43.716  37.325   5.454
 4071POPC   GL152573  43.930  36.972   5.682
 4071POPC   GL252574  43.672  36.770   5.801
 4071POPC   C1A52575  44.087  36.826   6.083
 4071POPC   D2A52576  44.018  36.928   6.513
 4071POPC   C3A52577  43.731  36.809   6.855
 4071POPC   C4A52578  43.913  36.869   7.263
 4071POPC   C1B52579  43.696  37.152   6.142
 4071POPC   C2B52580  43.646  37.282   6.615
 4071POPC   C3B52581  43.516  37.206   7.089
 4071POPC   C4B52582  43.736  37.351   7.506
 4072POPC   NC352583  31.730   5.201   5.307
 4072POPC   PO452584  31.299   4.825   5.495
 4072POPC   GL152585  31.420   5.018   5.872
 4072POPC   GL252586  31.751   5.153   5.834
 4072POPC   C1A52587  31.582   4.917   6.278
 4072POPC   D2A52588  31.738   4.918   6.707
 4072POPC   C3A52589  31.394   4.935   7.026
 4072POPC   C4A52590  30.965   5.019   7.131
 4072POPC   C1B52591  31.923   5.404   6.170
 4072POPC   C2B52592  32.080   5.357   6.608
 4072POPC   C3B52593  31.930   5.331   7.046
 4072POPC   C4B52594  31.522   5.383   7.268
 4073POPC   NC352595  17.111  23.293   5.467
 4073POPC   PO452596  16.509  23.021   5.292
 4073POPC   GL152597  16.677  22.766   5.646
 4073POPC   GL252598  16.440  22.544   5.848
 4073POPC   C1A52599  16.894  22.730   6.067
 4073POPC   D2A52600  16.707  22.817   6.452
 4073POPC   C3A52601  16.941  22.903   6.783
 4073POPC   C4A52602  16.883  22.962   7.215
 4073POPC   C1B52603  16.418  22.966   6.037
 4073POPC   C2B52604  16.396  23.228   6.411
 4073POPC   C3B52605  16.411  23.063   6.803
 4073POPC   C4B52606  16.392  23.135   7.221
 4074POPC   NC352607  21.929  37.487   5.300
 4074POPC   PO452608  21.363  37.882   5.436
 4074POPC   GL152609  21.487  37.894   5.857
 4074POPC   GL252610  21.165  37.737   5.915
 4074POPC   C1A52611  21.580  37.719   6.287
 4074POPC   D2A52612  21.417  37.571   6.690
 4074POPC   C3A52613  21.623  37.598   7.118
 4074POPC   C4A52614  21.562  37.419   7.566
 4074POPC   C1B52615  21.144  38.007   6.250
 4074POPC   C2B52616  20.995  37.936   6.644
 4074POPC   C3B52617  21.186  37.887   7.049
 4074POPC   C4B52618  21.370  37.904   7.480
 4075POPC   NC352619   2.940  16.886   5.438
 4075POPC   PO452620   2.308  17.005   5.445
 4075POPC   GL152621   2.550  16.773   5.772
 4075POPC   GL252622   2.827  16.494   5.768
 4075POPC   C1A52623   2.715  16.935   6.153
 4075POPC   D2A52624   2.516  16.891   6.553
 4075POPC   C3A52625   2.608  16.568   6.835
 4075POPC   C4A52626   2.623  16.844   7.178
 4075POPC   C1B52627   2.837  16.455   6.233
 4075POPC   C2B52628   3.028  16.720   6.562
 4075POPC   C3B52629   3.087  16.868   6.963
 4075POPC   C4B52630   2.979  16.481   7.197
 4076POPC   NC352631   1.549  18.899   5.541
 4076POPC   PO452632   0.776  18.784   5.437
 4076POPC   GL152633   1.062  19.054   5.689
 4076POPC   GL252634   1.098  18.755   5.874
 4076POPC   C1A52635   1.309  19.171   6.093
 4076POPC   D2A52636   1.396  19.089   6.517
 4076POPC   C3A52637   1.302  19.358   6.864
 4076POPC   C4A52638   1.347  19.310   7.286
 4076POPC   C1B52639   1.169  18.672   6.307
 4076POPC   C2B52640   1.393  18.528   6.666
 4076POPC   C3B52641   1.526  18.623   7.079
 4076POPC   C4B52642   1.178  18.834   7.251
 4077POPC   NC352643  22.038   0.819   5.447
 4077POPC   PO452644  22.318   0.244   5.505
 4077POPC   GL152645  22.214   0.537   5.818
 4077POPC   GL252646  22.523   0.667   5.883
 4077POPC   C1A52647  22.085   0.612   6.220
 4077POPC   D2A52648  22.037   0.310   6.531
 4077POPC   C3A52649  22.090   0.523   6.897
 4077POPC   C4A52650  21.957   0.392   7.268
 4077POPC   C1B52651  22.497   0.286   6.193
 4077POPC   C2B52652  22.643   0.142   6.612
 4077POPC   C3B52653  22.446   0.153   7.028
 4077POPC   C4B52654  22.460   0.507   7.288
 4078POPC   NC352655  26.139  36.559   5.384
 4078POPC   PO452656  26.114  37.189   5.139
 4078POPC   GL152657  26.105  37.033   5.625
 4078POPC   GL252658  25.900  36.749   5.799
 4078POPC   C1A52659  26.150  37.059   6.117
 4078POPC   D2A52660  26.257  36.781   6.455
 4078POPC   C3A52661  26.236  36.844   6.882
 4078POPC   C4A52662  26.094  36.941   7.244
 4078POPC   C1B52663  25.691  36.842   6.204
 4078POPC   C2B52664  25.594  36.721   6.612
 4078POPC   C3B52665  25.652  36.977   6.993
 4078POPC   C4B52666  25.639  36.879   7.428
 4079POPC   NC352667  16.204  17.958   5.477
 4079POPC   PO452668  15.854  18.513   5.595
 4079POPC   GL152669  16.027  18.219   5.892
 4079POPC   GL252670  15.890  17.864   5.898
 4079POPC   C1A52671  16.298  18.284   6.252
 4079POPC   D2A52672  16.297  18.100   6.634
 4079POPC   C3A52673  16.123  18.203   6.996
 4079POPC   C4A52674  16.032  18.568   7.190
 4079POPC   C1B52675  15.892  17.975   6.342
 4079POPC   C2B52676  15.736  17.896   6.759
 4079POPC   C3B52677  15.610  18.152   7.117
 4079POPC   C4B52678  15.734  18.210   7.563
 4080POPC   NC352679  33.820  24.998   5.396
 4080POPC   PO452680  33.861  24.303   5.418
 4080POPC   GL152681  33.840  24.575   5.779
 4080POPC   GL252682  33.619  24.847   5.828
 4080POPC   C1A52683  33.953  24.577   6.205
 4080POPC   D2A52684  34.007  24.336   6.548
 4080POPC   C3A52685  33.842  24.495   6.894
 4080POPC   C4A52686  33.954  24.285   7.265
 4080POPC   C1B52687  33.738  25.026   6.224
 4080POPC   C2B52688  33.654  24.986   6.645
 4080POPC   C3B52689  33.784  24.966   7.052
 4080POPC   C4B52690  33.603  24.968   7.456
 4081POPC   NC352691   1.320  41.708   5.379
 4081POPC   PO452692   0.864  41.270   5.474
 4081POPC   GL152693   1.072  41.466   5.793
 4081POPC   GL252694   1.020  41.830   5.816
 4081POPC   C1A52695   1.153  41.523   6.234
 4081POPC   D2A52696   1.128  41.614   6.673
 4081POPC   C3A52697   1.401  41.512   7.028
 4081POPC   C4A52698   1.294  41.211   7.350
 4081POPC   C1B52699   1.107  42.061   6.227
 4081POPC   C2B52700   1.119  42.114   6.706
 4081POPC   C3B52701   0.983  41.864   7.097
 4081POPC   C4B52702   0.885  42.003   7.532
 4082POPC   NC352703   7.672   1.245   5.388
 4082POPC   PO452704   7.056   0.938   5.448
 4082POPC   GL152705   7.250   1.188   5.746
 4082POPC   GL252706   7.596   1.109   5.864
 4082POPC   C1A52707   7.270   1.352   6.176
 4082POPC   D2A52708   7.317   1.095   6.537
 4082POPC   C3A52709   7.103   1.278   6.870
 4082POPC   C4A52710   7.226   1.153   7.245
 4082POPC   C1B52711   7.798   1.343   6.167
 4082POPC   C2B52712   7.671   1.463   6.551
 4082POPC   C3B52713   7.614   1.296   6.950
 4082POPC   C4B52714   7.643   1.441   7.358
 4083POPC   NC352715   5.349  24.650   5.487
 4083POPC   PO452716   4.890  24.141   5.537
 4083POPC   GL152717   5.113  24.361   5.921
 4083POPC   GL252718   5.455  24.511   5.952
 4083POPC   C1A52719   5.143  24.420   6.399
 4083POPC   D2A52720   4.873  24.355   6.798
 4083POPC   C3A52721   4.883  24.677   7.125
 4083POPC   C4A52722   4.844  24.593   7.600
 4083POPC   C1B52723   5.605  24.212   6.222
 4083POPC   C2B52724   5.587  24.238   6.657
 4083POPC   C3B52725   5.378  24.450   6.982
 4083POPC   C4B52726   5.153  24.282   7.312
 4084POPC   NC352727   1.607  23.078   5.494
 4084POPC   PO452728   2.187  22.670   5.391
 4084POPC   GL152729   2.033  22.929   5.717
 4084POPC   GL252730   1.778  22.717   5.813
 4084POPC   C1A52731   1.890  23.115   6.119
 4084POPC   D2A52732   2.124  23.118   6.508
 4084POPC   C3A52733   1.938  23.029   6.883
 4084POPC   C4A52734   2.100  23.137   7.285
 4084POPC   C1B52735   2.059  22.619   6.157
 4084POPC   C2B52736   2.031  22.583   6.609
 4084POPC   C3B52737   2.106  22.596   7.068
 4084POPC   C4B52738   2.297  22.707   7.487
 4085POPC   NC352739  14.344  35.803   5.425
 4085POPC   PO452740  14.656  36.366   5.462
 4085POPC   GL152741  14.409  36.198   5.751
 4085POPC   GL252742  14.644  35.943   5.851
 4085POPC   C1A52743  14.354  36.214   6.182
 4085POPC   D2A52744  14.347  36.517   6.528
 4085POPC   C3A52745  14.394  36.295   6.935
 4085POPC   C4A52746  14.291  36.112   7.317
 4085POPC   C1B52747  14.654  35.804   6.270
 4085POPC   C2B52748  14.543  35.865   6.701
 4085POPC   C3B52749  14.699  35.838   7.137
 4085POPC   C4B52750  14.679  35.959   7.581
 4086POPC   NC352751  13.010  40.083   5.347
 4086POPC   PO452752  12.562  39.640   5.355
 4086POPC   GL152753  12.644  40.026   5.722
 4086POPC   GL252754  12.949  40.251   5.812
 4086POPC   C1A52755  12.728  40.070   6.229
 4086POPC   D2A52756  12.656  39.884   6.664
 4086POPC   C3A52757  12.680  40.085   7.042
 4086POPC   C4A52758  12.924  40.036   7.399
 4086POPC   C1B52759  13.141  40.456   6.147
 4086POPC   C2B52760  13.054  40.505   6.568
 4086POPC   C3B52761  13.140  40.290   6.949
 4086POPC   C4B52762  13.394  40.221   7.313
 4087POPC   NC352763  38.769  24.309   5.505
 4087POPC   PO452764  39.198  24.758   5.475
 4087POPC   GL152765  39.056  24.587   5.854
 4087POPC   GL252766  38.961  24.229   5.965
 4087POPC   C1A52767  39.263  24.563   6.235
 4087POPC   D2A52768  39.164  24.424   6.631
 4087POPC   C3A52769  39.202  24.657   7.004
 4087POPC   C4A52770  38.803  24.690   7.209
 4087POPC   C1B52771  39.302  24.032   6.210
 4087POPC   C2B52772  39.494  24.046   6.606
 4087POPC   C3B52773  39.475  24.177   6.974
 4087POPC   C4B52774  39.025  24.152   7.073
 4088POPC   NC352775   8.268  26.468   5.503
 4088POPC   PO452776   8.327  27.117   5.457
 4088POPC   GL152777   8.375  26.827   5.863
 4088POPC   GL252778   8.441  26.440   5.965
 4088POPC   C1A52779   8.362  26.882   6.308
 4088POPC   D2A52780   8.046  26.975   6.578
 4088POPC   C3A52781   8.301  27.154   6.844
 4088POPC   C4A52782   8.407  27.149   7.244
 4088POPC   C1B52783   8.053  26.499   6.210
 4088POPC   C2B52784   8.150  26.490   6.647
 4088POPC   C3B52785   8.108  26.702   7.045
 4088POPC   C4B52786   7.887  26.534   7.381
 4089POPC   NC352787   3.714   8.936   5.395
 4089POPC   PO452788   3.093   8.831   5.437
 4089POPC   GL152789   3.403   8.860   5.810
 4089POPC   GL252790   3.774   9.022   5.889
 4089POPC   C1A52791   3.405   9.024   6.240
 4089POPC   D2A52792   3.620   8.939   6.614
 4089POPC   C3A52793   3.354   8.938   6.968
 4089POPC   C4A52794   3.415   8.970   7.396
 4089POPC   C1B52795   3.848   9.318   6.238
 4089POPC   C2B52796   3.709   9.446   6.664
 4089POPC   C3B52797   3.763   9.232   7.078
 4089POPC   C4B52798   3.722   9.370   7.530
 4090POPC   NC352799   7.452   0.732   5.558
 4090POPC   PO452800   7.515   0.104   5.373
 4090POPC   GL152801   7.737   0.240   5.802
 4090POPC   GL252802   7.701   0.576   5.957
 4090POPC   C1A52803   7.552   0.213   6.253
 4090POPC   D2A52804   7.227   0.480   6.480
 4090POPC   C3A52805   7.085   0.239   6.827
 4090POPC   C4A52806   7.187   0.271   7.216
 4090POPC   C1B52807   7.741   0.854   6.280
 4090POPC   C2B52808   7.894   0.976   6.651
 4090POPC   C3B52809   7.598   0.780   6.893
 4090POPC   C4B52810   7.441   0.694   7.272
 4091POPC   NC352811   9.818  28.936   5.356
 4091POPC   PO452812  10.053  29.686   5.470
 4091POPC   GL152813   9.772  29.361   5.726
 4091POPC   GL252814   9.882  29.031   5.860
 4091POPC   C1A52815   9.501  29.300   6.099
 4091POPC   D2A52816   9.642  29.168   6.531
 4091POPC   C3A52817   9.438  29.021   6.918
 4091POPC   C4A52818   9.539  29.122   7.350
 4091POPC   C1B52819  10.014  28.818   6.241
 4091POPC   C2B52820   9.877  28.703   6.656
 4091POPC   C3B52821   9.876  28.818   7.100
 4091POPC   C4B52822   9.903  28.863   7.573
 4092POPC   NC352823  16.712  12.725   5.663
 4092POPC   PO452824  16.723  12.273   5.123
 4092POPC   GL152825  16.649  12.172   5.624
 4092POPC   GL252826  16.934  12.065   5.844
 4092POPC   C1A52827  16.473  12.022   6.099
 4092POPC   D2A52828  16.455  11.785   6.544
 4092POPC   C3A52829  16.439  11.959   6.942
 4092POPC   C4A52830  16.505  12.067   7.375
 4092POPC   C1B52831  16.887  12.320   6.225
 4092POPC   C2B52832  16.752  12.250   6.646
 4092POPC   C3B52833  16.969  12.213   7.057
 4092POPC   C4B52834  17.001  12.077   7.490
 4093POPC   NC352835  43.790   1.381   5.251
 4093POPC   PO452836  44.231   1.008   5.621
 4093POPC   GL152837  43.911   1.234   5.819
 4093POPC   GL252838  43.650   1.478   5.746
 4093POPC   C1A52839  43.828   1.115   6.237
 4093POPC   D2A52840  44.085   1.103   6.579
 4093POPC   C3A52841  43.911   0.928   6.941
 4093POPC   C4A52842  43.898   1.093   7.351
 4093POPC   C1B52843  43.802   1.619   6.151
 4093POPC   C2B52844  43.787   1.546   6.557
 4093POPC   C3B52845  43.929   1.445   6.925
 4093POPC   C4B52846  43.669   1.550   7.208
 4094POPC   NC352847  10.500  19.731   5.187
 4094POPC   PO452848  10.603  19.077   5.351
 4094POPC   GL152849  10.549  19.095   5.800
 4094POPC   GL252850  10.440  18.729   5.787
 4094POPC   C1A52851  10.660  19.299   6.187
 4094POPC   D2A52852  10.585  19.308   6.634
 4094POPC   C3A52853  10.827  19.242   7.020
 4094POPC   C4A52854  10.481  19.176   7.327
 4094POPC   C1B52855  10.131  18.862   6.083
 4094POPC   C2B52856   9.977  18.868   6.491
 4094POPC   C3B52857  10.165  18.960   6.920
 4094POPC   C4B52858  10.105  18.780   7.327
 4095POPC   NC352859  13.947  14.606   5.563
 4095POPC   PO452860  14.549  14.684   5.302
 4095POPC   GL152861  14.432  14.574   5.784
 4095POPC   GL252862  14.152  14.327   5.930
 4095POPC   C1A52863  14.549  14.391   6.204
 4095POPC   D2A52864  14.364  14.414   6.599
 4095POPC   C3A52865  14.588  14.472   6.954
 4095POPC   C4A52866  14.457  14.615   7.342
 4095POPC   C1B52867  14.071  14.097   6.310
 4095POPC   C2B52868  14.038  14.035   6.766
 4095POPC   C3B52869  14.167  14.224   7.173
 4095POPC   C4B52870  14.262  14.125   7.638
 4096POPC   NC352871   4.069   5.260   5.393
 4096POPC   PO452872   4.642   4.891   5.389
 4096POPC   GL152873   4.504   5.113   5.731
 4096POPC   GL252874   4.161   4.995   5.829
 4096POPC   C1A52875   4.722   5.192   6.109
 4096POPC   D2A52876   4.812   5.159   6.549
 4096POPC   C3A52877   4.486   5.118   6.896
 4096POPC   C4A52878   4.256   5.118   7.330
 4096POPC   C1B52879   4.347   4.882   6.242
 4096POPC   C2B52880   4.194   4.779   6.658
 4096POPC   C3B52881   3.917   4.848   7.047
 4096POPC   C4B52882   3.944   4.737   7.510
 4097POPC   NC352883  16.031  36.738   5.388
 4097POPC   PO452884  15.880  37.361   5.516
 4097POPC   GL152885  15.761  37.087   5.881
 4097POPC   GL252886  15.909  36.731   5.896
 4097POPC   C1A52887  15.761  37.072   6.334
 4097POPC   D2A52888  15.976  37.289   6.677
 4097POPC   C3A52889  15.998  37.008   7.046
 4097POPC   C4A52890  15.774  36.572   7.031
 4097POPC   C1B52891  16.195  36.806   6.235
 4097POPC   C2B52892  16.151  36.706   6.671
 4097POPC   C3B52893  16.297  36.568   7.064
 4097POPC   C4B52894  16.292  36.688   7.475
 4098POPC   NC352895  44.226  28.204   5.322
 4098POPC   PO452896  43.512  28.360   5.306
 4098POPC   GL152897  43.589  28.352   5.754
 4098POPC   GL252898  43.943  28.320   5.766
 4098POPC   C1A52899  43.672  28.619   6.139
 4098POPC   D2A52900  43.906  28.779   6.504
 4098POPC   C3A52901  43.680  28.761   6.892
 4098POPC   C4A52902  43.581  28.526   7.270
 4098POPC   C1B52903  43.801  28.121   6.153
 4098POPC   C2B52904  43.982  28.140   6.557
 4098POPC   C3B52905  44.010  28.364   6.887
 4098POPC   C4B52906  43.946  28.171   7.247
 4099POPC   NC352907   8.780  21.562   5.362
 4099POPC   PO452908   9.242  21.084   5.490
 4099POPC   GL152909   9.036  21.357   5.770
 4099POPC   GL252910   8.778  21.118   5.892
 4099POPC   C1A52911   8.875  21.593   6.125
 4099POPC   D2A52912   8.734  21.588   6.561
 4099POPC   C3A52913   8.664  21.278   6.903
 4099POPC   C4A52914   8.620  21.431   7.315
 4099POPC   C1B52915   8.830  21.129   6.346
 4099POPC   C2B52916   9.113  21.255   6.677
 4099POPC   C3B52917   9.060  21.592   6.970
 4099POPC   C4B52918   9.056  21.701   7.405
 4100POPC   NC352919  18.613  37.812   5.105
 4100POPC   PO452920  18.164  37.579   5.481
 4100POPC   GL152921  18.283  37.631   5.899
 4100POPC   GL252922  18.468  37.941   5.829
 4100POPC   C1A52923  18.211  37.538   6.354
 4100POPC   D2A52924  18.225  37.334   6.775
 4100POPC   C3A52925  18.088  37.538   7.164
 4100POPC   C4A52926  18.341  37.440   7.520
 4100POPC   C1B52927  18.256  38.088   6.215
 4100POPC   C2B52928  18.246  37.978   6.607
 4100POPC   C3B52929  18.447  37.779   6.911
 4100POPC   C4B52930  18.446  37.911   7.327
 4101POPC   NC352931   1.697   7.023   5.615
 4101POPC   PO452932   1.273   7.359   5.242
 4101POPC   GL152933   1.213   7.354   5.700
 4101POPC   GL252934   1.525   7.514   5.831
 4101POPC   C1A52935   1.186   7.322   6.154
 4101POPC   D2A52936   1.269   7.489   6.550
 4101POPC   C3A52937   1.110   7.280   6.882
 4101POPC   C4A52938   1.144   7.475   7.259
 4101POPC   C1B52939   1.515   7.801   6.190
 4101POPC   C2B52940   1.677   7.804   6.624
 4101POPC   C3B52941   1.585   7.531   6.983
 4101POPC   C4B52942   1.622   7.500   7.462
 4102POPC   NC352943  10.484  38.576   5.368
 4102POPC   PO452944  10.777  37.984   5.403
 4102POPC   GL152945  10.484  38.207   5.767
 4102POPC   GL252946  10.418  38.570   5.858
 4102POPC   C1A52947  10.555  38.301   6.246
 4102POPC   D2A52948  10.307  38.346   6.608
 4102POPC   C3A52949  10.487  38.247   6.984
 4102POPC   C4A52950  10.233  38.431   7.260
 4102POPC   C1B52951  10.444  38.831   6.202
 4102POPC   C2B52952  10.626  38.938   6.579
 4102POPC   C3B52953  10.469  38.753   6.921
 4102POPC   C4B52954  10.638  38.750   7.308
 4103POPC   NC352955   3.908  12.202   5.591
 4103POPC   PO452956   4.282  11.862   5.224
 4103POPC   GL152957   4.395  11.970   5.719
 4103POPC   GL252958   4.169  12.143   5.990
 4103POPC   C1A52959   4.587  12.001   6.182
 4103POPC   D2A52960   4.244  12.101   6.494
 4103POPC   C3A52961   4.365  12.079   6.889
 4103POPC   C4A52962   4.331  12.096   7.342
 4103POPC   C1B52963   3.831  12.342   6.241
 4103POPC   C2B52964   3.886  12.651   6.561
 4103POPC   C3B52965   3.974  12.401   6.901
 4103POPC   C4B52966   3.933  12.400   7.317
 4104POPC   NC352967   4.848  43.667   5.420
 4104POPC   PO452968   5.300  44.129   5.332
 4104POPC   GL152969   4.960  44.119   5.688
 4104POPC   GL252970   5.136  44.432   5.740
 4104POPC   C1A52971   4.792  43.943   6.133
 4104POPC   D2A52972   4.909  43.716   6.548
 4104POPC   C3A52973   4.880  43.900   6.991
 4104POPC   C4A52974   4.963  43.867   7.475
 4104POPC   C1B52975   5.237  44.206   6.117
 4104POPC   C2B52976   5.080  44.228   6.537
 4104POPC   C3B52977   5.364  44.084   6.854
 4104POPC   C4B52978   5.373  43.732   7.166
 4105POPC   NC352979  42.649  36.521   5.388
 4105POPC   PO452980  42.601  37.163   5.548
 4105POPC   GL152981  42.356  36.835   5.745
 4105POPC   GL252982  42.004  36.728   5.772
 4105POPC   C1A52983  42.337  36.753   6.169
 4105POPC   D2A52984  42.378  36.983   6.550
 4105POPC   C3A52985  42.602  36.792   6.880
 4105POPC   C4A52986  42.371  36.671   7.241
 4105POPC   C1B52987  41.946  37.064   6.052
 4105POPC   C2B52988  41.860  37.096   6.486
 4105POPC   C3B52989  42.005  36.904   6.886
 4105POPC   C4B52990  42.313  37.160   7.094
 4106POPC   NC352991   6.795  34.897   5.733
 4106POPC   PO452992   6.537  34.319   5.440
 4106POPC   GL152993   6.668  34.288   5.872
 4106POPC   GL252994   6.955  34.376   5.780
 4106POPC   C1A52995   6.734  34.521   6.296
 4106POPC   D2A52996   6.605  34.932   6.503
 4106POPC   C3A52997   6.361  34.901   6.911
 4106POPC   C4A52998   6.556  34.719   7.274
 4106POPC   C1B52999   7.080  34.158   6.170
 4106POPC   C2B53000   7.155  34.320   6.573
 4106POPC   C3B53001   6.859  34.484   6.870
 4106POPC   C4B53002   6.939  34.281   7.256
 4107POPC   NC353003  20.418  14.394   4.986
 4107POPC   PO453004  20.407  14.049   5.571
 4107POPC   GL153005  20.575  14.365   5.803
 4107POPC   GL253006  20.364  14.689   5.807
 4107POPC   C1A53007  20.564  14.221   6.219
 4107POPC   D2A53008  20.465  14.068   6.622
 4107POPC   C3A53009  20.729  14.261   6.920
 4107POPC   C4A53010  20.986  14.086   7.215
 4107POPC   C1B53011  20.206  14.590   6.253
 4107POPC   C2B53012  20.328  14.581   6.710
 4107POPC   C3B53013  20.427  14.630   7.146
 4107POPC   C4B53014  20.855  14.618   7.271
 4108POPC   NC353015  40.350  17.390   5.496
 4108POPC   PO453016  39.648  17.360   5.510
 4108POPC   GL153017  39.909  17.333   5.855
 4108POPC   GL253018  39.991  17.682   5.929
 4108POPC   C1A53019  39.809  17.333   6.288
 4108POPC   D2A53020  39.879  17.123   6.667
 4108POPC   C3A53021  39.783  17.397   6.975
 4108POPC   C4A53022  40.041  17.686   7.188
 4108POPC   C1B53023  40.286  17.501   6.234
 4108POPC   C2B53024  40.244  17.474   6.702
 4108POPC   C3B53025  40.512  17.548   7.050
 4108POPC   C4B53026  40.511  17.678   7.465
 4109POPC   NC353027  41.932  15.644   5.441
 4109POPC   PO453028  42.141  16.210   5.171
 4109POPC   GL153029  41.823  16.131   5.626
 4109POPC   GL253030  41.430  15.980   5.703
 4109POPC   C1A53031  41.706  15.962   6.106
 4109POPC   D2A53032  41.596  16.157   6.487
 4109POPC   C3A53033  41.680  16.023   6.914
 4109POPC   C4A53034  41.485  16.098   7.312
 4109POPC   C1B53035  41.212  15.876   6.141
 4109POPC   C2B53036  41.293  15.733   6.575
 4109POPC   C3B53037  41.210  15.797   7.007
 4109POPC   C4B53038  41.496  15.596   7.320
 4110POPC   NC353039  35.986  42.148   5.306
 4110POPC   PO453040  36.039  42.779   5.418
 4110POPC   GL153041  36.263  42.627   5.794
 4110POPC   GL253042  36.210  42.295   5.764
 4110POPC   C1A53043  36.242  42.416   6.248
 4110POPC   D2A53044  36.416  42.244   6.615
 4110POPC   C3A53045  36.193  42.358   6.975
 4110POPC   C4A53046  36.049  42.731   7.140
 4110POPC   C1B53047  35.906  42.091   6.040
 4110POPC   C2B53048  35.961  41.896   6.446
 4110POPC   C3B53049  35.813  41.917   6.857
 4110POPC   C4B53050  35.919  42.027   7.246
 4111POPC   NC353051  32.168  25.630   5.408
 4111POPC   PO453052  32.606  26.144   5.377
 4111POPC   GL153053  32.457  25.893   5.753
 4111POPC   GL253054  32.089  25.967   5.828
 4111POPC   C1A53055  32.374  25.847   6.216
 4111POPC   D2A53056  32.279  26.070   6.597
 4111POPC   C3A53057  32.513  25.973   6.981
 4111POPC   C4A53058  32.430  25.911   7.429
 4111POPC   C1B53059  32.136  26.380   6.105
 4111POPC   C2B53060  32.070  26.528   6.571
 4111POPC   C3B53061  32.174  26.363   7.026
 4111POPC   C4B53062  32.038  26.252   7.465
 4112POPC   NC353063   9.341  35.251   5.562
 4112POPC   PO453064   8.620  35.467   5.537
 4112POPC   GL153065   8.941  35.401   5.870
 4112POPC   GL253066   9.253  35.597   5.928
 4112POPC   C1A53067   9.048  35.117   6.208
 4112POPC   D2A53068   9.175  35.125   6.644
 4112POPC   C3A53069   8.825  35.176   6.925
 4112POPC   C4A53070   8.905  35.178   7.343
 4112POPC   C1B53071   9.130  35.606   6.373
 4112POPC   C2B53072   9.069  35.615   6.830
 4112POPC   C3B53073   9.333  35.407   7.175
 4112POPC   C4B53074   9.389  35.414   7.648
 4113POPC   NC353075  25.048  36.997   5.542
 4113POPC   PO453076  25.241  37.594   5.411
 4113POPC   GL153077  25.287  37.379   5.813
 4113POPC   GL253078  24.951  37.360   5.901
 4113POPC   C1A53079  25.287  37.525   6.277
 4113POPC   D2A53080  25.230  37.719   6.712
 4113POPC   C3A53081  25.573  37.742   7.066
 4113POPC   C4A53082  25.632  37.773   7.565
 4113POPC   C1B53083  24.832  37.768   6.141
 4113POPC   C2B53084  24.793  38.008   6.561
 4113POPC   C3B53085  24.928  37.990   7.013
 4113POPC   C4B53086  25.115  37.724   7.278
 4114POPC   NC353087  12.506  28.226   5.507
 4114POPC   PO453088  11.914  28.597   5.570
 4114POPC   GL153089  12.245  28.493   5.866
 4114POPC   GL253090  12.507  28.758   5.914
 4114POPC   C1A53091  12.181  28.271   6.278
 4114POPC   D2A53092  12.334  28.183   6.688
 4114POPC   C3A53093  12.246  28.392   7.077
 4114POPC   C4A53094  12.218  28.348   7.528
 4114POPC   C1B53095  12.162  28.793   6.247
 4114POPC   C2B53096  12.109  28.677   6.653
 4114POPC   C3B53097  11.888  28.760   7.040
 4114POPC   C4B53098  12.132  28.865   7.388
 4115POPC   NC353099  15.017   1.031   5.278
 4115POPC   PO453100  15.624   1.285   5.328
 4115POPC   GL153101  15.398   1.385   5.730
 4115POPC   GL253102  15.199   1.066   5.778
 4115POPC   C1A53103  15.163   1.397   6.179
 4115POPC   D2A53104  15.055   1.178   6.589
 4115POPC   C3A53105  14.970   1.385   6.956
 4115POPC   C4A53106  15.154   1.205   7.307
 4115POPC   C1B53107  15.040   0.872   6.183
 4115POPC   C2B53108  14.794   0.740   6.604
 4115POPC   C3B53109  14.766   0.896   7.046
 4115POPC   C4B53110  14.930   0.760   7.434
 4116POPC   NC353111   9.078  19.199   5.358
 4116POPC   PO453112   8.471  19.100   5.026
 4116POPC   GL153113   8.612  19.123   5.495
 4116POPC   GL253114   8.338  19.223   5.735
 4116POPC   C1A53115   8.940  18.901   5.924
 4116POPC   D2A53116   8.911  18.733   6.394
 4116POPC   C3A53117   9.130  18.907   6.794
 4116POPC   C4A53118   9.110  18.940   7.247
 4116POPC   C1B53119   8.538  19.076   6.204
 4116POPC   C2B53120   8.657  19.069   6.679
 4116POPC   C3B53121   8.777  19.269   7.073
 4116POPC   C4B53122   8.830  19.296   7.539
 4117POPC   NC353123  34.895  31.496   5.337
 4117POPC   PO453124  34.412  31.106   5.321
 4117POPC   GL153125  34.562  31.334   5.721
 4117POPC   GL253126  34.870  31.228   5.845
 4117POPC   C1A53127  34.472  31.367   6.182
 4117POPC   D2A53128  34.770  31.352   6.526
 4117POPC   C3A53129  34.620  31.370   6.943
 4117POPC   C4A53130  34.370  31.356   7.307
 4117POPC   C1B53131  34.873  31.664   6.078
 4117POPC   C2B53132  35.054  31.779   6.497
 4117POPC   C3B53133  35.001  31.745   6.945
 4117POPC   C4B53134  34.838  31.564   7.366
 4118POPC   NC353135  29.445  30.897   5.449
 4118POPC   PO453136  30.060  30.601   5.421
 4118POPC   GL153137  29.913  30.491   5.807
 4118POPC   GL253138  29.837  30.848   5.820
 4118POPC   C1A53139  29.923  30.587   6.266
 4118POPC   D2A53140  29.787  30.438   6.682
 4118POPC   C3A53141  29.925  30.500   7.102
 4118POPC   C4A53142  30.091  30.837   7.317
 4118POPC   C1B53143  29.614  31.024   6.172
 4118POPC   C2B53144  29.710  31.194   6.598
 4118POPC   C3B53145  29.571  31.106   7.026
 4118POPC   C4B53146  29.580  30.816   7.376
 4119POPC   NC353147  41.223  38.787   5.332
 4119POPC   PO453148  41.770  38.443   5.463
 4119POPC   GL153149  41.529  38.311   5.817
 4119POPC   GL253150  41.292  38.583   5.804
 4119POPC   C1A53151  41.569  38.406   6.261
 4119POPC   D2A53152  41.640  38.667   6.634
 4119POPC   C3A53153  41.624  38.460   7.058
 4119POPC   C4A53154  41.696  38.024   7.235
 4119POPC   C1B53155  41.327  38.842   6.160
 4119POPC   C2B53156  41.152  38.678   6.527
 4119POPC   C3B53157  41.241  38.828   6.936
 4119POPC   C4B53158  41.230  38.674   7.366
 4120POPC   NC353159  16.736  25.019   5.174
 4120POPC   PO453160  16.573  24.543   5.602
 4120POPC   GL153161  16.798  24.507   5.957
 4120POPC   GL253162  16.860  24.858   5.905
 4120POPC   C1A53163  16.902  24.136   6.208
 4120POPC   D2A53164  16.946  23.894   6.573
 4120POPC   C3A53165  17.129  24.199   6.834
 4120POPC   C4A53166  16.810  24.427   7.072
 4120POPC   C1B53167  17.077  24.780   6.290
 4120POPC   C2B53168  17.086  24.700   6.728
 4120POPC   C3B53169  17.039  24.877   7.157
 4120POPC   C4B53170  17.162  24.911   7.599
 4121POPC   NC353171  25.805  10.489   5.125
 4121POPC   PO453172  25.442  10.378   5.638
 4121POPC   GL153173  25.364  10.617   5.984
 4121POPC   GL253174  25.594  10.885   5.971
 4121POPC   C1A53175  25.217  10.470   6.385
 4121POPC   D2A53176  25.355  10.132   6.600
 4121POPC   C3A53177  25.398  10.273   7.014
 4121POPC   C4A53178  25.355  10.649   7.266
 4121POPC   C1B53179  25.516  10.873   6.402
 4121POPC   C2B53180  25.445  10.829   6.813
 4121POPC   C3B53181  25.522  11.120   7.143
 4121POPC   C4B53182  25.382  11.104   7.563
 4122POPC   NC353183  40.595  40.462   5.607
 4122POPC   PO453184  41.164  40.729   5.378
 4122POPC   GL153185  40.991  40.736   5.825
 4122POPC   GL253186  40.660  40.900   5.927
 4122POPC   C1A53187  40.924  40.576   6.265
 4122POPC   D2A53188  40.936  40.765   6.675
 4122POPC   C3A53189  40.999  40.527   7.049
 4122POPC   C4A53190  40.992  40.671   7.498
 4122POPC   C1B53191  40.422  40.708   6.304
 4122POPC   C2B53192  40.324  40.847   6.710
 4122POPC   C3B53193  40.557  40.854   7.098
 4122POPC   C4B53194  40.565  40.489   7.303
 4123POPC   NC353195   7.775  13.752   5.537
 4123POPC   PO453196   7.241  13.232   5.584
 4123POPC   GL153197   7.364  13.551   5.856
 4123POPC   GL253198   7.138  13.793   5.723
 4123POPC   C1A53199   7.423  13.553   6.328
 4123POPC   D2A53200   7.770  13.440   6.617
 4123POPC   C3A53201   7.614  13.403   7.028
 4123POPC   C4A53202   7.178  13.344   7.105
 4123POPC   C1B53203   7.258  13.976   6.130
 4123POPC   C2B53204   7.127  13.927   6.558
 4123POPC   C3B53205   7.340  13.861   6.938
 4123POPC   C4B53206   7.298  14.128   7.270
 4124POPC   NC353207  25.633  13.063   5.004
 4124POPC   PO453208  25.312  12.617   5.442
 4124POPC   GL153209  25.169  12.716   5.830
 4124POPC   GL253210  25.008  12.986   5.724
 4124POPC   C1A53211  25.350  12.881   6.226
 4124POPC   D2A53212  25.420  12.722   6.653
 4124POPC   C3A53213  25.252  12.882   7.043
 4124POPC   C4A53214  25.404  12.901   7.463
 4124POPC   C1B53215  24.856  12.985   6.187
 4124POPC   C2B53216  25.063  13.117   6.586
 4124POPC   C3B53217  25.117  13.378   6.940
 4124POPC   C4B53218  25.090  13.279   7.392
 4125POPC   NC353219  36.372  23.107   5.535
 4125POPC   PO453220  35.828  23.075   5.257
 4125POPC   GL153221  35.949  22.933   5.727
 4125POPC   GL253222  36.204  22.641   5.719
 4125POPC   C1A53223  36.053  23.118   6.146
 4125POPC   D2A53224  36.031  22.962   6.550
 4125POPC   C3A53225  36.221  23.234   6.856
 4125POPC   C4A53226  36.488  23.061   7.193
 4125POPC   C1B53227  36.025  22.586   6.137
 4125POPC   C2B53228  36.182  22.455   6.536
 4125POPC   C3B53229  36.399  22.594   6.913
 4125POPC   C4B53230  36.270  22.431   7.293
 4126POPC   NC353231  12.489  44.101   5.522
 4126POPC   PO453232  11.883  43.736   5.472
 4126POPC   GL153233  12.108  43.782   5.802
 4126POPC   GL253234  12.004  44.086   5.853
 4126POPC   C1A53235  12.197  43.650   6.198
 4126POPC   D2A53236  12.080  43.773   6.615
 4126POPC   C3A53237  12.262  43.596   6.964
 4126POPC   C4A53238  12.195  43.716   7.362
 4126POPC   C1B53239  12.208  44.157   6.258
 4126POPC   C2B53240  12.004  44.297   6.628
 4126POPC   C3B53241  12.094  44.248   7.068
 4126POPC   C4B53242  11.813  44.244   7.431
 4127POPC   NC353243   8.555  30.748   5.112
 4127POPC   PO453244   8.125  30.383   5.591
 4127POPC   GL153245   8.027  30.750   5.843
 4127POPC   GL253246   8.305  30.893   5.874
 4127POPC   C1A53247   7.951  30.908   6.259
 4127POPC   D2A53248   7.992  30.592   6.540
 4127POPC   C3A53249   8.057  30.641   6.949
 4127POPC   C4A53250   8.270  30.362   7.175
 4127POPC   C1B53251   8.426  30.667   6.246
 4127POPC   C2B53252   8.456  30.788   6.664
 4127POPC   C3B53253   8.593  30.722   7.062
 4127POPC   C4B53254   8.519  30.767   7.477
 4128POPC   NC353255   4.833   6.859   5.557
 4128POPC   PO453256   4.245   6.543   5.490
 4128POPC   GL153257   4.277   6.859   5.838
 4128POPC   GL253258   4.069   7.151   5.805
 4128POPC   C1A53259   4.311   6.800   6.296
 4128POPC   D2A53260   4.234   6.428   6.588
 4128POPC   C3A53261   4.491   6.381   6.958
 4128POPC   C4A53262   4.546   6.697   7.292
 4128POPC   C1B53263   3.839   7.038   6.177
 4128POPC   C2B53264   4.003   7.074   6.593
 4128POPC   C3B53265   4.231   6.841   6.903
 4128POPC   C4B53266   4.149   6.995   7.315
 4129POPC   NC353267  39.689  29.092   5.451
 4129POPC   PO453268  40.100  29.517   5.130
 4129POPC   GL153269  40.193  29.396   5.660
 4129POPC   GL253270  40.132  29.035   5.748
 4129POPC   C1A53271  39.967  29.314   6.130
 4129POPC   D2A53272  40.127  29.363   6.575
 4129POPC   C3A53273  39.909  29.246   6.970
 4129POPC   C4A53274  39.962  29.347   7.413
 4129POPC   C1B53275  40.069  28.793   6.113
 4129POPC   C2B53276  39.907  28.891   6.509
 4129POPC   C3B53277  40.015  28.757   6.907
 4129POPC   C4B53278  39.972  28.844   7.322
 4130POPC   NC353279  14.254   6.738   5.377
 4130POPC   PO453280  14.383   6.114   5.554
 4130POPC   GL153281  14.303   6.466   5.803
 4130POPC   GL253282  14.558   6.730   5.780
 4130POPC   C1A53283  14.343   6.501   6.218
 4130POPC   D2A53284  14.138   6.347   6.578
 4130POPC   C3A53285  14.341   6.514   6.927
 4130POPC   C4A53286  14.431   6.348   7.347
 4130POPC   C1B53287  14.679   6.895   6.172
 4130POPC   C2B53288  14.656   6.755   6.542
 4130POPC   C3B53289  14.644   6.971   6.880
 4130POPC   C4B53290  14.567   6.832   7.255
 4131POPC   NC353291   5.712  21.620   5.403
 4131POPC   PO453292   6.202  21.235   5.448
 4131POPC   GL153293   6.080  21.459   5.788
 4131POPC   GL253294   6.158  21.798   5.844
 4131POPC   C1A53295   6.264  21.363   6.187
 4131POPC   D2A53296   6.257  21.121   6.572
 4131POPC   C3A53297   5.883  21.251   6.822
 4131POPC   C4A53298   5.984  21.470   7.196
 4131POPC   C1B53299   5.849  21.698   6.202
 4131POPC   C2B53300   5.902  21.758   6.651
 4131POPC   C3B53301   5.781  21.920   7.039
 4131POPC   C4B53302   5.640  21.755   7.432
 4132POPC   NC353303  23.774  18.565   5.097
 4132POPC   PO453304  23.935  18.109   5.559
 4132POPC   GL153305  23.957  18.328   5.927
 4132POPC   GL253306  24.107  18.697   5.865
 4132POPC   C1A53307  23.613  18.256   6.250
 4132POPC   D2A53308  23.394  18.431   6.590
 4132POPC   C3A53309  23.415  18.161   6.949
 4132POPC   C4A53310  23.687  17.880   7.207
 4132POPC   C1B53311  23.881  18.686   6.261
 4132POPC   C2B53312  23.913  18.468   6.629
 4132POPC   C3B53313  23.867  18.377   7.039
 4132POPC   C4B53314  23.979  18.411   7.430
 4133POPC   NC353315   6.258   3.675   5.362
 4133POPC   PO453316   5.579   3.267   5.373
 4133POPC   GL153317   5.688   3.349   5.798
 4133POPC   GL253318   5.730   3.722   5.831
 4133POPC   C1A53319   5.811   3.428   6.233
 4133POPC   D2A53320   6.166   3.527   6.481
 4133POPC   C3A53321   6.119   3.393   6.889
 4133POPC   C4A53322   5.780   3.443   7.173
 4133POPC   C1B53323   5.847   3.924   6.283
 4133POPC   C2B53324   5.812   3.798   6.744
 4133POPC   C3B53325   6.125   3.866   7.095
 4133POPC   C4B53326   6.236   3.903   7.547
 4134POPC   NC353327  20.359  18.977   5.423
 4134POPC   PO453328  20.916  18.878   5.174
 4134POPC   GL153329  20.810  19.045   5.665
 4134POPC   GL253330  20.557  19.125   5.865
 4134POPC   C1A53331  20.943  18.980   6.156
 4134POPC   D2A53332  20.979  19.156   6.601
 4134POPC   C3A53333  20.899  18.939   6.993
 4134POPC   C4A53334  20.820  19.137   7.398
 4134POPC   C1B53335  20.441  18.900   6.231
 4134POPC   C2B53336  20.483  18.975   6.669
 4134POPC   C3B53337  20.372  19.112   7.088
 4134POPC   C4B53338  20.348  18.903   7.493
 4135POPC   NC353339  26.174   6.487   5.633
 4135POPC   PO453340  25.484   6.466   5.441
 4135POPC   GL153341  25.706   6.575   5.824
 4135POPC   GL253342  25.861   6.899   5.759
 4135POPC   C1A53343  25.782   6.442   6.257
 4135POPC   D2A53344  25.689   6.273   6.688
 4135POPC   C3A53345  26.030   6.254   6.980
 4135POPC   C4A53346  26.044   6.413   7.384
 4135POPC   C1B53347  26.000   6.939   6.196
 4135POPC   C2B53348  25.984   6.767   6.634
 4135POPC   C3B53349  25.800   6.744   7.049
 4135POPC   C4B53350  25.677   6.855   7.488
 4136POPC   NC353351  42.658  34.110   5.582
 4136POPC   PO453352  42.001  33.894   5.447
 4136POPC   GL153353  42.170  33.919   5.829
 4136POPC   GL253354  41.982  33.586   5.880
 4136POPC   C1A53355  42.340  34.152   6.205
 4136POPC   D2A53356  42.080  34.178   6.573
 4136POPC   C3A53357  42.147  34.119   7.011
 4136POPC   C4A53358  42.266  34.123   7.464
 4136POPC   C1B53359  42.115  33.703   6.301
 4136POPC   C2B53360  42.133  33.685   6.717
 4136POPC   C3B53361  41.902  33.581   7.058
 4136POPC   C4B53362  41.990  33.683   7.507
 4137POPC   NC353363  19.900  24.180   5.389
 4137POPC   PO453364  19.742  24.728   5.149
 4137POPC   GL153365  19.726  24.586   5.661
 4137POPC   GL253366  20.008  24.420   5.820
 4137POPC   C1A53367  19.649  24.577   6.160
 4137POPC   D2A53368  19.630  24.334   6.593
 4137POPC   C3A53369  19.543  24.564   7.014
 4137POPC   C4A53370  19.749  24.554   7.457
 4137POPC   C1B53371  20.213  24.547   6.188
 4137POPC   C2B53372  20.277  24.435   6.585
 4137POPC   C3B53373  20.032  24.480   6.938
 4137POPC   C4B53374  20.179  24.359   7.321
 4138POPC   NC353375  24.069   2.306   5.577
 4138POPC   PO453376  24.262   2.863   5.580
 4138POPC   GL153377  24.387   2.585   5.882
 4138POPC   GL253378  24.726   2.579   5.822
 4138POPC   C1A53379  24.374   2.313   6.258
 4138POPC   D2A53380  24.336   2.370   6.698
 4138POPC   C3A53381  24.362   2.796   6.818
 4138POPC   C4A53382  24.404   2.895   7.227
 4138POPC   C1B53383  24.756   2.717   6.217
 4138POPC   C2B53384  24.798   2.572   6.589
 4138POPC   C3B53385  24.874   2.816   6.913
 4138POPC   C4B53386  24.814   2.604   7.253
 4139POPC   NC353387  37.264   1.404   5.686
 4139POPC   PO453388  37.804   1.020   5.413
 4139POPC   GL153389  37.731   1.221   5.774
 4139POPC   GL253390  37.459   0.964   5.835
 4139POPC   C1A53391  37.742   1.494   6.142
 4139POPC   D2A53392  37.952   1.385   6.472
 4139POPC   C3A53393  37.750   1.328   6.827
 4139POPC   C4A53394  37.909   1.194   7.200
 4139POPC   C1B53395  37.452   1.121   6.298
 4139POPC   C2B53396  37.267   1.163   6.699
 4139POPC   C3B53397  37.304   1.205   7.130
 4139POPC   C4B53398  37.469   1.573   7.172
 4140POPC   NC353399  13.363  12.242   5.426
 4140POPC   PO453400  12.663  12.170   5.420
 4140POPC   GL153401  12.823  11.965   5.825
 4140POPC   GL253402  13.191  11.979   5.847
 4140POPC   C1A53403  12.683  11.916   6.280
 4140POPC   D2A53404  12.811  11.916   6.760
 4140POPC   C3A53405  12.873  12.099   7.157
 4140POPC   C4A53406  12.638  12.364   7.392
 4140POPC   C1B53407  13.132  11.679   6.201
 4140POPC   C2B53408  13.244  11.675   6.643
 4140POPC   C3B53409  13.143  11.658   7.099
 4140POPC   C4B53410  13.308  11.948   7.424
 4141POPC   NC353411   8.029  21.635   5.514
 4141POPC   PO453412   8.507  21.159   5.418
 4141POPC   GL153413   8.461  21.490   5.755
 4141POPC   GL253414   8.186  21.281   5.840
 4141POPC   C1A53415   8.346  21.609   6.194
 4141POPC   D2A53416   8.280  21.364   6.587
 4141POPC   C3A53417   8.170  21.493   7.012
 4141POPC   C4A53418   7.785  21.701   7.126
 4141POPC   C1B53419   7.977  21.170   6.210
 4141POPC   C2B53420   7.818  21.159   6.646
 4141POPC   C3B53421   7.863  21.097   7.081
 4141POPC   C4B53422   8.018  21.163   7.487
 4142POPC   NC353423  31.298  27.174   5.367
 4142POPC   PO453424  31.957  26.902   5.441
 4142POPC   GL153425  31.733  26.893   5.844
 4142POPC   GL253426  31.356  26.845   5.802
 4142POPC   C1A53427  31.626  26.655   6.231
 4142POPC   D2A53428  31.606  26.765   6.653
 4142POPC   C3A53429  31.682  26.482   6.982
 4142POPC   C4A53430  31.658  26.804   7.290
 4142POPC   C1B53431  31.063  26.846   6.177
 4142POPC   C2B53432  31.046  26.769   6.644
 4142POPC   C3B53433  31.204  26.653   7.057
 4142POPC   C4B53434  31.204  26.771   7.497
 4143POPC   NC353435   4.612  30.079   5.430
 4143POPC   PO453436   3.937  29.944   5.258
 4143POPC   GL153437   4.186  30.063   5.686
 4143POPC   GL253438   4.400  29.748   5.769
 4143POPC   C1A53439   4.170  30.020   6.174
 4143POPC   D2A53440   3.985  29.789   6.523
 4143POPC   C3A53441   4.122  29.976   6.883
 4143POPC   C4A53442   4.252  29.891   7.271
 4143POPC   C1B53443   4.661  29.880   6.138
 4143POPC   C2B53444   4.549  30.049   6.561
 4143POPC   C3B53445   4.642  29.876   6.960
 4143POPC   C4B53446   4.695  29.651   7.298
 4144POPC   NC353447  39.827   5.863   5.561
 4144POPC   PO453448  40.305   6.282   5.438
 4144POPC   GL153449  40.194   6.067   5.849
 4144POPC   GL253450  40.254   5.677   5.795
 4144POPC   C1A53451  39.956   6.067   6.260
 4144POPC   D2A53452  39.756   6.066   6.695
 4144POPC   C3A53453  39.948   6.224   7.099
 4144POPC   C4A53454  39.802   6.303   7.545
 4144POPC   C1B53455  40.116   5.559   6.194
 4144POPC   C2B53456  40.017   5.604   6.600
 4144POPC   C3B53457  39.979   5.487   7.023
 4144POPC   C4B53458  39.780   5.783   7.279
 4145POPC   NC353459  44.875  22.636   5.430
 4145POPC   PO453460  44.446  23.129   5.358
 4145POPC   GL153461  44.552  23.045   5.763
 4145POPC   GL253462  44.865  23.124   5.780
 4145POPC   C1A53463  44.629  22.881   6.185
 4145POPC   D2A53464  44.481  23.011   6.574
 4145POPC   C3A53465  44.661  22.837   6.925
 4145POPC   C4A53466  44.470  22.981   7.279
 4145POPC   C1B53467  44.996  23.238   6.185
 4145POPC   C2B53468  44.996  23.082   6.586
 4145POPC   C3B53469  44.884  23.294   6.943
 4145POPC   C4B53470  44.901  23.271   7.345
 4146POPC   NC353471  31.978   1.787   5.441
 4146POPC   PO453472  32.543   2.165   5.235
 4146POPC   GL153473  32.292   2.121   5.667
 4146POPC   GL253474  32.221   2.380   5.896
 4146POPC   C1A53475  32.236   1.872   6.099
 4146POPC   D2A53476  32.079   1.885   6.574
 4146POPC   C3A53477  32.144   1.736   6.982
 4146POPC   C4A53478  32.101   1.897   7.372
 4146POPC   C1B53479  32.212   2.334   6.339
 4146POPC   C2B53480  32.433   2.270   6.723
 4146POPC   C3B53481  32.585   2.024   7.051
 4146POPC   C4B53482  32.439   2.275   7.393
 4147POPC   NC353483  29.347   3.127   5.292
 4147POPC   PO453484  28.995   2.582   5.462
 4147POPC   GL153485  29.072   2.649   5.880
 4147POPC   GL253486  29.200   2.987   5.778
 4147POPC   C1A53487  28.999   2.423   6.290
 4147POPC   D2A53488  29.156   2.600   6.684
 4147POPC   C3A53489  29.086   2.591   7.118
 4147POPC   C4A53490  29.092   2.905   7.460
 4147POPC   C1B53491  29.454   2.932   6.162
 4147POPC   C2B53492  29.582   2.875   6.591
 4147POPC   C3B53493  29.427   2.997   7.002
 4147POPC   C4B53494  29.604   3.116   7.373
 4148POPC   NC353495   6.942  42.509   5.198
 4148POPC   PO453496   6.534  42.192   5.646
 4148POPC   GL153497   6.398  42.531   5.903
 4148POPC   GL253498   6.650  42.353   6.138
 4148POPC   C1A53499   6.438  42.787   6.306
 4148POPC   D2A53500   6.776  42.682   6.631
 4148POPC   C3A53501   6.686  42.340   6.948
 4148POPC   C4A53502   6.723  42.447   7.363
 4148POPC   C1B53503   6.421  41.941   6.249
 4148POPC   C2B53504   6.357  41.690   6.622
 4148POPC   C3B53505   6.423  41.801   7.066
 4148POPC   C4B53506   6.305  42.133   7.365
 4149POPC   NC353507  23.629  12.773   5.461
 4149POPC   PO453508  24.001  12.361   5.788
 4149POPC   GL153509  23.758  12.733   5.964
 4149POPC   GL253510  23.773  13.095   5.820
 4149POPC   C1A53511  23.887  12.990   6.316
 4149POPC   D2A53512  24.067  13.109   6.695
 4149POPC   C3A53513  24.011  12.900   7.065
 4149POPC   C4A53514  23.745  12.770   7.398
 4149POPC   C1B53515  23.502  13.271   6.143
 4149POPC   C2B53516  23.461  13.138   6.597
 4149POPC   C3B53517  23.472  13.060   7.052
 4149POPC   C4B53518  23.242  12.887   7.409
 4150POPC   NC353519  37.990  28.627   5.352
 4150POPC   PO453520  37.341  28.622   5.394
 4150POPC   GL153521  37.636  28.481   5.727
 4150POPC   GL253522  37.900  28.221   5.790
 4150POPC   C1A53523  37.586  28.567   6.144
 4150POPC   D2A53524  37.639  28.417   6.582
 4150POPC   C3A53525  37.465  28.694   6.882
 4150POPC   C4A53526  37.485  28.584   7.294
 4150POPC   C1B53527  38.048  28.360   6.225
 4150POPC   C2B53528  38.110  28.624   6.594
 4150POPC   C3B53529  37.961  28.617   6.998
 4150POPC   C4B53530  37.921  28.326   7.335
 4151POPC   NC353531  30.451  42.739   5.313
 4151POPC   PO453532  30.701  43.409   5.346
 4151POPC   GL153533  30.749  43.204   5.735
 4151POPC   GL253534  30.445  43.026   5.741
 4151POPC   C1A53535  30.692  43.188   6.190
 4151POPC   D2A53536  30.714  43.007   6.581
 4151POPC   C3A53537  30.932  43.140   6.928
 4151POPC   C4A53538  30.718  43.186   7.294
 4151POPC   C1B53539  30.226  42.934   6.122
 4151POPC   C2B53540  30.247  42.846   6.554
 4151POPC   C3B53541  30.367  42.832   6.960
 4151POPC   C4B53542  30.396  42.816   7.361
 4152POPC   NC353543  22.032  35.092   5.463
 4152POPC   PO453544  21.628  34.590   5.312
 4152POPC   GL153545  21.350  34.629   5.688
 4152POPC   GL253546  21.560  34.372   5.875
 4152POPC   C1A53547  21.245  34.643   6.146
 4152POPC   D2A53548  21.508  34.517   6.502
 4152POPC   C3A53549  21.307  34.544   6.889
 4152POPC   C4A53550  21.305  34.853   7.190
 4152POPC   C1B53551  21.636  34.087   6.200
 4152POPC   C2B53552  21.554  34.015   6.627
 4152POPC   C3B53553  21.729  34.235   6.950
 4152POPC   C4B53554  21.603  34.428   7.294
 4153POPC   NC353555  18.870  28.206   5.393
 4153POPC   PO453556  19.259  28.762   5.290
 4153POPC   GL153557  19.260  28.538   5.697
 4153POPC   GL253558  18.907  28.479   5.846
 4153POPC   C1A53559  19.415  28.539   6.147
 4153POPC   D2A53560  19.392  28.749   6.587
 4153POPC   C3A53561  19.261  28.502   6.992
 4153POPC   C4A53562  19.262  28.070   7.222
 4153POPC   C1B53563  18.654  28.247   6.192
 4153POPC   C2B53564  18.760  28.236   6.649
 4153POPC   C3B53565  18.782  28.283   7.101
 4153POPC   C4B53566  18.831  28.076   7.511
 4154POPC   NC353567  32.549  13.474   5.284
 4154POPC   PO453568  31.956  13.865   5.459
 4154POPC   GL153569  32.188  13.510   5.682
 4154POPC   GL253570  32.421  13.727   5.779
 4154POPC   C1A53571  32.405  13.382   6.122
 4154POPC   D2A53572  32.442  13.630   6.517
 4154POPC   C3A53573  32.310  13.488   6.950
 4154POPC   C4A53574  32.006  13.460   7.282
 4154POPC   C1B53575  32.042  13.742   6.164
 4154POPC   C2B53576  32.034  13.962   6.611
 4154POPC   C3B53577  32.135  13.979   7.098
 4154POPC   C4B53578  32.105  14.119   7.569
 4155POPC   NC353579  41.423  31.009   5.559
 4155POPC   PO453580  41.725  31.381   5.096
 4155POPC   GL153581  41.664  31.505   5.606
 4155POPC   GL253582  41.333  31.505   5.798
 4155POPC   C1A53583  41.723  31.460   6.121
 4155POPC   D2A53584  41.667  31.284   6.615
 4155POPC   C3A53585  41.611  31.474   7.077
 4155POPC   C4A53586  41.346  31.530   7.467
 4155POPC   C1B53587  41.251  31.395   6.285
 4155POPC   C2B53588  41.141  31.383   6.752
 4155POPC   C3B53589  41.263  31.120   7.124
 4155POPC   C4B53590  41.258  31.033   7.583
 4156POPC   NC353591  10.046  13.155   5.663
 4156POPC   PO453592   9.475  12.795   5.621
 4156POPC   GL153593   9.778  12.654   5.952
 4156POPC   GL253594   9.950  12.318   5.971
 4156POPC   C1A53595   9.804  12.744   6.413
 4156POPC   D2A53596   9.525  12.923   6.774
 4156POPC   C3A53597   9.743  12.975   7.141
 4156POPC   C4A53598  10.105  13.240   7.122
 4156POPC   C1B53599   9.595  12.263   6.250
 4156POPC   C2B53600   9.489  12.419   6.654
 4156POPC   C3B53601   9.837  12.525   6.897
 4156POPC   C4B53602   9.985  12.452   7.300
 4157POPC   NC353603   7.087   7.250   5.138
 4157POPC   PO453604   6.485   7.549   5.375
 4157POPC   GL153605   6.609   7.493   5.738
 4157POPC   GL253606   6.963   7.561   5.644
 4157POPC   C1A53607   6.498   7.338   6.120
 4157POPC   D2A53608   6.555   7.327   6.543
 4157POPC   C3A53609   6.248   7.382   6.862
 4157POPC   C4A53610   6.487   7.397   7.226
 4157POPC   C1B53611   6.935   7.670   6.091
 4157POPC   C2B53612   7.071   7.453   6.457
 4157POPC   C3B53613   6.953   7.418   6.872
 4157POPC   C4B53614   6.914   7.679   7.206
 4158POPC   NC353615  23.314  19.329   5.463
 4158POPC   PO453616  23.951  19.092   5.374
 4158POPC   GL153617  23.712  19.104   5.755
 4158POPC   GL253618  23.908  19.329   5.919
 4158POPC   C1A53619  23.473  19.091   6.157
 4158POPC   D2A53620  23.552  18.945   6.581
 4158POPC   C3A53621  23.307  19.045   6.935
 4158POPC   C4A53622  23.555  18.757   7.166
 4158POPC   C1B53623  23.981  19.158   6.343
 4158POPC   C2B53624  24.215  18.882   6.650
 4158POPC   C3B53625  24.046  18.879   7.044
 4158POPC   C4B53626  23.751  19.227   7.137
 4159POPC   NC353627  41.110  37.196   5.605
 4159POPC   PO453628  40.647  37.506   5.191
 4159POPC   GL153629  40.691  37.474   5.677
 4159POPC   GL253630  40.406  37.447   5.869
 4159POPC   C1A53631  40.832  37.635   6.114
 4159POPC   D2A53632  40.677  37.834   6.520
 4159POPC   C3A53633  40.920  37.892   6.903
 4159POPC   C4A53634  40.982  37.717   7.317
 4159POPC   C1B53635  40.415  37.296   6.292
 4159POPC   C2B53636  40.322  37.506   6.703
 4159POPC   C3B53637  40.548  37.575   7.053
 4159POPC   C4B53638  40.474  37.536   7.512
 4160POPC   NC353639  24.906  39.573   5.495
 4160POPC   PO453640  24.304  39.748   5.426
 4160POPC   GL153641  24.369  39.981   5.823
 4160POPC   GL253642  24.052  39.931   6.012
 4160POPC   C1A53643  24.539  39.850   6.218
 4160POPC   D2A53644  24.369  39.626   6.554
 4160POPC   C3A53645  24.320  39.834   6.936
 4160POPC   C4A53646  24.651  39.986   7.201
 4160POPC   C1B53647  24.238  40.272   6.260
 4160POPC   C2B53648  24.412  40.320   6.677
 4160POPC   C3B53649  24.298  40.329   7.113
 4160POPC   C4B53650  24.154  39.998   7.397
 4161POPC   NC353651  21.777  31.443   5.394
 4161POPC   PO453652  22.419  31.310   5.448
 4161POPC   GL153653  22.332  31.390   5.864
 4161POPC   GL253654  22.124  31.634   5.857
 4161POPC   C1A53655  22.268  31.483   6.316
 4161POPC   D2A53656  22.184  31.398   6.725
 4161POPC   C3A53657  22.422  31.567   7.031
 4161POPC   C4A53658  22.399  31.557   7.478
 4161POPC   C1B53659  21.939  31.883   6.171
 4161POPC   C2B53660  21.762  31.740   6.537
 4161POPC   C3B53661  21.940  31.798   6.906
 4161POPC   C4B53662  21.965  31.522   7.231
 4162POPC   NC353663  32.264   9.398   5.387
 4162POPC   PO453664  32.613   8.834   5.613
 4162POPC   GL153665  32.399   9.181   5.878
 4162POPC   GL253666  32.049   9.241   5.825
 4162POPC   C1A53667  32.328   9.109   6.342
 4162POPC   D2A53668  32.492   8.751   6.615
 4162POPC   C3A53669  32.576   8.897   7.037
 4162POPC   C4A53670  32.381   9.288   7.102
 4162POPC   C1B53671  31.819   9.097   6.189
 4162POPC   C2B53672  31.856   9.005   6.608
 4162POPC   C3B53673  32.065   8.844   6.936
 4162POPC   C4B53674  32.122   8.913   7.338
 4163POPC   NC353675  17.418  25.464   5.452
 4163POPC   PO453676  17.135  24.824   5.402
 4163POPC   GL153677  17.289  25.068   5.749
 4163POPC   GL253678  17.605  25.162   5.827
 4163POPC   C1A53679  17.242  25.345   6.103
 4163POPC   D2A53680  17.322  25.196   6.473
 4163POPC   C3A53681  17.391  25.461   6.782
 4163POPC   C4A53682  17.245  25.338   7.158
 4163POPC   C1B53683  17.760  25.242   6.229
 4163POPC   C2B53684  17.874  25.149   6.667
 4163POPC   C3B53685  17.798  25.313   7.113
 4163POPC   C4B53686  17.909  25.543   7.505
 4164POPC   NC353687  25.713  39.553   5.365
 4164POPC   PO453688  26.171  39.079   5.497
 4164POPC   GL153689  26.027  39.145   5.911
 4164POPC   GL253690  25.707  39.272   5.799
 4164POPC   C1A53691  26.220  39.109   6.346
 4164POPC   D2A53692  26.301  39.445   6.692
 4164POPC   C3A53693  26.315  39.204   7.050
 4164POPC   C4A53694  26.091  38.796   7.136
 4164POPC   C1B53695  25.585  39.446   6.201
 4164POPC   C2B53696  25.747  39.154   6.503
 4164POPC   C3B53697  25.744  39.115   6.922
 4164POPC   C4B53698  25.884  39.441   7.185
 4165POPC   NC353699  39.491   1.771   5.361
 4165POPC   PO453700  38.851   1.631   5.505
 4165POPC   GL153701  39.102   1.906   5.778
 4165POPC   GL253702  39.443   1.905   5.874
 4165POPC   C1A53703  39.052   1.998   6.223
 4165POPC   D2A53704  38.790   2.018   6.596
 4165POPC   C3A53705  39.012   1.856   6.938
 4165POPC   C4A53706  38.912   2.009   7.288
 4165POPC   C1B53707  39.551   2.157   6.274
 4165POPC   C2B53708  39.340   2.237   6.699
 4165POPC   C3B53709  39.393   2.198   7.163
 4165POPC   C4B53710  39.650   2.187   7.563
 4166POPC   NC353711  17.826  24.011   5.207
 4166POPC   PO453712  17.707  23.426   5.437
 4166POPC   GL153713  17.442  23.605   5.734
 4166POPC   GL253714  17.667  23.519   5.959
 4166POPC   C1A53715  17.306  23.814   6.150
 4166POPC   D2A53716  17.443  23.879   6.570
 4166POPC   C3A53717  17.251  23.706   6.951
 4166POPC   C4A53718  17.376  23.666   7.417
 4166POPC   C1B53719  17.854  23.579   6.330
 4166POPC   C2B53720  17.919  23.788   6.681
 4166POPC   C3B53721  17.709  23.925   7.036
 4166POPC   C4B53722  17.869  23.674   7.354
 4167POPC   NC353723  35.182  32.056   5.496
 4167POPC   PO453724  35.415  32.694   5.341
 4167POPC   GL153725  35.513  32.452   5.752
 4167POPC   GL253726  35.628  32.773   5.860
 4167POPC   C1A53727  35.415  32.179   6.197
 4167POPC   D2A53728  35.361  32.247   6.627
 4167POPC   C3A53729  35.572  32.070   6.963
 4167POPC   C4A53730  35.604  32.216   7.371
 4167POPC   C1B53731  35.753  32.544   6.219
 4167POPC   C2B53732  35.703  32.635   6.643
 4167POPC   C3B53733  35.492  32.581   7.026
 4167POPC   C4B53734  35.519  32.772   7.413
 4168POPC   NC353735  18.027  20.034   5.624
 4168POPC   PO453736  18.537  19.638   5.337
 4168POPC   GL153737  18.456  19.720   5.751
 4168POPC   GL253738  18.613  20.015   5.910
 4168POPC   C1A53739  18.487  19.535   6.161
 4168POPC   D2A53740  18.472  19.716   6.586
 4168POPC   C3A53741  18.018  19.683   6.760
 4168POPC   C4A53742  17.865  19.604   7.205
 4168POPC   C1B53743  18.287  20.106   6.209
 4168POPC   C2B53744  18.165  20.146   6.603
 4168POPC   C3B53745  18.436  20.091   6.925
 4168POPC   C4B53746  18.357  19.725   7.124
 4169POPC   NC353747  34.836  17.259   5.602
 4169POPC   PO453748  34.503  17.853   5.492
 4169POPC   GL153749  34.350  17.677   5.872
 4169POPC   GL253750  34.153  17.397   5.739
 4169POPC   C1A53751  34.551  17.674   6.270
 4169POPC   D2A53752  34.754  17.488   6.623
 4169POPC   C3A53753  34.574  17.564   7.019
 4169POPC   C4A53754  34.881  17.715   7.332
 4169POPC   C1B53755  34.098  17.306   6.153
 4169POPC   C2B53756  34.225  17.391   6.553
 4169POPC   C3B53757  34.128  17.267   6.944
 4169POPC   C4B53758  33.934  17.349   7.326
 4170POPC   NC353759  27.633  35.875   5.297
 4170POPC   PO453760  27.413  36.402   5.670
 4170POPC   GL153761  27.258  36.204   6.058
 4170POPC   GL253762  27.162  35.850   6.103
 4170POPC   C1A53763  27.421  36.073   6.477
 4170POPC   D2A53764  27.739  35.997   6.804
 4170POPC   C3A53765  27.626  36.251   7.150
 4170POPC   C4A53766  27.584  36.172   7.624
 4170POPC   C1B53767  27.118  35.623   6.505
 4170POPC   C2B53768  27.227  35.815   6.890
 4170POPC   C3B53769  27.205  36.007   7.295
 4170POPC   C4B53770  27.274  35.773   7.701
 4171POPC   NC353771  29.451  15.032   5.387
 4171POPC   PO453772  29.196  15.640   5.262
 4171POPC   GL153773  29.163  15.443   5.716
 4171POPC   GL253774  29.205  15.072   5.831
 4171POPC   C1A53775  29.279  15.406   6.196
 4171POPC   D2A53776  29.301  15.053   6.523
 4171POPC   C3A53777  29.202  15.143   6.970
 4171POPC   C4A53778  29.320  15.257   7.391
 4171POPC   C1B53779  28.937  14.867   6.152
 4171POPC   C2B53780  28.932  14.655   6.555
 4171POPC   C3B53781  28.822  14.790   6.962
 4171POPC   C4B53782  28.868  14.971   7.389
 4172POPC   NC353783  39.141  26.193   5.480
 4172POPC   PO453784  39.216  26.934   5.404
 4172POPC   GL153785  39.247  26.787   5.846
 4172POPC   GL253786  39.414  26.483   5.834
 4172POPC   C1A53787  39.092  26.664   6.294
 4172POPC   D2A53788  39.185  26.476   6.714
 4172POPC   C3A53789  39.121  26.622   7.157
 4172POPC   C4A53790  38.792  26.875   7.325
 4172POPC   C1B53791  39.593  26.672   6.227
 4172POPC   C2B53792  39.691  26.470   6.630
 4172POPC   C3B53793  39.550  26.351   7.073
 4172POPC   C4B53794  39.412  26.396   7.547
 4173POPC   NC353795  26.490  16.707   5.381
 4173POPC   PO453796  25.806  16.566   5.432
 4173POPC   GL153797  25.875  16.918   5.729
 4173POPC   GL253798  26.227  17.072   5.710
 4173POPC   C1A53799  25.914  16.826   6.180
 4173POPC   D2A53800  26.117  16.499   6.450
 4173POPC   C3A53801  26.029  16.538   6.888
 4173POPC   C4A53802  26.218  16.443   7.312
 4173POPC   C1B53803  26.399  17.023   6.143
 4173POPC   C2B53804  26.218  17.000   6.565
 4173POPC   C3B53805  26.339  16.964   7.001
 4173POPC   C4B53806  25.968  16.896   7.266
 4174POPC   NC353807  41.708  13.147   5.399
 4174POPC   PO453808  41.163  12.709   5.400
 4174POPC   GL153809  41.362  12.880   5.715
 4174POPC   GL253810  41.629  12.645   5.717
 4174POPC   C1A53811  41.261  12.970   6.125
 4174POPC   D2A53812  41.391  12.756   6.475
 4174POPC   C3A53813  41.806  12.871   6.625
 4174POPC   C4A53814  41.803  12.998   7.062
 4174POPC   C1B53815  41.788  12.551   6.142
 4174POPC   C2B53816  41.708  12.344   6.536
 4174POPC   C3B53817  41.531  12.523   6.908
 4174POPC   C4B53818  41.817  12.512   7.210
 4175POPC   NC353819  27.494  32.524   5.450
 4175POPC   PO453820  27.881  32.058   5.622
 4175POPC   GL153821  27.974  32.408   5.897
 4175POPC   GL253822  27.629  32.457   5.947
 4175POPC   C1A53823  27.906  32.464   6.365
 4175POPC   D2A53824  27.813  32.209   6.768
 4175POPC   C3A53825  28.001  32.329   7.184
 4175POPC   C4A53826  27.808  32.352   7.617
 4175POPC   C1B53827  27.466  32.216   6.294
 4175POPC   C2B53828  27.173  32.157   6.632
 4175POPC   C3B53829  27.140  32.119   7.062
 4175POPC   C4B53830  27.318  32.354   7.366
 4176POPC   NC353831  28.222  12.864   5.461
 4176POPC   PO453832  28.660  12.487   5.451
 4176POPC   GL153833  28.574  12.742   5.817
 4176POPC   GL253834  28.412  13.069   5.885
 4176POPC   C1A53835  28.533  12.691   6.257
 4176POPC   D2A53836  28.492  12.894   6.645
 4176POPC   C3A53837  28.486  12.571   6.949
 4176POPC   C4A53838  28.706  12.398   7.281
 4176POPC   C1B53839  28.123  13.010   6.263
 4176POPC   C2B53840  28.081  13.181   6.681
 4176POPC   C3B53841  28.246  13.030   7.088
 4176POPC   C4B53842  28.163  13.207   7.472
 4177POPC   NC353843   9.442  11.059   5.510
 4177POPC   PO453844  10.002  11.379   5.397
 4177POPC   GL153845   9.973  11.347   5.824
 4177POPC   GL253846   9.626  11.389   5.860
 4177POPC   C1A53847  10.114  11.322   6.253
 4177POPC   D2A53848  10.050  11.504   6.675
 4177POPC   C3A53849   9.834  11.144   6.889
 4177POPC   C4A53850   9.516  10.907   7.119
 4177POPC   C1B53851   9.607  11.233   6.258
 4177POPC   C2B53852   9.527  11.432   6.611
 4177POPC   C3B53853   9.580  11.569   7.029
 4177POPC   C4B53854   9.500  11.757   7.415
 4178POPC   NC353855   0.065  26.183   5.306
 4178POPC   PO453856   0.654  26.379   5.374
 4178POPC   GL153857   0.674  26.099   5.727
 4178POPC   GL253858   0.317  25.992   5.735
 4178POPC   C1A53859   0.636  25.958   6.163
 4178POPC   D2A53860   0.440  26.078   6.540
 4178POPC   C3A53861   0.503  25.803   6.877
 4178POPC   C4A53862   0.427  25.988   7.265
 4178POPC   C1B53863   0.098  25.960   6.137
 4178POPC   C2B53864  44.917  26.157   6.492
 4178POPC   C3B53865   0.063  26.139   6.914
 4178POPC   C4B53866  44.930  26.112   7.352
 4179POPC   NC353867  16.245   2.522   5.462
 4179POPC   PO453868  15.679   2.546   5.180
 4179POPC   GL153869  15.796   2.613   5.681
 4179POPC   GL253870  16.021   2.353   5.882
 4179POPC   C1A53871  15.936   2.784   6.128
 4179POPC   D2A53872  16.047   2.720   6.587
 4179POPC   C3A53873  15.835   2.809   6.991
 4179POPC   C4A53874  15.705   2.715   7.415
 4179POPC   C1B53875  15.852   2.295   6.315
 4179POPC   C2B53876  15.811   2.306   6.775
 4179POPC   C3B53877  16.049   2.347   7.154
 4179POPC   C4B53878  16.002   2.126   7.563
 4180POPC   NC353879  40.091  12.389   5.436
 4180POPC   PO453880  40.039  11.719   5.412
 4180POPC   GL153881  39.997  12.002   5.755
 4180POPC   GL253882  39.661  12.159   5.693
 4180POPC   C1A53883  40.194  12.047   6.157
 4180POPC   D2A53884  40.103  12.202   6.580
 4180POPC   C3A53885  40.223  11.980   6.923
 4180POPC   C4A53886  40.057  12.111   7.276
 4180POPC   C1B53887  39.691  12.160   6.134
 4180POPC   C2B53888  39.807  11.824   6.423
 4180POPC   C3B53889  39.714  11.928   6.835
 4180POPC   C4B53890  39.541  12.050   7.236
 4181POPC   NC353891  29.194  29.362   5.333
 4181POPC   PO453892  28.932  28.755   5.510
 4181POPC   GL153893  29.027  29.159   5.769
 4181POPC   GL253894  29.374  29.277   5.816
 4181POPC   C1A53895  28.866  29.414   6.123
 4181POPC   D2A53896  28.812  29.183   6.520
 4181POPC   C3A53897  28.726  29.332   6.928
 4181POPC   C4A53898  28.932  29.363   7.308
 4181POPC   C1B53899  29.331  29.215   6.282
 4181POPC   C2B53900  29.306  29.234   6.752
 4181POPC   C3B53901  29.379  29.105   7.191
 4181POPC   C4B53902  29.365  29.310   7.596
 4182POPC   NC353903  10.097  18.324   5.227
 4182POPC   PO453904  10.745  18.098   5.203
 4182POPC   GL153905  10.692  18.169   5.675
 4182POPC   GL253906  10.332  18.197   5.762
 4182POPC   C1A53907  10.645  18.064   6.139
 4182POPC   D2A53908  10.627  18.309   6.530
 4182POPC   C3A53909  10.593  18.045   6.890
 4182POPC   C4A53910  10.774  17.981   7.285
 4182POPC   C1B53911  10.201  18.350   6.208
 4182POPC   C2B53912  10.125  18.411   6.661
 4182POPC   C3B53913  10.402  18.509   6.996
 4182POPC   C4B53914  10.356  18.271   7.329
 4183POPC   NC353915  11.186  36.616   5.082
 4183POPC   PO453916  11.771  36.848   5.252
 4183POPC   GL153917  11.425  36.986   5.660
 4183POPC   GL253918  11.335  37.291   5.815
 4183POPC   C1A53919  11.244  36.886   6.138
 4183POPC   D2A53920  11.278  36.631   6.513
 4183POPC   C3A53921  11.113  36.915   6.808
 4183POPC   C4A53922  10.940  36.915   7.222
 4183POPC   C1B53923  11.656  37.135   6.127
 4183POPC   C2B53924  11.558  37.089   6.571
 4183POPC   C3B53925  11.617  37.093   7.033
 4183POPC   C4B53926  11.434  37.226   7.437
 4184POPC   NC353927   4.564  10.373   5.351
 4184POPC   PO453928   3.990  10.380   5.608
 4184POPC   GL153929   4.309  10.495   5.808
 4184POPC   GL253930   4.387  10.170   5.848
 4184POPC   C1A53931   4.365  10.671   6.192
 4184POPC   D2A53932   4.609  10.753   6.542
 4184POPC   C3A53933   4.355  10.718   6.928
 4184POPC   C4A53934   4.429  10.441   7.247
 4184POPC   C1B53935   4.239  10.158   6.235
 4184POPC   C2B53936   4.135  10.401   6.581
 4184POPC   C3B53937   3.994  10.332   6.974
 4184POPC   C4B53938   4.040  10.142   7.338
 4185POPC   NC353939  22.464  16.906   5.174
 4185POPC   PO453940  21.770  16.933   5.240
 4185POPC   GL153941  21.986  16.726   5.643
 4185POPC   GL253942  22.345  16.830   5.677
 4185POPC   C1A53943  22.086  16.673   6.116
 4185POPC   D2A53944  21.967  16.717   6.559
 4185POPC   C3A53945  22.180  16.638   6.942
 4185POPC   C4A53946  21.947  16.787   7.275
 4185POPC   C1B53947  22.490  17.035   6.041
 4185POPC   C2B53948  22.487  16.900   6.470
 4185POPC   C3B53949  22.434  17.067   6.879
 4185POPC   C4B53950  22.425  16.974   7.309
 4186POPC   NC353951  24.815  25.064   5.672
 4186POPC   PO453952  25.234  25.607   5.328
 4186POPC   GL153953  25.242  25.350   5.759
 4186POPC   GL253954  25.285  24.986   5.866
 4186POPC   C1A53955  25.427  25.354   6.193
 4186POPC   D2A53956  25.615  25.550   6.562
 4186POPC   C3A53957  25.578  25.337   6.961
 4186POPC   C4A53958  25.284  25.369   7.281
 4186POPC   C1B53959  25.103  24.944   6.317
 4186POPC   C2B53960  24.929  24.919   6.760
 4186POPC   C3B53961  25.044  24.895   7.220
 4186POPC   C4B53962  25.463  24.931   7.501
 4187POPC   NC353963  22.532  37.565   5.643
 4187POPC   PO453964  22.149  38.019   5.351
 4187POPC   GL153965  22.012  37.966   5.789
 4187POPC   GL253966  21.973  37.611   5.797
 4187POPC   C1A53967  22.051  37.915   6.267
 4187POPC   D2A53968  21.908  37.824   6.717
 4187POPC   C3A53969  22.238  37.842   7.038
 4187POPC   C4A53970  22.576  37.582   7.202
 4187POPC   C1B53971  21.880  37.334   6.118
 4187POPC   C2B53972  22.000  37.363   6.525
 4187POPC   C3B53973  22.192  37.343   6.935
 4187POPC   C4B53974  22.055  37.461   7.356
 4188POPC   NC353975  41.126  23.847   5.422
 4188POPC   PO453976  40.578  23.466   5.363
 4188POPC   GL153977  40.601  23.569   5.811
 4188POPC   GL253978  40.944  23.524   5.838
 4188POPC   C1A53979  40.758  23.816   6.205
 4188POPC   D2A53980  40.944  23.743   6.654
 4188POPC   C3A53981  40.696  23.847   7.015
 4188POPC   C4A53982  40.882  23.909   7.385
 4188POPC   C1B53983  40.987  23.373   6.278
 4188POPC   C2B53984  40.701  23.306   6.658
 4188POPC   C3B53985  40.842  23.360   7.077
 4188POPC   C4B53986  41.101  23.446   7.439
 4189POPC   NC353987  18.081  19.613   5.285
 4189POPC   PO453988  18.323  19.007   5.463
 4189POPC   GL153989  18.171  19.046   5.843
 4189POPC   GL253990  17.981  18.713   5.843
 4189POPC   C1A53991  18.101  19.098   6.255
 4189POPC   D2A53992  18.335  19.229   6.597
 4189POPC   C3A53993  18.102  19.217   6.954
 4189POPC   C4A53994  18.303  19.230   7.303
 4189POPC   C1B53995  18.368  18.656   6.093
 4189POPC   C2B53996  18.368  18.728   6.528
 4189POPC   C3B53997  18.343  18.755   6.981
 4189POPC   C4B53998  17.982  18.801   7.251
 4190POPC   NC353999  32.971  41.278   5.271
 4190POPC   PO454000  33.426  41.700   5.484
 4190POPC   GL154001  33.079  41.477   5.720
 4190POPC   GL254002  33.307  41.250   5.830
 4190POPC   C1A54003  32.863  41.245   6.088
 4190POPC   D2A54004  32.639  41.418   6.457
 4190POPC   C3A54005  32.742  41.378   6.911
 4190POPC   C4A54006  33.055  41.284   7.245
 4190POPC   C1B54007  33.224  41.585   6.184
 4190POPC   C2B54008  33.130  41.560   6.620
 4190POPC   C3B54009  33.412  41.566   6.983
 4190POPC   C4B54010  33.604  41.238   7.279
 4191POPC   NC354011  29.535   6.053   5.754
 4191POPC   PO454012  29.624   5.735   5.221
 4191POPC   GL154013  29.962   5.835   5.608
 4191POPC   GL254014  30.050   6.187   5.701
 4191POPC   C1A54015  30.016   5.757   6.108
 4191POPC   D2A54016  30.063   5.929   6.546
 4191POPC   C3A54017  29.767   5.933   6.908
 4191POPC   C4A54018  29.808   5.996   7.357
 4191POPC   C1B54019  30.141   6.277   6.149
 4191POPC   C2B54020  30.153   6.424   6.611
 4191POPC   C3B54021  30.160   6.237   7.034
 4191POPC   C4B54022  30.267   6.202   7.489
 4192POPC   NC354023  21.838   6.592   5.090
 4192POPC   PO454024  21.247   6.845   5.296
 4192POPC   GL154025  21.374   6.575   5.657
 4192POPC   GL254026  21.105   6.351   5.772
 4192POPC   C1A54027  21.378   6.614   6.120
 4192POPC   D2A54028  21.474   6.425   6.517
 4192POPC   C3A54029  21.433   6.588   6.917
 4192POPC   C4A54030  21.588   6.423   7.301
 4192POPC   C1B54031  21.121   6.160   6.198
 4192POPC   C2B54032  21.018   6.218   6.629
 4192POPC   C3B54033  21.098   6.187   7.045
 4192POPC   C4B54034  21.019   6.520   7.283
 4193POPC   NC354035   4.719  32.900   5.356
 4193POPC   PO454036   4.286  33.371   5.463
 4193POPC   GL154037   4.258  33.190   5.823
 4193POPC   GL254038   4.384  32.815   5.773
 4193POPC   C1A54039   4.179  33.370   6.225
 4193POPC   D2A54040   4.067  33.213   6.619
 4193POPC   C3A54041   4.258  33.374   7.002
 4193POPC   C4A54042   4.199  33.302   7.427
 4193POPC   C1B54043   4.440  32.930   6.210
 4193POPC   C2B54044   4.359  32.799   6.620
 4193POPC   C3B54045   4.548  32.954   6.985
 4193POPC   C4B54046   4.525  32.915   7.409
 4194POPC   NC354047   7.707  23.669   5.476
 4194POPC   PO454048   7.557  24.349   5.674
 4194POPC   GL154049   7.539  24.042   5.980
 4194POPC   GL254050   7.365  23.719   5.958
 4194POPC   C1A54051   7.466  24.044   6.412
 4194POPC   D2A54052   7.215  23.765   6.615
 4194POPC   C3A54053   7.218  23.633   7.036
 4194POPC   C4A54054   7.169  24.033   7.201
 4194POPC   C1B54055   7.614  23.556   6.333
 4194POPC   C2B54056   7.704  23.630   6.768
 4194POPC   C3B54057   7.662  23.868   7.150
 4194POPC   C4B54058   7.447  23.683   7.520
 4195POPC   NC354059  10.507  12.450   5.393
 4195POPC   PO454060  10.459  13.121   5.422
 4195POPC   GL154061  10.729  12.901   5.753
 4195POPC   GL254062  10.917  12.562   5.755
 4195POPC   C1A54063  10.812  12.902   6.195
 4195POPC   D2A54064  10.867  12.596   6.525
 4195POPC   C3A54065  10.738  12.884   6.830
 4195POPC   C4A54066  10.571  13.046   7.218
 4195POPC   C1B54067  10.571  12.477   6.077
 4195POPC   C2B54068  10.337  12.598   6.501
 4195POPC   C3B54069  10.346  12.617   6.980
 4195POPC   C4B54070  10.754  12.560   7.238
 4196POPC   NC354071  33.931  28.647   4.920
 4196POPC   PO454072  33.518  28.265   5.353
 4196POPC   GL154073  33.696  28.294   5.788
 4196POPC   GL254074  34.018  28.140   5.775
 4196POPC   C1A54075  33.725  28.522   6.206
 4196POPC   D2A54076  33.507  28.657   6.605
 4196POPC   C3A54077  33.497  28.388   6.933
 4196POPC   C4A54078  33.774  28.420   7.288
 4196POPC   C1B54079  34.052  28.097   6.222
 4196POPC   C2B54080  33.890  28.251   6.624
 4196POPC   C3B54081  34.117  28.223   6.989
 4196POPC   C4B54082  34.200  28.036   7.399
 4197POPC   NC354083  34.902   5.771   5.437
 4197POPC   PO454084  34.382   5.464   5.268
 4197POPC   GL154085  34.440   5.644   5.706
 4197POPC   GL254086  34.117   5.798   5.808
 4197POPC   C1A54087  34.552   5.790   6.160
 4197POPC   D2A54088  34.636   5.713   6.649
 4197POPC   C3A54089  34.839   6.074   6.927
 4197POPC   C4A54090  34.951   6.108   7.385
 4197POPC   C1B54091  34.109   6.076   6.166
 4197POPC   C2B54092  34.335   6.117   6.553
 4197POPC   C3B54093  34.346   6.029   6.981
 4197POPC   C4B54094  34.433   6.166   7.403
 4198POPC   NC354095  14.356  15.271   5.394
 4198POPC   PO454096  13.828  15.580   5.626
 4198POPC   GL154097  14.155  15.272   5.876
 4198POPC   GL254098  14.502  15.092   5.832
 4198POPC   C1A54099  14.214  14.918   6.222
 4198POPC   D2A54100  14.145  14.876   6.685
 4198POPC   C3A54101  14.073  15.272   6.979
 4198POPC   C4A54102  14.171  15.522   7.363
 4198POPC   C1B54103  14.601  15.273   6.221
 4198POPC   C2B54104  14.458  15.273   6.619
 4198POPC   C3B54105  14.524  14.998   6.978
 4198POPC   C4B54106  14.658  15.210   7.290
 4199POPC   NC354107   7.064  41.650   5.380
 4199POPC   PO454108   7.726  41.670   5.330
 4199POPC   GL154109   7.478  41.545   5.688
 4199POPC   GL254110   7.286  41.214   5.657
 4199POPC   C1A54111   7.448  41.762   6.079
 4199POPC   D2A54112   7.361  41.688   6.519
 4199POPC   C3A54113   7.691  41.623   6.847
 4199POPC   C4A54114   7.522  41.816   7.213
 4199POPC   C1B54115   7.228  41.320   6.116
 4199POPC   C2B54116   7.273  41.177   6.564
 4199POPC   C3B54117   7.423  41.197   6.964
 4199POPC   C4B54118   7.210  41.416   7.282
 4200POPC   NC354119   3.025  15.143   5.487
 4200POPC   PO454120   2.488  15.540   5.407
 4200POPC   GL154121   2.813  15.495   5.786
 4200POPC   GL254122   3.174  15.422   5.885
 4200POPC   C1A54123   2.794  15.420   6.231
 4200POPC   D2A54124   2.667  15.375   6.658
 4200POPC   C3A54125   2.884  15.481   7.013
 4200POPC   C4A54126   2.804  15.250   7.350
 4200POPC   C1B54127   3.276  15.082   6.138
 4200POPC   C2B54128   3.082  15.105   6.534
 4200POPC   C3B54129   3.129  15.028   6.958
 4200POPC   C4B54130   3.152  14.871   7.395
 4201POPC   NC354131   5.403  42.218   5.079
 4201POPC   PO454132   5.103  42.577   5.528
 4201POPC   GL154133   4.969  42.419   5.875
 4201POPC   GL254134   4.738  42.169   5.791
 4201POPC   C1A54135   5.081  42.541   6.280
 4201POPC   D2A54136   4.885  42.646   6.637
 4201POPC   C3A54137   5.081  42.518   6.945
 4201POPC   C4A54138   5.246  42.673   7.309
 4201POPC   C1B54139   4.928  42.047   6.204
 4201POPC   C2B54140   4.841  42.116   6.624
 4201POPC   C3B54141   4.966  41.990   7.030
 4201POPC   C4B54142   5.310  42.177   7.235
 4202POPC   NC354143   2.367   6.766   5.236
 4202POPC   PO454144   1.695   6.632   5.347
 4202POPC   GL154145   1.968   6.598   5.746
 4202POPC   GL254146   2.301   6.513   5.713
 4202POPC   C1A54147   1.878   6.532   6.183
 4202POPC   D2A54148   1.705   6.249   6.494
 4202POPC   C3A54149   1.717   6.505   6.854
 4202POPC   C4A54150   1.857   6.728   7.207
 4202POPC   C1B54151   2.402   6.469   6.163
 4202POPC   C2B54152   2.202   6.441   6.586
 4202POPC   C3B54153   2.316   6.492   7.023
 4202POPC   C4B54154   2.440   6.425   7.454
 4203POPC   NC354155  15.759   1.718   5.327
 4203POPC   PO454156  16.355   2.083   5.593
 4203POPC   GL154157  16.181   1.846   5.853
 4203POPC   GL254158  15.845   1.880   5.797
 4203POPC   C1A54159  16.072   1.844   6.269
 4203POPC   D2A54160  15.796   1.790   6.619
 4203POPC   C3A54161  15.903   1.867   7.048
 4203POPC   C4A54162  16.040   1.511   7.262
 4203POPC   C1B54163  15.588   1.692   6.128
 4203POPC   C2B54164  15.305   1.800   6.489
 4203POPC   C3B54165  15.399   2.017   6.888
 4203POPC   C4B54166  15.570   2.204   7.280
 4204POPC   NC354167   1.519  20.594   5.374
 4204POPC   PO454168   0.967  20.245   5.445
 4204POPC   GL154169   1.144  20.533   5.741
 4204POPC   GL254170   1.431  20.350   5.843
 4204POPC   C1A54171   1.033  20.555   6.179
 4204POPC   D2A54172   1.081  20.775   6.568
 4204POPC   C3A54173   1.251  20.556   6.926
 4204POPC   C4A54174   1.490  20.816   7.194
 4204POPC   C1B54175   1.507  20.704   6.146
 4204POPC   C2B54176   1.594  20.518   6.552
 4204POPC   C3B54177   1.804  20.510   6.961
 4204POPC   C4B54178   1.801  20.504   7.463
 4205POPC   NC354179  14.756  11.508   5.487
 4205POPC   PO454180  14.438  12.112   5.375
 4205POPC   GL154181  14.282  12.121   5.817
 4205POPC   GL254182  14.251  11.739   5.855
 4205POPC   C1A54183  14.462  12.207   6.234
 4205POPC   D2A54184  14.615  12.381   6.620
 4205POPC   C3A54185  14.606  12.085   6.968
 4205POPC   C4A54186  14.624  12.286   7.317
 4205POPC   C1B54187  14.112  11.827   6.249
 4205POPC   C2B54188  14.255  11.924   6.640
 4205POPC   C3B54189  14.098  12.019   7.036
 4205POPC   C4B54190  14.218  11.979   7.442
 4206POPC   NC354191  29.321  11.453   5.462
 4206POPC   PO454192  28.636  11.488   5.404
 4206POPC   GL154193  28.896  11.170   5.732
 4206POPC   GL254194  29.304  11.076   5.825
 4206POPC   C1A54195  28.984  11.183   6.193
 4206POPC   D2A54196  29.026  11.390   6.561
 4206POPC   C3A54197  29.037  11.101   6.899
 4206POPC   C4A54198  29.259  10.939   7.275
 4206POPC   C1B54199  29.487  11.316   6.248
 4206POPC   C2B54200  29.516  11.384   6.734
 4206POPC   C3B54201  29.286  11.455   7.167
 4206POPC   C4B54202  29.348  11.713   7.566
 4207POPC   NC354203  29.121  33.439   5.387
 4207POPC   PO454204  29.310  34.131   5.386
 4207POPC   GL154205  29.311  33.920   5.789
 4207POPC   GL254206  28.954  33.860   5.784
 4207POPC   C1A54207  29.187  33.710   6.196
 4207POPC   D2A54208  29.036  33.552   6.604
 4207POPC   C3A54209  29.312  33.639   6.932
 4207POPC   C4A54210  29.173  33.578   7.316
 4207POPC   C1B54211  28.800  34.061   6.177
 4207POPC   C2B54212  28.687  33.932   6.603
 4207POPC   C3B54213  28.850  33.889   7.010
 4207POPC   C4B54214  28.760  34.083   7.449
 4208POPC   NC354215   7.536  25.794   5.409
 4208POPC   PO454216   6.986  26.258   5.488
 4208POPC   GL154217   7.341  26.181   5.780
 4208POPC   GL254218   7.420  25.876   5.898
 4208POPC   C1A54219   7.543  26.338   6.160
 4208POPC   D2A54220   7.377  26.322   6.573
 4208POPC   C3A54221   7.572  26.454   6.965
 4208POPC   C4A54222   7.440  26.309   7.406
 4208POPC   C1B54223   7.224  25.694   6.251
 4208POPC   C2B54224   7.306  25.828   6.679
 4208POPC   C3B54225   7.529  25.947   7.050
 4208POPC   C4B54226   7.321  25.809   7.401
 4209POPC   NC354227   5.589  35.451   5.444
 4209POPC   PO454228   6.069  35.152   5.349
 4209POPC   GL154229   5.975  35.396   5.801
 4209POPC   GL254230   5.674  35.617   5.904
 4209POPC   C1A54231   5.941  35.352   6.276
 4209POPC   D2A54232   5.994  35.245   6.732
 4209POPC   C3A54233   5.966  35.537   7.081
 4209POPC   C4A54234   5.960  35.526   7.546
 4209POPC   C1B54235   5.418  35.419   6.190
 4209POPC   C2B54236   5.544  35.492   6.599
 4209POPC   C3B54237   5.508  35.239   6.936
 4209POPC   C4B54238   5.691  35.159   7.307
 4210POPC   NC354239   9.283  32.895   5.424
 4210POPC   PO454240   8.632  32.799   5.419
 4210POPC   GL154241   8.893  33.053   5.707
 4210POPC   GL254242   8.795  33.386   5.800
 4210POPC   C1A54243   9.117  32.964   6.104
 4210POPC   D2A54244   8.980  33.049   6.527
 4210POPC   C3A54245   9.157  32.938   6.908
 4210POPC   C4A54246   8.925  33.043   7.285
 4210POPC   C1B54247   8.973  33.447   6.209
 4210POPC   C2B54248   8.982  33.570   6.625
 4210POPC   C3B54249   8.752  33.361   6.938
 4210POPC   C4B54250   8.496  33.377   7.305
 4211POPC   NC354251  43.012  26.976   5.433
 4211POPC   PO454252  43.655  26.744   5.365
 4211POPC   GL154253  43.384  26.548   5.745
 4211POPC   GL254254  43.041  26.573   5.768
 4211POPC   C1A54255  43.300  26.454   6.184
 4211POPC   D2A54256  43.133  26.671   6.520
 4211POPC   C3A54257  43.243  26.633   6.940
 4211POPC   C4A54258  43.125  26.939   7.184
 4211POPC   C1B54259  42.877  26.864   6.075
 4211POPC   C2B54260  42.711  26.938   6.470
 4211POPC   C3B54261  42.752  26.824   6.873
 4211POPC   C4B54262  42.718  26.662   7.301
 4212POPC   NC354263  17.439  44.357   5.575
 4212POPC   PO454264  17.549  43.702   5.336
 4212POPC   GL154265  17.617  43.915   5.741
 4212POPC   GL254266  17.891  44.218   5.749
 4212POPC   C1A54267  17.417  43.971   6.150
 4212POPC   D2A54268  17.447  43.747   6.527
 4212POPC   C3A54269  17.317  43.954   6.875
 4212POPC   C4A54270  17.330  44.121   7.280
 4212POPC   C1B54271  17.838  44.275   6.211
 4212POPC   C2B54272  17.657  44.242   6.644
 4212POPC   C3B54273  17.773  44.023   7.069
 4212POPC   C4B54274  17.788  44.143   7.553
 4213POPC   NC354275  16.362  30.920   5.489
 4213POPC   PO454276  17.014  30.726   5.440
 4213POPC   GL154277  16.925  30.489   5.847
 4213POPC   GL254278  16.558  30.572   5.838
 4213POPC   C1A54279  16.961  30.527   6.323
 4213POPC   D2A54280  17.078  30.807   6.698
 4213POPC   C3A54281  16.901  30.741   7.137
 4213POPC   C4A54282  16.631  31.050   7.361
 4213POPC   C1B54283  16.475  30.718   6.273
 4213POPC   C2B54284  16.589  30.690   6.718
 4213POPC   C3B54285  16.370  30.706   7.107
 4213POPC   C4B54286  16.467  30.574   7.526
 4214POPC   NC354287  43.230  10.804   5.494
 4214POPC   PO454288  43.097  10.193   5.280
 4214POPC   GL154289  43.174  10.374   5.765
 4214POPC   GL254290  43.442  10.244   5.961
 4214POPC   C1A54291  43.044  10.516   6.220
 4214POPC   D2A54292  43.135  10.340   6.648
 4214POPC   C3A54293  42.953  10.497   7.062
 4214POPC   C4A54294  42.901  10.580   7.502
 4214POPC   C1B54295  43.552  10.590   6.203
 4214POPC   C2B54296  43.541  10.688   6.618
 4214POPC   C3B54297  43.432  10.589   7.005
 4214POPC   C4B54298  43.374  10.332   7.311
 4215POPC   NC354299  14.688  37.546   5.535
 4215POPC   PO454300  14.043  37.871   5.381
 4215POPC   GL154301  14.061  37.675   5.775
 4215POPC   GL254302  14.368  37.780   5.841
 4215POPC   C1A54303  14.153  37.535   6.218
 4215POPC   D2A54304  14.388  37.590   6.597
 4215POPC   C3A54305  14.168  37.491   6.991
 4215POPC   C4A54306  14.188  37.531   7.461
 4215POPC   C1B54307  14.048  38.032   6.115
 4215POPC   C2B54308  13.964  37.947   6.540
 4215POPC   C3B54309  14.207  38.023   6.905
 4215POPC   C4B54310  14.489  37.837   7.212
 4216POPC   NC354311  34.446  14.840   5.307
 4216POPC   PO454312  34.571  14.207   5.388
 4216POPC   GL154313  34.512  14.521   5.735
 4216POPC   GL254314  34.161  14.645   5.797
 4216POPC   C1A54315  34.495  14.415   6.184
 4216POPC   D2A54316  34.584  14.111   6.495
 4216POPC   C3A54317  34.490  14.272   6.884
 4216POPC   C4A54318  34.665  14.352   7.270
 4216POPC   C1B54319  34.232  14.860   6.202
 4216POPC   C2B54320  34.420  14.735   6.609
 4216POPC   C3B54321  34.362  14.750   7.082
 4216POPC   C4B54322  34.402  14.694   7.556
 4217POPC   NC354323  38.621  10.611   5.253
 4217POPC   PO454324  38.206  10.066   5.379
 4217POPC   GL154325  38.366  10.252   5.753
 4217POPC   GL254326  38.655  10.488   5.739
 4217POPC   C1A54327  38.379  10.434   6.184
 4217POPC   D2A54328  38.441  10.286   6.597
 4217POPC   C3A54329  38.502  10.538   6.945
 4217POPC   C4A54330  38.314  10.479   7.337
 4217POPC   C1B54331  38.819  10.167   5.982
 4217POPC   C2B54332  38.918  10.175   6.394
 4217POPC   C3B54333  38.916  10.199   6.837
 4217POPC   C4B54334  38.712  10.164   7.209
 4218POPC   NC354335  16.518  16.189   5.684
 4218POPC   PO454336  17.170  16.176   5.598
 4218POPC   GL154337  16.939  15.953   5.924
 4218POPC   GL254338  16.759  15.728   5.681
 4218POPC   C1A54339  16.703  16.063   6.317
 4218POPC   D2A54340  16.418  16.362   6.492
 4218POPC   C3A54341  16.285  16.382   6.932
 4218POPC   C4A54342  16.509  16.202   7.280
 4218POPC   C1B54343  16.438  15.653   6.024
 4218POPC   C2B54344  16.335  15.724   6.441
 4218POPC   C3B54345  16.530  15.927   6.809
 4218POPC   C4B54346  16.574  15.685   7.192
 4219POPC   NC354347  29.341   8.425   5.372
 4219POPC   PO454348  28.755   8.060   5.470
 4219POPC   GL154349  29.030   8.278   5.760
 4219POPC   GL254350  29.326   8.029   5.731
 4219POPC   C1A54351  29.111   8.349   6.200
 4219POPC   D2A54352  29.128   8.092   6.588
 4219POPC   C3A54353  29.222   8.213   7.015
 4219POPC   C4A54354  28.912   8.352   7.282
 4219POPC   C1B54355  29.512   8.038   6.151
 4219POPC   C2B54356  29.541   7.773   6.499
 4219POPC   C3B54357  29.523   7.769   6.928
 4219POPC   C4B54358  29.517   7.847   7.386
 4220POPC   NC354359  18.587  12.818   5.319
 4220POPC   PO454360  19.273  12.961   5.239
 4220POPC   GL154361  19.181  13.043   5.683
 4220POPC   GL254362  18.809  13.135   5.741
 4220POPC   C1A54363  19.359  12.882   6.100
 4220POPC   D2A54364  19.287  12.599   6.468
 4220POPC   C3A54365  19.198  12.723   6.911
 4220POPC   C4A54366  18.838  12.825   7.167
 4220POPC   C1B54367  18.673  13.295   6.168
 4220POPC   C2B54368  18.611  13.201   6.598
 4220POPC   C3B54369  18.584  13.325   7.004
 4220POPC   C4B54370  18.706  13.256   7.401
 4221POPC   NC354371  31.848  38.841   5.497
 4221POPC   PO454372  32.293  38.353   5.205
 4221POPC   GL154373  32.336  38.300   5.643
 4221POPC   GL254374  32.039  38.427   5.725
 4221POPC   C1A54375  32.296  38.222   6.110
 4221POPC   D2A54376  32.358  38.478   6.468
 4221POPC   C3A54377  32.282  38.402   6.895
 4221POPC   C4A54378  32.183  38.518   7.314
 4221POPC   C1B54379  32.180  38.755   6.076
 4221POPC   C2B54380  32.207  38.961   6.521
 4221POPC   C3B54381  32.101  38.900   6.955
 4221POPC   C4B54382  32.313  38.992   7.338
 4222POPC   NC354383  31.787  40.334   5.331
 4222POPC   PO454384  31.394  39.795   5.294
 4222POPC   GL154385  31.323  39.865   5.757
 4222POPC   GL254386  31.606  40.044   5.866
 4222POPC   C1A54387  31.173  39.929   6.215
 4222POPC   D2A54388  31.274  39.740   6.658
 4222POPC   C3A54389  31.272  39.955   7.091
 4222POPC   C4A54390  31.109  40.056   7.527
 4222POPC   C1B54391  31.652  39.802   6.287
 4222POPC   C2B54392  31.692  40.037   6.688
 4222POPC   C3B54393  31.714  40.226   7.117
 4222POPC   C4B54394  31.614  40.023   7.493
 4223POPC   NC354395   0.306  28.836   5.496
 4223POPC   PO454396   0.634  29.456   5.456
 4223POPC   GL154397   0.477  29.231   5.797
 4223POPC   GL254398   0.774  29.038   5.799
 4223POPC   C1A54399   0.213  29.122   6.167
 4223POPC   D2A54400   0.337  29.208   6.586
 4223POPC   C3A54401   0.137  29.113   6.961
 4223POPC   C4A54402   0.320  29.199   7.342
 4223POPC   C1B54403   0.677  28.939   6.215
 4223POPC   C2B54404   0.833  29.073   6.598
 4223POPC   C3B54405   0.665  28.959   6.991
 4223POPC   C4B54406   0.697  28.899   7.451
 4224POPC   NC354407   2.567  23.033   5.216
 4224POPC   PO454408   2.878  22.799   5.775
 4224POPC   GL154409   2.980  22.621   6.111
 4224POPC   GL254410   3.218  22.400   5.966
 4224POPC   C1A54411   2.753  22.777   6.455
 4224POPC   D2A54412   2.515  22.592   6.755
 4224POPC   C3A54413   2.478  22.924   7.011
 4224POPC   C4A54414   2.720  22.955   7.362
 4224POPC   C1B54415   3.274  22.303   6.392
 4224POPC   C2B54416   2.973  22.370   6.676
 4224POPC   C3B54417   2.941  22.574   7.068
 4224POPC   C4B54418   3.234  22.418   7.369
 4225POPC   NC354419   4.423   2.232   5.400
 4225POPC   PO454420   3.946   1.830   5.635
 4225POPC   GL154421   4.396   1.910   5.833
 4225POPC   GL254422   4.601   2.226   5.872
 4225POPC   C1A54423   4.451   1.945   6.296
 4225POPC   D2A54424   4.207   2.210   6.564
 4225POPC   C3A54425   3.988   2.068   6.918
 4225POPC   C4A54426   4.116   1.865   7.307
 4225POPC   C1B54427   4.728   2.397   6.276
 4225POPC   C2B54428   4.660   2.389   6.721
 4225POPC   C3B54429   4.484   2.092   7.009
 4225POPC   C4B54430   4.647   1.823   7.306
 4226POPC   NC354431  14.082  42.401   5.341
 4226POPC   PO454432  14.502  41.900   5.614
 4226POPC   GL154433  14.401  42.314   5.745
 4226POPC   GL254434  14.604  42.618   5.693
 4226POPC   C1A54435  14.179  42.441   6.092
 4226POPC   D2A54436  14.274  42.561   6.510
 4226POPC   C3A54437  14.081  42.370   6.846
 4226POPC   C4A54438  14.256  42.360   7.226
 4226POPC   C1B54439  14.595  42.737   6.133
 4226POPC   C2B54440  14.796  42.534   6.502
 4226POPC   C3B54441  14.657  42.543   6.912
 4226POPC   C4B54442  14.599  42.718   7.314
 4227POPC   NC354443  22.164  42.714   5.337
 4227POPC   PO454444  22.009  42.038   5.357
 4227POPC   GL154445  21.995  42.285   5.726
 4227POPC   GL254446  21.806  42.612   5.678
 4227POPC   C1A54447  22.197  42.187   6.150
 4227POPC   D2A54448  22.383  42.154   6.590
 4227POPC   C3A54449  22.122  42.230   6.980
 4227POPC   C4A54450  22.309  42.254   7.394
 4227POPC   C1B54451  22.008  42.660   6.075
 4227POPC   C2B54452  21.976  42.526   6.507
 4227POPC   C3B54453  22.131  42.732   6.880
 4227POPC   C4B54454  22.008  42.678   7.295
 4228POPC   NC354455  40.269   1.153   5.252
 4228POPC   PO454456  40.975   1.228   5.086
 4228POPC   GL154457  41.094   1.152   5.629
 4228POPC   GL254458  40.820   0.935   5.862
 4228POPC   C1A54459  40.984   1.347   6.074
 4228POPC   D2A54460  40.642   1.254   6.381
 4228POPC   C3A54461  40.711   1.273   6.832
 4228POPC   C4A54462  40.621   1.095   7.202
 4228POPC   C1B54463  41.027   0.840   6.249
 4228POPC   C2B54464  41.038   0.589   6.607
 4228POPC   C3B54465  40.955   0.775   6.984
 4228POPC   C4B54466  40.996   0.841   7.424
 4229POPC   NC354467  19.552   8.439   5.370
 4229POPC   PO454468  19.585   9.080   5.244
 4229POPC   GL154469  19.740   8.829   5.634
 4229POPC   GL254470  20.023   8.961   5.775
 4229POPC   C1A54471  19.606   8.594   6.037
 4229POPC   D2A54472  19.658   8.511   6.501
 4229POPC   C3A54473  19.557   8.794   6.838
 4229POPC   C4A54474  19.715   8.871   7.264
 4229POPC   C1B54475  20.042   8.790   6.197
 4229POPC   C2B54476  19.938   8.999   6.569
 4229POPC   C3B54477  20.082   9.020   6.974
 4229POPC   C4B54478  20.238   8.868   7.368
 4230POPC   NC354479  22.186  26.618   5.390
 4230POPC   PO454480  22.325  27.303   5.414
 4230POPC   GL154481  22.211  27.028   5.688
 4230POPC   GL254482  22.499  26.790   5.753
 4230POPC   C1A54483  22.120  26.899   6.072
 4230POPC   D2A54484  22.232  26.972   6.467
 4230POPC   C3A54485  22.023  26.732   6.782
 4230POPC   C4A54486  21.981  26.782   7.229
 4230POPC   C1B54487  22.615  26.734   6.208
 4230POPC   C2B54488  22.536  26.602   6.668
 4230POPC   C3B54489  22.471  26.856   7.045
 4230POPC   C4B54490  22.397  26.791   7.518
 4231POPC   NC354491  34.169  26.374   5.450
 4231POPC   PO454492  33.594  26.056   5.505
 4231POPC   GL154493  33.749  25.878   5.838
 4231POPC   GL254494  34.073  25.983   5.836
 4231POPC   C1A54495  33.547  26.007   6.193
 4231POPC   D2A54496  33.615  26.213   6.546
 4231POPC   C3A54497  33.641  25.917   6.831
 4231POPC   C4A54498  33.567  25.923   7.231
 4231POPC   C1B54499  34.005  26.203   6.221
 4231POPC   C2B54500  34.103  26.043   6.662
 4231POPC   C3B54501  34.045  26.071   7.140
 4231POPC   C4B54502  34.281  26.194   7.526
 4232POPC   NC354503  43.488  17.482   5.390
 4232POPC   PO454504  42.871  17.641   5.407
 4232POPC   GL154505  42.755  17.515   5.818
 4232POPC   GL254506  42.879  17.190   5.813
 4232POPC   C1A54507  42.662  17.367   6.248
 4232POPC   D2A54508  42.838  17.294   6.678
 4232POPC   C3A54509  42.809  17.634   6.993
 4232POPC   C4A54510  43.006  17.691   7.382
 4232POPC   C1B54511  43.163  17.239   6.203
 4232POPC   C2B54512  43.334  17.158   6.638
 4232POPC   C3B54513  43.257  17.381   7.034
 4232POPC   C4B54514  43.524  17.668   7.305
 4233POPC   NC354515  42.728  30.087   5.383
 4233POPC   PO454516  43.225  29.707   5.412
 4233POPC   GL154517  42.952  29.774   5.767
 4233POPC   GL254518  42.803  30.081   5.889
 4233POPC   C1A54519  42.784  29.613   6.143
 4233POPC   D2A54520  42.835  29.809   6.529
 4233POPC   C3A54521  42.822  29.618   6.947
 4233POPC   C4A54522  42.701  29.897   7.254
 4233POPC   C1B54523  43.115  30.110   6.179
 4233POPC   C2B54524  43.252  30.122   6.594
 4233POPC   C3B54525  43.144  30.019   6.985
 4233POPC   C4B54526  43.498  29.907   7.217
 4234POPC   NC354527   7.748  17.860   5.436
 4234POPC   PO454528   8.439  17.719   5.525
 4234POPC   GL154529   8.300  17.546   5.899
 4234POPC   GL254530   7.992  17.388   5.741
 4234POPC   C1A54531   8.431  17.470   6.343
 4234POPC   D2A54532   8.261  17.292   6.690
 4234POPC   C3A54533   8.132  17.527   7.030
 4234POPC   C4A54534   8.401  17.469   7.338
 4234POPC   C1B54535   8.048  17.167   6.160
 4234POPC   C2B54536   7.850  17.000   6.512
 4234POPC   C3B54537   7.836  17.124   6.918
 4234POPC   C4B54538   8.110  17.055   7.256
 4235POPC   NC354539  44.285  14.413   5.488
 4235POPC   PO454540  44.656  14.818   5.183
 4235POPC   GL154541  44.670  14.651   5.737
 4235POPC   GL254542  44.345  14.683   5.964
 4235POPC   C1A54543  44.672  14.320   6.111
 4235POPC   D2A54544  44.782  14.101   6.506
 4235POPC   C3A54545  44.492  14.280   6.810
 4235POPC   C4A54546  44.606  14.305   7.214
 4235POPC   C1B54547  44.623  14.810   6.312
 4235POPC   C2B54548  44.615  14.784   6.773
 4235POPC   C3B54549  44.759  14.788   7.191
 4235POPC   C4B54550  44.665  14.660   7.606
 4236POPC   NC354551  19.683   0.752   5.475
 4236POPC   PO454552  20.064   0.223   5.413
 4236POPC   GL154553  20.022   0.468   5.770
 4236POPC   GL254554  20.326   0.263   5.889
 4236POPC   C1A54555  19.766   0.667   6.134
 4236POPC   D2A54556  19.600   0.684   6.561
 4236POPC   C3A54557  19.800   0.602   6.937
 4236POPC   C4A54558  19.855   0.750   7.347
 4236POPC   C1B54559  19.959   0.181   6.189
 4236POPC   C2B54560  19.732   0.182   6.587
 4236POPC   C3B54561  19.780   0.098   7.025
 4236POPC   C4B54562  20.019   0.291   7.297
 4237POPC   NC354563  21.676  38.284   5.490
 4237POPC   PO454564  21.204  38.866   5.366
 4237POPC   GL154565  21.263  38.769   5.786
 4237POPC   GL254566  21.420  38.439   5.889
 4237POPC   C1A54567  21.416  38.852   6.181
 4237POPC   D2A54568  21.434  38.606   6.537
 4237POPC   C3A54569  21.278  38.793   6.889
 4237POPC   C4A54570  21.217  38.607   7.277
 4237POPC   C1B54571  21.630  38.237   6.229
 4237POPC   C2B54572  21.481  38.098   6.640
 4237POPC   C3B54573  21.639  38.121   7.046
 4237POPC   C4B54574  21.633  38.344   7.404
 4238POPC   NC354575  25.572  13.030   5.564
 4238POPC   PO454576  26.229  12.829   5.422
 4238POPC   GL154577  26.049  12.839   5.852
 4238POPC   GL254578  26.353  12.814   6.019
 4238POPC   C1A54579  25.854  12.941   6.298
 4238POPC   D2A54580  25.602  13.182   6.659
 4238POPC   C3A54581  25.782  12.928   7.017
 4238POPC   C4A54582  26.110  12.655   7.229
 4238POPC   C1B54583  26.359  12.969   6.399
 4238POPC   C2B54584  26.309  12.900   6.829
 4238POPC   C3B54585  26.232  13.187   7.168
 4238POPC   C4B54586  26.359  13.255   7.645
 4239POPC   NC354587  18.995  30.042   5.268
 4239POPC   PO454588  19.377  29.484   5.334
 4239POPC   GL154589  19.195  29.752   5.730
 4239POPC   GL254590  18.996  30.092   5.779
 4239POPC   C1A54591  19.148  29.836   6.196
 4239POPC   D2A54592  19.074  29.663   6.585
 4239POPC   C3A54593  19.323  29.844   6.903
 4239POPC   C4A54594  19.154  30.029   7.262
 4239POPC   C1B54595  19.050  30.335   6.195
 4239POPC   C2B54596  19.134  30.214   6.626
 4239POPC   C3B54597  18.866  30.400   7.014
 4239POPC   C4B54598  18.707  30.395   7.475
 4240POPC   NC354599   1.349   2.444   5.130
 4240POPC   PO454600   1.328   1.938   5.599
 4240POPC   GL154601   0.981   2.067   5.868
 4240POPC   GL254602   1.080   2.382   5.811
 4240POPC   C1A54603   1.013   2.034   6.327
 4240POPC   D2A54604   1.440   1.912   6.512
 4240POPC   C3A54605   1.437   1.722   6.905
 4240POPC   C4A54606   1.102   1.772   7.210
 4240POPC   C1B54607   1.376   2.353   6.152
 4240POPC   C2B54608   1.282   2.419   6.538
 4240POPC   C3B54609   1.179   2.188   6.872
 4240POPC   C4B54610   1.278   2.242   7.279
 4241POPC   NC354611   0.595  43.437   5.247
 4241POPC   PO454612   0.217  44.028   5.316
 4241POPC   GL154613   0.318  43.963   5.735
 4241POPC   GL254614   0.349  43.603   5.836
 4241POPC   C1A54615   0.497  44.121   6.078
 4241POPC   D2A54616   0.549  44.128   6.479
 4241POPC   C3A54617   0.324  44.029   6.781
 4241POPC   C4A54618   0.379  44.081   7.228
 4241POPC   C1B54619   0.634  43.662   6.229
 4241POPC   C2B54620   0.540  43.550   6.643
 4241POPC   C3B54621   0.547  43.619   7.070
 4241POPC   C4B54622   0.445  43.591   7.518
 4242POPC   NC354623  27.240  38.476   5.336
 4242POPC   PO454624  27.561  37.961   5.412
 4242POPC   GL154625  27.443  38.208   5.788
 4242POPC   GL254626  27.767  38.336   5.907
 4242POPC   C1A54627  27.390  38.348   6.244
 4242POPC   D2A54628  27.530  38.415   6.636
 4242POPC   C3A54629  27.381  38.572   6.987
 4242POPC   C4A54630  27.507  38.913   7.230
 4242POPC   C1B54631  27.847  38.103   6.296
 4242POPC   C2B54632  27.944  38.116   6.730
 4242POPC   C3B54633  27.915  38.417   7.087
 4242POPC   C4B54634  28.044  38.276   7.513
 4243POPC   NC354635  12.012  20.857   5.391
 4243POPC   PO454636  11.839  20.222   5.675
 4243POPC   GL154637  12.079  20.525   5.817
 4243POPC   GL254638  11.810  20.795   5.844
 4243POPC   C1A54639  12.290  20.400   6.191
 4243POPC   D2A54640  12.227  20.524   6.630
 4243POPC   C3A54641  12.134  20.330   7.038
 4243POPC   C4A54642  12.485  20.481   7.281
 4243POPC   C1B54643  11.880  20.692   6.281
 4243POPC   C2B54644  11.705  20.531   6.652
 4243POPC   C3B54645  11.800  20.729   7.039
 4243POPC   C4B54646  11.982  21.042   7.356
 4244POPC   NC354647  25.974   8.784   5.418
 4244POPC   PO454648  26.326   9.362   5.224
 4244POPC   GL154649  26.144   9.205   5.635
 4244POPC   GL254650  26.361   8.961   5.796
 4244POPC   C1A54651  25.833   9.112   6.013
 4244POPC   D2A54652  25.722   9.021   6.485
 4244POPC   C3A54653  25.952   9.072   6.873
 4244POPC   C4A54654  25.749   9.091   7.273
 4244POPC   C1B54655  26.215   8.849   6.235
 4244POPC   C2B54656  26.051   8.614   6.610
 4244POPC   C3B54657  26.232   8.549   7.020
 4244POPC   C4B54658  26.187   8.874   7.333
 4245POPC   NC354659  19.337   2.263   5.418
 4245POPC   PO454660  18.723   1.814   5.488
 4245POPC   GL154661  19.032   1.961   5.736
 4245POPC   GL254662  19.286   1.692   5.691
 4245POPC   C1A54663  18.963   2.087   6.174
 4245POPC   D2A54664  19.156   2.241   6.551
 4245POPC   C3A54665  18.934   2.152   6.933
 4245POPC   C4A54666  18.926   1.827   7.237
 4245POPC   C1B54667  19.411   1.853   6.070
 4245POPC   C2B54668  19.464   1.803   6.487
 4245POPC   C3B54669  19.381   1.924   6.887
 4245POPC   C4B54670  19.489   2.043   7.276
 4246POPC   NC354671   5.298  11.451   5.583
 4246POPC   PO454672   4.802  11.064   5.237
 4246POPC   GL154673   4.945  11.084   5.722
 4246POPC   GL254674   5.295  10.992   5.824
 4246POPC   C1A54675   4.997  11.290   6.175
 4246POPC   D2A54676   4.961  11.658   6.510
 4246POPC   C3A54677   4.951  11.512   6.948
 4246POPC   C4A54678   4.899  11.101   7.201
 4246POPC   C1B54679   5.469  11.036   6.238
 4246POPC   C2B54680   5.286  11.180   6.631
 4246POPC   C3B54681   5.376  11.236   7.058
 4246POPC   C4B54682   5.438  11.001   7.379
 4247POPC   NC354683  25.568   4.662   5.414
 4247POPC   PO454684  25.080   4.246   5.504
 4247POPC   GL154685  25.136   4.478   5.881
 4247POPC   GL254686  25.115   4.860   5.839
 4247POPC   C1A54687  25.049   4.291   6.277
 4247POPC   D2A54688  24.986   4.072   6.644
 4247POPC   C3A54689  25.338   4.160   6.908
 4247POPC   C4A54690  25.374   4.096   7.315
 4247POPC   C1B54691  25.205   4.810   6.292
 4247POPC   C2B54692  25.049   4.650   6.707
 4247POPC   C3B54693  24.898   4.368   7.041
 4247POPC   C4B54694  25.180   4.558   7.287
 4248POPC   NC354695   5.979  18.510   5.333
 4248POPC   PO454696   6.242  17.888   5.450
 4248POPC   GL154697   6.099  18.083   5.826
 4248POPC   GL254698   5.778  18.062   5.941
 4248POPC   C1A54699   6.115  18.327   6.224
 4248POPC   D2A54700   5.881  18.299   6.606
 4248POPC   C3A54701   6.194  18.351   6.932
 4248POPC   C4A54702   6.295  18.479   7.342
 4248POPC   C1B54703   6.005  17.837   6.321
 4248POPC   C2B54704   6.063  17.855   6.799
 4248POPC   C3B54705   5.837  18.075   7.167
 4248POPC   C4B54706   5.620  17.891   7.556
 4249POPC   NC354707  11.820  30.555   5.470
 4249POPC   PO454708  12.384  30.866   5.153
 4249POPC   GL154709  12.270  30.725   5.607
 4249POPC   GL254710  11.977  30.939   5.753
 4249POPC   C1A54711  12.308  30.710   6.102
 4249POPC   D2A54712  12.461  30.696   6.544
 4249POPC   C3A54713  12.267  31.013   6.811
 4249POPC   C4A54714  12.221  31.034   7.253
 4249POPC   C1B54715  11.796  30.809   6.140
 4249POPC   C2B54716  11.945  30.641   6.530
 4249POPC   C3B54717  11.896  30.677   6.979
 4249POPC   C4B54718  11.655  30.999   7.172
 4250POPC   NC354719  19.169  39.617   5.533
 4250POPC   PO454720  18.706  39.129   5.406
 4250POPC   GL154721  18.960  39.125   5.776
 4250POPC   GL254722  19.156  38.808   5.814
 4250POPC   C1A54723  19.157  39.280   6.166
 4250POPC   D2A54724  19.396  39.301   6.536
 4250POPC   C3A54725  19.141  39.201   6.917
 4250POPC   C4A54726  19.267  39.285   7.323
 4250POPC   C1B54727  18.887  38.833   6.180
 4250POPC   C2B54728  18.813  39.045   6.539
 4250POPC   C3B54729  18.675  38.855   6.882
 4250POPC   C4B54730  18.688  38.941   7.271
 4251POPC   NC354731   7.649  41.235   5.217
 4251POPC   PO454732   7.258  40.767   5.305
 4251POPC   GL154733   7.296  40.678   5.780
 4251POPC   GL254734   7.070  40.407   5.843
 4251POPC   C1A54735   7.417  40.831   6.229
 4251POPC   D2A54736   7.628  40.770   6.673
 4251POPC   C3A54737   7.566  40.702   7.117
 4251POPC   C4A54738   7.406  40.960   7.428
 4251POPC   C1B54739   7.069  40.471   6.281
 4251POPC   C2B54740   7.237  40.456   6.688
 4251POPC   C3B54741   7.082  40.562   7.080
 4251POPC   C4B54742   7.074  40.523   7.515
 4252POPC   NC354743  15.298  38.332   5.346
 4252POPC   PO454744  14.674  38.646   5.089
 4252POPC   GL154745  14.814  38.508   5.587
 4252POPC   GL254746  15.153  38.562   5.764
 4252POPC   C1A54747  14.819  38.476   6.105
 4252POPC   D2A54748  15.012  38.258   6.447
 4252POPC   C3A54749  15.073  38.455   6.844
 4252POPC   C4A54750  14.884  38.559   7.243
 4252POPC   C1B54751  15.400  38.350   6.099
 4252POPC   C2B54752  15.527  38.275   6.557
 4252POPC   C3B54753  15.590  38.578   6.898
 4252POPC   C4B54754  15.386  38.458   7.252
 4253POPC   NC354755   0.237  24.281   5.217
 4253POPC   PO454756   0.460  24.843   5.490
 4253POPC   GL154757   0.633  24.613   5.857
 4253POPC   GL254758   0.514  24.263   5.757
 4253POPC   C1A54759   0.855  24.823   6.241
 4253POPC   D2A54760   0.819  24.913   6.689
 4253POPC   C3A54761   0.553  24.676   6.961
 4253POPC   C4A54762   0.193  24.638   7.241
 4253POPC   C1B54763   0.559  24.037   6.175
 4253POPC   C2B54764   0.402  23.990   6.616
 4253POPC   C3B54765   0.382  24.189   7.049
 4253POPC   C4B54766   0.433  24.095   7.514
 4254POPC   NC354767  19.027  29.128   5.117
 4254POPC   PO454768  18.788  29.662   5.427
 4254POPC   GL154769  18.747  29.318   5.752
 4254POPC   GL254770  18.889  29.438   6.049
 4254POPC   C1A54771  18.780  28.946   6.099
 4254POPC   D2A54772  18.870  28.783   6.565
 4254POPC   C3A54773  18.821  28.897   7.038
 4254POPC   C4A54774  18.890  28.659   7.451
 4254POPC   C1B54775  19.158  29.201   6.380
 4254POPC   C2B54776  19.229  29.221   6.854
 4254POPC   C3B54777  19.215  29.484   7.248
 4254POPC   C4B54778  19.365  29.479   7.697
 4255POPC   NC354779  18.115  12.255   5.468
 4255POPC   PO454780  18.120  12.953   5.368
 4255POPC   GL154781  18.295  12.925   5.767
 4255POPC   GL254782  18.208  12.584   5.840
 4255POPC   C1A54783  18.341  12.905   6.217
 4255POPC   D2A54784  18.117  13.044   6.555
 4255POPC   C3A54785  18.146  12.793   6.863
 4255POPC   C4A54786  18.328  12.918   7.247
 4255POPC   C1B54787  18.099  12.429   6.261
 4255POPC   C2B54788  18.359  12.275   6.632
 4255POPC   C3B54789  18.491  12.467   7.024
 4255POPC   C4B54790  18.352  12.453   7.452
 4256POPC   NC354791  20.191  21.588   5.448
 4256POPC   PO454792  20.745  21.226   5.415
 4256POPC   GL154793  20.689  21.230   5.833
 4256POPC   GL254794  20.328  21.225   5.810
 4256POPC   C1A54795  20.870  21.448   6.212
 4256POPC   D2A54796  20.733  21.451   6.657
 4256POPC   C3A54797  20.901  21.502   7.083
 4256POPC   C4A54798  20.995  21.838   7.375
 4256POPC   C1B54799  20.352  21.375   6.192
 4256POPC   C2B54800  20.243  21.505   6.538
 4256POPC   C3B54801  20.284  21.322   6.901
 4256POPC   C4B54802  20.400  21.375   7.291
 4257POPC   NC354803  38.073  11.196   5.548
 4257POPC   PO454804  37.483  11.578   5.456
 4257POPC   GL154805  37.606  11.598   5.858
 4257POPC   GL254806  37.671  11.235   5.882
 4257POPC   C1A54807  37.434  11.493   6.257
 4257POPC   D2A54808  37.681  11.347   6.605
 4257POPC   C3A54809  37.732  11.550   6.935
 4257POPC   C4A54810  37.350  11.504   7.185
 4257POPC   C1B54811  37.825  11.023   6.262
 4257POPC   C2B54812  37.749  10.833   6.701
 4257POPC   C3B54813  37.669  11.061   7.101
 4257POPC   C4B54814  37.823  11.372   7.393
 4258POPC   NC354815  40.880  18.255   5.380
 4258POPC   PO454816  40.381  17.851   5.621
 4258POPC   GL154817  40.632  18.103   5.866
 4258POPC   GL254818  40.988  18.160   5.878
 4258POPC   C1A54819  40.640  18.235   6.279
 4258POPC   D2A54820  40.885  18.116   6.621
 4258POPC   C3A54821  40.840  18.232   7.036
 4258POPC   C4A54822  40.822  18.073   7.444
 4258POPC   C1B54823  41.206  18.214   6.249
 4258POPC   C2B54824  41.248  18.468   6.598
 4258POPC   C3B54825  41.297  18.474   7.011
 4258POPC   C4B54826  41.109  18.490   7.417
 4259POPC   NC354827  22.770  35.532   5.261
 4259POPC   PO454828  23.224  35.140   5.541
 4259POPC   GL154829  23.158  35.416   5.866
 4259POPC   GL254830  22.853  35.540   5.758
 4259POPC   C1A54831  23.127  35.188   6.260
 4259POPC   D2A54832  23.293  35.252   6.683
 4259POPC   C3A54833  23.317  35.130   7.091
 4259POPC   C4A54834  22.939  35.216   7.312
 4259POPC   C1B54835  22.680  35.454   6.155
 4259POPC   C2B54836  22.873  35.520   6.547
 4259POPC   C3B54837  22.987  35.616   6.969
 4259POPC   C4B54838  22.654  35.649   7.252
 4260POPC   NC354839  35.070  24.167   5.378
 4260POPC   PO454840  35.071  24.839   5.355
 4260POPC   GL154841  35.320  24.674   5.730
 4260POPC   GL254842  35.222  24.333   5.832
 4260POPC   C1A54843  35.437  24.652   6.191
 4260POPC   D2A54844  35.506  24.349   6.555
 4260POPC   C3A54845  35.380  24.482   6.960
 4260POPC   C4A54846  35.580  24.375   7.369
 4260POPC   C1B54847  35.116  24.215   6.247
 4260POPC   C2B54848  34.980  24.377   6.627
 4260POPC   C3B54849  34.854  24.301   7.035
 4260POPC   C4B54850  35.051  24.455   7.368
 4261POPC   NC354851  23.677  33.665   5.333
 4261POPC   PO454852  24.042  34.245   5.552
 4261POPC   GL154853  23.710  33.933   5.745
 4261POPC   GL254854  23.415  34.090   5.856
 4261POPC   C1A54855  23.566  33.703   6.175
 4261POPC   D2A54856  23.655  33.863   6.640
 4261POPC   C3A54857  23.748  33.650   7.067
 4261POPC   C4A54858  23.592  33.482   7.509
 4261POPC   C1B54859  23.818  34.143   6.166
 4261POPC   C2B54860  24.118  34.052   6.485
 4261POPC   C3B54861  24.020  34.099   6.915
 4261POPC   C4B54862  23.609  34.129   7.120
 4262POPC   NC354863   1.296  27.243   5.397
 4262POPC   PO454864   0.865  27.784   5.495
 4262POPC   GL154865   1.219  27.670   5.775
 4262POPC   GL254866   1.183  27.310   5.879
 4262POPC   C1A54867   1.407  27.649   6.199
 4262POPC   D2A54868   1.552  27.819   6.594
 4262POPC   C3A54869   1.535  27.536   6.936
 4262POPC   C4A54870   1.266  27.612   7.266
 4262POPC   C1B54871   1.024  27.232   6.283
 4262POPC   C2B54872   1.112  27.310   6.732
 4262POPC   C3B54873   0.873  27.303   7.112
 4262POPC   C4B54874   0.970  27.297   7.550
 4263POPC   NC354875  23.318  22.211   5.382
 4263POPC   PO454876  23.958  22.141   5.595
 4263POPC   GL154877  23.747  22.301   5.904
 4263POPC   GL254878  23.398  22.330   5.871
 4263POPC   C1A54879  23.874  22.194   6.297
 4263POPC   D2A54880  24.044  21.923   6.584
 4263POPC   C3A54881  24.022  22.197   6.919
 4263POPC   C4A54882  23.921  22.058   7.310
 4263POPC   C1B54883  23.387  22.021   6.210
 4263POPC   C2B54884  23.504  21.975   6.618
 4263POPC   C3B54885  23.405  22.179   7.008
 4263POPC   C4B54886  23.596  22.533   7.195
 4264POPC   NC354887  22.353   1.721   5.741
 4264POPC   PO454888  22.365   1.168   5.375
 4264POPC   GL154889  22.027   1.299   5.715
 4264POPC   GL254890  21.934   1.002   5.919
 4264POPC   C1A54891  21.946   1.456   6.173
 4264POPC   D2A54892  22.211   1.353   6.558
 4264POPC   C3A54893  22.063   1.462   6.978
 4264POPC   C4A54894  21.884   1.516   7.386
 4264POPC   C1B54895  22.321   1.071   6.128
 4264POPC   C2B54896  22.517   0.930   6.535
 4264POPC   C3B54897  22.446   0.940   6.994
 4264POPC   C4B54898  22.091   0.873   7.294
 4265POPC   NC354899  28.708   9.118   5.535
 4265POPC   PO454900  28.083   8.760   5.466
 4265POPC   GL154901  28.317   8.884   5.839
 4265POPC   GL254902  28.647   8.725   5.904
 4265POPC   C1A54903  28.408   8.981   6.274
 4265POPC   D2A54904  28.363   8.803   6.687
 4265POPC   C3A54905  28.326   9.126   6.989
 4265POPC   C4A54906  28.703   9.199   7.213
 4265POPC   C1B54907  28.644   8.508   6.347
 4265POPC   C2B54908  28.709   8.438   6.811
 4265POPC   C3B54909  28.494   8.646   7.189
 4265POPC   C4B54910  28.384   8.550   7.660
 4266POPC   NC354911  21.919   5.996   5.359
 4266POPC   PO454912  22.436   5.802   5.738
 4266POPC   GL154913  22.142   6.100   5.821
 4266POPC   GL254914  21.929   5.821   5.831
 4266POPC   C1A54915  22.136   6.197   6.238
 4266POPC   D2A54916  21.948   6.247   6.621
 4266POPC   C3A54917  22.118   6.044   6.975
 4266POPC   C4A54918  21.980   6.088   7.382
 4266POPC   C1B54919  21.889   5.612   6.200
 4266POPC   C2B54920  21.972   5.641   6.621
 4266POPC   C3B54921  21.820   5.577   7.008
 4266POPC   C4B54922  22.078   5.580   7.331
 4267POPC   NC354923  29.585  12.335   5.425
 4267POPC   PO454924  30.259  12.065   5.382
 4267POPC   GL154925  30.225  12.181   5.817
 4267POPC   GL254926  29.878  12.201   5.830
 4267POPC   C1A54927  30.152  12.002   6.247
 4267POPC   D2A54928  29.827  11.942   6.590
 4267POPC   C3A54929  30.019  11.955   6.986
 4267POPC   C4A54930  30.256  11.659   7.272
 4267POPC   C1B54931  29.768  12.350   6.254
 4267POPC   C2B54932  29.891  12.450   6.697
 4267POPC   C3B54933  29.721  12.393   7.124
 4267POPC   C4B54934  29.609  12.246   7.551
 4268POPC   NC354935   1.544  15.117   5.316
 4268POPC   PO454936   0.832  15.101   5.454
 4268POPC   GL154937   1.121  15.299   5.748
 4268POPC   GL254938   1.010  15.023   5.944
 4268POPC   C1A54939   1.345  15.382   6.161
 4268POPC   D2A54940   1.292  15.196   6.575
 4268POPC   C3A54941   1.400  15.414   6.934
 4268POPC   C4A54942   1.339  15.420   7.355
 4268POPC   C1B54943   0.940  14.879   6.348
 4268POPC   C2B54944   0.865  14.914   6.770
 4268POPC   C3B54945   0.957  15.192   7.074
 4268POPC   C4B54946   0.896  15.165   7.479
 4269POPC   NC354947  19.520  23.292   5.400
 4269POPC   PO454948  20.002  23.727   5.415
 4269POPC   GL154949  19.827  23.878   5.801
 4269POPC   GL254950  19.535  23.642   5.828
 4269POPC   C1A54951  19.942  24.052   6.226
 4269POPC   D2A54952  20.163  23.688   6.463
 4269POPC   C3A54953  20.076  23.641   6.899
 4269POPC   C4A54954  19.857  24.018   7.074
 4269POPC   C1B54955  19.660  23.635   6.251
 4269POPC   C2B54956  19.615  23.778   6.672
 4269POPC   C3B54957  19.605  23.550   7.077
 4269POPC   C4B54958  19.715  23.724   7.460
 4270POPC   NC354959  26.730   8.948   5.346
 4270POPC   PO454960  27.296   9.213   5.418
 4270POPC   GL154961  27.008   9.052   5.776
 4270POPC   GL254962  26.824   8.720   5.779
 4270POPC   C1A54963  26.754   9.050   6.166
 4270POPC   D2A54964  26.959   9.059   6.545
 4270POPC   C3A54965  26.994   9.249   6.945
 4270POPC   C4A54966  27.045   9.059   7.332
 4270POPC   C1B54967  26.660   8.551   6.170
 4270POPC   C2B54968  26.573   8.688   6.572
 4270POPC   C3B54969  26.554   8.952   6.903
 4270POPC   C4B54970  26.659   8.732   7.263
 4271POPC   NC354971  24.630   4.182   5.408
 4271POPC   PO454972  24.221   3.759   5.661
 4271POPC   GL154973  24.412   4.088   5.858
 4271POPC   GL254974  24.774   4.002   5.890
 4271POPC   C1A54975  24.558   4.410   6.130
 4271POPC   D2A54976  24.617   4.421   6.591
 4271POPC   C3A54977  24.393   4.460   7.015
 4271POPC   C4A54978  24.423   4.518   7.492
 4271POPC   C1B54979  24.608   3.937   6.316
 4271POPC   C2B54980  24.378   3.706   6.620
 4271POPC   C3B54981  24.413   3.797   7.034
 4271POPC   C4B54982  24.407   4.029   7.378
 4272POPC   NC354983  21.636  17.379   5.282
 4272POPC   PO454984  21.016  17.606   5.331
 4272POPC   GL154985  21.333  17.713   5.689
 4272POPC   GL254986  21.636  17.517   5.765
 4272POPC   C1A54987  21.339  17.662   6.168
 4272POPC   D2A54988  21.132  17.504   6.546
 4272POPC   C3A54989  21.180  17.666   6.974
 4272POPC   C4A54990  21.170  17.500   7.393
 4272POPC   C1B54991  21.851  17.682   6.111
 4272POPC   C2B54992  21.724  17.811   6.507
 4272POPC   C3B54993  21.803  17.633   6.887
 4272POPC   C4B54994  21.643  17.643   7.275
 4273POPC   NC354995  39.876  38.158   5.645
 4273POPC   PO454996  39.995  38.805   5.453
 4273POPC   GL154997  39.983  38.619   5.861
 4273POPC   GL254998  40.314  38.494   5.782
 4273POPC   C1A54999  39.839  38.437   6.288
 4273POPC   D2A55000  39.628  38.404   6.719
 4273POPC   C3A55001  39.891  38.352   7.076
 4273POPC   C4A55002  40.279  38.546   7.212
 4273POPC   C1B55003  40.347  38.397   6.224
 4273POPC   C2B55004  40.283  38.475   6.667
 4273POPC   C3B55005  40.491  38.174   6.925
 4273POPC   C4B55006  40.541  37.999   7.316
 4274POPC   NC355007  41.170  32.913   5.264
 4274POPC   PO455008  41.574  33.381   5.203
 4274POPC   GL155009  41.503  33.414   5.683
 4274POPC   GL255010  41.198  33.199   5.756
 4274POPC   C1A55011  41.623  33.155   6.084
 4274POPC   D2A55012  41.591  32.802   6.424
 4274POPC   C3A55013  41.470  32.845   6.872
 4274POPC   C4A55014  41.615  33.150   7.181
 4274POPC   C1B55015  41.155  32.836   6.046
 4274POPC   C2B55016  41.080  32.807   6.492
 4274POPC   C3B55017  40.966  33.038   6.860
 4274POPC   C4B55018  41.117  32.971   7.258
 4275POPC   NC355019  14.688  39.075   5.541
 4275POPC   PO455020  14.585  39.661   5.253
 4275POPC   GL155021  14.496  39.529   5.728
 4275POPC   GL255022  14.313  39.208   5.896
 4275POPC   C1A55023  14.621  39.476   6.164
 4275POPC   D2A55024  14.323  39.275   6.456
 4275POPC   C3A55025  14.299  39.249   6.900
 4275POPC   C4A55026  14.542  39.369   7.200
 4275POPC   C1B55027  14.645  38.966   6.199
 4275POPC   C2B55028  14.796  38.757   6.544
 4275POPC   C3B55029  14.720  38.931   6.944
 4275POPC   C4B55030  14.389  38.863   7.245
 4276POPC   NC355031  33.365  18.176   5.282
 4276POPC   PO455032  32.983  18.624   5.511
 4276POPC   GL155033  32.985  18.273   5.744
 4276POPC   GL255034  33.105  18.482   5.984
 4276POPC   C1A55035  32.852  18.084   6.163
 4276POPC   D2A55036  33.054  18.049   6.574
 4276POPC   C3A55037  32.783  18.037   6.952
 4276POPC   C4A55038  32.881  18.342   7.245
 4276POPC   C1B55039  33.323  18.450   6.309
 4276POPC   C2B55040  33.442  18.430   6.690
 4276POPC   C3B55041  33.352  18.222   7.026
 4276POPC   C4B55042  33.348  18.497   7.376
 4277POPC   NC355043   7.986  20.238   5.473
 4277POPC   PO455044   8.025  19.564   5.303
 4277POPC   GL155045   7.964  19.762   5.725
 4277POPC   GL255046   8.285  19.923   5.789
 4277POPC   C1A55047   7.920  19.792   6.204
 4277POPC   D2A55048   8.193  19.893   6.597
 4277POPC   C3A55049   7.990  19.812   7.022
 4277POPC   C4A55050   8.038  19.818   7.484
 4277POPC   C1B55051   8.365  19.582   6.083
 4277POPC   C2B55052   8.553  19.518   6.480
 4277POPC   C3B55053   8.660  19.727   6.840
 4277POPC   C4B55054   8.441  19.631   7.211
 4278POPC   NC355055  16.904  14.908   5.305
 4278POPC   PO455056  16.194  14.963   5.332
 4278POPC   GL155057  16.542  15.205   5.571
 4278POPC   GL255058  16.638  14.920   5.743
 4278POPC   C1A55059  16.813  15.322   5.963
 4278POPC   D2A55060  16.828  15.566   6.365
 4278POPC   C3A55061  16.622  15.418   6.758
 4278POPC   C4A55062  16.719  15.160   7.164
 4278POPC   C1B55063  16.734  14.851   6.185
 4278POPC   C2B55064  16.642  14.921   6.653
 4278POPC   C3B55065  16.929  14.729   6.990
 4278POPC   C4B55066  17.100  14.675   7.405
 4279POPC   NC355067  34.120  42.438   5.527
 4279POPC   PO455068  33.767  42.086   5.133
 4279POPC   GL155069  33.790  42.058   5.673
 4279POPC   GL255070  34.085  42.099   5.896
 4279POPC   C1A55071  33.662  41.926   6.111
 4279POPC   D2A55072  33.854  42.067   6.526
 4279POPC   C3A55073  33.784  41.915   6.934
 4279POPC   C4A55074  33.757  42.189   7.260
 4279POPC   C1B55075  33.833  42.405   6.128
 4279POPC   C2B55076  33.541  42.461   6.432
 4279POPC   C3B55077  33.586  42.504   6.889
 4279POPC   C4B55078  33.929  42.660   7.206
 4280POPC   NC355079   2.857  10.231   5.386
 4280POPC   PO455080   2.555   9.586   5.455
 4280POPC   GL155081   2.659   9.875   5.795
 4280POPC   GL255082   3.001   9.995   5.834
 4280POPC   C1A55083   2.702   9.707   6.231
 4280POPC   D2A55084   2.677   9.860   6.660
 4280POPC   C3A55085   2.440   9.628   6.966
 4280POPC   C4A55086   2.776   9.529   7.249
 4280POPC   C1B55087   2.997  10.131   6.278
 4280POPC   C2B55088   3.104  10.239   6.704
 4280POPC   C3B55089   3.015  10.039   7.087
 4280POPC   C4B55090   2.586  10.047   7.228
 4281POPC   NC355091   1.301  23.165   5.091
 4281POPC   PO455092   1.240  22.833   5.665
 4281POPC   GL155093   1.405  23.026   5.973
 4281POPC   GL255094   1.383  23.353   5.855
 4281POPC   C1A55095   1.541  22.806   6.318
 4281POPC   D2A55096   1.215  22.788   6.595
 4281POPC   C3A55097   1.313  22.971   6.968
 4281POPC   C4A55098   1.327  22.756   7.365
 4281POPC   C1B55099   1.174  23.383   6.255
 4281POPC   C2B55100   1.046  23.419   6.665
 4281POPC   C3B55101   0.866  23.271   7.032
 4281POPC   C4B55102   1.065  23.174   7.370
 4282POPC   NC355103  23.948  16.423   5.584
 4282POPC   PO455104  23.602  17.036   5.575
 4282POPC   GL155105  23.634  16.780   5.908
 4282POPC   GL255106  23.942  16.791   5.936
 4282POPC   C1A55107  23.540  16.974   6.258
 4282POPC   D2A55108  23.535  17.111   6.630
 4282POPC   C3A55109  23.865  16.929   6.821
 4282POPC   C4A55110  23.719  16.767   7.188
 4282POPC   C1B55111  23.904  16.607   6.344
 4282POPC   C2B55112  24.118  16.469   6.717
 4282POPC   C3B55113  24.094  16.455   7.176
 4282POPC   C4B55114  23.894  16.591   7.631
 4283POPC   NC355115  21.755  22.074   5.595
 4283POPC   PO455116  21.136  22.429   5.525
 4283POPC   GL155117  21.348  22.231   5.885
 4283POPC   GL255118  21.351  21.856   5.823
 4283POPC   C1A55119  21.355  22.247   6.351
 4283POPC   D2A55120  21.291  22.463   6.748
 4283POPC   C3A55121  21.329  22.258   7.167
 4283POPC   C4A55122  21.192  22.270   7.609
 4283POPC   C1B55123  21.586  21.792   6.207
 4283POPC   C2B55124  21.514  21.844   6.653
 4283POPC   C3B55125  21.419  21.763   7.070
 4283POPC   C4B55126  21.477  21.861   7.517
 4284POPC   NC355127  11.815  31.344   5.464
 4284POPC   PO455128  12.408  31.207   5.702
 4284POPC   GL155129  12.148  31.416   5.907
 4284POPC   GL255130  12.314  31.750   5.874
 4284POPC   C1A55131  12.074  31.207   6.313
 4284POPC   D2A55132  11.765  31.130   6.624
 4284POPC   C3A55133  11.912  31.409   6.914
 4284POPC   C4A55134  12.273  31.530   7.159
 4284POPC   C1B55135  12.044  31.818   6.180
 4284POPC   C2B55136  12.199  31.685   6.550
 4284POPC   C3B55137  12.228  31.932   6.879
 4284POPC   C4B55138  11.949  31.910   7.271
 4285POPC   NC355139  28.495  16.403   5.502
 4285POPC   PO455140  28.422  17.070   5.507
 4285POPC   GL155141  28.324  16.797   5.870
 4285POPC   GL255142  28.488  16.495   5.977
 4285POPC   C1A55143  28.410  16.871   6.304
 4285POPC   D2A55144  28.670  16.994   6.613
 4285POPC   C3A55145  28.432  16.783   6.872
 4285POPC   C4A55146  28.460  16.802   7.252
 4285POPC   C1B55147  28.522  16.324   6.342
 4285POPC   C2B55148  28.336  16.298   6.706
 4285POPC   C3B55149  28.519  16.293   7.104
 4285POPC   C4B55150  28.589  16.201   7.565
 4286POPC   NC355151  25.156  19.430   5.477
 4286POPC   PO455152  25.619  18.956   5.500
 4286POPC   GL155153  25.404  18.848   5.860
 4286POPC   GL255154  25.205  19.117   5.902
 4286POPC   C1A55155  25.431  18.661   6.252
 4286POPC   D2A55156  25.718  18.732   6.594
 4286POPC   C3A55157  25.589  18.615   7.010
 4286POPC   C4A55158  25.325  18.783   7.310
 4286POPC   C1B55159  25.073  18.994   6.293
 4286POPC   C2B55160  25.190  18.860   6.718
 4286POPC   C3B55161  25.056  19.131   7.054
 4286POPC   C4B55162  25.189  19.535   7.174
 4287POPC   NC355163   2.912  37.431   5.522
 4287POPC   PO455164   2.556  38.066   5.460
 4287POPC   GL155165   2.650  37.791   5.785
 4287POPC   GL255166   2.423  37.529   5.714
 4287POPC   C1A55167   2.832  37.615   6.152
 4287POPC   D2A55168   2.925  37.751   6.542
 4287POPC   C3A55169   2.632  37.786   6.842
 4287POPC   C4A55170   2.886  37.613   7.195
 4287POPC   C1B55171   2.382  37.349   6.105
 4287POPC   C2B55172   2.529  37.401   6.519
 4287POPC   C3B55173   2.571  37.292   6.947
 4287POPC   C4B55174   2.728  37.159   7.345
 4288POPC   NC355175  21.576  24.242   5.302
 4288POPC   PO455176  21.238  24.801   5.325
 4288POPC   GL155177  21.349  24.767   5.775
 4288POPC   GL255178  21.033  24.684   5.921
 4288POPC   C1A55179  21.481  24.598   6.216
 4288POPC   D2A55180  21.697  24.644   6.641
 4288POPC   C3A55181  21.448  24.534   7.039
 4288POPC   C4A55182  21.159  24.267   7.293
 4288POPC   C1B55183  21.149  24.981   6.227
 4288POPC   C2B55184  21.317  25.002   6.619
 4288POPC   C3B55185  21.072  24.893   6.944
 4288POPC   C4B55186  20.920  24.701   7.264
 4289POPC   NC355187   7.326  13.663   5.249
 4289POPC   PO455188   6.639  13.744   5.340
 4289POPC   GL155189   6.645  13.675   5.774
 4289POPC   GL255190   6.464  13.379   5.914
 4289POPC   C1A55191   6.890  13.604   6.181
 4289POPC   D2A55192   6.949  13.439   6.623
 4289POPC   C3A55193   6.850  13.715   6.988
 4289POPC   C4A55194   6.926  13.813   7.418
 4289POPC   C1B55195   6.377  13.784   6.162
 4289POPC   C2B55196   6.588  13.863   6.540
 4289POPC   C3B55197   6.376  13.629   6.852
 4289POPC   C4B55198   6.392  13.586   7.292
 4290POPC   NC355199   0.384  26.740   5.289
 4290POPC   PO455200   0.169  27.282   5.537
 4290POPC   GL155201   0.339  26.917   5.823
 4290POPC   GL255202   0.328  26.535   5.750
 4290POPC   C1A55203   0.450  26.922   6.280
 4290POPC   D2A55204   0.686  27.038   6.642
 4290POPC   C3A55205   0.533  26.922   7.012
 4290POPC   C4A55206   0.463  27.072   7.424
 4290POPC   C1B55207   0.271  26.429   6.182
 4290POPC   C2B55208   0.217  26.565   6.616
 4290POPC   C3B55209   0.468  26.420   6.968
 4290POPC   C4B55210   0.501  26.558   7.368
 4291POPC   NC355211  14.679  41.491   5.400
 4291POPC   PO455212  15.275  41.821   5.561
 4291POPC   GL155213  15.224  41.534   5.847
 4291POPC   GL255214  14.918  41.355   5.830
 4291POPC   C1A55215  15.170  41.619   6.256
 4291POPC   D2A55216  15.461  41.547   6.559
 4291POPC   C3A55217  15.367  41.758   6.894
 4291POPC   C4A55218  14.999  41.705   7.109
 4291POPC   C1B55219  14.905  41.181   6.252
 4291POPC   C2B55220  14.941  41.402   6.671
 4291POPC   C3B55221  15.208  41.273   7.009
 4291POPC   C4B55222  15.138  40.949   7.256
 4292POPC   NC355223   0.798  11.531   5.614
 4292POPC   PO455224   0.098  11.471   5.412
 4292POPC   GL155225   0.304  11.647   5.795
 4292POPC   GL255226   0.452  11.347   5.934
 4292POPC   C1A55227   0.274  11.662   6.266
 4292POPC   D2A55228   0.381  11.395   6.640
 4292POPC   C3A55229   0.428  11.265   7.061
 4292POPC   C4A55230   0.169  11.296   7.430
 4292POPC   C1B55231   0.725  11.453   6.274
 4292POPC   C2B55232   0.714  11.795   6.560
 4292POPC   C3B55233   0.593  11.730   6.992
 4292POPC   C4B55234   0.567  11.647   7.427
 4293POPC   NC355235   7.161  22.347   5.494
 4293POPC   PO455236   7.691  21.963   5.558
 4293POPC   GL155237   7.412  22.109   5.875
 4293POPC   GL255238   7.083  22.004   5.929
 4293POPC   C1A55239   7.418  22.051   6.314
 4293POPC   D2A55240   7.690  21.980   6.626
 4293POPC   C3A55241   7.400  21.985   6.941
 4293POPC   C4A55242   7.473  22.121   7.320
 4293POPC   C1B55243   6.904  22.157   6.312
 4293POPC   C2B55244   7.059  22.325   6.708
 4293POPC   C3B55245   7.023  22.277   7.169
 4293POPC   C4B55246   7.117  22.341   7.613
 4294POPC   NC355247  16.209  22.678   5.356
 4294POPC   PO455248  15.791  23.198   5.444
 4294POPC   GL155249  16.038  23.139   5.754
 4294POPC   GL255250  15.968  22.802   5.802
 4294POPC   C1A55251  15.956  23.140   6.193
 4294POPC   D2A55252  15.873  22.937   6.602
 4294POPC   C3A55253  15.935  23.148   7.011
 4294POPC   C4A55254  15.876  22.927   7.408
 4294POPC   C1B55255  16.042  22.615   6.218
 4294POPC   C2B55256  16.041  22.435   6.636
 4294POPC   C3B55257  16.141  22.673   7.009
 4294POPC   C4B55258  16.518  22.591   7.238
 4295POPC   NC355259  39.513  37.069   5.547
 4295POPC   PO455260  39.049  36.636   5.471
 4295POPC   GL155261  39.212  36.810   5.845
 4295POPC   GL255262  39.542  36.646   5.881
 4295POPC   C1A55263  39.462  37.030   6.221
 4295POPC   D2A55264  39.552  37.104   6.688
 4295POPC   C3A55265  39.345  36.850   7.001
 4295POPC   C4A55266  39.073  36.958   7.327
 4295POPC   C1B55267  39.201  36.601   6.279
 4295POPC   C2B55268  39.002  36.622   6.701
 4295POPC   C3B55269  38.987  36.467   7.117
 4295POPC   C4B55270  38.783  36.569   7.502
 4296POPC   NC355271  23.325  38.026   5.356
 4296POPC   PO455272  22.978  37.502   5.597
 4296POPC   GL155273  23.069  37.789   5.866
 4296POPC   GL255274  22.854  38.021   5.669
 4296POPC   C1A55275  23.003  37.730   6.334
 4296POPC   D2A55276  22.821  37.684   6.758
 4296POPC   C3A55277  23.092  37.647   7.115
 4296POPC   C4A55278  23.223  37.323   7.399
 4296POPC   C1B55279  22.863  38.177   6.103
 4296POPC   C2B55280  22.694  38.151   6.533
 4296POPC   C3B55281  22.714  38.146   6.988
 4296POPC   C4B55282  22.851  37.996   7.390
 4297POPC   NC355283  19.059  10.058   4.997
 4297POPC   PO455284  19.322   9.682   5.497
 4297POPC   GL155285  19.215   9.652   5.924
 4297POPC   GL255286  18.861   9.770   5.913
 4297POPC   C1A55287  19.028   9.484   6.322
 4297POPC   D2A55288  18.801   9.577   6.704
 4297POPC   C3A55289  19.124   9.521   7.025
 4297POPC   C4A55290  19.460   9.783   7.173
 4297POPC   C1B55291  18.634  10.042   6.238
 4297POPC   C2B55292  18.595  10.215   6.682
 4297POPC   C3B55293  18.801  10.095   7.077
 4297POPC   C4B55294  18.870  10.084   7.530
 4298POPC   NC355295  13.990   9.439   5.543
 4298POPC   PO455296  13.517   9.863   5.274
 4298POPC   GL155297  13.508   9.910   5.743
 4298POPC   GL255298  13.168   9.999   5.773
 4298POPC   C1A55299  13.682   9.772   6.189
 4298POPC   D2A55300  13.692   9.900   6.653
 4298POPC   C3A55301  13.801   9.686   7.033
 4298POPC   C4A55302  14.158   9.436   7.224
 4298POPC   C1B55303  13.128   9.808   6.161
 4298POPC   C2B55304  13.273   9.600   6.538
 4298POPC   C3B55305  13.266   9.420   6.946
 4298POPC   C4B55306  13.318   9.575   7.362
 4299POPC   NC355307   2.951  19.494   5.123
 4299POPC   PO455308   2.715  18.828   5.315
 4299POPC   GL155309   2.663  18.943   5.721
 4299POPC   GL255310   2.934  19.170   5.664
 4299POPC   C1A55311   2.599  18.853   6.153
 4299POPC   D2A55312   2.622  19.126   6.522
 4299POPC   C3A55313   2.845  19.037   6.881
 4299POPC   C4A55314   2.615  18.982   7.234
 4299POPC   C1B55315   2.965  19.214   6.129
 4299POPC   C2B55316   3.148  19.275   6.536
 4299POPC   C3B55317   3.165  19.430   6.977
 4299POPC   C4B55318   3.155  19.119   7.289
 4300POPC   NC355319   1.055  30.130   5.495
 4300POPC   PO455320   1.699  29.998   5.320
 4300POPC   GL155321   1.443  29.752   5.701
 4300POPC   GL255322   1.062  29.649   5.766
 4300POPC   C1A55323   1.381  29.773   6.178
 4300POPC   D2A55324   1.182  29.823   6.587
 4300POPC   C3A55325   1.317  30.093   6.917
 4300POPC   C4A55326   1.395  29.815   7.229
 4300POPC   C1B55327   0.850  29.632   6.203
 4300POPC   C2B55328   0.721  29.602   6.650
 4300POPC   C3B55329   0.888  29.820   7.059
 4300POPC   C4B55330   0.989  29.759   7.522
 4301POPC   NC355331  21.295  43.206   5.385
 4301POPC   PO455332  21.895  43.558   5.523
 4301POPC   GL155333  21.622  43.380   5.850
 4301POPC   GL255334  21.550  43.045   5.823
 4301POPC   C1A55335  21.499  43.273   6.300
 4301POPC   D2A55336  21.615  43.464   6.722
 4301POPC   C3A55337  21.472  43.369   7.166
 4301POPC   C4A55338  21.482  43.283   7.641
 4301POPC   C1B55339  21.509  42.747   6.146
 4301POPC   C2B55340  21.465  42.774   6.570
 4301POPC   C3B55341  21.632  42.879   6.965
 4301POPC   C4B55342  21.452  42.863   7.347
 4302POPC   NC355343   2.177  20.758   5.393
 4302POPC   PO455344   1.555  21.048   5.386
 4302POPC   GL155345   1.759  20.966   5.772
 4302POPC   GL255346   1.845  20.637   5.773
 4302POPC   C1A55347   2.033  20.909   6.148
 4302POPC   D2A55348   2.036  20.792   6.579
 4302POPC   C3A55349   2.274  20.951   6.916
 4302POPC   C4A55350   2.020  20.905   7.261
 4302POPC   C1B55351   1.928  20.416   6.152
 4302POPC   C2B55352   2.323  20.449   6.358
 4302POPC   C3B55353   2.320  20.392   6.789
 4302POPC   C4B55354   2.253  20.477   7.190
 4303POPC   NC355355  37.801  43.844   5.405
 4303POPC   PO455356  37.747  44.480   5.618
 4303POPC   GL155357  37.708  44.102   5.846
 4303POPC   GL255358  37.420  43.900   5.760
 4303POPC   C1A55359  37.879  43.900   6.208
 4303POPC   D2A55360  37.815  43.701   6.621
 4303POPC   C3A55361  37.969  43.994   6.946
 4303POPC   C4A55362  38.103  43.999   7.382
 4303POPC   C1B55363  37.436  43.647   6.134
 4303POPC   C2B55364  37.314  43.733   6.540
 4303POPC   C3B55365  37.452  43.876   6.944
 4303POPC   C4B55366  37.664  43.703   7.247
 4304POPC   NC355367  43.390  36.192   5.425
 4304POPC   PO455368  42.829  35.888   5.308
 4304POPC   GL155369  42.899  36.126   5.704
 4304POPC   GL255370  43.233  36.035   5.886
 4304POPC   C1A55371  42.953  36.380   6.115
 4304POPC   D2A55372  43.141  36.449   6.515
 4304POPC   C3A55373  42.913  36.372   6.871
 4304POPC   C4A55374  43.208  36.282   7.220
 4304POPC   C1B55375  42.891  35.863   6.140
 4304POPC   C2B55376  42.810  35.967   6.560
 4304POPC   C3B55377  42.986  35.899   6.978
 4304POPC   C4B55378  43.100  35.842   7.443
 4305POPC   NC355379  23.473   4.802   5.261
 4305POPC   PO455380  23.645   5.369   5.428
 4305POPC   GL155381  23.749   4.987   5.682
 4305POPC   GL255382  23.416   4.970   5.859
 4305POPC   C1A55383  23.815   4.798   6.112
 4305POPC   D2A55384  23.591   4.949   6.494
 4305POPC   C3A55385  23.864   4.939   6.845
 4305POPC   C4A55386  23.758   4.983   7.268
 4305POPC   C1B55387  23.686   5.296   6.119
 4305POPC   C2B55388  23.831   5.418   6.558
 4305POPC   C3B55389  23.626   5.380   6.978
 4305POPC   C4B55390  23.480   5.357   7.425
 4306POPC   NC355391  30.392  12.514   5.381
 4306POPC   PO455392  29.748  12.778   5.363
 4306POPC   GL155393  29.829  12.771   5.812
 4306POPC   GL255394  29.812  13.146   5.823
 4306POPC   C1A55395  29.906  12.842   6.275
 4306POPC   D2A55396  29.745  12.951   6.697
 4306POPC   C3A55397  29.987  12.823   7.081
 4306POPC   C4A55398  29.953  12.672   7.520
 4306POPC   C1B55399  29.816  13.356   6.217
 4306POPC   C2B55400  29.760  13.461   6.647
 4306POPC   C3B55401  29.960  13.329   7.045
 4306POPC   C4B55402  30.295  13.488   7.326
 4307POPC   NC355403  28.002  37.828   5.382
 4307POPC   PO455404  27.605  37.301   5.275
 4307POPC   GL155405  27.628  37.529   5.708
 4307POPC   GL255406  27.800  37.816   5.852
 4307POPC   C1A55407  27.734  37.425   6.161
 4307POPC   D2A55408  27.835  37.565   6.583
 4307POPC   C3A55409  27.601  37.595   6.988
 4307POPC   C4A55410  27.851  37.801   7.341
 4307POPC   C1B55411  27.440  37.845   6.155
 4307POPC   C2B55412  27.469  37.917   6.604
 4307POPC   C3B55413  27.527  38.090   7.042
 4307POPC   C4B55414  27.338  37.952   7.410
 4308POPC   NC355415  12.967  17.683   5.423
 4308POPC   PO455416  12.382  17.261   5.370
 4308POPC   GL155417  12.691  17.392   5.745
 4308POPC   GL255418  13.114  17.451   5.854
 4308POPC   C1A55419  12.752  17.558   6.158
 4308POPC   D2A55420  13.005  17.367   6.465
 4308POPC   C3A55421  12.910  17.464   6.863
 4308POPC   C4A55422  12.761  17.501   7.256
 4308POPC   C1B55423  13.255  17.734   6.218
 4308POPC   C2B55424  13.315  17.779   6.708
 4308POPC   C3B55425  13.335  17.539   7.138
 4308POPC   C4B55426  13.134  17.524   7.569
 4309POPC   NC355427  28.962   9.348   5.078
 4309POPC   PO455428  29.027   8.789   5.426
 4309POPC   GL155429  29.144   8.815   5.838
 4309POPC   GL255430  29.090   9.175   5.891
 4309POPC   C1A55431  29.041   8.857   6.295
 4309POPC   D2A55432  29.157   8.633   6.677
 4309POPC   C3A55433  29.030   8.810   7.089
 4309POPC   C4A55434  29.213   8.711   7.499
 4309POPC   C1B55435  29.225   9.351   6.304
 4309POPC   C2B55436  29.121   9.222   6.730
 4309POPC   C3B55437  29.210   9.315   7.147
 4309POPC   C4B55438  29.115   9.200   7.541
 4310POPC   NC355439   3.646  38.109   5.575
 4310POPC   PO455440   3.370  37.489   5.526
 4310POPC   GL155441   3.568  37.506   5.930
 4310POPC   GL255442   3.828  37.738   5.891
 4310POPC   C1A55443   3.466  37.841   6.242
 4310POPC   D2A55444   3.371  37.992   6.632
 4310POPC   C3A55445   3.302  37.635   6.868
 4310POPC   C4A55446   3.423  37.566   7.242
 4310POPC   C1B55447   3.931  37.610   6.303
 4310POPC   C2B55448   3.800  37.714   6.704
 4310POPC   C3B55449   3.867  37.847   7.101
 4310POPC   C4B55450   4.103  37.668   7.402
 4311POPC   NC355451  23.722  23.851   5.488
 4311POPC   PO455452  23.295  23.432   5.615
 4311POPC   GL155453  23.604  23.526   5.883
 4311POPC   GL255454  23.948  23.601   5.854
 4311POPC   C1A55455  23.548  23.729   6.223
 4311POPC   D2A55456  23.585  23.563   6.590
 4311POPC   C3A55457  23.380  23.768   6.911
 4311POPC   C4A55458  23.453  23.610   7.287
 4311POPC   C1B55459  24.056  23.603   6.262
 4311POPC   C2B55460  24.082  23.783   6.651
 4311POPC   C3B55461  23.894  23.644   7.013
 4311POPC   C4B55462  23.919  23.344   7.315
 4312POPC   NC355463   6.610  23.772   5.249
 4312POPC   PO455464   7.211  23.663   5.464
 4312POPC   GL155465   6.860  23.781   5.753
 4312POPC   GL255466   6.484  23.793   5.763
 4312POPC   C1A55467   6.877  23.816   6.189
 4312POPC   D2A55468   6.788  23.523   6.523
 4312POPC   C3A55469   6.750  23.800   6.864
 4312POPC   C4A55470   6.743  23.733   7.284
 4312POPC   C1B55471   6.413  23.561   6.164
 4312POPC   C2B55472   6.299  23.618   6.615
 4312POPC   C3B55473   6.352  23.507   7.050
 4312POPC   C4B55474   6.287  23.307   7.438
 4313POPC   NC355475  40.088   3.398   5.472
 4313POPC   PO455476  39.744   3.968   5.342
 4313POPC   GL155477  39.877   3.884   5.788
 4313POPC   GL255478  40.199   3.753   5.879
 4313POPC   C1A55479  39.932   3.873   6.281
 4313POPC   D2A55480  40.201   3.605   6.583
 4313POPC   C3A55481  40.143   3.733   7.017
 4313POPC   C4A55482  39.740   3.777   7.192
 4313POPC   C1B55483  40.007   3.382   6.128
 4313POPC   C2B55484  39.951   3.127   6.507
 4313POPC   C3B55485  39.887   3.293   6.914
 4313POPC   C4B55486  39.983   3.354   7.340
 4314POPC   NC355487  44.567  21.687   5.491
 4314POPC   PO455488  44.890  22.225   5.228
 4314POPC   GL155489  44.930  22.238   5.764
 4314POPC   GL255490  44.821  21.910   5.877
 4314POPC   C1A55491  44.633  22.339   6.176
 4314POPC   D2A55492  44.436  22.188   6.592
 4314POPC   C3A55493  44.589  22.313   7.014
 4314POPC   C4A55494  44.921  22.043   7.214
 4314POPC   C1B55495  44.468  21.840   6.179
 4314POPC   C2B55496  44.328  21.689   6.583
 4314POPC   C3B55497  44.479  21.823   6.974
 4314POPC   C4B55498  44.416  21.974   7.381
 4315POPC   NC355499  30.830  11.012   5.143
 4315POPC   PO455500  30.456  11.415   5.517
 4315POPC   GL155501  30.556  11.336   5.876
 4315POPC   GL255502  30.659  10.998   5.851
 4315POPC   C1A55503  30.501  11.518   6.255
 4315POPC   D2A55504  30.435  11.255   6.578
 4315POPC   C3A55505  30.605  11.387   6.963
 4315POPC   C4A55506  30.766  11.064   7.231
 4315POPC   C1B55507  30.862  11.125   6.261
 4315POPC   C2B55508  31.064  11.240   6.676
 4315POPC   C3B55509  31.231  10.977   7.028
 4315POPC   C4B55510  31.192  10.866   7.479
 4316POPC   NC355511   7.715  32.208   5.377
 4316POPC   PO455512   8.258  31.831   5.446
 4316POPC   GL155513   8.338  32.036   5.840
 4316POPC   GL255514   8.069  32.243   5.796
 4316POPC   C1A55515   8.320  32.215   6.285
 4316POPC   D2A55516   8.572  32.120   6.682
 4316POPC   C3A55517   8.489  32.295   7.070
 4316POPC   C4A55518   8.142  32.479   7.204
 4316POPC   C1B55519   7.924  31.925   6.110
 4316POPC   C2B55520   7.821  32.098   6.506
 4316POPC   C3B55521   8.069  32.065   6.863
 4316POPC   C4B55522   8.032  31.973   7.285
 4317POPC   NC355523  30.506   6.006   5.409
 4317POPC   PO455524  30.323   5.469   5.608
 4317POPC   GL155525  30.647   5.662   5.896
 4317POPC   GL255526  30.471   5.953   5.930
 4317POPC   C1A55527  30.745   5.774   6.371
 4317POPC   D2A55528  30.542   6.066   6.668
 4317POPC   C3A55529  30.518   5.875   7.094
 4317POPC   C4A55530  30.746   5.490   7.198
 4317POPC   C1B55531  30.875   6.127   6.055
 4317POPC   C2B55532  31.024   6.213   6.516
 4317POPC   C3B55533  31.141   6.302   6.968
 4317POPC   C4B55534  30.924   6.069   7.350
 4318POPC   NC355535  22.321  38.388   5.117
 4318POPC   PO455536  21.921  38.657   5.643
 4318POPC   GL155537  22.194  38.571   5.925
 4318POPC   GL255538  22.428  38.307   5.848
 4318POPC   C1A55539  22.137  38.570   6.358
 4318POPC   D2A55540  21.932  38.346   6.661
 4318POPC   C3A55541  21.767  38.616   6.949
 4318POPC   C4A55542  21.959  38.716   7.293
 4318POPC   C1B55543  22.624  38.613   6.180
 4318POPC   C2B55544  22.589  38.666   6.599
 4318POPC   C3B55545  22.349  38.558   6.959
 4318POPC   C4B55546  22.270  38.281   7.282
 4319POPC   NC355547  36.576  19.812   5.578
 4319POPC   PO455548  36.991  20.312   5.225
 4319POPC   GL155549  37.030  20.078   5.670
 4319POPC   GL255550  37.345  20.061   5.884
 4319POPC   C1A55551  36.913  20.183   6.131
 4319POPC   D2A55552  36.948  20.089   6.578
 4319POPC   C3A55553  36.603  20.030   6.895
 4319POPC   C4A55554  36.588  19.784   7.250
 4319POPC   C1B55555  37.252  19.716   6.201
 4319POPC   C2B55556  37.238  19.504   6.632
 4319POPC   C3B55557  37.035  19.749   6.957
 4319POPC   C4B55558  37.075  19.850   7.394
 4320POPC   NC355559  19.322  16.485   5.445
 4320POPC   PO455560  19.051  17.115   5.348
 4320POPC   GL155561  19.036  16.940   5.798
 4320POPC   GL255562  19.092  16.589   5.874
 4320POPC   C1A55563  19.218  16.897   6.229
 4320POPC   D2A55564  19.121  16.723   6.583
 4320POPC   C3A55565  19.002  17.045   6.809
 4320POPC   C4A55566  19.118  17.006   7.197
 4320POPC   C1B55567  18.916  16.408   6.249
 4320POPC   C2B55568  18.827  16.273   6.667
 4320POPC   C3B55569  18.881  16.535   7.032
 4320POPC   C4B55570  19.180  16.468   7.367
 4321POPC   NC355571  40.961  27.861   5.408
 4321POPC   PO455572  41.634  27.630   5.232
 4321POPC   GL155573  41.482  27.572   5.666
 4321POPC   GL255574  41.149  27.576   5.797
 4321POPC   C1A55575  41.606  27.597   6.111
 4321POPC   D2A55576  41.778  27.302   6.408
 4321POPC   C3A55577  41.890  27.362   6.822
 4321POPC   C4A55578  41.768  27.630   7.117
 4321POPC   C1B55579  41.115  27.762   6.215
 4321POPC   C2B55580  41.353  27.597   6.569
 4321POPC   C3B55581  41.281  27.552   6.988
 4321POPC   C4B55582  41.371  27.712   7.410
 4322POPC   NC355583  43.464   7.020   5.456
 4322POPC   PO455584  42.949   6.597   5.315
 4322POPC   GL155585  43.203   6.674   5.771
 4322POPC   GL255586  43.272   7.014   5.940
 4322POPC   C1A55587  43.173   6.601   6.260
 4322POPC   D2A55588  43.274   6.376   6.682
 4322POPC   C3A55589  43.012   6.434   7.105
 4322POPC   C4A55590  42.893   6.331   7.565
 4322POPC   C1B55591  43.539   7.000   6.326
 4322POPC   C2B55592  43.524   6.881   6.768
 4322POPC   C3B55593  43.324   6.827   7.164
 4322POPC   C4B55594  43.262   6.987   7.571
 4323POPC   NC355595  39.279  17.732   5.510
 4323POPC   PO455596  39.138  17.056   5.382
 4323POPC   GL155597  39.107  17.361   5.794
 4323POPC   GL255598  39.452  17.571   5.949
 4323POPC   C1A55599  39.080  17.465   6.250
 4323POPC   D2A55600  39.376  17.321   6.554
 4323POPC   C3A55601  39.277  17.319   6.981
 4323POPC   C4A55602  38.965  17.437   7.232
 4323POPC   C1B55603  39.541  17.791   6.356
 4323POPC   C2B55604  39.469  17.784   6.829
 4323POPC   C3B55605  39.520  17.703   7.307
 4323POPC   C4B55606  39.577  17.676   7.797
 4324POPC   NC355607  24.796  43.852   5.402
 4324POPC   PO455608  24.148  43.876   5.371
 4324POPC   GL155609  24.396  43.771   5.767
 4324POPC   GL255610  24.232  43.516   5.987
 4324POPC   C1A55611  24.633  43.749   6.175
 4324POPC   D2A55612  24.471  43.848   6.595
 4324POPC   C3A55613  24.582  43.886   7.016
 4324POPC   C4A55614  24.395  44.117   7.335
 4324POPC   C1B55615  24.075  43.750   6.286
 4324POPC   C2B55616  23.948  43.928   6.655
 4324POPC   C3B55617  24.070  43.799   7.044
 4324POPC   C4B55618  24.206  43.661   7.443
 4325POPC   NC355619  27.494  43.049   5.294
 4325POPC   PO455620  27.382  43.604   5.218
 4325POPC   GL155621  27.499  43.423   5.723
 4325POPC   GL255622  27.585  43.141   5.841
 4325POPC   C1A55623  27.420  43.517   6.193
 4325POPC   D2A55624  27.313  43.433   6.665
 4325POPC   C3A55625  27.537  43.158   7.006
 4325POPC   C4A55626  27.505  43.197   7.434
 4325POPC   C1B55627  27.867  42.884   6.091
 4325POPC   C2B55628  27.976  42.767   6.514
 4325POPC   C3B55629  27.890  42.789   6.945
 4325POPC   C4B55630  27.943  42.929   7.349
 4326POPC   NC355631  12.079  32.300   5.280
 4326POPC   PO455632  12.050  31.735   5.467
 4326POPC   GL155633  11.917  32.071   5.719
 4326POPC   GL255634  12.222  32.265   5.780
 4326POPC   C1A55635  11.784  32.268   6.111
 4326POPC   D2A55636  12.026  32.219   6.501
 4326POPC   C3A55637  11.862  32.271   6.913
 4326POPC   C4A55638  11.856  32.608   7.170
 4326POPC   C1B55639  12.249  32.554   6.126
 4326POPC   C2B55640  12.252  32.688   6.548
 4326POPC   C3B55641  12.334  32.488   6.946
 4326POPC   C4B55642  12.325  32.593   7.377
 4327POPC   NC355643  17.952  20.697   5.399
 4327POPC   PO455644  18.481  20.258   5.495
 4327POPC   GL155645  18.372  20.540   5.824
 4327POPC   GL255646  18.578  20.849   5.917
 4327POPC   C1A55647  18.108  20.614   6.172
 4327POPC   D2A55648  18.007  20.777   6.569
 4327POPC   C3A55649  18.114  20.568   6.942
 4327POPC   C4A55650  18.338  20.407   7.288
 4327POPC   C1B55651  18.646  20.917   6.340
 4327POPC   C2B55652  18.455  21.013   6.744
 4327POPC   C3B55653  18.422  20.910   7.201
 4327POPC   C4B55654  18.546  21.120   7.598
 4328POPC   NC355655  41.019   9.648   5.440
 4328POPC   PO455656  41.506  10.108   5.710
 4328POPC   GL155657  41.194   9.745   5.918
 4328POPC   GL255658  40.791   9.550   5.859
 4328POPC   C1A55659  40.900   9.765   6.275
 4328POPC   D2A55660  40.767   9.996   6.576
 4328POPC   C3A55661  40.692   9.867   6.974
 4328POPC   C4A55662  40.856   9.683   7.332
 4328POPC   C1B55663  40.634   9.328   6.229
 4328POPC   C2B55664  40.586   9.450   6.667
 4328POPC   C3B55665  40.453   9.445   7.112
 4328POPC   C4B55666  40.456   9.445   7.583
 4329POPC   NC355667  34.186  20.600   5.435
 4329POPC   PO455668  33.547  20.562   5.414
 4329POPC   GL155669  33.794  20.419   5.721
 4329POPC   GL255670  33.916  20.769   5.840
 4329POPC   C1A55671  33.898  20.340   6.124
 4329POPC   D2A55672  33.925  20.572   6.511
 4329POPC   C3A55673  33.642  20.400   6.828
 4329POPC   C4A55674  33.682  20.457   7.265
 4329POPC   C1B55675  33.646  20.970   6.169
 4329POPC   C2B55676  33.536  20.879   6.611
 4329POPC   C3B55677  33.809  20.856   6.944
 4329POPC   C4B55678  33.725  20.974   7.323
 4330POPC   NC355679   8.889  38.090   5.446
 4330POPC   PO455680   9.361  38.641   5.484
 4330POPC   GL155681   9.099  38.425   5.821
 4330POPC   GL255682   8.785  38.263   5.935
 4330POPC   C1A55683   9.142  38.477   6.255
 4330POPC   D2A55684   9.302  38.290   6.623
 4330POPC   C3A55685   9.161  38.543   6.945
 4330POPC   C4A55686   9.160  38.713   7.347
 4330POPC   C1B55687   8.618  38.503   6.334
 4330POPC   C2B55688   8.617  38.519   6.816
 4330POPC   C3B55689   8.771  38.372   7.225
 4330POPC   C4B55690   8.856  38.419   7.672
 4331POPC   NC355691  32.270  21.940   5.427
 4331POPC   PO455692  31.753  22.413   5.380
 4331POPC   GL155693  31.995  22.192   5.780
 4331POPC   GL255694  32.276  22.375   5.894
 4331POPC   C1A55695  32.191  21.939   6.190
 4331POPC   D2A55696  32.280  22.041   6.678
 4331POPC   C3A55697  32.308  21.882   7.120
 4331POPC   C4A55698  32.143  22.072   7.513
 4331POPC   C1B55699  32.495  22.332   6.310
 4331POPC   C2B55700  32.495  22.508   6.743
 4331POPC   C3B55701  32.331  22.411   7.170
 4331POPC   C4B55702  32.401  22.480   7.615
 4332POPC   NC355703  37.492  13.518   5.449
 4332POPC   PO455704  37.767  14.102   5.518
 4332POPC   GL155705  37.559  13.831   5.852
 4332POPC   GL255706  37.281  13.538   5.894
 4332POPC   C1A55707  37.708  13.615   6.209
 4332POPC   D2A55708  37.904  13.534   6.585
 4332POPC   C3A55709  37.710  13.708   6.930
 4332POPC   C4A55710  37.846  13.553   7.290
 4332POPC   C1B55711  37.326  13.268   6.223
 4332POPC   C2B55712  37.450  13.309   6.654
 4332POPC   C3B55713  37.230  13.528   6.956
 4332POPC   C4B55714  37.334  13.677   7.367
 4333POPC   NC355715  24.587  16.464   5.028
 4333POPC   PO455716  24.217  16.803   5.470
 4333POPC   GL155717  24.393  16.606   5.821
 4333POPC   GL255718  24.722  16.591   5.843
 4333POPC   C1A55719  24.406  16.697   6.270
 4333POPC   D2A55720  24.574  16.855   6.657
 4333POPC   C3A55721  24.333  16.864   7.024
 4333POPC   C4A55722  24.353  16.738   7.490
 4333POPC   C1B55723  24.789  16.334   6.210
 4333POPC   C2B55724  24.625  16.326   6.632
 4333POPC   C3B55725  24.699  16.506   7.062
 4333POPC   C4B55726  24.839  16.606   7.520
 4334POPC   NC355727  20.683  17.004   5.476
 4334POPC   PO455728  20.505  16.421   5.197
 4334POPC   GL155729  20.449  16.483   5.700
 4334POPC   GL255730  20.403  16.820   5.838
 4334POPC   C1A55731  20.580  16.509   6.191
 4334POPC   D2A55732  20.844  16.789   6.505
 4334POPC   C3A55733  20.959  16.650   6.954
 4334POPC   C4A55734  20.695  16.664   7.318
 4334POPC   C1B55735  20.286  17.104   6.178
 4334POPC   C2B55736  20.409  17.172   6.594
 4334POPC   C3B55737  20.525  16.909   6.893
 4334POPC   C4B55738  20.385  17.096   7.209
 4335POPC   NC355739  17.319  14.036   5.565
 4335POPC   PO455740  17.589  14.466   5.130
 4335POPC   GL155741  17.633  14.474   5.639
 4335POPC   GL255742  17.361  14.431   5.910
 4335POPC   C1A55743  17.811  14.579   6.093
 4335POPC   D2A55744  17.860  14.437   6.555
 4335POPC   C3A55745  17.911  14.579   7.002
 4335POPC   C4A55746  17.490  14.717   7.077
 4335POPC   C1B55747  17.540  14.098   6.186
 4335POPC   C2B55748  17.627  13.966   6.617
 4335POPC   C3B55749  17.456  14.190   7.013
 4335POPC   C4B55750  17.235  14.195   7.443
 4336POPC   NC355751   2.691   6.919   5.644
 4336POPC   PO455752   2.706   7.492   5.368
 4336POPC   GL155753   2.838   7.414   5.793
 4336POPC   GL255754   2.488   7.367   5.853
 4336POPC   C1A55755   2.870   7.401   6.249
 4336POPC   D2A55756   2.640   7.353   6.662
 4336POPC   C3A55757   2.886   7.301   7.058
 4336POPC   C4A55758   3.072   7.518   7.401
 4336POPC   C1B55759   2.541   7.763   6.072
 4336POPC   C2B55760   2.705   7.856   6.499
 4336POPC   C3B55761   2.659   7.768   6.963
 4336POPC   C4B55762   2.393   7.449   7.128
 4337POPC   NC355763  43.685  29.805   5.451
 4337POPC   PO455764  44.190  30.338   5.385
 4337POPC   GL155765  43.952  30.076   5.797
 4337POPC   GL255766  43.556  29.961   5.925
 4337POPC   C1A55767  43.929  29.767   6.170
 4337POPC   D2A55768  43.702  29.776   6.562
 4337POPC   C3A55769  43.923  29.642   6.919
 4337POPC   C4A55770  43.941  29.713   7.326
 4337POPC   C1B55771  43.627  30.223   6.264
 4337POPC   C2B55772  43.818  30.268   6.655
 4337POPC   C3B55773  43.936  30.145   7.044
 4337POPC   C4B55774  43.845  30.189   7.494
 4338POPC   NC355775  42.822   9.474   5.508
 4338POPC   PO455776  42.255   9.756   5.404
 4338POPC   GL155777  42.346   9.631   5.815
 4338POPC   GL255778  42.153   9.350   5.974
 4338POPC   C1A55779  42.274   9.829   6.208
 4338POPC   D2A55780  42.373  10.098   6.524
 4338POPC   C3A55781  42.215  10.010   6.912
 4338POPC   C4A55782  42.438   9.866   7.240
 4338POPC   C1B55783  42.470   9.380   6.280
 4338POPC   C2B55784  42.412   9.592   6.671
 4338POPC   C3B55785  42.179   9.462   7.017
 4338POPC   C4B55786  42.352   9.372   7.402
 4339POPC   NC355787   3.652  20.880   5.503
 4339POPC   PO455788   3.337  20.126   5.489
 4339POPC   GL155789   3.523  20.439   5.757
 4339POPC   GL255790   3.345  20.741   5.902
 4339POPC   C1A55791   3.729  20.489   6.142
 4339POPC   D2A55792   3.579  20.619   6.544
 4339POPC   C3A55793   3.728  20.412   6.898
 4339POPC   C4A55794   3.582  20.414   7.314
 4339POPC   C1B55795   3.635  20.985   6.184
 4339POPC   C2B55796   3.652  21.130   6.631
 4339POPC   C3B55797   3.615  20.916   7.049
 4339POPC   C4B55798   3.282  20.837   7.316
 4340POPC   NC355799  31.849  38.168   5.194
 4340POPC   PO455800  31.467  38.796   5.180
 4340POPC   GL155801  31.449  38.499   5.653
 4340POPC   GL255802  31.592  38.170   5.748
 4340POPC   C1A55803  31.312  38.311   6.152
 4340POPC   D2A55804  31.508  38.158   6.614
 4340POPC   C3A55805  31.387  38.176   7.100
 4340POPC   C4A55806  31.204  38.553   7.282
 4340POPC   C1B55807  31.806  38.396   6.164
 4340POPC   C2B55808  31.871  38.551   6.590
 4340POPC   C3B55809  31.765  38.502   7.022
 4340POPC   C4B55810  31.676  38.645   7.452
 4341POPC   NC355811  29.657  13.688   5.168
 4341POPC   PO455812  28.982  13.387   5.156
 4341POPC   GL155813  29.061  13.651   5.601
 4341POPC   GL255814  29.021  13.373   5.777
 4341POPC   C1A55815  29.011  13.787   6.095
 4341POPC   D2A55816  29.118  13.793   6.567
 4341POPC   C3A55817  29.029  13.546   6.907
 4341POPC   C4A55818  28.996  13.709   7.290
 4341POPC   C1B55819  29.297  13.350   6.147
 4341POPC   C2B55820  29.304  13.221   6.582
 4341POPC   C3B55821  29.438  13.256   7.016
 4341POPC   C4B55822  29.300  13.326   7.442
 4342POPC   NC355823  11.989  38.734   5.506
 4342POPC   PO455824  12.510  38.429   5.697
 4342POPC   GL155825  12.148  38.336   5.909
 4342POPC   GL255826  11.802  38.263   5.799
 4342POPC   C1A55827  12.249  38.255   6.308
 4342POPC   D2A55828  12.481  38.494   6.585
 4342POPC   C3A55829  12.298  38.707   6.907
 4342POPC   C4A55830  12.353  38.545   7.288
 4342POPC   C1B55831  11.759  38.416   6.250
 4342POPC   C2B55832  11.936  38.367   6.705
 4342POPC   C3B55833  11.878  38.360   7.183
 4342POPC   C4B55834  11.818  38.176   7.626
 4343POPC   NC355835   7.843  16.876   5.283
 4343POPC   PO455836   8.372  16.588   5.304
 4343POPC   GL155837   8.215  16.620   5.754
 4343POPC   GL255838   8.009  16.869   5.761
 4343POPC   C1A55839   8.364  16.677   6.220
 4343POPC   D2A55840   8.342  16.793   6.672
 4343POPC   C3A55841   8.411  16.579   7.080
 4343POPC   C4A55842   8.458  16.764   7.482
 4343POPC   C1B55843   7.865  16.649   6.123
 4343POPC   C2B55844   7.956  16.493   6.535
 4343POPC   C3B55845   7.919  16.635   6.954
 4343POPC   C4B55846   8.025  16.500   7.395
 4344POPC   NC355847  10.993  19.297   5.485
 4344POPC   PO455848  11.455  18.732   5.358
 4344POPC   GL155849  11.276  18.937   5.752
 4344POPC   GL255850  10.948  18.804   5.677
 4344POPC   C1A55851  11.229  19.272   6.143
 4344POPC   D2A55852  11.224  19.489   6.602
 4344POPC   C3A55853  11.403  19.324   6.969
 4344POPC   C4A55854  11.226  19.225   7.377
 4344POPC   C1B55855  10.887  18.843   6.134
 4344POPC   C2B55856  11.029  19.013   6.556
 4344POPC   C3B55857  11.210  18.859   6.949
 4344POPC   C4B55858  10.955  18.745   7.252
 4345POPC   NC355859  44.671   0.964   5.476
 4345POPC   PO455860  44.270   1.441   5.219
 4345POPC   GL155861  44.523   1.432   5.682
 4345POPC   GL255862  44.863   1.275   5.819
 4345POPC   C1A55863  44.456   1.308   6.168
 4345POPC   D2A55864  44.597   1.069   6.561
 4345POPC   C3A55865  44.416   1.187   6.966
 4345POPC   C4A55866  44.422   1.118   7.397
 4345POPC   C1B55867  44.974   1.076   6.221
 4345POPC   C2B55868   0.077   0.902   6.634
 4345POPC   C3B55869  44.935   1.072   7.035
 4345POPC   C4B55870   0.173   1.110   7.410
 4346POPC   NC355871   8.120  13.086   5.352
 4346POPC   PO455872   7.709  12.486   5.498
 4346POPC   GL155873   8.144  12.644   5.775
 4346POPC   GL255874   8.238  13.017   5.828
 4346POPC   C1A55875   8.242  12.731   6.252
 4346POPC   D2A55876   8.172  13.115   6.543
 4346POPC   C3A55877   7.995  13.055   6.968
 4346POPC   C4A55878   8.024  12.798   7.344
 4346POPC   C1B55879   8.508  13.145   6.141
 4346POPC   C2B55880   8.652  12.951   6.524
 4346POPC   C3B55881   8.499  12.825   6.925
 4346POPC   C4B55882   8.438  13.118   7.244
 4347POPC   NC355883  44.315  24.071   5.200
 4347POPC   PO455884  43.805  24.541   5.291
 4347POPC   GL155885  43.733  24.530   5.789
 4347POPC   GL255886  43.496  24.290   5.907
 4347POPC   C1A55887  43.585  24.721   6.220
 4347POPC   D2A55888  43.821  24.868   6.614
 4347POPC   C3A55889  43.882  24.608   6.998
 4347POPC   C4A55890  44.169  24.295   7.174
 4347POPC   C1B55891  43.769  24.235   6.295
 4347POPC   C2B55892  43.838  24.133   6.755
 4347POPC   C3B55893  43.700  24.056   7.188
 4347POPC   C4B55894  43.630  24.232   7.614
 4348POPC   NC355895   1.576  40.088   5.507
 4348POPC   PO455896   2.243  39.833   5.522
 4348POPC   GL155897   2.103  39.873   5.900
 4348POPC   GL255898   1.775  39.719   5.899
 4348POPC   C1A55899   2.137  39.715   6.301
 4348POPC   D2A55900   1.881  39.833   6.622
 4348POPC   C3A55901   2.097  40.117   6.905
 4348POPC   C4A55902   2.082  39.761   7.181
 4348POPC   C1B55903   1.717  40.089   6.194
 4348POPC   C2B55904   1.618  40.278   6.605
 4348POPC   C3B55905   1.621  40.045   7.011
 4348POPC   C4B55906   1.803  40.237   7.347
 4349POPC   NC355907  36.933  40.806   5.319
 4349POPC   PO455908  36.517  40.299   5.457
 4349POPC   GL155909  36.616  40.616   5.792
 4349POPC   GL255910  36.986  40.661   5.800
 4349POPC   C1A55911  36.743  40.884   6.192
 4349POPC   D2A55912  37.046  40.952   6.574
 4349POPC   C3A55913  36.874  40.968   7.003
 4349POPC   C4A55914  36.730  40.710   7.334
 4349POPC   C1B55915  37.183  40.620   6.195
 4349POPC   C2B55916  37.308  40.467   6.566
 4349POPC   C3B55917  37.188  40.533   6.974
 4349POPC   C4B55918  37.363  40.879   7.188
 4350POPC   NC355919  39.465  25.519   5.480
 4350POPC   PO455920  38.930  25.381   5.076
 4350POPC   GL155921  39.057  25.251   5.598
 4350POPC   GL255922  39.419  25.110   5.767
 4350POPC   C1A55923  39.062  25.225   6.095
 4350POPC   D2A55924  39.060  24.966   6.477
 4350POPC   C3A55925  38.931  25.087   6.890
 4350POPC   C4A55926  39.109  25.097   7.291
 4350POPC   C1B55927  39.578  25.407   6.095
 4350POPC   C2B55928  39.570  25.431   6.546
 4350POPC   C3B55929  39.393  25.374   6.946
 4350POPC   C4B55930  39.538  25.381   7.362
 4351POPC   NC355931   6.909  31.346   5.565
 4351POPC   PO455932   7.483  31.788   5.498
 4351POPC   GL155933   7.553  31.633   5.863
 4351POPC   GL255934   7.317  31.387   5.916
 4351POPC   C1A55935   7.448  31.787   6.267
 4351POPC   D2A55936   7.349  31.940   6.651
 4351POPC   C3A55937   7.585  31.859   7.009
 4351POPC   C4A55938   7.534  31.415   7.089
 4351POPC   C1B55939   7.073  31.413   6.308
 4351POPC   C2B55940   6.959  31.231   6.720
 4351POPC   C3B55941   7.039  31.307   7.165
 4351POPC   C4B55942   7.176  31.696   7.305
 4352POPC   NC355943  24.839  25.973   5.411
 4352POPC   PO455944  24.163  26.115   5.480
 4352POPC   GL155945  24.474  25.907   5.749
 4352POPC   GL255946  24.610  26.239   5.793
 4352POPC   C1A55947  24.586  25.846   6.178
 4352POPC   D2A55948  24.346  25.965   6.532
 4352POPC   C3A55949  24.466  25.810   6.927
 4352POPC   C4A55950  24.333  25.917   7.357
 4352POPC   C1B55951  24.724  26.334   6.211
 4352POPC   C2B55952  24.861  26.131   6.600
 4352POPC   C3B55953  24.733  26.281   7.008
 4352POPC   C4B55954  24.673  26.264   7.492
 4353POPC   NC355955   0.764  10.249   5.392
 4353POPC   PO455956   1.434  10.554   5.350
 4353POPC   GL155957   1.320  10.613   5.791
 4353POPC   GL255958   0.989  10.570   5.760
 4353POPC   C1A55959   1.190  10.719   6.241
 4353POPC   D2A55960   0.998  10.710   6.671
 4353POPC   C3A55961   1.209  10.651   7.101
 4353POPC   C4A55962   1.138  10.968   7.441
 4353POPC   C1B55963   1.059  10.264   6.087
 4353POPC   C2B55964   1.121  10.228   6.503
 4353POPC   C3B55965   0.945  10.241   6.919
 4353POPC   C4B55966   1.028  10.041   7.295
 4354POPC   NC355967  44.184  13.504   5.500
 4354POPC   PO455968  44.676  14.023   5.489
 4354POPC   GL155969  44.766  13.761   5.871
 4354POPC   GL255970  44.718  13.373   5.829
 4354POPC   C1A55971  44.781  13.598   6.307
 4354POPC   D2A55972  44.423  13.537   6.576
 4354POPC   C3A55973  44.482  13.785   6.895
 4354POPC   C4A55974  44.489  13.787   7.300
 4354POPC   C1B55975  44.593  13.112   6.205
 4354POPC   C2B55976  44.698  13.116   6.638
 4354POPC   C3B55977  44.874  13.431   6.911
 4354POPC   C4B55978  44.871  13.436   7.349
 4355POPC   NC355979  21.724  15.721   5.456
 4355POPC   PO455980  22.374  15.726   5.468
 4355POPC   GL155981  22.305  15.826   5.889
 4355POPC   GL255982  21.923  15.870   5.902
 4355POPC   C1A55983  22.180  15.917   6.328
 4355POPC   D2A55984  22.106  16.207   6.665
 4355POPC   C3A55985  22.186  15.998   7.058
 4355POPC   C4A55986  22.452  15.643   7.209
 4355POPC   C1B55987  21.738  16.170   6.235
 4355POPC   C2B55988  21.583  16.307   6.659
 4355POPC   C3B55989  21.780  16.339   7.062
 4355POPC   C4B55990  22.048  16.326   7.439
 4356POPC   NC355991  35.202  22.020   5.346
 4356POPC   PO455992  35.000  22.574   5.182
 4356POPC   GL155993  35.245  22.450   5.683
 4356POPC   GL255994  35.288  22.086   5.820
 4356POPC   C1A55995  35.511  22.405   6.106
 4356POPC   D2A55996  35.672  22.367   6.535
 4356POPC   C3A55997  35.431  22.442   6.918
 4356POPC   C4A55998  35.062  22.298   7.131
 4356POPC   C1B55999  35.431  21.899   6.229
 4356POPC   C2B56000  35.277  21.989   6.654
 4356POPC   C3B56001  35.406  21.889   7.056
 4356POPC   C4B56002  35.640  21.580   7.284
 4357POPC   NC356003  23.802   0.789   5.114
 4357POPC   PO456004  23.657   0.306   5.529
 4357POPC   GL156005  23.798   0.430   5.909
 4357POPC   GL256006  23.803   0.764   5.905
 4357POPC   C1A56007  23.833   0.277   6.324
 4357POPC   D2A56008  23.605   0.193   6.692
 4357POPC   C3A56009  23.804   0.201   7.112
 4357POPC   C4A56010  23.709   0.265   7.552
 4357POPC   C1B56011  23.711   0.928   6.326
 4357POPC   C2B56012  23.539   0.727   6.723
 4357POPC   C3B56013  23.507   0.639   7.184
 4357POPC   C4B56014  23.667   0.773   7.615
 4358POPC   NC356015  44.944  15.151   5.344
 4358POPC   PO456016  44.295  14.925   5.535
 4358POPC   GL156017  44.568  15.145   5.832
 4358POPC   GL256018  44.935  15.093   5.840
 4358POPC   C1A56019  44.480  15.292   6.258
 4358POPC   D2A56020  44.250  15.142   6.601
 4358POPC   C3A56021  44.425  15.200   7.025
 4358POPC   C4A56022  44.373  15.027   7.429
 4358POPC   C1B56023   0.000  15.214   6.247
 4358POPC   C2B56024  44.847  15.220   6.638
 4358POPC   C3B56025  44.934  15.258   7.045
 4358POPC   C4B56026  44.705  15.586   7.266
 4359POPC   NC356027  24.987  35.035   5.591
 4359POPC   PO456028  25.619  34.914   5.433
 4359POPC   GL156029  25.413  34.791   5.799
 4359POPC   GL256030  25.254  34.460   5.880
 4359POPC   C1A56031  25.339  34.844   6.218
 4359POPC   D2A56032  25.399  34.545   6.541
 4359POPC   C3A56033  25.295  34.730   6.908
 4359POPC   C4A56034  25.420  34.560   7.275
 4359POPC   C1B56035  24.987  34.472   6.232
 4359POPC   C2B56036  24.970  34.250   6.595
 4359POPC   C3B56037  25.200  34.217   6.957
 4359POPC   C4B56038  25.170  34.102   7.364
 4360POPC   NC356039  28.189  34.270   5.514
 4360POPC   PO456040  28.281  34.882   5.482
 4360POPC   GL156041  28.250  34.678   5.879
 4360POPC   GL256042  28.520  34.404   5.877
 4360POPC   C1A56043  28.298  34.886   6.286
 4360POPC   D2A56044  28.485  34.776   6.684
 4360POPC   C3A56045  28.217  34.735   6.993
 4360POPC   C4A56046  28.017  34.818   7.357
 4360POPC   C1B56047  28.428  34.393   6.309
 4360POPC   C2B56048  28.311  34.273   6.709
 4360POPC   C3B56049  28.579  34.348   7.044
 4360POPC   C4B56050  28.556  34.659   7.372
 4361POPC   NC356051  42.562  12.635   5.488
 4361POPC   PO456052  41.972  12.668   5.306
 4361POPC   GL156053  42.143  12.830   5.754
 4361POPC   GL256054  42.455  13.076   5.756
 4361POPC   C1A56055  42.120  13.080   6.168
 4361POPC   D2A56056  42.410  13.172   6.541
 4361POPC   C3A56057  42.275  13.023   6.912
 4361POPC   C4A56058  42.245  12.772   7.290
 4361POPC   C1B56059  42.664  12.993   6.156
 4361POPC   C2B56060  42.727  12.710   6.523
 4361POPC   C3B56061  42.637  12.675   6.954
 4361POPC   C4B56062  42.784  12.872   7.330
 4362POPC   NC356063  35.590  42.902   5.375
 4362POPC   PO456064  35.162  43.303   5.144
 4362POPC   GL156065  35.275  43.197   5.654
 4362POPC   GL256066  35.383  42.873   5.822
 4362POPC   C1A56067  35.392  43.277   6.101
 4362POPC   D2A56068  35.237  43.077   6.469
 4362POPC   C3A56069  35.361  43.278   6.812
 4362POPC   C4A56070  35.179  43.265   7.221
 4362POPC   C1B56071  35.216  42.661   6.180
 4362POPC   C2B56072  35.316  42.581   6.625
 4362POPC   C3B56073  35.266  42.804   7.002
 4362POPC   C4B56074  35.124  42.794   7.418
 4363POPC   NC356075  32.996   2.275   5.187
 4363POPC   PO456076  32.795   2.135   5.801
 4363POPC   GL156077  33.202   2.090   5.956
 4363POPC   GL256078  33.256   1.768   5.887
 4363POPC   C1A56079  33.180   2.319   6.320
 4363POPC   D2A56080  32.963   2.216   6.677
 4363POPC   C3A56081  33.171   2.143   7.040
 4363POPC   C4A56082  32.942   2.112   7.447
 4363POPC   C1B56083  33.083   1.800   6.348
 4363POPC   C2B56084  32.923   1.705   6.775
 4363POPC   C3B56085  33.025   1.689   7.195
 4363POPC   C4B56086  33.390   1.923   7.452
 4364POPC   NC356087  31.624  16.820   5.121
 4364POPC   PO456088  31.181  16.459   5.495
 4364POPC   GL156089  31.491  16.630   5.768
 4364POPC   GL256090  31.717  16.905   5.659
 4364POPC   C1A56091  31.458  16.771   6.194
 4364POPC   D2A56092  31.589  16.857   6.617
 4364POPC   C3A56093  31.340  16.997   6.987
 4364POPC   C4A56094  31.127  16.807   7.351
 4364POPC   C1B56095  31.882  17.044   6.113
 4364POPC   C2B56096  31.903  17.260   6.536
 4364POPC   C3B56097  31.857  17.114   6.969
 4364POPC   C4B56098  31.679  17.104   7.394
 4365POPC   NC356099  34.826  36.116   5.512
 4365POPC   PO456100  34.216  35.842   5.461
 4365POPC   GL156101  34.391  36.048   5.813
 4365POPC   GL256102  34.596  35.759   5.907
 4365POPC   C1A56103  34.400  36.124   6.272
 4365POPC   D2A56104  34.693  36.199   6.647
 4365POPC   C3A56105  34.533  36.181   7.055
 4365POPC   C4A56106  34.174  36.017   7.240
 4365POPC   C1B56107  34.874  35.940   6.232
 4365POPC   C2B56108  35.105  35.878   6.624
 4365POPC   C3B56109  34.884  35.777   6.984
 4365POPC   C4B56110  34.700  35.789   7.367
 4366POPC   NC356111   7.209  16.193   4.971
 4366POPC   PO456112   7.616  16.046   5.482
 4366POPC   GL156113   7.473  15.849   5.833
 4366POPC   GL256114   7.108  15.842   5.840
 4366POPC   C1A56115   7.420  15.870   6.269
 4366POPC   D2A56116   7.656  16.082   6.568
 4366POPC   C3A56117   7.572  15.938   6.971
 4366POPC   C4A56118   7.697  16.123   7.344
 4366POPC   C1B56119   6.978  16.111   6.188
 4366POPC   C2B56120   7.103  16.220   6.599
 4366POPC   C3B56121   6.915  16.306   6.995
 4366POPC   C4B56122   7.021  16.026   7.316
 4367POPC   NC356123  13.948   7.732   5.387
 4367POPC   PO456124  13.418   7.422   5.402
 4367POPC   GL156125  13.419   7.338   5.835
 4367POPC   GL256126  13.753   7.206   5.859
 4367POPC   C1A56127  13.519   7.547   6.241
 4367POPC   D2A56128  13.842   7.493   6.557
 4367POPC   C3A56129  13.642   7.537   6.953
 4367POPC   C4A56130  13.655   7.579   7.405
 4367POPC   C1B56131  13.671   7.057   6.286
 4367POPC   C2B56132  13.662   7.056   6.745
 4367POPC   C3B56133  13.706   7.065   7.203
 4367POPC   C4B56134  13.383   7.112   7.474
 4368POPC   NC356135   0.026   6.428   5.438
 4368POPC   PO456136  44.804   6.988   5.439
 4368POPC   GL156137  44.703   6.726   5.784
 4368POPC   GL256138  44.836   6.402   5.928
 4368POPC   C1A56139  44.539   6.780   6.189
 4368POPC   D2A56140  44.633   6.587   6.572
 4368POPC   C3A56141  44.721   6.880   6.884
 4368POPC   C4A56142  44.662   6.776   7.308
 4368POPC   C1B56143  44.461   6.276   6.186
 4368POPC   C2B56144  44.284   6.204   6.623
 4368POPC   C3B56145  44.291   6.403   7.040
 4368POPC   C4B56146  44.402   6.317   7.490
 4369POPC   NC356147  31.219   7.664   5.457
 4369POPC   PO456148  31.644   7.190   5.195
 4369POPC   GL156149  31.441   7.246   5.665
 4369POPC   GL256150  31.213   6.968   5.794
 4369POPC   C1A56151  31.379   7.493   6.086
 4369POPC   D2A56152  31.657   7.593   6.457
 4369POPC   C3A56153  31.518   7.663   6.859
 4369POPC   C4A56154  31.692   7.535   7.233
 4369POPC   C1B56155  31.153   7.079   6.230
 4369POPC   C2B56156  31.326   7.211   6.636
 4369POPC   C3B56157  31.265   7.288   7.092
 4369POPC   C4B56158  31.448   7.161   7.490
 4370POPC   NC356159  37.851  25.198   5.527
 4370POPC   PO456160  37.186  25.318   5.350
 4370POPC   GL156161  37.373  25.255   5.770
 4370POPC   GL256162  37.640  25.528   5.868
 4370POPC   C1A56163  37.326  25.140   6.214
 4370POPC   D2A56164  37.328  25.503   6.497
 4370POPC   C3A56165  37.578  25.558   6.878
 4370POPC   C4A56166  37.494  25.444   7.287
 4370POPC   C1B56167  37.829  25.208   6.171
 4370POPC   C2B56168  37.731  25.108   6.587
 4370POPC   C3B56169  37.963  25.228   6.943
 4370POPC   C4B56170  37.944  25.165   7.361
 4371POPC   NC356171  24.723  12.796   5.322
 4371POPC   PO456172  24.037  12.768   5.267
 4371POPC   GL156173  24.208  12.825   5.738
 4371POPC   GL256174  24.526  12.850   5.823
 4371POPC   C1A56175  24.335  12.659   6.236
 4371POPC   D2A56176  24.637  12.601   6.589
 4371POPC   C3A56177  24.468  12.628   7.018
 4371POPC   C4A56178  24.759  12.616   7.356
 4371POPC   C1B56179  24.360  13.150   6.188
 4371POPC   C2B56180  24.558  13.104   6.633
 4371POPC   C3B56181  24.739  13.051   7.056
 4371POPC   C4B56182  24.552  13.089   7.490
 4372POPC   NC356183  19.936  22.425   5.364
 4372POPC   PO456184  19.747  21.714   5.350
 4372POPC   GL156185  19.847  21.878   5.800
 4372POPC   GL256186  19.845  22.268   5.835
 4372POPC   C1A56187  19.652  22.009   6.210
 4372POPC   D2A56188  19.815  22.349   6.445
 4372POPC   C3A56189  19.893  22.182   6.834
 4372POPC   C4A56190  19.606  22.277   7.194
 4372POPC   C1B56191  20.209  22.397   6.091
 4372POPC   C2B56192  20.334  22.384   6.525
 4372POPC   C3B56193  20.383  22.329   6.974
 4372POPC   C4B56194  20.103  22.190   7.281
 4373POPC   NC356195  16.070  15.467   5.444
 4373POPC   PO456196  15.645  14.993   5.230
 4373POPC   GL156197  15.759  15.128   5.693
 4373POPC   GL256198  16.100  15.079   5.809
 4373POPC   C1A56199  15.742  15.054   6.165
 4373POPC   D2A56200  15.522  15.028   6.554
 4373POPC   C3A56201  15.743  15.186   6.889
 4373POPC   C4A56202  15.818  15.157   7.325
 4373POPC   C1B56203  16.330  15.166   6.168
 4373POPC   C2B56204  16.188  15.228   6.566
 4373POPC   C3B56205  16.247  15.133   6.989
 4373POPC   C4B56206  16.293  15.310   7.387
 4374POPC   NC356207  38.751  11.667   5.502
 4374POPC   PO456208  38.577  10.998   5.518
 4374POPC   GL156209  38.503  11.397   5.865
 4374POPC   GL256210  38.150  11.476   5.984
 4374POPC   C1A56211  38.495  11.500   6.369
 4374POPC   D2A56212  38.206  11.308   6.718
 4374POPC   C3A56213  38.309  11.366   7.169
 4374POPC   C4A56214  38.561  11.318   7.592
 4374POPC   C1B56215  38.320  11.053   6.195
 4374POPC   C2B56216  38.241  10.795   6.582
 4374POPC   C3B56217  38.153  10.892   7.044
 4374POPC   C4B56218  38.169  10.990   7.504
 4375POPC   NC356219   6.345  40.191   5.452
 4375POPC   PO456220   5.690  39.987   5.549
 4375POPC   GL156221   5.832  40.002   5.921
 4375POPC   GL256222   6.031  40.245   5.825
 4375POPC   C1A56223   5.885  39.983   6.374
 4375POPC   D2A56224   6.013  39.706   6.726
 4375POPC   C3A56225   5.842  39.867   7.092
 4375POPC   C4A56226   5.913  40.072   7.449
 4375POPC   C1B56227   6.189  40.337   6.135
 4375POPC   C2B56228   6.080  40.488   6.483
 4375POPC   C3B56229   5.999  40.289   6.836
 4375POPC   C4B56230   6.177  40.433   7.175
 4376POPC   NC356231  23.593  14.835   5.532
 4376POPC   PO456232  24.065  15.318   5.566
 4376POPC   GL156233  23.836  15.138   5.893
 4376POPC   GL256234  23.992  14.793   5.944
 4376POPC   C1A56235  23.649  15.312   6.286
 4376POPC   D2A56236  23.433  15.418   6.688
 4376POPC   C3A56237  23.644  15.337   7.072
 4376POPC   C4A56238  23.540  15.193   7.479
 4376POPC   C1B56239  23.681  14.802   6.270
 4376POPC   C2B56240  23.636  14.923   6.718
 4376POPC   C3B56241  23.852  14.879   7.122
 4376POPC   C4B56242  23.930  14.752   7.541
 4377POPC   NC356243  21.397   3.682   5.277
 4377POPC   PO456244  20.901   3.285   5.424
 4377POPC   GL156245  21.305   3.287   5.695
 4377POPC   GL256246  21.459   3.613   5.774
 4377POPC   C1A56247  21.479   3.281   6.152
 4377POPC   D2A56248  21.308   3.370   6.557
 4377POPC   C3A56249  21.512   3.353   6.944
 4377POPC   C4A56250  21.296   3.361   7.313
 4377POPC   C1B56251  21.405   3.797   6.163
 4377POPC   C2B56252  21.277   3.887   6.587
 4377POPC   C3B56253  21.481   3.885   6.993
 4377POPC   C4B56254  21.646   3.699   7.391
 4378POPC   NC356255   7.594   5.452   5.505
 4378POPC   PO456256   7.091   5.854   5.509
 4378POPC   GL156257   7.339   5.786   5.853
 4378POPC   GL256258   7.634   5.991   5.856
 4378POPC   C1A56259   7.456   5.497   6.170
 4378POPC   D2A56260   7.286   5.352   6.554
 4378POPC   C3A56261   7.426   5.533   6.955
 4378POPC   C4A56262   7.404   5.746   7.339
 4378POPC   C1B56263   7.492   6.002   6.313
 4378POPC   C2B56264   7.561   6.020   6.759
 4378POPC   C3B56265   7.333   6.275   7.024
 4378POPC   C4B56266   7.445   6.245   7.416
 4379POPC   NC356267  31.269   9.300   5.389
 4379POPC   PO456268  31.895   8.946   5.357
 4379POPC   GL156269  31.548   8.900   5.673
 4379POPC   GL256270  31.533   9.231   5.798
 4379POPC   C1A56271  31.385   8.833   6.108
 4379POPC   D2A56272  31.270   8.793   6.537
 4379POPC   C3A56273  31.428   8.950   6.914
 4379POPC   C4A56274  31.620   8.849   7.262
 4379POPC   C1B56275  31.335   9.368   6.149
 4379POPC   C2B56276  31.453   9.313   6.545
 4379POPC   C3B56277  31.387   9.467   6.957
 4379POPC   C4B56278  31.517   9.337   7.363
 4380POPC   NC356279  43.909  24.935   5.504
 4380POPC   PO456280  43.904  25.563   5.426
 4380POPC   GL156281  43.855  25.365   5.824
 4380POPC   GL256282  44.165  25.458   5.904
 4380POPC   C1A56283  43.733  25.241   6.257
 4380POPC   D2A56284  43.602  25.330   6.704
 4380POPC   C3A56285  43.899  25.196   7.026
 4380POPC   C4A56286  43.690  24.983   7.349
 4380POPC   C1B56287  44.034  25.671   6.249
 4380POPC   C2B56288  44.075  25.510   6.629
 4380POPC   C3B56289  44.180  25.681   6.984
 4380POPC   C4B56290  44.197  25.520   7.327
 4381POPC   NC356291  27.169   1.721   5.312
 4381POPC   PO456292  27.879   1.908   5.370
 4381POPC   GL156293  27.661   1.883   5.744
 4381POPC   GL256294  27.591   2.236   5.834
 4381POPC   C1A56295  27.614   1.880   6.191
 4381POPC   D2A56296  27.723   2.135   6.544
 4381POPC   C3A56297  27.644   1.940   6.949
 4381POPC   C4A56298  27.698   1.734   7.354
 4381POPC   C1B56299  27.367   2.327   6.214
 4381POPC   C2B56300  27.239   2.271   6.648
 4381POPC   C3B56301  27.334   2.302   7.114
 4381POPC   C4B56302  27.249   1.968   7.418
 4382POPC   NC356303  35.931  18.172   5.348
 4382POPC   PO456304  36.517  18.592   5.398
 4382POPC   GL156305  36.377  18.331   5.788
 4382POPC   GL256306  36.069  18.112   5.826
 4382POPC   C1A56307  36.137  18.472   6.185
 4382POPC   D2A56308  35.990  18.250   6.570
 4382POPC   C3A56309  36.143  18.386   6.965
 4382POPC   C4A56310  35.999  18.301   7.368
 4382POPC   C1B56311  36.251  17.957   6.217
 4382POPC   C2B56312  36.242  17.806   6.655
 4382POPC   C3B56313  36.247  17.904   7.100
 4382POPC   C4B56314  36.265  17.907   7.558
 4383POPC   NC356315  14.171  14.525   5.094
 4383POPC   PO456316  13.595  14.316   5.397
 4383POPC   GL156317  13.628  14.338   5.834
 4383POPC   GL256318  13.741  14.014   5.872
 4383POPC   C1A56319  13.795  14.578   6.195
 4383POPC   D2A56320  13.858  14.479   6.602
 4383POPC   C3A56321  13.654  14.594   6.977
 4383POPC   C4A56322  13.953  14.826   7.171
 4383POPC   C1B56323  13.562  14.135   6.292
 4383POPC   C2B56324  13.507  14.160   6.718
 4383POPC   C3B56325  13.669  14.102   7.112
 4383POPC   C4B56326  13.898  13.830   7.365
 4384POPC   NC356327  26.673  34.552   5.429
 4384POPC   PO456328  27.366  34.487   5.391
 4384POPC   GL156329  27.244  34.632   5.786
 4384POPC   GL256330  26.903  34.724   5.833
 4384POPC   C1A56331  27.107  34.447   6.196
 4384POPC   D2A56332  26.935  34.573   6.579
 4384POPC   C3A56333  26.993  34.337   6.914
 4384POPC   C4A56334  27.104  34.394   7.292
 4384POPC   C1B56335  26.716  34.843   6.209
 4384POPC   C2B56336  26.627  34.988   6.647
 4384POPC   C3B56337  26.835  34.818   7.042
 4384POPC   C4B56338  26.682  34.652   7.456
 4385POPC   NC356339  13.041   9.931   5.199
 4385POPC   PO456340  12.959   9.323   5.519
 4385POPC   GL156341  12.701   9.524   5.850
 4385POPC   GL256342  12.656   9.903   5.786
 4385POPC   C1A56343  12.612   9.671   6.259
 4385POPC   D2A56344  12.810   9.921   6.561
 4385POPC   C3A56345  12.743   9.885   6.994
 4385POPC   C4A56346  12.907   9.858   7.402
 4385POPC   C1B56347  12.511  10.162   6.164
 4385POPC   C2B56348  12.369  10.191   6.605
 4385POPC   C3B56349  12.540  10.349   7.010
 4385POPC   C4B56350  12.565  10.238   7.449
 4386POPC   NC356351   2.261  39.372   5.644
 4386POPC   PO456352   1.739  38.976   5.412
 4386POPC   GL156353   1.796  39.158   5.782
 4386POPC   GL256354   1.931  38.845   5.891
 4386POPC   C1A56355   1.851  39.291   6.204
 4386POPC   D2A56356   2.094  39.220   6.564
 4386POPC   C3A56357   1.827  39.060   6.862
 4386POPC   C4A56358   1.758  39.297   7.219
 4386POPC   C1B56359   1.911  38.766   6.332
 4386POPC   C2B56360   2.236  38.689   6.620
 4386POPC   C3B56361   2.338  38.897   6.973
 4386POPC   C4B56362   2.218  39.113   7.354
 4387POPC   NC356363   5.174  36.731   5.463
 4387POPC   PO456364   5.345  37.309   5.409
 4387POPC   GL156365   5.005  37.157   5.733
 4387POPC   GL256366   4.719  36.922   5.662
 4387POPC   C1A56367   5.135  37.173   6.186
 4387POPC   D2A56368   5.422  36.925   6.454
 4387POPC   C3A56369   5.256  36.814   6.883
 4387POPC   C4A56370   4.971  37.155   7.015
 4387POPC   C1B56371   4.799  36.768   6.098
 4387POPC   C2B56372   4.894  36.876   6.537
 4387POPC   C3B56373   4.750  36.703   6.938
 4387POPC   C4B56374   4.628  36.882   7.308
 4388POPC   NC356375   5.842  10.081   5.416
 4388POPC   PO456376   5.637  10.794   5.511
 4388POPC   GL156377   5.635  10.548   5.891
 4388POPC   GL256378   5.885  10.242   5.912
 4388POPC   C1A56379   5.850  10.645   6.273
 4388POPC   D2A56380   5.985  10.872   6.617
 4388POPC   C3A56381   5.690  10.839   6.931
 4388POPC   C4A56382   5.821  10.687   7.304
 4388POPC   C1B56383   5.619  10.186   6.306
 4388POPC   C2B56384   5.665  10.354   6.742
 4388POPC   C3B56385   6.073  10.422   6.963
 4388POPC   C4B56386   6.293  10.196   7.317
 4389POPC   NC356387   6.800  10.366   5.450
 4389POPC   PO456388   6.350  10.756   5.114
 4389POPC   GL156389   6.453  10.612   5.697
 4389POPC   GL256390   6.790  10.704   5.862
 4389POPC   C1A56391   6.401  10.669   6.185
 4389POPC   D2A56392   6.743  10.646   6.527
 4389POPC   C3A56393   6.571  10.672   6.926
 4389POPC   C4A56394   6.330  10.713   7.313
 4389POPC   C1B56395   6.798  10.326   6.137
 4389POPC   C2B56396   6.785  10.114   6.565
 4389POPC   C3B56397   6.934  10.205   6.999
 4389POPC   C4B56398   6.793  10.475   7.332
 4390POPC   NC356399  24.041   8.105   5.537
 4390POPC   PO456400  23.386   7.892   5.489
 4390POPC   GL156401  23.636   8.019   5.873
 4390POPC   GL256402  23.616   8.359   5.869
 4390POPC   C1A56403  23.962   8.223   6.198
 4390POPC   D2A56404  23.949   8.483   6.573
 4390POPC   C3A56405  23.783   8.228   6.919
 4390POPC   C4A56406  23.850   7.960   7.307
 4390POPC   C1B56407  23.479   8.424   6.291
 4390POPC   C2B56408  23.407   8.615   6.692
 4390POPC   C3B56409  23.416   8.541   7.126
 4390POPC   C4B56410  23.564   8.326   7.486
 4391POPC   NC356411   8.971  43.813   5.477
 4391POPC   PO456412   9.114  44.401   5.684
 4391POPC   GL156413   8.824  44.189   5.883
 4391POPC   GL256414   8.670  43.840   5.881
 4391POPC   C1A56415   8.931  43.978   6.291
 4391POPC   D2A56416   9.218  43.738   6.448
 4391POPC   C3A56417   9.218  43.726   6.880
 4391POPC   C4A56418   9.338  43.683   7.312
 4391POPC   C1B56419   8.469  44.126   6.206
 4391POPC   C2B56420   8.605  44.274   6.633
 4391POPC   C3B56421   8.693  44.093   7.042
 4391POPC   C4B56422   8.836  43.698   7.224
 4392POPC   NC356423  18.489  25.281   5.346
 4392POPC   PO456424  17.892  25.346   5.474
 4392POPC   GL156425  18.211  25.298   5.782
 4392POPC   GL256426  18.446  25.007   5.782
 4392POPC   C1A56427  18.260  25.296   6.195
 4392POPC   D2A56428  18.203  25.511   6.577
 4392POPC   C3A56429  18.294  25.290   6.959
 4392POPC   C4A56430  18.426  25.431   7.368
 4392POPC   C1B56431  18.635  24.939   6.174
 4392POPC   C2B56432  18.432  24.978   6.556
 4392POPC   C3B56433  18.499  24.811   6.927
 4392POPC   C4B56434  18.417  24.931   7.336
 4393POPC   NC356435  32.266  28.656   5.059
 4393POPC   PO456436  32.227  29.281   5.396
 4393POPC   GL156437  32.140  29.197   5.827
 4393POPC   GL256438  32.064  28.822   5.811
 4393POPC   C1A56439  32.229  29.399   6.257
 4393POPC   D2A56440  32.473  29.367   6.655
 4393POPC   C3A56441  32.209  29.245   7.009
 4393POPC   C4A56442  31.925  29.414   7.314
 4393POPC   C1B56443  32.186  28.894   6.223
 4393POPC   C2B56444  32.061  28.923   6.628
 4393POPC   C3B56445  32.123  28.727   7.012
 4393POPC   C4B56446  32.399  28.867   7.306
 4394POPC   NC356447  17.787   9.848   5.422
 4394POPC   PO456448  18.486   9.675   5.324
 4394POPC   GL156449  18.399   9.580   5.767
 4394POPC   GL256450  18.072   9.669   5.803
 4394POPC   C1A56451  18.509   9.520   6.230
 4394POPC   D2A56452  18.256   9.595   6.613
 4394POPC   C3A56453  18.402   9.792   6.967
 4394POPC   C4A56454  18.688   9.661   7.278
 4394POPC   C1B56455  18.140   9.888   6.206
 4394POPC   C2B56456  18.075  10.080   6.647
 4394POPC   C3B56457  17.921   9.998   7.070
 4394POPC   C4B56458  17.860   9.958   7.542
 4395POPC   NC356459   3.520   0.172   5.550
 4395POPC   PO456460   3.970   0.528   5.238
 4395POPC   GL156461   3.844   0.561   5.714
 4395POPC   GL256462   3.982   0.894   5.782
 4395POPC   C1A56463   3.676   0.392   6.168
 4395POPC   D2A56464   3.433   0.464   6.597
 4395POPC   C3A56465   3.526   0.299   7.026
 4395POPC   C4A56466   3.372   0.236   7.488
 4395POPC   C1B56467   4.038   0.757   6.220
 4395POPC   C2B56468   4.022   0.737   6.678
 4395POPC   C3B56469   3.706   0.773   7.005
 4395POPC   C4B56470   3.732   0.582   7.384
 4396POPC   NC356471  36.583  39.867   5.619
 4396POPC   PO456472  36.013  40.054   5.293
 4396POPC   GL156473  35.852  40.056   5.711
 4396POPC   GL256474  36.177  40.158   5.846
 4396POPC   C1A56475  35.792  39.823   6.119
 4396POPC   D2A56476  35.871  39.976   6.538
 4396POPC   C3A56477  35.829  39.798   6.958
 4396POPC   C4A56478  36.003  39.798   7.355
 4396POPC   C1B56479  36.318  40.162   6.270
 4396POPC   C2B56480  36.293  40.241   6.668
 4396POPC   C3B56481  36.353  40.055   7.061
 4396POPC   C4B56482  36.361  40.365   7.358
 4397POPC   NC356483  23.875  44.239   5.452
 4397POPC   PO456484  23.597  43.508   5.435
 4397POPC   GL156485  23.745  43.647   5.875
 4397POPC   GL256486  23.909  43.940   5.857
 4397POPC   C1A56487  23.575  43.870   6.263
 4397POPC   D2A56488  23.422  44.040   6.646
 4397POPC   C3A56489  23.549  43.816   6.987
 4397POPC   C4A56490  23.696  43.857   7.393
 4397POPC   C1B56491  23.935  44.277   6.199
 4397POPC   C2B56492  23.964  44.438   6.634
 4397POPC   C3B56493  23.841  44.274   7.050
 4397POPC   C4B56494  23.441  44.265   7.224
 4398POPC   NC356495   3.025  23.215   5.647
 4398POPC   PO456496   2.578  23.585   5.290
 4398POPC   GL156497   2.656  23.832   5.669
 4398POPC   GL256498   2.400  23.700   5.840
 4398POPC   C1A56499   2.882  23.890   6.088
 4398POPC   D2A56500   3.133  23.920   6.513
 4398POPC   C3A56501   2.880  23.838   6.909
 4398POPC   C4A56502   2.840  23.776   7.380
 4398POPC   C1B56503   2.615  23.438   6.180
 4398POPC   C2B56504   2.613  23.293   6.628
 4398POPC   C3B56505   2.701  23.381   7.062
 4398POPC   C4B56506   2.507  23.408   7.471
 4399POPC   NC356507  35.271  38.822   5.503
 4399POPC   PO456508  35.532  38.178   5.566
 4399POPC   GL156509  35.363  38.417   5.946
 4399POPC   GL256510  35.102  38.694   5.978
 4399POPC   C1A56511  35.352  38.454   6.425
 4399POPC   D2A56512  35.591  38.373   6.831
 4399POPC   C3A56513  35.394  38.419   7.252
 4399POPC   C4A56514  35.588  38.407   7.676
 4399POPC   C1B56515  35.489  38.874   6.154
 4399POPC   C2B56516  35.640  38.992   6.578
 4399POPC   C3B56517  35.547  38.880   7.008
 4399POPC   C4B56518  35.200  38.890   7.272
 4400POPC   NC356519  21.841   4.086   5.372
 4400POPC   PO456520  22.210   4.628   5.412
 4400POPC   GL156521  22.121   4.385   5.753
 4400POPC   GL256522  21.766   4.497   5.721
 4400POPC   C1A56523  22.266   4.219   6.181
 4400POPC   D2A56524  22.515   4.228   6.597
 4400POPC   C3A56525  22.288   4.205   7.015
 4400POPC   C4A56526  22.331   4.153   7.510
 4400POPC   C1B56527  21.906   4.649   6.132
 4400POPC   C2B56528  22.045   4.545   6.538
 4400POPC   C3B56529  21.874   4.632   6.932
 4400POPC   C4B56530  21.908   4.604   7.347
 4401POPC   NC356531  24.776  37.565   5.429
 4401POPC   PO456532  24.354  37.949   5.113
 4401POPC   GL156533  24.388  37.901   5.596
 4401POPC   GL256534  24.318  37.550   5.710
 4401POPC   C1A56535  24.332  37.899   6.092
 4401POPC   D2A56536  24.388  37.665   6.510
 4401POPC   C3A56537  24.377  37.892   6.899
 4401POPC   C4A56538  24.507  38.010   7.312
 4401POPC   C1B56539  24.503  37.370   6.103
 4401POPC   C2B56540  24.831  37.362   6.465
 4401POPC   C3B56541  24.761  37.509   6.887
 4401POPC   C4B56542  24.488  37.514   7.230
 4402POPC   NC356543  15.451   7.670   5.490
 4402POPC   PO456544  16.120   7.411   5.467
 4402POPC   GL156545  15.940   7.362   5.827
 4402POPC   GL256546  15.841   7.707   5.814
 4402POPC   C1A56547  16.118   7.226   6.235
 4402POPC   D2A56548  16.006   6.977   6.600
 4402POPC   C3A56549  16.120   7.129   7.024
 4402POPC   C4A56550  15.982   7.167   7.450
 4402POPC   C1B56551  16.186   7.753   6.090
 4402POPC   C2B56552  16.098   7.784   6.522
 4402POPC   C3B56553  15.933   7.581   6.876
 4402POPC   C4B56554  16.060   7.637   7.298
 4403POPC   NC356555  42.678  16.260   5.516
 4403POPC   PO456556  42.227  16.877   5.371
 4403POPC   GL156557  42.448  16.720   5.711
 4403POPC   GL256558  42.257  16.420   5.757
 4403POPC   C1A56559  42.319  16.777   6.146
 4403POPC   D2A56560  42.496  16.956   6.510
 4403POPC   C3A56561  42.367  16.755   6.870
 4403POPC   C4A56562  42.448  16.798   7.289
 4403POPC   C1B56563  42.596  16.370   6.114
 4403POPC   C2B56564  42.590  16.452   6.521
 4403POPC   C3B56565  42.659  16.327   6.941
 4403POPC   C4B56566  42.553  16.129   7.334
 4404POPC   NC356567   9.620  39.795   5.336
 4404POPC   PO456568  10.255  39.953   5.588
 4404POPC   GL156569   9.871  39.835   5.813
 4404POPC   GL256570   9.596  40.112   5.762
 4404POPC   C1A56571   9.820  39.705   6.260
 4404POPC   D2A56572   9.585  39.655   6.634
 4404POPC   C3A56573   9.739  39.866   6.978
 4404POPC   C4A56574   9.921  39.989   7.319
 4404POPC   C1B56575   9.786  40.220   6.140
 4404POPC   C2B56576   9.712  40.136   6.537
 4404POPC   C3B56577   9.548  40.326   6.881
 4404POPC   C4B56578   9.749  40.448   7.225
 4405POPC   NC356579   0.863  28.270   5.472
 4405POPC   PO456580   1.568  28.455   5.566
 4405POPC   GL156581   1.279  28.207   5.802
 4405POPC   GL256582   1.077  28.481   5.882
 4405POPC   C1A56583   1.212  28.125   6.236
 4405POPC   D2A56584   1.333  28.308   6.633
 4405POPC   C3A56585   1.154  28.065   6.946
 4405POPC   C4A56586   1.186  28.132   7.357
 4405POPC   C1B56587   1.070  28.629   6.287
 4405POPC   C2B56588   0.860  28.566   6.672
 4405POPC   C3B56589   0.959  28.551   7.089
 4405POPC   C4B56590   0.709  28.317   7.324
 4406POPC   NC356591  39.545  15.989   5.531
 4406POPC   PO456592  38.926  15.920   5.255
 4406POPC   GL156593  39.044  15.956   5.719
 4406POPC   GL256594  39.218  15.678   5.809
 4406POPC   C1A56595  38.940  15.969   6.204
 4406POPC   D2A56596  38.855  16.167   6.665
 4406POPC   C3A56597  39.046  15.987   7.033
 4406POPC   C4A56598  39.385  16.153   7.250
 4406POPC   C1B56599  39.435  15.806   6.200
 4406POPC   C2B56600  39.321  15.823   6.615
 4406POPC   C3B56601  39.516  15.723   6.991
 4406POPC   C4B56602  39.320  15.664   7.410
 4407POPC   NC356603   8.621   8.186   5.510
 4407POPC   PO456604   7.955   8.259   5.321
 4407POPC   GL156605   8.045   8.143   5.788
 4407POPC   GL256606   8.370   8.202   5.924
 4407POPC   C1A56607   8.008   8.194   6.280
 4407POPC   D2A56608   7.925   7.951   6.676
 4407POPC   C3A56609   7.884   8.125   7.105
 4407POPC   C4A56610   8.102   8.323   7.458
 4407POPC   C1B56611   8.623   8.178   6.275
 4407POPC   C2B56612   8.393   8.155   6.633
 4407POPC   C3B56613   8.390   8.264   7.030
 4407POPC   C4B56614   8.645   8.129   7.390
 4408POPC   NC356615   0.913  24.932   5.561
 4408POPC   PO456616   1.131  24.426   5.139
 4408POPC   GL156617   1.308  24.419   5.594
 4408POPC   GL256618   1.052  24.230   5.756
 4408POPC   C1A56619   1.364  24.633   6.041
 4408POPC   D2A56620   1.389  24.472   6.494
 4408POPC   C3A56621   1.185  24.577   6.906
 4408POPC   C4A56622   1.211  24.529   7.394
 4408POPC   C1B56623   0.977  24.332   6.194
 4408POPC   C2B56624   0.813  24.333   6.635
 4408POPC   C3B56625   0.916  24.175   7.072
 4408POPC   C4B56626   0.949  24.101   7.516
 4409POPC   NC356627  36.312  43.151   5.511
 4409POPC   PO456628  35.693  43.359   5.405
 4409POPC   GL156629  35.916  43.398   5.800
 4409POPC   GL256630  35.906  43.034   5.860
 4409POPC   C1A56631  36.090  43.472   6.251
 4409POPC   D2A56632  35.974  43.343   6.704
 4409POPC   C3A56633  36.198  43.218   7.106
 4409POPC   C4A56634  35.971  43.373   7.504
 4409POPC   C1B56635  36.233  42.944   6.197
 4409POPC   C2B56636  36.137  42.786   6.610
 4409POPC   C3B56637  35.730  42.870   6.771
 4409POPC   C4B56638  35.698  43.109   7.137
 4410POPC   NC356639  16.408  43.084   5.626
 4410POPC   PO456640  16.859  42.734   5.232
 4410POPC   GL156641  16.896  42.901   5.700
 4410POPC   GL256642  16.851  43.270   5.825
 4410POPC   C1A56643  16.866  42.879   6.202
 4410POPC   D2A56644  16.856  42.679   6.652
 4410POPC   C3A56645  16.596  42.818   6.961
 4410POPC   C4A56646  16.836  43.152   7.137
 4410POPC   C1B56647  16.646  43.399   6.241
 4410POPC   C2B56648  16.609  43.259   6.686
 4410POPC   C3B56649  16.338  43.243   7.083
 4410POPC   C4B56650  16.475  43.185   7.521
 4411POPC   NC356651  37.285  11.066   5.391
 4411POPC   PO456652  36.673  11.388   5.403
 4411POPC   GL156653  36.790  11.290   5.839
 4411POPC   GL256654  37.151  11.314   5.837
 4411POPC   C1A56655  36.906  11.314   6.314
 4411POPC   D2A56656  37.135  11.502   6.677
 4411POPC   C3A56657  36.859  11.389   6.987
 4411POPC   C4A56658  36.542  11.220   7.221
 4411POPC   C1B56659  37.297  11.016   6.180
 4411POPC   C2B56660  37.285  11.013   6.624
 4411POPC   C3B56661  37.171  11.000   7.048
 4411POPC   C4B56662  37.236  11.015   7.479
 4412POPC   NC356663  35.475  22.728   5.310
 4412POPC   PO456664  34.925  23.139   5.603
 4412POPC   GL156665  35.155  22.934   5.905
 4412POPC   GL256666  35.452  23.003   5.751
 4412POPC   C1A56667  35.098  22.685   6.290
 4412POPC   D2A56668  34.994  22.692   6.744
 4412POPC   C3A56669  35.198  22.949   7.012
 4412POPC   C4A56670  35.480  22.799   7.308
 4412POPC   C1B56671  35.595  22.888   6.164
 4412POPC   C2B56672  35.501  22.859   6.585
 4412POPC   C3B56673  35.691  23.053   6.925
 4412POPC   C4B56674  36.001  22.872   7.177
 4413POPC   NC356675  34.458  33.307   5.442
 4413POPC   PO456676  34.496  32.569   5.291
 4413POPC   GL156677  34.606  32.866   5.649
 4413POPC   GL256678  34.634  32.615   5.823
 4413POPC   C1A56679  34.670  33.019   6.119
 4413POPC   D2A56680  34.826  33.142   6.543
 4413POPC   C3A56681  34.588  33.056   6.958
 4413POPC   C4A56682  34.723  33.051   7.420
 4413POPC   C1B56683  34.532  32.528   6.216
 4413POPC   C2B56684  34.645  32.652   6.619
 4413POPC   C3B56685  34.558  32.535   7.056
 4413POPC   C4B56686  34.726  32.435   7.476
 4414POPC   NC356687  26.988  35.501   5.418
 4414POPC   PO456688  26.559  35.025   5.503
 4414POPC   GL156689  26.844  35.222   5.820
 4414POPC   GL256690  27.201  35.130   5.692
 4414POPC   C1A56691  26.773  35.341   6.253
 4414POPC   D2A56692  26.596  35.542   6.629
 4414POPC   C3A56693  26.787  35.443   7.016
 4414POPC   C4A56694  26.841  35.193   7.391
 4414POPC   C1B56695  27.244  35.093   6.144
 4414POPC   C2B56696  27.112  35.090   6.583
 4414POPC   C3B56697  27.240  35.168   7.003
 4414POPC   C4B56698  27.236  35.494   7.293
 4415POPC   NC356699  42.071   4.958   5.447
 4415POPC   PO456700  42.545   5.376   5.468
 4415POPC   GL156701  42.298   5.187   5.835
 4415POPC   GL256702  41.961   5.355   5.787
 4415POPC   C1A56703  42.156   4.911   6.175
 4415POPC   D2A56704  42.038   4.801   6.625
 4415POPC   C3A56705  42.374   4.805   6.897
 4415POPC   C4A56706  42.416   5.079   7.234
 4415POPC   C1B56707  42.066   5.497   6.200
 4415POPC   C2B56708  42.143   5.320   6.600
 4415POPC   C3B56709  42.040   5.465   7.008
 4415POPC   C4B56710  42.109   5.441   7.460
 4416POPC   NC356711  36.494  13.514   5.514
 4416POPC   PO456712  37.116  13.923   5.515
 4416POPC   GL156713  36.835  13.777   5.846
 4416POPC   GL256714  36.622  14.021   5.999
 4416POPC   C1A56715  36.871  13.557   6.274
 4416POPC   D2A56716  36.888  13.159   6.516
 4416POPC   C3A56717  36.769  13.280   6.934
 4416POPC   C4A56718  36.984  13.300   7.342
 4416POPC   C1B56719  36.985  14.046   6.280
 4416POPC   C2B56720  36.946  13.923   6.737
 4416POPC   C3B56721  36.805  13.768   7.156
 4416POPC   C4B56722  36.667  13.671   7.589
 4417POPC   NC356723  16.754   3.744   5.401
 4417POPC   PO456724  16.892   3.110   5.418
 4417POPC   GL156725  16.706   3.350   5.778
 4417POPC   GL256726  16.520   3.649   5.828
 4417POPC   C1A56727  16.622   3.281   6.220
 4417POPC   D2A56728  16.674   3.049   6.622
 4417POPC   C3A56729  16.610   3.260   6.993
 4417POPC   C4A56730  16.928   3.430   7.205
 4417POPC   C1B56731  16.599   3.806   6.238
 4417POPC   C2B56732  16.685   3.645   6.637
 4417POPC   C3B56733  16.798   3.879   6.993
 4417POPC   C4B56734  16.778   4.128   7.347
 4418POPC   NC356735  40.717  33.378   5.664
 4418POPC   PO456736  40.693  32.881   5.297
 4418POPC   GL156737  40.720  32.868   5.755
 4418POPC   GL256738  40.467  32.630   5.811
 4418POPC   C1A56739  40.719  33.077   6.211
 4418POPC   D2A56740  40.493  33.267   6.538
 4418POPC   C3A56741  40.471  33.184   6.963
 4418POPC   C4A56742  40.752  33.371   7.229
 4418POPC   C1B56743  40.682  32.586   6.217
 4418POPC   C2B56744  40.592  32.739   6.681
 4418POPC   C3B56745  40.719  32.638   7.142
 4418POPC   C4B56746  40.877  32.706   7.610
 4419POPC   NC356747  30.306  18.120   5.382
 4419POPC   PO456748  29.711  18.088   5.659
 4419POPC   GL156749  30.081  18.323   5.827
 4419POPC   GL256750  30.113  18.656   5.786
 4419POPC   C1A56751  30.266  18.386   6.252
 4419POPC   D2A56752  30.452  18.147   6.637
 4419POPC   C3A56753  30.157  18.049   6.992
 4419POPC   C4A56754  30.142  18.146   7.447
 4419POPC   C1B56755  29.743  18.619   6.099
 4419POPC   C2B56756  29.731  18.622   6.562
 4419POPC   C3B56757  29.772  18.383   6.965
 4419POPC   C4B56758  29.707  18.408   7.425
 4420POPC   NC356759   9.385  23.975   5.481
 4420POPC   PO456760   9.091  23.421   5.580
 4420POPC   GL156761   9.021  23.830   5.822
 4420POPC   GL256762   9.323  23.998   5.986
 4420POPC   C1A56763   8.729  23.795   6.187
 4420POPC   D2A56764   8.750  23.456   6.525
 4420POPC   C3A56765   8.654  23.591   6.950
 4420POPC   C4A56766   8.963  23.555   7.271
 4420POPC   C1B56767   9.200  23.795   6.374
 4420POPC   C2B56768   9.134  23.730   6.816
 4420POPC   C3B56769   9.227  24.003   7.203
 4420POPC   C4B56770   9.111  24.265   7.558
 4421POPC   NC356771   1.404  44.010   5.427
 4421POPC   PO456772   0.767  43.733   5.581
 4421POPC   GL156773   1.001  43.978   5.866
 4421POPC   GL256774   1.388  44.043   5.926
 4421POPC   C1A56775   1.004  44.073   6.274
 4421POPC   D2A56776   0.931  43.875   6.660
 4421POPC   C3A56777   1.009  44.110   6.997
 4421POPC   C4A56778   0.851  43.932   7.369
 4421POPC   C1B56779   1.431  43.766   6.288
 4421POPC   C2B56780   1.418  43.827   6.736
 4421POPC   C3B56781   1.278  43.673   7.127
 4421POPC   C4B56782   1.313  43.851   7.550
 4422POPC   NC356783   1.320   9.479   5.339
 4422POPC   PO456784   0.761   9.837   5.172
 4422POPC   GL156785   0.997   9.829   5.586
 4422POPC   GL256786   1.259  10.109   5.652
 4422POPC   C1A56787   1.031   9.757   6.034
 4422POPC   D2A56788   1.250   9.725   6.440
 4422POPC   C3A56789   1.045   9.659   6.836
 4422POPC   C4A56790   1.177   9.431   7.183
 4422POPC   C1B56791   1.504   9.990   6.034
 4422POPC   C2B56792   1.642  10.061   6.482
 4422POPC   C3B56793   1.424  10.025   6.867
 4422POPC   C4B56794   1.505   9.839   7.234
 4423POPC   NC356795  15.217  29.621   5.580
 4423POPC   PO456796  15.230  29.007   5.544
 4423POPC   GL156797  15.271  29.219   5.902
 4423POPC   GL256798  15.598  29.402   5.873
 4423POPC   C1A56799  15.015  29.377   6.250
 4423POPC   D2A56800  14.856  29.575   6.631
 4423POPC   C3A56801  14.984  29.325   6.989
 4423POPC   C4A56802  15.343  29.300   7.228
 4423POPC   C1B56803  15.531  29.299   6.320
 4423POPC   C2B56804  15.399  29.152   6.714
 4423POPC   C3B56805  15.621  28.931   7.046
 4423POPC   C4B56806  15.503  28.895   7.481
 4424POPC   NC356807   8.053  14.070   5.147
 4424POPC   PO456808   8.187  13.542   5.485
 4424POPC   GL156809   8.257  13.541   5.875
 4424POPC   GL256810   8.202  13.894   5.901
 4424POPC   C1A56811   8.274  13.594   6.311
 4424POPC   D2A56812   8.423  13.809   6.658
 4424POPC   C3A56813   8.209  13.523   6.886
 4424POPC   C4A56814   8.071  13.507   7.252
 4424POPC   C1B56815   7.827  13.842   6.160
 4424POPC   C2B56816   7.673  13.956   6.527
 4424POPC   C3B56817   7.853  13.875   6.876
 4424POPC   C4B56818   7.790  13.943   7.253
 4425POPC   NC356819  20.129   4.539   5.547
 4425POPC   PO456820  19.583   4.184   5.272
 4425POPC   GL156821  19.791   4.016   5.771
 4425POPC   GL256822  20.119   4.112   5.848
 4425POPC   C1A56823  19.790   3.991   6.235
 4425POPC   D2A56824  19.688   4.350   6.534
 4425POPC   C3A56825  19.701   4.216   6.958
 4425POPC   C4A56826  19.498   4.304   7.343
 4425POPC   C1B56827  20.122   4.389   6.239
 4425POPC   C2B56828  20.244   4.300   6.679
 4425POPC   C3B56829  20.185   4.216   7.122
 4425POPC   C4B56830  19.966   4.471   7.349
 4426POPC   NC356831   9.941  41.831   5.590
 4426POPC   PO456832   9.548  41.358   5.460
 4426POPC   GL156833   9.774  41.397   5.835
 4426POPC   GL256834  10.020  41.158   5.929
 4426POPC   C1A56835   9.829  41.595   6.231
 4426POPC   D2A56836   9.614  41.613   6.631
 4426POPC   C3A56837   9.793  41.771   7.017
 4426POPC   C4A56838   9.517  42.014   7.265
 4426POPC   C1B56839   9.739  41.087   6.273
 4426POPC   C2B56840   9.762  41.134   6.697
 4426POPC   C3B56841   9.655  41.271   7.101
 4426POPC   C4B56842   9.730  41.242   7.525
 4427POPC   NC356843   9.681   6.955   5.453
 4427POPC   PO456844   9.833   6.292   5.572
 4427POPC   GL156845   9.753   6.610   5.849
 4427POPC   GL256846  10.005   6.871   5.835
 4427POPC   C1A56847   9.508   6.576   6.230
 4427POPC   D2A56848   9.702   6.482   6.580
 4427POPC   C3A56849   9.569   6.599   6.954
 4427POPC   C4A56850   9.704   6.333   7.277
 4427POPC   C1B56851  10.054   6.705   6.259
 4427POPC   C2B56852   9.999   6.879   6.673
 4427POPC   C3B56853  10.044   6.707   7.071
 4427POPC   C4B56854   9.779   6.826   7.398
 4428POPC   NC356855  25.982  21.033   5.363
 4428POPC   PO456856  25.828  20.407   5.559
 4428POPC   GL156857  25.949  20.777   5.791
 4428POPC   GL256858  25.593  20.878   5.760
 4428POPC   C1A56859  26.138  20.898   6.179
 4428POPC   D2A56860  26.270  20.710   6.566
 4428POPC   C3A56861  26.187  20.897   6.942
 4428POPC   C4A56862  26.163  20.705   7.322
 4428POPC   C1B56863  25.631  20.687   6.183
 4428POPC   C2B56864  25.742  20.800   6.622
 4428POPC   C3B56865  25.703  20.718   7.062
 4428POPC   C4B56866  25.765  20.399   7.353
 4429POPC   NC356867  42.597  40.467   5.355
 4429POPC   PO456868  42.522  39.807   5.330
 4429POPC   GL156869  42.465  40.051   5.733
 4429POPC   GL256870  42.137  40.131   5.848
 4429POPC   C1A56871  42.504  39.913   6.199
 4429POPC   D2A56872  42.354  39.941   6.670
 4429POPC   C3A56873  42.511  39.917   7.123
 4429POPC   C4A56874  42.313  40.119   7.498
 4429POPC   C1B56875  42.016  40.093   6.289
 4429POPC   C2B56876  41.885  40.180   6.719
 4429POPC   C3B56877  41.959  39.969   7.139
 4429POPC   C4B56878  41.823  39.967   7.623
 4430POPC   NC356879  20.772  44.044   5.230
 4430POPC   PO456880  20.197  43.705   5.161
 4430POPC   GL156881  20.412  43.786   5.632
 4430POPC   GL256882  20.790  43.817   5.716
 4430POPC   C1A56883  20.485  43.818   6.120
 4430POPC   D2A56884  20.774  43.993   6.465
 4430POPC   C3A56885  20.604  43.954   6.870
 4430POPC   C4A56886  20.680  44.145   7.243
 4430POPC   C1B56887  20.965  43.653   6.109
 4430POPC   C2B56888  20.731  43.479   6.459
 4430POPC   C3B56889  20.701  43.430   6.910
 4430POPC   C4B56890  20.550  43.624   7.311
 4431POPC   NC356891  35.068  18.608   5.604
 4431POPC   PO456892  35.398  18.191   5.200
 4431POPC   GL156893  35.543  18.292   5.681
 4431POPC   GL256894  35.499  18.631   5.876
 4431POPC   C1A56895  35.681  18.240   6.142
 4431POPC   D2A56896  35.611  18.580   6.440
 4431POPC   C3A56897  35.657  18.550   6.878
 4431POPC   C4A56898  35.505  18.257   7.184
 4431POPC   C1B56899  35.197  18.384   6.194
 4431POPC   C2B56900  35.137  18.335   6.636
 4431POPC   C3B56901  35.145  18.625   6.930
 4431POPC   C4B56902  35.228  18.649   7.371
 4432POPC   NC356903  31.322   0.140   5.525
 4432POPC   PO456904  31.660   0.640   5.295
 4432POPC   GL156905  31.650   0.549   5.760
 4432POPC   GL256906  31.307   0.545   5.856
 4432POPC   C1A56907  31.712   0.648   6.237
 4432POPC   D2A56908  31.871   0.816   6.661
 4432POPC   C3A56909  31.817   0.596   7.074
 4432POPC   C4A56910  31.588   0.232   7.257
 4432POPC   C1B56911  31.300   0.350   6.289
 4432POPC   C2B56912  31.454   0.365   6.743
 4432POPC   C3B56913  31.286   0.577   7.122
 4432POPC   C4B56914  31.058   0.748   7.489
 4433POPC   NC356915  21.165  29.613   5.554
 4433POPC   PO456916  21.385  30.168   5.338
 4433POPC   GL156917  21.420  30.248   5.788
 4433POPC   GL256918  21.437  29.896   5.889
 4433POPC   C1A56919  21.532  30.280   6.240
 4433POPC   D2A56920  21.441  29.954   6.557
 4433POPC   C3A56921  21.549  29.852   6.984
 4433POPC   C4A56922  21.521  30.011   7.396
 4433POPC   C1B56923  21.292  29.587   6.216
 4433POPC   C2B56924  21.230  29.372   6.607
 4433POPC   C3B56925  21.118  29.536   7.003
 4433POPC   C4B56926  21.331  29.547   7.440
 4434POPC   NC356927  43.032  28.589   5.288
 4434POPC   PO456928  42.548  28.137   5.314
 4434POPC   GL156929  42.727  28.404   5.696
 4434POPC   GL256930  43.055  28.316   5.754
 4434POPC   C1A56931  42.821  28.609   6.121
 4434POPC   D2A56932  42.966  28.418   6.521
 4434POPC   C3A56933  43.196  28.571   6.879
 4434POPC   C4A56934  43.107  28.347   7.243
 4434POPC   C1B56935  43.283  28.254   6.145
 4434POPC   C2B56936  43.504  28.348   6.531
 4434POPC   C3B56937  43.537  28.160   6.897
 4434POPC   C4B56938  43.472  28.001   7.276
 4435POPC   NC356939  20.019  13.441   5.443
 4435POPC   PO456940  19.458  13.886   5.372
 4435POPC   GL156941  19.794  13.781   5.740
 4435POPC   GL256942  19.612  13.738   6.034
 4435POPC   C1A56943  20.036  13.469   6.091
 4435POPC   D2A56944  20.042  13.394   6.544
 4435POPC   C3A56945  20.111  13.744   6.816
 4435POPC   C4A56946  20.044  13.713   7.245
 4435POPC   C1B56947  19.586  13.375   6.291
 4435POPC   C2B56948  19.495  13.384   6.664
 4435POPC   C3B56949  19.674  13.476   6.994
 4435POPC   C4B56950  19.458  13.632   7.348
 4436POPC   NC356951  36.564  31.351   5.416
 4436POPC   PO456952  37.020  31.740   5.604
 4436POPC   GL156953  37.104  31.440   5.855
 4436POPC   GL256954  36.759  31.364   5.893
 4436POPC   C1A56955  37.236  31.458   6.285
 4436POPC   D2A56956  37.078  31.306   6.697
 4436POPC   C3A56957  36.908  31.549   7.032
 4436POPC   C4A56958  36.935  31.534   7.473
 4436POPC   C1B56959  36.448  31.147   6.134
 4436POPC   C2B56960  36.460  31.005   6.550
 4436POPC   C3B56961  36.560  31.134   6.972
 4436POPC   C4B56962  36.546  31.181   7.422
 4437POPC   NC356963  22.935  28.767   5.519
 4437POPC   PO456964  22.690  28.152   5.390
 4437POPC   GL156965  22.852  28.089   5.765
 4437POPC   GL256966  22.974  28.392   5.852
 4437POPC   C1A56967  22.916  27.994   6.196
 4437POPC   D2A56968  22.821  28.241   6.554
 4437POPC   C3A56969  22.806  28.048   6.951
 4437POPC   C4A56970  23.010  28.235   7.284
 4437POPC   C1B56971  22.812  28.637   6.193
 4437POPC   C2B56972  22.633  28.707   6.636
 4437POPC   C3B56973  22.754  28.628   7.074
 4437POPC   C4B56974  23.051  28.833   7.353
 4438POPC   NC356975  37.763  10.195   5.502
 4438POPC   PO456976  37.718  10.889   5.486
 4438POPC   GL156977  37.438  10.712   5.808
 4438POPC   GL256978  37.266  10.357   5.829
 4438POPC   C1A56979  37.593  10.589   6.227
 4438POPC   D2A56980  37.925  10.370   6.482
 4438POPC   C3A56981  37.965  10.407   6.945
 4438POPC   C4A56982  37.811  10.630   7.347
 4438POPC   C1B56983  37.333  10.173   6.245
 4438POPC   C2B56984  37.371  10.445   6.660
 4438POPC   C3B56985  37.466  10.333   7.101
 4438POPC   C4B56986  37.471  10.060   7.508
 4439POPC   NC356987  26.573  11.758   5.609
 4439POPC   PO456988  27.092  11.388   5.470
 4439POPC   GL156989  26.883  11.450   5.853
 4439POPC   GL256990  26.613  11.261   5.758
 4439POPC   C1A56991  26.978  11.473   6.293
 4439POPC   D2A56992  26.857  11.259   6.680
 4439POPC   C3A56993  26.924  11.411   7.071
 4439POPC   C4A56994  27.322  11.512   7.260
 4439POPC   C1B56995  26.477  11.337   6.168
 4439POPC   C2B56996  26.375  11.121   6.528
 4439POPC   C3B56997  26.413  11.246   6.936
 4439POPC   C4B56998  26.493  11.356   7.364
 4440POPC   NC356999   6.789  37.066   5.341
 4440POPC   PO457000   6.107  36.794   5.373
 4440POPC   GL157001   6.355  36.879   5.748
 4440POPC   GL257002   6.572  37.164   5.810
 4440POPC   C1A57003   6.440  36.790   6.182
 4440POPC   D2A57004   6.446  37.015   6.609
 4440POPC   C3A57005   6.529  36.864   7.041
 4440POPC   C4A57006   6.301  36.558   7.299
 4440POPC   C1B57007   6.813  37.133   6.195
 4440POPC   C2B57008   6.982  36.971   6.602
 4440POPC   C3B57009   6.952  37.137   7.023
 4440POPC   C4B57010   6.940  37.141   7.487
 4441POPC   NC357011  18.118   7.503   5.400
 4441POPC   PO457012  18.649   7.086   5.523
 4441POPC   GL157013  18.342   7.250   5.819
 4441POPC   GL257014  18.259   7.608   5.903
 4441POPC   C1A57015  18.428   7.249   6.255
 4441POPC   D2A57016  18.143   7.340   6.579
 4441POPC   C3A57017  18.247   7.179   6.955
 4441POPC   C4A57018  18.188   7.429   7.299
 4441POPC   C1B57019  18.398   7.753   6.342
 4441POPC   C2B57020  18.415   7.752   6.818
 4441POPC   C3B57021  18.436   7.875   7.272
 4441POPC   C4B57022  18.378   7.748   7.703
 4442POPC   NC357023  38.043   6.512   5.348
 4442POPC   PO457024  38.705   6.593   5.475
 4442POPC   GL157025  38.567   6.373   5.879
 4442POPC   GL257026  38.210   6.317   5.922
 4442POPC   C1A57027  38.555   6.449   6.337
 4442POPC   D2A57028  38.312   6.587   6.713
 4442POPC   C3A57029  38.538   6.605   7.076
 4442POPC   C4A57030  38.939   6.455   7.188
 4442POPC   C1B57031  37.996   6.509   6.300
 4442POPC   C2B57032  37.802   6.602   6.736
 4442POPC   C3B57033  37.954   6.497   7.149
 4442POPC   C4B57034  38.194   6.663   7.477
 4443POPC   NC357035  12.343  42.489   5.560
 4443POPC   PO457036  12.972  42.412   5.275
 4443POPC   GL157037  13.074  42.610   5.710
 4443POPC   GL257038  12.864  42.372   5.817
 4443POPC   C1A57039  13.171  42.526   6.218
 4443POPC   D2A57040  12.968  42.464   6.658
 4443POPC   C3A57041  13.117  42.298   7.112
 4443POPC   C4A57042  13.235  42.436   7.555
 4443POPC   C1B57043  12.654  42.528   6.201
 4443POPC   C2B57044  12.470  42.304   6.547
 4443POPC   C3B57045  12.613  42.254   6.979
 4443POPC   C4B57046  12.679  41.983   7.333
 4444POPC   NC357047  14.750  30.296   5.431
 4444POPC   PO457048  15.322  30.683   5.400
 4444POPC   GL157049  15.121  30.577   5.766
 4444POPC   GL257050  15.102  30.926   5.833
 4444POPC   C1A57051  14.927  30.603   6.169
 4444POPC   D2A57052  15.147  30.545   6.548
 4444POPC   C3A57053  15.026  30.549   6.966
 4444POPC   C4A57054  15.150  30.225   7.252
 4444POPC   C1B57055  15.033  31.093   6.263
 4444POPC   C2B57056  15.180  31.037   6.668
 4444POPC   C3B57057  15.337  30.956   7.082
 4444POPC   C4B57058  15.418  30.975   7.557
 4445POPC   NC357059  38.911   1.134   5.504
 4445POPC   PO457060  39.567   1.324   5.436
 4445POPC   GL157061  39.363   1.109   5.776
 4445POPC   GL257062  39.184   1.404   5.858
 4445POPC   C1A57063  39.231   0.943   6.195
 4445POPC   D2A57064  39.139   0.783   6.619
 4445POPC   C3A57065  39.190   1.013   6.999
 4445POPC   C4A57066  39.326   1.449   7.090
 4445POPC   C1B57067  38.874   1.337   6.181
 4445POPC   C2B57068  38.812   1.494   6.615
 4445POPC   C3B57069  38.792   1.371   7.032
 4445POPC   C4B57070  38.891   1.514   7.416
 4446POPC   NC357071  10.144  30.492   5.132
 4446POPC   PO457072  10.687  30.774   5.423
 4446POPC   GL157073  10.506  30.675   5.801
 4446POPC   GL257074  10.642  30.331   5.799
 4446POPC   C1A57075  10.487  30.921   6.201
 4446POPC   D2A57076  10.723  31.077   6.558
 4446POPC   C3A57077  10.466  31.036   6.899
 4446POPC   C4A57078  10.474  30.880   7.314
 4446POPC   C1B57079  10.523  30.401   6.234
 4446POPC   C2B57080  10.444  30.579   6.648
 4446POPC   C3B57081  10.431  30.380   7.085
 4446POPC   C4B57082  10.451  30.361   7.604
 4447POPC   NC357083  32.401   7.655   5.354
 4447POPC   PO457084  31.942   7.301   5.616
 4447POPC   GL157085  32.122   7.656   5.790
 4447POPC   GL257086  31.838   7.633   5.981
 4447POPC   C1A57087  32.281   7.681   6.200
 4447POPC   D2A57088  32.183   7.411   6.508
 4447POPC   C3A57089  32.025   7.537   6.851
 4447POPC   C4A57090  32.212   7.650   7.220
 4447POPC   C1B57091  31.802   7.180   6.224
 4447POPC   C2B57092  31.825   7.055   6.667
 4447POPC   C3B57093  31.779   7.020   7.102
 4447POPC   C4B57094  32.052   7.199   7.409
 4448POPC   NC357095   2.160  23.909   5.426
 4448POPC   PO457096   1.590  23.510   5.327
 4448POPC   GL157097   1.863  23.540   5.754
 4448POPC   GL257098   1.891  23.884   5.885
 4448POPC   C1A57099   2.098  23.557   6.207
 4448POPC   D2A57100   1.939  23.608   6.620
 4448POPC   C3A57101   2.203  23.485   6.934
 4448POPC   C4A57102   2.394  23.807   7.156
 4448POPC   C1B57103   1.604  23.637   6.214
 4448POPC   C2B57104   1.564  23.276   6.563
 4448POPC   C3B57105   1.630  23.402   7.004
 4448POPC   C4B57106   1.819  23.806   7.090
 4449POPC   NC357107  16.517  14.250   5.432
 4449POPC   PO457108  17.080  14.535   5.510
 4449POPC   GL157109  16.790  14.438   5.813
 4449POPC   GL257110  16.918  14.147   5.868
 4449POPC   C1A57111  16.518  14.369   6.162
 4449POPC   D2A57112  16.747  14.442   6.543
 4449POPC   C3A57113  16.497  14.451   6.921
 4449POPC   C4A57114  16.599  14.447   7.357
 4449POPC   C1B57115  16.848  13.988   6.263
 4449POPC   C2B57116  16.681  13.969   6.682
 4449POPC   C3B57117  16.861  14.100   7.084
 4449POPC   C4B57118  16.785  13.969   7.523
 4450POPC   NC357119  37.373  14.344   5.495
 4450POPC   PO457120  37.746  14.916   5.318
 4450POPC   GL157121  37.765  14.635   5.708
 4450POPC   GL257122  38.054  14.763   5.848
 4450POPC   C1A57123  37.739  14.328   6.116
 4450POPC   D2A57124  37.683  14.061   6.498
 4450POPC   C3A57125  37.673  14.245   6.910
 4450POPC   C4A57126  37.562  14.126   7.322
 4450POPC   C1B57127  37.903  14.777   6.264
 4450POPC   C2B57128  37.622  14.654   6.541
 4450POPC   C3B57129  37.724  14.761   6.905
 4450POPC   C4B57130  37.634  14.648   7.287
 4451POPC   NC357131  39.910   1.162   5.688
 4451POPC   PO457132  40.604   1.270   5.545
 4451POPC   GL157133  40.360   1.169   5.952
 4451POPC   GL257134  40.194   0.841   5.953
 4451POPC   C1A57135  40.121   1.123   6.399
 4451POPC   D2A57136  39.755   1.296   6.708
 4451POPC   C3A57137  39.851   1.512   7.083
 4451POPC   C4A57138  40.237   1.406   7.195
 4451POPC   C1B57139  40.502   0.767   6.250
 4451POPC   C2B57140  40.545   0.819   6.673
 4451POPC   C3B57141  40.205   0.961   6.904
 4451POPC   C4B57142  40.116   0.837   7.291
 4452POPC   NC357143  38.609   9.830   5.394
 4452POPC   PO457144  38.138   9.400   5.414
 4452POPC   GL157145  38.297   9.641   5.773
 4452POPC   GL257146  38.636   9.517   5.819
 4452POPC   C1A57147  38.315   9.906   6.176
 4452POPC   D2A57148  38.112   9.893   6.605
 4452POPC   C3A57149  38.294   9.987   6.999
 4452POPC   C4A57150  38.340   9.909   7.454
 4452POPC   C1B57151  38.791   9.704   6.184
 4452POPC   C2B57152  38.625   9.809   6.598
 4452POPC   C3B57153  38.741   9.706   7.015
 4452POPC   C4B57154  38.569   9.461   7.356
 4453POPC   NC357155  37.721  26.965   5.403
 4453POPC   PO457156  37.829  26.347   5.377
 4453POPC   GL157157  37.854  26.526   5.799
 4453POPC   GL257158  38.058  26.846   5.784
 4453POPC   C1A57159  37.986  26.560   6.247
 4453POPC   D2A57160  38.167  26.635   6.665
 4453POPC   C3A57161  37.825  26.568   7.018
 4453POPC   C4A57162  37.440  26.853   7.038
 4453POPC   C1B57163  37.819  27.044   6.135
 4453POPC   C2B57164  37.730  26.917   6.564
 4453POPC   C3B57165  37.948  27.035   6.915
 4453POPC   C4B57166  37.813  27.110   7.310
 4454POPC   NC357167   3.393  11.075   5.388
 4454POPC   PO457168   3.576  11.770   5.416
 4454POPC   GL157169   3.371  11.508   5.750
 4454POPC   GL257170   3.658  11.283   5.758
 4454POPC   C1A57171   3.372  11.306   6.187
 4454POPC   D2A57172   3.399  10.959   6.527
 4454POPC   C3A57173   3.498  11.154   6.931
 4454POPC   C4A57174   3.525  11.599   7.055
 4454POPC   C1B57175   3.874  11.226   6.133
 4454POPC   C2B57176   3.797  11.336   6.546
 4454POPC   C3B57177   4.029  11.359   6.897
 4454POPC   C4B57178   3.876  11.288   7.278
 4455POPC   NC357179  26.171  12.274   5.300
 4455POPC   PO457180  26.204  11.581   5.419
 4455POPC   GL157181  26.118  11.954   5.729
 4455POPC   GL257182  26.140  12.333   5.806
 4455POPC   C1A57183  26.272  11.995   6.169
 4455POPC   D2A57184  26.118  12.073   6.590
 4455POPC   C3A57185  26.276  11.855   6.950
 4455POPC   C4A57186  25.905  11.931   7.175
 4455POPC   C1B57187  25.940  12.428   6.218
 4455POPC   C2B57188  25.917  12.544   6.684
 4455POPC   C3B57189  25.691  12.411   7.095
 4455POPC   C4B57190  25.714  12.521   7.563
 4456POPC   NC357191   7.946   6.742   5.196
 4456POPC   PO457192   8.438   6.461   5.512
 4456POPC   GL157193   8.204   6.525   5.882
 4456POPC   GL257194   8.112   6.855   5.861
 4456POPC   C1A57195   8.288   6.642   6.332
 4456POPC   D2A57196   8.435   6.339   6.670
 4456POPC   C3A57197   8.057   6.199   6.857
 4456POPC   C4A57198   7.897   6.405   7.225
 4456POPC   C1B57199   7.804   6.898   6.200
 4456POPC   C2B57200   7.937   6.934   6.593
 4456POPC   C3B57201   8.168   6.728   6.894
 4456POPC   C4B57202   8.126   6.876   7.298
 4457POPC   NC357203  33.117  34.121   5.401
 4457POPC   PO457204  33.101  33.473   5.601
 4457POPC   GL157205  33.176  33.693   5.961
 4457POPC   GL257206  33.146  34.054   5.914
 4457POPC   C1A57207  33.115  33.776   6.388
 4457POPC   D2A57208  33.021  33.831   6.808
 4457POPC   C3A57209  32.840  33.655   7.135
 4457POPC   C4A57210  33.166  33.705   7.446
 4457POPC   C1B57211  33.480  34.138   6.244
 4457POPC   C2B57212  33.471  34.057   6.692
 4457POPC   C3B57213  33.318  34.071   7.134
 4457POPC   C4B57214  33.183  34.225   7.568
 4458POPC   NC357215   8.212  23.170   5.425
 4458POPC   PO457216   7.577  22.712   5.464
 4458POPC   GL157217   7.956  22.782   5.804
 4458POPC   GL257218   8.274  22.983   5.881
 4458POPC   C1A57219   8.086  22.669   6.217
 4458POPC   D2A57220   8.150  22.907   6.587
 4458POPC   C3A57221   8.147  22.748   6.995
 4458POPC   C4A57222   7.870  22.932   7.323
 4458POPC   C1B57223   8.559  22.938   6.258
 4458POPC   C2B57224   8.659  22.909   6.715
 4458POPC   C3B57225   8.517  23.110   7.081
 4458POPC   C4B57226   8.559  23.276   7.492
 4459POPC   NC357227  37.467  34.562   5.385
 4459POPC   PO457228  38.020  34.897   5.557
 4459POPC   GL157229  37.721  34.774   5.819
 4459POPC   GL257230  37.690  34.412   5.846
 4459POPC   C1A57231  37.631  34.712   6.251
 4459POPC   D2A57232  37.833  34.474   6.578
 4459POPC   C3A57233  37.841  34.690   6.958
 4459POPC   C4A57234  37.693  34.671   7.347
 4459POPC   C1B57235  37.504  34.211   6.246
 4459POPC   C2B57236  37.520  34.064   6.671
 4459POPC   C3B57237  37.684  34.212   7.034
 4459POPC   C4B57238  37.805  34.201   7.449
 4460POPC   NC357239  32.230  35.882   5.452
 4460POPC   PO457240  32.639  36.414   5.347
 4460POPC   GL157241  32.388  36.267   5.773
 4460POPC   GL257242  32.609  35.962   5.804
 4460POPC   C1A57243  32.118  36.201   6.230
 4460POPC   D2A57244  32.124  36.084   6.716
 4460POPC   C3A57245  31.831  36.264   7.096
 4460POPC   C4A57246  31.876  36.359   7.596
 4460POPC   C1B57247  32.631  36.113   6.232
 4460POPC   C2B57248  32.829  36.225   6.620
 4460POPC   C3B57249  32.655  36.096   7.003
 4460POPC   C4B57250  32.281  36.067   7.207
 4461POPC   NC357251  34.885  23.622   5.538
 4461POPC   PO457252  35.503  23.943   5.464
 4461POPC   GL157253  35.395  23.803   5.888
 4461POPC   GL257254  35.254  23.479   5.837
 4461POPC   C1A57255  35.385  23.779   6.362
 4461POPC   D2A57256  35.120  23.904   6.721
 4461POPC   C3A57257  35.280  24.000   7.120
 4461POPC   C4A57258  35.700  24.066   6.982
 4461POPC   C1B57259  35.116  23.336   6.233
 4461POPC   C2B57260  35.296  23.323   6.627
 4461POPC   C3B57261  35.251  23.481   7.020
 4461POPC   C4B57262  35.472  23.318   7.351
 4462POPC   NC357263  18.234  39.058   5.366
 4462POPC   PO457264  18.113  39.727   5.621
 4462POPC   GL157265  18.157  39.275   5.830
 4462POPC   GL257266  18.435  38.985   5.835
 4462POPC   C1A57267  18.060  38.966   6.168
 4462POPC   D2A57268  18.267  38.950   6.575
 4462POPC   C3A57269  18.132  39.208   6.902
 4462POPC   C4A57270  18.270  39.235   7.306
 4462POPC   C1B57271  18.592  39.292   6.135
 4462POPC   C2B57272  18.465  39.456   6.546
 4462POPC   C3B57273  18.631  39.376   6.954
 4462POPC   C4B57274  18.752  39.420   7.382
 4463POPC   NC357275  24.817  42.858   5.290
 4463POPC   PO457276  24.511  43.292   5.639
 4463POPC   GL157277  24.565  43.121   6.022
 4463POPC   GL257278  24.605  42.802   5.822
 4463POPC   C1A57279  24.551  43.286   6.416
 4463POPC   D2A57280  24.194  43.392   6.661
 4463POPC   C3A57281  24.295  43.331   7.050
 4463POPC   C4A57282  24.709  43.398   7.145
 4463POPC   C1B57283  24.350  42.706   6.168
 4463POPC   C2B57284  24.316  42.847   6.565
 4463POPC   C3B57285  24.333  42.616   6.919
 4463POPC   C4B57286  24.535  42.889   7.161
 4464POPC   NC357287  21.209  35.104   5.414
 4464POPC   PO457288  21.729  35.484   5.470
 4464POPC   GL157289  21.571  35.231   5.778
 4464POPC   GL257290  21.546  35.562   5.942
 4464POPC   C1A57291  21.240  35.168   6.095
 4464POPC   D2A57292  21.154  35.441   6.454
 4464POPC   C3A57293  21.034  35.187   6.810
 4464POPC   C4A57294  20.967  35.231   7.230
 4464POPC   C1B57295  21.665  35.363   6.306
 4464POPC   C2B57296  21.531  35.184   6.696
 4464POPC   C3B57297  21.484  35.313   7.108
 4464POPC   C4B57298  21.626  35.596   7.395
 4465POPC   NC357299  38.284  17.797   5.590
 4465POPC   PO457300  38.295  18.407   5.365
 4465POPC   GL157301  38.434  18.249   5.779
 4465POPC   GL257302  38.452  18.556   5.978
 4465POPC   C1A57303  38.279  18.109   6.200
 4465POPC   D2A57304  38.524  17.968   6.546
 4465POPC   C3A57305  38.438  18.199   6.901
 4465POPC   C4A57306  38.360  18.102   7.323
 4465POPC   C1B57307  38.729  18.331   6.226
 4465POPC   C2B57308  38.889  18.432   6.572
 4465POPC   C3B57309  38.929  18.307   6.920
 4465POPC   C4B57310  38.729  18.442   7.265
 4466POPC   NC357311  29.592  25.635   5.589
 4466POPC   PO457312  29.670  24.929   5.625
 4466POPC   GL157313  29.974  25.067   5.903
 4466POPC   GL257314  29.856  25.366   5.921
 4466POPC   C1A57315  30.226  25.163   6.255
 4466POPC   D2A57316  30.376  25.005   6.631
 4466POPC   C3A57317  30.167  25.247   6.911
 4466POPC   C4A57318  30.066  25.276   7.309
 4466POPC   C1B57319  29.639  25.525   6.283
 4466POPC   C2B57320  29.510  25.529   6.702
 4466POPC   C3B57321  29.622  25.296   7.035
 4466POPC   C4B57322  29.684  25.624   7.312
 4467POPC   NC357323  28.990  32.617   5.223
 4467POPC   PO457324  29.473  33.138   5.352
 4467POPC   GL157325  29.183  33.095   5.758
 4467POPC   GL257326  29.036  32.802   5.935
 4467POPC   C1A57327  29.071  33.221   6.196
 4467POPC   D2A57328  29.177  33.027   6.576
 4467POPC   C3A57329  29.083  33.140   6.992
 4467POPC   C4A57330  28.920  32.764   7.172
 4467POPC   C1B57331  29.453  32.843   6.158
 4467POPC   C2B57332  29.634  32.731   6.543
 4467POPC   C3B57333  29.364  32.655   6.898
 4467POPC   C4B57334  29.419  32.831   7.280
 4468POPC   NC357335  24.947  43.163   5.717
 4468POPC   PO457336  25.588  43.077   5.640
 4468POPC   GL157337  25.353  43.012   6.010
 4468POPC   GL257338  25.141  42.735   5.870
 4468POPC   C1A57339  25.169  43.329   6.305
 4468POPC   D2A57340  25.155  43.457   6.733
 4468POPC   C3A57341  25.461  43.158   6.888
 4468POPC   C4A57342  25.466  42.932   7.272
 4468POPC   C1B57343  24.911  42.781   6.253
 4468POPC   C2B57344  25.025  42.950   6.640
 4468POPC   C3B57345  25.010  43.017   7.061
 4468POPC   C4B57346  24.938  42.782   7.422
 4469POPC   NC357347  10.284   6.184   5.618
 4469POPC   PO457348   9.884   5.609   5.548
 4469POPC   GL157349   9.875   5.888   5.943
 4469POPC   GL257350   9.598   6.126   6.018
 4469POPC   C1A57351   9.869   6.008   6.427
 4469POPC   D2A57352  10.034   6.201   6.856
 4469POPC   C3A57353  10.081   5.954   7.243
 4469POPC   C4A57354   9.881   5.588   7.467
 4469POPC   C1B57355   9.440   5.714   6.199
 4469POPC   C2B57356   9.447   5.560   6.637
 4469POPC   C3B57357   9.647   5.818   6.976
 4469POPC   C4B57358   9.476   5.878   7.378
 4470POPC   NC357359  25.483  43.951   5.417
 4470POPC   PO457360  25.056  43.457   5.387
 4470POPC   GL157361  25.051  43.658   5.858
 4470POPC   GL257362  25.206  43.990   5.853
 4470POPC   C1A57363  25.113  43.850   6.336
 4470POPC   D2A57364  25.053  44.099   6.748
 4470POPC   C3A57365  25.074  43.837   7.136
 4470POPC   C4A57366  25.238  43.426   7.259
 4470POPC   C1B57367  25.504  44.169   6.182
 4470POPC   C2B57368  25.548  44.350   6.624
 4470POPC   C3B57369  25.685  44.259   7.072
 4470POPC   C4B57370  25.367  44.178   7.386
 4471POPC   NC357371   1.792  29.651   5.019
 4471POPC   PO457372   2.294  29.972   5.424
 4471POPC   GL157373   2.131  29.958   5.841
 4471POPC   GL257374   2.314  29.629   5.842
 4471POPC   C1A57375   1.895  29.971   6.229
 4471POPC   D2A57376   1.728  29.940   6.652
 4471POPC   C3A57377   1.841  30.169   7.002
 4471POPC   C4A57378   1.743  30.100   7.442
 4471POPC   C1B57379   2.216  29.521   6.249
 4471POPC   C2B57380   2.210  29.469   6.700
 4471POPC   C3B57381   2.040  29.692   7.053
 4471POPC   C4B57382   2.224  29.967   7.323
 4472POPC   NC357383  34.015  10.281   5.350
 4472POPC   PO457384  33.682  10.944   5.403
 4472POPC   GL157385  33.769  10.600   5.717
 4472POPC   GL257386  34.109  10.452   5.808
 4472POPC   C1A57387  33.740  10.484   6.183
 4472POPC   D2A57388  33.551  10.606   6.578
 4472POPC   C3A57389  33.738  10.578   6.991
 4472POPC   C4A57390  33.781  10.328   7.365
 4472POPC   C1B57391  34.156  10.174   6.173
 4472POPC   C2B57392  34.254  10.089   6.612
 4472POPC   C3B57393  34.111  10.208   6.995
 4472POPC   C4B57394  34.242  10.127   7.418
 4473POPC   NC357395  40.841  12.498   5.162
 4473POPC   PO457396  41.025  11.882   5.427
 4473POPC   GL157397  40.803  12.059   5.758
 4473POPC   GL257398  40.483  12.253   5.758
 4473POPC   C1A57399  40.854  12.076   6.183
 4473POPC   D2A57400  40.915  11.827   6.561
 4473POPC   C3A57401  40.758  12.005   6.952
 4473POPC   C4A57402  40.798  12.050   7.395
 4473POPC   C1B57403  40.466  12.465   6.151
 4473POPC   C2B57404  40.599  12.299   6.555
 4473POPC   C3B57405  40.469  12.415   6.936
 4473POPC   C4B57406  40.478  12.433   7.376
 4474POPC   NC357407  19.472   4.877   5.568
 4474POPC   PO457408  20.056   5.244   5.434
 4474POPC   GL157409  19.908   5.364   5.843
 4474POPC   GL257410  19.782   5.009   5.952
 4474POPC   C1A57411  20.003   5.297   6.289
 4474POPC   D2A57412  19.807   4.991   6.544
 4474POPC   C3A57413  19.894   5.167   6.928
 4474POPC   C4A57414  20.162   5.154   7.301
 4474POPC   C1B57415  19.398   4.872   6.217
 4474POPC   C2B57416  19.322   4.741   6.656
 4474POPC   C3B57417  19.637   4.712   6.976
 4474POPC   C4B57418  19.711   4.893   7.367
 4475POPC   NC357419  14.820   8.219   5.343
 4475POPC   PO457420  14.195   8.023   5.656
 4475POPC   GL157421  14.517   8.196   5.857
 4475POPC   GL257422  14.489   8.522   5.741
 4475POPC   C1A57423  14.518   8.131   6.300
 4475POPC   D2A57424  14.230   8.269   6.610
 4475POPC   C3A57425  14.383   8.179   7.006
 4475POPC   C4A57426  14.402   8.016   7.413
 4475POPC   C1B57427  14.767   8.558   6.112
 4475POPC   C2B57428  14.892   8.439   6.522
 4475POPC   C3B57429  14.819   8.458   6.970
 4475POPC   C4B57430  14.539   8.516   7.374
 4476POPC   NC357431  12.742  41.991   5.421
 4476POPC   PO457432  12.712  41.297   5.394
 4476POPC   GL157433  12.761  41.586   5.753
 4476POPC   GL257434  13.040  41.843   5.801
 4476POPC   C1A57435  12.771  41.579   6.215
 4476POPC   D2A57436  12.570  41.509   6.626
 4476POPC   C3A57437  12.797  41.326   6.984
 4476POPC   C4A57438  13.074  41.150   7.357
 4476POPC   C1B57439  12.985  42.049   6.201
 4476POPC   C2B57440  12.841  41.960   6.600
 4476POPC   C3B57441  12.958  41.805   6.972
 4476POPC   C4B57442  13.042  41.643   7.382
 4477POPC   NC357443  44.919  20.995   5.455
 4477POPC   PO457444  44.309  21.291   5.456
 4477POPC   GL157445  44.563  21.151   5.797
 4477POPC   GL257446  44.849  21.371   5.880
 4477POPC   C1A57447  44.509  21.311   6.236
 4477POPC   D2A57448  44.667  21.326   6.655
 4477POPC   C3A57449  44.381  21.308   6.971
 4477POPC   C4A57450  44.411  21.449   7.377
 4477POPC   C1B57451  44.928  21.601   6.272
 4477POPC   C2B57452  44.907  21.779   6.699
 4477POPC   C3B57453  44.859  21.530   7.108
 4477POPC   C4B57454  44.846  21.638   7.547
 4478POPC   NC357455   3.665   5.710   5.322
 4478POPC   PO457456   3.716   6.409   5.313
 4478POPC   GL157457   3.495   6.056   5.646
 4478POPC   GL257458   3.725   5.785   5.822
 4478POPC   C1A57459   3.370   6.020   6.105
 4478POPC   D2A57460   3.403   5.750   6.483
 4478POPC   C3A57461   3.341   5.913   6.900
 4478POPC   C4A57462   3.320   5.904   7.317
 4478POPC   C1B57463   3.882   5.995   6.213
 4478POPC   C2B57464   3.742   6.117   6.632
 4478POPC   C3B57465   3.846   6.073   7.076
 4478POPC   C4B57466   4.063   6.441   7.234
 4479POPC   NC357467  17.483  28.927   5.406
 4479POPC   PO457468  17.911  29.344   5.466
 4479POPC   GL157469  17.608  29.332   5.810
 4479POPC   GL257470  17.321  29.050   5.863
 4479POPC   C1A57471  17.710  29.495   6.228
 4479POPC   D2A57472  17.502  29.343   6.602
 4479POPC   C3A57473  17.715  29.278   6.965
 4479POPC   C4A57474  17.529  29.180   7.372
 4479POPC   C1B57475  17.561  28.980   6.215
 4479POPC   C2B57476  17.612  28.835   6.630
 4479POPC   C3B57477  17.336  28.923   6.959
 4479POPC   C4B57478  17.061  28.959   7.309
 4480POPC   NC357479  10.717  15.930   5.515
 4480POPC   PO457480  10.271  16.348   5.830
 4480POPC   GL157481  10.479  15.903   5.966
 4480POPC   GL257482  10.809  15.684   5.936
 4480POPC   C1A57483  10.473  15.915   6.382
 4480POPC   D2A57484  10.283  16.235   6.570
 4480POPC   C3A57485  10.432  16.255   6.962
 4480POPC   C4A57486  10.298  16.201   7.380
 4480POPC   C1B57487  10.957  16.001   6.222
 4480POPC   C2B57488  10.822  16.285   6.555
 4480POPC   C3B57489  10.947  16.259   6.967
 4480POPC   C4B57490  10.791  16.004   7.277
 4481POPC   NC357491   1.684   2.227   5.607
 4481POPC   PO457492   2.036   1.656   5.429
 4481POPC   GL157493   1.996   1.873   5.815
 4481POPC   GL257494   2.170   2.179   5.833
 4481POPC   C1A57495   1.829   2.033   6.211
 4481POPC   D2A57496   1.822   2.306   6.569
 4481POPC   C3A57497   1.704   2.163   6.971
 4481POPC   C4A57498   1.885   1.806   7.189
 4481POPC   C1B57499   2.296   2.276   6.256
 4481POPC   C2B57500   2.318   2.280   6.724
 4481POPC   C3B57501   2.133   2.432   7.111
 4481POPC   C4B57502   2.280   2.415   7.566
 4482POPC   NC357503  30.742  16.299   5.466
 4482POPC   PO457504  31.164  15.797   5.440
 4482POPC   GL157505  30.947  15.972   5.812
 4482POPC   GL257506  30.586  15.918   5.801
 4482POPC   C1A57507  31.048  15.851   6.248
 4482POPC   D2A57508  31.133  15.634   6.649
 4482POPC   C3A57509  31.062  15.871   7.041
 4482POPC   C4A57510  30.886  15.968   7.460
 4482POPC   C1B57511  30.254  15.896   6.144
 4482POPC   C2B57512  30.297  16.063   6.544
 4482POPC   C3B57513  30.411  15.943   6.952
 4482POPC   C4B57514  30.409  16.113   7.385
 4483POPC   NC357515  15.385  40.732   5.358
 4483POPC   PO457516  14.813  41.047   5.345
 4483POPC   GL157517  15.038  40.864   5.734
 4483POPC   GL257518  15.369  41.030   5.771
 4483POPC   C1A57519  15.229  40.680   6.129
 4483POPC   D2A57520  15.425  40.572   6.539
 4483POPC   C3A57521  15.130  40.629   6.854
 4483POPC   C4A57522  15.158  40.439   7.239
 4483POPC   C1B57523  15.435  41.181   6.173
 4483POPC   C2B57524  15.314  41.052   6.574
 4483POPC   C3B57525  15.570  40.878   6.939
 4483POPC   C4B57526  15.579  40.702   7.347
 4484POPC   NC357527  37.911  21.303   5.385
 4484POPC   PO457528  37.558  21.738   4.978
 4484POPC   GL157529  37.600  21.755   5.517
 4484POPC   GL257530  37.915  21.667   5.743
 4484POPC   C1A57531  37.431  21.722   6.004
 4484POPC   D2A57532  37.290  21.552   6.457
 4484POPC   C3A57533  37.537  21.508   6.860
 4484POPC   C4A57534  37.705  21.396   7.280
 4484POPC   C1B57535  38.030  21.519   6.174
 4484POPC   C2B57536  37.956  21.345   6.607
 4484POPC   C3B57537  38.137  21.389   7.039
 4484POPC   C4B57538  38.150  21.443   7.522
 4485POPC   NC357539  36.325  19.091   5.347
 4485POPC   PO457540  35.690  18.878   5.340
 4485POPC   GL157541  35.971  19.029   5.749
 4485POPC   GL257542  36.272  18.835   5.782
 4485POPC   C1A57543  36.170  19.018   6.230
 4485POPC   D2A57544  36.092  18.778   6.611
 4485POPC   C3A57545  36.119  19.018   6.984
 4485POPC   C4A57546  36.054  19.192   7.416
 4485POPC   C1B57547  36.577  18.719   6.103
 4485POPC   C2B57548  36.630  18.816   6.528
 4485POPC   C3B57549  36.529  18.713   6.949
 4485POPC   C4B57550  36.322  18.746   7.367
 4486POPC   NC357551  18.385  11.064   5.553
 4486POPC   PO457552  18.338  11.817   5.460
 4486POPC   GL157553  18.496  11.604   5.823
 4486POPC   GL257554  18.190  11.447   5.851
 4486POPC   C1A57555  18.536  11.340   6.229
 4486POPC   D2A57556  18.324  11.254   6.672
 4486POPC   C3A57557  18.581  11.403   7.045
 4486POPC   C4A57558  18.542  11.158   7.420
 4486POPC   C1B57559  18.023  11.425   6.272
 4486POPC   C2B57560  17.724  11.634   6.560
 4486POPC   C3B57561  17.760  11.583   6.982
 4486POPC   C4B57562  18.100  11.375   7.158
 4487POPC   NC357563  43.317   2.626   5.435
 4487POPC   PO457564  42.660   2.694   5.172
 4487POPC   GL157565  42.833   2.889   5.614
 4487POPC   GL257566  42.830   2.665   5.882
 4487POPC   C1A57567  42.879   3.125   6.090
 4487POPC   D2A57568  42.942   3.178   6.594
 4487POPC   C3A57569  43.300   2.993   6.867
 4487POPC   C4A57570  43.389   2.590   7.071
 4487POPC   C1B57571  43.139   2.423   6.145
 4487POPC   C2B57572  43.179   2.414   6.594
 4487POPC   C3B57573  42.907   2.643   6.872
 4487POPC   C4B57574  42.880   2.659   7.315
 4488POPC   NC357575  19.861  17.027   5.370
 4488POPC   PO457576  19.742  16.400   5.237
 4488POPC   GL157577  19.767  16.580   5.683
 4488POPC   GL257578  19.904  16.877   5.859
 4488POPC   C1A57579  19.562  16.530   6.112
 4488POPC   D2A57580  19.657  16.762   6.522
 4488POPC   C3A57581  19.461  16.681   6.957
 4488POPC   C4A57582  19.564  16.776   7.395
 4488POPC   C1B57583  20.067  16.586   6.150
 4488POPC   C2B57584  20.213  16.690   6.541
 4488POPC   C3B57585  20.018  16.893   6.886
 4488POPC   C4B57586  20.050  16.669   7.242
 4489POPC   NC357587  17.834  17.065   5.438
 4489POPC   PO457588  17.456  17.669   5.374
 4489POPC   GL157589  17.770  17.588   5.704
 4489POPC   GL257590  17.835  17.920   5.813
 4489POPC   C1A57591  17.807  17.276   6.075
 4489POPC   D2A57592  17.517  17.174   6.395
 4489POPC   C3A57593  17.514  17.336   6.807
 4489POPC   C4A57594  17.264  17.319   7.190
 4489POPC   C1B57595  17.970  17.731   6.199
 4489POPC   C2B57596  17.972  17.597   6.637
 4489POPC   C3B57597  17.848  17.661   7.067
 4489POPC   C4B57598  17.761  17.267   7.258
 4490POPC   NC357599  25.153  17.830   5.540
 4490POPC   PO457600  25.627  17.383   5.330
 4490POPC   GL157601  25.509  17.519   5.770
 4490POPC   GL257602  25.146  17.375   5.791
 4490POPC   C1A57603  25.515  17.662   6.230
 4490POPC   D2A57604  25.509  17.607   6.713
 4490POPC   C3A57605  25.140  17.519   6.981
 4490POPC   C4A57606  25.116  17.755   7.376
 4490POPC   C1B57607  25.165  17.288   6.240
 4490POPC   C2B57608  25.324  17.093   6.621
 4490POPC   C3B57609  25.523  17.150   7.022
 4490POPC   C4B57610  25.430  17.334   7.393
 4491POPC   NC357611   5.385  22.779   5.461
 4491POPC   PO457612   5.282  23.362   5.355
 4491POPC   GL157613   5.149  23.131   5.730
 4491POPC   GL257614   4.819  23.234   5.739
 4491POPC   C1A57615   5.238  22.769   6.093
 4491POPC   D2A57616   5.372  22.567   6.512
 4491POPC   C3A57617   5.205  22.730   6.896
 4491POPC   C4A57618   5.378  22.720   7.303
 4491POPC   C1B57619   5.013  23.263   6.184
 4491POPC   C2B57620   5.063  23.174   6.614
 4491POPC   C3B57621   5.007  23.352   7.015
 4491POPC   C4B57622   5.048  23.103   7.370
 4492POPC   NC357623  15.024  20.371   5.384
 4492POPC   PO457624  15.070  21.024   5.378
 4492POPC   GL157625  15.172  20.724   5.732
 4492POPC   GL257626  15.418  20.455   5.698
 4492POPC   C1A57627  15.118  20.540   6.168
 4492POPC   D2A57628  14.921  20.688   6.580
 4492POPC   C3A57629  15.200  20.657   6.947
 4492POPC   C4A57630  15.225  20.297   7.203
 4492POPC   C1B57631  15.583  20.751   6.033
 4492POPC   C2B57632  15.463  20.785   6.467
 4492POPC   C3B57633  15.659  20.904   6.821
 4492POPC   C4B57634  15.639  20.709   7.220
 4493POPC   NC357635  20.686  25.708   5.328
 4493POPC   PO457636  20.131  26.085   5.416
 4493POPC   GL157637  20.399  26.067   5.785
 4493POPC   GL257638  20.739  25.932   5.774
 4493POPC   C1A57639  20.422  25.970   6.230
 4493POPC   D2A57640  20.556  26.173   6.637
 4493POPC   C3A57641  20.467  25.927   7.005
 4493POPC   C4A57642  20.461  25.635   7.348
 4493POPC   C1B57643  20.931  25.970   6.157
 4493POPC   C2B57644  20.806  25.755   6.521
 4493POPC   C3B57645  20.953  25.841   6.907
 4493POPC   C4B57646  20.906  25.928   7.326
 4494POPC   NC357647  12.918   0.285   5.387
 4494POPC   PO457648  12.620   0.897   5.342
 4494POPC   GL157649  12.795   0.665   5.707
 4494POPC   GL257650  12.508   0.452   5.796
 4494POPC   C1A57651  12.946   0.433   6.096
 4494POPC   D2A57652  12.806   0.399   6.544
 4494POPC   C3A57653  13.052   0.413   6.969
 4494POPC   C4A57654  13.143   0.717   7.321
 4494POPC   C1B57655  12.339   0.265   6.185
 4494POPC   C2B57656  12.321   0.155   6.616
 4494POPC   C3B57657  12.523   0.363   6.965
 4494POPC   C4B57658  12.363   0.474   7.333
 4495POPC   NC357659   0.592  38.963   5.413
 4495POPC   PO457660   0.308  39.653   5.185
 4495POPC   GL157661   0.324  39.646   5.674
 4495POPC   GL257662   0.308  39.262   5.734
 4495POPC   C1A57663   0.356  39.555   6.140
 4495POPC   D2A57664   0.610  39.260   6.422
 4495POPC   C3A57665   0.804  39.374   6.811
 4495POPC   C4A57666   0.576  39.412   7.184
 4495POPC   C1B57667   0.312  39.008   6.091
 4495POPC   C2B57668   0.242  38.922   6.543
 4495POPC   C3B57669   0.324  39.054   6.939
 4495POPC   C4B57670   0.254  39.046   7.382
 4496POPC   NC357671  35.905  26.999   5.433
 4496POPC   PO457672  36.344  26.553   5.375
 4496POPC   GL157673  36.175  26.719   5.787
 4496POPC   GL257674  35.845  26.528   5.768
 4496POPC   C1A57675  36.326  26.863   6.231
 4496POPC   D2A57676  36.273  26.657   6.665
 4496POPC   C3A57677  36.406  26.827   7.091
 4496POPC   C4A57678  36.148  26.844   7.510
 4496POPC   C1B57679  35.898  26.606   6.212
 4496POPC   C2B57680  35.867  26.985   6.494
 4496POPC   C3B57681  35.915  26.919   6.937
 4496POPC   C4B57682  35.853  26.538   7.193
 4497POPC   NC357683  35.927  12.947   5.549
 4497POPC   PO457684  36.610  13.061   5.477
 4497POPC   GL157685  36.323  13.055   5.824
 4497POPC   GL257686  36.269  12.663   5.817
 4497POPC   C1A57687  36.041  12.999   6.213
 4497POPC   D2A57688  35.889  12.837   6.629
 4497POPC   C3A57689  36.169  12.790   6.944
 4497POPC   C4A57690  36.157  12.842   7.332
 4497POPC   C1B57691  36.179  12.501   6.241
 4497POPC   C2B57692  36.007  12.280   6.594
 4497POPC   C3B57693  35.901  12.374   7.026
 4497POPC   C4B57694  36.003  12.413   7.506
 4498POPC   NC357695  32.608  37.421   5.617
 4498POPC   PO457696  32.904  37.948   5.280
 4498POPC   GL157697  32.908  37.837   5.752
 4498POPC   GL257698  32.577  37.893   5.846
 4498POPC   C1A57699  32.869  37.629   6.213
 4498POPC   D2A57700  32.686  37.559   6.661
 4498POPC   C3A57701  33.017  37.489   7.011
 4498POPC   C4A57702  33.407  37.306   7.228
 4498POPC   C1B57703  32.787  38.122   6.226
 4498POPC   C2B57704  32.765  38.270   6.664
 4498POPC   C3B57705  32.852  38.141   7.059
 4498POPC   C4B57706  32.841  37.807   7.352
 4499POPC   NC357707  28.074  20.206   5.577
 4499POPC   PO457708  28.721  20.169   5.452
 4499POPC   GL157709  28.616  20.304   5.894
 4499POPC   GL257710  28.287  20.453   5.973
 4499POPC   C1A57711  28.629  20.454   6.361
 4499POPC   D2A57712  28.792  20.359   6.805
 4499POPC   C3A57713  28.630  20.533   7.196
 4499POPC   C4A57714  28.597  20.860   7.528
 4499POPC   C1B57715  28.001  20.341   6.314
 4499POPC   C2B57716  27.855  20.386   6.725
 4499POPC   C3B57717  28.142  20.394   7.088
 4499POPC   C4B57718  28.152  20.593   7.484
 4500POPC   NC357719  25.337   1.478   5.407
 4500POPC   PO457720  25.175   2.105   5.280
 4500POPC   GL157721  25.366   2.046   5.662
 4500POPC   GL257722  25.090   2.229   5.771
 4500POPC   C1A57723  25.315   1.920   6.110
 4500POPC   D2A57724  25.125   1.734   6.476
 4500POPC   C3A57725  25.178   1.900   6.883
 4500POPC   C4A57726  25.041   1.756   7.268
 4500POPC   C1B57727  25.157   2.429   6.127
 4500POPC   C2B57728  25.203   2.254   6.512
 4500POPC   C3B57729  25.199   2.412   6.906
 4500POPC   C4B57730  25.177   2.247   7.291
 4501POPC   NC357731  37.879  22.317   5.385
 4501POPC   PO457732  37.185  22.104   5.511
 4501POPC   GL157733  37.561  22.253   5.800
 4501POPC   GL257734  37.927  22.160   5.874
 4501POPC   C1A57735  37.633  22.459   6.213
 4501POPC   D2A57736  37.910  22.382   6.562
 4501POPC   C3A57737  37.705  22.472   6.928
 4501POPC   C4A57738  37.639  22.334   7.338
 4501POPC   C1B57739  37.797  21.970   6.268
 4501POPC   C2B57740  37.911  21.859   6.703
 4501POPC   C3B57741  37.934  21.868   7.161
 4501POPC   C4B57742  37.792  21.901   7.606
 4502POPC   NC357743  17.584  11.657   5.471
 4502POPC   PO457744  17.905  11.111   5.514
 4502POPC   GL157745  17.674  11.330   5.857
 4502POPC   GL257746  17.748  11.692   5.946
 4502POPC   C1A57747  17.557  11.203   6.252
 4502POPC   D2A57748  17.785  11.111   6.621
 4502POPC   C3A57749  17.535  11.094   6.960
 4502POPC   C4A57750  17.733  11.072   7.316
 4502POPC   C1B57751  17.375  11.675   6.187
 4502POPC   C2B57752  17.242  11.441   6.569
 4502POPC   C3B57753  17.248  11.499   6.993
 4502POPC   C4B57754  17.078  11.307   7.318
 4503POPC   NC357755   6.425  22.306   5.262
 4503POPC   PO457756   6.938  21.912   5.462
 4503POPC   GL157757   6.617  22.099   5.713
 4503POPC   GL257758   6.785  22.421   5.818
 4503POPC   C1A57759   6.427  22.240   6.100
 4503POPC   D2A57760   6.297  22.053   6.462
 4503POPC   C3A57761   6.597  22.098   6.793
 4503POPC   C4A57762   6.502  22.226   7.182
 4503POPC   C1B57763   6.818  22.647   6.212
 4503POPC   C2B57764   6.577  22.583   6.591
 4503POPC   C3B57765   6.758  22.661   6.994
 4503POPC   C4B57766   6.709  22.569   7.463
 4504POPC   NC357767  16.287  23.425   5.387
 4504POPC   PO457768  15.833  23.916   5.358
 4504POPC   GL157769  15.849  23.754   5.788
 4504POPC   GL257770  16.216  23.687   5.854
 4504POPC   C1A57771  15.680  23.582   6.200
 4504POPC   D2A57772  15.915  23.457   6.603
 4504POPC   C3A57773  15.722  23.610   6.999
 4504POPC   C4A57774  15.656  24.052   7.096
 4504POPC   C1B57775  16.111  23.810   6.294
 4504POPC   C2B57776  16.012  23.951   6.713
 4504POPC   C3B57777  16.182  23.766   7.101
 4504POPC   C4B57778  16.424  23.592   7.434
 4505POPC   NC357779   8.480  37.178   5.650
 4505POPC   PO457780   8.114  36.896   5.154
 4505POPC   GL157781   8.062  36.867   5.651
 4505POPC   GL257782   8.157  36.594   5.905
 4505POPC   C1A57783   8.000  37.042   6.104
 4505POPC   D2A57784   8.152  36.895   6.517
 4505POPC   C3A57785   7.972  37.055   6.898
 4505POPC   C4A57786   8.113  37.187   7.312
 4505POPC   C1B57787   8.036  36.419   6.347
 4505POPC   C2B57788   8.017  36.487   6.830
 4505POPC   C3B57789   8.156  36.660   7.248
 4505POPC   C4B57790   8.160  36.447   7.687
 4506POPC   NC357791   8.127  38.077   5.392
 4506POPC   PO457792   8.647  38.481   5.501
 4506POPC   GL157793   8.313  38.421   5.846
 4506POPC   GL257794   8.009  38.575   5.811
 4506POPC   C1A57795   8.081  38.368   6.277
 4506POPC   D2A57796   8.013  38.651   6.656
 4506POPC   C3A57797   8.141  38.434   7.042
 4506POPC   C4A57798   8.321  38.477   7.450
 4506POPC   C1B57799   8.218  38.845   6.176
 4506POPC   C2B57800   8.430  38.958   6.596
 4506POPC   C3B57801   8.277  38.972   7.051
 4506POPC   C4B57802   8.206  38.990   7.543
 4507POPC   NC357803  33.939   5.503   5.421
 4507POPC   PO457804  33.598   6.045   5.487
 4507POPC   GL157805  33.566   5.851   5.880
 4507POPC   GL257806  33.537   5.519   5.779
 4507POPC   C1A57807  33.419   5.662   6.284
 4507POPC   D2A57808  33.363   5.734   6.758
 4507POPC   C3A57809  33.746   5.774   7.080
 4507POPC   C4A57810  33.820   5.928   7.563
 4507POPC   C1B57811  33.872   5.482   6.115
 4507POPC   C2B57812  34.162   5.619   6.451
 4507POPC   C3B57813  34.211   5.540   6.907
 4507POPC   C4B57814  34.214   5.699   7.345
 4508POPC   NC357815  41.436   0.051   5.123
 4508POPC   PO457816  41.470  44.521   5.493
 4508POPC   GL157817  41.404  44.777   5.880
 4508POPC   GL257818  41.603  44.496   5.990
 4508POPC   C1A57819  41.239  44.625   6.298
 4508POPC   D2A57820  41.456  44.417   6.606
 4508POPC   C3A57821  41.277  44.592   6.964
 4508POPC   C4A57822  41.350  44.865   7.335
 4508POPC   C1B57823  41.683  44.870   6.304
 4508POPC   C2B57824  41.629  44.915   6.755
 4508POPC   C3B57825  41.763  44.655   7.099
 4508POPC   C4B57826  41.642  44.475   7.508
 4509POPC   NC357827   7.408  33.516   5.512
 4509POPC   PO457828   7.223  34.156   5.391
 4509POPC   GL157829   7.180  33.888   5.769
 4509POPC   GL257830   7.516  33.866   5.884
 4509POPC   C1A57831   7.172  33.642   6.171
 4509POPC   D2A57832   7.272  33.810   6.563
 4509POPC   C3A57833   7.309  33.573   6.933
 4509POPC   C4A57834   7.245  33.722   7.318
 4509POPC   C1B57835   7.740  33.726   6.277
 4509POPC   C2B57836   7.809  33.655   6.735
 4509POPC   C3B57837   7.710  33.821   7.145
 4509POPC   C4B57838   7.869  34.018   7.518
 4510POPC   NC357839  28.242   2.233   5.407
 4510POPC   PO457840  28.400   1.591   5.393
 4510POPC   GL157841  28.215   1.857   5.790
 4510POPC   GL257842  28.100   2.213   5.878
 4510POPC   C1A57843  28.124   1.895   6.259
 4510POPC   D2A57844  28.190   2.044   6.695
 4510POPC   C3A57845  28.135   1.802   7.079
 4510POPC   C4A57846  28.351   1.746   7.512
 4510POPC   C1B57847  28.277   2.390   6.271
 4510POPC   C2B57848  28.088   2.582   6.629
 4510POPC   C3B57849  27.944   2.391   6.990
 4510POPC   C4B57850  28.374   2.300   7.138
 4511POPC   NC357851  18.752   0.396   5.417
 4511POPC   PO457852  19.409   0.369   5.507
 4511POPC   GL157853  19.204   0.412   5.880
 4511POPC   GL257854  18.842   0.399   5.932
 4511POPC   C1A57855  19.311   0.350   6.282
 4511POPC   D2A57856  19.112   0.514   6.631
 4511POPC   C3A57857  19.354   0.361   6.918
 4511POPC   C4A57858  19.472   0.407   7.321
 4511POPC   C1B57859  18.829   0.164   6.335
 4511POPC   C2B57860  19.010  44.998   6.731
 4511POPC   C3B57861  18.928   0.209   7.145
 4511POPC   C4B57862  18.608   0.549   7.206
 4512POPC   NC357863  19.644  17.540   5.616
 4512POPC   PO457864  20.160  17.917   5.499
 4512POPC   GL157865  20.085  17.583   5.857
 4512POPC   GL257866  19.881  17.817   5.991
 4512POPC   C1A57867  19.803  17.282   6.203
 4512POPC   D2A57868  19.454  17.246   6.544
 4512POPC   C3A57869  19.595  17.178   6.973
 4512POPC   C4A57870  19.785  17.506   7.215
 4512POPC   C1B57871  20.091  17.648   6.357
 4512POPC   C2B57872  20.002  17.474   6.736
 4512POPC   C3B57873  20.270  17.578   7.073
 4512POPC   C4B57874  20.239  17.479   7.513
 4513POPC   NC357875  37.348   0.438   5.441
 4513POPC   PO457876  37.972   0.287   5.302
 4513POPC   GL157877  37.799   0.560   5.705
 4513POPC   GL257878  37.482   0.444   5.923
 4513POPC   C1A57879  37.790   0.760   6.155
 4513POPC   D2A57880  37.530   0.644   6.524
 4513POPC   C3A57881  37.616   0.826   6.930
 4513POPC   C4A57882  37.312   0.697   7.219
 4513POPC   C1B57883  37.739   0.251   6.256
 4513POPC   C2B57884  37.652   0.116   6.654
 4513POPC   C3B57885  37.685   0.324   7.037
 4513POPC   C4B57886  37.736   0.333   7.463
 4514POPC   NC357887  15.500  18.312   5.405
 4514POPC   PO457888  14.963  18.053   5.598
 4514POPC   GL157889  15.151  18.214   5.941
 4514POPC   GL257890  15.499  18.314   5.914
 4514POPC   C1A57891  14.955  18.214   6.360
 4514POPC   D2A57892  14.796  18.268   6.783
 4514POPC   C3A57893  15.055  18.082   7.069
 4514POPC   C4A57894  15.219  18.203   7.483
 4514POPC   C1B57895  15.392  18.486   6.314
 4514POPC   C2B57896  15.327  18.325   6.704
 4514POPC   C3B57897  15.256  18.536   7.073
 4514POPC   C4B57898  15.527  18.623   7.347
 4515POPC   NC357899  44.946  17.019   5.484
 4515POPC   PO457900  44.580  16.473   5.405
 4515POPC   GL157901  44.383  16.621   5.784
 4515POPC   GL257902  44.592  16.898   5.818
 4515POPC   C1A57903  44.537  16.618   6.245
 4515POPC   D2A57904  44.929  16.578   6.524
 4515POPC   C3A57905  44.851  16.531   6.970
 4515POPC   C4A57906   0.058  16.627   7.340
 4515POPC   C1B57907  44.866  17.027   6.167
 4515POPC   C2B57908  44.750  17.087   6.613
 4515POPC   C3B57909  44.830  17.051   7.052
 4515POPC   C4B57910  44.622  16.917   7.435
 4516POPC   NC357911  30.028   3.741   5.362
 4516POPC   PO457912  30.435   3.175   5.371
 4516POPC   GL157913  30.099   3.320   5.668
 4516POPC   GL257914  29.726   3.434   5.629
 4516POPC   C1A57915  29.897   3.232   6.077
 4516POPC   D2A57916  30.034   3.098   6.478
 4516POPC   C3A57917  29.838   3.304   6.808
 4516POPC   C4A57918  30.040   3.356   7.198
 4516POPC   C1B57919  29.795   3.729   6.000
 4516POPC   C2B57920  29.905   3.737   6.440
 4516POPC   C3B57921  29.966   3.794   6.881
 4516POPC   C4B57922  30.048   3.880   7.281
 4517POPC   NC357923   9.192  26.472   5.183
 4517POPC   PO457924   8.662  26.175   5.484
 4517POPC   GL157925   8.932  26.308   5.819
 4517POPC   GL257926   8.815  26.026   6.004
 4517POPC   C1A57927   9.147  26.340   6.251
 4517POPC   D2A57928   9.257  26.177   6.665
 4517POPC   C3A57929   8.934  26.361   6.953
 4517POPC   C4A57930   9.093  26.644   7.309
 4517POPC   C1B57931   9.100  25.830   6.313
 4517POPC   C2B57932   8.873  25.848   6.721
 4517POPC   C3B57933   8.790  25.854   7.140
 4517POPC   C4B57934   8.470  25.830   7.452
 4518POPC   NC357935  28.076   7.591   5.492
 4518POPC   PO457936  28.636   7.168   5.557
 4518POPC   GL157937  28.429   7.342   5.910
 4518POPC   GL257938  28.385   7.715   5.907
 4518POPC   C1A57939  28.572   7.467   6.332
 4518POPC   D2A57940  28.346   7.509   6.721
 4518POPC   C3A57941  28.639   7.414   7.042
 4518POPC   C4A57942  28.723   7.486   7.497
 4518POPC   C1B57943  28.090   7.653   6.263
 4518POPC   C2B57944  27.871   7.810   6.651
 4518POPC   C3B57945  28.074   7.886   7.029
 4518POPC   C4B57946  28.260   7.625   7.277
 4519POPC   NC357947   5.401  29.977   5.191
 4519POPC   PO457948   4.848  29.643   5.464
 4519POPC   GL157949   5.163  29.674   5.785
 4519POPC   GL257950   5.508  29.554   5.724
 4519POPC   C1A57951   5.210  29.800   6.232
 4519POPC   D2A57952   5.039  29.857   6.640
 4519POPC   C3A57953   4.979  30.246   6.897
 4519POPC   C4A57954   4.882  30.191   7.356
 4519POPC   C1B57955   5.693  29.600   6.162
 4519POPC   C2B57956   5.675  29.824   6.575
 4519POPC   C3B57957   5.459  30.004   6.950
 4519POPC   C4B57958   5.136  29.808   7.145
 4520POPC   NC357959  28.114  19.286   5.259
 4520POPC   PO457960  28.024  18.637   5.456
 4520POPC   GL157961  28.207  18.896   5.778
 4520POPC   GL257962  28.414  19.178   5.670
 4520POPC   C1A57963  28.280  18.984   6.214
 4520POPC   D2A57964  28.191  19.231   6.586
 4520POPC   C3A57965  28.035  19.042   6.937
 4520POPC   C4A57966  28.131  19.111   7.335
 4520POPC   C1B57967  28.756  19.209   6.010
 4520POPC   C2B57968  28.731  19.125   6.455
 4520POPC   C3B57969  28.597  19.083   6.895
 4520POPC   C4B57970  28.645  19.237   7.321
 4521POPC   NC357971  12.271  40.543   5.435
 4521POPC   PO457972  11.792  41.060   5.362
 4521POPC   GL157973  12.072  41.006   5.755
 4521POPC   GL257974  12.400  41.177   5.798
 4521POPC   C1A57975  12.069  40.943   6.226
 4521POPC   D2A57976  12.104  40.597   6.521
 4521POPC   C3A57977  12.186  40.659   6.974
 4521POPC   C4A57978  11.877  40.736   7.296
 4521POPC   C1B57979  12.564  41.109   6.230
 4521POPC   C2B57980  12.433  41.010   6.673
 4521POPC   C3B57981  12.283  41.143   7.098
 4521POPC   C4B57982  12.296  40.921   7.529
 4522POPC   NC357983  36.100  35.076   5.560
 4522POPC   PO457984  35.758  35.626   5.565
 4522POPC   GL157985  36.119  35.614   5.795
 4522POPC   GL257986  36.391  35.380   5.848
 4522POPC   C1A57987  36.050  35.405   6.203
 4522POPC   D2A57988  36.209  35.295   6.574
 4522POPC   C3A57989  35.945  35.413   6.858
 4522POPC   C4A57990  36.086  35.259   7.220
 4522POPC   C1B57991  36.448  35.049   6.198
 4522POPC   C2B57992  36.534  34.907   6.650
 4522POPC   C3B57993  36.483  34.965   7.104
 4522POPC   C4B57994  36.319  34.941   7.549
 4523POPC   NC357995  26.563   4.747   5.399
 4523POPC   PO457996  26.924   4.142   5.348
 4523POPC   GL157997  26.933   4.190   5.788
 4523POPC   GL257998  27.241   4.394   5.866
 4523POPC   C1A57999  26.584   4.287   6.116
 4523POPC   D2A58000  26.500   4.560   6.528
 4523POPC   C3A58001  26.707   4.457   6.940
 4523POPC   C4A58002  26.550   4.585   7.354
 4523POPC   C1B58003  27.032   4.442   6.293
 4523POPC   C2B58004  26.791   4.119   6.551
 4523POPC   C3B58005  26.686   3.908   6.927
 4523POPC   C4B58006  26.891   4.077   7.270
 4524POPC   NC358007  26.607  43.443   5.151
 4524POPC   PO458008  26.916  43.952   5.481
 4524POPC   GL158009  26.791  43.773   5.881
 4524POPC   GL258010  26.436  43.661   5.800
 4524POPC   C1A58011  26.801  43.959   6.312
 4524POPC   D2A58012  26.775  44.265   6.662
 4524POPC   C3A58013  26.780  44.019   7.038
 4524POPC   C4A58014  27.068  43.673   7.079
 4524POPC   C1B58015  26.508  43.548   6.245
 4524POPC   C2B58016  26.685  43.579   6.707
 4524POPC   C3B58017  26.540  43.572   7.177
 4524POPC   C4B58018  26.445  43.730   7.625
 4525POPC   NC358019  34.033  11.265   5.527
 4525POPC   PO458020  33.363  11.629   5.408
 4525POPC   GL158021  33.532  11.329   5.738
 4525POPC   GL258022  33.450  10.991   5.866
 4525POPC   C1A58023  33.578  11.386   6.201
 4525POPC   D2A58024  33.900  11.569   6.490
 4525POPC   C3A58025  33.758  11.693   6.904
 4525POPC   C4A58026  33.955  11.617   7.283
 4525POPC   C1B58027  33.847  10.968   6.102
 4525POPC   C2B58028  33.869  11.035   6.543
 4525POPC   C3B58029  34.037  11.244   6.906
 4525POPC   C4B58030  33.974  11.083   7.306
 4526POPC   NC358031  24.893  14.454   5.377
 4526POPC   PO458032  24.508  13.955   5.478
 4526POPC   GL158033  24.367  14.274   5.779
 4526POPC   GL258034  24.578  14.565   5.824
 4526POPC   C1A58035  24.293  14.396   6.221
 4526POPC   D2A58036  24.421  14.591   6.610
 4526POPC   C3A58037  24.196  14.518   7.001
 4526POPC   C4A58038  24.356  14.467   7.419
 4526POPC   C1B58039  24.645  14.865   6.208
 4526POPC   C2B58040  24.852  14.854   6.638
 4526POPC   C3B58041  24.886  14.697   7.066
 4526POPC   C4B58042  24.811  14.868   7.493
 4527POPC   NC358043  38.792  24.959   5.287
 4527POPC   PO458044  38.354  24.240   5.337
 4527POPC   GL158045  38.414  24.470   5.810
 4527POPC   GL258046  38.595  24.802   5.760
 4527POPC   C1A58047  38.691  24.598   6.225
 4527POPC   D2A58048  38.683  24.663   6.687
 4527POPC   C3A58049  38.343  24.447   6.932
 4527POPC   C4A58050  38.411  24.434   7.382
 4527POPC   C1B58051  38.274  24.901   6.116
 4527POPC   C2B58052  38.246  24.954   6.591
 4527POPC   C3B58053  38.366  24.933   7.053
 4527POPC   C4B58054  38.353  24.910   7.512
 4528POPC   NC358055  24.511   9.653   5.357
 4528POPC   PO458056  24.455  10.256   5.533
 4528POPC   GL158057  24.521   9.967   5.883
 4528POPC   GL258058  24.680   9.637   5.838
 4528POPC   C1A58059  24.216   9.813   6.211
 4528POPC   D2A58060  24.191   9.855   6.653
 4528POPC   C3A58061  24.539   9.786   6.851
 4528POPC   C4A58062  24.659   9.919   7.272
 4528POPC   C1B58063  24.700   9.654   6.282
 4528POPC   C2B58064  24.973   9.630   6.594
 4528POPC   C3B58065  24.963   9.528   6.993
 4528POPC   C4B58066  24.582   9.399   7.199
 4529POPC   NC358067  42.151  35.108   5.514
 4529POPC   PO458068  42.423  34.514   5.588
 4529POPC   GL158069  42.220  34.765   5.903
 4529POPC   GL258070  42.420  35.080   5.952
 4529POPC   C1A58071  42.186  34.650   6.339
 4529POPC   D2A58072  42.495  34.473   6.654
 4529POPC   C3A58073  42.417  34.549   7.103
 4529POPC   C4A58074  41.989  34.515   7.306
 4529POPC   C1B58075  42.467  35.162   6.425
 4529POPC   C2B58076  42.296  34.938   6.747
 4529POPC   C3B58077  42.070  34.952   7.102
 4529POPC   C4B58078  42.301  34.885   7.480
 4530POPC   NC358079  26.944  20.402   5.610
 4530POPC   PO458080  26.338  20.720   5.340
 4530POPC   GL158081  26.452  20.589   5.758
 4530POPC   GL258082  26.494  20.891   5.815
 4530POPC   C1A58083  26.390  20.384   6.191
 4530POPC   D2A58084  26.672  20.380   6.587
 4530POPC   C3A58085  26.548  20.519   6.989
 4530POPC   C4A58086  26.430  20.289   7.352
 4530POPC   C1B58087  26.737  20.745   6.177
 4530POPC   C2B58088  26.743  20.921   6.578
 4530POPC   C3B58089  26.889  20.888   6.970
 4530POPC   C4B58090  26.595  20.937   7.285
 4531POPC   NC358091  39.318  42.675   5.510
 4531POPC   PO458092  38.804  43.009   5.327
 4531POPC   GL158093  39.061  43.144   5.738
 4531POPC   GL258094  39.458  43.127   5.751
 4531POPC   C1A58095  39.217  43.383   6.151
 4531POPC   D2A58096  39.446  43.295   6.562
 4531POPC   C3A58097  39.241  43.347   6.940
 4531POPC   C4A58098  39.311  43.281   7.355
 4531POPC   C1B58099  39.653  43.077   6.157
 4531POPC   C2B58100  39.571  42.808   6.533
 4531POPC   C3B58101  39.602  42.954   6.984
 4531POPC   C4B58102  39.555  42.834   7.420
 4532POPC   NC358103  36.889   4.449   5.544
 4532POPC   PO458104  36.554   3.981   5.227
 4532POPC   GL158105  36.999   3.966   5.647
 4532POPC   GL258106  36.850   3.773   5.976
 4532POPC   C1A58107  37.134   4.162   6.088
 4532POPC   D2A58108  37.177   4.017   6.529
 4532POPC   C3A58109  36.982   4.216   6.902
 4532POPC   C4A58110  37.024   4.430   7.326
 4532POPC   C1B58111  36.682   4.003   6.385
 4532POPC   C2B58112  36.499   3.882   6.828
 4532POPC   C3B58113  36.692   3.970   7.245
 4532POPC   C4B58114  37.164   3.925   7.293
 4533POPC   NC358115  41.776  26.248   5.482
 4533POPC   PO458116  41.298  25.797   5.396
 4533POPC   GL158117  41.449  25.951   5.771
 4533POPC   GL258118  41.781  25.807   5.826
 4533POPC   C1A58119  41.414  25.933   6.204
 4533POPC   D2A58120  41.597  25.947   6.601
 4533POPC   C3A58121  41.292  25.971   6.913
 4533POPC   C4A58122  41.322  26.203   7.257
 4533POPC   C1B58123  41.871  26.143   6.133
 4533POPC   C2B58124  41.886  26.363   6.539
 4533POPC   C3B58125  41.880  26.283   6.980
 4533POPC   C4B58126  41.775  25.860   7.092
 4534POPC   NC358127  17.585   3.409   5.266
 4534POPC   PO458128  17.278   4.031   5.374
 4534POPC   GL158129  17.376   3.691   5.723
 4534POPC   GL258130  17.179   3.473   5.646
 4534POPC   C1A58131  17.511   3.453   6.162
 4534POPC   D2A58132  17.690   3.577   6.604
 4534POPC   C3A58133  17.677   3.341   7.025
 4534POPC   C4A58134  17.890   3.384   7.439
 4534POPC   C1B58135  17.035   3.610   6.084
 4534POPC   C2B58136  17.179   3.638   6.530
 4534POPC   C3B58137  17.307   3.706   6.985
 4534POPC   C4B58138  17.382   3.488   7.432
 4535POPC   NC358139  26.626  39.062   5.457
 4535POPC   PO458140  27.124  39.439   5.456
 4535POPC   GL158141  26.939  39.178   5.849
 4535POPC   GL258142  26.562  39.156   5.940
 4535POPC   C1A58143  27.036  39.041   6.284
 4535POPC   D2A58144  27.278  38.993   6.702
 4535POPC   C3A58145  27.011  38.907   7.062
 4535POPC   C4A58146  26.758  39.206   7.300
 4535POPC   C1B58147  26.640  39.370   6.306
 4535POPC   C2B58148  26.735  39.155   6.692
 4535POPC   C3B58149  26.551  38.791   6.859
 4535POPC   C4B58150  26.594  38.724   7.287
 4536POPC   NC358151   8.690  17.331   5.559
 4536POPC   PO458152   9.371  17.579   5.563
 4536POPC   GL158153   9.064  17.532   5.817
 4536POPC   GL258154   9.105  17.191   5.849
 4536POPC   C1A58155   8.837  17.705   6.139
 4536POPC   D2A58156   8.789  17.821   6.550
 4536POPC   C3A58157   8.689  17.565   6.887
 4536POPC   C4A58158   8.917  17.612   7.261
 4536POPC   C1B58159   8.879  17.191   6.231
 4536POPC   C2B58160   8.753  17.106   6.638
 4536POPC   C3B58161   8.585  17.073   7.046
 4536POPC   C4B58162   8.792  17.137   7.424
 4537POPC   NC358163  24.419  33.567   5.222
 4537POPC   PO458164  24.343  32.925   5.296
 4537POPC   GL158165  24.448  33.044   5.736
 4537POPC   GL258166  24.797  33.015   5.782
 4537POPC   C1A58167  24.444  33.209   6.199
 4537POPC   D2A58168  24.490  33.344   6.645
 4537POPC   C3A58169  24.304  33.173   6.995
 4537POPC   C4A58170  24.410  33.056   7.419
 4537POPC   C1B58171  24.770  32.816   6.209
 4537POPC   C2B58172  24.706  32.894   6.643
 4537POPC   C3B58173  24.770  32.952   7.057
 4537POPC   C4B58174  24.836  32.798   7.532
 4538POPC   NC358175  20.687   3.778   5.461
 4538POPC   PO458176  20.199   3.364   5.444
 4538POPC   GL158177  20.503   3.482   5.824
 4538POPC   GL258178  20.874   3.532   5.858
 4538POPC   C1A58179  20.439   3.546   6.273
 4538POPC   D2A58180  20.248   3.794   6.607
 4538POPC   C3A58181  20.246   3.678   7.058
 4538POPC   C4A58182  20.341   3.873   7.495
 4538POPC   C1B58183  20.952   3.588   6.251
 4538POPC   C2B58184  20.802   3.428   6.623
 4538POPC   C3B58185  20.999   3.603   6.946
 4538POPC   C4B58186  20.727   3.639   7.260
 4539POPC   NC358187  18.590  26.602   5.573
 4539POPC   PO458188  19.241  26.540   5.460
 4539POPC   GL158189  19.032  26.677   5.837
 4539POPC   GL258190  18.831  26.398   5.970
 4539POPC   C1A58191  19.180  26.775   6.255
 4539POPC   D2A58192  19.143  26.589   6.651
 4539POPC   C3A58193  19.196  26.841   7.002
 4539POPC   C4A58194  19.487  26.783   7.252
 4539POPC   C1B58195  18.686  26.685   6.292
 4539POPC   C2B58196  18.640  26.654   6.753
 4539POPC   C3B58197  18.793  26.590   7.168
 4539POPC   C4B58198  18.829  26.471   7.599
 4540POPC   NC358199   1.297   7.819   5.512
 4540POPC   PO458200   1.396   8.346   5.130
 4540POPC   GL158201   1.285   8.328   5.633
 4540POPC   GL258202   1.142   8.062   5.899
 4540POPC   C1A58203   1.354   8.451   6.119
 4540POPC   D2A58204   1.530   8.437   6.571
 4540POPC   C3A58205   1.289   8.480   6.966
 4540POPC   C4A58206   1.457   8.547   7.396
 4540POPC   C1B58207   0.984   7.828   6.260
 4540POPC   C2B58208   1.190   8.009   6.627
 4540POPC   C3B58209   1.361   7.977   7.045
 4540POPC   C4B58210   1.137   8.137   7.364
 4541POPC   NC358211  17.830  19.064   5.482
 4541POPC   PO458212  17.557  19.568   5.149
 4541POPC   GL158213  17.402  19.248   5.659
 4541POPC   GL258214  17.476  18.903   5.811
 4541POPC   C1A58215  17.431  19.277   6.149
 4541POPC   D2A58216  17.305  19.384   6.594
 4541POPC   C3A58217  17.546  19.276   6.946
 4541POPC   C4A58218  17.667  19.173   7.362
 4541POPC   C1B58219  17.393  18.654   6.178
 4541POPC   C2B58220  17.378  18.792   6.605
 4541POPC   C3B58221  17.483  18.759   7.052
 4541POPC   C4B58222  17.235  18.934   7.386
 4542POPC   NC358223  24.864  35.766   5.409
 4542POPC   PO458224  25.583  35.915   5.454
 4542POPC   GL158225  25.341  35.879   5.874
 4542POPC   GL258226  25.000  35.972   5.895
 4542POPC   C1A58227  25.307  35.949   6.316
 4542POPC   D2A58228  25.628  36.106   6.569
 4542POPC   C3A58229  25.547  36.117   6.986
 4542POPC   C4A58230  25.385  36.199   7.390
 4542POPC   C1B58231  24.808  36.150   6.252
 4542POPC   C2B58232  24.780  36.017   6.665
 4542POPC   C3B58233  25.040  36.024   7.031
 4542POPC   C4B58234  24.931  36.416   7.265
 4543POPC   NC358235  42.802  44.961   5.579
 4543POPC   PO458236  43.340  44.666   5.293
 4543POPC   GL158237  43.229  44.726   5.676
 4543POPC   GL258238  43.006  44.470   5.768
 4543POPC   C1A58239  43.277  44.746   6.137
 4543POPC   D2A58240  43.279  44.558   6.564
 4543POPC   C3A58241  43.326  44.840   6.902
 4543POPC   C4A58242  43.003   0.011   7.146
 4543POPC   C1B58243  42.833  44.510   6.196
 4543POPC   C2B58244  42.793  44.370   6.617
 4543POPC   C3B58245  42.941  44.506   7.017
 4543POPC   C4B58246  42.938  44.550   7.482
 4544POPC   NC358247  37.848  39.556   5.646
 4544POPC   PO458248  37.462  39.094   5.412
 4544POPC   GL158249  37.353  39.120   5.852
 4544POPC   GL258250  37.341  39.428   5.878
 4544POPC   C1A58251  37.501  39.145   6.311
 4544POPC   D2A58252  37.824  39.283   6.619
 4544POPC   C3A58253  37.620  39.130   6.983
 4544POPC   C4A58254  37.532  39.144   7.432
 4544POPC   C1B58255  37.462  39.642   6.259
 4544POPC   C2B58256  37.372  39.539   6.710
 4544POPC   C3B58257  37.600  39.624   7.099
 4544POPC   C4B58258  37.940  39.405   7.295
 4545POPC   NC358259   8.654  42.219   5.411
 4545POPC   PO458260   9.150  42.618   5.399
 4545POPC   GL158261   9.111  42.253   5.716
 4545POPC   GL258262   8.822  42.360   5.879
 4545POPC   C1A58263   9.046  42.002   6.160
 4545POPC   D2A58264   8.766  42.012   6.569
 4545POPC   C3A58265   9.007  42.056   6.971
 4545POPC   C4A58266   9.203  42.421   7.169
 4545POPC   C1B58267   8.622  42.555   6.237
 4545POPC   C2B58268   8.509  42.452   6.662
 4545POPC   C3B58269   8.654  42.400   7.094
 4545POPC   C4B58270   8.528  42.092   7.459
 4546POPC   NC358271   8.085  19.101   5.280
 4546POPC   PO458272   8.410  18.710   5.654
 4546POPC   GL158273   8.138  18.838   5.991
 4546POPC   GL258274   7.822  18.928   5.930
 4546POPC   C1A58275   8.060  19.196   6.302
 4546POPC   D2A58276   8.090  19.393   6.718
 4546POPC   C3A58277   8.282  19.137   7.028
 4546POPC   C4A58278   8.553  18.842   7.206
 4546POPC   C1B58279   7.814  18.697   6.358
 4546POPC   C2B58280   7.828  18.647   6.829
 4546POPC   C3B58281   7.802  18.975   7.097
 4546POPC   C4B58282   7.931  19.358   7.320
 4547POPC   NC358283   7.292  40.317   5.366
 4547POPC   PO458284   7.303  39.644   5.304
 4547POPC   GL158285   7.247  39.928   5.691
 4547POPC   GL258286   7.535  40.139   5.793
 4547POPC   C1A58287   7.192  39.979   6.150
 4547POPC   D2A58288   7.387  39.978   6.571
 4547POPC   C3A58289   7.142  39.749   6.881
 4547POPC   C4A58290   6.962  40.029   7.139
 4547POPC   C1B58291   7.579  40.334   6.207
 4547POPC   C2B58292   7.827  40.304   6.587
 4547POPC   C3B58293   7.656  40.200   6.978
 4547POPC   C4B58294   7.428  40.139   7.351
 4548POPC   NC358295  25.630  21.803   5.335
 4548POPC   PO458296  26.200  21.449   5.367
 4548POPC   GL158297  26.204  21.309   5.762
 4548POPC   GL258298  25.863  21.317   5.775
 4548POPC   C1A58299  26.159  21.417   6.188
 4548POPC   D2A58300  26.288  21.226   6.557
 4548POPC   C3A58301  26.127  21.407   6.934
 4548POPC   C4A58302  26.301  21.485   7.340
 4548POPC   C1B58303  25.697  21.190   6.153
 4548POPC   C2B58304  25.791  21.302   6.550
 4548POPC   C3B58305  25.655  21.220   6.951
 4548POPC   C4B58306  25.894  21.140   7.306
 4549POPC   NC358307   8.582  35.020   5.373
 4549POPC   PO458308   8.031  35.407   5.272
 4549POPC   GL158309   8.105  35.490   5.754
 4549POPC   GL258310   7.757  35.482   5.758
 4549POPC   C1A58311   8.300  35.498   6.205
 4549POPC   D2A58312   8.634  35.632   6.526
 4549POPC   C3A58313   8.521  35.624   6.978
 4549POPC   C4A58314   8.382  35.261   7.233
 4549POPC   C1B58315   7.809  35.325   6.163
 4549POPC   C2B58316   7.897  35.529   6.534
 4549POPC   C3B58317   8.006  35.349   6.904
 4549POPC   C4B58318   7.776  35.262   7.251
 4550POPC   NC358319  32.880  25.662   5.359
 4550POPC   PO458320  33.346  25.123   5.445
 4550POPC   GL158321  33.318  25.270   5.825
 4550POPC   GL258322  32.968  25.330   5.823
 4550POPC   C1A58323  33.234  25.152   6.236
 4550POPC   D2A58324  32.992  25.246   6.581
 4550POPC   C3A58325  33.172  25.158   6.956
 4550POPC   C4A58326  33.036  25.325   7.307
 4550POPC   C1B58327  32.697  25.442   6.182
 4550POPC   C2B58328  32.699  25.670   6.576
 4550POPC   C3B58329  32.685  25.475   6.956
 4550POPC   C4B58330  32.542  25.431   7.338
 4551POPC   NC358331  19.921  27.675   5.261
 4551POPC   PO458332  19.414  27.348   5.354
 4551POPC   GL158333  19.611  27.614   5.696
 4551POPC   GL258334  19.980  27.758   5.762
 4551POPC   C1A58335  19.555  27.632   6.144
 4551POPC   D2A58336  19.723  27.501   6.556
 4551POPC   C3A58337  19.578  27.744   6.896
 4551POPC   C4A58338  19.543  27.634   7.300
 4551POPC   C1B58339  20.075  27.539   6.167
 4551POPC   C2B58340  20.256  27.471   6.599
 4551POPC   C3B58341  20.139  27.519   7.064
 4551POPC   C4B58342  20.006  27.858   7.351
 4552POPC   NC358343  41.604  40.550   5.438
 4552POPC   PO458344  41.733  41.088   5.790
 4552POPC   GL158345  41.505  40.737   5.932
 4552POPC   GL258346  41.709  40.414   5.900
 4552POPC   C1A58347  41.318  40.905   6.312
 4552POPC   D2A58348  41.481  41.245   6.583
 4552POPC   C3A58349  41.551  41.085   6.980
 4552POPC   C4A58350  41.422  40.746   7.236
 4552POPC   C1B58351  41.886  40.585   6.259
 4552POPC   C2B58352  41.917  40.841   6.605
 4552POPC   C3B58353  41.867  40.671   6.994
 4552POPC   C4B58354  41.808  40.400   7.345
 4553POPC   NC358355  17.735   3.983   5.547
 4553POPC   PO458356  18.302   4.352   5.309
 4553POPC   GL158357  18.416   4.410   5.741
 4553POPC   GL258358  18.169   4.172   5.882
 4553POPC   C1A58359  18.532   4.481   6.190
 4553POPC   D2A58360  18.438   4.307   6.609
 4553POPC   C3A58361  18.295   4.629   6.910
 4553POPC   C4A58362  18.271   4.595   7.340
 4553POPC   C1B58363  17.933   4.091   6.282
 4553POPC   C2B58364  18.047   3.952   6.684
 4553POPC   C3B58365  18.184   4.134   7.081
 4553POPC   C4B58366  17.924   4.228   7.438
 4554POPC   NC358367  20.376  35.342   5.181
 4554POPC   PO458368  19.878  35.627   5.602
 4554POPC   GL158369  19.868  35.399   5.942
 4554POPC   GL258370  19.896  35.120   5.736
 4554POPC   C1A58371  19.697  35.342   6.383
 4554POPC   D2A58372  19.522  35.632   6.716
 4554POPC   C3A58373  19.627  35.551   7.153
 4554POPC   C4A58374  19.744  35.345   7.573
 4554POPC   C1B58375  19.967  34.948   6.157
 4554POPC   C2B58376  20.062  34.989   6.590
 4554POPC   C3B58377  19.776  35.112   6.909
 4554POPC   C4B58378  19.927  34.965   7.288
 4555POPC   NC358379  37.384   1.122   5.233
 4555POPC   PO458380  36.868   1.492   5.461
 4555POPC   GL158381  36.777   1.317   5.856
 4555POPC   GL258382  36.935   1.003   5.848
 4555POPC   C1A58383  36.900   1.233   6.295
 4555POPC   D2A58384  36.746   1.451   6.620
 4555POPC   C3A58385  37.000   1.566   6.918
 4555POPC   C4A58386  36.822   1.470   7.280
 4555POPC   C1B58387  37.135   0.754   6.183
 4555POPC   C2B58388  36.996   0.755   6.597
 4555POPC   C3B58389  36.810   1.027   6.904
 4555POPC   C4B58390  36.874   0.942   7.301
 4556POPC   NC358391  28.784   5.269   5.656
 4556POPC   PO458392  29.112   4.814   5.230
 4556POPC   GL158393  29.105   4.856   5.740
 4556POPC   GL258394  29.299   5.115   5.925
 4556POPC   C1A58395  28.929   4.824   6.199
 4556POPC   D2A58396  28.866   5.083   6.611
 4556POPC   C3A58397  29.032   4.917   6.989
 4556POPC   C4A58398  29.348   4.698   7.192
 4556POPC   C1B58399  29.336   5.051   6.403
 4556POPC   C2B58400  29.291   5.323   6.763
 4556POPC   C3B58401  28.938   5.415   7.040
 4556POPC   C4B58402  29.031   5.539   7.451
 4557POPC   NC358403  13.340  39.576   5.542
 4557POPC   PO458404  13.958  39.301   5.492
 4557POPC   GL158405  13.807  39.307   5.893
 4557POPC   GL258406  13.473  39.249   5.900
 4557POPC   C1A58407  13.854  39.460   6.297
 4557POPC   D2A58408  13.580  39.527   6.666
 4557POPC   C3A58409  13.803  39.433   7.051
 4557POPC   C4A58410  14.079  39.342   7.408
 4557POPC   C1B58411  13.462  39.109   6.308
 4557POPC   C2B58412  13.222  39.166   6.682
 4557POPC   C3B58413  13.235  39.248   7.145
 4557POPC   C4B58414  13.621  39.113   7.391
 4558POPC   NC358415  20.771  13.779   5.468
 4558POPC   PO458416  20.194  13.747   5.149
 4558POPC   GL158417  20.397  13.582   5.741
 4558POPC   GL258418  20.778  13.623   5.934
 4558POPC   C1A58419  20.451  13.652   6.287
 4558POPC   D2A58420  20.562  13.487   6.711
 4558POPC   C3A58421  20.577  13.764   7.079
 4558POPC   C4A58422  20.310  14.122   7.150
 4558POPC   C1B58423  20.993  13.504   6.353
 4558POPC   C2B58424  21.002  13.211   6.708
 4558POPC   C3B58425  20.795  13.249   7.104
 4558POPC   C4B58426  20.949  13.431   7.463
 4559POPC   NC358427  42.871  11.698   5.325
 4559POPC   PO458428  43.363  11.242   5.422
 4559POPC   GL158429  43.012  11.232   5.714
 4559POPC   GL258430  43.152  10.983   5.975
 4559POPC   C1A58431  42.862  11.501   6.044
 4559POPC   D2A58432  43.001  11.430   6.462
 4559POPC   C3A58433  42.925  11.473   6.903
 4559POPC   C4A58434  43.298  11.525   7.135
 4559POPC   C1B58435  43.376  11.098   6.360
 4559POPC   C2B58436  43.309  11.104   6.828
 4559POPC   C3B58437  43.133  10.961   7.244
 4559POPC   C4B58438  43.102  11.026   7.706
 4560POPC   NC358439   9.375  37.216   5.422
 4560POPC   PO458440   9.838  36.633   5.392
 4560POPC   GL158441   9.802  36.780   5.811
 4560POPC   GL258442   9.454  36.815   5.738
 4560POPC   C1A58443   9.904  36.717   6.271
 4560POPC   D2A58444   9.703  36.752   6.693
 4560POPC   C3A58445   9.981  36.843   7.022
 4560POPC   C4A58446   9.941  37.207   7.272
 4560POPC   C1B58447   9.497  37.082   6.120
 4560POPC   C2B58448   9.325  37.070   6.537
 4560POPC   C3B58449   9.489  37.172   6.942
 4560POPC   C4B58450   9.525  36.888   7.265
 4561POPC   NC358451  23.300  16.690   5.549
 4561POPC   PO458452  22.675  16.552   5.395
 4561POPC   GL158453  22.848  16.669   5.812
 4561POPC   GL258454  23.099  16.420   5.950
 4561POPC   C1A58455  23.039  16.899   6.170
 4561POPC   D2A58456  22.992  17.015   6.618
 4561POPC   C3A58457  22.770  16.674   6.871
 4561POPC   C4A58458  22.575  16.481   7.240
 4561POPC   C1B58459  23.397  16.485   6.289
 4561POPC   C2B58460  23.510  16.584   6.708
 4561POPC   C3B58461  23.255  16.816   7.028
 4561POPC   C4B58462  22.922  16.922   7.310
 4562POPC   NC358463   7.844  11.201   5.496
 4562POPC   PO458464   8.252  11.665   5.679
 4562POPC   GL158465   8.061  11.360   5.948
 4562POPC   GL258466   8.222  11.048   5.841
 4562POPC   C1A58467   7.941  11.397   6.378
 4562POPC   D2A58468   7.950  11.541   6.801
 4562POPC   C3A58469   8.236  11.375   7.064
 4562POPC   C4A58470   8.126  11.418   7.469
 4562POPC   C1B58471   8.172  10.943   6.272
 4562POPC   C2B58472   8.069  10.990   6.722
 4562POPC   C3B58473   8.279  10.858   7.114
 4562POPC   C4B58474   8.456  11.006   7.542
 4563POPC   NC358475  35.742  35.994   5.825
 4563POPC   PO458476  36.128  36.136   5.333
 4563POPC   GL158477  36.292  36.191   5.741
 4563POPC   GL258478  36.537  35.961   5.778
 4563POPC   C1A58479  36.214  36.317   6.164
 4563POPC   D2A58480  36.342  36.378   6.578
 4563POPC   C3A58481  36.076  36.184   6.855
 4563POPC   C4A58482  36.078  36.241   7.261
 4563POPC   C1B58483  36.406  35.807   6.158
 4563POPC   C2B58484  36.226  35.804   6.535
 4563POPC   C3B58485  36.374  35.688   6.934
 4563POPC   C4B58486  36.096  35.752   7.239
 4564POPC   NC358487  11.743  27.398   5.449
 4564POPC   PO458488  11.091  27.335   5.602
 4564POPC   GL158489  11.464  27.464   5.896
 4564POPC   GL258490  11.564  27.797   5.749
 4564POPC   C1A58491  11.460  27.570   6.368
 4564POPC   D2A58492  11.063  27.746   6.631
 4564POPC   C3A58493  10.988  27.511   7.019
 4564POPC   C4A58494  11.391  27.418   7.169
 4564POPC   C1B58495  11.299  27.975   6.081
 4564POPC   C2B58496  11.434  28.073   6.504
 4564POPC   C3B58497  11.524  27.867   6.886
 4564POPC   C4B58498  11.252  27.909   7.222
 4565POPC   NC358499  36.709  38.120   5.324
 4565POPC   PO458500  37.130  37.519   5.414
 4565POPC   GL158501  37.093  37.717   5.780
 4565POPC   GL258502  36.832  37.955   5.789
 4565POPC   C1A58503  37.287  37.767   6.166
 4565POPC   D2A58504  37.244  37.546   6.554
 4565POPC   C3A58505  36.895  37.684   6.856
 4565POPC   C4A58506  36.993  37.825   7.287
 4565POPC   C1B58507  36.703  37.983   6.202
 4565POPC   C2B58508  36.586  38.090   6.634
 4565POPC   C3B58509  36.469  38.148   7.080
 4565POPC   C4B58510  36.500  37.894   7.470
 4566POPC   NC358511  42.437   2.323   5.365
 4566POPC   PO458512  41.901   1.844   5.329
 4566POPC   GL158513  42.168   1.951   5.677
 4566POPC   GL258514  42.530   1.806   5.680
 4566POPC   C1A58515  42.123   2.071   6.116
 4566POPC   D2A58516  42.369   2.008   6.478
 4566POPC   C3A58517  42.229   2.014   6.895
 4566POPC   C4A58518  42.091   2.154   7.314
 4566POPC   C1B58519  42.470   1.685   6.101
 4566POPC   C2B58520  42.368   1.494   6.527
 4566POPC   C3B58521  42.554   1.619   6.929
 4566POPC   C4B58522  42.362   1.718   7.303
 4567POPC   NC358523   1.612   0.548   5.296
 4567POPC   PO458524   2.228   0.716   5.147
 4567POPC   GL158525   2.053   0.679   5.609
 4567POPC   GL258526   2.258   0.410   5.729
 4567POPC   C1A58527   1.978   0.656   6.100
 4567POPC   D2A58528   1.912   0.376   6.486
 4567POPC   C3A58529   1.752   0.455   6.926
 4567POPC   C4A58530   1.878   0.805   7.174
 4567POPC   C1B58531   2.264   0.164   6.113
 4567POPC   C2B58532   2.389   0.158   6.536
 4567POPC   C3B58533   2.166   0.139   6.920
 4567POPC   C4B58534   2.356   0.108   7.304
 4568POPC   NC358535  41.894  16.579   5.260
 4568POPC   PO458536  41.504  17.069   5.335
 4568POPC   GL158537  41.644  16.761   5.665
 4568POPC   GL258538  41.945  16.859   5.788
 4568POPC   C1A58539  41.629  16.488   6.052
 4568POPC   D2A58540  41.462  16.646   6.474
 4568POPC   C3A58541  41.717  16.544   6.819
 4568POPC   C4A58542  41.704  16.540   7.236
 4568POPC   C1B58543  41.776  16.952   6.192
 4568POPC   C2B58544  41.992  16.880   6.556
 4568POPC   C3B58545  41.924  16.987   6.992
 4568POPC   C4B58546  41.480  16.953   7.071
 4569POPC   NC358547  39.636   4.365   5.551
 4569POPC   PO458548  38.965   4.076   5.412
 4569POPC   GL158549  39.148   4.307   5.731
 4569POPC   GL258550  38.876   4.334   5.938
 4569POPC   C1A58551  39.294   4.159   6.147
 4569POPC   D2A58552  38.973   4.208   6.476
 4569POPC   C3A58553  39.145   4.265   6.882
 4569POPC   C4A58554  39.403   4.146   7.220
 4569POPC   C1B58555  39.089   4.627   6.212
 4569POPC   C2B58556  38.949   4.735   6.625
 4569POPC   C3B58557  38.831   4.625   7.023
 4569POPC   C4B58558  39.112   4.555   7.327
 4570POPC   NC358559  37.727   3.904   5.577
 4570POPC   PO458560  37.357   4.555   5.542
 4570POPC   GL158561  37.560   4.399   5.893
 4570POPC   GL258562  37.887   4.296   5.861
 4570POPC   C1A58563  37.508   4.437   6.315
 4570POPC   D2A58564  37.599   4.299   6.683
 4570POPC   C3A58565  37.420   4.481   7.013
 4570POPC   C4A58566  37.491   4.285   7.442
 4570POPC   C1B58567  38.046   4.254   6.252
 4570POPC   C2B58568  38.044   4.043   6.613
 4570POPC   C3B58569  38.087   4.369   6.862
 4570POPC   C4B58570  37.884   4.502   7.209
 4571POPC   NC358571  41.688   2.984   5.415
 4571POPC   PO458572  41.283   2.540   5.414
 4571POPC   GL158573  41.476   2.713   5.785
 4571POPC   GL258574  41.723   2.522   5.815
 4571POPC   C1A58575  41.714   2.978   6.147
 4571POPC   D2A58576  41.947   2.900   6.566
 4571POPC   C3A58577  41.770   3.070   6.966
 4571POPC   C4A58578  41.646   2.989   7.414
 4571POPC   C1B58579  41.886   2.509   6.206
 4571POPC   C2B58580  41.944   2.316   6.573
 4571POPC   C3B58581  42.015   2.510   6.945
 4571POPC   C4B58582  41.745   2.535   7.252
 4572POPC   NC358583  15.516  21.226   5.453
 4572POPC   PO458584  16.199  21.431   5.479
 4572POPC   GL158585  15.900  21.539   5.814
 4572POPC   GL258586  15.614  21.355   5.974
 4572POPC   C1A58587  15.952  21.666   6.243
 4572POPC   D2A58588  16.153  21.432   6.557
 4572POPC   C3A58589  15.944  21.338   6.913
 4572POPC   C4A58590  16.075  21.699   7.082
 4572POPC   C1B58591  15.594  21.313   6.453
 4572POPC   C2B58592  15.482  21.542   6.841
 4572POPC   C3B58593  15.628  21.562   7.274
 4572POPC   C4B58594  15.573  21.250   7.619
 4573POPC   NC358595  22.741  44.286   5.400
 4573POPC   PO458596  23.161  44.781   5.248
 4573POPC   GL158597  23.113  44.824   5.734
 4573POPC   GL258598  23.042  44.489   5.794
 4573POPC   C1A58599  22.863  44.848   6.166
 4573POPC   D2A58600  22.729  44.628   6.575
 4573POPC   C3A58601  22.818  44.799   6.979
 4573POPC   C4A58602  23.181  44.692   7.182
 4573POPC   C1B58603  22.838  44.301   6.142
 4573POPC   C2B58604  22.885  44.137   6.547
 4573POPC   C3B58605  23.028  44.282   6.903
 4573POPC   C4B58606  22.793  44.349   7.224
 4574POPC   NC358607  10.221   5.527   5.221
 4574POPC   PO458608  10.707   6.057   5.371
 4574POPC   GL158609  10.607   5.782   5.742
 4574POPC   GL258610  10.309   5.604   5.798
 4574POPC   C1A58611  10.604   5.876   6.202
 4574POPC   D2A58612  10.738   6.093   6.595
 4574POPC   C3A58613  10.579   5.917   6.979
 4574POPC   C4A58614  10.845   5.638   7.183
 4574POPC   C1B58615  10.182   5.584   6.232
 4574POPC   C2B58616  10.227   5.724   6.646
 4574POPC   C3B58617  10.096   5.506   6.986
 4574POPC   C4B58618  10.365   5.496   7.310
 4575POPC   NC358619  23.399  31.839   5.503
 4575POPC   PO458620  23.579  32.385   5.350
 4575POPC   GL158621  23.440  32.493   5.789
 4575POPC   GL258622  23.739  32.391   5.942
 4575POPC   C1A58623  23.307  32.360   6.238
 4575POPC   D2A58624  23.572  32.192   6.567
 4575POPC   C3A58625  23.457  32.306   6.976
 4575POPC   C4A58626  23.504  32.104   7.403
 4575POPC   C1B58627  23.824  32.598   6.328
 4575POPC   C2B58628  23.874  32.589   6.756
 4575POPC   C3B58629  23.923  32.392   7.211
 4575POPC   C4B58630  23.935  32.216   7.687
 4576POPC   NC358631   7.103  44.014   5.247
 4576POPC   PO458632   7.623  43.580   5.373
 4576POPC   GL158633   7.418  43.787   5.757
 4576POPC   GL258634   7.672  44.008   5.833
 4576POPC   C1A58635   7.211  43.661   6.181
 4576POPC   D2A58636   7.188  43.907   6.582
 4576POPC   C3A58637   7.345  43.818   6.986
 4576POPC   C4A58638   7.031  43.716   7.242
 4576POPC   C1B58639   7.521  44.072   6.232
 4576POPC   C2B58640   7.669  44.066   6.653
 4576POPC   C3B58641   7.681  44.196   7.071
 4576POPC   C4B58642   7.634  44.205   7.515
 4577POPC   NC358643  35.160  37.824   5.416
 4577POPC   PO458644  35.512  37.253   5.446
 4577POPC   GL158645  35.277  37.410   5.757
 4577POPC   GL258646  35.586  37.433   5.981
 4577POPC   C1A58647  35.221  37.764   6.071
 4577POPC   D2A58648  35.515  37.953   6.369
 4577POPC   C3A58649  35.358  37.898   6.780
 4577POPC   C4A58650  35.473  37.912   7.196
 4577POPC   C1B58651  35.224  37.268   6.241
 4577POPC   C2B58652  35.114  37.228   6.682
 4577POPC   C3B58653  35.332  37.427   7.038
 4577POPC   C4B58654  35.588  37.466   7.419
 4578POPC   NC358655  20.861  16.249   5.449
 4578POPC   PO458656  20.418  15.695   5.451
 4578POPC   GL158657  20.803  15.780   5.713
 4578POPC   GL258658  20.716  16.058   5.906
 4578POPC   C1A58659  20.954  15.606   6.126
 4578POPC   D2A58660  20.791  15.508   6.552
 4578POPC   C3A58661  20.630  15.853   6.854
 4578POPC   C4A58662  20.741  16.151   7.213
 4578POPC   C1B58663  20.720  16.025   6.357
 4578POPC   C2B58664  20.661  16.337   6.677
 4578POPC   C3B58665  20.380  16.417   6.972
 4578POPC   C4B58666  20.133  16.097   7.162
 4579POPC   NC358667   5.759   9.771   4.918
 4579POPC   PO458668   6.199   9.616   5.349
 4579POPC   GL158669   6.038   9.724   5.769
 4579POPC   GL258670   5.664   9.759   5.804
 4579POPC   C1A58671   5.963   9.804   6.218
 4579POPC   D2A58672   6.070  10.075   6.568
 4579POPC   C3A58673   5.950   9.920   6.990
 4579POPC   C4A58674   6.012   9.736   7.432
 4579POPC   C1B58675   5.535   9.539   6.218
 4579POPC   C2B58676   5.689   9.641   6.647
 4579POPC   C3B58677   5.484   9.728   7.067
 4579POPC   C4B58678   5.507   9.715   7.524
 4580POPC   NC358679  22.327  32.845   5.480
 4580POPC   PO458680  22.424  33.527   5.536
 4580POPC   GL158681  22.266  33.170   5.870
 4580POPC   GL258682  22.466  32.842   5.971
 4580POPC   C1A58683  21.973  32.843   6.114
 4580POPC   D2A58684  21.861  32.701   6.552
 4580POPC   C3A58685  22.022  32.981   6.878
 4580POPC   C4A58686  22.061  33.029   7.320
 4580POPC   C1B58687  22.397  32.842   6.417
 4580POPC   C2B58688  22.626  32.878   6.793
 4580POPC   C3B58689  22.539  32.931   7.212
 4580POPC   C4B58690  22.555  33.284   7.543
 4581POPC   NC358691   2.613   5.957   5.383
 4581POPC   PO458692   3.216   5.626   5.347
 4581POPC   GL158693   2.989   5.798   5.762
 4581POPC   GL258694   2.591   5.734   5.867
 4581POPC   C1A58695   2.946   5.701   6.225
 4581POPC   D2A58696   2.913   5.922   6.625
 4581POPC   C3A58697   2.776   5.697   6.998
 4581POPC   C4A58698   2.863   5.669   7.450
 4581POPC   C1B58699   2.504   5.971   6.289
 4581POPC   C2B58700   2.437   6.028   6.757
 4581POPC   C3B58701   2.398   5.968   7.220
 4581POPC   C4B58702   2.157   5.794   7.589
 4582POPC   NC358703  22.706  29.527   5.459
 4582POPC   PO458704  23.088  29.049   5.198
 4582POPC   GL158705  22.983  29.126   5.825
 4582POPC   GL258706  22.835  29.360   5.926
 4582POPC   C1A58707  22.646  29.103   6.276
 4582POPC   D2A58708  22.450  29.195   6.683
 4582POPC   C3A58709  22.781  29.135   6.995
 4582POPC   C4A58710  22.902  29.316   7.385
 4582POPC   C1B58711  23.167  29.194   6.276
 4582POPC   C2B58712  23.240  29.134   6.727
 4582POPC   C3B58713  23.349  29.207   7.146
 4582POPC   C4B58714  23.303  29.607   7.398
 4583POPC   NC358715  35.712  19.343   5.393
 4583POPC   PO458716  35.349  19.898   5.456
 4583POPC   GL158717  35.286  19.846   5.912
 4583POPC   GL258718  35.072  19.563   5.982
 4583POPC   C1A58719  35.240  20.083   6.315
 4583POPC   D2A58720  35.025  20.219   6.717
 4583POPC   C3A58721  35.272  20.072   7.074
 4583POPC   C4A58722  35.665  19.802   7.158
 4583POPC   C1B58723  35.372  19.422   6.251
 4583POPC   C2B58724  35.529  19.580   6.603
 4583POPC   C3B58725  35.272  19.575   6.928
 4583POPC   C4B58726  35.152  19.597   7.315
 4584POPC   NC358727  16.180   0.064   5.078
 4584POPC   PO458728  15.837   0.591   5.281
 4584POPC   GL158729  15.962   0.242   5.562
 4584POPC   GL258730  15.756   0.404   5.806
 4584POPC   C1A58731  16.171   0.182   6.001
 4584POPC   D2A58732  15.986   0.311   6.412
 4584POPC   C3A58733  16.009   0.139   6.845
 4584POPC   C4A58734  16.300   0.227   7.184
 4584POPC   C1B58735  15.592   0.594   6.186
 4584POPC   C2B58736  15.809   0.797   6.544
 4584POPC   C3B58737  16.104   0.657   6.856
 4584POPC   C4B58738  15.919   0.565   7.243
 4585POPC   NC358739  41.531  35.543   5.370
 4585POPC   PO458740  41.752  34.859   5.528
 4585POPC   GL158741  41.713  35.231   5.822
 4585POPC   GL258742  41.381  35.331   5.803
 4585POPC   C1A58743  41.546  35.447   6.249
 4585POPC   D2A58744  41.394  35.305   6.662
 4585POPC   C3A58745  41.672  35.383   7.008
 4585POPC   C4A58746  41.561  35.730   7.213
 4585POPC   C1B58747  41.149  35.679   5.987
 4585POPC   C2B58748  41.139  35.720   6.442
 4585POPC   C3B58749  41.156  35.718   6.876
 4585POPC   C4B58750  41.122  35.494   7.272
 4586POPC   NC358751  22.851  34.884   5.554
 4586POPC   PO458752  23.165  34.353   5.108
 4586POPC   GL158753  23.025  34.405   5.645
 4586POPC   GL258754  22.638  34.385   5.729
 4586POPC   C1A58755  22.969  34.662   6.126
 4586POPC   D2A58756  23.157  34.753   6.562
 4586POPC   C3A58757  22.909  34.830   6.947
 4586POPC   C4A58758  22.677  34.782   7.332
 4586POPC   C1B58759  22.487  34.508   6.174
 4586POPC   C2B58760  22.568  34.685   6.599
 4586POPC   C3B58761  22.557  34.421   7.030
 4586POPC   C4B58762  22.477  34.380   7.562
 4587POPC   NC358763  15.342  10.560   5.287
 4587POPC   PO458764  14.720  10.405   5.390
 4587POPC   GL158765  14.933  10.546   5.809
 4587POPC   GL258766  15.332  10.615   5.857
 4587POPC   C1A58767  15.052  10.447   6.259
 4587POPC   D2A58768  15.330  10.296   6.583
 4587POPC   C3A58769  15.179  10.455   6.945
 4587POPC   C4A58770  15.124  10.467   7.371
 4587POPC   C1B58771  15.618  10.611   6.273
 4587POPC   C2B58772  15.627  10.764   6.731
 4587POPC   C3B58773  15.543  10.711   7.207
 4587POPC   C4B58774  15.507  10.546   7.669
 4588POPC   NC358775   1.918  29.650   5.532
 4588POPC   PO458776   2.278  29.142   5.413
 4588POPC   GL158777   2.141  29.131   5.844
 4588POPC   GL258778   1.835  29.173   5.748
 4588POPC   C1A58779   1.996  29.049   6.290
 4588POPC   D2A58780   1.797  29.011   6.701
 4588POPC   C3A58781   2.015  29.155   7.072
 4588POPC   C4A58782   2.036  29.087   7.519
 4588POPC   C1B58783   1.646  29.356   6.081
 4588POPC   C2B58784   1.754  29.479   6.471
 4588POPC   C3B58785   1.612  29.466   6.896
 4588POPC   C4B58786   1.649  29.394   7.342
 4589POPC   NC358787  15.281  31.142   5.385
 4589POPC   PO458788  14.709  31.431   5.386
 4589POPC   GL158789  14.823  31.368   5.838
 4589POPC   GL258790  15.226  31.409   5.921
 4589POPC   C1A58791  14.863  31.591   6.243
 4589POPC   D2A58792  15.172  31.543   6.579
 4589POPC   C3A58793  15.060  31.411   7.011
 4589POPC   C4A58794  15.143  31.395   7.460
 4589POPC   C1B58795  15.517  31.252   6.309
 4589POPC   C2B58796  15.639  31.258   6.779
 4589POPC   C3B58797  15.649  31.332   7.241
 4589POPC   C4B58798  15.767  31.331   7.673
 4590POPC   NC358799  41.155   5.109   5.502
 4590POPC   PO458800  40.660   4.684   5.452
 4590POPC   GL158801  40.800   4.894   5.874
 4590POPC   GL258802  40.923   5.242   5.932
 4590POPC   C1A58803  40.693   5.005   6.342
 4590POPC   D2A58804  40.653   5.013   6.801
 4590POPC   C3A58805  41.052   4.963   7.033
 4590POPC   C4A58806  40.983   4.726   7.451
 4590POPC   C1B58807  40.720   5.501   6.209
 4590POPC   C2B58808  40.513   5.488   6.602
 4590POPC   C3B58809  40.692   5.477   7.016
 4590POPC   C4B58810  40.733   5.176   7.361
 4591POPC   NC358811  24.197  22.598   5.632
 4591POPC   PO458812  23.702  22.975   5.280
 4591POPC   GL158813  23.803  23.080   5.691
 4591POPC   GL258814  23.617  22.819   5.851
 4591POPC   C1A58815  23.974  23.140   6.101
 4591POPC   D2A58816  23.961  23.211   6.577
 4591POPC   C3A58817  23.925  22.865   6.876
 4591POPC   C4A58818  24.041  22.751   7.287
 4591POPC   C1B58819  23.488  23.120   6.171
 4591POPC   C2B58820  23.455  23.054   6.583
 4591POPC   C3B58821  23.560  23.216   6.968
 4591POPC   C4B58822  23.528  23.032   7.351
 4592POPC   NC358823   4.405  31.051   5.501
 4592POPC   PO458824   4.106  31.638   5.374
 4592POPC   GL158825   4.259  31.605   5.795
 4592POPC   GL258826   4.608  31.621   5.823
 4592POPC   C1A58827   4.311  31.448   6.221
 4592POPC   D2A58828   4.118  31.579   6.601
 4592POPC   C3A58829   4.269  31.365   6.966
 4592POPC   C4A58830   4.046  31.232   7.323
 4592POPC   C1B58831   4.803  31.588   6.237
 4592POPC   C2B58832   4.626  31.597   6.638
 4592POPC   C3B58833   4.598  31.784   7.036
 4592POPC   C4B58834   4.713  31.456   7.261
 4593POPC   NC358835   7.967  29.124   5.508
 4593POPC   PO458836   8.520  28.773   5.672
 4593POPC   GL158837   8.287  29.018   5.916
 4593POPC   GL258838   8.519  29.318   5.890
 4593POPC   C1A58839   7.902  28.989   6.167
 4593POPC   D2A58840   7.922  29.205   6.534
 4593POPC   C3A58841   8.170  28.967   6.824
 4593POPC   C4A58842   8.100  28.956   7.248
 4593POPC   C1B58843   8.134  29.492   6.109
 4593POPC   C2B58844   8.062  29.695   6.515
 4593POPC   C3B58845   7.966  29.551   6.930
 4593POPC   C4B58846   8.187  29.472   7.279
 4594POPC   NC358847   4.708  16.846   5.240
 4594POPC   PO458848   4.080  16.563   5.476
 4594POPC   GL158849   4.268  16.801   5.775
 4594POPC   GL258850   4.623  16.783   5.747
 4594POPC   C1A58851   4.181  16.795   6.202
 4594POPC   D2A58852   4.039  16.914   6.605
 4594POPC   C3A58853   4.396  16.957   6.881
 4594POPC   C4A58854   4.489  16.951   7.290
 4594POPC   C1B58855   4.610  16.480   6.092
 4594POPC   C2B58856   4.590  16.342   6.520
 4594POPC   C3B58857   4.824  16.290   6.887
 4594POPC   C4B58858   4.706  16.510   7.235
 4595POPC   NC358859   9.497  12.321   5.601
 4595POPC   PO458860  10.142  12.180   5.503
 4595POPC   GL158861   9.863  11.858   5.758
 4595POPC   GL258862   9.481  11.881   5.855
 4595POPC   C1A58863   9.855  11.802   6.212
 4595POPC   D2A58864  10.045  12.140   6.488
 4595POPC   C3A58865  10.052  12.043   6.918
 4595POPC   C4A58866  10.003  11.747   7.275
 4595POPC   C1B58867   9.347  11.806   6.288
 4595POPC   C2B58868   9.591  11.929   6.670
 4595POPC   C3B58869   9.578  12.127   7.092
 4595POPC   C4B58870   9.598  12.227   7.568
 4596POPC   NC358871  16.724  12.732   5.123
 4596POPC   PO458872  16.573  13.169   5.557
 4596POPC   GL158873  16.691  13.139   5.939
 4596POPC   GL258874  16.431  12.921   6.016
 4596POPC   C1A58875  16.870  12.909   6.284
 4596POPC   D2A58876  16.727  12.746   6.664
 4596POPC   C3A58877  16.797  12.973   7.030
 4596POPC   C4A58878  16.536  13.181   7.274
 4596POPC   C1B58879  16.411  12.552   6.276
 4596POPC   C2B58880  16.239  12.368   6.648
 4596POPC   C3B58881  16.423  12.464   7.037
 4596POPC   C4B58882  16.712  12.559   7.334
 4597POPC   NC358883  35.608  10.116   5.522
 4597POPC   PO458884  35.089   9.691   5.454
 4597POPC   GL158885  35.290   9.737   5.841
 4597POPC   GL258886  35.283  10.080   5.946
 4597POPC   C1A58887  35.123   9.750   6.291
 4597POPC   D2A58888  35.266   9.905   6.693
 4597POPC   C3A58889  35.316   9.674   7.087
 4597POPC   C4A58890  34.983   9.591   7.376
 4597POPC   C1B58891  35.596  10.066   6.338
 4597POPC   C2B58892  35.619  10.253   6.799
 4597POPC   C3B58893  35.727   9.993   7.198
 4597POPC   C4B58894  35.688   9.735   7.581
 4598POPC   NC358895  33.528  13.286   5.201
 4598POPC   PO458896  33.838  13.859   5.434
 4598POPC   GL158897  33.910  13.710   5.825
 4598POPC   GL258898  33.844  13.374   5.764
 4598POPC   C1A58899  33.691  13.784   6.234
 4598POPC   D2A58900  33.532  13.997   6.605
 4598POPC   C3A58901  33.730  13.826   6.970
 4598POPC   C4A58902  33.836  13.933   7.402
 4598POPC   C1B58903  34.016  13.353   6.191
 4598POPC   C2B58904  33.926  13.487   6.602
 4598POPC   C3B58905  33.957  13.313   7.000
 4598POPC   C4B58906  33.669  13.445   7.291
 4599POPC   NC358907  35.465  27.501   5.347
 4599POPC   PO458908  34.789  27.634   5.487
 4599POPC   GL158909  35.144  27.585   5.836
 4599POPC   GL258910  35.515  27.556   5.833
 4599POPC   C1A58911  35.211  27.752   6.267
 4599POPC   D2A58912  34.998  27.875   6.656
 4599POPC   C3A58913  35.242  27.733   7.014
 4599POPC   C4A58914  35.482  27.782   7.396
 4599POPC   C1B58915  35.676  27.537   6.221
 4599POPC   C2B58916  35.505  27.481   6.619
 4599POPC   C3B58917  35.697  27.521   7.010
 4599POPC   C4B58918  35.786  27.226   7.307
 4600POPC   NC358919  12.273  26.092   5.042
 4600POPC   PO458920  11.809  25.811   5.417
 4600POPC   GL158921  11.918  26.098   5.824
 4600POPC   GL258922  12.265  26.101   5.895
 4600POPC   C1A58923  11.992  26.210   6.297
 4600POPC   D2A58924  12.388  26.098   6.574
 4600POPC   C3A58925  12.274  26.060   7.006
 4600POPC   C4A58926  11.847  26.065   7.140
 4600POPC   C1B58927  12.210  25.763   6.236
 4600POPC   C2B58928  11.966  25.818   6.672
 4600POPC   C3B58929  12.064  25.575   7.082
 4600POPC   C4B58930  12.236  25.320   7.467
 4601POPC   NC358931   3.802  33.295   5.538
 4601POPC   PO458932   3.453  32.849   5.276
 4601POPC   GL158933   3.708  32.854   5.787
 4601POPC   GL258934   3.445  32.767   6.053
 4601POPC   C1A58935   3.702  33.182   6.207
 4601POPC   D2A58936   3.535  33.194   6.655
 4601POPC   C3A58937   3.780  33.204   7.062
 4601POPC   C4A58938   3.716  33.270   7.532
 4601POPC   C1B58939   3.850  32.708   6.304
 4601POPC   C2B58940   3.857  32.753   6.734
 4601POPC   C3B58941   3.499  32.772   6.963
 4601POPC   C4B58942   3.388  32.586   7.314
 4602POPC   NC358943  42.036  11.650   5.636
 4602POPC   PO458944  42.566  11.319   5.385
 4602POPC   GL158945  42.402  11.324   5.803
 4602POPC   GL258946  42.243  11.023   5.942
 4602POPC   C1A58947  42.350  11.400   6.257
 4602POPC   D2A58948  42.372  11.082   6.578
 4602POPC   C3A58949  42.324  11.289   6.959
 4602POPC   C4A58950  42.140  11.233   7.326
 4602POPC   C1B58951  42.678  11.020   6.118
 4602POPC   C2B58952  42.893  10.929   6.519
 4602POPC   C3B58953  42.737  10.966   6.947
 4602POPC   C4B58954  42.611  11.003   7.423
 4603POPC   NC358955  30.007  32.044   5.435
 4603POPC   PO458956  29.294  32.160   5.256
 4603POPC   GL158957  29.482  32.026   5.716
 4603POPC   GL258958  29.787  31.891   5.859
 4603POPC   C1A58959  29.610  32.296   6.147
 4603POPC   D2A58960  29.802  32.228   6.568
 4603POPC   C3A58961  29.827  32.465   6.962
 4603POPC   C4A58962  29.780  32.492   7.442
 4603POPC   C1B58963  30.088  32.128   6.126
 4603POPC   C2B58964  30.294  32.082   6.539
 4603POPC   C3B58965  30.147  32.058   6.948
 4603POPC   C4B58966  29.816  32.007   7.230
 4604POPC   NC358967  38.977   8.199   5.438
 4604POPC   PO458968  39.508   7.803   5.312
 4604POPC   GL158969  39.428   8.017   5.758
 4604POPC   GL258970  39.149   8.188   5.899
 4604POPC   C1A58971  39.549   8.308   6.161
 4604POPC   D2A58972  39.478   8.467   6.606
 4604POPC   C3A58973  39.293   8.183   6.925
 4604POPC   C4A58974  39.325   8.114   7.359
 4604POPC   C1B58975  38.995   8.447   6.232
 4604POPC   C2B58976  38.948   8.458   6.685
 4604POPC   C3B58977  38.868   8.396   7.148
 4604POPC   C4B58978  38.641   8.092   7.450
 4605POPC   NC358979  28.909  42.783   5.362
 4605POPC   PO458980  29.273  43.385   5.268
 4605POPC   GL158981  29.435  43.319   5.741
 4605POPC   GL258982  29.470  42.951   5.887
 4605POPC   C1A58983  29.347  43.294   6.235
 4605POPC   D2A58984  29.420  43.195   6.695
 4605POPC   C3A58985  29.162  43.238   7.048
 4605POPC   C4A58986  28.779  43.243   7.264
 4605POPC   C1B58987  29.307  42.800   6.338
 4605POPC   C2B58988  29.025  42.804   6.725
 4605POPC   C3B58989  28.980  42.750   7.183
 4605POPC   C4B58990  29.261  42.626   7.551
 4606POPC   NC358991   8.214  25.640   5.340
 4606POPC   PO458992   7.844  26.242   5.422
 4606POPC   GL158993   8.008  26.108   5.825
 4606POPC   GL258994   8.320  25.936   5.786
 4606POPC   C1A58995   8.048  25.992   6.275
 4606POPC   D2A58996   7.809  26.085   6.643
 4606POPC   C3A58997   8.012  26.179   7.029
 4606POPC   C4A58998   8.440  26.237   7.048
 4606POPC   C1B58999   8.215  25.551   6.050
 4606POPC   C2B59000   8.251  25.442   6.497
 4606POPC   C3B59001   8.341  25.693   6.865
 4606POPC   C4B59002   8.013  25.694   7.152
 4607POPC   NC359003   8.649  39.801   5.578
 4607POPC   PO459004   9.256  40.094   5.368
 4607POPC   GL159005   9.128  39.865   5.757
 4607POPC   GL259006   9.391  39.630   5.795
 4607POPC   C1A59007   8.856  39.845   6.159
 4607POPC   D2A59008   8.727  40.135   6.463
 4607POPC   C3A59009   8.687  39.991   6.896
 4607POPC   C4A59010   8.892  40.078   7.295
 4607POPC   C1B59011   9.357  39.867   6.206
 4607POPC   C2B59012   9.100  39.780   6.592
 4607POPC   C3B59013   9.230  39.926   6.959
 4607POPC   C4B59014   9.409  40.083   7.318
 4608POPC   NC359015  40.045  35.850   5.459
 4608POPC   PO459016  39.916  36.502   5.360
 4608POPC   GL159017  39.950  36.273   5.760
 4608POPC   GL259018  40.091  36.488   5.985
 4608POPC   C1A59019  39.970  36.000   6.157
 4608POPC   D2A59020  39.794  36.116   6.610
 4608POPC   C3A59021  39.878  35.883   7.004
 4608POPC   C4A59022  40.209  35.818   7.330
 4608POPC   C1B59023  39.803  36.626   6.305
 4608POPC   C2B59024  39.727  36.617   6.731
 4608POPC   C3B59025  39.911  36.401   7.089
 4608POPC   C4B59026  39.800  36.166   7.461
 4609POPC   NC359027  29.124  41.825   5.552
 4609POPC   PO459028  28.796  42.357   5.255
 4609POPC   GL159029  28.978  42.304   5.719
 4609POPC   GL259030  28.696  42.255   5.941
 4609POPC   C1A59031  29.203  42.310   6.191
 4609POPC   D2A59032  29.366  42.411   6.679
 4609POPC   C3A59033  29.134  42.268   7.115
 4609POPC   C4A59034  29.199  42.103   7.536
 4609POPC   C1B59035  28.784  42.073   6.355
 4609POPC   C2B59036  28.801  42.312   6.720
 4609POPC   C3B59037  28.630  42.201   7.110
 4609POPC   C4B59038  28.770  41.872   7.403
 4610POPC   NC359039  32.437  37.920   5.286
 4610POPC   PO459040  32.257  37.327   5.316
 4610POPC   GL159041  32.155  37.575   5.749
 4610POPC   GL259042  32.012  37.887   5.627
 4610POPC   C1A59043  32.305  37.669   6.225
 4610POPC   D2A59044  32.069  37.497   6.601
 4610POPC   C3A59045  32.134  37.310   7.006
 4610POPC   C4A59046  32.450  37.522   7.206
 4610POPC   C1B59047  31.875  37.906   6.079
 4610POPC   C2B59048  32.019  38.028   6.515
 4610POPC   C3B59049  32.309  37.890   6.849
 4610POPC   C4B59050  32.382  38.039   7.265
 4611POPC   NC359051  18.796  23.869   5.405
 4611POPC   PO459052  19.061  23.263   5.410
 4611POPC   GL159053  19.024  23.548   5.799
 4611POPC   GL259054  18.907  23.903   5.913
 4611POPC   C1A59055  19.158  23.599   6.255
 4611POPC   D2A59056  19.223  23.440   6.691
 4611POPC   C3A59057  19.144  23.740   7.042
 4611POPC   C4A59058  19.196  23.776   7.515
 4611POPC   C1B59059  18.671  23.751   6.325
 4611POPC   C2B59060  18.663  23.802   6.811
 4611POPC   C3B59061  18.714  23.956   7.264
 4611POPC   C4B59062  18.659  23.822   7.713
 4612POPC   NC359063  18.515  37.155   5.449
 4612POPC   PO459064  18.065  36.721   5.257
 4612POPC   GL159065  18.115  36.906   5.691
 4612POPC   GL259066  18.463  36.923   5.897
 4612POPC   C1A59067  18.043  37.123   6.084
 4612POPC   D2A59068  18.247  36.926   6.446
 4612POPC   C3A59069  18.051  36.835   6.842
 4612POPC   C4A59070  18.203  37.033   7.215
 4612POPC   C1B59071  18.663  36.669   6.215
 4612POPC   C2B59072  18.586  36.540   6.655
 4612POPC   C3B59073  18.574  36.693   7.092
 4612POPC   C4B59074  18.564  36.858   7.551
 4613POPC   NC359075  39.702   7.471   5.050
 4613POPC   PO459076  40.178   7.826   5.424
 4613POPC   GL159077  40.076   7.551   5.822
 4613POPC   GL259078  40.202   7.229   5.843
 4613POPC   C1A59079  39.977   7.409   6.271
 4613POPC   D2A59080  40.050   7.531   6.722
 4613POPC   C3A59081  40.030   7.258   7.100
 4613POPC   C4A59082  39.840   7.286   7.479
 4613POPC   C1B59083  40.312   6.955   6.139
 4613POPC   C2B59084  40.266   7.067   6.549
 4613POPC   C3B59085  40.321   6.882   6.898
 4613POPC   C4B59086  40.438   6.906   7.302
 4614POPC   NC359087  24.773  44.681   5.433
 4614POPC   PO459088  24.057  44.724   5.488
 4614POPC   GL159089  24.363  44.727   5.847
 4614POPC   GL259090  24.677  44.898   5.897
 4614POPC   C1A59091  24.537  44.535   6.261
 4614POPC   D2A59092  24.479  44.368   6.698
 4614POPC   C3A59093  24.735  44.397   7.070
 4614POPC   C4A59094  24.589  44.614   7.438
 4614POPC   C1B59095  24.667   0.031   6.329
 4614POPC   C2B59096  24.588  44.955   6.771
 4614POPC   C3B59097  24.849  44.894   7.113
 4614POPC   C4B59098  24.884   0.030   7.565
 4615POPC   NC359099  33.636  25.585   5.435
 4615POPC   PO459100  34.165  25.228   5.192
 4615POPC   GL159101  34.115  25.476   5.629
 4615POPC   GL259102  33.844  25.321   5.811
 4615POPC   C1A59103  34.198  25.546   6.107
 4615POPC   D2A59104  34.011  25.392   6.524
 4615POPC   C3A59105  34.104  25.555   6.949
 4615POPC   C4A59106  34.010  25.312   7.344
 4615POPC   C1B59107  33.640  25.509   6.156
 4615POPC   C2B59108  33.476  25.476   6.557
 4615POPC   C3B59109  33.614  25.425   6.960
 4615POPC   C4B59110  33.518  25.449   7.365
 4616POPC   NC359111   3.293  43.746   5.438
 4616POPC   PO459112   3.733  43.306   5.311
 4616POPC   GL159113   3.715  42.967   5.648
 4616POPC   GL259114   3.350  42.927   5.734
 4616POPC   C1A59115   3.753  42.812   6.092
 4616POPC   D2A59116   3.510  42.825   6.497
 4616POPC   C3A59117   3.546  43.074   6.873
 4616POPC   C4A59118   3.662  42.843   7.242
 4616POPC   C1B59119   3.175  43.261   6.004
 4616POPC   C2B59120   3.194  43.247   6.464
 4616POPC   C3B59121   3.168  43.467   6.865
 4616POPC   C4B59122   3.273  43.329   7.261
 4617POPC   NC359123  27.383  44.041   5.353
 4617POPC   PO459124  27.895  43.587   5.493
 4617POPC   GL159125  27.791  43.830   5.863
 4617POPC   GL259126  27.440  43.918   5.852
 4617POPC   C1A59127  27.803  43.848   6.314
 4617POPC   D2A59128  27.629  43.976   6.708
 4617POPC   C3A59129  27.871  43.897   7.079
 4617POPC   C4A59130  27.559  43.627   7.200
 4617POPC   C1B59131  27.320  44.059   6.266
 4617POPC   C2B59132  27.332  44.385   6.596
 4617POPC   C3B59133  27.266  44.225   7.007
 4617POPC   C4B59134  27.359  44.031   7.413
 4618POPC   NC359135  21.797   3.131   5.530
 4618POPC   PO459136  22.272   2.727   5.315
 4618POPC   GL159137  22.231   2.965   5.722
 4618POPC   GL259138  22.043   2.744   5.926
 4618POPC   C1A59139  22.359   3.144   6.138
 4618POPC   D2A59140  22.515   3.101   6.562
 4618POPC   C3A59141  22.277   2.770   6.778
 4618POPC   C4A59142  22.155   2.843   7.187
 4618POPC   C1B59143  22.019   2.510   6.319
 4618POPC   C2B59144  21.831   2.408   6.718
 4618POPC   C3B59145  21.973   2.379   7.137
 4618POPC   C4B59146  21.937   2.515   7.556
 4619POPC   NC359147   2.375  43.739   5.139
 4619POPC   PO459148   2.574  43.153   5.414
 4619POPC   GL159149   2.625  43.003   5.820
 4619POPC   GL259150   2.853  42.732   5.853
 4619POPC   C1A59151   2.732  43.106   6.250
 4619POPC   D2A59152   2.739  43.418   6.582
 4619POPC   C3A59153   2.666  43.338   6.999
 4619POPC   C4A59154   2.516  42.959   7.164
 4619POPC   C1B59155   3.113  42.781   6.180
 4619POPC   C2B59156   2.978  42.796   6.589
 4619POPC   C3B59157   3.034  42.984   6.951
 4619POPC   C4B59158   3.129  42.823   7.328
 4620POPC   NC359159  43.545  15.771   5.614
 4620POPC   PO459160  43.166  16.201   5.199
 4620POPC   GL159161  43.204  16.202   5.697
 4620POPC   GL259162  42.951  16.008   5.876
 4620POPC   C1A59163  43.122  16.386   6.170
 4620POPC   D2A59164  42.995  16.149   6.577
 4620POPC   C3A59165  43.131  16.104   7.045
 4620POPC   C4A59166  43.024  16.090   7.543
 4620POPC   C1B59167  43.252  15.894   6.189
 4620POPC   C2B59168  43.302  15.685   6.555
 4620POPC   C3B59169  43.141  15.549   6.957
 4620POPC   C4B59170  43.257  15.688   7.345
 4621POPC   NC359171   3.461  29.502   5.665
 4621POPC   PO459172   3.897  28.956   5.409
 4621POPC   GL159173   3.733  28.851   5.801
 4621POPC   GL259174   3.817  29.179   5.889
 4621POPC   C1A59175   3.462  28.937   6.181
 4621POPC   D2A59176   3.371  29.169   6.563
 4621POPC   C3A59177   3.458  29.031   6.939
 4621POPC   C4A59178   3.288  29.210   7.301
 4621POPC   C1B59179   3.788  29.339   6.303
 4621POPC   C2B59180   3.942  29.288   6.707
 4621POPC   C3B59181   3.855  29.281   7.137
 4621POPC   C4B59182   3.704  29.419   7.542
 4622POPC   NC359183   2.029  30.363   5.437
 4622POPC   PO459184   1.800  31.060   5.386
 4622POPC   GL159185   1.987  30.807   5.717
 4622POPC   GL259186   2.100  31.040   5.919
 4622POPC   C1A59187   1.925  30.554   6.124
 4622POPC   D2A59188   1.772  30.561   6.570
 4622POPC   C3A59189   2.025  30.651   6.930
 4622POPC   C4A59190   2.076  30.466   7.342
 4622POPC   C1B59191   2.360  30.815   6.162
 4622POPC   C2B59192   2.398  30.619   6.552
 4622POPC   C3B59193   2.591  30.766   6.919
 4622POPC   C4B59194   2.357  30.873   7.249
 4623POPC   NC359195  30.400  37.816   5.455
 4623POPC   PO459196  29.881  37.429   5.415
 4623POPC   GL159197  29.897  37.499   5.813
 4623POPC   GL259198  30.070  37.801   5.842
 4623POPC   C1A59199  29.794  37.518   6.223
 4623POPC   D2A59200  30.075  37.600   6.567
 4623POPC   C3A59201  29.837  37.764   6.882
 4623POPC   C4A59202  29.775  37.734   7.294
 4623POPC   C1B59203  30.013  37.990   6.249
 4623POPC   C2B59204  30.112  38.127   6.658
 4623POPC   C3B59205  30.174  38.123   7.092
 4623POPC   C4B59206  29.906  38.220   7.409
 4624POPC   NC359207  32.541  24.168   5.398
 4624POPC   PO459208  32.388  24.841   5.406
 4624POPC   GL159209  32.338  24.552   5.763
 4624POPC   GL259210  32.013  24.395   5.786
 4624POPC   C1A59211  32.201  24.634   6.211
 4624POPC   D2A59212  32.063  24.796   6.604
 4624POPC   C3A59213  32.316  24.645   6.946
 4624POPC   C4A59214  32.396  24.507   7.348
 4624POPC   C1B59215  31.999  24.169   6.213
 4624POPC   C2B59216  32.119  24.258   6.661
 4624POPC   C3B59217  32.074  24.185   7.116
 4624POPC   C4B59218  32.016  24.259   7.588
 4625POPC   NC359219  41.311  28.791   5.519
 4625POPC   PO459220  41.961  28.848   5.476
 4625POPC   GL159221  41.711  28.953   5.819
 4625POPC   GL259222  41.510  29.255   5.789
 4625POPC   C1A59223  41.490  28.940   6.201
 4625POPC   D2A59224  41.644  29.110   6.576
 4625POPC   C3A59225  41.602  28.886   6.903
 4625POPC   C4A59226  41.302  28.981   7.187
 4625POPC   C1B59227  41.694  29.417   6.175
 4625POPC   C2B59228  41.599  29.623   6.608
 4625POPC   C3B59229  41.413  29.475   7.012
 4625POPC   C4B59230  41.434  29.398   7.465
 4626POPC   NC359231   9.109  33.597   5.437
 4626POPC   PO459232   8.631  33.964   5.712
 4626POPC   GL159233   8.799  33.894   6.060
 4626POPC   GL259234   9.112  33.812   5.898
 4626POPC   C1A59235   8.894  34.065   6.456
 4626POPC   D2A59236   9.246  34.103   6.705
 4626POPC   C3A59237   9.103  33.870   7.033
 4626POPC   C4A59238   8.779  33.794   7.307
 4626POPC   C1B59239   9.326  33.832   6.285
 4626POPC   C2B59240   9.488  33.588   6.649
 4626POPC   C3B59241   9.291  33.410   7.022
 4626POPC   C4B59242   9.247  33.590   7.439
 4627POPC   NC359243  25.413  14.805   5.607
 4627POPC   PO459244  25.266  14.143   5.359
 4627POPC   GL159245  25.210  14.318   5.755
 4627POPC   GL259246  24.895  14.151   5.781
 4627POPC   C1A59247  25.432  14.414   6.138
 4627POPC   D2A59248  25.479  14.304   6.558
 4627POPC   C3A59249  25.351  14.682   6.787
 4627POPC   C4A59250  25.390  14.655   7.226
 4627POPC   C1B59251  24.908  14.408   6.177
 4627POPC   C2B59252  24.978  14.360   6.608
 4627POPC   C3B59253  25.170  14.243   6.999
 4627POPC   C4B59254  24.939  14.286   7.375
 4628POPC   NC359255  38.040   1.461   5.331
 4628POPC   PO459256  38.555   0.952   5.214
 4628POPC   GL159257  38.362   1.130   5.604
 4628POPC   GL259258  38.577   0.981   5.876
 4628POPC   C1A59259  38.237   1.353   6.007
 4628POPC   D2A59260  38.426   1.249   6.420
 4628POPC   C3A59261  38.296   1.337   6.870
 4628POPC   C4A59262  38.361   1.420   7.327
 4628POPC   C1B59263  38.711   0.830   6.297
 4628POPC   C2B59264  38.653   0.930   6.763
 4628POPC   C3B59265  38.518   0.951   7.204
 4628POPC   C4B59266  38.717   1.012   7.611
 4629POPC   NC359267   6.628  28.050   5.320
 4629POPC   PO459268   6.905  28.623   5.123
 4629POPC   GL159269   6.576  28.431   5.620
 4629POPC   GL259270   6.693  28.114   5.824
 4629POPC   C1A59271   6.468  28.494   6.084
 4629POPC   D2A59272   6.587  28.448   6.535
 4629POPC   C3A59273   6.442  28.660   6.886
 4629POPC   C4A59274   6.524  28.434   7.244
 4629POPC   C1B59275   6.919  28.196   6.229
 4629POPC   C2B59276   7.105  28.458   6.583
 4629POPC   C3B59277   7.003  28.434   6.996
 4629POPC   C4B59278   6.984  28.455   7.431
 4630POPC   NC359279  36.174   3.785   5.454
 4630POPC   PO459280  36.145   3.169   5.644
 4630POPC   GL159281  36.259   3.590   5.903
 4630POPC   GL259282  35.997   3.869   5.909
 4630POPC   C1A59283  36.295   3.670   6.352
 4630POPC   D2A59284  36.114   3.340   6.607
 4630POPC   C3A59285  36.168   3.365   7.048
 4630POPC   C4A59286  36.221   3.739   7.275
 4630POPC   C1B59287  35.835   3.564   6.181
 4630POPC   C2B59288  35.787   3.758   6.564
 4630POPC   C3B59289  35.543   3.676   6.892
 4630POPC   C4B59290  35.720   3.528   7.273
 4631POPC   NC359291   6.489  43.385   5.034
 4631POPC   PO459292   6.609  42.848   5.450
 4631POPC   GL159293   6.665  42.989   5.872
 4631POPC   GL259294   6.729  43.318   5.815
 4631POPC   C1A59295   6.912  43.055   6.269
 4631POPC   D2A59296   7.154  43.059   6.688
 4631POPC   C3A59297   6.904  43.202   7.035
 4631POPC   C4A59298   6.604  42.884   7.092
 4631POPC   C1B59299   6.458  43.320   6.211
 4631POPC   C2B59300   6.547  43.187   6.639
 4631POPC   C3B59301   6.396  43.357   7.014
 4631POPC   C4B59302   6.422  43.231   7.445
 4632POPC   NC359303  17.985  37.979   5.646
 4632POPC   PO459304  18.289  38.571   5.458
 4632POPC   GL159305  18.333  38.455   5.842
 4632POPC   GL259306  17.972  38.473   5.912
 4632POPC   C1A59307  18.425  38.606   6.231
 4632POPC   D2A59308  18.410  38.444   6.628
 4632POPC   C3A59309  18.228  38.604   6.986
 4632POPC   C4A59310  18.544  38.454   7.249
 4632POPC   C1B59311  17.762  38.284   6.264
 4632POPC   C2B59312  17.864  38.336   6.697
 4632POPC   C3B59313  18.005  38.096   7.053
 4632POPC   C4B59314  18.110  38.261   7.425
 4633POPC   NC359315  20.992  39.128   5.051
 4633POPC   PO459316  20.570  39.246   5.504
 4633POPC   GL159317  20.705  39.119   5.876
 4633POPC   GL259318  20.385  38.922   5.894
 4633POPC   C1A59319  20.820  38.999   6.275
 4633POPC   D2A59320  20.803  39.248   6.623
 4633POPC   C3A59321  20.748  39.066   7.035
 4633POPC   C4A59322  20.733  39.157   7.493
 4633POPC   C1B59323  20.321  39.165   6.239
 4633POPC   C2B59324  20.280  39.407   6.613
 4633POPC   C3B59325  20.219  39.467   7.049
 4633POPC   C4B59326  20.274  39.094   7.275
 4634POPC   NC359327  12.132   0.901   5.433
 4634POPC   PO459328  11.954   0.289   5.422
 4634POPC   GL159329  11.874   0.437   5.836
 4634POPC   GL259330  11.802   0.797   5.845
 4634POPC   C1A59331  11.794   0.269   6.268
 4634POPC   D2A59332  11.659   0.245   6.715
 4634POPC   C3A59333  11.938   0.333   7.067
 4634POPC   C4A59334  11.920   0.395   7.554
 4634POPC   C1B59335  12.068   0.713   6.214
 4634POPC   C2B59336  12.113   0.625   6.659
 4634POPC   C3B59337  12.076   0.827   7.075
 4634POPC   C4B59338  12.154   0.925   7.510
 4635POPC   NC359339  38.692  21.784   5.423
 4635POPC   PO459340  38.347  22.416   5.269
 4635POPC   GL159341  38.452  22.262   5.710
 4635POPC   GL259342  38.400  21.891   5.844
 4635POPC   C1A59343  38.493  22.322   6.164
 4635POPC   D2A59344  38.660  22.326   6.605
 4635POPC   C3A59345  38.321  22.181   6.877
 4635POPC   C4A59346  38.110  22.364   7.201
 4635POPC   C1B59347  38.762  21.873   6.157
 4635POPC   C2B59348  38.888  21.752   6.588
 4635POPC   C3B59349  38.770  21.957   6.984
 4635POPC   C4B59350  38.440  21.786   7.245
 4636POPC   NC359351  37.821  35.304   5.691
 4636POPC   PO459352  38.438  35.231   5.366
 4636POPC   GL159353  38.314  35.421   5.747
 4636POPC   GL259354  38.231  35.124   5.952
 4636POPC   C1A59355  38.330  35.559   6.196
 4636POPC   D2A59356  38.534  35.522   6.629
 4636POPC   C3A59357  38.251  35.543   7.057
 4636POPC   C4A59358  37.865  35.658   7.354
 4636POPC   C1B59359  38.533  35.040   6.270
 4636POPC   C2B59360  38.743  34.940   6.643
 4636POPC   C3B59361  38.637  35.171   6.989
 4636POPC   C4B59362  38.354  35.063   7.315
 4637POPC   NC359363  41.956  41.857   5.287
 4637POPC   PO459364  42.526  41.343   5.384
 4637POPC   GL159365  42.456  41.420   5.836
 4637POPC   GL259366  42.682  41.170   5.942
 4637POPC   C1A59367  42.196  41.425   6.237
 4637POPC   D2A59368  42.030  41.337   6.682
 4637POPC   C3A59369  42.161  41.589   7.050
 4637POPC   C4A59370  42.479  41.840   7.163
 4637POPC   C1B59371  42.731  41.495   6.266
 4637POPC   C2B59372  42.508  41.597   6.642
 4637POPC   C3B59373  42.579  41.323   6.962
 4637POPC   C4B59374  42.600  41.259   7.360
 4638POPC   NC359375  38.134  32.069   5.508
 4638POPC   PO459376  37.479  31.974   5.321
 4638POPC   GL159377  37.626  32.218   5.730
 4638POPC   GL259378  37.971  32.364   5.891
 4638POPC   C1A59379  37.544  32.414   6.155
 4638POPC   D2A59380  37.789  32.260   6.507
 4638POPC   C3A59381  37.635  32.295   6.920
 4638POPC   C4A59382  37.820  32.434   7.311
 4638POPC   C1B59383  38.035  31.984   6.150
 4638POPC   C2B59384  38.061  31.831   6.566
 4638POPC   C3B59385  38.080  32.017   6.970
 4638POPC   C4B59386  37.763  31.899   7.235
 4639POPC   NC359387   3.798  35.904   5.393
 4639POPC   PO459388   3.168  36.035   5.636
 4639POPC   GL159389   3.493  36.204   5.921
 4639POPC   GL259390   3.852  36.142   5.828
 4639POPC   C1A59391   3.382  36.377   6.339
 4639POPC   D2A59392   3.412  36.448   6.787
 4639POPC   C3A59393   3.386  36.026   6.910
 4639POPC   C4A59394   3.501  35.866   7.295
 4639POPC   C1B59395   3.952  35.929   6.199
 4639POPC   C2B59396   3.762  36.111   6.567
 4639POPC   C3B59397   3.876  36.227   6.975
 4639POPC   C4B59398   4.151  35.943   7.198
 4640POPC   NC359399  23.235  43.318   5.213
 4640POPC   PO459400  22.644  43.204   5.434
 4640POPC   GL159401  22.926  43.067   5.783
 4640POPC   GL259402  23.245  43.247   5.770
 4640POPC   C1A59403  23.004  43.262   6.216
 4640POPC   D2A59404  22.839  43.298   6.608
 4640POPC   C3A59405  23.061  43.239   6.965
 4640POPC   C4A59406  22.969  42.951   7.252
 4640POPC   C1B59407  23.331  42.899   6.108
 4640POPC   C2B59408  23.285  42.983   6.554
 4640POPC   C3B59409  23.382  42.777   6.932
 4640POPC   C4B59410  23.520  42.974   7.281
 4641POPC   NC359411  30.893   3.619   5.365
 4641POPC   PO459412  30.337   3.910   5.645
 4641POPC   GL159413  30.656   3.681   5.878
 4641POPC   GL259414  30.735   3.334   5.767
 4641POPC   C1A59415  30.619   3.739   6.327
 4641POPC   D2A59416  30.338   3.520   6.655
 4641POPC   C3A59417  30.532   3.515   7.066
 4641POPC   C4A59418  30.906   3.773   7.050
 4641POPC   C1B59419  30.800   3.243   6.218
 4641POPC   C2B59420  30.875   3.434   6.632
 4641POPC   C3B59421  31.033   3.302   6.977
 4641POPC   C4B59422  30.866   3.179   7.305
 4642POPC   NC359423   4.685  38.507   5.538
 4642POPC   PO459424   3.954  38.479   5.646
 4642POPC   GL159425   4.178  38.581   6.017
 4642POPC   GL259426   4.537  38.547   6.015
 4642POPC   C1A59427   4.293  38.612   6.456
 4642POPC   D2A59428   4.209  38.466   6.871
 4642POPC   C3A59429   4.230  38.727   7.213
 4642POPC   C4A59430   4.394  38.645   7.618
 4642POPC   C1B59431   4.648  38.143   6.206
 4642POPC   C2B59432   4.733  38.049   6.645
 4642POPC   C3B59433   4.679  38.337   7.027
 4642POPC   C4B59434   4.757  38.729   7.238
 4643POPC   NC359435  15.570  13.941   5.526
 4643POPC   PO459436  14.850  13.735   5.397
 4643POPC   GL159437  15.123  13.660   5.761
 4643POPC   GL259438  14.845  13.571   5.955
 4643POPC   C1A59439  15.296  13.513   6.194
 4643POPC   D2A59440  15.194  13.349   6.630
 4643POPC   C3A59441  15.133  13.608   6.998
 4643POPC   C4A59442  14.837  13.591   7.330
 4643POPC   C1B59443  14.915  14.021   6.124
 4643POPC   C2B59444  14.919  14.273   6.538
 4643POPC   C3B59445  14.898  14.065   6.947
 4643POPC   C4B59446  14.646  14.063   7.308
 4644POPC   NC359447  24.011  17.218   5.475
 4644POPC   PO459448  23.784  17.645   5.147
 4644POPC   GL159449  23.791  17.618   5.671
 4644POPC   GL259450  23.828  17.309   5.946
 4644POPC   C1A59451  23.719  17.776   6.086
 4644POPC   D2A59452  23.848  17.560   6.458
 4644POPC   C3A59453  23.618  17.570   6.816
 4644POPC   C4A59454  23.652  17.278   7.126
 4644POPC   C1B59455  24.044  17.104   6.313
 4644POPC   C2B59456  24.235  17.246   6.671
 4644POPC   C3B59457  24.115  17.495   7.022
 4644POPC   C4B59458  24.076  17.603   7.454
 4645POPC   NC359459  37.185  33.176   5.516
 4645POPC   PO459460  37.789  33.291   5.303
 4645POPC   GL159461  37.698  33.216   5.737
 4645POPC   GL259462  37.933  33.466   5.783
 4645POPC   C1A59463  37.607  32.943   6.129
 4645POPC   D2A59464  37.778  32.760   6.530
 4645POPC   C3A59465  37.691  32.874   6.987
 4645POPC   C4A59466  37.525  33.025   7.392
 4645POPC   C1B59467  37.952  33.315   6.202
 4645POPC   C2B59468  37.873  33.267   6.636
 4645POPC   C3B59469  38.042  33.289   7.047
 4645POPC   C4B59470  37.911  33.315   7.490
 4646POPC   NC359471  16.730  30.300   5.412
 4646POPC   PO459472  16.431  29.680   5.233
 4646POPC   GL159473  16.666  29.823   5.628
 4646POPC   GL259474  16.475  30.065   5.788
 4646POPC   C1A59475  16.876  29.850   6.061
 4646POPC   D2A59476  16.898  30.029   6.509
 4646POPC   C3A59477  16.685  29.808   6.821
 4646POPC   C4A59478  16.818  29.808   7.206
 4646POPC   C1B59479  16.535  30.216   6.199
 4646POPC   C2B59480  16.400  30.226   6.622
 4646POPC   C3B59481  16.533  30.238   7.060
 4646POPC   C4B59482  16.403  30.055   7.437
 4647POPC   NC359483  29.010   0.873   5.337
 4647POPC   PO459484  29.200   0.259   5.190
 4647POPC   GL159485  29.154   0.461   5.618
 4647POPC   GL259486  29.498   0.485   5.739
 4647POPC   C1A59487  28.940   0.538   6.046
 4647POPC   D2A59488  28.993   0.638   6.499
 4647POPC   C3A59489  28.955   0.421   6.891
 4647POPC   C4A59490  28.926   0.632   7.297
 4647POPC   C1B59491  29.426   0.567   6.207
 4647POPC   C2B59492  29.461   0.474   6.669
 4647POPC   C3B59493  29.326   0.817   6.920
 4647POPC   C4B59494  29.313   0.979   7.333
 4648POPC   NC359495  37.447   3.137   5.685
 4648POPC   PO459496  37.829   2.722   5.416
 4648POPC   GL159497  37.644   2.578   5.823
 4648POPC   GL259498  37.301   2.662   5.845
 4648POPC   C1A59499  37.584   2.610   6.308
 4648POPC   D2A59500  37.619   2.500   6.760
 4648POPC   C3A59501  37.556   2.819   7.098
 4648POPC   C4A59502  37.874   3.118   7.188
 4648POPC   C1B59503  37.165   2.367   6.162
 4648POPC   C2B59504  37.100   2.458   6.599
 4648POPC   C3B59505  37.196   2.468   7.044
 4648POPC   C4B59506  37.326   2.479   7.452
 4649POPC   NC359507  28.431   6.076   5.264
 4649POPC   PO459508  28.571   5.452   5.277
 4649POPC   GL159509  28.517   5.728   5.664
 4649POPC   GL259510  28.187   5.904   5.696
 4649POPC   C1A59511  28.569   6.005   6.038
 4649POPC   D2A59512  28.441   5.970   6.481
 4649POPC   C3A59513  28.569   6.065   6.909
 4649POPC   C4A59514  28.405   5.964   7.342
 4649POPC   C1B59515  28.045   5.885   6.128
 4649POPC   C2B59516  27.950   6.085   6.527
 4649POPC   C3B59517  28.054   6.078   6.940
 4649POPC   C4B59518  27.908   5.864   7.267
 4650POPC   NC359519  17.626  24.788   5.460
 4650POPC   PO459520  17.460  24.091   5.497
 4650POPC   GL159521  17.318  24.337   5.853
 4650POPC   GL259522  17.664  24.418   5.872
 4650POPC   C1A59523  17.372  24.321   6.314
 4650POPC   D2A59524  17.747  24.276   6.578
 4650POPC   C3A59525  17.650  24.454   6.972
 4650POPC   C4A59526  17.309  24.450   7.261
 4650POPC   C1B59527  17.550  24.760   6.118
 4650POPC   C2B59528  17.569  24.758   6.537
 4650POPC   C3B59529  17.483  24.950   6.904
 4650POPC   C4B59530  17.550  24.897   7.290
 4651POPC   NC359531  17.812   8.263   5.366
 4651POPC   PO459532  18.425   7.898   5.479
 4651POPC   GL159533  18.167   8.178   5.742
 4651POPC   GL259534  17.891   7.960   5.795
 4651POPC   C1A59535  18.154   8.389   6.162
 4651POPC   D2A59536  18.296   8.202   6.563
 4651POPC   C3A59537  18.159   8.315   6.955
 4651POPC   C4A59538  18.340   8.384   7.285
 4651POPC   C1B59539  17.922   7.949   6.248
 4651POPC   C2B59540  17.916   7.807   6.688
 4651POPC   C3B59541  17.937   7.861   7.146
 4651POPC   C4B59542  17.888   7.697   7.588
 4652POPC   NC359543  38.226  26.105   5.338
 4652POPC   PO459544  38.902  25.759   5.427
 4652POPC   GL159545  38.730  25.976   5.728
 4652POPC   GL259546  38.421  25.898   5.762
 4652POPC   C1A59547  38.743  25.870   6.170
 4652POPC   D2A59548  38.922  26.026   6.545
 4652POPC   C3A59549  38.631  25.991   6.814
 4652POPC   C4A59550  38.571  25.904   7.222
 4652POPC   C1B59551  38.305  26.171   6.091
 4652POPC   C2B59552  38.162  26.130   6.544
 4652POPC   C3B59553  38.242  26.252   6.988
 4652POPC   C4B59554  38.110  26.287   7.399
 4653POPC   NC359555  41.509   0.674   5.274
 4653POPC   PO459556  41.940   0.088   5.257
 4653POPC   GL159557  41.729   0.330   5.625
 4653POPC   GL259558  41.783   0.718   5.709
 4653POPC   C1A59559  41.790   0.346   6.088
 4653POPC   D2A59560  41.567   0.382   6.494
 4653POPC   C3A59561  41.817   0.380   6.842
 4653POPC   C4A59562  41.655   0.255   7.219
 4653POPC   C1B59563  41.623   0.829   6.143
 4653POPC   C2B59564  41.480   0.875   6.584
 4653POPC   C3B59565  41.450   0.690   6.998
 4653POPC   C4B59566  41.519   0.684   7.442
 4654POPC   NC359567   1.473  38.232   5.322
 4654POPC   PO459568   0.996  38.707   5.500
 4654POPC   GL159569   1.256  38.387   5.786
 4654POPC   GL259570   1.143  38.592   6.028
 4654POPC   C1A59571   1.445  38.300   6.268
 4654POPC   D2A59572   1.154  38.452   6.568
 4654POPC   C3A59573   1.253  38.554   6.942
 4654POPC   C4A59574   1.495  38.412   7.264
 4654POPC   C1B59575   0.934  38.854   6.342
 4654POPC   C2B59576   0.739  38.828   6.735
 4654POPC   C3B59577   0.804  38.940   7.165
 4654POPC   C4B59578   1.006  38.624   7.374
 4655POPC   NC359579  31.748  18.555   5.462
 4655POPC   PO459580  31.097  18.307   5.525
 4655POPC   GL159581  31.124  18.473   5.898
 4655POPC   GL259582  31.421  18.625   5.888
 4655POPC   C1A59583  31.232  18.296   6.294
 4655POPC   D2A59584  31.501  18.203   6.636
 4655POPC   C3A59585  31.467  18.376   7.041
 4655POPC   C4A59586  31.423  18.025   7.304
 4655POPC   C1B59587  31.689  18.495   6.209
 4655POPC   C2B59588  31.796  18.629   6.615
 4655POPC   C3B59589  32.001  18.574   6.989
 4655POPC   C4B59590  31.907  18.307   7.319
 4656POPC   NC359591  39.059  38.718   5.504
 4656POPC   PO459592  39.421  38.209   5.578
 4656POPC   GL159593  39.427  38.414   5.930
 4656POPC   GL259594  39.068  38.378   5.925
 4656POPC   C1A59595  39.359  38.232   6.328
 4656POPC   D2A59596  39.076  38.174   6.637
 4656POPC   C3A59597  39.226  38.255   7.031
 4656POPC   C4A59598  39.428  38.630   7.165
 4656POPC   C1B59599  39.085  38.678   6.272
 4656POPC   C2B59600  39.179  38.698   6.717
 4656POPC   C3B59601  38.917  38.696   7.098
 4656POPC   C4B59602  38.817  38.849   7.535
 4657POPC   NC359603  26.895   3.682   5.441
 4657POPC   PO459604  26.558   3.065   5.405
 4657POPC   GL159605  26.692   3.269   5.830
 4657POPC   GL259606  26.901   3.556   5.908
 4657POPC   C1A59607  26.615   3.427   6.304
 4657POPC   D2A59608  26.809   3.426   6.725
 4657POPC   C3A59609  26.568   3.382   7.113
 4657POPC   C4A59610  26.478   3.488   7.535
 4657POPC   C1B59611  27.018   3.857   6.169
 4657POPC   C2B59612  27.162   3.754   6.539
 4657POPC   C3B59613  27.182   3.727   6.953
 4657POPC   C4B59614  26.994   3.579   7.299
 4658POPC   NC359615  37.373  41.361   5.362
 4658POPC   PO459616  37.989  41.656   5.404
 4658POPC   GL159617  37.658  41.611   5.739
 4658POPC   GL259618  37.605  41.266   5.808
 4658POPC   C1A59619  37.539  41.729   6.181
 4658POPC   D2A59620  37.800  41.677   6.573
 4658POPC   C3A59621  37.764  41.839   6.997
 4658POPC   C4A59622  37.360  41.826   7.162
 4658POPC   C1B59623  37.892  41.350   6.152
 4658POPC   C2B59624  37.958  41.172   6.544
 4658POPC   C3B59625  37.767  41.312   6.939
 4658POPC   C4B59626  37.551  41.338   7.343
 4659POPC   NC359627  29.328  17.007   5.275
 4659POPC   PO459628  29.559  16.350   5.263
 4659POPC   GL159629  29.336  16.515   5.678
 4659POPC   GL259630  28.960  16.555   5.741
 4659POPC   C1A59631  29.396  16.629   6.140
 4659POPC   D2A59632  29.256  16.965   6.469
 4659POPC   C3A59633  29.341  16.924   6.912
 4659POPC   C4A59634  29.382  16.557   7.185
 4659POPC   C1B59635  28.888  16.704   6.186
 4659POPC   C2B59636  28.927  16.517   6.594
 4659POPC   C3B59637  28.903  16.654   6.996
 4659POPC   C4B59638  28.889  16.587   7.437
 4660POPC   NC359639  20.369  20.822   5.504
 4660POPC   PO459640  20.735  20.301   5.796
 4660POPC   GL159641  20.655  20.719   5.930
 4660POPC   GL259642  20.333  20.731   6.002
 4660POPC   C1A59643  20.663  20.983   6.303
 4660POPC   D2A59644  20.615  20.962   6.737
 4660POPC   C3A59645  20.697  20.580   6.908
 4660POPC   C4A59646  20.782  20.627   7.332
 4660POPC   C1B59647  20.426  20.475   6.366
 4660POPC   C2B59648  20.083  20.260   6.580
 4660POPC   C3B59649  19.906  20.270   6.990
 4660POPC   C4B59650  20.293  20.431   7.195
 4661POPC   NC359651  14.254  30.079   5.452
 4661POPC   PO459652  14.780  29.991   5.040
 4661POPC   GL159653  14.666  29.781   5.542
 4661POPC   GL259654  14.309  29.659   5.705
 4661POPC   C1A59655  14.586  29.931   6.034
 4661POPC   D2A59656  14.272  30.067   6.369
 4661POPC   C3A59657  14.263  30.008   6.826
 4661POPC   C4A59658  14.296  30.164   7.263
 4661POPC   C1B59659  14.352  29.475   6.110
 4661POPC   C2B59660  14.297  29.574   6.529
 4661POPC   C3B59661  14.294  29.423   6.936
 4661POPC   C4B59662  14.220  29.663   7.307
 4662POPC   NC359663  30.683  25.260   5.356
 4662POPC   PO459664  30.025  25.558   5.428
 4662POPC   GL159665  30.353  25.415   5.751
 4662POPC   GL259666  30.494  25.074   5.830
 4662POPC   C1A59667  30.618  25.486   6.133
 4662POPC   D2A59668  30.471  25.509   6.568
 4662POPC   C3A59669  30.679  25.365   6.932
 4662POPC   C4A59670  30.562  25.606   7.291
 4662POPC   C1B59671  30.814  25.027   6.181
 4662POPC   C2B59672  31.032  25.237   6.530
 4662POPC   C3B59673  31.171  25.062   6.924
 4662POPC   C4B59674  30.851  24.934   7.194
 4663POPC   NC359675  34.118  34.588   5.495
 4663POPC   PO459676  33.553  34.270   5.475
 4663POPC   GL159677  33.767  34.413   5.840
 4663POPC   GL259678  33.827  34.795   5.874
 4663POPC   C1A59679  33.921  34.443   6.238
 4663POPC   D2A59680  33.927  34.307   6.649
 4663POPC   C3A59681  33.631  34.448   6.977
 4663POPC   C4A59682  33.640  34.345   7.401
 4663POPC   C1B59683  34.065  34.950   6.238
 4663POPC   C2B59684  34.216  34.721   6.606
 4663POPC   C3B59685  33.981  34.804   6.972
 4663POPC   C4B59686  33.919  35.177   7.173
 4664POPC   NC359687  44.382  41.227   5.523
 4664POPC   PO459688  44.575  40.546   5.464
 4664POPC   GL159689  44.628  40.811   5.791
 4664POPC   GL259690  44.940  40.644   5.853
 4664POPC   C1A59691  44.538  40.985   6.202
 4664POPC   D2A59692  44.597  41.081   6.631
 4664POPC   C3A59693  44.582  40.762   6.947
 4664POPC   C4A59694  44.617  40.877   7.338
 4664POPC   C1B59695   0.073  40.953   6.148
 4664POPC   C2B59696   0.095  41.030   6.566
 4664POPC   C3B59697   0.009  41.035   6.984
 4664POPC   C4B59698   0.042  40.666   7.200
 4665POPC   NC359699   2.735  44.554   5.593
 4665POPC   PO459700   2.900  43.937   5.227
 4665POPC   GL159701   2.855  43.809   5.693
 4665POPC   GL259702   2.971  44.130   5.818
 4665POPC   C1A59703   2.766  43.754   6.163
 4665POPC   D2A59704   3.011  43.857   6.538
 4665POPC   C3A59705   2.847  43.857   6.970
 4665POPC   C4A59706   3.180  43.833   7.289
 4665POPC   C1B59707   2.838  44.290   6.233
 4665POPC   C2B59708   2.596  44.190   6.598
 4665POPC   C3B59709   2.519  44.290   7.024
 4665POPC   C4B59710   2.515  44.103   7.420
 4666POPC   NC359711  26.355  44.406   5.237
 4666POPC   PO459712  25.965  43.871   5.444
 4666POPC   GL159713  25.912  43.739   5.853
 4666POPC   GL259714  25.563  43.585   5.796
 4666POPC   C1A59715  26.069  43.859   6.268
 4666POPC   D2A59716  25.931  43.985   6.681
 4666POPC   C3A59717  26.207  44.091   7.030
 4666POPC   C4A59718  26.046  44.038   7.451
 4666POPC   C1B59719  25.580  43.646   6.218
 4666POPC   C2B59720  25.670  43.524   6.600
 4666POPC   C3B59721  25.542  43.739   6.939
 4666POPC   C4B59722  25.626  43.765   7.335
 4667POPC   NC359723  15.660  20.057   5.443
 4667POPC   PO459724  15.941  19.420   5.532
 4667POPC   GL159725  16.051  19.827   5.724
 4667POPC   GL259726  15.739  19.803   5.909
 4667POPC   C1A59727  16.144  20.028   6.137
 4667POPC   D2A59728  15.910  19.994   6.508
 4667POPC   C3A59729  16.096  19.972   6.878
 4667POPC   C4A59730  16.198  20.055   7.246
 4667POPC   C1B59731  15.977  19.560   6.243
 4667POPC   C2B59732  16.011  19.488   6.708
 4667POPC   C3B59733  15.795  19.610   7.101
 4667POPC   C4B59734  15.549  19.426   7.452
 4668POPC   NC359735  33.559   1.411   5.396
 4668POPC   PO459736  33.949   0.850   5.437
 4668POPC   GL159737  33.751   1.098   5.827
 4668POPC   GL259738  33.676   1.485   5.886
 4668POPC   C1A59739  33.803   1.225   6.301
 4668POPC   D2A59740  33.810   1.307   6.760
 4668POPC   C3A59741  33.588   1.061   7.081
 4668POPC   C4A59742  33.886   1.258   7.358
 4668POPC   C1B59743  33.585   1.703   6.286
 4668POPC   C2B59744  33.427   1.647   6.720
 4668POPC   C3B59745  33.551   1.573   7.149
 4668POPC   C4B59746  33.595   1.517   7.682
 4669POPC   NC359747  29.614   0.086   5.352
 4669POPC   PO459748  30.103   0.525   5.527
 4669POPC   GL159749  30.103   0.311   5.898
 4669POPC   GL259750  29.906   0.542   6.063
 4669POPC   C1A59751  30.235   0.250   6.334
 4669POPC   D2A59752  29.984   0.503   6.595
 4669POPC   C3A59753  29.867   0.519   7.001
 4669POPC   C4A59754  29.801   0.838   7.295
 4669POPC   C1B59755  29.722   0.173   6.308
 4669POPC   C2B59756  29.757  44.975   6.696
 4669POPC   C3B59757  29.581   0.086   7.087
 4669POPC   C4B59758  29.422   0.456   7.260
 4670POPC   NC359759  31.142  43.511   5.473
 4670POPC   PO459760  31.421  44.098   5.431
 4670POPC   GL159761  31.472  43.824   5.810
 4670POPC   GL259762  31.797  43.669   5.929
 4670POPC   C1A59763  31.382  43.880   6.273
 4670POPC   D2A59764  31.239  43.732   6.703
 4670POPC   C3A59765  31.159  44.029   7.045
 4670POPC   C4A59766  31.299  44.024   7.488
 4670POPC   C1B59767  31.893  43.843   6.363
 4670POPC   C2B59768  31.747  43.945   6.806
 4670POPC   C3B59769  31.571  43.707   7.171
 4670POPC   C4B59770  31.647  43.678   7.633
 4671POPC   NC359771  18.995  14.032   5.436
 4671POPC   PO459772  19.096  14.699   5.421
 4671POPC   GL159773  18.981  14.445   5.792
 4671POPC   GL259774  18.626  14.593   5.838
 4671POPC   C1A59775  19.207  14.283   6.220
 4671POPC   D2A59776  19.437  14.295   6.676
 4671POPC   C3A59777  19.212  14.204   7.117
 4671POPC   C4A59778  19.156  14.020   7.552
 4671POPC   C1B59779  18.842  14.658   6.225
 4671POPC   C2B59780  19.010  14.578   6.602
 4671POPC   C3B59781  18.862  14.552   6.992
 4671POPC   C4B59782  19.165  14.730   7.229
 4672POPC   NC359783  39.297   3.754   5.382
 4672POPC   PO459784  38.755   3.328   5.461
 4672POPC   GL159785  39.036   3.477   5.781
 4672POPC   GL259786  38.973   3.823   5.856
 4672POPC   C1A59787  39.332   3.389   6.141
 4672POPC   D2A59788  39.598   3.504   6.504
 4672POPC   C3A59789  39.400   3.459   6.906
 4672POPC   C4A59790  39.463   3.362   7.316
 4672POPC   C1B59791  38.936   3.704   6.298
 4672POPC   C2B59792  39.013   3.770   6.757
 4672POPC   C3B59793  39.071   3.769   7.225
 4672POPC   C4B59794  38.923   3.912   7.671
 4673POPC   NC359795  12.129  44.878   5.205
 4673POPC   PO459796  12.835  44.933   5.110
 4673POPC   GL159797  12.866  44.825   5.619
 4673POPC   GL259798  12.570  44.920   5.820
 4673POPC   C1A59799  12.999  44.571   6.020
 4673POPC   D2A59800  12.785  44.469   6.442
 4673POPC   C3A59801  12.956  44.312   6.850
 4673POPC   C4A59802  13.020  44.459   7.310
 4673POPC   C1B59803  12.761  44.969   6.253
 4673POPC   C2B59804  12.775  44.918   6.722
 4673POPC   C3B59805  12.866  44.933   7.149
 4673POPC   C4B59806  13.279  44.918   7.360
 4674POPC   NC359807   2.002  16.553   5.413
 4674POPC   PO459808   1.413  16.797   5.140
 4674POPC   GL159809   1.677  16.887   5.609
 4674POPC   GL259810   2.012  16.775   5.847
 4674POPC   C1A59811   1.594  16.905   6.099
 4674POPC   D2A59812   1.580  16.703   6.521
 4674POPC   C3A59813   1.752  16.937   6.851
 4674POPC   C4A59814   1.729  16.910   7.278
 4674POPC   C1B59815   2.264  16.579   6.192
 4674POPC   C2B59816   2.094  16.551   6.632
 4674POPC   C3B59817   2.141  16.665   7.065
 4674POPC   C4B59818   2.215  16.810   7.477
 4675POPC   NC359819   8.578  36.640   5.239
 4675POPC   PO459820   8.898  37.238   5.437
 4675POPC   GL159821   8.947  36.899   5.707
 4675POPC   GL259822   8.661  36.683   5.768
 4675POPC   C1A59823   9.017  36.908   6.149
 4675POPC   D2A59824   8.813  37.195   6.475
 4675POPC   C3A59825   8.935  37.108   6.889
 4675POPC   C4A59826   9.157  36.777   6.957
 4675POPC   C1B59827   8.551  36.716   6.218
 4675POPC   C2B59828   8.816  36.698   6.594
 4675POPC   C3B59829   8.662  36.671   7.046
 4675POPC   C4B59830   8.613  36.445   7.447
 4676POPC   NC359831  18.562  35.418   5.477
 4676POPC   PO459832  18.079  34.978   5.627
 4676POPC   GL159833  18.339  35.246   5.935
 4676POPC   GL259834  18.400  35.621   5.930
 4676POPC   C1A59835  18.625  35.224   6.294
 4676POPC   D2A59836  18.615  35.078   6.701
 4676POPC   C3A59837  18.580  35.287   7.082
 4676POPC   C4A59838  18.780  35.035   7.384
 4676POPC   C1B59839  18.361  35.657   6.367
 4676POPC   C2B59840  18.193  35.385   6.683
 4676POPC   C3B59841  18.065  35.292   7.100
 4676POPC   C4B59842  18.284  35.470   7.490
 4677POPC   NC359843  33.963   9.352   5.467
 4677POPC   PO459844  33.613   9.992   5.322
 4677POPC   GL159845  33.902   9.873   5.651
 4677POPC   GL259846  33.722  10.098   5.834
 4677POPC   C1A59847  33.974   9.690   6.069
 4677POPC   D2A59848  34.003   9.633   6.513
 4677POPC   C3A59849  33.759   9.645   6.865
 4677POPC   C4A59850  33.903   9.784   7.256
 4677POPC   C1B59851  33.585   9.998   6.242
 4677POPC   C2B59852  33.736  10.122   6.629
 4677POPC   C3B59853  33.533  10.094   7.008
 4677POPC   C4B59854  33.462   9.935   7.414
 4678POPC   NC359855  19.374   6.326   5.376
 4678POPC   PO459856  19.247   5.640   5.413
 4678POPC   GL159857  19.059   5.719   5.796
 4678POPC   GL259858  18.863   6.012   5.737
 4678POPC   C1A59859  18.873   5.754   6.179
 4678POPC   D2A59860  18.805   5.974   6.555
 4678POPC   C3A59861  18.954   5.764   6.932
 4678POPC   C4A59862  18.873   5.869   7.372
 4678POPC   C1B59863  18.960   6.257   6.134
 4678POPC   C2B59864  19.305   6.287   6.454
 4678POPC   C3B59865  19.365   6.422   6.877
 4678POPC   C4B59866  19.437   6.326   7.294
 4679POPC   NC359867   6.085  42.202   5.560
 4679POPC   PO459868   5.671  42.602   5.205
 4679POPC   GL159869   5.685  42.570   5.694
 4679POPC   GL259870   5.516  42.291   5.874
 4679POPC   C1A59871   5.920  42.523   6.115
 4679POPC   D2A59872   5.933  42.326   6.529
 4679POPC   C3A59873   5.647  42.437   6.908
 4679POPC   C4A59874   5.772  42.682   7.294
 4679POPC   C1B59875   5.823  41.996   6.126
 4679POPC   C2B59876   5.852  41.796   6.539
 4679POPC   C3B59877   5.978  42.022   6.928
 4679POPC   C4B59878   5.804  42.175   7.328
 4680POPC   NC359879  38.543   9.180   5.431
 4680POPC   PO459880  38.656   8.541   5.491
 4680POPC   GL159881  38.598   8.870   5.868
 4680POPC   GL259882  38.298   9.121   5.886
 4680POPC   C1A59883  38.656   8.873   6.370
 4680POPC   D2A59884  38.573   8.756   6.846
 4680POPC   C3A59885  38.385   9.003   7.213
 4680POPC   C4A59886  38.530   9.094   7.683
 4680POPC   C1B59887  38.374   9.384   6.269
 4680POPC   C2B59888  38.329   9.424   6.737
 4680POPC   C3B59889  38.127   9.505   7.130
 4680POPC   C4B59890  38.066   9.272   7.523
 4681POPC   NC359891  23.377  29.165   5.527
 4681POPC   PO459892  23.995  29.431   5.291
 4681POPC   GL159893  23.773  29.404   5.761
 4681POPC   GL259894  23.719  29.045   5.868
 4681POPC   C1A59895  23.682  29.366   6.252
 4681POPC   D2A59896  23.995  29.346   6.611
 4681POPC   C3A59897  23.845  29.305   7.048
 4681POPC   C4A59898  23.722  29.317   7.489
 4681POPC   C1B59899  23.578  28.837   6.261
 4681POPC   C2B59900  23.698  28.927   6.667
 4681POPC   C3B59901  23.767  28.797   7.068
 4681POPC   C4B59902  23.574  28.825   7.446
 4682POPC   NC359903   3.659  16.269   5.471
 4682POPC   PO459904   3.197  15.668   5.445
 4682POPC   GL159905   3.456  15.853   5.788
 4682POPC   GL259906   3.347  16.218   5.879
 4682POPC   C1A59907   3.281  15.818   6.216
 4682POPC   D2A59908   3.170  15.614   6.609
 4682POPC   C3A59909   3.371  15.825   6.980
 4682POPC   C4A59910   3.803  15.744   7.166
 4682POPC   C1B59911   3.646  16.190   6.248
 4682POPC   C2B59912   3.740  16.069   6.707
 4682POPC   C3B59913   3.829  16.275   7.140
 4682POPC   C4B59914   3.755  16.482   7.598
 4683POPC   NC359915  10.773  43.646   5.567
 4683POPC   PO459916  10.196  43.963   5.318
 4683POPC   GL159917  10.194  44.012   5.791
 4683POPC   GL259918  10.572  44.012   5.869
 4683POPC   C1A59919  10.237  43.907   6.252
 4683POPC   D2A59920  10.083  43.775   6.659
 4683POPC   C3A59921  10.268  43.779   7.092
 4683POPC   C4A59922  10.283  44.135   7.375
 4683POPC   C1B59923  10.732  44.074   6.283
 4683POPC   C2B59924  10.628  44.260   6.682
 4683POPC   C3B59925  10.710  44.155   7.131
 4683POPC   C4B59926  10.745  43.981   7.599
 4684POPC   NC359927  10.582  29.547   5.385
 4684POPC   PO459928  10.286  28.878   5.346
 4684POPC   GL159929  10.539  29.103   5.666
 4684POPC   GL259930  10.292  29.299   5.710
 4684POPC   C1A59931  10.722  29.289   6.079
 4684POPC   D2A59932  10.637  29.156   6.514
 4684POPC   C3A59933  10.703  29.320   6.933
 4684POPC   C4A59934  10.689  28.950   7.190
 4684POPC   C1B59935  10.227  29.289   6.146
 4684POPC   C2B59936  10.130  29.213   6.555
 4684POPC   C3B59937  10.268  29.063   6.901
 4684POPC   C4B59938  10.232  29.143   7.309
 4685POPC   NC359939  44.901  41.857   5.320
 4685POPC   PO459940  44.845  41.235   5.597
 4685POPC   GL159941  44.659  41.404   5.913
 4685POPC   GL259942  44.618  41.758   5.797
 4685POPC   C1A59943  44.835  41.432   6.315
 4685POPC   D2A59944   0.071  41.529   6.692
 4685POPC   C3A59945  44.729  41.499   6.934
 4685POPC   C4A59946  44.763  41.345   7.308
 4685POPC   C1B59947  44.396  41.728   6.182
 4685POPC   C2B59948  44.350  41.533   6.542
 4685POPC   C3B59949  44.266  41.744   6.869
 4685POPC   C4B59950  44.335  41.648   7.257
 4686POPC   NC359951  21.654   1.568   5.451
 4686POPC   PO459952  21.592   0.931   5.546
 4686POPC   GL159953  21.482   1.247   5.833
 4686POPC   GL259954  21.205   1.463   5.739
 4686POPC   C1A59955  21.539   1.139   6.248
 4686POPC   D2A59956  21.703   1.301   6.613
 4686POPC   C3A59957  21.794   1.008   6.900
 4686POPC   C4A59958  21.622   1.094   7.284
 4686POPC   C1B59959  21.060   1.333   6.189
 4686POPC   C2B59960  21.177   1.156   6.631
 4686POPC   C3B59961  21.117   1.127   7.102
 4686POPC   C4B59962  21.103   1.411   7.474
 4687POPC   NC359963  39.461  35.384   5.450
 4687POPC   PO459964  40.157  35.408   5.411
 4687POPC   GL159965  40.098  35.448   5.838
 4687POPC   GL259966  39.795  35.248   5.813
 4687POPC   C1A59967  40.180  35.462   6.298
 4687POPC   D2A59968  40.153  35.232   6.697
 4687POPC   C3A59969  40.309  35.351   7.119
 4687POPC   C4A59970  40.269  35.369   7.589
 4687POPC   C1B59971  39.772  35.124   6.229
 4687POPC   C2B59972  39.597  35.281   6.602
 4687POPC   C3B59973  39.742  35.370   6.987
 4687POPC   C4B59974  39.825  35.219   7.358
 4688POPC   NC359975  16.563   2.024   5.184
 4688POPC   PO459976  17.169   2.313   5.318
 4688POPC   GL159977  16.955   2.126   5.750
 4688POPC   GL259978  16.640   2.049   5.982
 4688POPC   C1A59979  17.033   1.929   6.209
 4688POPC   D2A59980  16.762   2.035   6.573
 4688POPC   C3A59981  16.852   1.958   7.002
 4688POPC   C4A59982  16.921   2.133   7.421
 4688POPC   C1B59983  16.380   2.246   6.278
 4688POPC   C2B59984  16.255   2.083   6.676
 4688POPC   C3B59985  16.377   1.764   6.929
 4688POPC   C4B59986  16.410   1.917   7.312
 4689POPC   NC359987  30.149   8.540   5.619
 4689POPC   PO459988  29.720   8.127   5.351
 4689POPC   GL159989  29.860   8.128   5.778
 4689POPC   GL259990  29.640   8.435   5.820
 4689POPC   C1A59991  30.034   8.169   6.225
 4689POPC   D2A59992  29.762   8.210   6.624
 4689POPC   C3A59993  29.910   8.122   7.043
 4689POPC   C4A59994  30.192   8.366   7.301
 4689POPC   C1B59995  29.743   8.572   6.228
 4689POPC   C2B59996  30.068   8.616   6.530
 4689POPC   C3B59997  29.943   8.637   6.947
 4689POPC   C4B59998  29.633   8.510   7.259
 4690POPC   NC359999   4.321   3.778   5.256
 4690POPC   PO460000   4.064   3.394   5.644
 4690POPC   GL160001   4.402   3.647   5.764
 4690POPC   GL260002   4.467   4.023   5.709
 4690POPC   C1A60003   4.492   3.516   6.174
 4690POPC   D2A60004   4.455   3.205   6.508
 4690POPC   C3A60005   4.350   3.371   6.899
 4690POPC   C4A60006   4.046   3.443   7.167
 4690POPC   C1B60007   4.257   3.976   6.134
 4690POPC   C2B60008   4.274   3.769   6.563
 4690POPC   C3B60009   4.251   3.884   6.985
 4690POPC   C4B60010   4.526   3.746   7.281
 4691POPC   NC360011  20.285   1.342   5.554
 4691POPC   PO460012  20.778   0.894   5.397
 4691POPC   GL160013  20.761   1.162   5.785
 4691POPC   GL260014  20.693   1.544   5.801
 4691POPC   C1A60015  20.593   1.066   6.211
 4691POPC   D2A60016  20.569   0.819   6.614
 4691POPC   C3A60017  20.448   1.100   6.946
 4691POPC   C4A60018  20.629   1.266   7.295
 4691POPC   C1B60019  20.597   1.589   6.245
 4691POPC   C2B60020  20.740   1.426   6.647
 4691POPC   C3B60021  20.918   1.601   7.020
 4691POPC   C4B60022  20.725   1.760   7.360
 4692POPC   NC360023  23.308  43.762   5.671
 4692POPC   PO460024  22.684  43.807   5.419
 4692POPC   GL160025  22.802  43.889   5.827
 4692POPC   GL260026  22.811  43.550   5.851
 4692POPC   C1A60027  23.037  43.777   6.243
 4692POPC   D2A60028  23.234  43.583   6.586
 4692POPC   C3A60029  23.036  43.758   6.942
 4692POPC   C4A60030  23.070  43.931   7.343
 4692POPC   C1B60031  22.559  43.569   6.232
 4692POPC   C2B60032  22.578  43.726   6.616
 4692POPC   C3B60033  22.563  43.586   7.018
 4692POPC   C4B60034  22.576  43.881   7.343
 4693POPC   NC360035  13.121  41.068   5.394
 4693POPC   PO460036  12.728  40.459   5.384
 4693POPC   GL160037  12.653  40.684   5.776
 4693POPC   GL260038  12.966  40.828   5.821
 4693POPC   C1A60039  12.637  40.600   6.232
 4693POPC   D2A60040  12.544  40.374   6.611
 4693POPC   C3A60041  12.703  40.588   6.933
 4693POPC   C4A60042  12.683  40.894   7.196
 4693POPC   C1B60043  13.104  41.016   6.192
 4693POPC   C2B60044  12.952  41.036   6.589
 4693POPC   C3B60045  13.133  40.878   6.934
 4693POPC   C4B60046  13.104  40.645   7.314
 4694POPC   NC360047   8.245  34.062   5.499
 4694POPC   PO460048   8.658  33.526   5.312
 4694POPC   GL160049   8.327  33.566   5.726
 4694POPC   GL260050   7.998  33.709   5.796
 4694POPC   C1A60051   8.290  33.730   6.201
 4694POPC   D2A60052   8.484  33.558   6.533
 4694POPC   C3A60053   8.563  33.833   6.852
 4694POPC   C4A60054   8.215  33.796   7.125
 4694POPC   C1B60055   8.048  33.310   6.066
 4694POPC   C2B60056   8.032  33.219   6.500
 4694POPC   C3B60057   8.187  33.326   6.898
 4694POPC   C4B60058   7.949  33.357   7.247
 4695POPC   NC360059  28.360  42.210   5.490
 4695POPC   PO460060  27.794  42.715   5.418
 4695POPC   GL160061  27.930  42.452   5.782
 4695POPC   GL260062  28.255  42.545   5.936
 4695POPC   C1A60063  28.038  42.151   6.147
 4695POPC   D2A60064  28.288  42.156   6.545
 4695POPC   C3A60065  28.154  42.082   6.942
 4695POPC   C4A60066  28.330  41.768   7.164
 4695POPC   C1B60067  28.457  42.595   6.367
 4695POPC   C2B60068  28.360  42.580   6.850
 4695POPC   C3B60069  28.455  42.623   7.322
 4695POPC   C4B60070  28.798  42.415   7.540
 4696POPC   NC360071  32.074  41.633   5.565
 4696POPC   PO460072  32.542  41.263   5.426
 4696POPC   GL160073  32.394  41.317   5.852
 4696POPC   GL260074  32.567  41.624   5.905
 4696POPC   C1A60075  32.193  41.533   6.247
 4696POPC   D2A60076  32.332  41.791   6.642
 4696POPC   C3A60077  32.282  41.585   7.047
 4696POPC   C4A60078  32.026  41.266   7.166
 4696POPC   C1B60079  32.708  41.893   6.263
 4696POPC   C2B60080  32.829  41.980   6.699
 4696POPC   C3B60081  32.706  41.857   7.126
 4696POPC   C4B60082  32.379  41.945   7.458
 4697POPC   NC360083  14.712  10.063   5.711
 4697POPC   PO460084  15.173   9.662   5.497
 4697POPC   GL160085  15.332   9.783   5.887
 4697POPC   GL260086  15.234  10.106   5.901
 4697POPC   C1A60087  15.449   9.649   6.298
 4697POPC   D2A60088  15.250   9.785   6.677
 4697POPC   C3A60089  15.367   9.619   7.035
 4697POPC   C4A60090  15.153   9.664   7.442
 4697POPC   C1B60091  14.999   9.928   6.263
 4697POPC   C2B60092  14.803  10.078   6.643
 4697POPC   C3B60093  14.929   9.955   7.066
 4697POPC   C4B60094  14.846  10.051   7.504
 4698POPC   NC360095  36.081  44.847   5.564
 4698POPC   PO460096  36.001  44.281   5.361
 4698POPC   GL160097  36.164  44.418   5.862
 4698POPC   GL260098  36.255  44.778   6.019
 4698POPC   C1A60099  36.192  44.406   6.341
 4698POPC   D2A60100  36.325  44.713   6.669
 4698POPC   C3A60101  36.377  44.461   7.047
 4698POPC   C4A60102  36.000  44.205   7.084
 4698POPC   C1B60103  35.933  44.860   6.319
 4698POPC   C2B60104  35.802  44.770   6.751
 4698POPC   C3B60105  36.071  44.859   7.140
 4698POPC   C4B60106  36.235  44.977   7.570
 4699POPC   NC360107  15.786  25.265   5.370
 4699POPC   PO460108  16.399  25.499   5.448
 4699POPC   GL160109  16.071  25.469   5.769
 4699POPC   GL260110  15.977  25.133   5.818
 4699POPC   C1A60111  16.145  25.391   6.222
 4699POPC   D2A60112  15.958  25.430   6.612
 4699POPC   C3A60113  16.138  25.309   6.989
 4699POPC   C4A60114  16.043  25.433   7.389
 4699POPC   C1B60115  15.818  24.943   6.199
 4699POPC   C2B60116  15.643  24.924   6.630
 4699POPC   C3B60117  15.786  24.935   7.060
 4699POPC   C4B60118  16.144  24.918   7.360
 4700POPC   NC360119  16.567   7.497   5.562
 4700POPC   PO460120  17.095   7.288   5.653
 4700POPC   GL160121  16.932   7.467   5.964
 4700POPC   GL260122  16.937   7.792   5.857
 4700POPC   C1A60123  16.589   7.445   6.255
 4700POPC   D2A60124  16.406   7.389   6.667
 4700POPC   C3A60125  16.647   7.238   7.020
 4700POPC   C4A60126  16.462   7.334   7.413
 4700POPC   C1B60127  16.942   7.835   6.324
 4700POPC   C2B60128  16.967   7.846   6.768
 4700POPC   C3B60129  17.003   7.866   7.229
 4700POPC   C4B60130  17.078   8.044   7.636
 4701POPC   NC360131   5.340   7.072   5.346
 4701POPC   PO460132   5.042   6.460   5.440
 4701POPC   GL160133   5.241   6.634   5.809
 4701POPC   GL260134   5.506   6.898   5.808
 4701POPC   C1A60135   4.994   6.670   6.179
 4701POPC   D2A60136   4.724   6.575   6.507
 4701POPC   C3A60137   4.828   6.752   6.876
 4701POPC   C4A60138   4.972   6.431   7.200
 4701POPC   C1B60139   5.481   6.782   6.250
 4701POPC   C2B60140   5.278   6.720   6.620
 4701POPC   C3B60141   5.317   6.773   7.043
 4701POPC   C4B60142   5.040   6.956   7.290
 4702POPC   NC360143   8.005  35.838   5.410
 4702POPC   PO460144   8.438  36.294   5.509
 4702POPC   GL160145   8.160  36.092   5.807
 4702POPC   GL260146   8.408  35.873   5.901
 4702POPC   C1A60147   7.964  35.913   6.176
 4702POPC   D2A60148   8.216  35.926   6.556
 4702POPC   C3A60149   8.047  35.859   6.937
 4702POPC   C4A60150   7.953  35.713   7.334
 4702POPC   C1B60151   8.477  36.199   6.197
 4702POPC   C2B60152   8.469  36.355   6.617
 4702POPC   C3B60153   8.419  36.215   7.017
 4702POPC   C4B60154   8.388  35.972   7.353
 4703POPC   NC360155  15.745   6.967   5.443
 4703POPC   PO460156  16.171   6.456   5.234
 4703POPC   GL160157  16.088   6.629   5.677
 4703POPC   GL260158  15.758   6.669   5.863
 4703POPC   C1A60159  16.199   6.670   6.135
 4703POPC   D2A60160  16.268   6.400   6.504
 4703POPC   C3A60161  16.218   6.612   6.882
 4703POPC   C4A60162  15.952   6.663   7.228
 4703POPC   C1B60163  15.772   6.385   6.241
 4703POPC   C2B60164  15.747   6.441   6.703
 4703POPC   C3B60165  15.475   6.646   7.012
 4703POPC   C4B60166  15.541   6.977   7.319
 4704POPC   NC360167  13.352  29.809   5.113
 4704POPC   PO460168  13.800  30.173   5.524
 4704POPC   GL160169  13.709  29.894   5.866
 4704POPC   GL260170  13.479  30.112   6.071
 4704POPC   C1A60171  13.827  29.848   6.311
 4704POPC   D2A60172  13.559  29.859   6.662
 4704POPC   C3A60173  13.810  29.882   7.036
 4704POPC   C4A60174  13.699  29.822   7.466
 4704POPC   C1B60175  13.182  30.208   6.356
 4704POPC   C2B60176  13.240  30.244   6.798
 4704POPC   C3B60177  13.440  30.200   7.151
 4704POPC   C4B60178  13.332  30.233   7.619
 4705POPC   NC360179  30.716  34.611   5.471
 4705POPC   PO460180  30.267  34.084   5.670
 4705POPC   GL160181  30.419  34.350   5.971
 4705POPC   GL260182  30.739  34.464   5.953
 4705POPC   C1A60183  30.413  34.713   6.238
 4705POPC   D2A60184  30.561  34.910   6.580
 4705POPC   C3A60185  30.516  34.687   6.971
 4705POPC   C4A60186  30.829  34.688   7.301
 4705POPC   C1B60187  30.801  34.368   6.382
 4705POPC   C2B60188  30.936  34.413   6.828
 4705POPC   C3B60189  30.883  34.180   7.220
 4705POPC   C4B60190  30.540  34.003   7.478
 4706POPC   NC360191  36.330  26.108   5.275
 4706POPC   PO460192  36.993  26.042   5.246
 4706POPC   GL160193  36.991  26.108   5.693
 4706POPC   GL260194  36.699  25.930   5.732
 4706POPC   C1A60195  37.111  25.907   6.119
 4706POPC   D2A60196  37.125  26.018   6.579
 4706POPC   C3A60197  37.066  25.673   6.908
 4706POPC   C4A60198  37.026  25.663   7.354
 4706POPC   C1B60199  36.570  25.865   6.155
 4706POPC   C2B60200  36.700  25.742   6.562
 4706POPC   C3B60201  36.570  25.823   7.023
 4706POPC   C4B60202  36.472  25.903   7.501
 4707POPC   NC360203  15.001  15.836   5.654
 4707POPC   PO460204  14.444  15.866   5.233
 4707POPC   GL160205  14.432  15.762   5.676
 4707POPC   GL260206  14.384  16.125   5.793
 4707POPC   C1A60207  14.392  15.726   6.119
 4707POPC   D2A60208  14.499  15.914   6.518
 4707POPC   C3A60209  14.427  15.712   6.937
 4707POPC   C4A60210  14.399  15.983   7.290
 4707POPC   C1B60211  14.709  16.173   6.115
 4707POPC   C2B60212  14.976  16.207   6.474
 4707POPC   C3B60213  14.776  16.197   6.867
 4707POPC   C4B60214  14.886  16.116   7.269
 4708POPC   NC360215  14.180  39.818   5.444
 4708POPC   PO460216  13.476  40.037   5.433
 4708POPC   GL160217  13.698  39.818   5.792
 4708POPC   GL260218  13.928  40.096   5.802
 4708POPC   C1A60219  13.421  39.696   6.182
 4708POPC   D2A60220  13.234  39.996   6.512
 4708POPC   C3A60221  13.166  39.777   6.910
 4708POPC   C4A60222  13.431  39.709   7.273
 4708POPC   C1B60223  13.585  40.168   6.132
 4708POPC   C2B60224  13.760  39.972   6.478
 4708POPC   C3B60225  13.712  39.966   6.914
 4708POPC   C4B60226  13.891  40.247   7.172
 4709POPC   NC360227  25.919   8.115   5.631
 4709POPC   PO460228  26.444   8.574   5.424
 4709POPC   GL160229  26.332   8.429   5.811
 4709POPC   GL260230  26.008   8.570   5.869
 4709POPC   C1A60231  26.217   8.296   6.246
 4709POPC   D2A60232  25.858   8.081   6.462
 4709POPC   C3A60233  25.748   8.099   6.904
 4709POPC   C4A60234  26.004   8.120   7.278
 4709POPC   C1B60235  25.715   8.608   6.200
 4709POPC   C2B60236  25.522   8.546   6.633
 4709POPC   C3B60237  25.731   8.607   7.039
 4709POPC   C4B60238  25.793   8.564   7.491
 4710POPC   NC360239  19.723  15.637   5.576
 4710POPC   PO460240  19.967  15.004   5.587
 4710POPC   GL160241  19.939  15.283   5.864
 4710POPC   GL260242  19.575  15.222   5.930
 4710POPC   C1A60243  19.903  15.403   6.267
 4710POPC   D2A60244  19.677  15.227   6.612
 4710POPC   C3A60245  19.824  15.393   7.001
 4710POPC   C4A60246  19.811  15.334   7.447
 4710POPC   C1B60247  19.772  14.901   6.197
 4710POPC   C2B60248  19.752  14.715   6.600
 4710POPC   C3B60249  19.733  14.882   7.001
 4710POPC   C4B60250  19.985  14.864   7.357
 4711POPC   NC360251  25.548   0.795   5.341
 4711POPC   PO460252  24.959   1.135   5.385
 4711POPC   GL160253  25.184   1.171   5.778
 4711POPC   GL260254  25.538   1.076   5.773
 4711POPC   C1A60255  25.316   1.383   6.149
 4711POPC   D2A60256  25.154   1.219   6.519
 4711POPC   C3A60257  25.148   1.391   6.900
 4711POPC   C4A60258  24.900   1.255   7.244
 4711POPC   C1B60259  25.739   1.104   6.189
 4711POPC   C2B60260  25.694   1.332   6.559
 4711POPC   C3B60261  25.616   1.183   6.962
 4711POPC   C4B60262  25.435   1.355   7.339
 4712POPC   NC360263   3.169   7.445   5.402
 4712POPC   PO460264   3.928   7.487   5.398
 4712POPC   GL160265   3.577   7.284   5.717
 4712POPC   GL260266   3.412   7.580   5.823
 4712POPC   C1A60267   3.329   7.162   6.154
 4712POPC   D2A60268   3.487   7.100   6.599
 4712POPC   C3A60269   3.252   6.947   6.979
 4712POPC   C4A60270   3.412   7.106   7.377
 4712POPC   C1B60271   3.446   7.629   6.267
 4712POPC   C2B60272   3.188   7.551   6.628
 4712POPC   C3B60273   3.393   7.467   7.006
 4712POPC   C4B60274   3.811   7.361   7.172
 4713POPC   NC360275  20.133  40.249   5.593
 4713POPC   PO460276  19.831  39.657   5.392
 4713POPC   GL160277  19.938  39.783   5.799
 4713POPC   GL260278  19.719  40.040   5.908
 4713POPC   C1A60279  20.094  39.726   6.252
 4713POPC   D2A60280  20.200  39.911   6.702
 4713POPC   C3A60281  19.905  39.920   7.036
 4713POPC   C4A60282  19.930  39.720   7.415
 4713POPC   C1B60283  19.581  39.685   6.162
 4713POPC   C2B60284  19.723  39.676   6.599
 4713POPC   C3B60285  19.497  39.592   6.959
 4713POPC   C4B60286  19.408  39.791   7.329
 4714POPC   NC360287  10.725  10.208   5.346
 4714POPC   PO460288  10.716   9.568   5.488
 4714POPC   GL160289  10.516   9.897   5.721
 4714POPC   GL260290  10.824  10.031   5.845
 4714POPC   C1A60291  10.359   9.947   6.153
 4714POPC   D2A60292  10.151   9.732   6.505
 4714POPC   C3A60293  10.333   9.702   6.901
 4714POPC   C4A60294  10.229   9.904   7.281
 4714POPC   C1B60295  10.765   9.627   6.122
 4714POPC   C2B60296  10.647   9.454   6.517
 4714POPC   C3B60297  10.825   9.574   6.907
 4714POPC   C4B60298  10.689   9.649   7.290
 4715POPC   NC360299  36.539  20.770   5.479
 4715POPC   PO460300  36.074  20.391   5.237
 4715POPC   GL160301  36.078  20.552   5.668
 4715POPC   GL260302  35.755  20.739   5.745
 4715POPC   C1A60303  36.288  20.543   6.094
 4715POPC   D2A60304  36.510  20.345   6.448
 4715POPC   C3A60305  36.384  20.491   6.843
 4715POPC   C4A60306  36.305  20.425   7.238
 4715POPC   C1B60307  35.779  20.455   6.115
 4715POPC   C2B60308  35.992  20.439   6.522
 4715POPC   C3B60309  35.909  20.598   6.948
 4715POPC   C4B60310  35.915  20.754   7.359
 4716POPC   NC360311  18.101  34.531   5.499
 4716POPC   PO460312  18.664  34.219   5.503
 4716POPC   GL160313  18.442  34.521   5.870
 4716POPC   GL260314  18.106  34.451   5.993
 4716POPC   C1A60315  18.275  34.831   6.276
 4716POPC   D2A60316  18.157  34.789   6.746
 4716POPC   C3A60317  18.337  34.855   7.171
 4716POPC   C4A60318  18.411  34.822   7.659
 4716POPC   C1B60319  18.099  34.364   6.440
 4716POPC   C2B60320  17.771  34.423   6.750
 4716POPC   C3B60321  17.817  34.629   7.129
 4716POPC   C4B60322  18.114  34.492   7.434
 4717POPC   NC360323  20.809  24.804   5.477
 4717POPC   PO460324  20.346  24.328   5.434
 4717POPC   GL160325  20.544  24.494   5.814
 4717POPC   GL260326  20.430  24.846   5.818
 4717POPC   C1A60327  20.758  24.397   6.232
 4717POPC   D2A60328  21.102  24.437   6.559
 4717POPC   C3A60329  20.850  24.292   6.903
 4717POPC   C4A60330  20.665  24.218   7.323
 4717POPC   C1B60331  20.639  24.896   6.204
 4717POPC   C2B60332  20.700  24.737   6.629
 4717POPC   C3B60333  20.492  24.653   7.029
 4717POPC   C4B60334  20.495  24.718   7.515
 4718POPC   NC360335  43.892  43.562   5.464
 4718POPC   PO460336  43.597  44.137   5.394
 4718POPC   GL160337  43.819  43.978   5.759
 4718POPC   GL260338  43.665  43.700   5.902
 4718POPC   C1A60339  43.970  44.061   6.175
 4718POPC   D2A60340  44.263  44.212   6.489
 4718POPC   C3A60341  44.105  44.153   6.906
 4718POPC   C4A60342  44.070  44.399   7.254
 4718POPC   C1B60343  43.585  43.735   6.324
 4718POPC   C2B60344  43.664  43.716   6.720
 4718POPC   C3B60345  43.681  43.909   7.096
 4718POPC   C4B60346  43.783  43.654   7.452
 4719POPC   NC360347  20.423   8.925   5.447
 4719POPC   PO460348  21.111   9.063   5.380
 4719POPC   GL160349  20.858   8.869   5.745
 4719POPC   GL260350  20.509   8.914   5.949
 4719POPC   C1A60351  20.919   8.720   6.159
 4719POPC   D2A60352  20.568   8.700   6.433
 4719POPC   C3A60353  20.543   8.846   6.844
 4719POPC   C4A60354  20.761   8.835   7.222
 4719POPC   C1B60355  20.311   9.205   6.275
 4719POPC   C2B60356  20.382   9.342   6.722
 4719POPC   C3B60357  20.500   9.278   7.181
 4719POPC   C4B60358  20.505   9.214   7.631
 4720POPC   NC360359  21.925   4.996   5.364
 4720POPC   PO460360  21.228   4.946   5.431
 4720POPC   GL160361  21.562   5.128   5.713
 4720POPC   GL260362  21.565   5.476   5.812
 4720POPC   C1A60363  21.692   5.123   6.156
 4720POPC   D2A60364  21.620   4.877   6.519
 4720POPC   C3A60365  21.636   5.097   6.908
 4720POPC   C4A60366  21.511   4.910   7.273
 4720POPC   C1B60367  21.369   5.537   6.198
 4720POPC   C2B60368  21.237   5.283   6.559
 4720POPC   C3B60369  21.066   5.296   6.982
 4720POPC   C4B60370  21.159   5.245   7.418
 4721POPC   NC360371  32.582  20.999   5.296
 4721POPC   PO460372  32.033  20.602   5.399
 4721POPC   GL160373  32.131  20.341   5.747
 4721POPC   GL260374  32.478  20.360   5.827
 4721POPC   C1A60375  32.072  20.407   6.201
 4721POPC   D2A60376  32.004  20.641   6.593
 4721POPC   C3A60377  32.146  20.473   6.993
 4721POPC   C4A60378  31.851  20.248   7.277
 4721POPC   C1B60379  32.572  20.563   6.224
 4721POPC   C2B60380  32.547  20.645   6.654
 4721POPC   C3B60381  32.596  20.905   6.994
 4721POPC   C4B60382  32.432  20.879   7.388
 4722POPC   NC360383  36.551  11.120   5.044
 4722POPC   PO460384  35.963  11.193   5.318
 4722POPC   GL160385  35.956  11.352   5.738
 4722POPC   GL260386  36.266  11.549   5.763
 4722POPC   C1A60387  36.087  11.251   6.178
 4722POPC   D2A60388  36.407  11.158   6.521
 4722POPC   C3A60389  36.175  11.041   6.916
 4722POPC   C4A60390  35.840  11.163   7.245
 4722POPC   C1B60391  36.474  11.592   6.189
 4722POPC   C2B60392  36.616  11.669   6.616
 4722POPC   C3B60393  36.430  11.684   7.035
 4722POPC   C4B60394  36.250  11.571   7.485
 4723POPC   NC360395  10.864  13.379   5.494
 4723POPC   PO460396  11.520  13.643   5.375
 4723POPC   GL160397  11.518  13.801   5.782
 4723POPC   GL260398  11.162  13.712   5.803
 4723POPC   C1A60399  11.457  13.747   6.235
 4723POPC   D2A60400  11.232  13.520   6.555
 4723POPC   C3A60401  11.383  13.548   6.972
 4723POPC   C4A60402  11.645  13.878   7.177
 4723POPC   C1B60403  10.941  13.885   6.159
 4723POPC   C2B60404  10.745  13.738   6.534
 4723POPC   C3B60405  10.964  13.867   6.885
 4723POPC   C4B60406  11.061  13.798   7.284
 4724POPC   NC360407  36.522  38.931   5.619
 4724POPC   PO460408  37.002  38.638   5.218
 4724POPC   GL160409  37.114  38.655   5.700
 4724POPC   GL260410  36.856  38.504   5.872
 4724POPC   C1A60411  37.126  38.796   6.178
 4724POPC   D2A60412  36.995  38.568   6.573
 4724POPC   C3A60413  36.900  38.716   7.030
 4724POPC   C4A60414  36.493  38.645   7.283
 4724POPC   C1B60415  37.121  38.259   6.130
 4724POPC   C2B60416  37.106  38.057   6.546
 4724POPC   C3B60417  36.977  38.205   6.948
 4724POPC   C4B60418  36.873  38.302   7.392
 4725POPC   NC360419  31.118  38.069   5.401
 4725POPC   PO460420  30.445  38.246   5.291
 4725POPC   GL160421  30.413  38.210   5.759
 4725POPC   GL260422  30.708  38.042   5.821
 4725POPC   C1A60423  30.464  38.211   6.223
 4725POPC   D2A60424  30.725  38.321   6.549
 4725POPC   C3A60425  30.510  38.475   6.899
 4725POPC   C4A60426  30.687  38.681   7.273
 4725POPC   C1B60427  31.014  37.880   6.094
 4725POPC   C2B60428  31.085  37.811   6.528
 4725POPC   C3B60429  30.949  37.993   6.904
 4725POPC   C4B60430  30.710  38.162   7.225
 4726POPC   NC360431  29.352   4.450   5.562
 4726POPC   PO460432  28.744   4.191   5.493
 4726POPC   GL160433  29.051   4.160   5.876
 4726POPC   GL260434  29.392   4.000   5.818
 4726POPC   C1A60435  29.274   4.423   6.220
 4726POPC   D2A60436  29.238   4.602   6.650
 4726POPC   C3A60437  28.865   4.431   6.913
 4726POPC   C4A60438  28.851   4.131   7.274
 4726POPC   C1B60439  29.371   3.901   6.255
 4726POPC   C2B60440  29.157   4.094   6.601
 4726POPC   C3B60441  29.290   4.189   6.989
 4726POPC   C4B60442  29.601   4.038   7.141
 4727POPC   NC360443  17.928   3.043   5.554
 4727POPC   PO460444  18.525   2.792   5.420
 4727POPC   GL160445  18.408   2.886   5.822
 4727POPC   GL260446  18.143   2.688   5.925
 4727POPC   C1A60447  18.540   2.845   6.238
 4727POPC   D2A60448  18.287   2.759   6.570
 4727POPC   C3A60449  18.559   2.826   6.872
 4727POPC   C4A60450  18.478   2.807   7.278
 4727POPC   C1B60451  18.041   3.047   6.207
 4727POPC   C2B60452  17.870   3.079   6.619
 4727POPC   C3B60453  18.102   3.069   7.008
 4727POPC   C4B60454  18.013   2.903   7.396
 4728POPC   NC360455   3.626  15.523   5.366
 4728POPC   PO460456   3.597  14.952   5.463
 4728POPC   GL160457   3.667  15.285   5.796
 4728POPC   GL260458   4.021  15.304   5.905
 4728POPC   C1A60459   3.627  15.432   6.205
 4728POPC   D2A60460   3.601  15.145   6.543
 4728POPC   C3A60461   3.557  15.357   6.873
 4728POPC   C4A60462   3.373  15.370   7.235
 4728POPC   C1B60463   3.828  14.931   6.127
 4728POPC   C2B60464   3.908  14.728   6.524
 4728POPC   C3B60465   3.799  14.844   6.962
 4728POPC   C4B60466   3.928  15.226   7.196
 4729POPC   NC360467  43.952   3.250   5.307
 4729POPC   PO460468  43.405   3.163   5.646
 4729POPC   GL160469  43.791   3.353   5.819
 4729POPC   GL260470  44.023   3.635   5.787
 4729POPC   C1A60471  43.883   3.392   6.249
 4729POPC   D2A60472  43.703   3.206   6.611
 4729POPC   C3A60473  43.928   3.267   6.978
 4729POPC   C4A60474  43.857   3.407   7.369
 4729POPC   C1B60475  43.730   3.844   6.133
 4729POPC   C2B60476  43.657   3.736   6.600
 4729POPC   C3B60477  43.653   3.778   7.089
 4729POPC   C4B60478  43.841   3.872   7.546
 4730POPC   NC360479  41.582   3.877   5.642
 4730POPC   PO460480  41.288   3.278   5.416
 4730POPC   GL160481  41.426   3.238   5.801
 4730POPC   GL260482  41.759   3.379   5.817
 4730POPC   C1A60483  41.292   3.317   6.197
 4730POPC   D2A60484  41.525   3.277   6.555
 4730POPC   C3A60485  41.333   3.497   6.856
 4730POPC   C4A60486  41.393   3.411   7.264
 4730POPC   C1B60487  41.770   3.576   6.213
 4730POPC   C2B60488  41.679   3.804   6.593
 4730POPC   C3B60489  41.788   3.676   7.005
 4730POPC   C4B60490  41.896   3.423   7.332
 4731POPC   NC360491   6.279  16.728   5.629
 4731POPC   PO460492   5.800  16.259   5.383
 4731POPC   GL160493   5.779  16.532   5.762
 4731POPC   GL260494   5.621  16.857   5.774
 4731POPC   C1A60495   5.792  16.433   6.210
 4731POPC   D2A60496   6.001  16.497   6.588
 4731POPC   C3A60497   5.790  16.392   6.969
 4731POPC   C4A60498   6.020  16.435   7.358
 4731POPC   C1B60499   5.953  16.908   6.139
 4731POPC   C2B60500   6.078  16.996   6.569
 4731POPC   C3B60501   6.003  16.878   6.993
 4731POPC   C4B60502   5.916  16.934   7.424
 4732POPC   NC360503  29.839  34.129   5.475
 4732POPC   PO460504  30.081  33.495   5.358
 4732POPC   GL160505  30.014  33.473   5.774
 4732POPC   GL260506  29.879  33.781   5.861
 4732POPC   C1A60507  30.209  33.546   6.174
 4732POPC   D2A60508  30.208  33.706   6.571
 4732POPC   C3A60509  30.065  33.459   6.906
 4732POPC   C4A60510  29.967  33.657   7.254
 4732POPC   C1B60511  29.682  33.850   6.250
 4732POPC   C2B60512  29.725  33.849   6.695
 4732POPC   C3B60513  29.676  34.035   7.094
 4732POPC   C4B60514  29.579  33.868   7.517
 4733POPC   NC360515  23.560  44.855   5.466
 4733POPC   PO460516  23.477  44.191   5.686
 4733POPC   GL160517  23.591  44.602   5.912
 4733POPC   GL260518  23.833  44.910   5.909
 4733POPC   C1A60519  23.613  44.714   6.345
 4733POPC   D2A60520  23.453  44.531   6.704
 4733POPC   C3A60521  23.643  44.743   6.953
 4733POPC   C4A60522  23.675  44.739   7.341
 4733POPC   C1B60523  24.110  44.845   6.275
 4733POPC   C2B60524  24.073  44.936   6.715
 4733POPC   C3B60525  24.195  44.659   7.067
 4733POPC   C4B60526  24.091  44.492   7.490
 4734POPC   NC360527   7.780  11.987   5.506
 4734POPC   PO460528   8.384  11.902   5.189
 4734POPC   GL160529   8.232  12.157   5.654
 4734POPC   GL260530   8.542  12.264   5.811
 4734POPC   C1A60531   7.951  12.209   6.079
 4734POPC   D2A60532   8.032  11.939   6.458
 4734POPC   C3A60533   7.916  12.051   6.887
 4734POPC   C4A60534   8.120  11.880   7.226
 4734POPC   C1B60535   8.405  12.234   6.263
 4734POPC   C2B60536   8.206  12.411   6.654
 4734POPC   C3B60537   8.264  12.384   7.135
 4734POPC   C4B60538   8.128  12.327   7.604
 4735POPC   NC360539  15.767  27.321   5.365
 4735POPC   PO460540  15.759  26.572   5.515
 4735POPC   GL160541  15.969  26.695   5.856
 4735POPC   GL260542  15.854  27.032   5.832
 4735POPC   C1A60543  15.806  26.697   6.272
 4735POPC   D2A60544  15.647  26.818   6.657
 4735POPC   C3A60545  15.895  26.635   6.929
 4735POPC   C4A60546  16.052  26.690   7.281
 4735POPC   C1B60547  15.651  27.189   6.234
 4735POPC   C2B60548  15.748  27.345   6.670
 4735POPC   C3B60549  15.891  27.144   7.075
 4735POPC   C4B60550  15.801  27.107   7.511
 4736POPC   NC360551  11.705  18.399   5.578
 4736POPC   PO460552  12.139  17.989   5.371
 4736POPC   GL160553  12.020  18.084   5.831
 4736POPC   GL260554  12.336  18.170   5.910
 4736POPC   C1A60555  12.033  18.231   6.305
 4736POPC   D2A60556  12.185  18.078   6.696
 4736POPC   C3A60557  11.929  18.273   7.013
 4736POPC   C4A60558  11.807  18.186   7.424
 4736POPC   C1B60559  12.316  17.828   6.221
 4736POPC   C2B60560  12.577  17.763   6.585
 4736POPC   C3B60561  12.585  17.894   6.987
 4736POPC   C4B60562  12.252  17.972   7.261
 4737POPC   NC360563   2.141  36.844   5.362
 4737POPC   PO460564   1.542  37.094   5.373
 4737POPC   GL160565   1.770  36.962   5.699
 4737POPC   GL260566   1.974  37.276   5.670
 4737POPC   C1A60567   1.847  36.734   6.073
 4737POPC   D2A60568   1.702  36.855   6.477
 4737POPC   C3A60569   1.921  36.738   6.825
 4737POPC   C4A60570   1.834  36.896   7.206
 4737POPC   C1B60571   1.877  37.259   6.112
 4737POPC   C2B60572   2.085  37.168   6.495
 4737POPC   C3B60573   2.060  37.259   6.906
 4737POPC   C4B60574   2.218  37.185   7.327
 4738POPC   NC360575  28.539  35.268   5.466
 4738POPC   PO460576  28.153  35.843   5.718
 4738POPC   GL160577  28.452  35.543   5.912
 4738POPC   GL260578  28.244  35.240   5.907
 4738POPC   C1A60579  28.535  35.345   6.343
 4738POPC   D2A60580  28.264  35.251   6.733
 4738POPC   C3A60581  28.507  35.142   7.125
 4738POPC   C4A60582  28.530  35.276   7.580
 4738POPC   C1B60583  28.083  35.532   6.264
 4738POPC   C2B60584  28.187  35.782   6.626
 4738POPC   C3B60585  28.139  35.707   7.037
 4738POPC   C4B60586  28.059  35.326   7.265
 4739POPC   NC360587  29.462  35.350   5.395
 4739POPC   PO460588  28.820  35.638   5.368
 4739POPC   GL160589  28.952  35.567   5.768
 4739POPC   GL260590  29.270  35.703   5.725
 4739POPC   C1A60591  28.987  35.247   6.108
 4739POPC   D2A60592  28.899  35.016   6.518
 4739POPC   C3A60593  28.975  35.213   6.928
 4739POPC   C4A60594  29.327  35.264   7.228
 4739POPC   C1B60595  29.242  35.707   6.172
 4739POPC   C2B60596  29.178  35.506   6.549
 4739POPC   C3B60597  29.205  35.663   6.953
 4739POPC   C4B60598  29.238  35.794   7.335
 4740POPC   NC360599  34.013   4.696   5.009
 4740POPC   PO460600  33.629   5.113   5.383
 4740POPC   GL160601  33.760   5.040   5.793
 4740POPC   GL260602  33.415   5.032   5.866
 4740POPC   C1A60603  34.019   5.001   6.174
 4740POPC   D2A60604  33.932   5.188   6.592
 4740POPC   C3A60605  34.192   5.024   6.911
 4740POPC   C4A60606  34.300   5.202   7.298
 4740POPC   C1B60607  33.504   5.126   6.271
 4740POPC   C2B60608  33.437   4.865   6.632
 4740POPC   C3B60609  33.663   4.890   7.012
 4740POPC   C4B60610  33.802   5.262   7.204
 4741POPC   NC360611   3.408  30.967   5.490
 4741POPC   PO460612   3.391  30.352   5.402
 4741POPC   GL160613   3.514  30.574   5.816
 4741POPC   GL260614   3.229  30.829   5.946
 4741POPC   C1A60615   3.706  30.839   6.188
 4741POPC   D2A60616   3.919  31.049   6.589
 4741POPC   C3A60617   3.818  30.853   7.016
 4741POPC   C4A60618   3.459  30.682   7.220
 4741POPC   C1B60619   3.300  30.527   6.276
 4741POPC   C2B60620   3.540  30.613   6.639
 4741POPC   C3B60621   3.722  30.333   6.913
 4741POPC   C4B60622   3.444  30.182   7.216
 4742POPC   NC360623   7.231  23.032   5.508
 4742POPC   PO460624   7.818  23.252   5.650
 4742POPC   GL160625   7.507  22.979   5.929
 4742POPC   GL260626   7.253  22.673   5.879
 4742POPC   C1A60627   7.323  22.928   6.334
 4742POPC   D2A60628   7.319  23.273   6.637
 4742POPC   C3A60629   7.502  23.184   7.010
 4742POPC   C4A60630   7.162  22.938   7.158
 4742POPC   C1B60631   7.602  22.510   6.140
 4742POPC   C2B60632   7.697  22.520   6.592
 4742POPC   C3B60633   7.467  22.530   6.990
 4742POPC   C4B60634   7.466  22.652   7.430
 4743POPC   NC360635  20.878  42.553   5.477
 4743POPC   PO460636  20.334  42.177   5.283
 4743POPC   GL160637  20.287  42.289   5.759
 4743POPC   GL260638  20.641  42.306   5.885
 4743POPC   C1A60639  20.308  42.383   6.246
 4743POPC   D2A60640  20.610  42.468   6.570
 4743POPC   C3A60641  20.717  42.318   6.998
 4743POPC   C4A60642  20.474  42.542   7.302
 4743POPC   C1B60643  20.762  42.062   6.284
 4743POPC   C2B60644  20.575  41.907   6.680
 4743POPC   C3B60645  20.300  41.803   7.040
 4743POPC   C4B60646  20.410  42.049   7.398
 4744POPC   NC360647  27.764   8.401   5.521
 4744POPC   PO460648  27.680   7.778   5.313
 4744POPC   GL160649  27.585   7.963   5.777
 4744POPC   GL260650  27.481   8.320   5.913
 4744POPC   C1A60651  27.786   8.061   6.205
 4744POPC   D2A60652  27.724   8.366   6.521
 4744POPC   C3A60653  27.700   8.246   6.964
 4744POPC   C4A60654  27.679   8.066   7.385
 4744POPC   C1B60655  27.286   8.130   6.281
 4744POPC   C2B60656  27.356   8.002   6.693
 4744POPC   C3B60657  27.217   8.029   7.120
 4744POPC   C4B60658  27.232   8.191   7.564
 4745POPC   NC360659   8.569  24.138   5.281
 4745POPC   PO460660   8.158  23.644   5.298
 4745POPC   GL160661   8.196  23.620   5.778
 4745POPC   GL260662   7.885  23.646   5.937
 4745POPC   C1A60663   8.201  23.849   6.232
 4745POPC   D2A60664   7.973  24.051   6.584
 4745POPC   C3A60665   8.148  23.838   6.919
 4745POPC   C4A60666   8.349  23.865   7.276
 4745POPC   C1B60667   8.122  23.342   6.229
 4745POPC   C2B60668   8.255  23.406   6.649
 4745POPC   C3B60669   8.052  23.318   7.026
 4745POPC   C4B60670   7.886  23.466   7.401
 4746POPC   NC360671  41.132  25.363   5.395
 4746POPC   PO460672  41.838  25.116   5.389
 4746POPC   GL160673  41.683  25.246   5.783
 4746POPC   GL260674  41.335  25.110   5.824
 4746POPC   C1A60675  41.726  25.112   6.219
 4746POPC   D2A60676  41.741  24.973   6.639
 4746POPC   C3A60677  41.959  25.102   6.985
 4746POPC   C4A60678  41.848  25.373   7.300
 4746POPC   C1B60679  41.337  25.432   6.157
 4746POPC   C2B60680  41.496  25.438   6.609
 4746POPC   C3B60681  41.393  25.468   7.059
 4746POPC   C4B60682  41.368  25.214   7.481
 4747POPC   NC360683  13.995  11.922   5.454
 4747POPC   PO460684  13.871  12.581   5.536
 4747POPC   GL160685  13.679  12.369   5.897
 4747POPC   GL260686  13.747  12.036   5.887
 4747POPC   C1A60687  13.368  12.236   6.250
 4747POPC   D2A60688  13.322  12.182   6.702
 4747POPC   C3A60689  13.670  12.331   6.915
 4747POPC   C4A60690  13.756  12.230   7.355
 4747POPC   C1B60691  13.616  11.803   6.231
 4747POPC   C2B60692  13.740  11.869   6.639
 4747POPC   C3B60693  13.615  11.846   7.033
 4747POPC   C4B60694  13.725  11.603   7.367
 4748POPC   NC360695  27.269  22.306   5.322
 4748POPC   PO460696  26.770  21.850   5.368
 4748POPC   GL160697  26.740  22.081   5.789
 4748POPC   GL260698  26.992  22.342   5.755
 4748POPC   C1A60699  26.457  22.271   6.155
 4748POPC   D2A60700  26.560  22.478   6.572
 4748POPC   C3A60701  26.733  22.285   6.973
 4748POPC   C4A60702  26.593  22.398   7.397
 4748POPC   C1B60703  26.955  22.279   6.221
 4748POPC   C2B60704  27.079  22.142   6.630
 4748POPC   C3B60705  27.237  22.181   7.065
 4748POPC   C4B60706  27.091  22.309   7.467
 4749POPC   NC360707   7.204  43.434   5.470
 4749POPC   PO460708   7.289  42.732   5.491
 4749POPC   GL160709   7.254  43.060   5.831
 4749POPC   GL260710   7.579  43.274   5.795
 4749POPC   C1A60711   7.435  43.134   6.267
 4749POPC   D2A60712   7.707  42.976   6.612
 4749POPC   C3A60713   7.517  42.806   6.998
 4749POPC   C4A60714   7.120  42.777   7.254
 4749POPC   C1B60715   7.702  43.557   6.145
 4749POPC   C2B60716   7.573  43.552   6.585
 4749POPC   C3B60717   7.490  43.326   6.977
 4749POPC   C4B60718   7.283  43.280   7.378
 4750POPC   NC360719  29.015  44.833   5.198
 4750POPC   PO460720  29.610  44.635   5.499
 4750POPC   GL160721  29.255  44.687   5.773
 4750POPC   GL260722  29.152  44.960   5.667
 4750POPC   C1A60723  28.989  44.681   6.208
 4750POPC   D2A60724  28.880  44.465   6.647
 4750POPC   C3A60725  29.039  44.442   7.092
 4750POPC   C4A60726  29.101  44.658   7.501
 4750POPC   C1B60727  29.226   0.120   6.062
 4750POPC   C2B60728  29.156   0.113   6.497
 4750POPC   C3B60729  29.129  44.938   6.938
 4750POPC   C4B60730  29.020   0.138   7.330
 4751POPC   NC360731  35.626  40.309   5.238
 4751POPC   PO460732  35.020  40.049   5.412
 4751POPC   GL160733  35.262  40.060   5.786
 4751POPC   GL260734  35.318  39.718   5.899
 4751POPC   C1A60735  35.370  40.105   6.228
 4751POPC   D2A60736  35.383  39.931   6.647
 4751POPC   C3A60737  35.523  40.219   6.936
 4751POPC   C4A60738  35.642  40.161   7.333
 4751POPC   C1B60739  35.086  39.681   6.306
 4751POPC   C2B60740  34.902  40.036   6.529
 4751POPC   C3B60741  35.028  40.184   6.919
 4751POPC   C4B60742  35.280  39.823   7.149
 4752POPC   NC360743  19.532  14.876   5.467
 4752POPC   PO460744  20.064  14.621   5.178
 4752POPC   GL160745  19.875  14.513   5.694
 4752POPC   GL260746  20.065  14.250   5.865
 4752POPC   C1A60747  19.732  14.385   6.198
 4752POPC   D2A60748  19.971  14.245   6.614
 4752POPC   C3A60749  19.931  14.426   7.011
 4752POPC   C4A60750  19.608  14.484   7.313
 4752POPC   C1B60751  20.036  13.956   6.215
 4752POPC   C2B60752  19.691  13.838   6.548
 4752POPC   C3B60753  19.670  13.985   7.020
 4752POPC   C4B60754  19.720  14.027   7.514
 4753POPC   NC360755  29.756   5.363   5.503
 4753POPC   PO460756  29.707   4.702   5.428
 4753POPC   GL160757  29.799   4.940   5.803
 4753POPC   GL260758  29.670   4.791   6.096
 4753POPC   C1A60759  30.146   5.040   6.090
 4753POPC   D2A60760  30.103   5.118   6.552
 4753POPC   C3A60761  29.721   5.004   6.771
 4753POPC   C4A60762  29.828   4.923   7.181
 4753POPC   C1B60763  29.736   5.276   6.221
 4753POPC   C2B60764  29.767   5.511   6.611
 4753POPC   C3B60765  29.726   5.435   7.064
 4753POPC   C4B60766  29.384   5.201   7.262
 4754POPC   NC360767   0.426  11.156   5.460
 4754POPC   PO460768   0.385  10.514   5.379
 4754POPC   GL160769   0.493  10.653   5.780
 4754POPC   GL260770   0.237  10.845   5.877
 4754POPC   C1A60771   0.622  10.569   6.211
 4754POPC   D2A60772   0.299  10.465   6.519
 4754POPC   C3A60773   0.438  10.368   6.904
 4754POPC   C4A60774   0.543  10.283   7.304
 4754POPC   C1B60775   0.348  11.010   6.282
 4754POPC   C2B60776   0.507  10.889   6.682
 4754POPC   C3B60777   0.674  10.803   7.081
 4754POPC   C4B60778   0.288  10.797   7.312
 4755POPC   NC360779  30.099  36.088   5.579
 4755POPC   PO460780  30.795  36.056   5.340
 4755POPC   GL160781  30.604  36.111   5.717
 4755POPC   GL260782  30.835  36.327   5.792
 4755POPC   C1A60783  30.439  36.148   6.152
 4755POPC   D2A60784  30.478  35.868   6.524
 4755POPC   C3A60785  30.580  36.063   6.906
 4755POPC   C4A60786  30.465  36.229   7.311
 4755POPC   C1B60787  30.817  36.499   6.178
 4755POPC   C2B60788  30.655  36.451   6.567
 4755POPC   C3B60789  30.837  36.514   6.969
 4755POPC   C4B60790  30.995  36.530   7.374
 4756POPC   NC360791  19.892  42.391   5.388
 4756POPC   PO460792  19.761  41.746   5.465
 4756POPC   GL160793  19.783  42.101   5.817
 4756POPC   GL260794  19.629  42.456   5.837
 4756POPC   C1A60795  19.812  42.281   6.275
 4756POPC   D2A60796  20.094  42.058   6.580
 4756POPC   C3A60797  20.208  42.287   6.933
 4756POPC   C4A60798  19.994  42.345   7.312
 4756POPC   C1B60799  19.601  42.821   6.120
 4756POPC   C2B60800  19.667  42.802   6.554
 4756POPC   C3B60801  19.716  42.457   6.851
 4756POPC   C4B60802  19.494  42.289   7.208
 4757POPC   NC360803  13.955  41.748   5.656
 4757POPC   PO460804  14.239  41.248   5.332
 4757POPC   GL160805  14.365  41.414   5.783
 4757POPC   GL260806  14.449  41.167   5.989
 4757POPC   C1A60807  14.616  41.633   6.193
 4757POPC   D2A60808  14.525  42.070   6.425
 4757POPC   C3A60809  14.493  42.040   6.897
 4757POPC   C4A60810  14.116  41.844   7.144
 4757POPC   C1B60811  14.144  41.441   6.244
 4757POPC   C2B60812  14.235  41.645   6.638
 4757POPC   C3B60813  14.499  41.535   6.968
 4757POPC   C4B60814  14.726  41.300   7.245
 4758POPC   NC360815   9.102  41.326   5.386
 4758POPC   PO460816   8.680  41.764   5.173
 4758POPC   GL160817   8.746  41.467   5.674
 4758POPC   GL260818   9.125  41.502   5.853
 4758POPC   C1A60819   8.744  41.301   6.114
 4758POPC   D2A60820   8.873  41.515   6.498
 4758POPC   C3A60821   8.784  41.391   6.931
 4758POPC   C4A60822   8.734  41.687   7.235
 4758POPC   C1B60823   9.290  41.321   6.259
 4758POPC   C2B60824   9.255  41.265   6.727
 4758POPC   C3B60825   9.259  41.605   7.039
 4758POPC   C4B60826   9.345  41.572   7.474
 4759POPC   NC360827  11.069  30.386   5.444
 4759POPC   PO460828  11.462  30.929   5.533
 4759POPC   GL160829  11.365  30.609   5.837
 4759POPC   GL260830  11.027  30.706   5.819
 4759POPC   C1A60831  11.421  30.502   6.289
 4759POPC   D2A60832  11.455  30.715   6.676
 4759POPC   C3A60833  11.340  30.594   7.080
 4759POPC   C4A60834  11.141  30.939   7.297
 4759POPC   C1B60835  10.977  30.771   6.209
 4759POPC   C2B60836  10.947  30.597   6.575
 4759POPC   C3B60837  10.841  30.694   6.962
 4759POPC   C4B60838  10.844  30.540   7.354
 4760POPC   NC360839  11.701  28.197   5.435
 4760POPC   PO460840  11.146  28.474   5.523
 4760POPC   GL160841  11.301  28.475   5.912
 4760POPC   GL260842  11.637  28.338   5.921
 4760POPC   C1A60843  11.136  28.432   6.298
 4760POPC   D2A60844  11.331  28.608   6.639
 4760POPC   C3A60845  11.314  28.345   6.953
 4760POPC   C4A60846  11.334  28.439   7.372
 4760POPC   C1B60847  11.719  28.467   6.337
 4760POPC   C2B60848  11.811  28.293   6.766
 4760POPC   C3B60849  11.772  28.240   7.210
 4760POPC   C4B60850  11.646  28.105   7.620
 4761POPC   NC360851  16.568   9.467   5.444
 4761POPC   PO460852  16.973   8.955   5.175
 4761POPC   GL160853  16.738   8.838   5.643
 4761POPC   GL260854  16.414   9.009   5.707
 4761POPC   C1A60855  16.681   8.722   6.118
 4761POPC   D2A60856  16.452   8.781   6.549
 4761POPC   C3A60857  16.675   8.681   6.928
 4761POPC   C4A60858  16.759   8.920   7.261
 4761POPC   C1B60859  16.270   9.191   6.119
 4761POPC   C2B60860  16.115   9.212   6.565
 4761POPC   C3B60861  16.250   9.044   7.004
 4761POPC   C4B60862  16.356   9.140   7.459
 4762POPC   NC360863   0.783   7.357   5.385
 4762POPC   PO460864   0.197   7.764   5.411
 4762POPC   GL160865   0.343   7.608   5.829
 4762POPC   GL260866   0.684   7.469   5.890
 4762POPC   C1A60867   0.224   7.519   6.272
 4762POPC   D2A60868   0.181   7.258   6.649
 4762POPC   C3A60869   0.305   7.509   6.992
 4762POPC   C4A60870   0.334   7.446   7.402
 4762POPC   C1B60871   0.680   7.263   6.279
 4762POPC   C2B60872   0.702   7.472   6.649
 4762POPC   C3B60873   0.855   7.767   6.950
 4762POPC   C4B60874   0.756   7.788   7.376
 4763POPC   NC360875  24.257  10.636   5.355
 4763POPC   PO460876  23.668  10.792   5.306
 4763POPC   GL160877  23.779  10.454   5.626
 4763POPC   GL260878  23.453  10.317   5.759
 4763POPC   C1A60879  23.927  10.254   6.043
 4763POPC   D2A60880  23.812  10.126   6.480
 4763POPC   C3A60881  23.988  10.346   6.857
 4763POPC   C4A60882  24.141  10.213   7.268
 4763POPC   C1B60883  23.447  10.396   6.226
 4763POPC   C2B60884  23.514  10.505   6.675
 4763POPC   C3B60885  23.504  10.295   7.062
 4763POPC   C4B60886  23.645  10.175   7.488
 4764POPC   NC360887  17.205  35.738   5.001
 4764POPC   PO460888  17.612  36.259   5.255
 4764POPC   GL160889  17.716  36.325   5.709
 4764POPC   GL260890  17.733  35.965   5.833
 4764POPC   C1A60891  17.642  36.387   6.145
 4764POPC   D2A60892  17.366  36.516   6.480
 4764POPC   C3A60893  17.585  36.529   6.862
 4764POPC   C4A60894  17.612  36.208   7.205
 4764POPC   C1B60895  17.551  35.914   6.281
 4764POPC   C2B60896  17.450  36.039   6.714
 4764POPC   C3B60897  17.175  35.778   6.986
 4764POPC   C4B60898  17.234  35.576   7.393
 4765POPC   NC360899   1.421  35.768   5.554
 4765POPC   PO460900   1.020  35.153   5.416
 4765POPC   GL160901   1.119  35.354   5.821
 4765POPC   GL260902   1.446  35.413   5.900
 4765POPC   C1A60903   1.152  35.246   6.280
 4765POPC   D2A60904   1.015  35.263   6.714
 4765POPC   C3A60905   1.254  35.269   7.079
 4765POPC   C4A60906   1.616  35.303   7.319
 4765POPC   C1B60907   1.438  35.668   6.273
 4765POPC   C2B60908   1.478  35.529   6.704
 4765POPC   C3B60909   1.564  35.749   7.097
 4765POPC   C4B60910   1.446  35.728   7.561
 4766POPC   NC360911  34.395  44.074   5.544
 4766POPC   PO460912  34.712  43.550   5.432
 4766POPC   GL160913  34.524  43.646   5.822
 4766POPC   GL260914  34.154  43.614   5.757
 4766POPC   C1A60915  34.429  43.949   6.177
 4766POPC   D2A60916  34.690  44.199   6.448
 4766POPC   C3A60917  34.801  44.074   6.860
 4766POPC   C4A60918  34.661  44.119   7.247
 4766POPC   C1B60919  34.237  43.465   6.198
 4766POPC   C2B60920  34.446  43.645   6.581
 4766POPC   C3B60921  34.307  43.975   6.860
 4766POPC   C4B60922  34.322  43.743   7.251
 4767POPC   NC360923   9.231   1.466   5.481
 4767POPC   PO460924   8.904   0.915   5.501
 4767POPC   GL160925   8.892   0.969   5.914
 4767POPC   GL260926   8.994   1.270   5.886
 4767POPC   C1A60927   8.945   0.979   6.361
 4767POPC   D2A60928   9.249   1.126   6.681
 4767POPC   C3A60929   9.036   0.993   7.045
 4767POPC   C4A60930   8.588   1.047   7.083
 4767POPC   C1B60931   9.259   1.346   6.187
 4767POPC   C2B60932   9.161   1.682   6.449
 4767POPC   C3B60933   9.198   1.695   6.877
 4767POPC   C4B60934   9.325   1.388   7.156
 4768POPC   NC360935  43.176  22.648   5.431
 4768POPC   PO460936  42.896  23.129   5.500
 4768POPC   GL160937  43.204  23.010   5.814
 4768POPC   GL260938  43.336  22.661   5.906
 4768POPC   C1A60939  43.171  23.027   6.255
 4768POPC   D2A60940  43.406  22.815   6.569
 4768POPC   C3A60941  43.235  22.976   6.952
 4768POPC   C4A60942  43.293  23.237   7.315
 4768POPC   C1B60943  43.125  22.524   6.263
 4768POPC   C2B60944  42.942  22.604   6.658
 4768POPC   C3B60945  43.031  22.505   7.081
 4768POPC   C4B60946  42.939  22.323   7.486
 4769POPC   NC360947  27.858   3.193   5.653
 4769POPC   PO460948  27.431   3.699   5.394
 4769POPC   GL160949  27.411   3.451   5.823
 4769POPC   GL260950  27.199   3.138   5.820
 4769POPC   C1A60951  27.574   3.518   6.282
 4769POPC   D2A60952  27.648   3.784   6.684
 4769POPC   C3A60953  27.676   3.676   7.130
 4769POPC   C4A60954  27.792   3.744   7.547
 4769POPC   C1B60955  27.112   3.297   6.262
 4769POPC   C2B60956  27.281   3.237   6.648
 4769POPC   C3B60957  27.353   3.270   7.067
 4769POPC   C4B60958  27.466   3.342   7.481
 4770POPC   NC360959  30.109  27.722   5.380
 4770POPC   PO460960  29.638  27.221   5.422
 4770POPC   GL160961  29.859  27.450   5.731
 4770POPC   GL260962  29.739  27.803   5.717
 4770POPC   C1A60963  30.189  27.490   6.041
 4770POPC   D2A60964  30.049  27.518   6.460
 4770POPC   C3A60965  30.149  27.511   6.889
 4770POPC   C4A60966  29.742  27.549   7.107
 4770POPC   C1B60967  29.911  27.929   6.115
 4770POPC   C2B60968  29.814  27.975   6.555
 4770POPC   C3B60969  29.989  27.992   6.959
 4770POPC   C4B60970  30.126  28.282   7.212
 4771POPC   NC360971  23.627  29.725   5.209
 4771POPC   PO460972  23.147  29.558   5.609
 4771POPC   GL160973  23.286  29.603   5.994
 4771POPC   GL260974  23.509  29.847   5.944
 4771POPC   C1A60975  23.261  29.744   6.423
 4771POPC   D2A60976  23.358  29.967   6.797
 4771POPC   C3A60977  23.672  29.805   7.136
 4771POPC   C4A60978  23.752  29.829   7.609
 4771POPC   C1B60979  23.747  29.868   6.338
 4771POPC   C2B60980  23.859  30.084   6.753
 4771POPC   C3B60981  24.041  30.232   7.187
 4771POPC   C4B60982  24.156  30.147   7.631
 4772POPC   NC360983  20.556  34.667   5.204
 4772POPC   PO460984  20.966  34.303   5.511
 4772POPC   GL160985  20.816  34.653   5.722
 4772POPC   GL260986  20.504  34.529   5.733
 4772POPC   C1A60987  20.749  34.796   6.169
 4772POPC   D2A60988  20.930  34.709   6.597
 4772POPC   C3A60989  20.821  34.743   7.078
 4772POPC   C4A60990  20.949  34.858   7.564
 4772POPC   C1B60991  20.300  34.547   6.147
 4772POPC   C2B60992  20.409  34.545   6.582
 4772POPC   C3B60993  20.311  34.722   6.980
 4772POPC   C4B60994  20.127  34.486   7.286
 4773POPC   NC360995  35.274  30.376   5.452
 4773POPC   PO460996  35.443  31.024   5.339
 4773POPC   GL160997  35.539  30.739   5.725
 4773POPC   GL260998  35.192  30.662   5.891
 4773POPC   C1A60999  35.598  30.735   6.192
 4773POPC   D2A61000  35.533  30.581   6.605
 4773POPC   C3A61001  35.713  30.857   6.899
 4773POPC   C4A61002  35.678  31.092   7.248
 4773POPC   C1B61003  35.090  30.464   6.315
 4773POPC   C2B61004  35.070  30.483   6.793
 4773POPC   C3B61005  35.294  30.698   7.182
 4773POPC   C4B61006  35.081  30.682   7.663
 4774POPC   NC361007  16.226  21.911   5.615
 4774POPC   PO461008  15.775  22.386   5.412
 4774POPC   GL161009  15.971  22.298   5.827
 4774POPC   GL261010  15.812  22.036   5.899
 4774POPC   C1A61011  16.230  22.132   6.224
 4774POPC   D2A61012  16.293  21.955   6.647
 4774POPC   C3A61013  16.200  22.175   7.058
 4774POPC   C4A61014  16.392  21.976   7.426
 4774POPC   C1B61015  15.735  22.162   6.302
 4774POPC   C2B61016  15.794  21.917   6.655
 4774POPC   C3B61017  15.680  22.043   7.011
 4774POPC   C4B61018  15.700  22.439   7.158
 4775POPC   NC361019  43.757   7.632   5.225
 4775POPC   PO461020  43.887   6.943   5.294
 4775POPC   GL161021  43.925   7.281   5.615
 4775POPC   GL261022  44.005   7.653   5.682
 4775POPC   C1A61023  44.044   7.284   6.059
 4775POPC   D2A61024  43.912   7.406   6.477
 4775POPC   C3A61025  44.024   7.280   6.891
 4775POPC   C4A61026  43.665   7.224   7.168
 4775POPC   C1B61027  43.723   7.736   6.068
 4775POPC   C2B61028  43.765   7.899   6.523
 4775POPC   C3B61029  43.825   7.744   6.939
 4775POPC   C4B61030  43.647   7.690   7.353
 4776POPC   NC361031   3.173  35.223   5.725
 4776POPC   PO461032   3.601  35.454   5.243
 4776POPC   GL161033   3.668  35.354   5.717
 4776POPC   GL261034   3.612  35.685   5.836
 4776POPC   C1A61035   3.587  35.272   6.218
 4776POPC   D2A61036   3.235  35.268   6.581
 4776POPC   C3A61037   3.273  35.515   6.987
 4776POPC   C4A61038   3.394  35.347   7.397
 4776POPC   C1B61039   3.437  35.798   6.241
 4776POPC   C2B61040   3.595  35.632   6.607
 4776POPC   C3B61041   3.719  35.301   6.874
 4776POPC   C4B61042   3.852  35.490   7.251
 4777POPC   NC361043  32.727  12.728   5.330
 4777POPC   PO461044  33.276  13.146   5.567
 4777POPC   GL161045  33.176  12.819   5.858
 4777POPC   GL261046  32.855  12.761   5.815
 4777POPC   C1A61047  33.105  12.779   6.293
 4777POPC   D2A61048  33.280  12.713   6.688
 4777POPC   C3A61049  33.025  12.849   6.994
 4777POPC   C4A61050  33.022  12.529   7.231
 4777POPC   C1B61051  32.624  12.908   6.161
 4777POPC   C2B61052  32.640  12.788   6.588
 4777POPC   C3B61053  32.541  13.010   6.971
 4777POPC   C4B61054  32.597  12.775   7.315
 4778POPC   NC361055  32.411  19.576   5.493
 4778POPC   PO461056  32.044  18.949   5.409
 4778POPC   GL161057  32.281  19.103   5.774
 4778POPC   GL261058  32.094  19.401   5.879
 4778POPC   C1A61059  32.499  18.900   6.147
 4778POPC   D2A61060  32.262  18.831   6.579
 4778POPC   C3A61061  32.353  19.004   6.948
 4778POPC   C4A61062  32.253  18.880   7.348
 4778POPC   C1B61063  32.143  19.234   6.283
 4778POPC   C2B61064  32.543  19.251   6.509
 4778POPC   C3B61065  32.726  19.341   6.912
 4778POPC   C4B61066  32.656  19.221   7.318
 4779POPC   NC361067  42.628  17.107   5.372
 4779POPC   PO461068  42.299  17.676   5.323
 4779POPC   GL161069  42.242  17.574   5.746
 4779POPC   GL261070  42.316  17.229   5.755
 4779POPC   C1A61071  42.260  17.740   6.190
 4779POPC   D2A61072  42.515  17.718   6.594
 4779POPC   C3A61073  42.293  17.746   7.001
 4779POPC   C4A61074  42.491  17.682   7.398
 4779POPC   C1B61075  42.173  17.249   6.153
 4779POPC   C2B61076  42.161  17.361   6.583
 4779POPC   C3B61077  42.395  17.256   6.939
 4779POPC   C4B61078  42.217  17.278   7.322
 4780POPC   NC361079   4.103  29.374   5.460
 4780POPC   PO461080   4.590  28.842   5.496
 4780POPC   GL161081   4.257  28.900   5.806
 4780POPC   GL261082   4.347  29.226   5.876
 4780POPC   C1A61083   4.141  28.968   6.280
 4780POPC   D2A61084   4.399  29.009   6.699
 4780POPC   C3A61085   4.267  28.930   7.143
 4780POPC   C4A61086   4.416  28.972   7.613
 4780POPC   C1B61087   4.293  29.488   6.228
 4780POPC   C2B61088   4.440  29.541   6.633
 4780POPC   C3B61089   4.324  29.441   7.034
 4780POPC   C4B61090   4.229  29.422   7.490
 4781POPC   NC361091  18.359  16.234   5.550
 4781POPC   PO461092  18.593  15.547   5.590
 4781POPC   GL161093  18.455  15.861   5.882
 4781POPC   GL261094  18.182  15.780   6.043
 4781POPC   C1A61095  18.467  16.125   6.279
 4781POPC   D2A61096  18.512  15.844   6.656
 4781POPC   C3A61097  18.427  15.999   7.073
 4781POPC   C4A61098  18.090  16.047   7.353
 4781POPC   C1B61099  17.895  15.519   6.242
 4781POPC   C2B61100  17.763  15.532   6.655
 4781POPC   C3B61101  17.980  15.757   6.944
 4781POPC   C4B61102  18.038  15.545   7.312
 4782POPC   NC361103   7.073  37.739   5.461
 4782POPC   PO461104   6.492  37.486   5.412
 4782POPC   GL161105   6.682  37.684   5.813
 4782POPC   GL261106   6.959  37.936   5.936
 4782POPC   C1A61107   6.609  37.667   6.259
 4782POPC   D2A61108   6.762  37.431   6.616
 4782POPC   C3A61109   6.617  37.532   7.024
 4782POPC   C4A61110   6.723  37.938   7.234
 4782POPC   C1B61111   7.111  37.565   6.156
 4782POPC   C2B61112   7.277  37.455   6.570
 4782POPC   C3B61113   7.122  37.619   6.973
 4782POPC   C4B61114   7.085  37.629   7.434
 4783POPC   NC361115  24.943  38.722   5.536
 4783POPC   PO461116  25.443  39.162   5.277
 4783POPC   GL161117  25.257  39.085   5.705
 4783POPC   GL261118  25.006  39.249   5.875
 4783POPC   C1A61119  25.375  39.000   6.148
 4783POPC   D2A61120  25.250  39.178   6.544
 4783POPC   C3A61121  25.147  38.906   6.848
 4783POPC   C4A61122  25.187  39.043   7.264
 4783POPC   C1B61123  25.006  39.524   6.240
 4783POPC   C2B61124  25.293  39.701   6.563
 4783POPC   C3B61125  25.399  39.496   6.971
 4783POPC   C4B61126  25.428  39.493   7.427
 4784POPC   NC361127  10.244   1.860   5.640
 4784POPC   PO461128   9.785   2.124   5.128
 4784POPC   GL161129   9.772   2.031   5.614
 4784POPC   GL261130   9.478   1.848   5.735
 4784POPC   C1A61131   9.786   2.171   6.090
 4784POPC   D2A61132   9.909   2.356   6.520
 4784POPC   C3A61133   9.798   2.237   6.963
 4784POPC   C4A61134   9.816   2.158   7.418
 4784POPC   C1B61135   9.597   1.717   6.166
 4784POPC   C2B61136   9.607   1.896   6.618
 4784POPC   C3B61137   9.690   1.750   7.081
 4784POPC   C4B61138   9.564   1.657   7.530
 4785POPC   NC361139  16.879  27.696   5.458
 4785POPC   PO461140  16.224  27.340   5.471
 4785POPC   GL161141  16.517  27.390   5.843
 4785POPC   GL261142  16.854  27.571   5.933
 4785POPC   C1A61143  16.643  27.297   6.290
 4785POPC   D2A61144  16.641  27.169   6.717
 4785POPC   C3A61145  16.651  27.459   7.094
 4785POPC   C4A61146  16.443  27.844   7.264
 4785POPC   C1B61147  16.969  27.962   6.183
 4785POPC   C2B61148  16.921  28.087   6.627
 4785POPC   C3B61149  16.945  27.873   7.026
 4785POPC   C4B61150  17.065  27.632   7.409
 4786POPC   NC361151  34.505  41.419   5.517
 4786POPC   PO461152  35.183  41.679   5.443
 4786POPC   GL161153  34.924  41.575   5.790
 4786POPC   GL261154  34.561  41.629   5.962
 4786POPC   C1A61155  34.984  41.617   6.207
 4786POPC   D2A61156  34.664  41.595   6.501
 4786POPC   C3A61157  34.708  41.578   6.928
 4786POPC   C4A61158  34.893  41.727   7.284
 4786POPC   C1B61159  34.363  41.304   6.221
 4786POPC   C2B61160  34.304  41.217   6.640
 4786POPC   C3B61161  34.464  41.135   7.013
 4786POPC   C4B61162  34.478  41.407   7.378
 4787POPC   NC361163  37.519  15.957   5.492
 4787POPC   PO461164  38.183  15.816   5.319
 4787POPC   GL161165  37.963  16.077   5.710
 4787POPC   GL261166  37.738  15.846   5.940
 4787POPC   C1A61167  37.985  16.187   6.200
 4787POPC   D2A61168  37.793  15.966   6.590
 4787POPC   C3A61169  37.789  16.045   7.060
 4787POPC   C4A61170  38.157  16.152   7.319
 4787POPC   C1B61171  37.609  15.578   6.296
 4787POPC   C2B61172  37.425  15.629   6.713
 4787POPC   C3B61173  37.550  15.567   7.121
 4787POPC   C4B61174  37.427  15.845   7.432
 4788POPC   NC361175  15.073  16.781   5.325
 4788POPC   PO461176  15.628  16.635   5.157
 4788POPC   GL161177  15.295  16.601   5.695
 4788POPC   GL261178  15.197  16.963   5.795
 4788POPC   C1A61179  15.086  16.548   6.073
 4788POPC   D2A61180  15.207  16.753   6.437
 4788POPC   C3A61181  15.316  16.510   6.762
 4788POPC   C4A61182  15.244  16.463   7.168
 4788POPC   C1B61183  14.912  17.064   6.155
 4788POPC   C2B61184  15.062  17.212   6.593
 4788POPC   C3B61185  15.229  17.019   6.950
 4788POPC   C4B61186  14.970  16.863   7.261
 4789POPC   NC361187  18.229  14.430   5.431
 4789POPC   PO461188  17.809  13.897   5.261
 4789POPC   GL161189  17.919  14.000   5.730
 4789POPC   GL261190  18.144  14.264   5.892
 4789POPC   C1A61191  18.005  13.892   6.194
 4789POPC   D2A61192  18.164  14.043   6.585
 4789POPC   C3A61193  17.966  14.070   6.977
 4789POPC   C4A61194  18.143  14.190   7.356
 4789POPC   C1B61195  18.471  14.248   6.210
 4789POPC   C2B61196  18.545  14.393   6.574
 4789POPC   C3B61197  18.393  14.340   6.937
 4789POPC   C4B61198  18.411  14.604   7.244
 4790POPC   NC361199   1.738  10.227   5.256
 4790POPC   PO461200   2.421  10.401   5.295
 4790POPC   GL161201   2.141  10.340   5.680
 4790POPC   GL261202   1.768  10.350   5.750
 4790POPC   C1A61203   2.153  10.560   6.095
 4790POPC   D2A61204   2.021  10.467   6.526
 4790POPC   C3A61205   1.941  10.821   6.820
 4790POPC   C4A61206   2.003  10.785   7.259
 4790POPC   C1B61207   1.636  10.479   6.175
 4790POPC   C2B61208   1.519  10.560   6.624
 4790POPC   C3B61209   1.721  10.415   7.004
 4790POPC   C4B61210   1.601  10.306   7.392
 4791POPC   NC361211   5.649  33.848   5.260
 4791POPC   PO461212   5.067  33.671   5.261
 4791POPC   GL161213   5.148  33.660   5.724
 4791POPC   GL261214   5.264  33.345   5.800
 4791POPC   C1A61215   5.224  33.745   6.162
 4791POPC   D2A61216   4.922  33.792   6.510
 4791POPC   C3A61217   5.059  33.929   6.906
 4791POPC   C4A61218   4.942  33.838   7.332
 4791POPC   C1B61219   5.234  33.231   6.247
 4791POPC   C2B61220   5.199  33.400   6.682
 4791POPC   C3B61221   5.294  33.507   7.107
 4791POPC   C4B61222   5.454  33.817   7.378
 4792POPC   NC361223  34.014  17.820   5.512
 4792POPC   PO461224  33.754  17.181   5.495
 4792POPC   GL161225  33.634  17.432   5.868
 4792POPC   GL261226  33.825  17.742   5.961
 4792POPC   C1A61227  33.630  17.455   6.303
 4792POPC   D2A61228  33.786  17.634   6.693
 4792POPC   C3A61229  33.598  17.745   7.129
 4792POPC   C4A61230  33.500  17.612   7.572
 4792POPC   C1B61231  34.059  17.833   6.291
 4792POPC   C2B61232  34.288  17.874   6.673
 4792POPC   C3B61233  34.111  17.766   7.051
 4792POPC   C4B61234  33.999  17.836   7.443
 4793POPC   NC361235   4.181  26.038   5.422
 4793POPC   PO461236   4.693  26.355   5.563
 4793POPC   GL161237   4.390  26.206   5.890
 4793POPC   GL261238   4.028  26.113   5.899
 4793POPC   C1A61239   4.286  26.344   6.317
 4793POPC   D2A61240   4.442  26.089   6.668
 4793POPC   C3A61241   4.366  26.233   7.089
 4793POPC   C4A61242   4.242  26.163   7.531
 4793POPC   C1B61243   4.135  25.847   6.268
 4793POPC   C2B61244   4.032  25.764   6.704
 4793POPC   C3B61245   4.051  25.827   7.171
 4793POPC   C4B61246   3.789  25.928   7.538
 4794POPC   NC361247  11.160  26.877   5.539
 4794POPC   PO461248  11.685  26.524   5.589
 4794POPC   GL161249  11.546  26.902   5.866
 4794POPC   GL261250  11.189  27.027   6.004
 4794POPC   C1A61251  11.589  27.013   6.285
 4794POPC   D2A61252  11.495  26.757   6.643
 4794POPC   C3A61253  11.401  26.954   6.974
 4794POPC   C4A61254  11.499  26.886   7.364
 4794POPC   C1B61255  11.109  26.754   6.309
 4794POPC   C2B61256  10.950  26.783   6.724
 4794POPC   C3B61257  10.942  26.839   7.170
 4794POPC   C4B61258  11.135  26.549   7.422
 4795POPC   NC361259  19.847  25.672   5.334
 4795POPC   PO461260  19.698  25.081   5.550
 4795POPC   GL161261  19.616  25.248   5.912
 4795POPC   GL261262  19.500  25.535   5.799
 4795POPC   C1A61263  19.589  25.121   6.325
 4795POPC   D2A61264  19.858  25.258   6.610
 4795POPC   C3A61265  19.870  24.996   6.943
 4795POPC   C4A61266  19.659  25.009   7.299
 4795POPC   C1B61267  19.545  25.761   6.203
 4795POPC   C2B61268  19.718  25.744   6.642
 4795POPC   C3B61269  19.659  25.501   7.009
 4795POPC   C4B61270  19.473  25.484   7.363
 4796POPC   NC361271  11.672  10.266   5.662
 4796POPC   PO461272  12.105  10.484   5.218
 4796POPC   GL161273  12.018  10.646   5.632
 4796POPC   GL261274  11.930  11.004   5.708
 4796POPC   C1A61275  12.178  10.549   6.035
 4796POPC   D2A61276  12.400  10.669   6.393
 4796POPC   C3A61277  12.192  10.657   6.765
 4796POPC   C4A61278  12.200  10.675   7.194
 4796POPC   C1B61279  12.039  11.019   6.175
 4796POPC   C2B61280  11.856  10.992   6.596
 4796POPC   C3B61281  11.744  10.829   7.019
 4796POPC   C4B61282  11.878  10.980   7.454
 4797POPC   NC361283  16.990  17.599   5.400
 4797POPC   PO461284  16.603  16.971   5.384
 4797POPC   GL161285  16.471  17.198   5.805
 4797POPC   GL261286  16.351  17.549   5.755
 4797POPC   C1A61287  16.656  17.338   6.210
 4797POPC   D2A61288  17.045  17.445   6.484
 4797POPC   C3A61289  16.913  17.550   6.902
 4797POPC   C4A61290  16.754  17.372   7.254
 4797POPC   C1B61291  16.340  17.759   6.167
 4797POPC   C2B61292  16.569  17.698   6.563
 4797POPC   C3B61293  16.438  17.777   7.002
 4797POPC   C4B61294  16.600  17.842   7.387
 4798POPC   NC361295  37.089  11.834   5.493
 4798POPC   PO461296  36.533  12.277   5.502
 4798POPC   GL161297  36.823  12.146   5.798
 4798POPC   GL261298  36.711  11.800   5.801
 4798POPC   C1A61299  37.029  12.310   6.165
 4798POPC   D2A61300  36.906  12.523   6.540
 4798POPC   C3A61301  37.022  12.378   6.949
 4798POPC   C4A61302  36.923  12.291   7.386
 4798POPC   C1B61303  36.967  11.798   6.186
 4798POPC   C2B61304  37.025  11.996   6.601
 4798POPC   C3B61305  36.921  11.885   7.064
 4798POPC   C4B61306  36.680  11.852   7.476
 4799POPC   NC361307   3.683  10.705   5.689
 4799POPC   PO461308   3.309  10.237   5.357
 4799POPC   GL161309   3.457  10.271   5.849
 4799POPC   GL261310   3.795  10.347   6.063
 4799POPC   C1A61311   3.373  10.472   6.293
 4799POPC   D2A61312   3.569  10.479   6.702
 4799POPC   C3A61313   3.295  10.678   7.004
 4799POPC   C4A61314   3.294  10.657   7.457
 4799POPC   C1B61315   3.848  10.739   6.318
 4799POPC   C2B61316   3.896  10.870   6.732
 4799POPC   C3B61317   3.787  10.767   7.129
 4799POPC   C4B61318   4.081  10.746   7.426
 4800POPC   NC361319   1.550   3.046   5.398
 4800POPC   PO461320   0.986   2.646   5.329
 4800POPC   GL161321   1.129   2.876   5.698
 4800POPC   GL261322   1.442   2.755   5.814
 4800POPC   C1A61323   1.038   2.748   6.161
 4800POPC   D2A61324   1.117   2.929   6.562
 4800POPC   C3A61325   1.069   2.696   6.938
 4800POPC   C4A61326   1.238   2.731   7.328
 4800POPC   C1B61327   1.416   3.095   6.139
 4800POPC   C2B61328   1.568   3.161   6.618
 4800POPC   C3B61329   1.355   3.124   7.008
 4800POPC   C4B61330   1.178   3.249   7.393
 4801POPC   NC361331  43.715  28.761   5.498
 4801POPC   PO461332  43.986  29.362   5.455
 4801POPC   GL161333  43.765  29.152   5.821
 4801POPC   GL261334  44.026  28.888   5.898
 4801POPC   C1A61335  43.576  29.126   6.255
 4801POPC   D2A61336  43.677  29.251   6.699
 4801POPC   C3A61337  43.910  29.170   7.130
 4801POPC   C4A61338  43.995  29.300   7.599
 4801POPC   C1B61339  44.088  29.233   6.223
 4801POPC   C2B61340  44.196  29.222   6.661
 4801POPC   C3B61341  44.249  28.826   6.912
 4801POPC   C4B61342  44.058  28.691   7.283
 4802POPC   NC361343  16.478  39.741   5.671
 4802POPC   PO461344  16.700  39.221   5.285
 4802POPC   GL161345  16.799  39.221   5.762
 4802POPC   GL261346  16.954  39.549   5.812
 4802POPC   C1A61347  16.671  38.978   6.185
 4802POPC   D2A61348  16.753  38.784   6.619
 4802POPC   C3A61349  16.583  38.946   7.022
 4802POPC   C4A61350  16.555  39.176   7.403
 4802POPC   C1B61351  16.792  39.492   6.234
 4802POPC   C2B61352  16.710  39.291   6.617
 4802POPC   C3B61353  16.669  39.482   6.994
 4802POPC   C4B61354  16.933  39.524   7.314
 4803POPC   NC361355  11.332  12.535   5.307
 4803POPC   PO461356  11.546  11.883   5.475
 4803POPC   GL161357  11.276  12.127   5.743
 4803POPC   GL261358  11.450  12.418   5.805
 4803POPC   C1A61359  11.088  12.279   6.154
 4803POPC   D2A61360  11.094  12.111   6.588
 4803POPC   C3A61361  10.978  11.847   6.950
 4803POPC   C4A61362  10.890  12.051   7.327
 4803POPC   C1B61363  11.628  12.321   6.226
 4803POPC   C2B61364  11.495  12.433   6.643
 4803POPC   C3B61365  11.342  12.208   7.051
 4803POPC   C4B61366  11.337  12.191   7.525
 4804POPC   NC361367  10.714  28.678   5.441
 4804POPC   PO461368  10.455  28.022   5.482
 4804POPC   GL161369  10.423  28.365   5.732
 4804POPC   GL261370  10.753  28.499   5.913
 4804POPC   C1A61371  10.272  28.380   6.114
 4804POPC   D2A61372  10.267  28.241   6.515
 4804POPC   C3A61373  10.359  28.572   6.786
 4804POPC   C4A61374  10.342  28.557   7.216
 4804POPC   C1B61375  10.650  28.637   6.349
 4804POPC   C2B61376  10.846  28.701   6.764
 4804POPC   C3B61377  10.868  28.487   7.181
 4804POPC   C4B61378  10.960  28.755   7.589
 4805POPC   NC361379   2.088  15.789   5.460
 4805POPC   PO461380   1.529  15.703   5.141
 4805POPC   GL161381   1.648  15.884   5.673
 4805POPC   GL261382   1.942  16.128   5.816
 4805POPC   C1A61383   1.705  15.789   6.157
 4805POPC   D2A61384   1.825  15.941   6.591
 4805POPC   C3A61385   1.870  15.675   6.970
 4805POPC   C4A61386   2.061  15.749   7.351
 4805POPC   C1B61387   2.177  16.062   6.226
 4805POPC   C2B61388   2.371  16.125   6.636
 4805POPC   C3B61389   2.089  16.154   7.010
 4805POPC   C4B61390   2.115  16.311   7.444
 4806POPC   NC361391   3.027  44.383   5.187
 4806POPC   PO461392   3.505  44.123   5.608
 4806POPC   GL161393   3.559  43.800   5.924
 4806POPC   GL261394   3.740  43.480   5.800
 4806POPC   C1A61395   3.670  43.984   6.329
 4806POPC   D2A61396   3.488  44.024   6.743
 4806POPC   C3A61397   3.763  44.104   7.089
 4806POPC   C4A61398   3.549  44.148   7.486
 4806POPC   C1B61399   3.654  43.310   6.210
 4806POPC   C2B61400   3.583  43.544   6.580
 4806POPC   C3B61401   3.644  43.599   7.013
 4806POPC   C4B61402   3.847  43.309   7.253
 4807POPC   NC361403  22.715   2.806   5.245
 4807POPC   PO461404  23.249   2.446   5.280
 4807POPC   GL161405  22.968   2.624   5.683
 4807POPC   GL261406  22.946   2.369   5.932
 4807POPC   C1A61407  22.819   2.814   6.156
 4807POPC   D2A61408  22.954   2.837   6.628
 4807POPC   C3A61409  22.709   2.873   7.044
 4807POPC   C4A61410  22.931   2.943   7.438
 4807POPC   C1B61411  23.044   2.383   6.377
 4807POPC   C2B61412  22.914   2.351   6.809
 4807POPC   C3B61413  23.090   2.522   7.198
 4807POPC   C4B61414  23.207   2.544   7.661
 4808POPC   NC361415   9.167   9.083   5.375
 4808POPC   PO461416   8.712   8.597   5.321
 4808POPC   GL161417   8.897   8.778   5.741
 4808POPC   GL261418   9.105   9.080   5.862
 4808POPC   C1A61419   8.869   8.680   6.209
 4808POPC   D2A61420   8.672   8.591   6.626
 4808POPC   C3A61421   8.753   8.846   6.985
 4808POPC   C4A61422   8.971   8.741   7.359
 4808POPC   C1B61423   9.073   9.151   6.281
 4808POPC   C2B61424   9.167   8.971   6.666
 4808POPC   C3B61425   9.207   9.085   7.088
 4808POPC   C4B61426   8.952   9.259   7.434
 4809POPC   NC361427   9.148  10.128   5.584
 4809POPC   PO461428   9.071   9.531   5.305
 4809POPC   GL161429   9.044   9.610   5.742
 4809POPC   GL261430   8.788   9.843   5.860
 4809POPC   C1A61431   9.202   9.689   6.170
 4809POPC   D2A61432   9.217   9.525   6.595
 4809POPC   C3A61433   8.857   9.378   6.829
 4809POPC   C4A61434   8.737   9.644   7.163
 4809POPC   C1B61435   8.885  10.090   6.249
 4809POPC   C2B61436   9.031  10.038   6.698
 4809POPC   C3B61437   8.957  10.145   7.141
 4809POPC   C4B61438   8.948  10.202   7.589
 4810POPC   NC361439   5.930   5.287   5.506
 4810POPC   PO461440   5.879   4.615   5.620
 4810POPC   GL161441   5.756   4.970   5.905
 4810POPC   GL261442   5.929   5.312   5.997
 4810POPC   C1A61443   5.680   5.060   6.350
 4810POPC   D2A61444   5.845   5.280   6.690
 4810POPC   C3A61445   5.646   5.277   7.103
 4810POPC   C4A61446   5.596   5.222   7.578
 4810POPC   C1B61447   6.186   5.518   6.296
 4810POPC   C2B61448   6.277   5.579   6.702
 4810POPC   C3B61449   6.005   5.628   7.034
 4810POPC   C4B61450   6.060   5.422   7.453
 4811POPC   NC361451   1.543   5.330   5.259
 4811POPC   PO461452   0.997   4.956   5.269
 4811POPC   GL161453   1.141   5.006   5.733
 4811POPC   GL261454   1.500   5.013   5.702
 4811POPC   C1A61455   1.171   4.973   6.231
 4811POPC   D2A61456   0.915   4.973   6.635
 4811POPC   C3A61457   1.038   4.932   7.089
 4811POPC   C4A61458   1.067   4.828   7.532
 4811POPC   C1B61459   1.662   5.016   6.122
 4811POPC   C2B61460   1.632   4.921   6.556
 4811POPC   C3B61461   1.519   5.109   6.946
 4811POPC   C4B61462   1.375   5.238   7.355
 4812POPC   NC361463  20.529   5.343   5.410
 4812POPC   PO461464  20.652   4.659   5.516
 4812POPC   GL161465  20.687   4.999   5.810
 4812POPC   GL261466  20.382   5.191   5.866
 4812POPC   C1A61467  20.769   5.186   6.229
 4812POPC   D2A61468  20.646   5.345   6.637
 4812POPC   C3A61469  20.595   5.077   7.012
 4812POPC   C4A61470  20.673   5.088   7.456
 4812POPC   C1B61471  20.289   4.894   6.159
 4812POPC   C2B61472  20.309   4.939   6.595
 4812POPC   C3B61473  20.177   4.738   6.957
 4812POPC   C4B61474  20.423   4.672   7.300
 4813POPC   NC361475   2.392   2.022   5.399
 4813POPC   PO461476   3.018   1.818   5.330
 4813POPC   GL161477   3.017   1.891   5.778
 4813POPC   GL261478   3.231   1.622   5.842
 4813POPC   C1A61479   2.796   2.146   6.143
 4813POPC   D2A61480   2.839   2.345   6.590
 4813POPC   C3A61481   2.774   2.123   6.996
 4813POPC   C4A61482   2.387   2.002   7.223
 4813POPC   C1B61483   3.091   1.721   6.262
 4813POPC   C2B61484   3.136   1.909   6.641
 4813POPC   C3B61485   3.155   1.759   7.044
 4813POPC   C4B61486   3.066   1.937   7.441
 4814POPC   NC361487  27.787  10.235   5.193
 4814POPC   PO461488  27.372  10.679   5.466
 4814POPC   GL161489  27.300  10.541   5.858
 4814POPC   GL261490  27.482  10.863   5.915
 4814POPC   C1A61491  27.358  10.550   6.297
 4814POPC   D2A61492  27.608  10.353   6.609
 4814POPC   C3A61493  27.537  10.544   6.997
 4814POPC   C4A61494  27.614  10.362   7.394
 4814POPC   C1B61495  27.765  11.025   6.169
 4814POPC   C2B61496  27.718  10.860   6.582
 4814POPC   C3B61497  27.978  10.850   6.936
 4814POPC   C4B61498  27.777  10.871   7.327
 4815POPC   NC361499  12.805  20.245   5.573
 4815POPC   PO461500  12.458  20.748   5.473
 4815POPC   GL161501  12.690  20.643   5.886
 4815POPC   GL261502  13.071  20.643   5.801
 4815POPC   C1A61503  12.693  20.699   6.363
 4815POPC   D2A61504  12.720  20.604   6.816
 4815POPC   C3A61505  13.039  20.791   7.108
 4815POPC   C4A61506  12.857  21.042   7.454
 4815POPC   C1B61507  13.133  20.472   6.221
 4815POPC   C2B61508  13.115  20.281   6.636
 4815POPC   C3B61509  13.040  20.289   7.063
 4815POPC   C4B61510  13.202  20.447   7.463
 4816POPC   NC361511  17.688  13.157   5.403
 4816POPC   PO461512  17.105  12.799   5.419
 4816POPC   GL161513  17.387  12.919   5.746
 4816POPC   GL261514  17.727  12.718   5.687
 4816POPC   C1A61515  17.307  13.195   6.127
 4816POPC   D2A61516  17.150  13.226   6.565
 4816POPC   C3A61517  17.224  12.856   6.789
 4816POPC   C4A61518  17.311  12.811   7.234
 4816POPC   C1B61519  17.815  12.892   6.105
 4816POPC   C2B61520  17.624  13.034   6.497
 4816POPC   C3B61521  17.687  13.005   6.939
 4816POPC   C4B61522  17.841  12.694   7.250
 4817POPC   NC361523  36.413  14.868   5.404
 4817POPC   PO461524  35.810  15.177   5.503
 4817POPC   GL161525  36.171  15.172   5.760
 4817POPC   GL261526  36.322  15.500   5.829
 4817POPC   C1A61527  36.199  15.141   6.188
 4817POPC   D2A61528  35.945  15.236   6.519
 4817POPC   C3A61529  36.052  15.305   6.937
 4817POPC   C4A61530  35.896  15.152   7.324
 4817POPC   C1B61531  36.614  15.418   6.202
 4817POPC   C2B61532  36.532  15.199   6.597
 4817POPC   C3B61533  36.566  15.353   7.024
 4817POPC   C4B61534  36.336  15.582   7.286
 4818POPC   NC361535  38.604  22.780   5.429
 4818POPC   PO461536  38.012  22.631   5.699
 4818POPC   GL161537  38.375  22.775   5.892
 4818POPC   GL261538  38.319  23.110   5.972
 4818POPC   C1A61539  38.602  22.800   6.299
 4818POPC   D2A61540  38.734  22.876   6.729
 4818POPC   C3A61541  38.513  22.682   7.090
 4818POPC   C4A61542  38.299  22.750   7.487
 4818POPC   C1B61543  38.647  23.304   6.216
 4818POPC   C2B61544  38.593  23.498   6.620
 4818POPC   C3B61545  38.491  23.252   6.989
 4818POPC   C4B61546  38.702  23.115   7.361
 4819POPC   NC361547   3.377  40.385   5.443
 4819POPC   PO461548   3.628  41.086   5.518
 4819POPC   GL161549   3.363  40.838   5.752
 4819POPC   GL261550   3.637  40.672   5.843
 4819POPC   C1A61551   3.284  40.798   6.197
 4819POPC   D2A61552   3.174  40.562   6.564
 4819POPC   C3A61553   3.247  40.762   6.942
 4819POPC   C4A61554   3.419  40.588   7.301
 4819POPC   C1B61555   3.754  40.525   6.232
 4819POPC   C2B61556   3.827  40.705   6.595
 4819POPC   C3B61557   3.774  40.795   6.998
 4819POPC   C4B61558   3.999  41.046   7.211
 4820POPC   NC361559  38.158  27.665   5.212
 4820POPC   PO461560  37.708  27.402   5.546
 4820POPC   GL161561  37.664  27.731   5.828
 4820POPC   GL261562  37.399  28.001   5.790
 4820POPC   C1A61563  37.698  27.578   6.240
 4820POPC   D2A61564  37.851  27.417   6.577
 4820POPC   C3A61565  37.622  27.443   6.947
 4820POPC   C4A61566  37.670  27.605   7.350
 4820POPC   C1B61567  37.617  28.067   6.202
 4820POPC   C2B61568  37.527  27.913   6.626
 4820POPC   C3B61569  37.678  27.996   7.015
 4820POPC   C4B61570  37.463  28.067   7.401
 4821POPC   NC361571  31.362   1.015   5.277
 4821POPC   PO461572  31.562   1.621   5.286
 4821POPC   GL161573  31.571   1.408   5.698
 4821POPC   GL261574  31.496   1.034   5.777
 4821POPC   C1A61575  31.555   1.379   6.158
 4821POPC   D2A61576  31.612   1.574   6.565
 4821POPC   C3A61577  31.606   1.283   6.916
 4821POPC   C4A61578  31.765   1.501   7.242
 4821POPC   C1B61579  31.255   0.932   6.187
 4821POPC   C2B61580  31.337   0.926   6.628
 4821POPC   C3B61581  31.119   1.019   7.020
 4821POPC   C4B61582  31.386   1.138   7.391
 4822POPC   NC361583  28.768  19.699   5.383
 4822POPC   PO461584  28.099  19.737   5.467
 4822POPC   GL161585  28.335  19.857   5.826
 4822POPC   GL261586  28.552  19.641   5.835
 4822POPC   C1A61587  28.413  20.003   6.255
 4822POPC   D2A61588  28.340  20.159   6.667
 4822POPC   C3A61589  28.488  20.003   7.075
 4822POPC   C4A61590  28.339  20.114   7.503
 4822POPC   C1B61591  28.399  19.501   6.222
 4822POPC   C2B61592  28.559  19.592   6.649
 4822POPC   C3B61593  28.321  19.512   7.006
 4822POPC   C4B61594  28.302  19.601   7.420
 4823POPC   NC361595  22.142   8.461   5.510
 4823POPC   PO461596  22.418   7.813   5.606
 4823POPC   GL161597  22.339   8.081   5.912
 4823POPC   GL261598  22.009   8.083   5.944
 4823POPC   C1A61599  22.275   8.055   6.364
 4823POPC   D2A61600  22.226   7.832   6.703
 4823POPC   C3A61601  22.483   8.031   7.011
 4823POPC   C4A61602  22.520   8.378   7.249
 4823POPC   C1B61603  21.738   8.137   6.355
 4823POPC   C2B61604  21.652   8.154   6.842
 4823POPC   C3B61605  21.989   8.298   7.146
 4823POPC   C4B61606  22.160   8.748   7.227
 4824POPC   NC361607  26.846  15.983   5.403
 4824POPC   PO461608  26.655  15.341   5.163
 4824POPC   GL161609  26.742  15.534   5.673
 4824POPC   GL261610  27.006  15.671   5.803
 4824POPC   C1A61611  26.532  15.571   6.125
 4824POPC   D2A61612  26.737  15.713   6.522
 4824POPC   C3A61613  26.558  15.723   6.952
 4824POPC   C4A61614  26.679  16.069   7.236
 4824POPC   C1B61615  26.800  16.007   6.067
 4824POPC   C2B61616  26.907  16.224   6.439
 4824POPC   C3B61617  27.008  16.185   6.864
 4824POPC   C4B61618  27.084  16.425   7.241
 4825POPC   NC361619  42.021  33.432   5.325
 4825POPC   PO461620  42.426  32.941   5.332
 4825POPC   GL161621  42.287  33.141   5.725
 4825POPC   GL261622  42.237  32.807   5.863
 4825POPC   C1A61623  42.178  33.212   6.181
 4825POPC   D2A61624  41.880  33.260   6.533
 4825POPC   C3A61625  42.036  33.056   6.907
 4825POPC   C4A61626  42.200  33.215   7.293
 4825POPC   C1B61627  42.588  32.890   6.162
 4825POPC   C2B61628  42.586  32.846   6.619
 4825POPC   C3B61629  42.536  32.887   7.097
 4825POPC   C4B61630  42.536  32.918   7.570
 4826POPC   NC361631  31.662  20.109   5.749
 4826POPC   PO461632  31.490  19.771   5.274
 4826POPC   GL161633  31.331  19.722   5.735
 4826POPC   GL261634  31.623  19.600   5.870
 4826POPC   C1A61635  31.330  19.854   6.239
 4826POPC   D2A61636  31.541  20.138   6.594
 4826POPC   C3A61637  31.475  19.994   7.024
 4826POPC   C4A61638  31.246  19.647   7.195
 4826POPC   C1B61639  31.715  19.515   6.277
 4826POPC   C2B61640  31.679  19.650   6.694
 4826POPC   C3B61641  31.750  19.569   7.117
 4826POPC   C4B61642  31.578  19.363   7.508
 4827POPC   NC361643  43.509   9.256   5.365
 4827POPC   PO461644  44.124   8.933   5.358
 4827POPC   GL161645  44.017   8.944   5.800
 4827POPC   GL261646  43.694   9.064   5.829
 4827POPC   C1A61647  44.056   8.817   6.231
 4827POPC   D2A61648  43.739   8.944   6.557
 4827POPC   C3A61649  43.885   9.074   6.961
 4827POPC   C4A61650  43.900   8.969   7.391
 4827POPC   C1B61651  43.877   9.313   6.172
 4827POPC   C2B61652  43.787   9.481   6.570
 4827POPC   C3B61653  43.574   9.476   6.972
 4827POPC   C4B61654  43.856   9.480   7.320
 4828POPC   NC361655  30.146  26.016   5.365
 4828POPC   PO461656  29.488  26.093   5.542
 4828POPC   GL161657  29.846  26.160   5.811
 4828POPC   GL261658  30.017  25.851   5.833
 4828POPC   C1A61659  29.840  26.055   6.273
 4828POPC   D2A61660  29.734  26.241   6.622
 4828POPC   C3A61661  29.684  26.021   6.984
 4828POPC   C4A61662  29.768  26.177   7.391
 4828POPC   C1B61663  30.146  25.668   6.206
 4828POPC   C2B61664  29.992  25.709   6.644
 4828POPC   C3B61665  30.116  25.720   7.065
 4828POPC   C4B61666  30.141  25.715   7.556
 4829POPC   NC361667   3.845   6.821   5.500
 4829POPC   PO461668   3.156   6.946   5.552
 4829POPC   GL161669   3.459   6.779   5.873
 4829POPC   GL261670   3.670   6.484   5.849
 4829POPC   C1A61671   3.405   6.658   6.309
 4829POPC   D2A61672   3.270   6.342   6.606
 4829POPC   C3A61673   3.440   6.404   7.024
 4829POPC   C4A61674   3.253   6.584   7.364
 4829POPC   C1B61675   3.880   6.518   6.234
 4829POPC   C2B61676   3.766   6.630   6.672
 4829POPC   C3B61677   3.738   6.841   7.055
 4829POPC   C4B61678   3.741   6.744   7.497
 4830POPC   NC361679  35.778  28.244   5.578
 4830POPC   PO461680  36.382  28.349   5.316
 4830POPC   GL161681  36.268  28.400   5.778
 4830POPC   GL261682  35.981  28.635   5.854
 4830POPC   C1A61683  36.127  28.299   6.220
 4830POPC   D2A61684  36.038  28.260   6.667
 4830POPC   C3A61685  35.839  28.595   6.899
 4830POPC   C4A61686  35.996  28.525   7.292
 4830POPC   C1B61687  35.901  28.797   6.270
 4830POPC   C2B61688  36.170  28.937   6.609
 4830POPC   C3B61689  36.338  28.786   7.009
 4830POPC   C4B61690  36.437  28.761   7.423
 4831POPC   NC361691  44.137   6.174   5.531
 4831POPC   PO461692  44.224   5.547   5.531
 4831POPC   GL161693  44.050   5.774   5.871
 4831POPC   GL261694  43.723   5.968   5.811
 4831POPC   C1A61695  44.011   6.019   6.228
 4831POPC   D2A61696  43.737   6.010   6.559
 4831POPC   C3A61697  43.929   6.016   6.949
 4831POPC   C4A61698  44.246   5.899   7.231
 4831POPC   C1B61699  43.618   5.671   6.185
 4831POPC   C2B61700  43.610   5.516   6.643
 4831POPC   C3B61701  43.811   5.531   7.067
 4831POPC   C4B61702  43.708   5.820   7.379
 4832POPC   NC361703  36.888  10.150   5.438
 4832POPC   PO461704  36.834  10.838   5.277
 4832POPC   GL161705  36.928  10.789   5.679
 4832POPC   GL261706  36.668  10.544   5.715
 4832POPC   C1A61707  36.821  10.852   6.103
 4832POPC   D2A61708  36.924  10.688   6.495
 4832POPC   C3A61709  36.713  10.824   6.886
 4832POPC   C4A61710  36.876  10.665   7.299
 4832POPC   C1B61711  36.820  10.337   6.107
 4832POPC   C2B61712  36.916  10.167   6.520
 4832POPC   C3B61713  36.936  10.345   6.916
 4832POPC   C4B61714  37.025  10.164   7.305
 4833POPC   NC361715  27.542  27.867   5.684
 4833POPC   PO461716  27.892  27.416   5.354
 4833POPC   GL161717  27.888  27.476   5.811
 4833POPC   GL261718  27.926  27.804   6.012
 4833POPC   C1A61719  27.951  27.297   6.214
 4833POPC   D2A61720  27.671  27.210   6.546
 4833POPC   C3A61721  27.589  27.418   6.953
 4833POPC   C4A61722  27.829  27.784   7.145
 4833POPC   C1B61723  27.646  27.712   6.345
 4833POPC   C2B61724  27.508  27.879   6.723
 4833POPC   C3B61725  27.344  27.852   7.137
 4833POPC   C4B61726  27.471  27.878   7.598
 4834POPC   NC361727   1.417  40.875   5.505
 4834POPC   PO461728   2.024  40.737   5.155
 4834POPC   GL161729   2.103  40.589   5.654
 4834POPC   GL261730   2.426  40.572   5.872
 4834POPC   C1A61731   1.975  40.540   6.139
 4834POPC   D2A61732   2.049  40.562   6.607
 4834POPC   C3A61733   1.754  40.617   6.985
 4834POPC   C4A61734   1.757  40.921   7.364
 4834POPC   C1B61735   2.372  40.878   6.243
 4834POPC   C2B61736   2.306  41.020   6.682
 4834POPC   C3B61737   2.245  40.781   7.043
 4834POPC   C4B61738   2.253  40.774   7.461
 4835POPC   NC361739  31.698  10.219   5.307
 4835POPC   PO461740  31.178   9.749   5.386
 4835POPC   GL161741  31.331   9.715   5.771
 4835POPC   GL261742  31.636   9.895   5.745
 4835POPC   C1A61743  31.330   9.895   6.170
 4835POPC   D2A61744  31.557   9.812   6.544
 4835POPC   C3A61745  31.343   9.976   6.902
 4835POPC   C4A61746  31.237   9.830   7.318
 4835POPC   C1B61747  31.769   9.600   6.083
 4835POPC   C2B61748  31.983   9.504   6.478
 4835POPC   C3B61749  31.892   9.441   6.913
 4835POPC   C4B61750  31.732   9.795   7.182
 4836POPC   NC361751  36.501  39.926   5.131
 4836POPC   PO461752  36.942  39.561   5.570
 4836POPC   GL161753  36.953  39.776   5.939
 4836POPC   GL261754  36.969  40.141   5.762
 4836POPC   C1A61755  36.748  39.790   6.320
 4836POPC   D2A61756  36.727  39.978   6.706
 4836POPC   C3A61757  36.989  39.773   6.975
 4836POPC   C4A61758  36.736  39.624   7.257
 4836POPC   C1B61759  36.792  40.278   6.133
 4836POPC   C2B61760  36.785  40.467   6.509
 4836POPC   C3B61761  36.682  40.452   6.913
 4836POPC   C4B61762  36.827  40.196   7.218
 4837POPC   NC361763  35.276   0.424   5.422
 4837POPC   PO461764  35.639   0.931   5.424
 4837POPC   GL161765  35.581   0.760   5.828
 4837POPC   GL261766  35.548   0.408   5.891
 4837POPC   C1A61767  35.348   0.763   6.190
 4837POPC   D2A61768  35.495   0.820   6.593
 4837POPC   C3A61769  35.240   0.693   6.903
 4837POPC   C4A61770  35.154   0.286   7.138
 4837POPC   C1B61771  35.673   0.364   6.343
 4837POPC   C2B61772  35.536   0.225   6.756
 4837POPC   C3B61773  35.643   0.128   7.180
 4837POPC   C4B61774  35.738  44.904   7.565
 4838POPC   NC361775  21.963   7.727   5.514
 4838POPC   PO461776  22.114   7.056   5.276
 4838POPC   GL161777  22.152   7.195   5.725
 4838POPC   GL261778  22.132   7.540   5.950
 4838POPC   C1A61779  22.148   7.078   6.159
 4838POPC   D2A61780  22.082   7.367   6.477
 4838POPC   C3A61781  22.068   7.235   6.884
 4838POPC   C4A61782  22.044   7.283   7.321
 4838POPC   C1B61783  22.487   7.604   6.252
 4838POPC   C2B61784  22.631   7.491   6.665
 4838POPC   C3B61785  22.424   7.540   7.075
 4838POPC   C4B61786  22.035   7.779   7.176
 4839POPC   NC361787  16.527  36.289   5.488
 4839POPC   PO461788  16.758  35.743   5.182
 4839POPC   GL161789  16.792  35.856   5.659
 4839POPC   GL261790  16.980  36.197   5.725
 4839POPC   C1A61791  16.640  35.918   6.122
 4839POPC   D2A61792  16.651  35.812   6.603
 4839POPC   C3A61793  16.698  36.018   6.987
 4839POPC   C4A61794  16.541  36.179   7.315
 4839POPC   C1B61795  16.996  36.291   6.174
 4839POPC   C2B61796  16.961  36.239   6.614
 4839POPC   C3B61797  17.131  36.307   7.027
 4839POPC   C4B61798  17.095  36.087   7.406
 4840POPC   NC361799  20.996   4.596   5.207
 4840POPC   PO461800  20.421   4.162   5.403
 4840POPC   GL161801  20.623   4.190   5.797
 4840POPC   GL261802  20.545   4.487   5.968
 4840POPC   C1A61803  20.508   4.049   6.223
 4840POPC   D2A61804  20.752   3.931   6.575
 4840POPC   C3A61805  20.608   4.018   6.945
 4840POPC   C4A61806  20.677   4.232   7.323
 4840POPC   C1B61807  20.605   4.546   6.409
 4840POPC   C2B61808  20.689   4.548   6.869
 4840POPC   C3B61809  20.938   4.690   7.245
 4840POPC   C4B61810  20.748   4.658   7.696
 4841POPC   NC361811   1.137  22.146   5.381
 4841POPC   PO461812   1.481  22.731   5.196
 4841POPC   GL161813   1.414  22.391   5.708
 4841POPC   GL261814   1.335  22.053   5.847
 4841POPC   C1A61815   1.202  22.418   6.188
 4841POPC   D2A61816   1.050  22.273   6.605
 4841POPC   C3A61817   1.189  22.441   6.996
 4841POPC   C4A61818   0.972  22.422   7.415
 4841POPC   C1B61819   1.071  21.893   6.238
 4841POPC   C2B61820   0.959  21.775   6.706
 4841POPC   C3B61821   1.004  21.995   7.127
 4841POPC   C4B61822   0.981  21.970   7.628
 4842POPC   NC361823   4.679  35.864   5.395
 4842POPC   PO461824   4.104  36.252   5.360
 4842POPC   GL161825   4.353  36.129   5.676
 4842POPC   GL261826   4.218  35.796   5.673
 4842POPC   C1A61827   4.456  36.251   6.091
 4842POPC   D2A61828   4.216  36.295   6.463
 4842POPC   C3A61829   4.384  36.327   6.874
 4842POPC   C4A61830   4.590  36.239   7.255
 4842POPC   C1B61831   4.471  35.739   6.026
 4842POPC   C2B61832   4.474  35.833   6.455
 4842POPC   C3B61833   4.599  35.838   6.890
 4842POPC   C4B61834   4.657  35.731   7.319
 4843POPC   NC361835   8.719  44.564   5.510
 4843POPC   PO461836   9.350  44.990   5.412
 4843POPC   GL161837   9.221  44.894   5.870
 4843POPC   GL261838   8.867  44.746   5.969
 4843POPC   C1A61839   9.091   0.050   6.299
 4843POPC   D2A61840   8.782  44.890   6.614
 4843POPC   C3A61841   8.884   0.012   7.034
 4843POPC   C4A61842   9.270  44.977   7.240
 4843POPC   C1B61843   8.984  44.492   6.327
 4843POPC   C2B61844   9.104  44.265   6.714
 4843POPC   C3B61845   9.086  44.489   7.096
 4843POPC   C4B61846   9.367  44.540   7.462
 4844POPC   NC361847  44.976   5.632   5.473
 4844POPC   PO461848  44.594   6.262   5.481
 4844POPC   GL161849  44.575   5.913   5.810
 4844POPC   GL261850  44.946   5.880   5.922
 4844POPC   C1A61851  44.530   5.778   6.276
 4844POPC   D2A61852  44.779   6.020   6.595
 4844POPC   C3A61853  44.713   6.099   7.060
 4844POPC   C4A61854  44.871   6.148   7.504
 4844POPC   C1B61855   0.014   5.457   6.115
 4844POPC   C2B61856  44.888   5.424   6.516
 4844POPC   C3B61857  44.946   5.628   6.891
 4844POPC   C4B61858  44.718   5.622   7.252
 4845POPC   NC361859   8.828   6.699   5.550
 4845POPC   PO461860   9.041   6.084   5.517
 4845POPC   GL161861   9.184   6.411   5.827
 4845POPC   GL261862   9.278   6.771   5.830
 4845POPC   C1A61863   8.979   6.595   6.211
 4845POPC   D2A61864   9.164   6.560   6.622
 4845POPC   C3A61865   8.852   6.533   6.912
 4845POPC   C4A61866   8.583   6.647   7.245
 4845POPC   C1B61867   9.174   7.055   6.175
 4845POPC   C2B61868   8.948   7.037   6.538
 4845POPC   C3B61869   9.102   7.006   6.948
 4845POPC   C4B61870   9.186   6.709   7.267
 4846POPC   NC361871  34.483  18.309   5.432
 4846POPC   PO461872  33.824  18.264   5.456
 4846POPC   GL161873  34.152  18.199   5.857
 4846POPC   GL261874  34.519  18.382   5.920
 4846POPC   C1A61875  34.251  18.307   6.326
 4846POPC   D2A61876  34.680  18.193   6.439
 4846POPC   C3A61877  34.758  17.982   6.812
 4846POPC   C4A61878  34.489  18.048   7.211
 4846POPC   C1B61879  34.742  18.658   6.219
 4846POPC   C2B61880  34.710  18.804   6.651
 4846POPC   C3B61881  34.653  18.464   6.955
 4846POPC   C4B61882  34.979  18.214   7.189
 4847POPC   NC361883  22.629  33.930   5.354
 4847POPC   PO461884  23.250  33.758   5.494
 4847POPC   GL161885  22.933  33.739   5.806
 4847POPC   GL261886  22.625  33.888   5.855
 4847POPC   C1A61887  22.856  33.685   6.262
 4847POPC   D2A61888  23.171  33.810   6.540
 4847POPC   C3A61889  23.213  33.703   6.973
 4847POPC   C4A61890  22.841  33.766   7.221
 4847POPC   C1B61891  22.918  34.160   6.099
 4847POPC   C2B61892  22.876  34.287   6.521
 4847POPC   C3B61893  22.977  34.160   6.936
 4847POPC   C4B61894  22.949  34.272   7.379
 4848POPC   NC361895  32.050  11.852   5.215
 4848POPC   PO461896  32.323  12.455   5.354
 4848POPC   GL161897  32.251  12.089   5.643
 4848POPC   GL261898  32.021  12.177   5.863
 4848POPC   C1A61899  32.427  12.001   6.088
 4848POPC   D2A61900  32.346  11.771   6.486
 4848POPC   C3A61901  32.255  11.982   6.889
 4848POPC   C4A61902  32.411  11.888   7.309
 4848POPC   C1B61903  31.801  12.346   6.199
 4848POPC   C2B61904  31.823  12.133   6.574
 4848POPC   C3B61905  31.839  12.297   6.970
 4848POPC   C4B61906  31.911  12.066   7.301
 4849POPC   NC361907  18.416   6.559   5.542
 4849POPC   PO461908  17.921   7.074   5.437
 4849POPC   GL161909  18.076   6.820   5.865
 4849POPC   GL261910  18.194   6.440   5.993
 4849POPC   C1A61911  18.134   6.828   6.329
 4849POPC   D2A61912  17.864   6.907   6.687
 4849POPC   C3A61913  18.012   6.724   7.054
 4849POPC   C4A61914  18.143   6.936   7.411
 4849POPC   C1B61915  18.464   6.403   6.346
 4849POPC   C2B61916  18.409   6.497   6.808
 4849POPC   C3B61917  18.405   6.398   7.259
 4849POPC   C4B61918  18.404   6.213   7.687
 4850POPC   NC361919  38.035  23.052   5.506
 4850POPC   PO461920  37.477  22.602   5.355
 4850POPC   GL161921  37.548  22.813   5.798
 4850POPC   GL261922  37.808  23.043   5.955
 4850POPC   C1A61923  37.405  22.923   6.234
 4850POPC   D2A61924  37.652  22.867   6.601
 4850POPC   C3A61925  37.449  22.905   6.968
 4850POPC   C4A61926  37.649  22.881   7.336
 4850POPC   C1B61927  38.048  22.826   6.292
 4850POPC   C2B61928  38.230  22.763   6.668
 4850POPC   C3B61929  38.040  22.867   7.021
 4850POPC   C4B61930  38.072  23.183   7.307
 4851POPC   NC361931  27.822  12.265   5.391
 4851POPC   PO461932  27.087  12.316   5.403
 4851POPC   GL161933  27.373  12.244   5.776
 4851POPC   GL261934  27.339  11.901   5.960
 4851POPC   C1A61935  27.577  12.317   6.201
 4851POPC   D2A61936  27.533  12.061   6.587
 4851POPC   C3A61937  27.543  12.248   7.001
 4851POPC   C4A61938  27.349  12.028   7.349
 4851POPC   C1B61939  27.789  11.877   6.148
 4851POPC   C2B61940  27.959  11.768   6.574
 4851POPC   C3B61941  27.732  11.759   6.994
 4851POPC   C4B61942  27.807  11.859   7.443
 4852POPC   NC361943  37.286   4.998   5.440
 4852POPC   PO461944  36.587   4.969   5.378
 4852POPC   GL161945  36.853   4.912   5.741
 4852POPC   GL261946  36.949   5.210   5.877
 4852POPC   C1A61947  37.075   4.721   6.114
 4852POPC   D2A61948  36.968   4.493   6.469
 4852POPC   C3A61949  36.880   4.723   6.839
 4852POPC   C4A61950  37.125   4.921   7.114
 4852POPC   C1B61951  36.969   5.157   6.342
 4852POPC   C2B61952  36.891   5.229   6.775
 4852POPC   C3B61953  37.020   5.417   7.192
 4852POPC   C4B61954  36.796   5.509   7.538
 4853POPC   NC361955  22.593  41.117   5.121
 4853POPC   PO461956  23.096  40.727   5.402
 4853POPC   GL161957  23.023  40.855   5.832
 4853POPC   GL261958  22.880  40.525   5.978
 4853POPC   C1A61959  22.947  40.996   6.243
 4853POPC   D2A61960  22.990  40.639   6.498
 4853POPC   C3A61961  22.986  40.707   6.913
 4853POPC   C4A61962  22.926  41.028   7.242
 4853POPC   C1B61963  22.514  40.752   6.204
 4853POPC   C2B61964  22.573  40.966   6.608
 4853POPC   C3B61965  22.487  40.774   6.979
 4853POPC   C4B61966  22.677  40.591   7.326
 4854POPC   NC361967   3.743   2.833   5.337
 4854POPC   PO461968   3.289   2.796   5.876
 4854POPC   GL161969   3.629   2.849   6.022
 4854POPC   GL261970   3.753   2.553   5.821
 4854POPC   C1A61971   3.603   2.886   6.472
 4854POPC   D2A61972   3.328   2.526   6.629
 4854POPC   C3A61973   3.088   2.585   6.987
 4854POPC   C4A61974   3.296   2.926   7.146
 4854POPC   C1B61975   3.936   2.531   6.259
 4854POPC   C2B61976   3.838   2.523   6.733
 4854POPC   C3B61977   3.683   2.600   7.152
 4854POPC   C4B61978   3.899   2.529   7.609
 4855POPC   NC361979  22.697  12.876   5.615
 4855POPC   PO461980  23.188  12.716   5.409
 4855POPC   GL161981  23.207  12.979   5.814
 4855POPC   GL261982  22.984  13.297   5.854
 4855POPC   C1A61983  23.063  13.038   6.275
 4855POPC   D2A61984  22.916  13.220   6.670
 4855POPC   C3A61985  22.982  12.899   6.968
 4855POPC   C4A61986  22.820  12.578   7.289
 4855POPC   C1B61987  22.635  13.306   6.208
 4855POPC   C2B61988  22.406  13.373   6.635
 4855POPC   C3B61989  22.567  13.366   7.059
 4855POPC   C4B61990  22.741  13.082   7.364
 4856POPC   NC361991  43.342  14.117   5.580
 4856POPC   PO461992  42.962  14.697   5.389
 4856POPC   GL161993  42.957  14.434   5.749
 4856POPC   GL261994  42.756  14.134   5.683
 4856POPC   C1A61995  42.922  14.469   6.209
 4856POPC   D2A61996  42.673  14.600   6.587
 4856POPC   C3A61997  42.895  14.547   6.989
 4856POPC   C4A61998  43.281  14.322   7.163
 4856POPC   C1B61999  42.705  14.016   6.148
 4856POPC   C2B62000  42.867  14.089   6.623
 4856POPC   C3B62001  42.870  14.032   7.117
 4856POPC   C4B62002  42.824  14.069   7.610
 4857POPC   NC362003  39.341  27.404   5.339
 4857POPC   PO462004  39.564  28.013   5.564
 4857POPC   GL162005  39.325  27.718   5.821
 4857POPC   GL262006  39.048  27.473   5.751
 4857POPC   C1A62007  39.408  27.519   6.210
 4857POPC   D2A62008  39.639  27.524   6.587
 4857POPC   C3A62009  39.313  27.486   6.883
 4857POPC   C4A62010  39.106  27.779   7.147
 4857POPC   C1B62011  39.015  27.180   6.111
 4857POPC   C2B62012  39.236  27.097   6.507
 4857POPC   C3B62013  39.025  27.050   6.895
 4857POPC   C4B62014  39.067  27.288   7.285
 4858POPC   NC362015  36.429  20.089   5.151
 4858POPC   PO462016  36.136  19.518   5.384
 4858POPC   GL162017  36.089  19.719   5.751
 4858POPC   GL262018  36.292  19.432   5.875
 4858POPC   C1A62019  36.139  20.009   6.129
 4858POPC   D2A62020  36.237  19.884   6.564
 4858POPC   C3A62021  36.066  20.076   6.939
 4858POPC   C4A62022  36.132  19.969   7.375
 4858POPC   C1B62023  35.942  19.477   6.187
 4858POPC   C2B62024  36.016  19.401   6.619
 4858POPC   C3B62025  36.174  19.546   7.026
 4858POPC   C4B62026  36.498  19.294   7.222
 4859POPC   NC362027   2.801  31.931   5.420
 4859POPC   PO462028   3.155  31.330   5.405
 4859POPC   GL162029   2.900  31.463   5.742
 4859POPC   GL262030   3.052  31.769   5.828
 4859POPC   C1A62031   2.815  31.228   6.142
 4859POPC   D2A62032   2.584  31.110   6.521
 4859POPC   C3A62033   2.719  31.293   6.859
 4859POPC   C4A62034   2.648  31.281   7.267
 4859POPC   C1B62035   2.780  31.743   6.162
 4859POPC   C2B62036   2.688  31.720   6.563
 4859POPC   C3B62037   2.880  31.827   6.926
 4859POPC   C4B62038   2.781  31.817   7.349
 4860POPC   NC362039  18.982  34.522   5.333
 4860POPC   PO462040  19.486  34.779   5.604
 4860POPC   GL162041  19.313  34.492   5.835
 4860POPC   GL262042  18.966  34.538   5.833
 4860POPC   C1A62043  19.238  34.539   6.260
 4860POPC   D2A62044  19.090  34.813   6.575
 4860POPC   C3A62045  19.301  34.732   6.942
 4860POPC   C4A62046  19.148  34.682   7.352
 4860POPC   C1B62047  18.765  34.718   6.189
 4860POPC   C2B62048  18.613  34.593   6.576
 4860POPC   C3B62049  18.779  34.678   6.986
 4860POPC   C4B62050  18.667  34.486   7.366
 4861POPC   NC362051  42.608   8.653   5.161
 4861POPC   PO462052  42.459   9.161   5.613
 4861POPC   GL162053  42.372   8.877   5.919
 4861POPC   GL262054  42.377   8.557   5.749
 4861POPC   C1A62055  42.265   8.921   6.331
 4861POPC   D2A62056  42.421   9.089   6.738
 4861POPC   C3A62057  42.336   8.926   7.154
 4861POPC   C4A62058  42.100   8.932   7.529
 4861POPC   C1B62059  42.622   8.506   6.165
 4861POPC   C2B62060  42.728   8.762   6.499
 4861POPC   C3B62061  42.729   8.712   6.908
 4861POPC   C4B62062  42.682   8.576   7.304
 4862POPC   NC362063   7.437  25.117   5.431
 4862POPC   PO462064   7.106  25.641   5.304
 4862POPC   GL162065   7.182  25.424   5.744
 4862POPC   GL262066   7.527  25.374   5.874
 4862POPC   C1A62067   7.171  25.154   6.147
 4862POPC   D2A62068   7.195  25.304   6.590
 4862POPC   C3A62069   7.223  25.031   6.940
 4862POPC   C4A62070   7.528  24.947   7.249
 4862POPC   C1B62071   7.728  25.578   6.232
 4862POPC   C2B62072   7.757  25.582   6.681
 4862POPC   C3B62073   7.491  25.452   7.025
 4862POPC   C4B62074   7.667  25.458   7.427
 4863POPC   NC362075   0.550  20.077   5.421
 4863POPC   PO462076   0.290  20.707   5.456
 4863POPC   GL162077   0.332  20.493   5.826
 4863POPC   GL262078   0.656  20.396   5.859
 4863POPC   C1A62079   0.291  20.515   6.243
 4863POPC   D2A62080   0.492  20.348   6.607
 4863POPC   C3A62081   0.342  20.407   7.046
 4863POPC   C4A62082   0.449  20.735   7.374
 4863POPC   C1B62083   0.633  20.846   6.076
 4863POPC   C2B62084   0.502  20.872   6.535
 4863POPC   C3B62085   0.705  20.743   6.916
 4863POPC   C4B62086   0.960  20.770   7.276
 4864POPC   NC362087  25.907  28.524   5.242
 4864POPC   PO462088  26.183  27.990   5.400
 4864POPC   GL162089  26.184  28.171   5.769
 4864POPC   GL262090  25.923  28.416   5.755
 4864POPC   C1A62091  25.974  28.100   6.157
 4864POPC   D2A62092  26.011  28.258   6.513
 4864POPC   C3A62093  26.323  28.174   6.805
 4864POPC   C4A62094  26.091  28.132   7.170
 4864POPC   C1B62095  26.222  28.566   6.097
 4864POPC   C2B62096  26.119  28.743   6.506
 4864POPC   C3B62097  25.964  28.570   6.906
 4864POPC   C4B62098  26.246  28.661   7.188
 4865POPC   NC362099  14.731  22.953   5.424
 4865POPC   PO462100  14.144  22.900   5.377
 4865POPC   GL162101  14.366  22.787   5.771
 4865POPC   GL262102  14.200  22.544   5.998
 4865POPC   C1A62103  14.464  22.927   6.230
 4865POPC   D2A62104  14.637  22.930   6.680
 4865POPC   C3A62105  14.494  23.153   7.072
 4865POPC   C4A62106  14.544  23.238   7.534
 4865POPC   C1B62107  14.147  22.594   6.482
 4865POPC   C2B62108  14.269  22.636   6.951
 4865POPC   C3B62109  14.225  22.593   7.422
 4865POPC   C4B62110  14.487  22.762   7.794
 4866POPC   NC362111  17.473  27.283   5.367
 4866POPC   PO462112  17.319  27.918   5.411
 4866POPC   GL162113  17.543  27.666   5.727
 4866POPC   GL262114  17.342  27.398   5.841
 4866POPC   C1A62115  17.749  27.532   6.107
 4866POPC   D2A62116  17.557  27.390   6.483
 4866POPC   C3A62117  17.711  27.374   6.876
 4866POPC   C4A62118  17.625  27.688   7.132
 4866POPC   C1B62119  17.157  27.245   6.193
 4866POPC   C2B62120  17.121  27.181   6.607
 4866POPC   C3B62121  17.206  27.416   6.959
 4866POPC   C4B62122  17.412  27.248   7.322
 4867POPC   NC362123   4.418  36.580   5.412
 4867POPC   PO462124   4.324  37.211   5.416
 4867POPC   GL162125   4.215  37.043   5.781
 4867POPC   GL262126   4.127  37.326   5.912
 4867POPC   C1A62127   4.276  36.744   6.106
 4867POPC   D2A62128   4.409  36.756   6.543
 4867POPC   C3A62129   4.246  36.831   6.952
 4867POPC   C4A62130   4.199  36.567   7.324
 4867POPC   C1B62131   4.257  37.199   6.322
 4867POPC   C2B62132   3.972  37.189   6.666
 4867POPC   C3B62133   3.848  37.320   7.056
 4867POPC   C4B62134   4.083  37.149   7.340
 4868POPC   NC362135  11.002   4.876   5.544
 4868POPC   PO462136  11.670   4.663   5.540
 4868POPC   GL162137  11.395   4.856   5.910
 4868POPC   GL262138  11.025   5.006   6.010
 4868POPC   C1A62139  11.493   5.017   6.322
 4868POPC   D2A62140  11.751   4.933   6.701
 4868POPC   C3A62141  11.517   4.915   7.064
 4868POPC   C4A62142  11.082   4.803   7.123
 4868POPC   C1B62143  10.952   5.073   6.390
 4868POPC   C2B62144  11.169   5.084   6.709
 4868POPC   C3B62145  11.197   5.315   7.027
 4868POPC   C4B62146  11.261   5.329   7.433
 4869POPC   NC362147  13.848  19.217   5.423
 4869POPC   PO462148  13.176  19.199   5.594
 4869POPC   GL162149  13.435  19.128   5.957
 4869POPC   GL262150  13.791  19.229   5.925
 4869POPC   C1A62151  13.528  18.973   6.379
 4869POPC   D2A62152  13.557  18.709   6.732
 4869POPC   C3A62153  13.549  18.936   7.101
 4869POPC   C4A62154  13.218  19.168   7.262
 4869POPC   C1B62155  14.014  19.238   6.320
 4869POPC   C2B62156  13.939  19.080   6.745
 4869POPC   C3B62157  13.923  19.309   7.126
 4869POPC   C4B62158  13.669  19.259   7.496
 4870POPC   NC362159  32.569  28.899   5.562
 4870POPC   PO462160  33.153  29.251   5.652
 4870POPC   GL162161  32.959  29.003   5.931
 4870POPC   GL262162  32.640  29.183   5.987
 4870POPC   C1A62163  33.184  28.926   6.296
 4870POPC   D2A62164  33.055  29.114   6.649
 4870POPC   C3A62165  33.297  29.151   7.003
 4870POPC   C4A62166  33.206  29.198   7.415
 4870POPC   C1B62167  32.659  28.939   6.362
 4870POPC   C2B62168  32.586  28.886   6.801
 4870POPC   C3B62169  32.754  29.189   7.089
 4870POPC   C4B62170  32.513  29.489   7.339
 4871POPC   NC362171   9.411  27.357   5.594
 4871POPC   PO462172   8.932  27.763   5.352
 4871POPC   GL162173   8.975  27.600   5.762
 4871POPC   GL262174   9.290  27.694   5.954
 4871POPC   C1A62175   8.836  27.730   6.161
 4871POPC   D2A62176   9.098  27.636   6.495
 4871POPC   C3A62177   8.962  27.837   6.835
 4871POPC   C4A62178   8.961  27.735   7.242
 4871POPC   C1B62179   9.483  27.371   6.237
 4871POPC   C2B62180   9.380  27.217   6.639
 4871POPC   C3B62181   9.342  27.508   6.977
 4871POPC   C4B62182   9.420  27.575   7.401
 4872POPC   NC362183  12.548  34.565   4.918
 4872POPC   PO462184  12.981  34.635   5.423
 4872POPC   GL162185  12.911  34.438   5.790
 4872POPC   GL262186  12.980  34.770   5.947
 4872POPC   C1A62187  12.679  34.422   6.179
 4872POPC   D2A62188  12.856  34.659   6.506
 4872POPC   C3A62189  12.798  34.461   6.905
 4872POPC   C4A62190  12.605  34.291   7.257
 4872POPC   C1B62191  13.239  34.941   6.280
 4872POPC   C2B62192  13.131  35.138   6.663
 4872POPC   C3B62193  12.832  34.974   6.932
 4872POPC   C4B62194  12.832  34.780   7.317
 4873POPC   NC362195  20.563  31.111   5.371
 4873POPC   PO462196  20.806  30.447   5.535
 4873POPC   GL162197  20.622  30.622   5.906
 4873POPC   GL262198  20.621  31.009   5.861
 4873POPC   C1A62199  20.508  30.490   6.340
 4873POPC   D2A62200  20.725  30.283   6.657
 4873POPC   C3A62201  20.783  30.448   7.079
 4873POPC   C4A62202  20.738  30.304   7.501
 4873POPC   C1B62203  20.709  31.013   6.293
 4873POPC   C2B62204  20.779  30.824   6.688
 4873POPC   C3B62205  20.652  30.988   7.082
 4873POPC   C4B62206  20.535  31.164   7.486
 4874POPC   NC362207  24.067  24.515   4.963
 4874POPC   PO462208  23.580  24.369   5.415
 4874POPC   GL162209  23.786  24.352   5.809
 4874POPC   GL262210  24.037  24.122   5.820
 4874POPC   C1A62211  23.631  24.487   6.208
 4874POPC   D2A62212  23.403  24.717   6.498
 4874POPC   C3A62213  23.616  24.624   6.851
 4874POPC   C4A62214  23.616  24.729   7.254
 4874POPC   C1B62215  23.938  24.083   6.238
 4874POPC   C2B62216  23.666  24.081   6.589
 4874POPC   C3B62217  23.730  24.122   7.018
 4874POPC   C4B62218  23.346  24.253   7.160
 4875POPC   NC362219  16.941  10.224   5.522
 4875POPC   PO462220  16.704  10.819   5.518
 4875POPC   GL162221  16.654  10.694   5.918
 4875POPC   GL262222  16.507  11.003   5.999
 4875POPC   C1A62223  16.890  10.699   6.327
 4875POPC   D2A62224  16.926  10.851   6.768
 4875POPC   C3A62225  17.016  10.475   7.013
 4875POPC   C4A62226  16.750  10.219   7.225
 4875POPC   C1B62227  16.379  10.736   6.348
 4875POPC   C2B62228  16.559  10.493   6.699
 4875POPC   C3B62229  16.541  10.670   7.110
 4875POPC   C4B62230  16.324  10.426   7.416
 4876POPC   NC362231  44.002   4.462   5.137
 4876POPC   PO462232  43.962   3.782   5.294
 4876POPC   GL162233  44.045   4.135   5.631
 4876POPC   GL262234  43.969   4.512   5.663
 4876POPC   C1A62235  44.076   4.228   6.090
 4876POPC   D2A62236  44.029   4.079   6.513
 4876POPC   C3A62237  43.713   4.196   6.807
 4876POPC   C4A62238  43.952   4.201   7.169
 4876POPC   C1B62239  43.778   4.655   6.070
 4876POPC   C2B62240  43.867   4.576   6.471
 4876POPC   C3B62241  43.936   4.638   6.894
 4876POPC   C4B62242  43.632   4.605   7.205
 4877POPC   NC362243  16.382  42.125   5.592
 4877POPC   PO462244  15.940  42.519   5.264
 4877POPC   GL162245  15.911  42.403   5.735
 4877POPC   GL262246  15.729  42.073   5.760
 4877POPC   C1A62247  16.039  42.329   6.213
 4877POPC   D2A62248  16.295  42.507   6.615
 4877POPC   C3A62249  16.068  42.401   7.024
 4877POPC   C4A62250  15.660  42.624   7.162
 4877POPC   C1B62251  15.641  41.857   6.155
 4877POPC   C2B62252  15.688  42.036   6.587
 4877POPC   C3B62253  15.863  41.894   6.986
 4877POPC   C4B62254  15.893  41.975   7.428
 4878POPC   NC362255  42.578  17.957   5.612
 4878POPC   PO462256  42.980  18.406   5.270
 4878POPC   GL162257  42.910  18.361   5.709
 4878POPC   GL262258  43.040  18.027   5.795
 4878POPC   C1A62259  42.916  18.412   6.181
 4878POPC   D2A62260  43.063  18.264   6.612
 4878POPC   C3A62261  43.082  18.483   7.047
 4878POPC   C4A62262  42.943  18.511   7.482
 4878POPC   C1B62263  42.898  17.847   6.211
 4878POPC   C2B62264  43.114  17.734   6.600
 4878POPC   C3B62265  43.243  17.958   6.992
 4878POPC   C4B62266  43.283  18.118   7.429
 4879POPC   NC362267  27.140   2.721   5.312
 4879POPC   PO462268  26.758   2.360   5.601
 4879POPC   GL162269  26.842   2.750   5.762
 4879POPC   GL262270  27.166   2.583   5.812
 4879POPC   C1A62271  26.753   2.928   6.173
 4879POPC   D2A62272  26.581   2.778   6.535
 4879POPC   C3A62273  26.744   2.944   6.904
 4879POPC   C4A62274  26.778   2.981   7.325
 4879POPC   C1B62275  26.888   2.444   6.198
 4879POPC   C2B62276  26.716   2.286   6.540
 4879POPC   C3B62277  26.833   2.435   6.918
 4879POPC   C4B62278  26.909   2.493   7.326
 4880POPC   NC362279  30.184  37.066   5.388
 4880POPC   PO462280  29.824  36.434   5.341
 4880POPC   GL162281  29.804  36.795   5.687
 4880POPC   GL262282  30.077  36.990   5.860
 4880POPC   C1A62283  29.730  36.800   6.165
 4880POPC   D2A62284  29.768  36.608   6.596
 4880POPC   C3A62285  29.775  36.815   6.976
 4880POPC   C4A62286  30.082  36.913   7.299
 4880POPC   C1B62287  30.159  37.167   6.242
 4880POPC   C2B62288  29.859  37.142   6.579
 4880POPC   C3B62289  29.955  37.290   6.983
 4880POPC   C4B62290  29.680  37.198   7.330
 4881POPC   NC362291  38.601  15.753   5.575
 4881POPC   PO462292  38.290  15.254   5.136
 4881POPC   GL162293  38.407  15.243   5.643
 4881POPC   GL262294  38.533  14.934   5.781
 4881POPC   C1A62295  38.522  15.372   6.122
 4881POPC   D2A62296  38.669  15.197   6.542
 4881POPC   C3A62297  38.573  15.348   6.971
 4881POPC   C4A62298  38.433  15.273   7.380
 4881POPC   C1B62299  38.421  14.876   6.226
 4881POPC   C2B62300  38.448  14.766   6.689
 4881POPC   C3B62301  38.503  14.836   7.133
 4881POPC   C4B62302  38.182  14.841   7.475
 4882POPC   NC362303   6.991  24.698   5.187
 4882POPC   PO462304   6.637  24.186   5.449
 4882POPC   GL162305   6.663  24.273   5.888
 4882POPC   GL262306   6.489  24.602   5.870
 4882POPC   C1A62307   6.625  24.421   6.331
 4882POPC   D2A62308   6.377  24.763   6.540
 4882POPC   C3A62309   6.358  24.554   6.915
 4882POPC   C4A62310   6.636  24.248   7.128
 4882POPC   C1B62311   6.718  24.893   6.161
 4882POPC   C2B62312   6.903  24.849   6.565
 4882POPC   C3B62313   6.697  24.950   6.962
 4882POPC   C4B62314   6.507  24.746   7.346
 4883POPC   NC362315  25.176  18.639   5.469
 4883POPC   PO462316  25.566  18.064   5.589
 4883POPC   GL162317  25.329  18.314   5.860
 4883POPC   GL262318  25.009  18.524   5.932
 4883POPC   C1A62319  25.308  18.167   6.256
 4883POPC   D2A62320  25.329  18.341   6.644
 4883POPC   C3A62321  25.173  18.067   6.940
 4883POPC   C4A62322  25.258  18.279   7.277
 4883POPC   C1B62323  24.905  18.516   6.364
 4883POPC   C2B62324  24.773  18.582   6.781
 4883POPC   C3B62325  24.866  18.599   7.227
 4883POPC   C4B62326  24.997  18.435   7.692
 4884POPC   NC362327   7.541  19.607   5.449
 4884POPC   PO462328   7.619  20.276   5.744
 4884POPC   GL162329   7.385  19.880   5.874
 4884POPC   GL262330   7.148  19.573   5.755
 4884POPC   C1A62331   7.384  19.810   6.300
 4884POPC   D2A62332   7.398  20.100   6.659
 4884POPC   C3A62333   7.337  19.897   7.046
 4884POPC   C4A62334   7.622  20.054   7.317
 4884POPC   C1B62335   7.055  19.428   6.154
 4884POPC   C2B62336   7.225  19.401   6.562
 4884POPC   C3B62337   7.078  19.457   6.969
 4884POPC   C4B62338   7.052  19.591   7.376
 4885POPC   NC362339  24.760   2.279   5.376
 4885POPC   PO462340  24.221   1.870   5.470
 4885POPC   GL162341  24.463   1.747   5.791
 4885POPC   GL262342  24.565   2.089   5.822
 4885POPC   C1A62343  24.402   1.761   6.227
 4885POPC   D2A62344  24.230   1.851   6.604
 4885POPC   C3A62345  24.313   1.964   7.028
 4885POPC   C4A62346  24.285   2.385   7.210
 4885POPC   C1B62347  24.818   2.048   6.173
 4885POPC   C2B62348  24.721   2.040   6.584
 4885POPC   C3B62349  24.757   2.181   6.983
 4885POPC   C4B62350  24.680   2.128   7.419
 4886POPC   NC362351  42.369  30.814   5.299
 4886POPC   PO462352  42.387  30.247   5.647
 4886POPC   GL162353  42.113  30.559   5.707
 4886POPC   GL262354  42.413  30.727   5.823
 4886POPC   C1A62355  42.008  30.652   6.128
 4886POPC   D2A62356  42.240  30.452   6.495
 4886POPC   C3A62357  42.194  30.645   6.903
 4886POPC   C4A62358  42.093  30.642   7.336
 4886POPC   C1B62359  42.658  30.499   6.171
 4886POPC   C2B62360  42.770  30.320   6.554
 4886POPC   C3B62361  42.669  30.345   7.001
 4886POPC   C4B62362  42.596  30.720   7.253
 4887POPC   NC362363  39.557  26.629   5.315
 4887POPC   PO462364  40.116  27.004   5.474
 4887POPC   GL162365  40.031  26.782   5.848
 4887POPC   GL262366  40.342  26.691   5.933
 4887POPC   C1A62367  40.034  26.935   6.285
 4887POPC   D2A62368  39.747  27.014   6.615
 4887POPC   C3A62369  39.902  26.992   7.027
 4887POPC   C4A62370  39.698  26.760   7.329
 4887POPC   C1B62371  40.252  26.471   6.285
 4887POPC   C2B62372  40.182  26.596   6.693
 4887POPC   C3B62373  40.082  26.473   7.090
 4887POPC   C4B62374  40.204  26.757   7.388
 4888POPC   NC362375  16.938  18.598   5.285
 4888POPC   PO462376  16.674  17.968   5.421
 4888POPC   GL162377  16.718  18.375   5.708
 4888POPC   GL262378  17.063  18.519   5.784
 4888POPC   C1A62379  16.684  18.595   6.129
 4888POPC   D2A62380  16.789  18.440   6.527
 4888POPC   C3A62381  16.528  18.503   6.868
 4888POPC   C4A62382  16.583  18.390   7.266
 4888POPC   C1B62383  17.039  18.183   6.109
 4888POPC   C2B62384  17.013  17.967   6.517
 4888POPC   C3B62385  16.859  18.070   6.935
 4888POPC   C4B62386  17.030  18.113   7.356
 4889POPC   NC362387  18.660  30.472   5.650
 4889POPC   PO462388  18.127  30.065   5.393
 4889POPC   GL162389  18.208  29.924   5.804
 4889POPC   GL262390  18.534  29.789   5.839
 4889POPC   C1A62391  18.176  29.762   6.221
 4889POPC   D2A62392  18.423  29.704   6.579
 4889POPC   C3A62393  18.266  29.865   6.942
 4889POPC   C4A62394  18.152  29.883   7.367
 4889POPC   C1B62395  18.653  30.002   6.176
 4889POPC   C2B62396  18.643  30.179   6.562
 4889POPC   C3B62397  18.777  29.923   6.895
 4889POPC   C4B62398  18.647  29.934   7.275
 4890POPC   NC362399   8.848  29.598   5.501
 4890POPC   PO462400   8.942  30.276   5.519
 4890POPC   GL162401   8.971  29.967   5.858
 4890POPC   GL262402   9.264  29.750   5.793
 4890POPC   C1A62403   8.943  29.976   6.315
 4890POPC   D2A62404   9.278  30.196   6.572
 4890POPC   C3A62405   9.206  30.041   6.981
 4890POPC   C4A62406   8.868  29.798   7.191
 4890POPC   C1B62407   9.401  29.804   6.218
 4890POPC   C2B62408   9.336  29.598   6.628
 4890POPC   C3B62409   9.323  29.532   7.087
 4890POPC   C4B62410   9.163  29.580   7.551
 4891POPC   NC362411  18.410   3.879   5.291
 4891POPC   PO462412  17.861   3.513   5.617
 4891POPC   GL162413  18.248   3.654   5.783
 4891POPC   GL262414  18.421   3.362   5.618
 4891POPC   C1A62415  18.358   3.803   6.238
 4891POPC   D2A62416  18.521   3.756   6.680
 4891POPC   C3A62417  18.233   3.632   7.044
 4891POPC   C4A62418  18.611   3.720   7.306
 4891POPC   C1B62419  18.468   3.320   6.103
 4891POPC   C2B62420  18.346   3.286   6.588
 4891POPC   C3B62421  18.568   3.282   7.045
 4891POPC   C4B62422  18.393   3.295   7.486
 4892POPC   NC362423  40.109  24.795   5.231
 4892POPC   PO462424  39.968  25.393   5.412
 4892POPC   GL162425  40.051  25.379   5.829
 4892POPC   GL262426  39.958  25.027   5.910
 4892POPC   C1A62427  40.058  25.405   6.273
 4892POPC   D2A62428  40.004  25.183   6.648
 4892POPC   C3A62429  39.919  25.510   6.942
 4892POPC   C4A62430  40.019  25.541   7.359
 4892POPC   C1B62431  39.648  24.934   6.260
 4892POPC   C2B62432  39.532  24.924   6.705
 4892POPC   C3B62433  39.776  25.029   7.081
 4892POPC   C4B62434  40.194  24.866   7.187
 4893POPC   NC362435  40.775   0.856   5.370
 4893POPC   PO462436  41.228   0.329   5.442
 4893POPC   GL162437  40.958   0.451   5.754
 4893POPC   GL262438  41.259   0.648   5.845
 4893POPC   C1A62439  40.791   0.364   6.184
 4893POPC   D2A62440  40.571   0.316   6.585
 4893POPC   C3A62441  40.715   0.318   6.967
 4893POPC   C4A62442  40.565   0.590   7.256
 4893POPC   C1B62443  41.279   0.237   6.103
 4893POPC   C2B62444  41.103   0.075   6.504
 4893POPC   C3B62445  41.227   0.191   6.916
 4893POPC   C4B62446  41.118   0.373   7.292
 4894POPC   NC362447  32.964  42.919   5.507
 4894POPC   PO462448  33.278  43.471   5.478
 4894POPC   GL162449  33.146  43.267   5.824
 4894POPC   GL262450  32.801  43.337   5.764
 4894POPC   C1A62451  33.271  43.102   6.211
 4894POPC   D2A62452  33.347  42.903   6.580
 4894POPC   C3A62453  33.202  43.126   6.894
 4894POPC   C4A62454  33.257  43.054   7.299
 4894POPC   C1B62455  32.761  43.202   6.158
 4894POPC   C2B62456  32.826  43.006   6.531
 4894POPC   C3B62457  32.708  43.183   6.923
 4894POPC   C4B62458  32.750  43.080   7.313
 4895POPC   NC362459  10.863  14.958   5.332
 4895POPC   PO462460  10.468  15.501   5.541
 4895POPC   GL162461  10.408  15.130   5.791
 4895POPC   GL262462  10.538  15.287   6.067
 4895POPC   C1A62463  10.120  15.042   6.157
 4895POPC   D2A62464  10.351  15.176   6.526
 4895POPC   C3A62465  10.378  15.198   6.965
 4895POPC   C4A62466  10.627  14.958   7.263
 4895POPC   C1B62467  10.749  15.498   6.421
 4895POPC   C2B62468  10.740  15.718   6.818
 4895POPC   C3B62469  10.736  15.492   7.209
 4895POPC   C4B62470  10.420  15.355   7.465
 4896POPC   NC362471  23.674   2.545   5.131
 4896POPC   PO462472  24.069   3.039   5.109
 4896POPC   GL162473  23.771   2.936   5.544
 4896POPC   GL262474  23.628   2.582   5.667
 4896POPC   C1A62475  23.826   2.901   6.050
 4896POPC   D2A62476  23.963   2.753   6.490
 4896POPC   C3A62477  23.872   2.996   6.896
 4896POPC   C4A62478  23.946   3.121   7.334
 4896POPC   C1B62479  23.554   2.441   6.131
 4896POPC   C2B62480  23.498   2.557   6.593
 4896POPC   C3B62481  23.768   2.519   6.975
 4896POPC   C4B62482  23.586   2.426   7.361
 4897POPC   NC362483   7.652  37.011   5.297
 4897POPC   PO462484   7.094  36.690   5.353
 4897POPC   GL162485   7.179  36.966   5.732
 4897POPC   GL262486   7.558  36.933   5.780
 4897POPC   C1A62487   7.321  37.102   6.173
 4897POPC   D2A62488   7.643  37.091   6.483
 4897POPC   C3A62489   7.442  37.061   6.863
 4897POPC   C4A62490   7.387  37.281   7.236
 4897POPC   C1B62491   7.644  36.673   6.134
 4897POPC   C2B62492   7.592  36.591   6.574
 4897POPC   C3B62493   7.546  36.595   7.036
 4897POPC   C4B62494   7.688  36.896   7.293
 4898POPC   NC362495  42.396  32.513   5.451
 4898POPC   PO462496  42.039  32.017   5.318
 4898POPC   GL162497  42.144  32.127   5.716
 4898POPC   GL262498  42.483  32.067   5.737
 4898POPC   C1A62499  42.047  32.156   6.136
 4898POPC   D2A62500  42.091  31.911   6.479
 4898POPC   C3A62501  42.029  32.073   6.857
 4898POPC   C4A62502  42.411  32.049   6.992
 4898POPC   C1B62503  42.483  32.389   6.081
 4898POPC   C2B62504  42.441  32.337   6.530
 4898POPC   C3B62505  42.729  32.412   6.858
 4898POPC   C4B62506  42.891  32.145   7.161
 4899POPC   NC362507  32.779  30.660   5.472
 4899POPC   PO462508  33.447  30.851   5.384
 4899POPC   GL162509  33.124  30.878   5.788
 4899POPC   GL262510  32.844  31.123   5.742
 4899POPC   C1A62511  32.915  30.692   6.213
 4899POPC   D2A62512  32.983  30.861   6.645
 4899POPC   C3A62513  32.991  30.698   7.084
 4899POPC   C4A62514  32.910  30.480   7.488
 4899POPC   C1B62515  32.563  31.032   6.097
 4899POPC   C2B62516  32.486  30.952   6.532
 4899POPC   C3B62517  32.631  31.047   6.966
 4899POPC   C4B62518  32.609  30.867   7.395
 4900POPC   NC362519  41.693  14.862   5.515
 4900POPC   PO462520  41.417  15.547   5.406
 4900POPC   GL162521  41.571  15.376   5.775
 4900POPC   GL262522  41.368  15.066   5.858
 4900POPC   C1A62523  41.441  15.424   6.197
 4900POPC   D2A62524  41.311  15.133   6.516
 4900POPC   C3A62525  41.373  15.260   6.945
 4900POPC   C4A62526  41.391  15.095   7.387
 4900POPC   C1B62527  41.704  14.982   6.152
 4900POPC   C2B62528  41.761  14.796   6.526
 4900POPC   C3B62529  41.861  14.940   6.920
 4900POPC   C4B62530  41.754  14.756   7.289
 4901POPC   NC362531  23.531  35.479   5.461
 4901POPC   PO462532  24.175  35.318   5.575
 4901POPC   GL162533  24.026  35.436   5.965
 4901POPC   GL262534  23.683  35.326   5.924
 4901POPC   C1A62535  23.969  35.205   6.376
 4901POPC   D2A62536  23.752  34.991   6.716
 4901POPC   C3A62537  23.853  35.204   7.098
 4901POPC   C4A62538  23.997  35.634   7.188
 4901POPC   C1B62539  23.545  35.511   6.303
 4901POPC   C2B62540  23.706  35.527   6.728
 4901POPC   C3B62541  23.494  35.618   7.121
 4901POPC   C4B62542  23.304  35.489   7.505
 4902POPC   NC362543  13.975   8.451   5.696
 4902POPC   PO462544  13.541   8.019   5.383
 4902POPC   GL162545  13.618   8.012   5.831
 4902POPC   GL262546  13.809   7.731   5.879
 4902POPC   C1A62547  13.584   8.274   6.234
 4902POPC   D2A62548  13.475   8.584   6.580
 4902POPC   C3A62549  13.600   8.418   6.998
 4902POPC   C4A62550  13.477   7.997   7.143
 4902POPC   C1B62551  13.958   7.917   6.282
 4902POPC   C2B62552  13.827   7.986   6.738
 4902POPC   C3B62553  13.976   7.904   7.173
 4902POPC   C4B62554  13.888   7.989   7.650
 4903POPC   NC362555  38.727  35.606   5.396
 4903POPC   PO462556  39.146  35.183   5.191
 4903POPC   GL162557  39.050  35.254   5.694
 4903POPC   GL262558  38.734  35.124   5.794
 4903POPC   C1A62559  39.330  35.399   6.101
 4903POPC   D2A62560  39.471  35.738   6.421
 4903POPC   C3A62561  39.352  35.708   6.876
 4903POPC   C4A62562  39.402  35.554   7.326
 4903POPC   C1B62563  38.831  35.436   6.156
 4903POPC   C2B62564  39.077  35.334   6.557
 4903POPC   C3B62565  39.184  35.198   6.984
 4903POPC   C4B62566  38.944  35.211   7.382
 4904POPC   NC362567  34.190   4.450   5.551
 4904POPC   PO462568  34.762   4.064   5.577
 4904POPC   GL162569  34.558   4.265   5.872
 4904POPC   GL262570  34.246   4.085   5.880
 4904POPC   C1A62571  34.622   4.301   6.285
 4904POPC   D2A62572  34.611   4.078   6.640
 4904POPC   C3A62573  34.557   4.351   6.942
 4904POPC   C4A62574  34.534   4.318   7.328
 4904POPC   C1B62575  34.127   4.396   6.185
 4904POPC   C2B62576  34.122   4.229   6.559
 4904POPC   C3B62577  34.177   4.031   6.941
 4904POPC   C4B62578  34.061   4.186   7.357
 4905POPC   NC362579  19.676  19.385   5.671
 4905POPC   PO462580  19.641  19.832   5.148
 4905POPC   GL162581  19.588  19.884   5.636
 4905POPC   GL262582  19.917  19.837   5.816
 4905POPC   C1A62583  19.500  19.795   6.135
 4905POPC   D2A62584  19.757  19.844   6.521
 4905POPC   C3A62585  19.619  19.810   6.948
 4905POPC   C4A62586  19.615  19.876   7.372
 4905POPC   C1B62587  20.003  19.539   6.200
 4905POPC   C2B62588  20.257  19.554   6.565
 4905POPC   C3B62589  20.133  19.826   6.857
 4905POPC   C4B62590  20.122  19.709   7.223
 4906POPC   NC362591   8.598   3.519   5.341
 4906POPC   PO462592   7.885   3.353   5.278
 4906POPC   GL162593   8.186   3.390   5.617
 4906POPC   GL262594   7.976   3.439   5.858
 4906POPC   C1A62595   8.451   3.570   5.991
 4906POPC   D2A62596   8.552   3.759   6.393
 4906POPC   C3A62597   8.279   3.731   6.785
 4906POPC   C4A62598   8.357   3.766   7.254
 4906POPC   C1B62599   8.014   3.604   6.251
 4906POPC   C2B62600   7.894   3.469   6.609
 4906POPC   C3B62601   7.812   3.616   6.964
 4906POPC   C4B62602   7.898   3.538   7.304
 4907POPC   NC362603   0.206   3.867   5.566
 4907POPC   PO462604   0.146   4.433   5.213
 4907POPC   GL162605   0.261   4.379   5.691
 4907POPC   GL262606   0.509   4.236   5.761
 4907POPC   C1A62607   0.213   4.386   6.182
 4907POPC   D2A62608  44.924   4.432   6.545
 4907POPC   C3A62609   0.005   4.208   6.893
 4907POPC   C4A62610   0.293   4.341   7.191
 4907POPC   C1B62611   0.708   4.519   6.069
 4907POPC   C2B62612   0.888   4.472   6.488
 4907POPC   C3B62613   0.760   4.380   6.929
 4907POPC   C4B62614   0.701   4.071   7.287
 4908POPC   NC362615  37.548  17.684   5.484
 4908POPC   PO462616  38.191  17.356   5.495
 4908POPC   GL162617  37.925  17.458   5.874
 4908POPC   GL262618  37.538  17.426   5.910
 4908POPC   C1A62619  37.820  17.678   6.272
 4908POPC   D2A62620  37.801  17.847   6.698
 4908POPC   C3A62621  37.791  17.499   6.962
 4908POPC   C4A62622  38.014  17.394   7.320
 4908POPC   C1B62623  37.366  17.847   6.077
 4908POPC   C2B62624  37.238  17.883   6.483
 4908POPC   C3B62625  37.094  17.861   6.897
 4908POPC   C4B62626  37.395  17.732   7.218
 4909POPC   NC362627  21.563  39.756   5.272
 4909POPC   PO462628  21.365  40.387   5.393
 4909POPC   GL162629  21.419  40.192   5.828
 4909POPC   GL262630  21.312  39.842   5.744
 4909POPC   C1A62631  21.448  40.155   6.322
 4909POPC   D2A62632  21.600  39.966   6.729
 4909POPC   C3A62633  21.489  40.180   7.143
 4909POPC   C4A62634  21.439  40.183   7.630
 4909POPC   C1B62635  21.064  39.869   6.140
 4909POPC   C2B62636  21.172  39.705   6.540
 4909POPC   C3B62637  21.130  39.863   6.953
 4909POPC   C4B62638  21.335  39.718   7.330
 4910POPC   NC362639  37.140  35.506   5.394
 4910POPC   PO462640  36.498  35.208   5.373
 4910POPC   GL162641  36.849  35.193   5.690
 4910POPC   GL262642  36.857  35.553   5.806
 4910POPC   C1A62643  36.959  35.153   6.132
 4910POPC   D2A62644  37.025  34.928   6.505
 4910POPC   C3A62645  36.982  35.045   6.926
 4910POPC   C4A62646  36.892  35.185   7.343
 4910POPC   C1B62647  36.885  35.656   6.234
 4910POPC   C2B62648  36.717  35.435   6.595
 4910POPC   C3B62649  36.874  35.561   6.998
 4910POPC   C4B62650  36.820  35.800   7.376
 4911POPC   NC362651  29.336  27.589   5.466
 4911POPC   PO462652  28.662  27.350   5.253
 4911POPC   GL162653  28.907  27.376   5.631
 4911POPC   GL262654  28.900  27.746   5.716
 4911POPC   C1A62655  29.137  27.399   6.057
 4911POPC   D2A62656  29.366  27.692   6.356
 4911POPC   C3A62657  29.312  27.593   6.791
 4911POPC   C4A62658  29.195  27.776   7.175
 4911POPC   C1B62659  28.890  27.839   6.167
 4911POPC   C2B62660  28.840  27.535   6.496
 4911POPC   C3B62661  28.791  27.628   6.913
 4911POPC   C4B62662  28.734  28.012   7.154
 4912POPC   NC362663  12.261  33.323   5.585
 4912POPC   PO462664  12.000  32.732   5.412
 4912POPC   GL162665  11.993  32.903   5.831
 4912POPC   GL262666  11.760  33.156   5.899
 4912POPC   C1A62667  12.205  33.076   6.198
 4912POPC   D2A62668  12.205  33.264   6.606
 4912POPC   C3A62669  12.181  32.987   6.956
 4912POPC   C4A62670  12.146  33.080   7.355
 4912POPC   C1B62671  11.723  33.165   6.352
 4912POPC   C2B62672  11.713  32.907   6.726
 4912POPC   C3B62673  11.694  33.094   7.138
 4912POPC   C4B62674  11.699  33.177   7.600
 4913POPC   NC362675  11.369  41.194   5.222
 4913POPC   PO462676  10.961  41.618   5.442
 4913POPC   GL162677  11.078  41.745   5.859
 4913POPC   GL262678  11.428  41.923   5.788
 4913POPC   C1A62679  10.982  41.596   6.298
 4913POPC   D2A62680  11.051  41.368   6.669
 4913POPC   C3A62681  11.206  41.578   7.044
 4913POPC   C4A62682  11.477  41.490   7.369
 4913POPC   C1B62683  11.465  41.658   6.166
 4913POPC   C2B62684  11.401  41.752   6.581
 4913POPC   C3B62685  11.659  41.799   6.913
 4913POPC   C4B62686  11.907  41.741   7.244
 4914POPC   NC362687  16.026  16.426   5.163
 4914POPC   PO462688  15.678  16.903   5.588
 4914POPC   GL162689  15.688  16.784   5.966
 4914POPC   GL262690  16.048  16.827   5.963
 4914POPC   C1A62691  15.699  16.961   6.367
 4914POPC   D2A62692  16.074  16.986   6.587
 4914POPC   C3A62693  16.106  16.895   7.022
 4914POPC   C4A62694  15.825  16.975   7.353
 4914POPC   C1B62695  15.987  16.525   6.285
 4914POPC   C2B62696  15.825  16.538   6.702
 4914POPC   C3B62697  15.750  16.520   7.140
 4914POPC   C4B62698  15.654  16.367   7.559
 4915POPC   NC362699  30.565  29.568   5.218
 4915POPC   PO462700  30.241  29.074   5.349
 4915POPC   GL162701  30.496  28.953   5.720
 4915POPC   GL262702  30.658  29.242   5.752
 4915POPC   C1A62703  30.735  28.940   6.156
 4915POPC   D2A62704  30.800  29.193   6.513
 4915POPC   C3A62705  30.711  29.044   6.911
 4915POPC   C4A62706  30.753  28.847   7.306
 4915POPC   C1B62707  30.392  29.292   6.168
 4915POPC   C2B62708  30.317  29.418   6.576
 4915POPC   C3B62709  30.230  29.315   7.000
 4915POPC   C4B62710  30.269  29.678   7.271
 4916POPC   NC362711  20.243  43.325   5.458
 4916POPC   PO462712  20.852  43.012   5.398
 4916POPC   GL162713  20.591  42.985   5.734
 4916POPC   GL262714  20.688  43.309   5.863
 4916POPC   C1A62715  20.618  42.783   6.133
 4916POPC   D2A62716  20.566  42.998   6.516
 4916POPC   C3A62717  20.646  42.849   6.923
 4916POPC   C4A62718  20.542  43.097   7.274
 4916POPC   C1B62719  21.002  43.125   6.190
 4916POPC   C2B62720  21.074  43.107   6.667
 4916POPC   C3B62721  21.042  43.110   7.133
 4916POPC   C4B62722  20.972  43.362   7.507
 4917POPC   NC362723  13.162  14.498   5.376
 4917POPC   PO462724  12.707  13.964   5.342
 4917POPC   GL162725  12.817  14.218   5.706
 4917POPC   GL262726  13.183  14.122   5.719
 4917POPC   C1A62727  12.654  14.405   6.135
 4917POPC   D2A62728  12.436  14.353   6.546
 4917POPC   C3A62729  12.688  14.424   6.884
 4917POPC   C4A62730  12.704  14.275   7.260
 4917POPC   C1B62731  13.167  14.389   6.082
 4917POPC   C2B62732  13.037  14.304   6.509
 4917POPC   C3B62733  13.064  14.080   6.934
 4917POPC   C4B62734  13.232  14.333   7.276
 4918POPC   NC362735   3.392  27.882   5.370
 4918POPC   PO462736   3.870  27.472   5.592
 4918POPC   GL162737   3.533  27.675   5.850
 4918POPC   GL262738   3.179  27.680   5.813
 4918POPC   C1A62739   3.421  27.509   6.257
 4918POPC   D2A62740   3.735  27.269   6.502
 4918POPC   C3A62741   3.805  27.478   6.884
 4918POPC   C4A62742   3.527  27.355   7.149
 4918POPC   C1B62743   3.103  27.930   6.210
 4918POPC   C2B62744   3.258  27.869   6.620
 4918POPC   C3B62745   3.109  27.887   7.031
 4918POPC   C4B62746   3.196  27.662   7.400
 4919POPC   NC362747  36.430  44.173   5.512
 4919POPC   PO462748  37.070  44.063   5.417
 4919POPC   GL162749  36.850  43.920   5.769
 4919POPC   GL262750  37.030  44.180   5.936
 4919POPC   C1A62751  36.928  43.759   6.180
 4919POPC   D2A62752  36.868  44.004   6.543
 4919POPC   C3A62753  36.954  43.763   6.899
 4919POPC   C4A62754  37.074  43.640   7.261
 4919POPC   C1B62755  37.360  44.154   6.235
 4919POPC   C2B62756  37.294  44.260   6.657
 4919POPC   C3B62757  37.198  44.295   7.086
 4919POPC   C4B62758  36.833  44.215   7.277
 4920POPC   NC362759  27.436   5.999   5.327
 4920POPC   PO462760  27.487   5.362   5.220
 4920POPC   GL162761  27.515   5.581   5.645
 4920POPC   GL262762  27.603   5.364   5.898
 4920POPC   C1A62763  27.509   5.880   6.030
 4920POPC   D2A62764  27.448   6.119   6.436
 4920POPC   C3A62765  27.508   5.944   6.872
 4920POPC   C4A62766  27.332   6.142   7.243
 4920POPC   C1B62767  27.726   5.504   6.311
 4920POPC   C2B62768  27.888   5.587   6.723
 4920POPC   C3B62769  27.642   5.475   7.069
 4920POPC   C4B62770  27.431   5.662   7.375
 4921POPC   NC362771  26.121  34.904   5.376
 4921POPC   PO462772  25.956  35.465   5.138
 4921POPC   GL162773  26.098  35.373   5.606
 4921POPC   GL262774  25.928  35.099   5.794
 4921POPC   C1A62775  26.213  35.424   6.097
 4921POPC   D2A62776  26.117  35.308   6.562
 4921POPC   C3A62777  26.239  35.417   6.999
 4921POPC   C4A62778  25.921  35.475   7.317
 4921POPC   C1B62779  25.822  35.063   6.201
 4921POPC   C2B62780  25.660  35.009   6.600
 4921POPC   C3B62781  25.830  35.076   6.974
 4921POPC   C4B62782  25.620  35.035   7.311
 4922POPC   NC362783  44.133  20.856   5.452
 4922POPC   PO462784  43.595  20.594   5.531
 4922POPC   GL162785  43.940  20.625   5.877
 4922POPC   GL262786  44.294  20.514   5.819
 4922POPC   C1A62787  43.950  20.634   6.349
 4922POPC   D2A62788  43.671  20.746   6.710
 4922POPC   C3A62789  43.685  20.509   7.111
 4922POPC   C4A62790  43.488  20.465   7.536
 4922POPC   C1B62791  44.401  20.816   6.160
 4922POPC   C2B62792  44.207  21.041   6.546
 4922POPC   C3B62793  44.099  20.862   6.955
 4922POPC   C4B62794  44.220  20.444   7.135
 4923POPC   NC362795  29.386  36.824   5.330
 4923POPC   PO462796  28.821  36.670   5.210
 4923POPC   GL162797  29.018  36.823   5.669
 4923POPC   GL262798  29.297  36.617   5.785
 4923POPC   C1A62799  29.248  37.039   6.053
 4923POPC   D2A62800  29.343  36.893   6.488
 4923POPC   C3A62801  29.040  36.979   6.800
 4923POPC   C4A62802  28.989  37.175   7.155
 4923POPC   C1B62803  29.010  36.588   6.165
 4923POPC   C2B62804  28.968  36.526   6.601
 4923POPC   C3B62805  29.320  36.523   6.871
 4923POPC   C4B62806  29.323  36.790   7.216
 4924POPC   NC362807  43.425  16.609   5.163
 4924POPC   PO462808  42.769  16.654   5.280
 4924POPC   GL162809  42.990  16.684   5.705
 4924POPC   GL262810  43.393  16.688   5.668
 4924POPC   C1A62811  42.848  16.819   6.144
 4924POPC   D2A62812  43.012  16.756   6.546
 4924POPC   C3A62813  42.859  16.832   6.963
 4924POPC   C4A62814  42.903  16.540   7.339
 4924POPC   C1B62815  43.446  16.818   6.085
 4924POPC   C2B62816  43.536  16.699   6.493
 4924POPC   C3B62817  43.354  16.612   6.899
 4924POPC   C4B62818  43.287  16.867   7.237
 4925POPC   NC362819   2.619  22.500   5.538
 4925POPC   PO462820   2.868  21.854   5.447
 4925POPC   GL162821   2.862  22.045   5.834
 4925POPC   GL262822   3.179  21.906   5.848
 4925POPC   C1A62823   2.746  22.182   6.249
 4925POPC   D2A62824   2.535  22.060   6.627
 4925POPC   C3A62825   2.769  22.085   7.031
 4925POPC   C4A62826   2.513  22.324   7.244
 4925POPC   C1B62827   3.112  21.824   6.241
 4925POPC   C2B62828   2.978  21.818   6.623
 4925POPC   C3B62829   2.970  21.612   6.986
 4925POPC   C4B62830   2.796  21.699   7.389
 4926POPC   NC362831  44.904  37.068   5.166
 4926POPC   PO462832  44.244  36.932   5.276
 4926POPC   GL162833  44.480  36.837   5.703
 4926POPC   GL262834  44.858  36.802   5.736
 4926POPC   C1A62835  44.572  36.692   6.148
 4926POPC   D2A62836  44.741  36.590   6.562
 4926POPC   C3A62837  44.467  36.748   6.914
 4926POPC   C4A62838  44.446  37.037   7.274
 4926POPC   C1B62839  44.993  37.006   6.114
 4926POPC   C2B62840  44.778  37.093   6.490
 4926POPC   C3B62841  44.817  37.167   6.918
 4926POPC   C4B62842  44.924  36.863   7.144
 4927POPC   NC362843  14.958  35.148   5.467
 4927POPC   PO462844  15.309  35.622   5.446
 4927POPC   GL162845  15.199  35.494   5.867
 4927POPC   GL262846  14.870  35.459   5.976
 4927POPC   C1A62847  15.170  35.730   6.291
 4927POPC   D2A62848  15.048  35.712   6.755
 4927POPC   C3A62849  15.364  35.531   7.059
 4927POPC   C4A62850  15.444  35.269   7.451
 4927POPC   C1B62851  14.901  35.318   6.411
 4927POPC   C2B62852  15.152  35.178   6.745
 4927POPC   C3B62853  14.983  35.206   7.125
 4927POPC   C4B62854  14.624  35.362   7.313
 4928POPC   NC362855  13.671   5.373   5.439
 4928POPC   PO462856  13.186   5.018   5.538
 4928POPC   GL162857  13.426   5.256   5.868
 4928POPC   GL262858  13.721   5.063   5.891
 4928POPC   C1A62859  13.738   5.397   6.245
 4928POPC   D2A62860  13.825   5.565   6.660
 4928POPC   C3A62861  13.742   5.378   7.110
 4928POPC   C4A62862  13.572   5.362   7.566
 4928POPC   C1B62863  13.425   5.012   6.310
 4928POPC   C2B62864  13.515   5.055   6.772
 4928POPC   C3B62865  13.389   5.004   7.217
 4928POPC   C4B62866  13.435   4.734   7.587
 4929POPC   NC362867  21.921  35.856   5.677
 4929POPC   PO462868  22.304  35.402   5.252
 4929POPC   GL162869  22.382  35.318   5.736
 4929POPC   GL262870  22.053  35.397   5.885
 4929POPC   C1A62871  22.319  35.069   6.167
 4929POPC   D2A62872  22.344  35.257   6.578
 4929POPC   C3A62873  22.597  35.241   6.915
 4929POPC   C4A62874  22.410  35.204   7.302
 4929POPC   C1B62875  22.111  35.611   6.286
 4929POPC   C2B62876  21.928  35.529   6.704
 4929POPC   C3B62877  21.984  35.267   7.020
 4929POPC   C4B62878  22.110  35.608   7.248
 4930POPC   NC362879   4.199  43.325   5.394
 4930POPC   PO462880   4.201  42.709   5.529
 4930POPC   GL162881   4.198  43.019   5.816
 4930POPC   GL262882   4.514  43.127   5.808
 4930POPC   C1A62883   4.177  43.118   6.242
 4930POPC   D2A62884   3.983  43.231   6.631
 4930POPC   C3A62885   4.102  42.973   6.973
 4930POPC   C4A62886   4.347  43.149   7.317
 4930POPC   C1B62887   4.555  43.452   6.127
 4930POPC   C2B62888   4.444  43.493   6.556
 4930POPC   C3B62889   4.620  43.407   6.946
 4930POPC   C4B62890   4.569  43.616   7.319
 4931POPC   NC362891  18.047  26.918   5.251
 4931POPC   PO462892  18.712  26.989   5.355
 4931POPC   GL162893  18.358  27.049   5.656
 4931POPC   GL262894  18.605  27.003   5.908
 4931POPC   C1A62895  18.155  26.791   6.030
 4931POPC   D2A62896  18.235  26.824   6.466
 4931POPC   C3A62897  18.150  26.616   6.879
 4931POPC   C4A62898  18.341  26.852   7.245
 4931POPC   C1B62899  18.629  27.195   6.321
 4931POPC   C2B62900  18.903  27.081   6.638
 4931POPC   C3B62901  18.773  27.108   7.064
 4931POPC   C4B62902  18.762  26.975   7.494
 4932POPC   NC362903   1.341  31.088   5.479
 4932POPC   PO462904   0.916  30.576   5.520
 4932POPC   GL162905   1.145  30.797   5.841
 4932POPC   GL262906   1.489  30.671   5.758
 4932POPC   C1A62907   1.124  30.959   6.279
 4932POPC   D2A62908   1.262  30.687   6.642
 4932POPC   C3A62909   1.104  30.710   7.067
 4932POPC   C4A62910   0.938  30.307   7.195
 4932POPC   C1B62911   1.608  30.951   6.096
 4932POPC   C2B62912   1.560  31.078   6.530
 4932POPC   C3B62913   1.583  30.913   6.974
 4932POPC   C4B62914   1.556  30.541   7.256
 4933POPC   NC362915  12.256  10.039   5.131
 4933POPC   PO462916  12.322   9.552   5.509
 4933POPC   GL162917  12.158   9.750   5.870
 4933POPC   GL262918  12.163  10.103   5.765
 4933POPC   C1A62919  12.115   9.608   6.325
 4933POPC   D2A62920  12.350   9.691   6.723
 4933POPC   C3A62921  12.105   9.731   7.104
 4933POPC   C4A62922  11.679   9.937   7.205
 4933POPC   C1B62923  11.989  10.092   6.213
 4933POPC   C2B62924  11.850  10.272   6.603
 4933POPC   C3B62925  12.024  10.240   7.015
 4933POPC   C4B62926  12.088  10.117   7.461
 4934POPC   NC362927  35.132  33.753   5.418
 4934POPC   PO462928  35.778  33.618   5.466
 4934POPC   GL162929  35.559  33.822   5.801
 4934POPC   GL262930  35.489  33.498   5.905
 4934POPC   C1A62931  35.373  33.939   6.217
 4934POPC   D2A62932  34.977  33.807   6.445
 4934POPC   C3A62933  34.860  33.775   6.896
 4934POPC   C4A62934  34.965  33.986   7.282
 4934POPC   C1B62935  35.677  33.499   6.280
 4934POPC   C2B62936  35.461  33.647   6.625
 4934POPC   C3B62937  35.405  33.898   6.954
 4934POPC   C4B62938  35.305  33.598   7.232
 4935POPC   NC362939  27.041  12.765   5.298
 4935POPC   PO462940  27.761  12.804   5.362
 4935POPC   GL162941  27.536  12.860   5.735
 4935POPC   GL262942  27.363  13.170   5.775
 4935POPC   C1A62943  27.468  12.808   6.172
 4935POPC   D2A62944  27.655  12.858   6.570
 4935POPC   C3A62945  28.023  12.665   6.692
 4935POPC   C4A62946  27.951  12.615   7.111
 4935POPC   C1B62947  27.201  13.223   6.207
 4935POPC   C2B62948  27.167  13.054   6.622
 4935POPC   C3B62949  27.343  12.879   7.007
 4935POPC   C4B62950  27.279  13.010   7.441
 4936POPC   NC362951   8.407  40.661   5.525
 4936POPC   PO462952   8.082  41.119   5.296
 4936POPC   GL162953   8.061  40.939   5.773
 4936POPC   GL262954   7.895  40.584   5.819
 4936POPC   C1A62955   8.371  40.944   6.157
 4936POPC   D2A62956   8.554  41.106   6.564
 4936POPC   C3A62957   8.436  40.987   7.017
 4936POPC   C4A62958   8.345  41.129   7.460
 4936POPC   C1B62959   7.915  40.743   6.246
 4936POPC   C2B62960   8.139  40.796   6.630
 4936POPC   C3B62961   8.071  40.616   7.062
 4936POPC   C4B62962   7.929  40.345   7.393
 4937POPC   NC362963   4.656  18.657   5.310
 4937POPC   PO462964   4.255  19.159   5.349
 4937POPC   GL162965   4.415  18.990   5.733
 4937POPC   GL262966   4.600  19.249   5.856
 4937POPC   C1A62967   4.243  19.044   6.164
 4937POPC   D2A62968   4.411  19.029   6.572
 4937POPC   C3A62969   4.092  19.019   6.861
 4937POPC   C4A62970   4.074  18.871   7.255
 4937POPC   C1B62971   4.514  19.479   6.207
 4937POPC   C2B62972   4.631  19.610   6.610
 4937POPC   C3B62973   4.519  19.367   6.956
 4937POPC   C4B62974   4.568  19.201   7.376
 4938POPC   NC362975   8.708  35.924   5.502
 4938POPC   PO462976   9.024  36.496   5.266
 4938POPC   GL162977   9.114  36.413   5.707
 4938POPC   GL262978   9.151  36.072   5.751
 4938POPC   C1A62979   8.951  36.387   6.141
 4938POPC   D2A62980   8.909  36.091   6.495
 4938POPC   C3A62981   8.951  36.241   6.917
 4938POPC   C4A62982   8.900  36.024   7.316
 4938POPC   C1B62983   9.343  36.044   6.184
 4938POPC   C2B62984   9.411  35.964   6.633
 4938POPC   C3B62985   9.399  35.904   7.077
 4938POPC   C4B62986   9.389  36.087   7.468
 4939POPC   NC362987  38.639  27.992   5.475
 4939POPC   PO462988  38.880  27.442   5.253
 4939POPC   GL162989  38.536  27.428   5.614
 4939POPC   GL262990  38.583  27.686   5.871
 4939POPC   C1A62991  38.268  27.329   6.046
 4939POPC   D2A62992  38.355  27.314   6.531
 4939POPC   C3A62993  38.185  27.470   6.952
 4939POPC   C4A62994  38.132  27.784   7.219
 4939POPC   C1B62995  38.905  27.692   6.198
 4939POPC   C2B62996  38.881  27.454   6.584
 4939POPC   C3B62997  38.692  27.451   6.995
 4939POPC   C4B62998  38.623  27.711   7.362
 4940POPC   NC362999   2.848   9.215   5.514
 4940POPC   PO463000   2.267   8.889   5.435
 4940POPC   GL163001   2.522   8.883   5.795
 4940POPC   GL263002   2.735   8.603   5.729
 4940POPC   C1A63003   2.684   9.104   6.171
 4940POPC   D2A63004   2.958   9.182   6.525
 4940POPC   C3A63005   2.717   9.156   6.904
 4940POPC   C4A63006   2.916   9.027   7.273
 4940POPC   C1B63007   3.002   8.695   6.100
 4940POPC   C2B63008   3.153   8.680   6.537
 4940POPC   C3B63009   2.921   8.677   6.901
 4940POPC   C4B63010   2.996   8.512   7.291
 4941POPC   NC363011  11.983  44.941   5.718
 4941POPC   PO463012  12.458  44.552   5.407
 4941POPC   GL163013  12.238  44.513   5.793
 4941POPC   GL263014  12.524  44.405   5.952
 4941POPC   C1A63015  11.867  44.502   6.156
 4941POPC   D2A63016  11.887  44.821   6.508
 4941POPC   C3A63017  11.935  44.746   6.958
 4941POPC   C4A63018  12.283  44.956   7.131
 4941POPC   C1B63019  12.340  44.687   6.262
 4941POPC   C2B63020  12.352  44.646   6.681
 4941POPC   C3B63021  12.542  44.542   7.030
 4941POPC   C4B63022  12.543  44.591   7.453
 4942POPC   NC363023   1.305  39.125   5.489
 4942POPC   PO463024   0.750  39.365   5.547
 4942POPC   GL163025   0.816  39.352   5.965
 4942POPC   GL263026   1.021  39.080   5.905
 4942POPC   C1A63027   1.121  39.342   6.356
 4942POPC   D2A63028   1.514  39.422   6.604
 4942POPC   C3A63029   1.373  39.562   7.017
 4942POPC   C4A63030   1.068  39.377   7.308
 4942POPC   C1B63031   1.428  38.991   6.126
 4942POPC   C2B63032   1.442  38.892   6.540
 4942POPC   C3B63033   1.240  39.065   6.887
 4942POPC   C4B63034   1.388  38.940   7.279
 4943POPC   NC363035  43.791  27.189   5.384
 4943POPC   PO463036  44.239  27.729   5.433
 4943POPC   GL163037  44.023  27.775   5.828
 4943POPC   GL263038  43.834  27.445   5.840
 4943POPC   C1A63039  44.004  27.675   6.282
 4943POPC   D2A63040  43.661  27.742   6.573
 4943POPC   C3A63041  43.796  27.713   6.987
 4943POPC   C4A63042  43.641  27.530   7.366
 4943POPC   C1B63043  43.848  27.199   6.240
 4943POPC   C2B63044  43.944  27.297   6.690
 4943POPC   C3B63045  44.025  27.209   7.138
 4943POPC   C4B63046  43.948  27.224   7.623
 4944POPC   NC363047  16.358   5.335   5.400
 4944POPC   PO463048  15.947   4.778   5.453
 4944POPC   GL163049  16.033   5.097   5.758
 4944POPC   GL263050  16.310   5.225   5.900
 4944POPC   C1A63051  15.900   5.132   6.183
 4944POPC   D2A63052  15.876   4.918   6.565
 4944POPC   C3A63053  15.635   5.113   6.851
 4944POPC   C4A63054  15.677   5.182   7.292
 4944POPC   C1B63055  16.289   5.430   6.290
 4944POPC   C2B63056  16.299   5.163   6.618
 4944POPC   C3B63057  16.119   5.103   7.007
 4944POPC   C4B63058  16.154   5.276   7.450
 4945POPC   NC363059  12.045  17.555   5.207
 4945POPC   PO463060  11.784  16.970   5.513
 4945POPC   GL163061  11.991  17.337   5.710
 4945POPC   GL263062  11.819  17.640   5.674
 4945POPC   C1A63063  12.296  17.331   6.089
 4945POPC   D2A63064  12.514  17.255   6.516
 4945POPC   C3A63065  12.393  17.409   6.936
 4945POPC   C4A63066  12.295  17.491   7.405
 4945POPC   C1B63067  11.799  17.570   6.137
 4945POPC   C2B63068  12.045  17.490   6.527
 4945POPC   C3B63069  11.972  17.670   6.934
 4945POPC   C4B63070  11.779  17.692   7.301
 4946POPC   NC363071   5.427   4.623   5.669
 4946POPC   PO463072   5.054   4.118   5.369
 4946POPC   GL163073   4.998   4.287   5.808
 4946POPC   GL263074   4.909   3.965   5.951
 4946POPC   C1A63075   5.179   4.284   6.256
 4946POPC   D2A63076   5.507   4.211   6.579
 4946POPC   C3A63077   5.362   4.476   6.908
 4946POPC   C4A63078   5.048   4.520   7.240
 4946POPC   C1B63079   4.740   3.959   6.359
 4946POPC   C2B63080   4.765   4.055   6.802
 4946POPC   C3B63081   5.003   4.008   7.219
 4946POPC   C4B63082   4.934   3.800   7.625
 4947POPC   NC363083  18.207   1.535   5.486
 4947POPC   PO463084  18.632   0.992   5.411
 4947POPC   GL163085  18.465   1.125   5.818
 4947POPC   GL263086  18.490   0.783   5.879
 4947POPC   C1A63087  18.181   1.335   6.185
 4947POPC   D2A63088  18.076   1.514   6.625
 4947POPC   C3A63089  18.207   1.412   7.080
 4947POPC   C4A63090  18.653   1.396   7.219
 4947POPC   C1B63091  18.270   0.843   6.258
 4947POPC   C2B63092  18.034   0.970   6.631
 4947POPC   C3B63093  18.116   0.912   7.042
 4947POPC   C4B63094  18.267   0.930   7.413
 4948POPC   NC363095  15.503  44.480   5.517
 4948POPC   PO463096  16.102  44.561   5.061
 4948POPC   GL163097  15.995  44.679   5.524
 4948POPC   GL263098  15.960  44.360   5.726
 4948POPC   C1A63099  15.865  44.785   5.984
 4948POPC   D2A63100  15.829  44.809   6.457
 4948POPC   C3A63101  15.645  44.776   6.882
 4948POPC   C4A63102  15.808  44.873   7.310
 4948POPC   C1B63103  16.067  44.315   6.189
 4948POPC   C2B63104  16.100  44.428   6.640
 4948POPC   C3B63105  15.950  44.408   7.084
 4948POPC   C4B63106  16.202  44.466   7.469
 4949POPC   NC363107  14.769  19.603   5.464
 4949POPC   PO463108  14.106  19.559   5.628
 4949POPC   GL163109  14.371  19.839   5.849
 4949POPC   GL263110  14.709  19.772   5.993
 4949POPC   C1A63111  14.299  20.052   6.244
 4949POPC   D2A63112  14.413  19.932   6.673
 4949POPC   C3A63113  14.101  19.879   7.001
 4949POPC   C4A63114  14.155  20.199   7.288
 4949POPC   C1B63115  14.417  19.553   6.316
 4949POPC   C2B63116  14.326  19.429   6.787
 4949POPC   C3B63117  14.444  19.554   7.223
 4949POPC   C4B63118  14.699  19.630   7.618
 4950POPC   NC363119  35.253  12.325   5.151
 4950POPC   PO463120  35.462  12.910   5.430
 4950POPC   GL163121  35.268  12.941   5.831
 4950POPC   GL263122  35.595  12.992   5.951
 4950POPC   C1A63123  35.167  12.829   6.280
 4950POPC   D2A63124  35.377  13.031   6.621
 4950POPC   C3A63125  35.383  13.123   7.064
 4950POPC   C4A63126  35.818  13.160   7.045
 4950POPC   C1B63127  35.644  12.651   6.234
 4950POPC   C2B63128  35.521  12.482   6.576
 4950POPC   C3B63129  35.470  12.644   6.948
 4950POPC   C4B63130  35.649  12.733   7.312
 4951POPC   NC363131  31.399  44.558   5.413
 4951POPC   PO463132  31.769   0.075   5.633
 4951POPC   GL163133  31.481  44.772   5.865
 4951POPC   GL263134  31.562  44.371   5.868
 4951POPC   C1A63135  31.421  44.777   6.290
 4951POPC   D2A63136  31.759  44.815   6.576
 4951POPC   C3A63137  31.585  44.830   6.962
 4951POPC   C4A63138  31.802  44.802   7.384
 4951POPC   C1B63139  31.672  44.327   6.318
 4951POPC   C2B63140  31.464  44.380   6.723
 4951POPC   C3B63141  31.534  44.365   7.182
 4951POPC   C4B63142  31.818  44.099   7.421
 4952POPC   NC363143   3.594  31.616   5.347
 4952POPC   PO463144   3.867  30.914   5.492
 4952POPC   GL163145   3.808  31.280   5.731
 4952POPC   GL263146   3.454  31.394   5.810
 4952POPC   C1A63147   3.819  31.355   6.172
 4952POPC   D2A63148   3.625  31.475   6.551
 4952POPC   C3A63149   3.734  31.356   6.935
 4952POPC   C4A63150   3.496  31.193   7.255
 4952POPC   C1B63151   3.414  31.704   6.153
 4952POPC   C2B63152   3.136  31.528   6.474
 4952POPC   C3B63153   3.211  31.427   6.893
 4952POPC   C4B63154   3.254  31.655   7.254
 4953POPC   NC363155  17.927  42.080   5.582
 4953POPC   PO463156  18.415  42.500   5.313
 4953POPC   GL163157  18.252  42.474   5.764
 4953POPC   GL263158  17.891  42.502   5.887
 4953POPC   C1A63159  18.309  42.274   6.207
 4953POPC   D2A63160  18.282  42.413   6.658
 4953POPC   C3A63161  18.275  42.138   7.034
 4953POPC   C4A63162  18.484  42.204   7.442
 4953POPC   C1B63163  17.854  42.458   6.347
 4953POPC   C2B63164  17.779  42.457   6.764
 4953POPC   C3B63165  18.009  42.567   7.107
 4953POPC   C4B63166  17.989  42.285   7.467
 4954POPC   NC363167  33.191   5.276   5.450
 4954POPC   PO463168  32.649   4.994   5.153
 4954POPC   GL163169  32.783   4.989   5.636
 4954POPC   GL263170  33.039   4.720   5.715
 4954POPC   C1A63171  32.970   5.214   6.061
 4954POPC   D2A63172  33.094   5.320   6.512
 4954POPC   C3A63173  32.981   5.228   6.948
 4954POPC   C4A63174  33.278   5.172   7.273
 4954POPC   C1B63175  33.115   4.752   6.201
 4954POPC   C2B63176  32.928   4.810   6.650
 4954POPC   C3B63177  33.154   4.706   7.080
 4954POPC   C4B63178  33.326   4.756   7.556
 4955POPC   NC363179   6.286  23.065   5.503
 4955POPC   PO463180   6.871  22.725   5.409
 4955POPC   GL163181   6.745  22.945   5.784
 4955POPC   GL263182   6.418  22.797   5.933
 4955POPC   C1A63183   6.880  23.165   6.162
 4955POPC   D2A63184   6.884  23.011   6.605
 4955POPC   C3A63185   6.830  23.280   6.976
 4955POPC   C4A63186   6.685  23.051   7.324
 4955POPC   C1B63187   6.410  23.045   6.337
 4955POPC   C2B63188   6.402  23.044   6.793
 4955POPC   C3B63189   6.276  22.724   7.083
 4955POPC   C4B63190   6.244  22.707   7.521
 4956POPC   NC363191  15.310  27.973   5.549
 4956POPC   PO463192  15.250  27.326   5.241
 4956POPC   GL163193  15.054  27.298   5.745
 4956POPC   GL263194  14.971  27.647   5.809
 4956POPC   C1A63195  15.201  27.427   6.208
 4956POPC   D2A63196  15.271  27.710   6.559
 4956POPC   C3A63197  15.250  27.582   6.968
 4956POPC   C4A63198  15.504  27.488   7.326
 4956POPC   C1B63199  14.872  27.824   6.236
 4956POPC   C2B63200  14.744  27.920   6.686
 4956POPC   C3B63201  14.811  27.764   7.113
 4956POPC   C4B63202  15.002  27.593   7.503
 4957POPC   NC363203  10.908  42.072   5.506
 4957POPC   PO463204  11.509  42.439   5.607
 4957POPC   GL163205  11.156  42.377   5.823
 4957POPC   GL263206  11.020  42.721   5.802
 4957POPC   C1A63207  11.171  42.115   6.219
 4957POPC   D2A63208  10.957  42.017   6.602
 4957POPC   C3A63209  11.216  42.085   6.947
 4957POPC   C4A63210  11.436  41.984   7.332
 4957POPC   C1B63211  11.285  42.650   6.214
 4957POPC   C2B63212  11.433  42.441   6.611
 4957POPC   C3B63213  11.288  42.581   7.031
 4957POPC   C4B63214  11.099  42.761   7.422
 4958POPC   NC363215  32.128  29.762   5.315
 4958POPC   PO463216  32.482  30.273   5.387
 4958POPC   GL163217  32.259  30.190   5.783
 4958POPC   GL263218  31.997  29.937   5.801
 4958POPC   C1A63219  32.296  30.023   6.247
 4958POPC   D2A63220  32.560  29.908   6.615
 4958POPC   C3A63221  32.318  29.776   6.963
 4958POPC   C4A63222  32.408  29.986   7.356
 4958POPC   C1B63223  31.869  30.270   6.108
 4958POPC   C2B63224  32.030  30.437   6.522
 4958POPC   C3B63225  32.055  30.220   6.949
 4958POPC   C4B63226  31.929  29.907   7.286
 4959POPC   NC363227  28.848   1.442   5.488
 4959POPC   PO463228  29.414   1.042   5.464
 4959POPC   GL163229  29.214   0.931   5.830
 4959POPC   GL263230  28.853   1.001   5.820
 4959POPC   C1A63231  29.197   1.024   6.252
 4959POPC   D2A63232  29.371   1.322   6.510
 4959POPC   C3A63233  29.224   1.331   6.935
 4959POPC   C4A63234  29.289   1.667   7.181
 4959POPC   C1B63235  28.825   1.339   6.140
 4959POPC   C2B63236  28.833   1.242   6.572
 4959POPC   C3B63237  28.711   1.397   6.956
 4959POPC   C4B63238  28.850   1.331   7.347
 4960POPC   NC363239  30.415  44.726   5.458
 4960POPC   PO463240  30.958  44.885   5.079
 4960POPC   GL163241  30.919  44.527   5.508
 4960POPC   GL263242  30.681  44.398   5.740
 4960POPC   C1A63243  31.093  44.443   6.027
 4960POPC   D2A63244  30.971  44.540   6.509
 4960POPC   C3A63245  31.055  44.572   6.979
 4960POPC   C4A63246  30.991  44.419   7.408
 4960POPC   C1B63247  30.620  44.335   6.177
 4960POPC   C2B63248  30.431  44.481   6.556
 4960POPC   C3B63249  30.534  44.764   6.881
 4960POPC   C4B63250  30.513  44.631   7.273
 4961POPC   NC363251  11.159  31.917   5.356
 4961POPC   PO463252  11.211  32.553   5.430
 4961POPC   GL163253  11.177  32.269   5.797
 4961POPC   GL263254  11.411  31.969   5.810
 4961POPC   C1A63255  11.178  32.320   6.247
 4961POPC   D2A63256  11.508  32.310   6.557
 4961POPC   C3A63257  11.363  32.225   6.993
 4961POPC   C4A63258  11.114  32.349   7.339
 4961POPC   C1B63259  11.277  31.818   6.216
 4961POPC   C2B63260  11.159  31.940   6.618
 4961POPC   C3B63261  11.015  31.782   7.002
 4961POPC   C4B63262  11.060  31.852   7.463
 4962POPC   NC363263  41.309  41.188   5.613
 4962POPC   PO463264  41.897  41.398   5.276
 4962POPC   GL163265  41.746  41.605   5.711
 4962POPC   GL263266  41.382  41.657   5.807
 4962POPC   C1A63267  41.684  41.611   6.201
 4962POPC   D2A63268  41.495  41.760   6.594
 4962POPC   C3A63269  41.671  41.614   6.946
 4962POPC   C4A63270  41.754  41.402   7.320
 4962POPC   C1B63271  41.183  41.778   6.192
 4962POPC   C2B63272  41.033  41.519   6.511
 4962POPC   C3B63273  41.164  41.544   6.941
 4962POPC   C4B63274  41.325  41.665   7.365
 4963POPC   NC363275  27.806   6.708   5.376
 4963POPC   PO463276  27.310   6.386   5.114
 4963POPC   GL163277  27.408   6.529   5.602
 4963POPC   GL263278  27.639   6.291   5.704
 4963POPC   C1A63279  27.434   6.684   6.046
 4963POPC   D2A63280  27.315   6.628   6.484
 4963POPC   C3A63281  27.489   6.925   6.775
 4963POPC   C4A63282  27.835   6.862   7.082
 4963POPC   C1B63283  27.801   6.340   6.099
 4963POPC   C2B63284  27.835   6.586   6.475
 4963POPC   C3B63285  27.664   6.431   6.859
 4963POPC   C4B63286  27.784   6.367   7.295
 4964POPC   NC363287  15.487  23.594   5.419
 4964POPC   PO463288  15.327  24.243   5.367
 4964POPC   GL163289  15.405  24.047   5.777
 4964POPC   GL263290  15.284  23.680   5.887
 4964POPC   C1A63291  15.327  24.055   6.234
 4964POPC   D2A63292  15.502  23.882   6.618
 4964POPC   C3A63293  15.241  23.749   6.980
 4964POPC   C4A63294  15.316  23.343   7.215
 4964POPC   C1B63295  15.182  23.535   6.359
 4964POPC   C2B63296  14.958  23.364   6.768
 4964POPC   C3B63297  14.835  23.519   7.203
 4964POPC   C4B63298  14.949  23.958   7.371
 4965POPC   NC363299  39.986  28.081   5.407
 4965POPC   PO463300  39.974  28.723   5.372
 4965POPC   GL163301  40.137  28.478   5.709
 4965POPC   GL263302  39.811  28.397   5.815
 4965POPC   C1A63303  40.164  28.274   6.137
 4965POPC   D2A63304  40.230  28.458   6.539
 4965POPC   C3A63305  40.126  28.251   6.927
 4965POPC   C4A63306  40.372  28.115   7.271
 4965POPC   C1B63307  39.699  28.473   6.258
 4965POPC   C2B63308  39.663  28.424   6.705
 4965POPC   C3B63309  39.692  28.436   7.153
 4965POPC   C4B63310  39.817  28.417   7.572
 4966POPC   NC363311   9.799  35.355   5.075
 4966POPC   PO463312   9.747  35.013   5.620
 4966POPC   GL163313   9.743  35.391   5.863
 4966POPC   GL263314   9.534  35.173   6.075
 4966POPC   C1A63315   9.650  35.620   6.267
 4966POPC   D2A63316   9.565  35.464   6.682
 4966POPC   C3A63317   9.808  35.582   7.023
 4966POPC   C4A63318   9.722  35.730   7.443
 4966POPC   C1B63319   9.967  35.163   6.274
 4966POPC   C2B63320  10.052  35.178   6.711
 4966POPC   C3B63321   9.792  35.079   7.061
 4966POPC   C4B63322   9.833  35.255   7.441
 4967POPC   NC363323  32.676   6.901   5.233
 4967POPC   PO463324  33.287   6.622   5.528
 4967POPC   GL163325  32.979   6.739   5.787
 4967POPC   GL263326  32.688   6.502   5.741
 4967POPC   C1A63327  33.143   6.843   6.199
 4967POPC   D2A63328  33.364   6.595   6.500
 4967POPC   C3A63329  33.255   6.681   6.898
 4967POPC   C4A63330  33.038   6.850   7.261
 4967POPC   C1B63331  32.643   6.700   6.161
 4967POPC   C2B63332  32.836   6.712   6.587
 4967POPC   C3B63333  32.645   6.707   6.977
 4967POPC   C4B63334  32.642   6.562   7.403
 4968POPC   NC363335  10.282  36.877   5.559
 4968POPC   PO463336  10.814  36.810   5.239
 4968POPC   GL163337  10.907  36.977   5.709
 4968POPC   GL263338  10.704  37.226   5.767
 4968POPC   C1A63339  10.757  36.951   6.221
 4968POPC   D2A63340  10.413  36.836   6.546
 4968POPC   C3A63341  10.500  36.745   6.993
 4968POPC   C4A63342  10.332  36.870   7.405
 4968POPC   C1B63343  10.428  37.319   6.123
 4968POPC   C2B63344  10.498  37.362   6.519
 4968POPC   C3B63345  10.696  37.212   6.844
 4968POPC   C4B63346  10.557  37.268   7.219
 4969POPC   NC363347  40.216  42.673   5.457
 4969POPC   PO463348  39.797  42.322   5.081
 4969POPC   GL163349  39.819  42.326   5.625
 4969POPC   GL263350  40.097  42.471   5.888
 4969POPC   C1A63351  39.772  42.158   6.091
 4969POPC   D2A63352  39.648  42.114   6.550
 4969POPC   C3A63353  39.745  42.437   6.848
 4969POPC   C4A63354  39.802  42.416   7.266
 4969POPC   C1B63355  40.345  42.243   6.218
 4969POPC   C2B63356  40.407  42.169   6.663
 4969POPC   C3B63357  40.427  42.393   7.050
 4969POPC   C4B63358  40.268  42.421   7.454
 4970POPC   NC363359   9.790   2.650   5.227
 4970POPC   PO463360  10.289   2.305   5.502
 4970POPC   GL163361   9.877   2.521   5.732
 4970POPC   GL263362   9.684   2.847   5.696
 4970POPC   C1A63363   9.672   2.662   6.156
 4970POPC   D2A63364   9.505   2.664   6.561
 4970POPC   C3A63365   9.794   2.728   6.883
 4970POPC   C4A63366   9.821   2.704   7.292
 4970POPC   C1B63367   9.398   3.064   6.013
 4970POPC   C2B63368   9.483   3.250   6.384
 4970POPC   C3B63369   9.517   3.145   6.801
 4970POPC   C4B63370   9.727   3.196   7.173
 4971POPC   NC363371   3.784  12.031   5.102
 4971POPC   PO463372   3.487  12.337   5.660
 4971POPC   GL163373   3.496  12.015   5.902
 4971POPC   GL263374   3.780  11.802   5.886
 4971POPC   C1A63375   3.352  12.137   6.295
 4971POPC   D2A63376   3.499  12.326   6.672
 4971POPC   C3A63377   3.561  12.132   7.091
 4971POPC   C4A63378   3.517  12.246   7.539
 4971POPC   C1B63379   3.657  11.741   6.296
 4971POPC   C2B63380   3.806  11.886   6.684
 4971POPC   C3B63381   3.976  11.833   7.081
 4971POPC   C4B63382   3.833  11.868   7.480
 4972POPC   NC363383  27.847   5.075   5.366
 4972POPC   PO463384  27.307   4.685   5.440
 4972POPC   GL163385  27.495   4.868   5.824
 4972POPC   GL263386  27.866   4.910   5.852
 4972POPC   C1A63387  27.454   5.024   6.266
 4972POPC   D2A63388  27.628   5.130   6.680
 4972POPC   C3A63389  27.572   4.962   7.094
 4972POPC   C4A63390  27.390   5.158   7.465
 4972POPC   C1B63391  27.959   5.038   6.258
 4972POPC   C2B63392  28.104   4.951   6.672
 4972POPC   C3B63393  28.057   5.176   7.030
 4972POPC   C4B63394  28.034   5.395   7.394
 4973POPC   NC363395  25.636  22.522   5.488
 4973POPC   PO463396  25.227  22.003   5.480
 4973POPC   GL163397  25.154  22.061   5.889
 4973POPC   GL263398  25.363  22.356   5.944
 4973POPC   C1A63399  24.925  22.093   6.257
 4973POPC   D2A63400  24.950  22.430   6.594
 4973POPC   C3A63401  25.034  22.291   7.048
 4973POPC   C4A63402  25.244  21.892   7.194
 4973POPC   C1B63403  25.419  22.152   6.371
 4973POPC   C2B63404  25.482  22.207   6.816
 4973POPC   C3B63405  25.742  22.246   7.167
 4973POPC   C4B63406  25.682  22.323   7.602
 4974POPC   NC363407   9.910  33.639   5.432
 4974POPC   PO463408   9.349  34.108   5.432
 4974POPC   GL163409   9.603  33.881   5.763
 4974POPC   GL263410   9.924  34.055   5.750
 4974POPC   C1A63411   9.814  33.750   6.173
 4974POPC   D2A63412   9.782  34.032   6.552
 4974POPC   C3A63413   9.646  33.941   6.977
 4974POPC   C4A63414   9.742  33.559   7.228
 4974POPC   C1B63415  10.164  34.116   6.124
 4974POPC   C2B63416  10.304  33.938   6.514
 4974POPC   C3B63417  10.072  33.695   6.829
 4974POPC   C4B63418  10.112  33.936   7.221
 4975POPC   NC363419  29.270   6.054   5.259
 4975POPC   PO463420  29.411   5.607   5.761
 4975POPC   GL163421  28.997   5.699   5.904
 4975POPC   GL263422  28.984   6.006   5.716
 4975POPC   C1A63423  28.910   5.730   6.355
 4975POPC   D2A63424  29.284   5.852   6.629
 4975POPC   C3A63425  29.310   5.763   7.069
 4975POPC   C4A63426  29.307   5.950   7.452
 4975POPC   C1B63427  29.033   6.196   6.132
 4975POPC   C2B63428  28.907   6.227   6.533
 4975POPC   C3B63429  29.092   6.256   6.927
 4975POPC   C4B63430  28.888   6.164   7.292
 4976POPC   NC363431   1.398  13.114   5.243
 4976POPC   PO463432   2.000  12.988   5.429
 4976POPC   GL163433   2.030  12.843   5.822
 4976POPC   GL263434   2.361  12.859   5.837
 4976POPC   C1A63435   2.047  12.957   6.232
 4976POPC   D2A63436   1.842  12.794   6.572
 4976POPC   C3A63437   1.998  12.936   6.946
 4976POPC   C4A63438   1.862  12.795   7.333
 4976POPC   C1B63439   2.468  12.650   6.216
 4976POPC   C2B63440   2.360  12.651   6.654
 4976POPC   C3B63441   2.508  12.914   6.986
 4976POPC   C4B63442   2.293  13.099   7.325
 4977POPC   NC363443  31.462  14.422   5.195
 4977POPC   PO463444  31.795  14.768   5.589
 4977POPC   GL163445  31.658  14.489   5.869
 4977POPC   GL263446  31.457  14.200   5.744
 4977POPC   C1A63447  31.774  14.253   6.225
 4977POPC   D2A63448  31.560  14.227   6.603
 4977POPC   C3A63449  31.719  14.297   6.982
 4977POPC   C4A63450  31.562  14.557   7.317
 4977POPC   C1B63451  31.288  14.035   6.172
 4977POPC   C2B63452  31.105  14.006   6.644
 4977POPC   C3B63453  31.258  14.040   7.095
 4977POPC   C4B63454  31.044  14.141   7.507
 4978POPC   NC363455  21.255  23.295   5.311
 4978POPC   PO463456  21.689  23.817   5.186
 4978POPC   GL163457  21.551  23.785   5.620
 4978POPC   GL263458  21.761  23.961   5.854
 4978POPC   C1A63459  21.284  23.604   5.962
 4978POPC   D2A63460  21.243  23.383   6.376
 4978POPC   C3A63461  21.241  23.497   6.840
 4978POPC   C4A63462  21.362  23.589   7.263
 4978POPC   C1B63463  21.507  24.012   6.204
 4978POPC   C2B63464  21.208  23.919   6.528
 4978POPC   C3B63465  21.398  24.005   6.926
 4978POPC   C4B63466  21.588  24.037   7.342
 4979POPC   NC363467   7.021  36.232   5.379
 4979POPC   PO463468   7.552  35.838   5.426
 4979POPC   GL163469   7.317  36.082   5.800
 4979POPC   GL263470   7.277  36.460   5.819
 4979POPC   C1A63471   7.411  36.186   6.262
 4979POPC   D2A63472   7.708  36.077   6.606
 4979POPC   C3A63473   7.608  36.102   7.052
 4979POPC   C4A63474   7.941  36.217   7.289
 4979POPC   C1B63475   7.147  36.635   6.249
 4979POPC   C2B63476   7.126  36.469   6.699
 4979POPC   C3B63477   7.018  36.634   7.097
 4979POPC   C4B63478   7.232  36.738   7.472
 4980POPC   NC363479  38.421  23.758   5.325
 4980POPC   PO463480  38.517  23.214   5.523
 4980POPC   GL163481  38.395  23.589   5.815
 4980POPC   GL263482  38.552  23.934   5.796
 4980POPC   C1A63483  38.253  23.656   6.254
 4980POPC   D2A63484  38.208  23.897   6.688
 4980POPC   C3A63485  38.069  23.722   7.113
 4980POPC   C4A63486  38.402  23.553   7.393
 4980POPC   C1B63487  38.474  24.126   6.227
 4980POPC   C2B63488  38.665  24.131   6.676
 4980POPC   C3B63489  38.531  23.996   7.133
 4980POPC   C4B63490  38.459  23.990   7.627
 4981POPC   NC363491   6.821  33.955   5.429
 4981POPC   PO463492   6.969  33.370   5.494
 4981POPC   GL163493   6.719  33.592   5.818
 4981POPC   GL263494   6.442  33.843   5.734
 4981POPC   C1A63495   6.667  33.660   6.275
 4981POPC   D2A63496   6.727  34.020   6.548
 4981POPC   C3A63497   6.895  33.889   6.938
 4981POPC   C4A63498   6.761  33.568   7.230
 4981POPC   C1B63499   6.269  33.943   6.144
 4981POPC   C2B63500   6.176  33.723   6.545
 4981POPC   C3B63501   6.383  33.829   6.921
 4981POPC   C4B63502   6.441  34.245   7.089
 4982POPC   NC363503  34.826  19.399   5.584
 4982POPC   PO463504  34.621  18.738   5.512
 4982POPC   GL163505  34.643  18.989   5.846
 4982POPC   GL263506  34.419  19.253   5.865
 4982POPC   C1A63507  34.747  19.172   6.254
 4982POPC   D2A63508  34.601  19.390   6.623
 4982POPC   C3A63509  34.770  19.275   7.015
 4982POPC   C4A63510  34.774  18.881   7.196
 4982POPC   C1B63511  34.205  19.389   6.211
 4982POPC   C2B63512  34.068  19.551   6.601
 4982POPC   C3B63513  34.248  19.397   6.981
 4982POPC   C4B63514  34.349  19.173   7.293
 4983POPC   NC363515  43.615  37.786   5.341
 4983POPC   PO463516  43.029  37.605   5.374
 4983POPC   GL163517  43.073  37.735   5.785
 4983POPC   GL263518  43.254  38.044   5.654
 4983POPC   C1A63519  42.931  37.692   6.252
 4983POPC   D2A63520  43.179  37.572   6.645
 4983POPC   C3A63521  43.006  37.624   7.024
 4983POPC   C4A63522  43.059  37.597   7.455
 4983POPC   C1B63523  43.164  38.133   6.067
 4983POPC   C2B63524  43.239  38.064   6.472
 4983POPC   C3B63525  43.237  38.050   6.900
 4983POPC   C4B63526  43.201  38.071   7.351
 4984POPC   NC363527  22.442   2.506   5.679
 4984POPC   PO463528  21.958   1.905   5.597
 4984POPC   GL163529  22.109   2.180   5.889
 4984POPC   GL263530  21.766   2.295   5.938
 4984POPC   C1A63531  22.357   2.094   6.304
 4984POPC   D2A63532  22.397   1.807   6.686
 4984POPC   C3A63533  22.295   1.973   7.091
 4984POPC   C4A63534  22.496   2.401   7.121
 4984POPC   C1B63535  21.852   1.994   6.270
 4984POPC   C2B63536  21.861   1.793   6.645
 4984POPC   C3B63537  21.776   1.916   7.061
 4984POPC   C4B63538  21.881   2.013   7.506
 4985POPC   NC363539  44.743  44.086   5.413
 4985POPC   PO463540  44.366  43.534   5.503
 4985POPC   GL163541  44.497  43.681   5.885
 4985POPC   GL263542  44.847  43.797   5.843
 4985POPC   C1A63543  44.584  43.850   6.293
 4985POPC   D2A63544  44.768  44.071   6.630
 4985POPC   C3A63545  44.551  43.934   6.982
 4985POPC   C4A63546  44.717  44.010   7.367
 4985POPC   C1B63547   0.107  43.812   6.238
 4985POPC   C2B63548   0.026  43.609   6.621
 4985POPC   C3B63549   0.023  43.749   7.050
 4985POPC   C4B63550  44.937  43.557   7.406
 4986POPC   NC363551  12.625  24.998   4.999
 4986POPC   PO463552  13.062  25.319   5.328
 4986POPC   GL163553  12.964  25.310   5.790
 4986POPC   GL263554  12.810  25.009   5.877
 4986POPC   C1A63555  13.143  25.247   6.227
 4986POPC   D2A63556  13.035  25.108   6.668
 4986POPC   C3A63557  13.085  25.139   7.119
 4986POPC   C4A63558  12.750  25.176   7.458
 4986POPC   C1B63559  12.788  24.830   6.309
 4986POPC   C2B63560  12.750  24.672   6.770
 4986POPC   C3B63561  12.784  24.712   7.221
 4986POPC   C4B63562  13.157  24.735   7.464
 4987POPC   NC363563  25.397  33.545   5.430
 4987POPC   PO463564  24.834  33.785   5.152
 4987POPC   GL163565  25.024  33.976   5.650
 4987POPC   GL263566  24.797  34.159   5.892
 4987POPC   C1A63567  25.170  33.972   6.176
 4987POPC   D2A63568  25.210  33.794   6.672
 4987POPC   C3A63569  25.316  33.658   7.146
 4987POPC   C4A63570  25.462  33.350   7.501
 4987POPC   C1B63571  24.665  33.853   6.224
 4987POPC   C2B63572  24.696  33.802   6.659
 4987POPC   C3B63573  24.818  33.533   7.020
 4987POPC   C4B63574  24.975  33.263   7.371
 4988POPC   NC363575  37.160  15.253   5.421
 4988POPC   PO463576  36.494  15.329   5.387
 4988POPC   GL163577  36.737  15.158   5.758
 4988POPC   GL263578  37.006  15.373   5.892
 4988POPC   C1A63579  36.884  14.965   6.177
 4988POPC   D2A63580  37.111  14.871   6.574
 4988POPC   C3A63581  36.857  14.928   6.961
 4988POPC   C4A63582  36.854  15.082   7.402
 4988POPC   C1B63583  37.129  15.388   6.332
 4988POPC   C2B63584  36.995  15.361   6.737
 4988POPC   C3B63585  37.055  15.483   7.159
 4988POPC   C4B63586  37.120  15.468   7.611
 4989POPC   NC363587  32.441  20.272   5.330
 4989POPC   PO463588  31.990  19.805   5.576
 4989POPC   GL163589  32.288  19.876   5.882
 4989POPC   GL263590  32.001  19.920   6.089
 4989POPC   C1A63591  32.496  20.051   6.216
 4989POPC   D2A63592  32.303  20.190   6.601
 4989POPC   C3A63593  32.080  19.948   6.912
 4989POPC   C4A63594  32.254  19.951   7.324
 4989POPC   C1B63595  32.157  19.723   6.435
 4989POPC   C2B63596  32.175  19.462   6.777
 4989POPC   C3B63597  32.246  19.458   7.185
 4989POPC   C4B63598  32.044  19.564   7.545
 4990POPC   NC363599   1.250  32.084   5.465
 4990POPC   PO463600   1.258  31.484   5.277
 4990POPC   GL163601   1.326  31.580   5.680
 4990POPC   GL263602   0.970  31.550   5.754
 4990POPC   C1A63603   1.379  31.421   6.114
 4990POPC   D2A63604   1.276  31.518   6.558
 4990POPC   C3A63605   1.559  31.429   6.890
 4990POPC   C4A63606   1.510  31.285   7.332
 4990POPC   C1B63607   0.868  31.444   6.216
 4990POPC   C2B63608   0.775  31.490   6.686
 4990POPC   C3B63609   1.043  31.346   7.056
 4990POPC   C4B63610   1.027  31.181   7.500
 4991POPC   NC363611  33.929  43.146   5.379
 4991POPC   PO463612  33.655  42.547   5.534
 4991POPC   GL163613  33.540  42.821   5.871
 4991POPC   GL263614  33.649  43.183   5.818
 4991POPC   C1A63615  33.792  42.915   6.260
 4991POPC   D2A63616  34.215  43.024   6.461
 4991POPC   C3A63617  34.120  43.060   6.893
 4991POPC   C4A63618  33.681  43.017   6.979
 4991POPC   C1B63619  33.663  43.430   6.228
 4991POPC   C2B63620  33.507  43.493   6.674
 4991POPC   C3B63621  33.530  43.458   7.142
 4991POPC   C4B63622  33.949  43.319   7.342
 4992POPC   NC363623  18.069  31.243   5.443
 4992POPC   PO463624  18.514  31.794   5.323
 4992POPC   GL163625  18.293  31.648   5.695
 4992POPC   GL263626  18.509  31.378   5.759
 4992POPC   C1A63627  18.180  31.498   6.131
 4992POPC   D2A63628  18.381  31.431   6.560
 4992POPC   C3A63629  18.222  31.493   6.973
 4992POPC   C4A63630  18.258  31.723   7.378
 4992POPC   C1B63631  18.601  31.146   6.141
 4992POPC   C2B63632  18.779  31.120   6.530
 4992POPC   C3B63633  18.704  31.197   6.934
 4992POPC   C4B63634  18.505  31.271   7.339
 4993POPC   NC363635  25.788  11.483   5.234
 4993POPC   PO463636  25.172  11.629   5.386
 4993POPC   GL163637  25.366  11.420   5.739
 4993POPC   GL263638  25.174  11.138   5.837
 4993POPC   C1A63639  25.446  11.351   6.201
 4993POPC   D2A63640  25.454  11.315   6.651
 4993POPC   C3A63641  25.176  11.459   6.935
 4993POPC   C4A63642  25.075  11.447   7.355
 4993POPC   C1B63643  25.037  10.946   6.225
 4993POPC   C2B63644  25.011  11.046   6.666
 4993POPC   C3B63645  25.007  10.998   7.127
 4993POPC   C4B63646  24.927  10.832   7.551
 4994POPC   NC363647  30.967  10.180   5.344
 4994POPC   PO463648  30.459   9.732   5.331
 4994POPC   GL163649  30.553  10.003   5.666
 4994POPC   GL263650  30.824   9.822   5.752
 4994POPC   C1A63651  30.602  10.102   6.137
 4994POPC   D2A63652  30.472   9.892   6.520
 4994POPC   C3A63653  30.391  10.030   6.943
 4994POPC   C4A63654  30.563   9.772   7.272
 4994POPC   C1B63655  30.856   9.633   6.150
 4994POPC   C2B63656  31.052   9.640   6.525
 4994POPC   C3B63657  30.915   9.675   6.914
 4994POPC   C4B63658  30.957   9.395   7.258
 4995POPC   NC363659  12.313   7.601   5.494
 4995POPC   PO463660  12.085   6.957   5.310
 4995POPC   GL163661  12.101   7.202   5.758
 4995POPC   GL263662  12.327   7.447   5.990
 4995POPC   C1A63663  11.882   7.293   6.170
 4995POPC   D2A63664  12.107   7.394   6.526
 4995POPC   C3A63665  12.120   7.144   6.905
 4995POPC   C4A63666  11.821   7.153   7.236
 4995POPC   C1B63667  12.361   7.812   6.332
 4995POPC   C2B63668  12.118   7.887   6.709
 4995POPC   C3B63669  11.911   7.641   6.977
 4995POPC   C4B63670  12.187   7.524   7.268
 4996POPC   NC363671   2.248  42.795   5.443
 4996POPC   PO463672   2.031  43.466   5.374
 4996POPC   GL163673   2.139  43.235   5.733
 4996POPC   GL263674   1.915  42.982   5.787
 4996POPC   C1A63675   2.241  43.213   6.176
 4996POPC   D2A63676   2.349  43.047   6.594
 4996POPC   C3A63677   2.173  43.313   6.881
 4996POPC   C4A63678   2.142  43.323   7.299
 4996POPC   C1B63679   1.731  43.208   6.107
 4996POPC   C2B63680   1.820  43.132   6.553
 4996POPC   C3B63681   1.668  43.236   6.979
 4996POPC   C4B63682   1.713  43.026   7.377
 4997POPC   NC363683  24.342  19.339   5.378
 4997POPC   PO463684  24.937  19.032   5.469
 4997POPC   GL163685  24.698  18.958   5.852
 4997POPC   GL263686  24.386  19.160   5.866
 4997POPC   C1A63687  24.565  18.939   6.284
 4997POPC   D2A63688  24.720  19.111   6.654
 4997POPC   C3A63689  24.566  18.979   7.038
 4997POPC   C4A63690  24.422  18.993   7.441
 4997POPC   C1B63691  24.319  19.489   6.207
 4997POPC   C2B63692  24.295  19.414   6.667
 4997POPC   C3B63693  24.243  19.365   7.109
 4997POPC   C4B63694  24.165  19.414   7.560
 4998POPC   NC363695  32.389  44.481   5.563
 4998POPC   PO463696  31.825  44.570   5.246
 4998POPC   GL163697  31.969  44.642   5.751
 4998POPC   GL263698  32.257  44.910   5.823
 4998POPC   C1A63699  32.089  44.632   6.211
 4998POPC   D2A63700  32.243  44.512   6.614
 4998POPC   C3A63701  31.979  44.511   6.951
 4998POPC   C4A63702  32.156  44.459   7.334
 4998POPC   C1B63703  32.470  44.993   6.252
 4998POPC   C2B63704  32.408   0.016   6.687
 4998POPC   C3B63705  32.410  44.799   7.054
 4998POPC   C4B63706  32.390  44.886   7.507
 4999POPC   NC363707  24.968  21.637   5.565
 4999POPC   PO463708  25.502  21.266   5.391
 4999POPC   GL163709  25.346  21.358   5.798
 4999POPC   GL263710  25.487  21.678   5.815
 4999POPC   C1A63711  25.136  21.532   6.192
 4999POPC   D2A63712  24.987  21.681   6.586
 4999POPC   C3A63713  25.150  21.452   6.935
 4999POPC   C4A63714  24.912  21.402   7.281
 4999POPC   C1B63715  25.628  21.690   6.240
 4999POPC   C2B63716  25.542  21.716   6.699
 4999POPC   C3B63717  25.703  21.684   7.142
 4999POPC   C4B63718  25.430  21.419   7.401
 5000POPC   NC363719   0.617  13.001   5.600
 5000POPC   PO463720   1.080  12.831   5.071
 5000POPC   GL163721   1.098  12.768   5.565
 5000POPC   GL263722   1.393  12.960   5.726
 5000POPC   C1A63723   1.036  12.867   6.057
 5000POPC   D2A63724   1.026  12.918   6.511
 5000POPC   C3A63725   1.235  12.676   6.825
 5000POPC   C4A63726   1.154  12.778   7.257
 5000POPC   C1B63727   1.522  13.024   6.179
 5000POPC   C2B63728   1.494  13.177   6.615
 5000POPC   C3B63729   1.519  13.063   7.054
 5000POPC   C4B63730   1.488  13.095   7.513
 5001POPC   NC363731  25.940   9.370   4.970
 5001POPC   PO463732  25.892   9.981   5.165
 5001POPC   GL163733  26.046   9.711   5.582
 5001POPC   GL263734  26.215   9.934   5.779
 5001POPC   C1A63735  26.176   9.514   6.028
 5001POPC   D2A63736  25.945   9.468   6.410
 5001POPC   C3A63737  26.072   9.595   6.816
 5001POPC   C4A63738  26.098   9.461   7.221
 5001POPC   C1B63739  25.885   9.960   6.095
 5001POPC   C2B63740  25.852   9.985   6.541
 5001POPC   C3B63741  26.111  10.104   6.877
 5001POPC   C4B63742  26.201  10.043   7.284
 5002POPC   NC363743   9.648  20.002   5.533
 5002POPC   PO463744   9.156  19.594   5.608
 5002POPC   GL163745   9.494  19.649   5.922
 5002POPC   GL263746   9.870  19.718   5.895
 5002POPC   C1A63747   9.623  19.538   6.336
 5002POPC   D2A63748   9.667  19.753   6.748
 5002POPC   C3A63749   9.559  19.765   7.208
 5002POPC   C4A63750   9.485  19.824   7.651
 5002POPC   C1B63751   9.942  19.933   6.296
 5002POPC   C2B63752  10.028  20.143   6.682
 5002POPC   C3B63753  10.029  19.942   7.055
 5002POPC   C4B63754  10.170  19.741   7.405
 5003POPC   NC363755  44.923   3.015   5.360
 5003POPC   PO463756  44.624   2.377   5.213
 5003POPC   GL163757  44.790   2.583   5.661
 5003POPC   GL263758  44.634   2.918   5.792
 5003POPC   C1A63759  44.838   2.607   6.119
 5003POPC   D2A63760  44.676   2.845   6.491
 5003POPC   C3A63761  44.712   2.575   6.871
 5003POPC   C4A63762  44.871   2.524   7.326
 5003POPC   C1B63763  44.343   3.182   6.070
 5003POPC   C2B63764  44.205   3.088   6.503
 5003POPC   C3B63765  44.350   2.964   6.895
 5003POPC   C4B63766  44.667   2.970   7.194
 5004POPC   NC363767  32.501  32.514   5.413
 5004POPC   PO463768  32.070  32.015   5.237
 5004POPC   GL163769  32.165  32.082   5.711
 5004POPC   GL263770  32.525  32.127   5.827
 5004POPC   C1A63771  32.150  32.328   6.120
 5004POPC   D2A63772  32.254  32.493   6.526
 5004POPC   C3A63773  31.953  32.418   6.840
 5004POPC   C4A63774  32.128  32.370   7.264
 5004POPC   C1B63775  32.641  32.418   6.184
 5004POPC   C2B63776  32.748  32.428   6.643
 5004POPC   C3B63777  32.549  32.538   7.032
 5004POPC   C4B63778  32.660  32.326   7.394
 5005POPC   NC363779   7.085   3.759   5.433
 5005POPC   PO463780   6.573   3.311   5.270
 5005POPC   GL163781   6.624   3.414   5.702
 5005POPC   GL263782   6.946   3.380   5.822
 5005POPC   C1A63783   6.556   3.590   6.125
 5005POPC   D2A63784   6.633   3.314   6.473
 5005POPC   C3A63785   6.626   3.378   6.940
 5005POPC   C4A63786   6.604   3.744   7.214
 5005POPC   C1B63787   7.055   3.548   6.218
 5005POPC   C2B63788   6.972   3.825   6.521
 5005POPC   C3B63789   7.027   3.743   6.943
 5005POPC   C4B63790   7.012   3.435   7.288
 5006POPC   NC363791  34.488  35.429   5.498
 5006POPC   PO463792  35.062  34.975   5.262
 5006POPC   GL163793  34.752  35.005   5.689
 5006POPC   GL263794  34.854  35.304   5.793
 5006POPC   C1A63795  34.520  35.187   6.130
 5006POPC   D2A63796  34.383  35.197   6.573
 5006POPC   C3A63797  34.369  35.611   6.783
 5006POPC   C4A63798  34.319  35.517   7.189
 5006POPC   C1B63799  35.013  35.476   6.133
 5006POPC   C2B63800  34.794  35.492   6.507
 5006POPC   C3B63801  34.767  35.295   6.899
 5006POPC   C4B63802  34.736  35.274   7.329
 5007POPC   NC363803   9.519   9.463   5.167
 5007POPC   PO463804  10.019   9.797   5.477
 5007POPC   GL163805   9.827   9.568   5.806
 5007POPC   GL263806   9.515   9.376   5.696
 5007POPC   C1A63807   9.733   9.804   6.189
 5007POPC   D2A63808   9.552   9.950   6.575
 5007POPC   C3A63809   9.832   9.865   6.925
 5007POPC   C4A63810   9.740   9.771   7.362
 5007POPC   C1B63811   9.557   9.326   6.170
 5007POPC   C2B63812   9.711   9.450   6.595
 5007POPC   C3B63813   9.501   9.483   7.020
 5007POPC   C4B63814   9.460   9.324   7.464
 5008POPC   NC363815  31.345   2.034   5.283
 5008POPC   PO463816  31.843   2.341   5.576
 5008POPC   GL163817  31.738   2.043   5.823
 5008POPC   GL263818  31.409   1.912   5.779
 5008POPC   C1A63819  31.774   2.081   6.230
 5008POPC   D2A63820  31.642   2.186   6.615
 5008POPC   C3A63821  31.651   1.928   6.966
 5008POPC   C4A63822  31.628   2.044   7.392
 5008POPC   C1B63823  31.323   1.848   6.228
 5008POPC   C2B63824  31.205   1.924   6.666
 5008POPC   C3B63825  31.121   2.226   6.988
 5008POPC   C4B63826  30.701   2.364   7.031
 5009POPC   NC363827   7.168  20.378   5.664
 5009POPC   PO463828   7.716  20.584   5.270
 5009POPC   GL163829   7.490  20.820   5.736
 5009POPC   GL263830   7.413  20.591   6.043
 5009POPC   C1A63831   7.499  21.000   6.263
 5009POPC   D2A63832   7.660  20.675   6.586
 5009POPC   C3A63833   7.604  20.649   7.057
 5009POPC   C4A63834   7.625  20.516   7.518
 5009POPC   C1B63835   7.168  20.466   6.376
 5009POPC   C2B63836   7.157  20.699   6.723
 5009POPC   C3B63837   6.937  20.831   7.037
 5009POPC   C4B63838   7.164  20.614   7.334
 5010POPC   NC363839   0.032  35.574   5.462
 5010POPC   PO463840  44.407  35.402   5.322
 5010POPC   GL163841  44.543  35.516   5.745
 5010POPC   GL263842  44.765  35.288   5.823
 5010POPC   C1A63843  44.629  35.651   6.210
 5010POPC   D2A63844  44.747  35.505   6.661
 5010POPC   C3A63845  44.495  35.601   7.052
 5010POPC   C4A63846  44.444  35.415   7.491
 5010POPC   C1B63847  44.661  35.147   6.241
 5010POPC   C2B63848  44.680  34.996   6.658
 5010POPC   C3B63849  44.608  35.107   7.085
 5010POPC   C4B63850  44.440  34.896   7.437
 5011POPC   NC363851  42.340  28.560   5.421
 5011POPC   PO463852  42.090  28.003   5.738
 5011POPC   GL163853  42.266  28.280   5.980
 5011POPC   GL263854  42.211  28.628   5.921
 5011POPC   C1A63855  42.161  28.190   6.392
 5011POPC   D2A63856  42.494  28.221   6.640
 5011POPC   C3A63857  42.285  28.460   6.914
 5011POPC   C4A63858  42.153  28.324   7.339
 5011POPC   C1B63859  42.364  28.654   6.360
 5011POPC   C2B63860  42.660  28.817   6.652
 5011POPC   C3B63861  42.729  28.658   7.050
 5011POPC   C4B63862  42.643  28.461   7.437
 5012POPC   NC363863  39.856  11.374   5.156
 5012POPC   PO463864  40.236  10.761   5.204
 5012POPC   GL163865  40.052  11.013   5.587
 5012POPC   GL263866  39.766  10.876   5.799
 5012POPC   C1A63867  40.196  11.228   5.981
 5012POPC   D2A63868  40.476  11.206   6.370
 5012POPC   C3A63869  40.344  11.118   6.819
 5012POPC   C4A63870  40.005  11.138   7.131
 5012POPC   C1B63871  39.745  11.003   6.211
 5012POPC   C2B63872  39.967  11.316   6.443
 5012POPC   C3B63873  40.030  11.528   6.804
 5012POPC   C4B63874  39.879  11.630   7.201
 5013POPC   NC363875  21.902  18.750   5.410
 5013POPC   PO463876  21.949  19.408   5.361
 5013POPC   GL163877  22.043  19.114   5.740
 5013POPC   GL263878  22.378  18.936   5.752
 5013POPC   C1A63879  22.132  19.210   6.182
 5013POPC   D2A63880  22.076  19.542   6.519
 5013POPC   C3A63881  21.975  19.425   6.969
 5013POPC   C4A63882  22.173  19.215   7.342
 5013POPC   C1B63883  22.218  18.711   6.123
 5013POPC   C2B63884  22.087  18.852   6.539
 5013POPC   C3B63885  22.230  18.956   6.922
 5013POPC   C4B63886  22.103  18.685   7.221
 5014POPC   NC363887  28.729  28.367   5.624
 5014POPC   PO463888  29.298  28.050   5.548
 5014POPC   GL163889  29.161  28.410   5.879
 5014POPC   GL263890  29.364  28.752   5.886
 5014POPC   C1A63891  28.978  28.330   6.307
 5014POPC   D2A63892  29.051  28.049   6.654
 5014POPC   C3A63893  29.082  28.364   6.961
 5014POPC   C4A63894  29.159  28.259   7.317
 5014POPC   C1B63895  29.015  28.828   6.173
 5014POPC   C2B63896  29.079  28.754   6.607
 5014POPC   C3B63897  28.939  28.872   7.003
 5014POPC   C4B63898  29.067  28.747   7.415
 5015POPC   NC363899   0.503  36.451   5.041
 5015POPC   PO463900   0.360  35.799   5.238
 5015POPC   GL163901   0.324  35.991   5.674
 5015POPC   GL263902   0.138  36.312   5.672
 5015POPC   C1A63903   0.496  36.225   6.067
 5015POPC   D2A63904   0.729  36.267   6.473
 5015POPC   C3A63905   0.524  36.161   6.858
 5015POPC   C4A63906   0.591  36.295   7.234
 5015POPC   C1B63907   0.034  36.459   6.088
 5015POPC   C2B63908   0.204  36.364   6.494
 5015POPC   C3B63909   0.069  36.403   6.927
 5015POPC   C4B63910   0.164  36.515   7.382
 5016POPC   NC363911  14.028  29.110   5.347
 5016POPC   PO463912  13.384  29.371   5.271
 5016POPC   GL163913  13.491  29.360   5.737
 5016POPC   GL263914  13.863  29.378   5.811
 5016POPC   C1A63915  13.411  29.108   6.131
 5016POPC   D2A63916  13.617  28.955   6.522
 5016POPC   C3A63917  13.471  29.064   6.953
 5016POPC   C4A63918  13.671  28.906   7.315
 5016POPC   C1B63919  13.846  29.350   6.279
 5016POPC   C2B63920  13.827  29.429   6.728
 5016POPC   C3B63921  13.809  29.391   7.181
 5016POPC   C4B63922  13.941  29.416   7.637
 5017POPC   NC363923   0.731   3.054   5.315
 5017POPC   PO463924   0.257   2.624   5.450
 5017POPC   GL163925   0.280   2.830   5.834
 5017POPC   GL263926   0.637   2.779   5.815
 5017POPC   C1A63927   0.302   2.774   6.311
 5017POPC   D2A63928   0.140   2.885   6.757
 5017POPC   C3A63929   0.332   2.686   7.142
 5017POPC   C4A63930   0.317   2.300   7.435
 5017POPC   C1B63931   0.660   3.090   6.098
 5017POPC   C2B63932   0.637   3.133   6.529
 5017POPC   C3B63933   0.829   3.192   6.935
 5017POPC   C4B63934   0.771   2.929   7.291
 5018POPC   NC363935  11.421  42.873   5.485
 5018POPC   PO463936  10.884  43.204   5.452
 5018POPC   GL163937  11.217  43.237   5.791
 5018POPC   GL263938  11.589  43.315   5.682
 5018POPC   C1A63939  11.300  43.189   6.237
 5018POPC   D2A63940  11.269  42.936   6.638
 5018POPC   C3A63941  11.366  43.088   7.063
 5018POPC   C4A63942  11.400  43.434   7.298
 5018POPC   C1B63943  11.757  43.409   6.083
 5018POPC   C2B63944  11.655  43.477   6.510
 5018POPC   C3B63945  11.779  43.343   6.911
 5018POPC   C4B63946  11.878  43.291   7.341
 5019POPC   NC363947  21.646  19.462   5.705
 5019POPC   PO463948  21.034  19.780   5.517
 5019POPC   GL163949  21.289  19.828   5.946
 5019POPC   GL263950  21.476  20.155   6.021
 5019POPC   C1A63951  21.651  19.755   6.271
 5019POPC   D2A63952  21.795  20.029   6.544
 5019POPC   C3A63953  21.516  19.963   6.902
 5019POPC   C4A63954  21.567  19.673   7.235
 5019POPC   C1B63955  21.192  20.055   6.383
 5019POPC   C2B63956  21.006  20.191   6.765
 5019POPC   C3B63957  21.158  20.294   7.138
 5019POPC   C4B63958  21.466  20.142   7.420
 5020POPC   NC363959  19.200   9.247   5.435
 5020POPC   PO463960  19.103   8.631   5.431
 5020POPC   GL163961  19.265   8.882   5.817
 5020POPC   GL263962  19.100   9.157   5.930
 5020POPC   C1A63963  19.238   8.866   6.322
 5020POPC   D2A63964  19.039   9.080   6.691
 5020POPC   C3A63965  19.145   8.940   7.110
 5020POPC   C4A63966  19.342   8.551   7.266
 5020POPC   C1B63967  18.762   9.046   6.234
 5020POPC   C2B63968  18.521   9.142   6.619
 5020POPC   C3B63969  18.701   9.219   7.056
 5020POPC   C4B63970  18.973   9.295   7.461
 5021POPC   NC363971  17.242   7.648   5.409
 5021POPC   PO463972  17.365   8.440   5.420
 5021POPC   GL163973  17.495   8.316   5.799
 5021POPC   GL263974  17.390   8.005   5.719
 5021POPC   C1A63975  17.620   8.382   6.219
 5021POPC   D2A63976  17.807   8.304   6.598
 5021POPC   C3A63977  17.645   8.340   7.008
 5021POPC   C4A63978  17.575   8.108   7.418
 5021POPC   C1B63979  17.426   7.838   6.109
 5021POPC   C2B63980  17.424   7.968   6.524
 5021POPC   C3B63981  17.451   7.870   6.950
 5021POPC   C4B63982  17.470   7.631   7.310
 5022POPC   NC363983  31.661  31.966   5.456
 5022POPC   PO463984  31.329  32.655   5.442
 5022POPC   GL163985  31.440  32.545   5.892
 5022POPC   GL263986  31.703  32.294   5.879
 5022POPC   C1A63987  31.597  32.505   6.369
 5022POPC   D2A63988  31.457  32.261   6.772
 5022POPC   C3A63989  31.189  32.464   7.128
 5022POPC   C4A63990  31.291  32.563   7.623
 5022POPC   C1B63991  31.794  31.985   6.231
 5022POPC   C2B63992  32.005  31.831   6.608
 5022POPC   C3B63993  31.900  31.954   7.037
 5022POPC   C4B63994  31.637  32.282   7.257
 5023POPC   NC363995  23.515   5.803   5.480
 5023POPC   PO463996  24.146   5.595   5.702
 5023POPC   GL163997  23.779   5.759   5.932
 5023POPC   GL263998  23.655   6.077   5.886
 5023POPC   C1A63999  23.777   5.929   6.358
 5023POPC   D2A64000  24.140   5.864   6.586
 5023POPC   C3A64001  24.056   5.683   6.970
 5023POPC   C4A64002  23.770   5.769   7.300
 5023POPC   C1B64003  23.433   6.340   6.201
 5023POPC   C2B64004  23.385   6.163   6.614
 5023POPC   C3B64005  23.709   6.086   6.904
 5023POPC   C4B64006  23.829   6.363   7.215
 5024POPC   NC364007  36.037   1.811   5.380
 5024POPC   PO464008  36.487   2.261   5.401
 5024POPC   GL164009  36.292   2.112   5.802
 5024POPC   GL264010  36.234   1.751   5.836
 5024POPC   C1A64011  36.191   2.101   6.267
 5024POPC   D2A64012  36.075   2.036   6.721
 5024POPC   C3A64013  36.196   2.322   7.053
 5024POPC   C4A64014  36.062   2.476   7.480
 5024POPC   C1B64015  35.824   1.780   6.052
 5024POPC   C2B64016  35.674   1.645   6.463
 5024POPC   C3B64017  35.752   1.600   6.913
 5024POPC   C4B64018  36.034   1.775   7.184
 5025POPC   NC364019  23.755   9.189   5.269
 5025POPC   PO464020  23.834   8.525   5.444
 5025POPC   GL164021  23.930   8.760   5.794
 5025POPC   GL264022  23.984   9.117   5.782
 5025POPC   C1A64023  23.759   8.845   6.191
 5025POPC   D2A64024  23.946   8.989   6.536
 5025POPC   C3A64025  23.732   8.945   6.901
 5025POPC   C4A64026  23.875   9.094   7.309
 5025POPC   C1B64027  23.884   9.370   6.198
 5025POPC   C2B64028  23.851   9.470   6.660
 5025POPC   C3B64029  23.583   9.400   7.010
 5025POPC   C4B64030  23.303   9.055   7.169
 5026POPC   NC364031  39.363  34.399   5.592
 5026POPC   PO464032  39.309  33.672   5.516
 5026POPC   GL164033  39.080  33.562   5.886
 5026POPC   GL264034  39.047  33.939   5.987
 5026POPC   C1A64035  38.779  33.611   6.251
 5026POPC   D2A64036  38.818  34.031   6.450
 5026POPC   C3A64037  39.096  34.032   6.795
 5026POPC   C4A64038  38.990  33.959   7.216
 5026POPC   C1B64039  39.288  33.805   6.323
 5026POPC   C2B64040  39.652  33.991   6.512
 5026POPC   C3B64041  39.552  34.259   6.859
 5026POPC   C4B64042  39.502  34.064   7.285
 5027POPC   NC364043   2.363  17.486   5.416
 5027POPC   PO464044   3.091  17.360   5.440
 5027POPC   GL164045   2.768  17.364   5.756
 5027POPC   GL264046   2.605  17.687   5.821
 5027POPC   C1A64047   2.817  17.440   6.209
 5027POPC   D2A64048   2.939  17.226   6.568
 5027POPC   C3A64049   2.676  17.318   6.894
 5027POPC   C4A64050   2.861  17.306   7.253
 5027POPC   C1B64051   2.605  17.917   6.213
 5027POPC   C2B64052   2.763  17.770   6.615
 5027POPC   C3B64053   2.965  17.803   7.018
 5027POPC   C4B64054   2.658  17.760   7.297
 5028POPC   NC364055  43.334  30.628   5.414
 5028POPC   PO464056  42.717  30.538   5.182
 5028POPC   GL164057  42.867  30.763   5.584
 5028POPC   GL264058  43.074  30.537   5.840
 5028POPC   C1A64059  42.831  30.949   6.019
 5028POPC   D2A64060  42.831  30.896   6.474
 5028POPC   C3A64061  42.974  30.699   6.842
 5028POPC   C4A64062  43.125  30.719   7.249
 5028POPC   C1B64063  43.224  30.619   6.279
 5028POPC   C2B64064  43.444  30.597   6.679
 5028POPC   C3B64065  43.487  30.403   7.081
 5028POPC   C4B64066  43.526  30.571   7.512
 5029POPC   NC364067   0.561  23.364   5.418
 5029POPC   PO464068   0.089  23.893   5.421
 5029POPC   GL164069   0.440  23.745   5.751
 5029POPC   GL264070   0.258  23.469   5.813
 5029POPC   C1A64071   0.615  23.511   6.188
 5029POPC   D2A64072   0.524  23.455   6.677
 5029POPC   C3A64073   0.639  23.736   7.045
 5029POPC   C4A64074   0.671  23.661   7.516
 5029POPC   C1B64075   0.139  23.725   6.168
 5029POPC   C2B64076   0.060  23.604   6.574
 5029POPC   C3B64077   0.130  23.739   7.005
 5029POPC   C4B64078   0.137  23.698   7.457
 5030POPC   NC364079  39.164  13.434   5.503
 5030POPC   PO464080  39.419  14.023   5.314
 5030POPC   GL164081  39.276  13.887   5.775
 5030POPC   GL264082  38.941  13.827   5.891
 5030POPC   C1A64083  39.283  13.599   6.185
 5030POPC   D2A64084  39.160  13.465   6.637
 5030POPC   C3A64085  39.434  13.576   6.995
 5030POPC   C4A64086  39.643  13.901   7.252
 5030POPC   C1B64087  38.769  13.555   6.252
 5030POPC   C2B64088  38.654  13.572   6.708
 5030POPC   C3B64089  38.940  13.606   7.113
 5030POPC   C4B64090  39.072  13.320   7.528
 5031POPC   NC364091  35.830  17.190   5.513
 5031POPC   PO464092  36.301  17.820   5.408
 5031POPC   GL164093  36.263  17.636   5.815
 5031POPC   GL264094  35.972  17.589   5.782
 5031POPC   C1A64095  36.183  17.429   6.240
 5031POPC   D2A64096  36.365  17.216   6.596
 5031POPC   C3A64097  36.141  17.357   6.946
 5031POPC   C4A64098  36.341  17.445   7.314
 5031POPC   C1B64099  35.784  17.739   6.138
 5031POPC   C2B64100  35.776  17.615   6.566
 5031POPC   C3B64101  35.759  17.832   6.942
 5031POPC   C4B64102  35.866  17.632   7.306
 5032POPC   NC364103   8.361  14.770   5.473
 5032POPC   PO464104   7.932  14.202   5.566
 5032POPC   GL164105   8.224  14.405   5.818
 5032POPC   GL264106   8.074  14.738   5.896
 5032POPC   C1A64107   8.507  14.278   6.144
 5032POPC   D2A64108   8.555  14.366   6.573
 5032POPC   C3A64109   8.179  14.283   6.801
 5032POPC   C4A64110   8.277  14.014   7.127
 5032POPC   C1B64111   8.030  14.605   6.337
 5032POPC   C2B64112   7.840  14.786   6.730
 5032POPC   C3B64113   8.020  14.689   7.124
 5032POPC   C4B64114   8.449  14.534   7.167
 5033POPC   NC364115   4.577  37.557   5.245
 5033POPC   PO464116   3.947  37.800   5.401
 5033POPC   GL164117   4.310  37.773   5.704
 5033POPC   GL264118   4.379  38.130   5.736
 5033POPC   C1A64119   4.425  37.664   6.170
 5033POPC   D2A64120   4.327  37.583   6.647
 5033POPC   C3A64121   4.447  37.307   7.002
 5033POPC   C4A64122   4.543  37.364   7.466
 5033POPC   C1B64123   4.130  38.081   6.129
 5033POPC   C2B64124   4.180  38.057   6.566
 5033POPC   C3B64125   4.349  37.953   6.994
 5033POPC   C4B64126   4.310  38.205   7.361
 5034POPC   NC364127   7.373  26.489   5.389
 5034POPC   PO464128   7.423  27.147   5.355
 5034POPC   GL164129   7.512  26.977   5.743
 5034POPC   GL264130   7.282  26.713   5.860
 5034POPC   C1A64131   7.678  26.925   6.166
 5034POPC   D2A64132   7.550  26.814   6.570
 5034POPC   C3A64133   7.674  27.046   6.931
 5034POPC   C4A64134   7.463  27.270   7.246
 5034POPC   C1B64135   7.114  26.661   6.298
 5034POPC   C2B64136   7.111  26.693   6.792
 5034POPC   C3B64137   7.286  26.783   7.233
 5034POPC   C4B64138   7.093  26.600   7.614
 5035POPC   NC364139   4.150  28.548   5.402
 5035POPC   PO464140   4.663  28.074   5.496
 5035POPC   GL164141   4.481  28.401   5.776
 5035POPC   GL264142   4.102  28.408   5.886
 5035POPC   C1A64143   4.487  28.594   6.192
 5035POPC   D2A64144   4.638  28.529   6.628
 5035POPC   C3A64145   4.349  28.436   6.963
 5035POPC   C4A64146   4.439  28.140   7.276
 5035POPC   C1B64147   3.809  28.552   6.230
 5035POPC   C2B64148   3.811  28.765   6.658
 5035POPC   C3B64149   3.848  28.618   7.115
 5035POPC   C4B64150   4.170  28.526   7.470
 5036POPC   NC364151  34.578  44.973   5.138
 5036POPC   PO464152  34.421  44.425   5.256
 5036POPC   GL164153  34.409  44.568   5.714
 5036POPC   GL264154  34.184  44.813   5.800
 5036POPC   C1A64155  34.564  44.757   6.141
 5036POPC   D2A64156  34.756   0.085   6.420
 5036POPC   C3A64157  34.769  44.946   6.891
 5036POPC   C4A64158  34.612  44.546   6.984
 5036POPC   C1B64159  34.094  44.930   6.221
 5036POPC   C2B64160  34.312   0.011   6.620
 5036POPC   C3B64161  34.290  44.947   7.065
 5036POPC   C4B64162  34.296   0.046   7.496
 5037POPC   NC364163   4.886  29.205   5.564
 5037POPC   PO464164   5.357  28.785   5.387
 5037POPC   GL164165   5.339  29.022   5.757
 5037POPC   GL264166   5.326  28.703   5.914
 5037POPC   C1A64167   5.280  29.291   6.126
 5037POPC   D2A64168   5.307  29.411   6.582
 5037POPC   C3A64169   4.929  29.400   6.892
 5037POPC   C4A64170   4.712  29.152   7.218
 5037POPC   C1B64171   5.244  28.832   6.347
 5037POPC   C2B64172   4.971  28.913   6.691
 5037POPC   C3B64173   5.093  28.836   7.092
 5037POPC   C4B64174   5.458  28.949   7.307
 5038POPC   NC364175  33.275  23.509   5.394
 5038POPC   PO464176  32.826  23.857   5.171
 5038POPC   GL164177  32.748  23.729   5.650
 5038POPC   GL264178  33.028  23.561   5.832
 5038POPC   C1A64179  32.663  23.716   6.139
 5038POPC   D2A64180  32.850  23.563   6.541
 5038POPC   C3A64181  32.917  23.751   6.931
 5038POPC   C4A64182  33.070  23.989   7.251
 5038POPC   C1B64183  33.168  23.823   6.182
 5038POPC   C2B64184  33.354  23.718   6.554
 5038POPC   C3B64185  33.430  23.577   6.948
 5038POPC   C4B64186  33.250  23.518   7.326
 5039POPC   NC364187  17.932   5.734   5.252
 5039POPC   PO464188  18.354   6.088   5.590
 5039POPC   GL164189  18.426   5.735   5.816
 5039POPC   GL264190  18.116   5.585   5.938
 5039POPC   C1A64191  18.386   5.894   6.234
 5039POPC   D2A64192  18.258   6.034   6.618
 5039POPC   C3A64193  18.486   5.987   6.953
 5039POPC   C4A64194  18.388   5.872   7.320
 5039POPC   C1B64195  17.988   5.552   6.367
 5039POPC   C2B64196  17.930   5.698   6.811
 5039POPC   C3B64197  18.029   5.540   7.238
 5039POPC   C4B64198  17.994   5.327   7.655
 5040POPC   NC364199  24.343  17.920   5.485
 5040POPC   PO464200  24.924  18.237   5.489
 5040POPC   GL164201  24.528  18.322   5.816
 5040POPC   GL264202  24.366  18.010   5.981
 5040POPC   C1A64203  24.369  18.452   6.267
 5040POPC   D2A64204  24.378  18.255   6.705
 5040POPC   C3A64205  24.376  18.486   7.100
 5040POPC   C4A64206  24.479  18.513   7.542
 5040POPC   C1B64207  24.075  18.030   6.339
 5040POPC   C2B64208  23.942  17.964   6.763
 5040POPC   C3B64209  24.209  17.994   7.143
 5040POPC   C4B64210  24.282  18.048   7.589
 5041POPC   NC364211  39.007  10.846   5.619
 5041POPC   PO464212  39.553  11.208   5.462
 5041POPC   GL164213  39.218  11.326   5.759
 5041POPC   GL264214  39.300  11.064   5.978
 5041POPC   C1A64215  38.956  11.445   6.132
 5041POPC   D2A64216  39.004  11.573   6.582
 5041POPC   C3A64217  38.783  11.451   6.947
 5041POPC   C4A64218  38.722  11.060   7.164
 5041POPC   C1B64219  39.449  11.417   6.260
 5041POPC   C2B64220  39.517  11.469   6.686
 5041POPC   C3B64221  39.508  11.188   7.035
 5041POPC   C4B64222  39.327  10.933   7.362
 5042POPC   NC364223  26.516   5.724   5.605
 5042POPC   PO464224  27.063   6.164   5.561
 5042POPC   GL164225  26.850   5.991   5.894
 5042POPC   GL264226  27.046   5.712   5.853
 5042POPC   C1A64227  26.730   5.779   6.295
 5042POPC   D2A64228  26.788   5.521   6.686
 5042POPC   C3A64229  26.992   5.789   6.989
 5042POPC   C4A64230  26.810   6.018   7.278
 5042POPC   C1B64231  27.161   5.467   6.215
 5042POPC   C2B64232  27.303   5.513   6.645
 5042POPC   C3B64233  27.154   5.319   7.037
 5042POPC   C4B64234  26.989   5.476   7.482
 5043POPC   NC364235  34.061   2.115   5.409
 5043POPC   PO464236  33.388   2.212   5.423
 5043POPC   GL164237  33.687   2.029   5.790
 5043POPC   GL264238  34.042   1.941   5.881
 5043POPC   C1A64239  33.768   2.168   6.238
 5043POPC   D2A64240  33.528   2.158   6.639
 5043POPC   C3A64241  33.700   2.148   7.042
 5043POPC   C4A64242  33.877   2.363   7.385
 5043POPC   C1B64243  34.104   1.750   6.260
 5043POPC   C2B64244  33.934   1.820   6.657
 5043POPC   C3B64245  34.028   1.730   7.064
 5043POPC   C4B64246  33.883   1.855   7.434
 5044POPC   NC364247  24.458  27.438   5.634
 5044POPC   PO464248  24.728  27.992   5.461
 5044POPC   GL164249  24.404  27.918   5.862
 5044POPC   GL264250  24.146  27.621   6.005
 5044POPC   C1A64251  24.355  27.937   6.334
 5044POPC   D2A64252  24.713  27.900   6.611
 5044POPC   C3A64253  24.655  27.716   7.012
 5044POPC   C4A64254  24.291  27.852   7.211
 5044POPC   C1B64255  24.287  27.400   6.317
 5044POPC   C2B64256  24.245  27.549   6.707
 5044POPC   C3B64257  24.272  27.319   7.021
 5044POPC   C4B64258  24.584  27.250   7.292
 5045POPC   NC364259   0.421  37.335   5.501
 5045POPC   PO464260   0.215  36.710   5.363
 5045POPC   GL164261   0.378  36.754   5.810
 5045POPC   GL264262   0.595  37.026   5.872
 5045POPC   C1A64263   0.424  36.771   6.276
 5045POPC   D2A64264   0.202  36.859   6.664
 5045POPC   C3A64265   0.455  36.741   7.004
 5045POPC   C4A64266   0.541  36.849   7.422
 5045POPC   C1B64267   0.826  37.113   6.242
 5045POPC   C2B64268   0.676  37.153   6.667
 5045POPC   C3B64269   0.873  37.053   7.061
 5045POPC   C4B64270   0.970  36.644   7.244
 5046POPC   NC364271  12.302  18.429   5.461
 5046POPC   PO464272  12.922  18.146   5.465
 5046POPC   GL164273  12.975  18.028   5.878
 5046POPC   GL264274  12.809  18.339   5.934
 5046POPC   C1A64275  13.081  18.198   6.314
 5046POPC   D2A64276  12.768  18.278   6.607
 5046POPC   C3A64277  13.005  18.248   6.953
 5046POPC   C4A64278  13.035  17.924   7.250
 5046POPC   C1B64279  12.602  18.611   6.223
 5046POPC   C2B64280  12.337  18.572   6.600
 5046POPC   C3B64281  12.442  18.392   7.000
 5046POPC   C4B64282  12.668  18.273   7.330
 5047POPC   NC364283  26.077  24.659   5.380
 5047POPC   PO464284  25.634  24.292   5.226
 5047POPC   GL164285  25.836  24.258   5.683
 5047POPC   GL264286  26.173  24.116   5.811
 5047POPC   C1A64287  25.974  24.440   6.124
 5047POPC   D2A64288  26.136  24.477   6.568
 5047POPC   C3A64289  25.858  24.350   6.889
 5047POPC   C4A64290  25.835  24.383   7.300
 5047POPC   C1B64291  26.298  24.065   6.277
 5047POPC   C2B64292  26.241  23.975   6.743
 5047POPC   C3B64293  26.307  24.191   7.139
 5047POPC   C4B64294  26.236  24.316   7.591
 5048POPC   NC364295  14.706  44.646   5.332
 5048POPC   PO464296  15.328  44.914   5.425
 5048POPC   GL164297  15.015  44.797   5.738
 5048POPC   GL264298  15.178  44.524   5.910
 5048POPC   C1A64299  15.006  44.929   6.171
 5048POPC   D2A64300  15.255  44.760   6.507
 5048POPC   C3A64301  15.163  44.957   6.893
 5048POPC   C4A64302  15.269  44.933   7.314
 5048POPC   C1B64303  15.547  44.440   6.179
 5048POPC   C2B64304  15.556  44.327   6.599
 5048POPC   C3B64305  15.273  44.418   6.914
 5048POPC   C4B64306  15.463  44.467   7.289
 5049POPC   NC364307  31.002  27.920   5.393
 5049POPC   PO464308  30.503  27.456   5.394
 5049POPC   GL164309  30.663  27.618   5.839
 5049POPC   GL264310  30.856  27.963   5.895
 5049POPC   C1A64311  30.661  27.522   6.317
 5049POPC   D2A64312  30.882  27.664   6.718
 5049POPC   C3A64313  30.797  27.497   7.129
 5049POPC   C4A64314  30.389  27.394   7.347
 5049POPC   C1B64315  30.753  28.028   6.357
 5049POPC   C2B64316  30.420  27.927   6.673
 5049POPC   C3B64317  30.462  27.877   7.129
 5049POPC   C4B64318  30.825  27.941   7.403
 5050POPC   NC364319  32.274  16.131   5.302
 5050POPC   PO464320  32.087  15.515   5.179
 5050POPC   GL164321  32.219  15.739   5.644
 5050POPC   GL264322  32.331  16.080   5.811
 5050POPC   C1A64323  32.385  15.621   6.086
 5050POPC   D2A64324  32.466  15.832   6.493
 5050POPC   C3A64325  32.347  15.670   6.898
 5050POPC   C4A64326  32.033  15.798   7.189
 5050POPC   C1B64327  32.587  16.228   6.186
 5050POPC   C2B64328  32.439  16.368   6.597
 5050POPC   C3B64329  32.322  16.198   7.022
 5050POPC   C4B64330  32.246  16.228   7.479
 5051POPC   NC364331  19.763  32.420   5.281
 5051POPC   PO464332  20.106  31.920   5.524
 5051POPC   GL164333  19.768  32.110   5.756
 5051POPC   GL264334  19.884  32.417   5.765
 5051POPC   C1A64335  19.589  32.195   6.169
 5051POPC   D2A64336  19.559  31.909   6.535
 5051POPC   C3A64337  19.599  32.115   6.936
 5051POPC   C4A64338  19.744  32.365   7.273
 5051POPC   C1B64339  20.144  32.217   6.120
 5051POPC   C2B64340  20.316  32.278   6.523
 5051POPC   C3B64341  20.118  32.239   6.919
 5051POPC   C4B64342  20.256  32.294   7.320
 5052POPC   NC364343  20.525   3.117   5.216
 5052POPC   PO464344  20.682   2.488   5.453
 5052POPC   GL164345  20.519   2.616   5.821
 5052POPC   GL264346  20.485   2.983   5.763
 5052POPC   C1A64347  20.450   2.743   6.235
 5052POPC   D2A64348  20.586   2.599   6.607
 5052POPC   C3A64349  20.581   2.865   6.929
 5052POPC   C4A64350  20.637   2.649   7.290
 5052POPC   C1B64351  20.737   3.132   6.146
 5052POPC   C2B64352  20.955   2.956   6.516
 5052POPC   C3B64353  21.067   3.080   6.935
 5052POPC   C4B64354  20.842   3.137   7.309
 5053POPC   NC364355   0.011  40.866   5.396
 5053POPC   PO464356   0.496  40.478   5.080
 5053POPC   GL164357   0.561  40.634   5.658
 5053POPC   GL264358   0.392  40.877   5.737
 5053POPC   C1A64359   0.499  40.588   6.145
 5053POPC   D2A64360   0.556  40.793   6.572
 5053POPC   C3A64361   0.513  40.608   7.012
 5053POPC   C4A64362   0.449  40.623   7.508
 5053POPC   C1B64363   0.575  41.096   6.092
 5053POPC   C2B64364   0.500  41.327   6.474
 5053POPC   C3B64365   0.483  41.189   6.891
 5053POPC   C4B64366   0.327  41.395   7.228
 5054POPC   NC364367  40.467  26.725   5.428
 5054POPC   PO464368  41.052  26.645   5.503
 5054POPC   GL164369  40.911  26.824   5.884
 5054POPC   GL264370  40.665  27.049   5.805
 5054POPC   C1A64371  40.969  26.712   6.314
 5054POPC   D2A64372  40.990  26.410   6.662
 5054POPC   C3A64373  41.023  26.630   7.035
 5054POPC   C4A64374  40.682  26.772   7.239
 5054POPC   C1B64375  40.552  27.018   6.260
 5054POPC   C2B64376  40.595  26.926   6.712
 5054POPC   C3B64377  40.403  27.145   7.078
 5054POPC   C4B64378  40.582  27.194   7.519
 5055POPC   NC364379   1.106  26.338   5.437
 5055POPC   PO464380   1.555  26.813   5.360
 5055POPC   GL164381   1.243  26.795   5.696
 5055POPC   GL264382   0.864  26.766   5.661
 5055POPC   C1A64383   1.251  26.682   6.132
 5055POPC   D2A64384   1.155  26.808   6.541
 5055POPC   C3A64385   1.439  26.834   6.888
 5055POPC   C4A64386   1.358  27.099   7.230
 5055POPC   C1B64387   0.749  26.569   6.063
 5055POPC   C2B64388   0.727  26.526   6.531
 5055POPC   C3B64389   0.947  26.628   6.959
 5055POPC   C4B64390   0.922  26.827   7.360
 5056POPC   NC364391  26.599  12.643   5.623
 5056POPC   PO464392  26.844  13.174   5.423
 5056POPC   GL164393  26.871  13.019   5.838
 5056POPC   GL264394  27.060  12.682   5.818
 5056POPC   C1A64395  26.839  12.862   6.252
 5056POPC   D2A64396  26.769  12.713   6.643
 5056POPC   C3A64397  26.818  12.922   7.015
 5056POPC   C4A64398  26.564  12.876   7.363
 5056POPC   C1B64399  27.093  12.432   6.186
 5056POPC   C2B64400  27.255  12.518   6.577
 5056POPC   C3B64401  27.063  12.416   6.933
 5056POPC   C4B64402  27.039  12.548   7.318
 5057POPC   NC364403  42.005   8.349   5.494
 5057POPC   PO464404  42.723   8.249   5.447
 5057POPC   GL164405  42.543   8.084   5.867
 5057POPC   GL264406  42.176   8.053   5.867
 5057POPC   C1A64407  42.411   8.044   6.318
 5057POPC   D2A64408  42.112   8.018   6.644
 5057POPC   C3A64409  42.375   7.920   6.963
 5057POPC   C4A64410  42.387   8.140   7.328
 5057POPC   C1B64411  42.136   8.435   6.157
 5057POPC   C2B64412  42.285   8.493   6.573
 5057POPC   C3B64413  42.245   8.452   6.973
 5057POPC   C4B64414  41.943   8.519   7.293
 5058POPC   NC364415  34.312  12.834   5.318
 5058POPC   PO464416  34.909  12.596   5.357
 5058POPC   GL164417  34.771  12.526   5.787
 5058POPC   GL264418  34.385  12.505   5.838
 5058POPC   C1A64419  34.723  12.559   6.243
 5058POPC   D2A64420  34.614  12.830   6.580
 5058POPC   C3A64421  34.906  12.967   6.895
 5058POPC   C4A64422  34.926  13.004   7.337
 5058POPC   C1B64423  34.289  12.300   6.256
 5058POPC   C2B64424  34.492  12.335   6.687
 5058POPC   C3B64425  34.511  12.626   7.070
 5058POPC   C4B64426  34.219  12.621   7.456
 5059POPC   NC364427  31.551  10.991   5.314
 5059POPC   PO464428  31.309  10.413   5.120
 5059POPC   GL164429  31.380  10.540   5.594
 5059POPC   GL264430  31.639  10.402   5.862
 5059POPC   C1A64431  31.276  10.741   6.019
 5059POPC   D2A64432  31.247  10.787   6.499
 5059POPC   C3A64433  31.274  10.484   6.866
 5059POPC   C4A64434  31.503  10.505   7.286
 5059POPC   C1B64435  31.625  10.312   6.344
 5059POPC   C2B64436  31.817  10.184   6.773
 5059POPC   C3B64437  31.951  10.272   7.210
 5059POPC   C4B64438  31.802  10.260   7.635
 5060POPC   NC364439  11.295  17.516   5.348
 5060POPC   PO464440  10.688  17.406   5.563
 5060POPC   GL164441  11.073  17.386   5.820
 5060POPC   GL264442  11.450  17.303   5.785
 5060POPC   C1A64443  11.255  17.666   6.125
 5060POPC   D2A64444  11.328  17.609   6.562
 5060POPC   C3A64445  11.047  17.743   6.892
 5060POPC   C4A64446  11.102  17.533   7.254
 5060POPC   C1B64447  11.408  17.182   6.234
 5060POPC   C2B64448  11.660  17.160   6.614
 5060POPC   C3B64449  11.539  17.368   6.978
 5060POPC   C4B64450  11.479  17.202   7.373
 5061POPC   NC364451  24.358   1.364   5.407
 5061POPC   PO464452  24.088   0.724   5.475
 5061POPC   GL164453  24.359   0.901   5.798
 5061POPC   GL264454  24.640   1.137   5.766
 5061POPC   C1A64455  24.478   1.057   6.227
 5061POPC   D2A64456  24.717   0.932   6.579
 5061POPC   C3A64457  24.534   1.146   6.894
 5061POPC   C4A64458  24.351   1.177   7.258
 5061POPC   C1B64459  24.803   1.444   6.085
 5061POPC   C2B64460  24.701   1.467   6.519
 5061POPC   C3B64461  24.697   1.644   6.903
 5061POPC   C4B64462  24.557   1.628   7.307
 5062POPC   NC364463   5.745  23.379   5.304
 5062POPC   PO464464   5.871  22.732   5.369
 5062POPC   GL164465   5.886  22.857   5.782
 5062POPC   GL264466   5.654  23.103   5.756
 5062POPC   C1A64467   5.794  22.722   6.204
 5062POPC   D2A64468   6.020  22.747   6.598
 5062POPC   C3A64469   5.754  22.650   6.950
 5062POPC   C4A64470   5.858  22.920   7.271
 5062POPC   C1B64471   5.523  23.167   6.199
 5062POPC   C2B64472   5.562  23.014   6.633
 5062POPC   C3B64473   5.469  23.151   7.061
 5062POPC   C4B64474   5.507  23.113   7.582
 5063POPC   NC364475  29.415  16.017   5.567
 5063POPC   PO464476  30.185  15.993   5.496
 5063POPC   GL164477  29.884  16.016   5.784
 5063POPC   GL264478  29.867  15.665   5.772
 5063POPC   C1A64479  29.712  16.173   6.186
 5063POPC   D2A64480  29.772  15.989   6.574
 5063POPC   C3A64481  29.935  16.165   6.904
 5063POPC   C4A64482  29.996  15.852   7.235
 5063POPC   C1B64483  29.734  15.649   6.191
 5063POPC   C2B64484  29.593  15.491   6.606
 5063POPC   C3B64485  29.596  15.551   7.059
 5063POPC   C4B64486  29.628  15.680   7.534
 5064POPC   NC364487  17.163   9.627   5.476
 5064POPC   PO464488  17.774   9.392   5.376
 5064POPC   GL164489  17.565   9.500   5.772
 5064POPC   GL264490  17.595   9.832   5.922
 5064POPC   C1A64491  17.525   9.387   6.203
 5064POPC   D2A64492  17.736   9.681   6.495
 5064POPC   C3A64493  17.698   9.570   6.931
 5064POPC   C4A64494  17.489   9.667   7.353
 5064POPC   C1B64495  17.222   9.804   6.143
 5064POPC   C2B64496  17.079   9.590   6.511
 5064POPC   C3B64497  17.177   9.697   6.928
 5064POPC   C4B64498  16.991   9.785   7.308
 5065POPC   NC364499  26.533   1.983   5.495
 5065POPC   PO464500  27.168   2.178   5.236
 5065POPC   GL164501  27.135   2.043   5.729
 5065POPC   GL264502  26.905   1.774   5.782
 5065POPC   C1A64503  27.102   1.910   6.218
 5065POPC   D2A64504  27.308   1.710   6.582
 5065POPC   C3A64505  27.101   1.871   6.933
 5065POPC   C4A64506  26.786   2.010   7.202
 5065POPC   C1B64507  26.620   1.755   6.191
 5065POPC   C2B64508  26.675   1.790   6.641
 5065POPC   C3B64509  26.412   1.742   6.994
 5065POPC   C4B64510  26.399   1.428   7.305
 5066POPC   NC364511   0.156   7.285   5.449
 5066POPC   PO464512  44.432   7.409   5.419
 5066POPC   GL164513  44.725   7.376   5.766
 5066POPC   GL264514  44.471   7.552   5.926
 5066POPC   C1A64515  44.776   7.234   6.204
 5066POPC   D2A64516  44.433   7.289   6.525
 5066POPC   C3A64517  44.543   7.373   6.976
 5066POPC   C4A64518  44.898   7.243   7.234
 5066POPC   C1B64519  44.215   7.747   6.228
 5066POPC   C2B64520  44.269   7.776   6.656
 5066POPC   C3B64521  44.445   7.886   7.033
 5066POPC   C4B64522  44.474   7.696   7.435
 5067POPC   NC364523  32.087  43.529   5.513
 5067POPC   PO464524  32.514  43.007   5.481
 5067POPC   GL164525  32.330  43.093   5.853
 5067POPC   GL264526  31.975  43.169   5.873
 5067POPC   C1A64527  32.362  42.906   6.239
 5067POPC   D2A64528  32.317  43.027   6.641
 5067POPC   C3A64529  32.387  42.803   7.011
 5067POPC   C4A64530  32.277  42.903   7.411
 5067POPC   C1B64531  32.111  43.375   6.258
 5067POPC   C2B64532  32.056  43.473   6.700
 5067POPC   C3B64533  32.198  43.279   7.072
 5067POPC   C4B64534  31.892  43.303   7.360
 5068POPC   NC364535  12.911  33.796   5.270
 5068POPC   PO464536  13.376  34.112   5.611
 5068POPC   GL164537  13.039  33.879   5.831
 5068POPC   GL264538  12.664  33.726   5.822
 5068POPC   C1A64539  12.900  33.871   6.247
 5068POPC   D2A64540  12.704  34.075   6.565
 5068POPC   C3A64541  12.850  33.947   6.929
 5068POPC   C4A64542  12.743  33.769   7.267
 5068POPC   C1B64543  12.558  33.485   6.234
 5068POPC   C2B64544  12.672  33.531   6.669
 5068POPC   C3B64545  12.510  33.363   7.065
 5068POPC   C4B64546  12.449  33.460   7.510
 5069POPC   NC364547  31.444  20.228   5.261
 5069POPC   PO464548  31.411  20.853   5.479
 5069POPC   GL164549  31.515  20.589   5.777
 5069POPC   GL264550  31.823  20.718   5.872
 5069POPC   C1A64551  31.462  20.498   6.231
 5069POPC   D2A64552  31.491  20.693   6.640
 5069POPC   C3A64553  31.471  20.505   7.037
 5069POPC   C4A64554  31.278  20.695   7.404
 5069POPC   C1B64555  31.721  20.954   6.247
 5069POPC   C2B64556  31.761  21.134   6.669
 5069POPC   C3B64557  31.650  20.981   7.090
 5069POPC   C4B64558  31.929  20.748   7.348
 5070POPC   NC364559  39.302   9.110   5.402
 5070POPC   PO464560  39.400   8.442   5.465
 5070POPC   GL164561  39.267   8.758   5.827
 5070POPC   GL264562  39.387   9.144   5.891
 5070POPC   C1A64563  39.283   8.852   6.289
 5070POPC   D2A64564  39.114   8.931   6.690
 5070POPC   C3A64565  39.306   8.715   7.038
 5070POPC   C4A64566  39.362   8.972   7.397
 5070POPC   C1B64567  38.953   9.197   6.082
 5070POPC   C2B64568  38.828   9.330   6.522
 5070POPC   C3B64569  38.767   9.213   6.942
 5070POPC   C4B64570  38.881   8.917   7.253
 5071POPC   NC364571   5.712  28.446   5.387
 5071POPC   PO464572   6.214  28.029   5.536
 5071POPC   GL164573   6.021  28.328   5.843
 5071POPC   GL264574   5.661  28.292   5.879
 5071POPC   C1A64575   6.013  28.386   6.324
 5071POPC   D2A64576   6.155  28.233   6.748
 5071POPC   C3A64577   6.026  28.455   7.127
 5071POPC   C4A64578   6.146  28.519   7.592
 5071POPC   C1B64579   5.493  28.384   6.279
 5071POPC   C2B64580   5.613  28.606   6.662
 5071POPC   C3B64581   5.492  28.472   7.072
 5071POPC   C4B64582   5.669  28.396   7.479
 5072POPC   NC364583  16.359  20.994   5.584
 5072POPC   PO464584  17.025  21.263   5.522
 5072POPC   GL164585  16.725  21.331   5.849
 5072POPC   GL264586  16.967  21.536   6.013
 5072POPC   C1A64587  16.486  21.581   6.170
 5072POPC   D2A64588  16.681  21.616   6.585
 5072POPC   C3A64589  16.559  21.269   6.830
 5072POPC   C4A64590  16.382  21.305   7.202
 5072POPC   C1B64591  17.160  21.111   6.146
 5072POPC   C2B64592  17.068  21.011   6.563
 5072POPC   C3B64593  17.065  21.312   6.895
 5072POPC   C4B64594  16.891  21.250   7.291
 5073POPC   NC364595  16.871  29.530   5.263
 5073POPC   PO464596  17.034  28.875   5.365
 5073POPC   GL164597  16.868  29.183   5.671
 5073POPC   GL264598  17.086  29.500   5.734
 5073POPC   C1A64599  16.858  29.072   6.118
 5073POPC   D2A64600  17.114  28.993   6.489
 5073POPC   C3A64601  16.836  29.013   6.834
 5073POPC   C4A64602  16.594  28.798   7.128
 5073POPC   C1B64603  17.204  29.452   6.169
 5073POPC   C2B64604  17.013  29.491   6.577
 5073POPC   C3B64605  17.086  29.406   7.010
 5073POPC   C4B64606  16.682  29.299   7.259
 5074POPC   NC364607   7.761   3.045   5.615
 5074POPC   PO464608   7.459   2.608   5.229
 5074POPC   GL164609   7.445   2.652   5.740
 5074POPC   GL264610   7.230   2.914   5.868
 5074POPC   C1A64611   7.568   2.791   6.225
 5074POPC   D2A64612   7.485   2.922   6.682
 5074POPC   C3A64613   7.782   2.868   7.061
 5074POPC   C4A64614   7.865   2.480   7.285
 5074POPC   C1B64615   7.104   3.057   6.280
 5074POPC   C2B64616   7.062   3.221   6.698
 5074POPC   C3B64617   7.002   2.985   7.051
 5074POPC   C4B64618   7.319   2.737   7.209
 5075POPC   NC364619  13.470  11.145   5.338
 5075POPC   PO464620  13.526  11.810   5.482
 5075POPC   GL164621  13.770  11.523   5.755
 5075POPC   GL264622  13.887  11.158   5.718
 5075POPC   C1A64623  13.662  11.315   6.137
 5075POPC   D2A64624  13.828  11.361   6.525
 5075POPC   C3A64625  13.563  11.369   6.886
 5075POPC   C4A64626  13.470  11.150   7.249
 5075POPC   C1B64627  14.091  11.043   6.149
 5075POPC   C2B64628  13.998  10.856   6.548
 5075POPC   C3B64629  13.907  11.014   6.964
 5075POPC   C4B64630  13.886  10.866   7.390
 5076POPC   NC364631  10.793  32.836   5.504
 5076POPC   PO464632  10.274  33.327   5.504
 5076POPC   GL164633  10.438  33.058   5.841
 5076POPC   GL264634  10.787  33.117   5.935
 5076POPC   C1A64635  10.420  33.027   6.297
 5076POPC   D2A64636  10.229  32.971   6.702
 5076POPC   C3A64637  10.319  33.237   7.044
 5076POPC   C4A64638  10.499  33.070   7.417
 5076POPC   C1B64639  10.852  32.747   6.206
 5076POPC   C2B64640  10.677  32.706   6.630
 5076POPC   C3B64641  10.816  32.930   7.016
 5076POPC   C4B64642  10.940  32.817   7.463
 5077POPC   NC364643  25.929   7.881   4.789
 5077POPC   PO464644  25.878   7.687   5.421
 5077POPC   GL164645  25.999   7.406   5.755
 5077POPC   GL264646  25.693   7.360   5.945
 5077POPC   C1A64647  26.237   7.397   6.156
 5077POPC   D2A64648  26.207   7.290   6.617
 5077POPC   C3A64649  26.120   7.640   6.920
 5077POPC   C4A64650  26.277   7.654   7.356
 5077POPC   C1B64651  25.745   7.372   6.370
 5077POPC   C2B64652  25.706   7.188   6.753
 5077POPC   C3B64653  25.844   7.265   7.128
 5077POPC   C4B64654  25.761   7.679   7.313
 5078POPC   NC364655  44.358  15.369   5.402
 5078POPC   PO464656  43.645  15.284   5.223
 5078POPC   GL164657  43.897  15.315   5.648
 5078POPC   GL264658  43.879  14.992   5.827
 5078POPC   C1A64659  43.976  15.394   6.118
 5078POPC   D2A64660  43.750  15.387   6.537
 5078POPC   C3A64661  43.971  15.410   6.935
 5078POPC   C4A64662  44.063  15.412   7.375
 5078POPC   C1B64663  43.674  14.949   6.225
 5078POPC   C2B64664  43.823  14.819   6.637
 5078POPC   C3B64665  43.832  14.939   7.071
 5078POPC   C4B64666  43.554  15.271   7.242
 5079POPC   NC364667  33.240  10.786   5.461
 5079POPC   PO464668  32.778  10.410   5.475
 5079POPC   GL164669  32.978  10.515   5.831
 5079POPC   GL264670  32.882  10.824   5.831
 5079POPC   C1A64671  33.203  10.661   6.197
 5079POPC   D2A64672  33.048  10.764   6.615
 5079POPC   C3A64673  33.201  10.507   6.942
 5079POPC   C4A64674  33.301  10.440   7.345
 5079POPC   C1B64675  32.716  10.845   6.226
 5079POPC   C2B64676  32.519  10.829   6.638
 5079POPC   C3B64677  32.694  10.640   6.996
 5079POPC   C4B64678  32.945  10.802   7.265
 5080POPC   NC364679  28.495  14.657   5.513
 5080POPC   PO464680  28.755  14.089   5.498
 5080POPC   GL164681  28.555  14.267   5.835
 5080POPC   GL264682  28.189  14.298   5.882
 5080POPC   C1A64683  28.542  14.523   6.201
 5080POPC   D2A64684  28.399  14.696   6.575
 5080POPC   C3A64685  28.464  14.429   6.876
 5080POPC   C4A64686  28.656  14.380   7.266
 5080POPC   C1B64687  28.027  14.635   6.179
 5080POPC   C2B64688  27.788  14.670   6.564
 5080POPC   C3B64689  27.950  14.783   6.950
 5080POPC   C4B64690  28.144  14.522   7.254
 5081POPC   NC364691  39.210   2.874   5.530
 5081POPC   PO464692  39.486   2.232   5.478
 5081POPC   GL164693  39.206   2.412   5.866
 5081POPC   GL264694  38.956   2.719   5.955
 5081POPC   C1A64695  39.318   2.626   6.290
 5081POPC   D2A64696  39.481   2.918   6.624
 5081POPC   C3A64697  39.320   2.722   6.991
 5081POPC   C4A64698  38.987   2.506   7.220
 5081POPC   C1B64699  38.863   3.144   6.172
 5081POPC   C2B64700  39.024   3.270   6.588
 5081POPC   C3B64701  38.923   3.302   7.045
 5081POPC   C4B64702  39.071   3.014   7.343
 5082POPC   NC364703   5.492  41.551   5.538
 5082POPC   PO464704   5.031  41.907   5.169
 5082POPC   GL164705   4.900  41.686   5.651
 5082POPC   GL264706   4.953  41.326   5.716
 5082POPC   C1A64707   4.778  41.575   6.131
 5082POPC   D2A64708   4.998  41.612   6.542
 5082POPC   C3A64709   4.894  41.465   6.950
 5082POPC   C4A64710   5.135  41.568   7.299
 5082POPC   C1B64711   5.189  41.269   6.126
 5082POPC   C2B64712   5.487  41.303   6.472
 5082POPC   C3B64713   5.466  41.273   6.903
 5082POPC   C4B64714   5.591  41.332   7.302
 5083POPC   NC364715   1.151  12.198   5.336
 5083POPC   PO464716   1.259  11.512   5.548
 5083POPC   GL164717   1.135  11.913   5.774
 5083POPC   GL264718   0.849  11.863   5.990
 5083POPC   C1A64719   1.212  12.188   6.160
 5083POPC   D2A64720   1.394  12.092   6.590
 5083POPC   C3A64721   1.431  12.219   7.054
 5083POPC   C4A64722   1.298  12.344   7.482
 5083POPC   C1B64723   1.186  11.679   6.239
 5083POPC   C2B64724   1.217  11.616   6.660
 5083POPC   C3B64725   1.072  11.876   6.931
 5083POPC   C4B64726   1.020  11.884   7.327
 5084POPC   NC364727  11.493   0.612   5.440
 5084POPC   PO464728  11.058   0.171   5.571
 5084POPC   GL164729  11.276   0.211   5.938
 5084POPC   GL264730  11.370   0.538   5.964
 5084POPC   C1A64731  11.248   0.277   6.389
 5084POPC   D2A64732  11.109   0.630   6.650
 5084POPC   C3A64733  10.913   0.443   7.004
 5084POPC   C4A64734  11.209   0.196   7.208
 5084POPC   C1B64735  11.561   0.710   6.357
 5084POPC   C2B64736  11.618   0.752   6.811
 5084POPC   C3B64737  11.555   0.644   7.246
 5084POPC   C4B64738  11.655   0.823   7.676
 5085POPC   NC364739  23.933  37.795   5.152
 5085POPC   PO464740  23.368  37.408   5.220
 5085POPC   GL164741  23.509  37.590   5.625
 5085POPC   GL264742  23.838  37.768   5.663
 5085POPC   C1A64743  23.470  37.531   6.087
 5085POPC   D2A64744  23.485  37.655   6.527
 5085POPC   C3A64745  23.493  37.392   6.896
 5085POPC   C4A64746  23.588  37.640   7.263
 5085POPC   C1B64747  23.810  37.911   6.092
 5085POPC   C2B64748  23.931  37.905   6.522
 5085POPC   C3B64749  23.752  37.987   6.918
 5085POPC   C4B64750  24.012  37.955   7.273
 5086POPC   NC364751   9.364   3.130   5.379
 5086POPC   PO464752   9.055   3.707   5.369
 5086POPC   GL164753   8.900   3.581   5.758
 5086POPC   GL264754   9.229   3.519   5.836
 5086POPC   C1A64755   8.862   3.296   6.165
 5086POPC   D2A64756   8.647   3.303   6.597
 5086POPC   C3A64757   8.756   3.689   6.871
 5086POPC   C4A64758   8.890   3.704   7.254
 5086POPC   C1B64759   9.069   3.774   6.193
 5086POPC   C2B64760   9.114   3.536   6.569
 5086POPC   C3B64761   9.057   3.278   6.944
 5086POPC   C4B64762   9.312   3.446   7.249
 5087POPC   NC364763  28.530  17.528   5.529
 5087POPC   PO464764  27.932  17.730   5.701
 5087POPC   GL164765  28.214  17.585   5.972
 5087POPC   GL264766  28.365  17.294   5.965
 5087POPC   C1A64767  28.320  17.572   6.418
 5087POPC   D2A64768  28.119  17.682   6.825
 5087POPC   C3A64769  28.427  17.729   7.169
 5087POPC   C4A64770  28.494  17.739   7.619
 5087POPC   C1B64771  28.002  17.167   6.224
 5087POPC   C2B64772  28.124  17.170   6.663
 5087POPC   C3B64773  28.279  17.246   7.067
 5087POPC   C4B64774  28.091  17.426   7.434
 5088POPC   NC364775  42.240  10.932   5.445
 5088POPC   PO464776  42.680  10.428   5.658
 5088POPC   GL164777  42.323  10.519   5.867
 5088POPC   GL264778  42.198  10.172   5.847
 5088POPC   C1A64779  42.409  10.645   6.310
 5088POPC   D2A64780  42.646  10.498   6.665
 5088POPC   C3A64781  42.463  10.414   7.082
 5088POPC   C4A64782  42.300  10.777   7.107
 5088POPC   C1B64783  42.026  10.344   6.249
 5088POPC   C2B64784  42.101  10.497   6.695
 5088POPC   C3B64785  41.933  10.400   7.099
 5088POPC   C4B64786  42.096  10.189   7.460
 5089POPC   NC364787   5.144  26.299   5.489
 5089POPC   PO464788   5.411  25.720   5.279
 5089POPC   GL164789   5.246  25.858   5.731
 5089POPC   GL264790   4.868  25.933   5.813
 5089POPC   C1A64791   5.274  26.050   6.157
 5089POPC   D2A64792   5.372  25.845   6.558
 5089POPC   C3A64793   5.227  25.907   6.966
 5089POPC   C4A64794   5.399  26.260   7.153
 5089POPC   C1B64795   4.775  26.162   6.232
 5089POPC   C2B64796   5.015  26.254   6.623
 5089POPC   C3B64797   4.889  26.290   7.068
 5089POPC   C4B64798   4.734  26.045   7.422
 5090POPC   NC364799  36.875  23.477   5.526
 5090POPC   PO464800  37.321  23.804   5.846
 5090POPC   GL164801  36.962  23.575   6.091
 5090POPC   GL264802  36.625  23.359   5.955
 5090POPC   C1A64803  37.045  23.707   6.533
 5090POPC   D2A64804  37.034  24.045   6.830
 5090POPC   C3A64805  37.002  23.825   7.214
 5090POPC   C4A64806  37.202  23.657   7.604
 5090POPC   C1B64807  36.368  23.548   6.296
 5090POPC   C2B64808  36.562  23.611   6.701
 5090POPC   C3B64809  36.536  23.574   7.142
 5090POPC   C4B64810  36.814  23.397   7.419
 5091POPC   NC364811  35.113  26.608   5.066
 5091POPC   PO464812  35.477  27.043   5.282
 5091POPC   GL164813  35.489  26.909   5.757
 5091POPC   GL264814  35.739  27.071   5.969
 5091POPC   C1A64815  35.407  26.713   6.198
 5091POPC   D2A64816  35.558  26.565   6.608
 5091POPC   C3A64817  35.411  26.787   6.959
 5091POPC   C4A64818  35.316  26.566   7.316
 5091POPC   C1B64819  35.300  27.202   6.158
 5091POPC   C2B64820  35.067  27.076   6.534
 5091POPC   C3B64821  35.092  27.217   6.964
 5091POPC   C4B64822  35.212  27.055   7.358
 5092POPC   NC364823  10.601   0.168   5.532
 5092POPC   PO464824  10.215   0.696   5.456
 5092POPC   GL164825  10.447   0.603   5.826
 5092POPC   GL264826  10.785   0.776   5.780
 5092POPC   C1A64827  10.381   0.326   6.179
 5092POPC   D2A64828  10.196   0.216   6.565
 5092POPC   C3A64829  10.384   0.387   6.910
 5092POPC   C4A64830  10.502   0.247   7.284
 5092POPC   C1B64831  10.854   0.534   6.151
 5092POPC   C2B64832  10.629   0.660   6.500
 5092POPC   C3B64833  10.628   0.849   6.875
 5092POPC   C4B64834  10.547   0.756   7.264
 5093POPC   NC364835  20.162   2.235   5.516
 5093POPC   PO464836  19.614   1.856   5.344
 5093POPC   GL164837  19.810   1.942   5.756
 5093POPC   GL264838  19.908   2.247   5.964
 5093POPC   C1A64839  19.902   1.794   6.179
 5093POPC   D2A64840  19.877   2.094   6.493
 5093POPC   C3A64841  19.895   1.880   6.837
 5093POPC   C4A64842  20.025   1.980   7.198
 5093POPC   C1B64843  19.533   2.343   6.194
 5093POPC   C2B64844  19.590   2.500   6.595
 5093POPC   C3B64845  19.730   2.357   6.958
 5093POPC   C4B64846  19.601   2.532   7.337
 5094POPC   NC364847  35.548   1.386   5.443
 5094POPC   PO464848  34.872   1.181   5.569
 5094POPC   GL164849  35.218   1.172   5.870
 5094POPC   GL264850  35.438   1.449   5.946
 5094POPC   C1A64851  35.166   1.215   6.327
 5094POPC   D2A64852  35.361   1.314   6.713
 5094POPC   C3A64853  35.151   1.232   7.087
 5094POPC   C4A64854  34.980   0.871   7.297
 5094POPC   C1B64855  35.663   1.172   6.228
 5094POPC   C2B64856  35.870   1.177   6.614
 5094POPC   C3B64857  35.729   1.091   6.998
 5094POPC   C4B64858  35.557   1.141   7.373
 5095POPC   NC364859  16.462  25.063   5.602
 5095POPC   PO464860  16.998  25.388   5.279
 5095POPC   GL164861  16.863  25.358   5.759
 5095POPC   GL264862  16.574  25.501   5.905
 5095POPC   C1A64863  16.774  25.231   6.265
 5095POPC   D2A64864  16.894  25.188   6.731
 5095POPC   C3A64865  16.687  25.267   7.128
 5095POPC   C4A64866  16.907  25.335   7.551
 5095POPC   C1B64867  16.519  25.724   6.257
 5095POPC   C2B64868  16.475  25.538   6.656
 5095POPC   C3B64869  16.401  25.744   7.046
 5095POPC   C4B64870  16.570  25.662   7.413
 5096POPC   NC364871  28.481  36.400   5.366
 5096POPC   PO464872  28.179  37.003   5.441
 5096POPC   GL164873  28.241  36.849   5.868
 5096POPC   GL264874  28.573  36.800   5.879
 5096POPC   C1A64875  28.348  36.722   6.327
 5096POPC   D2A64876  28.554  36.822   6.730
 5096POPC   C3A64877  28.597  36.550   7.089
 5096POPC   C4A64878  28.315  36.608   7.470
 5096POPC   C1B64879  28.772  37.021   6.249
 5096POPC   C2B64880  28.695  37.286   6.566
 5096POPC   C3B64881  28.569  37.346   6.953
 5096POPC   C4B64882  28.468  37.041   7.227
 5097POPC   NC364883  34.964  40.558   5.519
 5097POPC   PO464884  35.572  40.764   5.335
 5097POPC   GL164885  35.344  40.834   5.757
 5097POPC   GL264886  35.632  41.026   5.838
 5097POPC   C1A64887  35.225  40.715   6.174
 5097POPC   D2A64888  35.325  40.488   6.550
 5097POPC   C3A64889  35.219  40.654   6.942
 5097POPC   C4A64890  35.334  40.579   7.352
 5097POPC   C1B64891  35.740  40.879   6.259
 5097POPC   C2B64892  35.958  40.949   6.659
 5097POPC   C3B64893  35.698  40.818   6.980
 5097POPC   C4B64894  35.405  41.070   7.182
 5098POPC   NC364895  42.978  25.301   5.483
 5098POPC   PO464896  43.469  24.937   5.613
 5098POPC   GL164897  43.313  25.244   5.867
 5098POPC   GL264898  43.399  25.547   5.720
 5098POPC   C1A64899  43.035  25.261   6.208
 5098POPC   D2A64900  43.153  25.037   6.576
 5098POPC   C3A64901  42.996  25.171   6.948
 5098POPC   C4A64902  43.195  25.105   7.340
 5098POPC   C1B64903  43.404  25.619   6.209
 5098POPC   C2B64904  43.176  25.594   6.640
 5098POPC   C3B64905  43.281  25.560   7.109
 5098POPC   C4B64906  43.265  25.520   7.624
 5099POPC   NC364907  30.848  32.548   5.473
 5099POPC   PO464908  30.498  31.922   5.382
 5099POPC   GL164909  30.424  32.189   5.710
 5099POPC   GL264910  30.278  32.500   5.557
 5099POPC   C1A64911  30.601  32.130   6.125
 5099POPC   D2A64912  30.730  31.817   6.459
 5099POPC   C3A64913  30.856  32.035   6.837
 5099POPC   C4A64914  30.622  32.150   7.183
 5099POPC   C1B64915  30.328  32.594   6.007
 5099POPC   C2B64916  30.154  32.597   6.428
 5099POPC   C3B64917  30.361  32.537   6.832
 5099POPC   C4B64918  30.256  32.485   7.246
 5100POPC   NC364919  36.594   0.983   5.439
 5100POPC   PO464920  36.043   1.365   5.383
 5100POPC   GL164921  36.273   1.236   5.743
 5100POPC   GL264922  35.989   1.091   5.860
 5100POPC   C1A64923  36.444   0.994   6.133
 5100POPC   D2A64924  36.395   1.079   6.595
 5100POPC   C3A64925  36.281   0.852   6.993
 5100POPC   C4A64926  36.001   0.875   7.366
 5100POPC   C1B64927  36.132   1.401   6.218
 5100POPC   C2B64928  36.213   1.548   6.653
 5100POPC   C3B64929  36.291   1.358   7.086
 5100POPC   C4B64930  36.382   1.558   7.531
 5101POPC   NC364931  33.727   6.480   5.449
 5101POPC   PO464932  34.196   6.977   5.310
 5101POPC   GL164933  33.862   6.929   5.707
 5101POPC   GL264934  33.996   6.606   5.882
 5101POPC   C1A64935  33.677   6.843   6.181
 5101POPC   D2A64936  33.879   6.591   6.538
 5101POPC   C3A64937  33.801   6.672   6.992
 5101POPC   C4A64938  33.500   6.521   7.313
 5101POPC   C1B64939  33.663   6.339   6.098
 5101POPC   C2B64940  33.570   6.123   6.471
 5101POPC   C3B64941  33.556   6.221   6.903
 5101POPC   C4B64942  33.933   6.239   7.192
 5102POPC   NC364943  20.152  18.381   5.430
 5102POPC   PO464944  19.560  17.991   5.630
 5102POPC   GL164945  19.766  18.324   5.848
 5102POPC   GL264946  20.127  18.299   5.922
 5102POPC   C1A64947  19.543  18.404   6.224
 5102POPC   D2A64948  19.311  18.512   6.591
 5102POPC   C3A64949  19.540  18.363   6.926
 5102POPC   C4A64950  19.417  18.211   7.294
 5102POPC   C1B64951  19.995  18.175   6.327
 5102POPC   C2B64952  19.886  17.997   6.708
 5102POPC   C3B64953  19.853  17.997   7.133
 5102POPC   C4B64954  19.864  18.266   7.487
 5103POPC   NC364955  41.917  17.271   5.393
 5103POPC   PO464956  41.432  17.723   5.581
 5103POPC   GL164957  41.737  17.580   5.846
 5103POPC   GL264958  41.617  17.261   5.820
 5103POPC   C1A64959  41.750  17.480   6.288
 5103POPC   D2A64960  41.615  17.232   6.646
 5103POPC   C3A64961  41.475  17.502   6.999
 5103POPC   C4A64962  41.791  17.769   7.175
 5103POPC   C1B64963  41.280  17.350   6.132
 5103POPC   C2B64964  41.134  17.388   6.561
 5103POPC   C3B64965  41.052  17.206   6.977
 5103POPC   C4B64966  41.199  17.174   7.437
 5104POPC   NC364967  26.984  15.164   5.453
 5104POPC   PO464968  26.388  14.868   5.483
 5104POPC   GL164969  26.745  14.820   5.805
 5104POPC   GL264970  26.644  15.115   5.927
 5104POPC   C1A64971  26.853  14.853   6.309
 5104POPC   D2A64972  26.659  15.194   6.615
 5104POPC   C3A64973  26.745  15.261   7.084
 5104POPC   C4A64974  26.698  15.192   7.564
 5104POPC   C1B64975  26.987  15.334   6.185
 5104POPC   C2B64976  27.152  15.405   6.609
 5104POPC   C3B64977  27.064  15.649   6.987
 5104POPC   C4B64978  27.021  15.543   7.429
 5105POPC   NC364979  35.166  28.648   5.334
 5105POPC   PO464980  35.367  28.012   5.500
 5105POPC   GL164981  35.337  28.294   5.838
 5105POPC   GL264982  35.514  28.049   5.988
 5105POPC   C1A64983  35.147  28.298   6.263
 5105POPC   D2A64984  34.929  28.497   6.608
 5105POPC   C3A64985  35.234  28.637   6.910
 5105POPC   C4A64986  35.438  28.340   7.210
 5105POPC   C1B64987  35.692  28.026   6.358
 5105POPC   C2B64988  35.614  27.985   6.777
 5105POPC   C3B64989  35.855  28.046   7.140
 5105POPC   C4B64990  35.853  28.149   7.591
 5106POPC   NC364991  39.840  40.530   5.525
 5106POPC   PO464992  39.260  40.877   5.343
 5106POPC   GL164993  39.357  40.703   5.747
 5106POPC   GL264994  39.052  40.514   5.859
 5106POPC   C1A64995  39.382  40.746   6.200
 5106POPC   D2A64996  39.115  40.837   6.573
 5106POPC   C3A64997  39.180  40.609   6.962
 5106POPC   C4A64998  39.493  40.542   7.286
 5106POPC   C1B64999  39.065  40.364   6.312
 5106POPC   C2B65000  38.772  40.417   6.673
 5106POPC   C3B65001  38.755  40.331   7.111
 5106POPC   C4B65002  39.055  40.316   7.437
 5107POPC   NC365003  10.032   5.113   5.499
 5107POPC   PO465004  10.598   5.281   5.036
 5107POPC   GL165005  10.599   5.242   5.582
 5107POPC   GL265006  10.399   5.004   5.820
 5107POPC   C1A65007  10.634   5.350   6.094
 5107POPC   D2A65008  10.700   5.514   6.561
 5107POPC   C3A65009  10.627   5.243   6.930
 5107POPC   C4A65010  10.781   5.128   7.347
 5107POPC   C1B65011  10.511   4.842   6.255
 5107POPC   C2B65012  10.683   4.781   6.711
 5107POPC   C3B65013  10.561   4.710   7.158
 5107POPC   C4B65014  10.500   4.663   7.611
 5108POPC   NC365015  43.953  30.740   5.388
 5108POPC   PO465016  43.515  30.241   5.533
 5108POPC   GL165017  43.658  30.543   5.860
 5108POPC   GL265018  44.033  30.572   5.875
 5108POPC   C1A65019  43.788  30.711   6.311
 5108POPC   D2A65020  43.769  31.043   6.660
 5108POPC   C3A65021  43.631  30.910   7.073
 5108POPC   C4A65022  43.935  30.620   7.214
 5108POPC   C1B65023  44.145  30.290   6.241
 5108POPC   C2B65024  44.313  30.336   6.674
 5108POPC   C3B65025  44.439  30.494   7.095
 5108POPC   C4B65026  44.618  30.806   7.410
 5109POPC   NC365027  11.240  14.033   5.377
 5109POPC   PO465028  11.296  14.720   5.347
 5109POPC   GL165029  11.113  14.568   5.712
 5109POPC   GL265030  11.204  14.232   5.843
 5109POPC   C1A65031  11.019  14.595   6.150
 5109POPC   D2A65032  11.270  14.711   6.511
 5109POPC   C3A65033  11.093  14.690   6.922
 5109POPC   C4A65034  11.415  14.719   7.219
 5109POPC   C1B65035  11.355  14.236   6.278
 5109POPC   C2B65036  11.417  14.051   6.677
 5109POPC   C3B65037  11.306  14.230   7.040
 5109POPC   C4B65038  10.938  14.305   7.234
 5110POPC   NC365039  34.447  38.277   5.346
 5110POPC   PO465040  34.806  38.866   5.550
 5110POPC   GL165041  34.669  38.524   5.753
 5110POPC   GL265042  34.348  38.543   5.806
 5110POPC   C1A65043  34.669  38.482   6.190
 5110POPC   D2A65044  34.872  38.657   6.515
 5110POPC   C3A65045  34.659  38.487   6.870
 5110POPC   C4A65046  34.856  38.468   7.255
 5110POPC   C1B65047  34.180  38.304   6.111
 5110POPC   C2B65048  34.255  38.413   6.520
 5110POPC   C3B65049  34.138  38.349   6.912
 5110POPC   C4B65050  34.351  38.306   7.269
 5111POPC   NC365051  14.315  12.541   5.446
 5111POPC   PO465052  14.488  13.139   5.433
 5111POPC   GL165053  14.464  12.923   5.808
 5111POPC   GL265054  14.122  12.903   5.882
 5111POPC   C1A65055  14.479  12.734   6.230
 5111POPC   D2A65056  14.392  12.897   6.640
 5111POPC   C3A65057  14.568  12.720   7.028
 5111POPC   C4A65058  14.877  12.715   7.345
 5111POPC   C1B65059  13.949  12.699   6.208
 5111POPC   C2B65060  13.963  12.332   6.458
 5111POPC   C3B65061  14.152  12.475   6.829
 5111POPC   C4B65062  14.169  12.513   7.260
 5112POPC   NC365063  15.830  14.664   5.507
 5112POPC   PO465064  16.105  14.046   5.449
 5112POPC   GL165065  16.096  14.272   5.789
 5112POPC   GL265066  16.266  14.578   5.762
 5112POPC   C1A65067  16.043  14.116   6.193
 5112POPC   D2A65068  15.765  14.168   6.543
 5112POPC   C3A65069  16.008  14.319   6.862
 5112POPC   C4A65070  16.108  14.336   7.291
 5112POPC   C1B65071  16.028  14.631   6.169
 5112POPC   C2B65072  15.982  14.772   6.610
 5112POPC   C3B65073  15.940  14.752   7.083
 5112POPC   C4B65074  16.211  14.810   7.456
 5113POPC   NC365075   6.240  31.502   5.260
 5113POPC   PO465076   6.695  31.741   5.736
 5113POPC   GL165077   6.591  31.522   6.060
 5113POPC   GL265078   6.524  31.264   5.906
 5113POPC   C1A65079   6.536  31.509   6.476
 5113POPC   D2A65080   6.840  31.762   6.659
 5113POPC   C3A65081   6.738  31.698   7.035
 5113POPC   C4A65082   6.739  31.848   7.457
 5113POPC   C1B65083   6.693  31.055   6.260
 5113POPC   C2B65084   6.504  30.983   6.658
 5113POPC   C3B65085   6.636  31.019   7.079
 5113POPC   C4B65086   6.559  31.370   7.365
 5114POPC   NC365087   2.113   9.317   5.426
 5114POPC   PO465088   1.605   8.901   5.363
 5114POPC   GL165089   1.681   8.686   5.754
 5114POPC   GL265090   1.914   8.961   5.799
 5114POPC   C1A65091   1.791   8.697   6.210
 5114POPC   D2A65092   1.786   8.973   6.573
 5114POPC   C3A65093   1.832   8.787   6.979
 5114POPC   C4A65094   1.813   9.079   7.373
 5114POPC   C1B65095   2.169   9.047   6.157
 5114POPC   C2B65096   2.313   9.175   6.561
 5114POPC   C3B65097   2.142   9.200   6.946
 5114POPC   C4B65098   2.349   9.198   7.314
 5115POPC   NC365099  10.821  27.753   5.602
 5115POPC   PO465100  10.129  27.544   5.424
 5115POPC   GL165101  10.338  27.539   5.831
 5115POPC   GL265102  10.392  27.871   5.978
 5115POPC   C1A65103  10.402  27.443   6.286
 5115POPC   D2A65104  10.299  27.725   6.665
 5115POPC   C3A65105  10.454  27.590   7.082
 5115POPC   C4A65106  10.691  27.258   7.366
 5115POPC   C1B65107  10.721  28.091   6.216
 5115POPC   C2B65108  10.787  28.213   6.635
 5115POPC   C3B65109  10.528  28.124   6.974
 5115POPC   C4B65110  10.723  27.960   7.308
 5116POPC   NC365111  33.726  37.166   5.465
 5116POPC   PO465112  34.117  36.627   5.539
 5116POPC   GL165113  33.885  36.818   5.847
 5116POPC   GL265114  33.639  36.571   5.896
 5116POPC   C1A65115  33.718  36.953   6.244
 5116POPC   D2A65116  33.629  37.100   6.649
 5116POPC   C3A65117  33.974  37.035   6.891
 5116POPC   C4A65118  33.914  37.133   7.299
 5116POPC   C1B65119  33.553  36.380   6.301
 5116POPC   C2B65120  33.699  36.597   6.684
 5116POPC   C3B65121  33.583  36.801   7.090
 5116POPC   C4B65122  33.602  36.820   7.561
 5117POPC   NC365123   6.472  16.506   5.105
 5117POPC   PO465124   6.669  16.990   5.557
 5117POPC   GL165125   6.727  16.758   5.893
 5117POPC   GL265126   7.070  16.648   5.870
 5117POPC   C1A65127   6.484  16.806   6.260
 5117POPC   D2A65128   6.594  16.984   6.608
 5117POPC   C3A65129   6.480  16.694   6.907
 5117POPC   C4A65130   6.399  16.775   7.317
 5117POPC   C1B65131   6.982  16.626   6.313
 5117POPC   C2B65132   7.011  16.730   6.741
 5117POPC   C3B65133   6.898  16.822   7.169
 5117POPC   C4B65134   6.834  16.523   7.476
 5118POPC   NC365135  34.334  16.430   5.353
 5118POPC   PO465136  34.841  16.808   5.461
 5118POPC   GL165137  34.503  16.667   5.774
 5118POPC   GL265138  34.439  17.001   5.848
 5118POPC   C1A65139  34.360  16.676   6.229
 5118POPC   D2A65140  34.787  16.649   6.445
 5118POPC   C3A65141  34.767  16.585   6.869
 5118POPC   C4A65142  34.843  16.694   7.266
 5118POPC   C1B65143  34.583  17.137   6.255
 5118POPC   C2B65144  34.549  17.022   6.684
 5118POPC   C3B65145  34.783  17.118   7.022
 5118POPC   C4B65146  34.443  17.077   7.274
 5119POPC   NC365147  44.425   3.842   5.382
 5119POPC   PO465148  44.411   3.155   5.409
 5119POPC   GL165149  44.707   3.435   5.652
 5119POPC   GL265150  44.561   3.724   5.855
 5119POPC   C1A65151  44.861   3.397   6.087
 5119POPC   D2A65152  44.609   3.411   6.464
 5119POPC   C3A65153  44.788   3.293   6.824
 5119POPC   C4A65154  44.927   3.430   7.224
 5119POPC   C1B65155  44.278   3.734   6.217
 5119POPC   C2B65156  44.147   3.598   6.634
 5119POPC   C3B65157  44.169   3.736   7.046
 5119POPC   C4B65158  44.418   3.431   7.186
 5120POPC   NC365159  10.412  17.779   5.403
 5120POPC   PO465160  10.151  17.143   5.402
 5120POPC   GL165161  10.263  17.355   5.829
 5120POPC   GL265162  10.347  17.698   5.885
 5120POPC   C1A65163  10.578  17.428   6.230
 5120POPC   D2A65164  10.731  17.355   6.681
 5120POPC   C3A65165  10.564  17.555   7.067
 5120POPC   C4A65166  10.666  17.461   7.485
 5120POPC   C1B65167  10.124  17.834   6.231
 5120POPC   C2B65168  10.125  17.891   6.679
 5120POPC   C3B65169  10.126  17.868   7.123
 5120POPC   C4B65170  10.321  17.810   7.523
 5121POPC   NC365171  37.859   4.699   5.554
 5121POPC   PO465172  37.560   5.384   5.456
 5121POPC   GL165173  37.655   5.104   5.790
 5121POPC   GL265174  37.976   5.139   5.919
 5121POPC   C1A65175  37.547   4.928   6.190
 5121POPC   D2A65176  37.340   4.890   6.604
 5121POPC   C3A65177  37.389   5.287   6.856
 5121POPC   C4A65178  37.493   5.275   7.303
 5121POPC   C1B65179  38.043   4.769   6.195
 5121POPC   C2B65180  37.862   4.737   6.591
 5121POPC   C3B65181  37.733   4.926   6.971
 5121POPC   C4B65182  37.924   4.989   7.366
 5122POPC   NC365183   8.657  16.414   5.635
 5122POPC   PO465184   9.156  15.980   5.426
 5122POPC   GL165185   9.036  15.891   5.840
 5122POPC   GL265186   9.113  16.219   5.898
 5122POPC   C1A65187   8.756  16.066   6.221
 5122POPC   D2A65188   8.894  16.148   6.652
 5122POPC   C3A65189   9.021  15.811   6.905
 5122POPC   C4A65190   8.871  15.751   7.325
 5122POPC   C1B65191   9.249  15.997   6.291
 5122POPC   C2B65192   9.403  16.133   6.667
 5122POPC   C3B65193   9.463  16.003   7.053
 5122POPC   C4B65194   9.334  15.958   7.452
 5123POPC   NC365195  37.596  24.013   5.547
 5123POPC   PO465196  38.029  23.499   5.356
 5123POPC   GL165197  37.886  23.618   5.802
 5123POPC   GL265198  38.026  23.971   5.854
 5123POPC   C1A65199  37.744  23.479   6.242
 5123POPC   D2A65200  37.456  23.350   6.606
 5123POPC   C3A65201  37.718  23.336   6.972
 5123POPC   C4A65202  37.644  23.435   7.409
 5123POPC   C1B65203  37.899  24.031   6.299
 5123POPC   C2B65204  37.693  23.816   6.645
 5123POPC   C3B65205  37.472  23.789   7.016
 5123POPC   C4B65206  37.573  23.935   7.418
 5124POPC   NC365207  38.563  29.615   5.214
 5124POPC   PO465208  38.269  29.027   5.315
 5124POPC   GL165209  38.500  29.171   5.675
 5124POPC   GL265210  38.403  29.516   5.701
 5124POPC   C1A65211  38.437  29.147   6.139
 5124POPC   D2A65212  38.306  29.087   6.575
 5124POPC   C3A65213  38.304  29.041   7.014
 5124POPC   C4A65214  38.676  28.953   7.239
 5124POPC   C1B65215  38.344  29.667   6.120
 5124POPC   C2B65216  38.571  29.528   6.483
 5124POPC   C3B65217  38.594  29.500   6.926
 5124POPC   C4B65218  38.492  29.404   7.341
 5125POPC   NC365219  17.299   1.117   5.563
 5125POPC   PO465220  18.011   1.118   5.577
 5125POPC   GL165221  17.747   1.058   5.915
 5125POPC   GL265222  17.604   1.392   5.882
 5125POPC   C1A65223  17.684   1.184   6.346
 5125POPC   D2A65224  17.609   1.380   6.756
 5125POPC   C3A65225  17.717   1.211   7.141
 5125POPC   C4A65226  17.378   1.084   7.438
 5125POPC   C1B65227  17.408   1.592   6.238
 5125POPC   C2B65228  17.197   1.671   6.618
 5125POPC   C3B65229  17.326   1.767   7.010
 5125POPC   C4B65230  17.477   1.581   7.369
 5126POPC   NC365231  39.780  10.644   5.343
 5126POPC   PO465232  39.062  10.435   5.387
 5126POPC   GL165233  39.238  10.400   5.797
 5126POPC   GL265234  39.592  10.389   5.837
 5126POPC   C1A65235  39.245  10.578   6.222
 5126POPC   D2A65236  39.242  10.983   6.478
 5126POPC   C3A65237  39.129  10.858   6.891
 5126POPC   C4A65238  38.951  10.603   7.213
 5126POPC   C1B65239  39.746  10.474   6.260
 5126POPC   C2B65240  39.581  10.653   6.673
 5126POPC   C3B65241  39.481  10.500   7.114
 5126POPC   C4B65242  39.587  10.479   7.586
 5127POPC   NC365243  36.231  33.472   5.459
 5127POPC   PO465244  36.364  34.181   5.482
 5127POPC   GL165245  36.258  33.985   5.854
 5127POPC   GL265246  36.062  33.683   5.887
 5127POPC   C1A65247  36.419  33.892   6.273
 5127POPC   D2A65248  36.593  33.956   6.672
 5127POPC   C3A65249  36.288  33.916   6.968
 5127POPC   C4A65250  36.303  33.941   7.385
 5127POPC   C1B65251  35.901  33.945   6.203
 5127POPC   C2B65252  35.960  33.796   6.598
 5127POPC   C3B65253  35.863  33.542   6.942
 5127POPC   C4B65254  35.786  33.774   7.295
 5128POPC   NC365255  35.952  39.367   5.318
 5128POPC   PO465256  36.085  38.863   5.736
 5128POPC   GL165257  36.004  39.297   5.857
 5128POPC   GL265258  36.118  39.631   5.718
 5128POPC   C1A65259  35.998  39.307   6.287
 5128POPC   D2A65260  36.153  39.212   6.673
 5128POPC   C3A65261  35.892  39.250   7.028
 5128POPC   C4A65262  36.120  39.009   7.323
 5128POPC   C1B65263  36.276  39.689   6.141
 5128POPC   C2B65264  36.290  39.710   6.600
 5128POPC   C3B65265  36.298  39.549   7.032
 5128POPC   C4B65266  36.342  39.418   7.492
 5129POPC   NC365267  16.125  30.036   5.089
 5129POPC   PO465268  15.649  29.740   5.454
 5129POPC   GL165269  15.908  29.812   5.762
 5129POPC   GL265270  16.005  30.106   5.609
 5129POPC   C1A65271  15.844  29.737   6.211
 5129POPC   D2A65272  15.755  29.764   6.664
 5129POPC   C3A65273  16.082  29.865   6.994
 5129POPC   C4A65274  15.918  29.930   7.418
 5129POPC   C1B65275  16.023  30.206   6.077
 5129POPC   C2B65276  15.862  30.276   6.514
 5129POPC   C3B65277  16.018  30.358   6.942
 5129POPC   C4B65278  16.016  30.427   7.357
 5130POPC   NC365279  44.272  10.277   5.393
 5130POPC   PO465280  43.664  10.568   5.554
 5130POPC   GL165281  43.908  10.265   5.750
 5130POPC   GL265282  44.146  10.527   5.843
 5130POPC   C1A65283  43.928  10.222   6.177
 5130POPC   D2A65284  44.008  10.531   6.487
 5130POPC   C3A65285  43.882  10.372   6.888
 5130POPC   C4A65286  43.869  10.527   7.304
 5130POPC   C1B65287  44.359  10.784   6.166
 5130POPC   C2B65288  44.452  10.798   6.612
 5130POPC   C3B65289  44.232  10.740   6.999
 5130POPC   C4B65290  44.343  10.689   7.452
 5131POPC   NC365291   9.992  41.164   5.414
 5131POPC   PO465292  10.117  40.576   5.206
 5131POPC   GL165293   9.886  40.697   5.664
 5131POPC   GL265294   9.589  40.908   5.723
 5131POPC   C1A65295  10.001  40.679   6.145
 5131POPC   D2A65296   9.821  40.639   6.584
 5131POPC   C3A65297  10.021  40.813   7.000
 5131POPC   C4A65298  10.015  40.812   7.478
 5131POPC   C1B65299   9.464  40.676   6.111
 5131POPC   C2B65300   9.312  40.786   6.530
 5131POPC   C3B65301   9.447  40.817   6.952
 5131POPC   C4B65302   9.499  40.842   7.385
 5132POPC   NC365303   2.338  43.724   5.639
 5132POPC   PO465304   1.860  44.186   5.378
 5132POPC   GL165305   1.929  43.970   5.789
 5132POPC   GL265306   1.734  43.643   5.759
 5132POPC   C1A65307   2.269  44.029   6.198
 5132POPC   D2A65308   2.356  43.728   6.563
 5132POPC   C3A65309   2.333  43.798   7.028
 5132POPC   C4A65310   2.052  44.117   7.234
 5132POPC   C1B65311   1.938  43.652   6.175
 5132POPC   C2B65312   1.858  43.633   6.583
 5132POPC   C3B65313   1.843  43.707   6.991
 5132POPC   C4B65314   1.740  43.647   7.369
 5133POPC   NC365315   2.710  30.253   5.437
 5133POPC   PO465316   3.084  29.692   5.405
 5133POPC   GL165317   2.806  29.780   5.747
 5133POPC   GL265318   2.614  30.062   5.873
 5133POPC   C1A65319   2.706  29.687   6.172
 5133POPC   D2A65320   2.889  29.791   6.531
 5133POPC   C3A65321   2.589  29.817   6.864
 5133POPC   C4A65322   2.706  29.798   7.286
 5133POPC   C1B65323   2.341  30.259   6.179
 5133POPC   C2B65324   2.231  30.134   6.612
 5133POPC   C3B65325   2.396  30.295   6.996
 5133POPC   C4B65326   2.598  30.309   7.416
 5134POPC   NC365327  10.144  37.855   5.406
 5134POPC   PO465328   9.367  37.805   5.317
 5134POPC   GL165329   9.608  37.674   5.674
 5134POPC   GL265330   9.850  37.910   5.823
 5134POPC   C1A65331   9.532  37.625   6.129
 5134POPC   D2A65332   9.687  37.458   6.532
 5134POPC   C3A65333   9.527  37.686   6.908
 5134POPC   C4A65334   9.678  37.655   7.322
 5134POPC   C1B65335  10.030  37.775   6.233
 5134POPC   C2B65336   9.924  37.913   6.654
 5134POPC   C3B65337  10.053  37.975   7.075
 5134POPC   C4B65338   9.812  38.143   7.380
 5135POPC   NC365339  30.476  30.185   5.666
 5135POPC   PO465340  30.781  29.965   5.148
 5135POPC   GL165341  30.722  29.737   5.664
 5135POPC   GL265342  30.438  29.703   5.876
 5135POPC   C1A65343  30.852  29.560   6.118
 5135POPC   D2A65344  30.813  29.695   6.572
 5135POPC   C3A65345  30.682  29.547   6.951
 5135POPC   C4A65346  30.764  29.663   7.360
 5135POPC   C1B65347  30.579  29.986   6.246
 5135POPC   C2B65348  30.790  30.215   6.593
 5135POPC   C3B65349  30.714  30.192   7.038
 5135POPC   C4B65350  30.329  30.217   7.220
 5136POPC   NC365351  29.204  14.146   5.477
 5136POPC   PO465352  28.982  14.895   5.385
 5136POPC   GL165353  28.966  14.583   5.718
 5136POPC   GL265354  29.310  14.570   5.742
 5136POPC   C1A65355  29.021  14.335   6.118
 5136POPC   D2A65356  29.295  14.283   6.477
 5136POPC   C3A65357  29.099  14.253   6.887
 5136POPC   C4A65358  29.130  14.180   7.307
 5136POPC   C1B65359  29.429  14.692   6.154
 5136POPC   C2B65360  29.666  14.665   6.535
 5136POPC   C3B65361  29.410  14.657   6.867
 5136POPC   C4B65362  29.235  14.663   7.240
 5137POPC   NC365363  44.170  18.125   5.455
 5137POPC   PO465364  44.846  18.257   5.427
 5137POPC   GL165365  44.722  18.244   5.824
 5137POPC   GL265366  44.572  17.918   5.747
 5137POPC   C1A65367  44.796  18.305   6.271
 5137POPC   D2A65368  44.686  18.510   6.659
 5137POPC   C3A65369  44.701  18.293   7.038
 5137POPC   C4A65370  44.967  18.004   7.170
 5137POPC   C1B65371  44.473  17.918   6.178
 5137POPC   C2B65372  44.574  17.989   6.618
 5137POPC   C3B65373  44.462  17.839   7.027
 5137POPC   C4B65374  44.204  17.987   7.354
 5138POPC   NC365375  10.159  30.125   5.617
 5138POPC   PO465376  10.756  29.995   5.414
 5138POPC   GL165377  10.611  29.801   5.819
 5138POPC   GL265378  10.284  29.756   5.926
 5138POPC   C1A65379  10.740  29.792   6.246
 5138POPC   D2A65380  10.683  30.088   6.603
 5138POPC   C3A65381  10.706  29.856   6.960
 5138POPC   C4A65382  10.610  29.971   7.343
 5138POPC   C1B65383  10.263  29.927   6.317
 5138POPC   C2B65384  10.372  29.649   6.646
 5138POPC   C3B65385  10.270  29.612   7.093
 5138POPC   C4B65386  10.328  29.609   7.545
 5139POPC   NC365387  26.231  27.529   5.458
 5139POPC   PO465388  25.549  27.422   5.436
 5139POPC   GL165389  25.856  27.373   5.825
 5139POPC   GL265390  26.008  27.689   5.875
 5139POPC   C1A65391  26.115  27.398   6.262
 5139POPC   D2A65392  26.054  27.744   6.579
 5139POPC   C3A65393  25.953  27.650   7.026
 5139POPC   C4A65394  26.109  27.297   7.251
 5139POPC   C1B65395  26.384  27.815   6.122
 5139POPC   C2B65396  26.587  27.785   6.531
 5139POPC   C3B65397  26.452  27.541   6.893
 5139POPC   C4B65398  26.390  27.748   7.289
 5140POPC   NC365399   3.109  33.506   5.541
 5140POPC   PO465400   3.776  33.781   5.442
 5140POPC   GL165401   3.583  33.875   5.798
 5140POPC   GL265402   3.515  33.555   5.881
 5140POPC   C1A65403   3.451  34.135   6.136
 5140POPC   D2A65404   3.376  34.047   6.557
 5140POPC   C3A65405   3.614  34.049   6.907
 5140POPC   C4A65406   3.525  34.002   7.323
 5140POPC   C1B65407   3.321  33.597   6.266
 5140POPC   C2B65408   3.199  33.573   6.701
 5140POPC   C3B65409   3.428  33.561   7.130
 5140POPC   C4B65410   3.410  33.656   7.650
 5141POPC   NC365411  30.799  31.565   5.372
 5141POPC   PO465412  30.624  30.919   5.405
 5141POPC   GL165413  30.609  31.234   5.783
 5141POPC   GL265414  30.369  31.528   5.687
 5141POPC   C1A65415  30.677  31.333   6.267
 5141POPC   D2A65416  30.633  31.199   6.721
 5141POPC   C3A65417  30.864  31.328   7.064
 5141POPC   C4A65418  31.077  31.723   7.191
 5141POPC   C1B65419  30.324  31.675   6.109
 5141POPC   C2B65420  30.278  31.548   6.555
 5141POPC   C3B65421  30.485  31.670   6.937
 5141POPC   C4B65422  30.308  31.765   7.338
 5142POPC   NC365423  26.413  38.123   5.399
 5142POPC   PO465424  26.843  38.656   5.461
 5142POPC   GL165425  26.550  38.628   5.809
 5142POPC   GL265426  26.673  38.284   5.789
 5142POPC   C1A65427  26.597  38.743   6.287
 5142POPC   D2A65428  26.960  38.623   6.584
 5142POPC   C3A65429  26.887  38.406   6.969
 5142POPC   C4A65430  27.052  38.439   7.369
 5142POPC   C1B65431  26.904  38.349   6.148
 5142POPC   C2B65432  27.007  38.108   6.517
 5142POPC   C3B65433  27.067  37.925   6.924
 5142POPC   C4B65434  26.844  37.985   7.295
 5143POPC   NC365435  38.086  38.534   5.644
 5143POPC   PO465436  38.621  38.691   5.378
 5143POPC   GL165437  38.590  38.537   5.807
 5143POPC   GL265438  38.395  38.749   6.017
 5143POPC   C1A65439  38.665  38.361   6.235
 5143POPC   D2A65440  38.699  38.533   6.630
 5143POPC   C3A65441  38.690  38.246   6.974
 5143POPC   C4A65442  38.643  38.371   7.404
 5143POPC   C1B65443  38.153  38.473   6.296
 5143POPC   C2B65444  38.215  38.401   6.712
 5143POPC   C3B65445  38.391  38.636   7.055
 5143POPC   C4B65446  38.180  38.613   7.441
 5144POPC   NC365447   8.440  32.358   5.429
 5144POPC   PO465448   8.976  31.872   5.365
 5144POPC   GL165449   8.827  32.131   5.742
 5144POPC   GL265450   8.713  32.504   5.834
 5144POPC   C1A65451   8.825  32.160   6.212
 5144POPC   D2A65452   9.059  31.974   6.557
 5144POPC   C3A65453   9.091  32.117   6.990
 5144POPC   C4A65454   9.359  32.112   7.392
 5144POPC   C1B65455   8.674  32.664   6.263
 5144POPC   C2B65456   8.802  32.579   6.693
 5144POPC   C3B65457   8.907  32.561   7.126
 5144POPC   C4B65458   8.670  32.648   7.506
 5145POPC   NC365459   3.057  36.469   5.755
 5145POPC   PO465460   2.531  36.145   5.428
 5145POPC   GL165461   2.676  36.110   5.848
 5145POPC   GL265462   2.551  36.453   5.899
 5145POPC   C1A65463   2.861  35.897   6.235
 5145POPC   D2A65464   2.904  35.699   6.667
 5145POPC   C3A65465   2.889  35.937   7.038
 5145POPC   C4A65466   3.114  36.211   7.299
 5145POPC   C1B65467   2.707  36.394   6.312
 5145POPC   C2B65468   2.964  36.241   6.621
 5145POPC   C3B65469   2.792  36.435   6.949
 5145POPC   C4B65470   2.593  36.277   7.295
 5146POPC   NC365471  24.719  26.735   5.538
 5146POPC   PO465472  24.191  27.114   5.454
 5146POPC   GL165473  24.361  26.942   5.816
 5146POPC   GL265474  24.235  26.596   5.791
 5146POPC   C1A65475  24.570  26.931   6.225
 5146POPC   D2A65476  24.626  27.158   6.636
 5146POPC   C3A65477  24.488  26.871   6.957
 5146POPC   C4A65478  24.670  26.713   7.268
 5146POPC   C1B65479  24.227  26.500   6.240
 5146POPC   C2B65480  24.326  26.460   6.689
 5146POPC   C3B65481  24.267  26.408   7.145
 5146POPC   C4B65482  24.185  26.502   7.598
 5147POPC   NC365483  11.075  34.593   5.537
 5147POPC   PO465484  11.640  34.514   5.687
 5147POPC   GL165485  11.353  34.707   5.974
 5147POPC   GL265486  10.980  34.723   6.012
 5147POPC   C1A65487  11.301  34.786   6.434
 5147POPC   D2A65488  11.546  34.716   6.821
 5147POPC   C3A65489  11.450  34.336   7.101
 5147POPC   C4A65490  11.379  33.852   7.099
 5147POPC   C1B65491  11.113  34.312   6.202
 5147POPC   C2B65492  11.242  34.298   6.618
 5147POPC   C3B65493  11.039  34.595   6.898
 5147POPC   C4B65494  10.918  34.540   7.318
 5148POPC   NC365495  34.615  21.742   5.448
 5148POPC   PO465496  34.320  21.041   5.510
 5148POPC   GL165497  34.542  21.335   5.796
 5148POPC   GL265498  34.356  21.651   5.862
 5148POPC   C1A65499  34.652  21.446   6.218
 5148POPC   D2A65500  34.880  21.615   6.561
 5148POPC   C3A65501  34.688  21.467   6.953
 5148POPC   C4A65502  34.785  21.308   7.340
 5148POPC   C1B65503  34.151  21.607   6.232
 5148POPC   C2B65504  34.305  21.528   6.607
 5148POPC   C3B65505  34.258  21.738   6.974
 5148POPC   C4B65506  34.384  21.611   7.407
 5149POPC   NC365507  23.111  13.774   5.470
 5149POPC   PO465508  22.579  13.304   5.532
 5149POPC   GL165509  22.607  13.686   5.847
 5149POPC   GL265510  22.941  13.804   5.964
 5149POPC   C1A65511  22.521  13.777   6.328
 5149POPC   D2A65512  22.790  13.728   6.719
 5149POPC   C3A65513  22.735  13.812   7.183
 5149POPC   C4A65514  22.701  13.564   7.540
 5149POPC   C1B65515  23.145  13.602   6.338
 5149POPC   C2B65516  23.290  13.576   6.774
 5149POPC   C3B65517  23.099  13.439   7.146
 5149POPC   C4B65518  23.185  13.748   7.462
 5150POPC   NC365519   7.372   2.144   5.293
 5150POPC   PO465520   7.281   1.413   5.215
 5150POPC   GL165521   7.389   1.665   5.670
 5150POPC   GL265522   7.304   2.026   5.782
 5150POPC   C1A65523   7.557   1.788   6.140
 5150POPC   D2A65524   7.742   2.009   6.520
 5150POPC   C3A65525   7.694   1.800   6.938
 5150POPC   C4A65526   7.598   1.945   7.350
 5150POPC   C1B65527   7.399   2.295   6.135
 5150POPC   C2B65528   7.391   2.404   6.564
 5150POPC   C3B65529   7.469   2.285   6.983
 5150POPC   C4B65530   7.218   2.268   7.368
 5151POPC   NC365531  16.141   7.881   5.356
 5151POPC   PO465532  16.372   8.543   5.361
 5151POPC   GL165533  16.281   8.493   5.764
 5151POPC   GL265534  16.072   8.190   5.779
 5151POPC   C1A65535  16.193   8.536   6.185
 5151POPC   D2A65536  16.268   8.271   6.516
 5151POPC   C3A65537  16.219   8.410   6.913
 5151POPC   C4A65538  16.220   8.137   7.286
 5151POPC   C1B65539  15.860   8.139   6.190
 5151POPC   C2B65540  15.762   8.265   6.605
 5151POPC   C3B65541  15.817   8.067   6.978
 5151POPC   C4B65542  15.719   8.006   7.410
 5152POPC   NC365543  10.273   1.995   5.140
 5152POPC   PO465544  10.924   1.972   5.404
 5152POPC   GL165545  10.699   2.014   5.805
 5152POPC   GL265546  10.556   2.348   5.934
 5152POPC   C1A65547  10.764   1.903   6.234
 5152POPC   D2A65548  10.593   1.684   6.588
 5152POPC   C3A65549  10.736   1.844   6.990
 5152POPC   C4A65550  10.599   1.746   7.393
 5152POPC   C1B65551  10.328   2.185   6.281
 5152POPC   C2B65552  10.358   2.160   6.742
 5152POPC   C3B65553  10.247   2.058   7.161
 5152POPC   C4B65554  10.286   2.157   7.624
 5153POPC   NC365555  34.543  25.480   5.347
 5153POPC   PO465556  34.190  24.954   5.677
 5153POPC   GL165557  34.533  25.167   5.899
 5153POPC   GL265558  34.710  25.493   5.832
 5153POPC   C1A65559  34.476  25.126   6.341
 5153POPC   D2A65560  34.178  24.874   6.607
 5153POPC   C3A65561  34.298  25.013   7.011
 5153POPC   C4A65562  34.479  25.123   7.394
 5153POPC   C1B65563  34.830  25.676   6.237
 5153POPC   C2B65564  34.528  25.591   6.588
 5153POPC   C3B65565  34.610  25.442   6.998
 5153POPC   C4B65566  34.887  25.730   7.179
 5154POPC   NC365567  31.863   3.590   5.127
 5154POPC   PO465568  32.341   3.648   5.642
 5154POPC   GL165569  32.101   3.458   5.926
 5154POPC   GL265570  32.367   3.301   6.111
 5154POPC   C1A65571  32.063   3.642   6.313
 5154POPC   D2A65572  32.276   3.511   6.612
 5154POPC   C3A65573  32.025   3.662   6.908
 5154POPC   C4A65574  32.190   3.757   7.286
 5154POPC   C1B65575  31.952   3.145   6.344
 5154POPC   C2B65576  31.941   3.144   6.808
 5154POPC   C3B65577  32.313   3.263   7.059
 5154POPC   C4B65578  32.510   3.397   7.445
 5155POPC   NC365579  11.168   5.834   5.310
 5155POPC   PO465580  11.282   5.269   5.664
 5155POPC   GL165581  11.368   5.656   5.896
 5155POPC   GL265582  11.034   5.640   5.988
 5155POPC   C1A65583  11.379   5.991   6.264
 5155POPC   D2A65584  11.662   6.239   6.571
 5155POPC   C3A65585  11.469   6.246   6.977
 5155POPC   C4A65586  11.049   6.122   7.138
 5155POPC   C1B65587  11.179   5.531   6.386
 5155POPC   C2B65588  11.172   5.772   6.767
 5155POPC   C3B65589  11.413   5.766   7.148
 5155POPC   C4B65590  11.614   5.688   7.539
 5156POPC   NC365591  12.127  43.336   5.419
 5156POPC   PO465592  11.769  42.817   5.195
 5156POPC   GL165593  11.911  42.863   5.679
 5156POPC   GL265594  11.668  42.833   5.926
 5156POPC   C1A65595  12.154  43.070   6.083
 5156POPC   D2A65596  12.123  43.256   6.527
 5156POPC   C3A65597  12.208  43.075   6.953
 5156POPC   C4A65598  12.366  43.204   7.340
 5156POPC   C1B65599  11.732  42.944   6.344
 5156POPC   C2B65600  11.779  42.823   6.730
 5156POPC   C3B65601  11.778  42.815   7.131
 5156POPC   C4B65602  12.029  42.774   7.463
 5157POPC   NC365603  39.077  31.790   5.326
 5157POPC   PO465604  39.500  31.252   5.363
 5157POPC   GL165605  39.323  31.212   5.790
 5157POPC   GL265606  39.122  31.481   5.782
 5157POPC   C1A65607  39.210  31.156   6.243
 5157POPC   D2A65608  39.197  31.375   6.657
 5157POPC   C3A65609  39.199  31.287   7.095
 5157POPC   C4A65610  39.375  31.463   7.488
 5157POPC   C1B65611  39.053  31.656   6.208
 5157POPC   C2B65612  39.070  31.856   6.600
 5157POPC   C3B65613  39.262  31.815   7.013
 5157POPC   C4B65614  39.566  31.936   7.336
 5158POPC   NC365615  35.353   3.164   5.217
 5158POPC   PO465616  35.685   3.690   5.482
 5158POPC   GL165617  35.466   3.806   5.882
 5158POPC   GL265618  35.108   3.749   5.872
 5158POPC   C1A65619  35.348   3.614   6.298
 5158POPC   D2A65620  35.088   3.306   6.497
 5158POPC   C3A65621  35.188   3.283   6.914
 5158POPC   C4A65622  35.211   3.560   7.261
 5158POPC   C1B65623  34.987   3.950   6.281
 5158POPC   C2B65624  35.073   3.837   6.724
 5158POPC   C3B65625  34.841   3.930   7.097
 5158POPC   C4B65626  34.897   3.940   7.558
 5159POPC   NC365627   6.091  36.437   5.682
 5159POPC   PO465628   6.569  36.017   5.390
 5159POPC   GL165629   6.528  36.222   5.785
 5159POPC   GL265630   6.764  36.506   5.766
 5159POPC   C1A65631   6.347  36.201   6.231
 5159POPC   D2A65632   6.467  35.946   6.606
 5159POPC   C3A65633   6.352  35.936   7.064
 5159POPC   C4A65634   6.393  36.115   7.525
 5159POPC   C1B65635   6.855  36.250   6.155
 5159POPC   C2B65636   6.669  36.488   6.509
 5159POPC   C3B65637   6.538  36.384   6.887
 5159POPC   C4B65638   6.789  36.175   7.186
 5160POPC   NC365639  35.206   4.036   5.458
 5160POPC   PO465640  35.703   4.484   5.472
 5160POPC   GL165641  35.464   4.338   5.866
 5160POPC   GL265642  35.111   4.261   5.891
 5160POPC   C1A65643  35.371   4.312   6.326
 5160POPC   D2A65644  35.642   4.246   6.685
 5160POPC   C3A65645  35.516   4.405   7.060
 5160POPC   C4A65646  35.314   4.056   7.215
 5160POPC   C1B65647  34.955   4.618   6.013
 5160POPC   C2B65648  34.969   4.676   6.453
 5160POPC   C3B65649  35.055   4.372   6.784
 5160POPC   C4B65650  35.008   4.470   7.226
 5161POPC   NC365651  20.355  32.730   5.366
 5161POPC   PO465652  19.816  33.106   5.315
 5161POPC   GL165653  19.996  33.189   5.714
 5161POPC   GL265654  19.769  32.920   5.836
 5161POPC   C1A65655  20.068  33.185   6.163
 5161POPC   D2A65656  19.876  33.025   6.532
 5161POPC   C3A65657  20.016  33.164   6.911
 5161POPC   C4A65658  19.828  33.227   7.284
 5161POPC   C1B65659  19.885  32.646   6.187
 5161POPC   C2B65660  19.802  32.485   6.577
 5161POPC   C3B65661  19.779  32.717   6.942
 5161POPC   C4B65662  20.059  32.781   7.275
 5162POPC   NC365663  12.149  26.492   5.564
 5162POPC   PO465664  12.094  27.145   5.565
 5162POPC   GL165665  12.044  27.001   5.974
 5162POPC   GL265666  11.983  26.648   6.011
 5162POPC   C1A65667  12.321  27.041   6.311
 5162POPC   D2A65668  12.340  26.927   6.731
 5162POPC   C3A65669  11.928  26.927   6.921
 5162POPC   C4A65670  11.845  27.217   7.225
 5162POPC   C1B65671  11.953  26.703   6.437
 5162POPC   C2B65672  12.055  26.450   6.750
 5162POPC   C3B65673  12.226  26.556   7.101
 5162POPC   C4B65674  11.980  26.758   7.432
 5163POPC   NC365675  41.035  40.339   5.163
 5163POPC   PO465676  40.567  40.026   5.459
 5163POPC   GL165677  40.495  39.828   5.827
 5163POPC   GL265678  40.842  39.760   5.842
 5163POPC   C1A65679  40.596  39.894   6.277
 5163POPC   D2A65680  40.599  40.243   6.576
 5163POPC   C3A65681  40.528  40.077   6.999
 5163POPC   C4A65682  40.414  40.041   7.442
 5163POPC   C1B65683  41.036  40.083   6.140
 5163POPC   C2B65684  41.105  40.182   6.597
 5163POPC   C3B65685  41.032  39.995   6.987
 5163POPC   C4B65686  40.948  40.096   7.379
 5164POPC   NC365687  16.380  26.894   5.562
 5164POPC   PO465688  17.014  27.161   5.512
 5164POPC   GL165689  16.825  26.979   5.911
 5164POPC   GL265690  16.643  26.653   5.938
 5164POPC   C1A65691  16.826  26.831   6.360
 5164POPC   D2A65692  16.754  26.521   6.682
 5164POPC   C3A65693  16.989  26.589   7.035
 5164POPC   C4A65694  16.932  27.014   7.110
 5164POPC   C1B65695  16.319  26.801   6.246
 5164POPC   C2B65696  16.170  26.976   6.658
 5164POPC   C3B65697  16.382  27.009   7.102
 5164POPC   C4B65698  16.570  26.649   7.313
 5165POPC   NC365699   9.410  31.919   5.541
 5165POPC   PO465700   9.597  32.595   5.584
 5165POPC   GL165701   9.865  32.405   5.920
 5165POPC   GL265702   9.909  32.063   5.752
 5165POPC   C1A65703   9.708  32.336   6.377
 5165POPC   D2A65704   9.329  32.480   6.667
 5165POPC   C3A65705   9.448  32.544   7.115
 5165POPC   C4A65706   9.818  32.369   7.341
 5165POPC   C1B65707   9.851  31.870   6.155
 5165POPC   C2B65708   9.551  31.837   6.499
 5165POPC   C3B65709   9.456  31.747   6.925
 5165POPC   C4B65710   9.763  31.887   7.206
 5166POPC   NC365711  21.200  25.285   5.316
 5166POPC   PO465712  21.800  25.279   5.654
 5166POPC   GL165713  21.409  25.280   5.841
 5166POPC   GL265714  21.020  25.199   5.784
 5166POPC   C1A65715  21.557  25.298   6.261
 5166POPC   D2A65716  21.798  25.274   6.623
 5166POPC   C3A65717  21.683  25.389   7.005
 5166POPC   C4A65718  21.498  25.053   7.203
 5166POPC   C1B65719  21.062  25.478   6.147
 5166POPC   C2B65720  21.256  25.538   6.566
 5166POPC   C3B65721  21.181  25.389   6.928
 5166POPC   C4B65722  21.265  25.580   7.269
 5167POPC   NC365723  19.669  44.977   5.547
 5167POPC   PO465724  20.172  44.526   5.643
 5167POPC   GL165725  19.839  44.645   5.941
 5167POPC   GL265726  19.900  44.550   6.277
 5167POPC   C1A65727  19.518  44.871   6.203
 5167POPC   D2A65728  19.451  44.764   6.615
 5167POPC   C3A65729  19.829  44.645   6.819
 5167POPC   C4A65730  19.771  44.568   7.252
 5167POPC   C1B65731  20.284  44.779   6.218
 5167POPC   C2B65732  20.441  44.806   6.577
 5167POPC   C3B65733  20.258  44.952   6.930
 5167POPC   C4B65734  20.188  44.812   7.332
 5168POPC   NC365735  10.005  32.846   5.585
 5168POPC   PO465736   9.491  33.310   5.429
 5168POPC   GL165737   9.694  33.306   5.803
 5168POPC   GL265738   9.664  32.952   5.949
 5168POPC   C1A65739   9.482  33.346   6.193
 5168POPC   D2A65740   9.500  33.064   6.530
 5168POPC   C3A65741   9.763  33.190   6.873
 5168POPC   C4A65742   9.579  33.060   7.250
 5168POPC   C1B65743   9.908  32.806   6.318
 5168POPC   C2B65744   9.804  32.693   6.773
 5168POPC   C3B65745  10.034  32.796   7.165
 5168POPC   C4B65746  10.137  32.695   7.607
 5169POPC   NC365747  25.740  38.857   5.455
 5169POPC   PO465748  26.012  38.183   5.170
 5169POPC   GL165749  26.055  38.443   5.622
 5169POPC   GL265750  26.164  38.202   5.847
 5169POPC   C1A65751  26.098  38.650   6.086
 5169POPC   D2A65752  26.134  38.647   6.580
 5169POPC   C3A65753  25.961  38.349   6.929
 5169POPC   C4A65754  25.842  38.392   7.377
 5169POPC   C1B65755  26.417  38.255   6.207
 5169POPC   C2B65756  26.533  38.323   6.604
 5169POPC   C3B65757  26.466  38.100   6.962
 5169POPC   C4B65758  26.352  38.295   7.306
 5170POPC   NC365759  35.750  43.863   5.361
 5170POPC   PO465760  36.442  43.692   5.476
 5170POPC   GL165761  36.240  43.834   5.853
 5170POPC   GL265762  35.897  43.969   5.827
 5170POPC   C1A65763  36.428  43.905   6.243
 5170POPC   D2A65764  36.495  43.659   6.602
 5170POPC   C3A65765  36.493  43.922   6.969
 5170POPC   C4A65766  36.551  43.580   7.269
 5170POPC   C1B65767  35.921  43.978   6.267
 5170POPC   C2B65768  36.054  43.885   6.681
 5170POPC   C3B65769  36.072  43.700   7.115
 5170POPC   C4B65770  35.919  43.891   7.487
 5171POPC   NC365771  11.876   9.443   5.517
 5171POPC   PO465772  12.143   8.792   5.531
 5171POPC   GL165773  12.329   8.915   5.931
 5171POPC   GL265774  12.172   9.241   5.903
 5171POPC   C1A65775  12.474   9.163   6.294
 5171POPC   D2A65776  12.226   9.211   6.660
 5171POPC   C3A65777  12.356   8.976   7.008
 5171POPC   C4A65778  12.159   8.778   7.342
 5171POPC   C1B65779  11.774   9.253   6.159
 5171POPC   C2B65780  11.691   9.266   6.623
 5171POPC   C3B65781  11.889   9.237   7.085
 5171POPC   C4B65782  11.889   9.161   7.569
 5172POPC   NC365783  13.527  25.297   5.309
 5172POPC   PO465784  13.952  24.935   5.609
 5172POPC   GL165785  13.791  25.361   5.762
 5172POPC   GL265786  13.460  25.361   5.825
 5172POPC   C1A65787  13.733  25.603   6.161
 5172POPC   D2A65788  13.472  25.551   6.505
 5172POPC   C3A65789  13.555  25.307   6.870
 5172POPC   C4A65790  13.526  25.380   7.312
 5172POPC   C1B65791  13.661  25.115   6.209
 5172POPC   C2B65792  13.754  24.895   6.622
 5172POPC   C3B65793  13.573  24.837   7.078
 5172POPC   C4B65794  13.671  24.913   7.516
 5173POPC   NC365795   0.392   4.048   5.105
 5173POPC   PO465796   0.175   3.445   5.362
 5173POPC   GL165797   0.449   3.430   5.745
 5173POPC   GL265798   0.658   3.748   5.793
 5173POPC   C1A65799   0.364   3.504   6.188
 5173POPC   D2A65800   0.139   3.623   6.550
 5173POPC   C3A65801   0.305   3.363   6.858
 5173POPC   C4A65802   0.404   3.277   7.249
 5173POPC   C1B65803   0.615   4.003   6.198
 5173POPC   C2B65804   0.449   4.115   6.599
 5173POPC   C3B65805   0.375   3.857   6.966
 5173POPC   C4B65806   0.206   3.839   7.369
 5174POPC   NC365807  35.687   3.232   5.623
 5174POPC   PO465808  35.108   2.773   5.347
 5174POPC   GL165809  35.204   2.551   5.749
 5174POPC   GL265810  35.383   2.854   5.802
 5174POPC   C1A65811  35.353   2.580   6.227
 5174POPC   D2A65812  35.522   2.772   6.625
 5174POPC   C3A65813  35.590   2.520   6.997
 5174POPC   C4A65814  35.421   2.527   7.422
 5174POPC   C1B65815  35.467   3.090   6.201
 5174POPC   C2B65816  35.609   3.270   6.554
 5174POPC   C3B65817  35.710   3.168   6.919
 5174POPC   C4B65818  35.575   2.980   7.262
 5175POPC   NC365819  15.687  11.656   5.472
 5175POPC   PO465820  16.231  11.298   5.458
 5175POPC   GL165821  16.143  11.319   5.850
 5175POPC   GL265822  15.809  11.330   5.857
 5175POPC   C1A65823  16.197  11.485   6.231
 5175POPC   D2A65824  16.025  11.487   6.635
 5175POPC   C3A65825  16.218  11.480   7.022
 5175POPC   C4A65826  16.036  11.210   7.350
 5175POPC   C1B65827  15.663  11.500   6.248
 5175POPC   C2B65828  15.578  11.252   6.597
 5175POPC   C3B65829  15.642  11.198   7.026
 5175POPC   C4B65830  15.395  11.487   7.263
 5176POPC   NC365831   6.187  11.616   5.382
 5176POPC   PO465832   6.543  11.098   5.669
 5176POPC   GL165833   6.685  11.448   5.896
 5176POPC   GL265834   7.025  11.510   5.843
 5176POPC   C1A65835   6.663  11.414   6.349
 5176POPC   D2A65836   6.462  11.060   6.554
 5176POPC   C3A65837   6.331  11.126   6.975
 5176POPC   C4A65838   6.347  11.491   7.240
 5176POPC   C1B65839   7.021  11.108   6.131
 5176POPC   C2B65840   7.101  11.028   6.561
 5176POPC   C3B65841   6.847  11.135   6.898
 5176POPC   C4B65842   6.774  11.008   7.304
 5177POPC   NC365843  34.741   9.393   5.477
 5177POPC   PO465844  34.258   8.988   5.457
 5177POPC   GL165845  34.485   9.056   5.843
 5177POPC   GL265846  34.545   9.390   5.941
 5177POPC   C1A65847  34.594   8.918   6.274
 5177POPC   D2A65848  34.655   8.774   6.686
 5177POPC   C3A65849  34.492   8.939   7.083
 5177POPC   C4A65850  34.578   8.769   7.544
 5177POPC   C1B65851  34.274   9.297   6.248
 5177POPC   C2B65852  34.237   9.162   6.657
 5177POPC   C3B65853  34.100   9.307   7.067
 5177POPC   C4B65854  34.223   9.125   7.465
 5178POPC   NC365855  33.331   8.010   5.455
 5178POPC   PO465856  33.928   8.180   5.160
 5178POPC   GL165857  33.819   8.208   5.642
 5178POPC   GL265858  33.657   7.947   5.818
 5178POPC   C1A65859  33.888   8.260   6.134
 5178POPC   D2A65860  33.718   8.348   6.549
 5178POPC   C3A65861  33.930   8.295   6.938
 5178POPC   C4A65862  33.854   8.288   7.391
 5178POPC   C1B65863  33.481   7.947   6.230
 5178POPC   C2B65864  33.516   7.828   6.652
 5178POPC   C3B65865  33.592   7.963   7.079
 5178POPC   C4B65866  33.440   7.743   7.437
 5179POPC   NC365867  36.870  12.623   5.485
 5179POPC   PO465868  37.374  13.076   5.451
 5179POPC   GL165869  37.064  13.019   5.776
 5179POPC   GL265870  36.812  13.218   5.919
 5179POPC   C1A65871  37.107  12.818   6.159
 5179POPC   D2A65872  37.319  12.843   6.528
 5179POPC   C3A65873  37.163  12.952   6.915
 5179POPC   C4A65874  37.134  12.751   7.290
 5179POPC   C1B65875  36.616  12.838   6.152
 5179POPC   C2B65876  36.471  12.805   6.543
 5179POPC   C3B65877  36.680  12.770   6.929
 5179POPC   C4B65878  36.647  12.916   7.326
 5180POPC   NC365879  11.482  26.113   5.561
 5180POPC   PO465880  10.898  25.893   5.399
 5180POPC   GL165881  11.072  26.053   5.852
 5180POPC   GL265882  11.231  26.443   5.865
 5180POPC   C1A65883  11.368  25.976   6.229
 5180POPC   D2A65884  11.436  25.722   6.629
 5180POPC   C3A65885  11.340  25.934   7.032
 5180POPC   C4A65886  10.981  25.910   7.334
 5180POPC   C1B65887  11.531  26.458   6.226
 5180POPC   C2B65888  11.582  26.250   6.649
 5180POPC   C3B65889  11.513  26.445   7.065
 5180POPC   C4B65890  11.619  26.408   7.508
 5181POPC   NC365891  33.531  31.315   5.406
 5181POPC   PO465892  32.985  31.613   5.258
 5181POPC   GL165893  33.153  31.540   5.671
 5181POPC   GL265894  32.878  31.741   5.753
 5181POPC   C1A65895  33.162  31.332   6.088
 5181POPC   D2A65896  32.872  31.303   6.419
 5181POPC   C3A65897  33.032  31.369   6.835
 5181POPC   C4A65898  33.207  31.272   7.213
 5181POPC   C1B65899  32.843  31.768   6.174
 5181POPC   C2B65900  32.955  31.809   6.598
 5181POPC   C3B65901  32.787  31.848   6.974
 5181POPC   C4B65902  32.841  31.805   7.384
 5182POPC   NC365903  19.735  31.650   5.530
 5182POPC   PO465904  20.193  31.231   5.630
 5182POPC   GL165905  19.815  31.279   5.872
 5182POPC   GL265906  19.540  31.571   5.982
 5182POPC   C1A65907  19.649  31.133   6.217
 5182POPC   D2A65908  19.755  31.395   6.544
 5182POPC   C3A65909  19.837  31.200   6.914
 5182POPC   C4A65910  19.722  31.404   7.294
 5182POPC   C1B65911  19.901  31.754   6.162
 5182POPC   C2B65912  20.112  31.794   6.540
 5182POPC   C3B65913  19.939  31.718   6.928
 5182POPC   C4B65914  19.921  31.906   7.306
 5183POPC   NC365915  43.741  24.107   5.488
 5183POPC   PO465916  44.149  23.621   5.216
 5183POPC   GL165917  44.206  23.494   5.679
 5183POPC   GL265918  44.255  23.793   5.876
 5183POPC   C1A65919  43.966  23.467   6.107
 5183POPC   D2A65920  43.761  23.710   6.446
 5183POPC   C3A65921  43.889  23.497   6.811
 5183POPC   C4A65922  43.758  23.448   7.231
 5183POPC   C1B65923  44.201  23.937   6.314
 5183POPC   C2B65924  44.251  23.844   6.740
 5183POPC   C3B65925  44.127  23.796   7.164
 5183POPC   C4B65926  44.001  23.857   7.609
 5184POPC   NC365927  29.986  33.041   5.359
 5184POPC   PO465928  29.720  32.417   5.521
 5184POPC   GL165929  29.869  32.739   5.806
 5184POPC   GL265930  29.702  33.054   5.782
 5184POPC   C1A65931  30.091  33.043   6.085
 5184POPC   D2A65932  29.952  33.206   6.464
 5184POPC   C3A65933  30.052  32.947   6.808
 5184POPC   C4A65934  29.927  32.903   7.198
 5184POPC   C1B65935  29.575  33.374   6.053
 5184POPC   C2B65936  29.503  33.416   6.485
 5184POPC   C3B65937  29.590  33.176   6.850
 5184POPC   C4B65938  29.612  33.303   7.245
 5185POPC   NC365939  12.681   5.287   5.324
 5185POPC   PO465940  12.656   4.570   5.401
 5185POPC   GL165941  12.706   4.889   5.769
 5185POPC   GL265942  12.731   5.260   5.806
 5185POPC   C1A65943  12.916   4.993   6.199
 5185POPC   D2A65944  13.019   5.107   6.655
 5185POPC   C3A65945  12.874   5.092   7.118
 5185POPC   C4A65946  12.916   4.736   7.443
 5185POPC   C1B65947  12.531   5.328   6.181
 5185POPC   C2B65948  12.658   5.486   6.555
 5185POPC   C3B65949  12.478   5.553   6.931
 5185POPC   C4B65950  12.498   5.416   7.315
 5186POPC   NC365951  26.993  19.550   5.407
 5186POPC   PO465952  26.650  20.067   5.681
 5186POPC   GL165953  26.776  19.715   5.908
 5186POPC   GL265954  26.558  19.874   6.154
 5186POPC   C1A65955  26.928  19.546   6.308
 5186POPC   D2A65956  27.178  19.606   6.672
 5186POPC   C3A65957  26.879  19.611   7.005
 5186POPC   C4A65958  26.427  19.546   7.150
 5186POPC   C1B65959  26.943  20.082   6.277
 5186POPC   C2B65960  27.123  20.110   6.680
 5186POPC   C3B65961  26.894  20.145   7.050
 5186POPC   C4B65962  26.730  19.908   7.398
 5187POPC   NC365963  23.282  22.972   5.485
 5187POPC   PO465964  22.612  22.983   5.276
 5187POPC   GL165965  22.746  22.917   5.756
 5187POPC   GL265966  23.040  23.056   5.923
 5187POPC   C1A65967  22.687  22.773   6.199
 5187POPC   D2A65968  22.928  22.970   6.538
 5187POPC   C3A65969  22.716  23.003   6.960
 5187POPC   C4A65970  22.533  22.692   7.224
 5187POPC   C1B65971  23.210  22.698   6.184
 5187POPC   C2B65972  23.296  22.559   6.621
 5187POPC   C3B65973  23.204  22.804   6.983
 5187POPC   C4B65974  23.139  22.689   7.411
 5188POPC   NC365975  12.656  13.499   5.328
 5188POPC   PO465976  13.342  13.417   5.388
 5188POPC   GL165977  13.085  13.365   5.747
 5188POPC   GL265978  12.939  13.682   5.735
 5188POPC   C1A65979  12.976  13.410   6.209
 5188POPC   D2A65980  13.193  13.309   6.614
 5188POPC   C3A65981  13.021  13.413   7.037
 5188POPC   C4A65982  12.786  13.277   7.405
 5188POPC   C1B65983  12.870  13.934   6.126
 5188POPC   C2B65984  12.726  13.909   6.558
 5188POPC   C3B65985  12.592  13.855   6.990
 5188POPC   C4B65986  12.853  13.794   7.334
 5189POPC   NC365987  14.358  34.408   5.093
 5189POPC   PO465988  14.720  34.792   5.339
 5189POPC   GL165989  14.422  34.778   5.684
 5189POPC   GL265990  14.575  35.053   5.829
 5189POPC   C1A65991  14.261  34.560   6.099
 5189POPC   D2A65992  14.218  34.391   6.559
 5189POPC   C3A65993  14.168  34.655   6.940
 5189POPC   C4A65994  14.295  34.478   7.338
 5189POPC   C1B65995  14.588  34.926   6.267
 5189POPC   C2B65996  14.584  34.885   6.714
 5189POPC   C3B65997  14.600  34.869   7.199
 5189POPC   C4B65998  14.763  34.637   7.546
 5190POPC   NC365999  16.957  16.673   5.432
 5190POPC   PO466000  16.250  16.538   5.550
 5190POPC   GL166001  16.558  16.687   5.849
 5190POPC   GL266002  16.885  16.486   5.925
 5190POPC   C1A66003  16.463  16.862   6.260
 5190POPC   D2A66004  16.529  16.803   6.716
 5190POPC   C3A66005  16.811  16.920   7.035
 5190POPC   C4A66006  16.626  16.886   7.474
 5190POPC   C1B66007  16.873  16.582   6.381
 5190POPC   C2B66008  16.854  16.404   6.825
 5190POPC   C3B66009  16.916  16.491   7.296
 5190POPC   C4B66010  16.794  16.410   7.735
 5191POPC   NC366011   9.147   4.155   5.408
 5191POPC   PO466012   8.528   3.989   5.393
 5191POPC   GL166013   8.649   4.099   5.828
 5191POPC   GL266014   8.871   4.379   5.788
 5191POPC   C1A66015   8.769   4.205   6.280
 5191POPC   D2A66016   9.026   4.078   6.661
 5191POPC   C3A66017   8.817   4.184   7.073
 5191POPC   C4A66018   8.818   4.123   7.527
 5191POPC   C1B66019   9.217   4.339   6.089
 5191POPC   C2B66020   9.111   4.547   6.468
 5191POPC   C3B66021   9.132   4.575   6.919
 5191POPC   C4B66022   9.171   4.458   7.368
 5192POPC   NC366023  26.787  29.154   5.427
 5192POPC   PO466024  26.670  28.588   5.373
 5192POPC   GL166025  26.719  28.814   5.815
 5192POPC   GL266026  26.547  29.143   5.871
 5192POPC   C1A66027  26.603  28.874   6.282
 5192POPC   D2A66028  26.625  29.157   6.624
 5192POPC   C3A66029  26.882  29.085   6.914
 5192POPC   C4A66030  26.892  29.109   7.330
 5192POPC   C1B66031  26.945  29.224   6.137
 5192POPC   C2B66032  27.068  29.410   6.539
 5192POPC   C3B66033  26.841  29.597   6.899
 5192POPC   C4B66034  26.563  29.764   7.229
 5193POPC   NC366035  27.891  26.962   5.439
 5193POPC   PO466036  27.296  27.232   5.522
 5193POPC   GL166037  27.539  27.041   5.810
 5193POPC   GL266038  27.506  26.687   5.691
 5193POPC   C1A66039  27.694  26.830   6.151
 5193POPC   D2A66040  27.581  26.698   6.544
 5193POPC   C3A66041  27.750  26.876   6.926
 5193POPC   C4A66042  27.729  26.599   7.254
 5193POPC   C1B66043  27.314  26.480   6.058
 5193POPC   C2B66044  27.281  26.311   6.463
 5193POPC   C3B66045  27.261  26.472   6.880
 5193POPC   C4B66046  27.234  26.399   7.292
 5194POPC   NC366047  39.169  39.803   5.378
 5194POPC   PO466048  39.152  39.134   5.311
 5194POPC   GL166049  39.196  39.373   5.704
 5194POPC   GL266050  39.513  39.574   5.721
 5194POPC   C1A66051  39.330  39.250   6.129
 5194POPC   D2A66052  39.523  39.267   6.548
 5194POPC   C3A66053  39.232  39.205   6.886
 5194POPC   C4A66054  39.195  39.079   7.284
 5194POPC   C1B66055  39.608  39.733   6.129
 5194POPC   C2B66056  39.740  39.726   6.557
 5194POPC   C3B66057  39.521  39.647   6.942
 5194POPC   C4B66058  39.277  39.579   7.317
 5195POPC   NC366059   3.823  19.340   5.389
 5195POPC   PO466060   4.301  19.874   5.404
 5195POPC   GL166061   4.302  19.758   5.834
 5195POPC   GL266062   4.136  19.455   5.776
 5195POPC   C1A66063   4.275  19.926   6.290
 5195POPC   D2A66064   4.577  20.134   6.584
 5195POPC   C3A66065   4.585  19.981   7.017
 5195POPC   C4A66066   4.356  20.116   7.385
 5195POPC   C1B66067   3.958  19.496   6.169
 5195POPC   C2B66068   4.134  19.475   6.562
 5195POPC   C3B66069   4.010  19.511   6.955
 5195POPC   C4B66070   4.233  19.668   7.233
 5196POPC   NC366071  23.934  20.010   5.263
 5196POPC   PO466072  23.324  19.806   5.404
 5196POPC   GL166073  23.564  19.701   5.823
 5196POPC   GL266074  23.921  19.872   5.832
 5196POPC   C1A66075  23.782  19.665   6.279
 5196POPC   D2A66076  24.028  19.860   6.647
 5196POPC   C3A66077  23.883  19.736   7.100
 5196POPC   C4A66078  23.829  19.794   7.569
 5196POPC   C1B66079  23.927  20.261   6.144
 5196POPC   C2B66080  23.954  20.452   6.592
 5196POPC   C3B66081  23.956  20.238   7.005
 5196POPC   C4B66082  23.595  20.144   7.279
 5197POPC   NC366083  24.048  39.341   5.303
 5197POPC   PO466084  24.499  38.878   5.410
 5197POPC   GL166085  24.430  39.088   5.773
 5197POPC   GL266086  24.666  38.870   5.916
 5197POPC   C1A66087  24.465  39.248   6.194
 5197POPC   D2A66088  24.228  39.134   6.564
 5197POPC   C3A66089  24.347  39.311   6.987
 5197POPC   C4A66090  24.222  39.122   7.412
 5197POPC   C1B66091  24.883  38.947   6.273
 5197POPC   C2B66092  24.719  39.080   6.631
 5197POPC   C3B66093  24.472  38.839   6.914
 5197POPC   C4B66094  24.681  38.948   7.255
 5198POPC   NC366095   9.593  29.697   5.387
 5198POPC   PO466096   9.805  30.304   5.384
 5198POPC   GL166097   9.637  30.186   5.794
 5198POPC   GL266098   9.770  29.861   5.857
 5198POPC   C1A66099   9.793  30.177   6.252
 5198POPC   D2A66100  10.054  30.264   6.641
 5198POPC   C3A66101   9.797  30.279   7.005
 5198POPC   C4A66102   9.660  29.887   7.194
 5198POPC   C1B66103   9.868  29.625   6.232
 5198POPC   C2B66104   9.855  29.651   6.673
 5198POPC   C3B66105   9.832  29.364   7.009
 5198POPC   C4B66106   9.867  29.470   7.457
 5199POPC   NC366107  16.846   8.521   5.279
 5199POPC   PO466108  16.653   7.813   5.223
 5199POPC   GL166109  16.612   8.112   5.612
 5199POPC   GL266110  16.936   8.298   5.730
 5199POPC   C1A66111  16.589   8.178   6.105
 5199POPC   D2A66112  16.772   8.334   6.548
 5199POPC   C3A66113  16.646   8.165   6.982
 5199POPC   C4A66114  16.514   7.739   7.084
 5199POPC   C1B66115  17.118   8.296   6.165
 5199POPC   C2B66116  17.267   8.444   6.602
 5199POPC   C3B66117  17.136   8.323   7.007
 5199POPC   C4B66118  16.933   8.463   7.378
 5200POPC   NC366119  31.839  15.171   5.376
 5200POPC   PO466120  31.288  14.893   5.357
 5200POPC   GL166121  31.360  14.963   5.829
 5200POPC   GL266122  31.648  15.122   5.894
 5200POPC   C1A66123  31.334  15.285   6.219
 5200POPC   D2A66124  31.515  15.266   6.615
 5200POPC   C3A66125  31.206  15.193   6.931
 5200POPC   C4A66126  31.333  15.044   7.324
 5200POPC   C1B66127  31.877  14.858   6.220
 5200POPC   C2B66128  31.695  14.740   6.605
 5200POPC   C3B66129  31.672  14.922   6.983
 5200POPC   C4B66130  31.862  14.966   7.400
 5201POPC   NC366131   2.802   3.868   5.539
 5201POPC   PO466132   2.684   3.246   5.403
 5201POPC   GL166133   2.507   3.491   5.755
 5201POPC   GL266134   2.273   3.761   5.717
 5201POPC   C1A66135   2.700   3.675   6.167
 5201POPC   D2A66136   2.805   3.429   6.541
 5201POPC   C3A66137   2.785   3.605   6.926
 5201POPC   C4A66138   2.955   3.654   7.319
 5201POPC   C1B66139   2.203   3.684   6.171
 5201POPC   C2B66140   2.383   3.741   6.593
 5201POPC   C3B66141   2.257   3.712   7.023
 5201POPC   C4B66142   2.457   3.527   7.356
 5202POPC   NC366143  43.478  10.056   5.496
 5202POPC   PO466144  44.146   9.828   5.444
 5202POPC   GL166145  44.041   9.750   5.853
 5202POPC   GL266146  43.713   9.600   5.779
 5202POPC   C1A66147  44.203   9.787   6.277
 5202POPC   D2A66148  44.262   9.647   6.697
 5202POPC   C3A66149  43.936   9.847   6.918
 5202POPC   C4A66150  43.947  10.040   7.296
 5202POPC   C1B66151  43.635   9.808   6.177
 5202POPC   C2B66152  43.580  10.101   6.525
 5202POPC   C3B66153  43.432  10.018   6.927
 5202POPC   C4B66154  43.492   9.841   7.328
 5203POPC   NC366155  34.484  22.696   5.178
 5203POPC   PO466156  34.810  22.209   5.545
 5203POPC   GL166157  34.660  22.048   5.882
 5203POPC   GL266158  34.888  21.781   5.923
 5203POPC   C1A66159  34.515  21.956   6.300
 5203POPC   D2A66160  34.206  22.186   6.537
 5203POPC   C3A66161  34.292  22.250   6.962
 5203POPC   C4A66162  34.496  22.100   7.313
 5203POPC   C1B66163  34.994  22.165   6.230
 5203POPC   C2B66164  34.812  22.243   6.624
 5203POPC   C3B66165  34.724  21.971   6.890
 5203POPC   C4B66166  34.933  21.806   7.232
 5204POPC   NC366167  23.402  27.897   5.364
 5204POPC   PO466168  24.077  27.709   5.534
 5204POPC   GL166169  23.677  27.676   5.770
 5204POPC   GL266170  23.506  27.337   5.819
 5204POPC   C1A66171  23.671  27.787   6.200
 5204POPC   D2A66172  23.887  27.896   6.569
 5204POPC   C3A66173  23.771  27.671   6.955
 5204POPC   C4A66174  23.935  27.495   7.329
 5204POPC   C1B66175  23.623  27.275   6.253
 5204POPC   C2B66176  23.773  27.245   6.678
 5204POPC   C3B66177  23.606  27.185   7.112
 5204POPC   C4B66178  23.625  27.202   7.611
 5205POPC   NC366179  30.563  11.834   5.645
 5205POPC   PO466180  30.836  12.330   5.378
 5205POPC   GL166181  30.730  12.362   5.800
 5205POPC   GL266182  30.970  12.097   5.903
 5205POPC   C1A66183  30.594  12.284   6.234
 5205POPC   D2A66184  30.395  12.269   6.662
 5205POPC   C3A66185  30.547  11.968   6.989
 5205POPC   C4A66186  30.598  12.006   7.450
 5205POPC   C1B66187  30.974  11.756   6.239
 5205POPC   C2B66188  30.938  11.737   6.711
 5205POPC   C3B66189  31.015  11.777   7.166
 5205POPC   C4B66190  31.065  11.856   7.637
 5206POPC   NC366191  20.340  36.249   5.381
 5206POPC   PO466192  20.758  35.693   5.588
 5206POPC   GL166193  20.688  35.951   5.904
 5206POPC   GL266194  20.608  36.292   5.824
 5206POPC   C1A66195  20.776  35.953   6.318
 5206POPC   D2A66196  20.660  36.226   6.641
 5206POPC   C3A66197  20.820  35.957   6.918
 5206POPC   C4A66198  20.782  36.055   7.310
 5206POPC   C1B66199  20.357  36.218   6.211
 5206POPC   C2B66200  20.303  35.890   6.535
 5206POPC   C3B66201  20.334  35.898   6.986
 5206POPC   C4B66202  20.325  36.282   7.254
 5207POPC   NC366203   7.877   2.853   5.153
 5207POPC   PO466204   8.509   2.993   5.421
 5207POPC   GL166205   8.245   2.849   5.731
 5207POPC   GL266206   8.395   3.059   5.965
 5207POPC   C1A66207   8.150   2.601   6.112
 5207POPC   D2A66208   7.910   2.512   6.514
 5207POPC   C3A66209   8.204   2.601   6.862
 5207POPC   C4A66210   8.293   2.804   7.244
 5207POPC   C1B66211   8.027   3.084   6.225
 5207POPC   C2B66212   8.017   2.998   6.633
 5207POPC   C3B66213   8.180   3.231   6.987
 5207POPC   C4B66214   8.588   3.293   7.143
 5208POPC   NC366215  38.819  33.865   5.549
 5208POPC   PO466216  38.218  34.000   5.161
 5208POPC   GL166217  38.298  33.774   5.579
 5208POPC   GL266218  38.045  33.993   5.722
 5208POPC   C1A66219  38.289  33.704   6.065
 5208POPC   D2A66220  38.284  33.584   6.509
 5208POPC   C3A66221  38.595  33.745   6.810
 5208POPC   C4A66222  38.748  33.494   7.166
 5208POPC   C1B66223  37.999  34.160   6.152
 5208POPC   C2B66224  38.172  34.087   6.541
 5208POPC   C3B66225  38.210  34.163   6.969
 5208POPC   C4B66226  38.488  33.952   7.266
 5209POPC   NC366227   0.824  22.642   5.716
 5209POPC   PO466228   0.267  23.003   5.505
 5209POPC   GL166229   0.528  23.049   5.867
 5209POPC   GL266230   0.876  23.206   5.814
 5209POPC   C1A66231   0.373  22.891   6.267
 5209POPC   D2A66232   0.353  22.667   6.670
 5209POPC   C3A66233   0.325  22.979   6.981
 5209POPC   C4A66234   0.399  23.320   7.237
 5209POPC   C1B66235   0.880  22.995   6.234
 5209POPC   C2B66236   0.741  22.998   6.615
 5209POPC   C3B66237   0.812  22.767   6.944
 5209POPC   C4B66238   0.685  22.823   7.327
 5210POPC   NC366239   4.478  20.325   5.399
 5210POPC   PO466240   3.800  20.478   5.331
 5210POPC   GL166241   4.069  20.630   5.706
 5210POPC   GL266242   4.410  20.831   5.740
 5210POPC   C1A66243   4.246  20.492   6.117
 5210POPC   D2A66244   4.101  20.612   6.536
 5210POPC   C3A66245   4.257  20.432   6.916
 5210POPC   C4A66246   4.071  20.602   7.280
 5210POPC   C1B66247   4.642  20.909   6.175
 5210POPC   C2B66248   4.605  20.904   6.664
 5210POPC   C3B66249   4.532  20.805   7.125
 5210POPC   C4B66250   4.624  20.955   7.530
 5211POPC   NC366251  16.908  24.224   5.541
 5211POPC   PO466252  16.720  23.581   5.465
 5211POPC   GL166253  16.753  23.788   5.842
 5211POPC   GL266254  16.975  23.530   5.910
 5211POPC   C1A66255  16.608  23.692   6.258
 5211POPC   D2A66256  16.447  23.652   6.685
 5211POPC   C3A66257  16.684  23.884   7.025
 5211POPC   C4A66258  17.021  24.012   7.288
 5211POPC   C1B66259  16.837  23.238   6.153
 5211POPC   C2B66260  16.922  23.358   6.548
 5211POPC   C3B66261  16.791  23.380   6.930
 5211POPC   C4B66262  16.923  23.488   7.267
 5212POPC   NC366263  35.825  23.616   5.197
 5212POPC   PO466264  36.426  23.561   5.499
 5212POPC   GL166265  36.104  23.486   5.804
 5212POPC   GL266266  35.758  23.432   5.693
 5212POPC   C1A66267  35.905  23.797   6.079
 5212POPC   D2A66268  35.849  23.969   6.481
 5212POPC   C3A66269  36.123  23.837   6.759
 5212POPC   C4A66270  36.118  23.868   7.180
 5212POPC   C1B66271  35.629  23.384   6.141
 5212POPC   C2B66272  35.800  23.444   6.550
 5212POPC   C3B66273  35.775  23.541   6.990
 5212POPC   C4B66274  36.053  23.381   7.328
 5213POPC   NC366275   7.681   3.824   5.290
 5213POPC   PO466276   7.349   3.260   5.534
 5213POPC   GL166277   7.456   3.479   5.869
 5213POPC   GL266278   7.608   3.801   5.818
 5213POPC   C1A66279   7.534   3.361   6.277
 5213POPC   D2A66280   7.411   3.583   6.657
 5213POPC   C3A66281   7.440   3.294   7.048
 5213POPC   C4A66282   7.498   3.295   7.506
 5213POPC   C1B66283   7.431   3.890   6.224
 5213POPC   C2B66284   7.365   4.149   6.585
 5213POPC   C3B66285   7.468   4.019   6.973
 5213POPC   C4B66286   7.449   3.759   7.309
 5214POPC   NC366287   2.950   8.412   5.271
 5214POPC   PO466288   2.310   8.195   5.285
 5214POPC   GL166289   2.620   8.096   5.651
 5214POPC   GL266290   2.946   7.897   5.626
 5214POPC   C1A66291   2.714   8.247   6.089
 5214POPC   D2A66292   2.682   8.495   6.453
 5214POPC   C3A66293   2.669   8.257   6.814
 5214POPC   C4A66294   2.534   8.300   7.214
 5214POPC   C1B66295   3.056   7.880   6.070
 5214POPC   C2B66296   3.136   8.138   6.461
 5214POPC   C3B66297   3.122   7.985   6.910
 5214POPC   C4B66298   2.942   8.004   7.321
 5215POPC   NC366299  26.713  42.744   5.691
 5215POPC   PO466300  26.925  42.220   5.271
 5215POPC   GL166301  26.832  42.236   5.724
 5215POPC   GL266302  26.524  42.275   5.819
 5215POPC   C1A66303  26.878  42.234   6.214
 5215POPC   D2A66304  27.066  42.502   6.566
 5215POPC   C3A66305  26.862  42.567   6.970
 5215POPC   C4A66306  26.715  42.161   7.145
 5215POPC   C1B66307  26.411  42.471   6.210
 5215POPC   C2B66308  26.510  42.360   6.622
 5215POPC   C3B66309  26.355  42.531   6.979
 5215POPC   C4B66310  26.522  42.561   7.374
 5216POPC   NC366311  23.937  32.700   5.349
 5216POPC   PO466312  23.582  33.231   5.441
 5216POPC   GL166313  23.609  33.242   5.893
 5216POPC   GL266314  23.764  32.912   5.884
 5216POPC   C1A66315  23.719  33.233   6.355
 5216POPC   D2A66316  23.776  33.195   6.823
 5216POPC   C3A66317  23.424  33.250   7.083
 5216POPC   C4A66318  23.386  33.031   7.455
 5216POPC   C1B66319  23.417  32.852   6.173
 5216POPC   C2B66320  23.436  32.867   6.632
 5216POPC   C3B66321  23.565  32.776   7.074
 5216POPC   C4B66322  23.933  32.916   7.230
 5217POPC   NC366323  39.809   8.152   5.428
 5217POPC   PO466324  40.398   8.550   5.452
 5217POPC   GL166325  40.257   8.200   5.795
 5217POPC   GL266326  39.927   8.031   5.906
 5217POPC   C1A66327  40.307   8.054   6.257
 5217POPC   D2A66328  40.346   7.956   6.724
 5217POPC   C3A66329  40.121   8.228   7.056
 5217POPC   C4A66330  39.698   8.370   7.141
 5217POPC   C1B66331  39.831   7.895   6.342
 5217POPC   C2B66332  39.758   7.989   6.769
 5217POPC   C3B66333  39.760   7.851   7.196
 5217POPC   C4B66334  39.573   7.710   7.585
 5218POPC   NC366335  26.879  17.828   5.425
 5218POPC   PO466336  26.601  17.169   5.367
 5218POPC   GL166337  26.700  17.425   5.721
 5218POPC   GL266338  27.023  17.328   5.882
 5218POPC   C1A66339  26.595  17.511   6.160
 5218POPC   D2A66340  26.626  17.287   6.550
 5218POPC   C3A66341  26.589  17.462   6.965
 5218POPC   C4A66342  26.742  17.316   7.345
 5218POPC   C1B66343  27.108  17.529   6.270
 5218POPC   C2B66344  26.947  17.686   6.640
 5218POPC   C3B66345  27.050  17.738   7.051
 5218POPC   C4B66346  27.231  17.530   7.399
 5219POPC   NC366347   0.898  18.315   5.435
 5219POPC   PO466348   1.503  18.424   5.609
 5219POPC   GL166349   1.215  18.243   5.874
 5219POPC   GL266350   0.954  17.992   5.822
 5219POPC   C1A66351   1.350  18.185   6.280
 5219POPC   D2A66352   1.128  18.061   6.592
 5219POPC   C3A66353   1.272  18.143   6.980
 5219POPC   C4A66354   1.112  18.342   7.266
 5219POPC   C1B66355   0.814  18.149   6.194
 5219POPC   C2B66356   0.589  18.005   6.538
 5219POPC   C3B66357   0.771  17.999   6.929
 5219POPC   C4B66358   0.891  17.892   7.296
 5220POPC   NC366359  28.812  26.970   5.051
 5220POPC   PO466360  29.186  26.510   5.251
 5220POPC   GL166361  29.150  26.745   5.651
 5220POPC   GL266362  29.034  26.480   5.832
 5220POPC   C1A66363  29.402  26.889   6.052
 5220POPC   D2A66364  29.436  27.174   6.435
 5220POPC   C3A66365  29.309  26.969   6.833
 5220POPC   C4A66366  28.988  26.787   7.121
 5220POPC   C1B66367  28.691  26.498   6.128
 5220POPC   C2B66368  28.643  26.280   6.503
 5220POPC   C3B66369  28.792  26.350   6.897
 5220POPC   C4B66370  28.923  26.284   7.303
 5221POPC   NC366371  41.317  10.565   5.567
 5221POPC   PO466372  41.970  10.517   5.350
 5221POPC   GL166373  41.804  10.508   5.797
 5221POPC   GL266374  41.744  10.815   5.850
 5221POPC   C1A66375  41.548  10.473   6.234
 5221POPC   D2A66376  41.625  10.282   6.653
 5221POPC   C3A66377  41.411  10.534   6.959
 5221POPC   C4A66378  41.466  10.713   7.354
 5221POPC   C1B66379  41.893  10.862   6.261
 5221POPC   C2B66380  41.708  10.803   6.628
 5221POPC   C3B66381  41.836  10.893   7.015
 5221POPC   C4B66382  41.946  10.773   7.459
 5222POPC   NC366383  36.145   4.378   5.408
 5222POPC   PO466384  36.524   4.031   5.719
 5222POPC   GL166385  36.320   4.276   5.945
 5222POPC   GL266386  36.663   4.435   6.005
 5222POPC   C1A66387  35.995   4.290   6.283
 5222POPC   D2A66388  36.036   4.571   6.659
 5222POPC   C3A66389  36.054   4.391   7.039
 5222POPC   C4A66390  35.829   4.019   7.136
 5222POPC   C1B66391  36.460   4.482   6.379
 5222POPC   C2B66392  36.508   4.388   6.763
 5222POPC   C3B66393  36.547   4.463   7.167
 5222POPC   C4B66394  36.356   4.313   7.532
 5223POPC   NC366395  16.578  38.823   5.534
 5223POPC   PO466396  16.443  38.186   5.475
 5223POPC   GL166397  16.463  38.407   5.844
 5223POPC   GL266398  16.816  38.410   5.911
 5223POPC   C1A66399  16.493  38.463   6.290
 5223POPC   D2A66400  16.708  38.283   6.629
 5223POPC   C3A66401  16.452  38.446   6.930
 5223POPC   C4A66402  16.438  38.555   7.352
 5223POPC   C1B66403  17.041  38.602   6.224
 5223POPC   C2B66404  17.212  38.491   6.598
 5223POPC   C3B66405  17.023  38.518   6.990
 5223POPC   C4B66406  17.168  38.371   7.372
 5224POPC   NC366407  40.017  25.838   5.534
 5224POPC   PO466408  39.507  26.193   5.165
 5224POPC   GL166409  39.853  26.336   5.603
 5224POPC   GL266410  40.202  26.241   5.761
 5224POPC   C1A66411  39.832  26.247   6.100
 5224POPC   D2A66412  39.790  25.894   6.399
 5224POPC   C3A66413  39.899  26.037   6.819
 5224POPC   C4A66414  39.886  26.028   7.269
 5224POPC   C1B66415  40.286  25.952   6.156
 5224POPC   C2B66416  40.270  25.751   6.594
 5224POPC   C3B66417  40.319  25.853   7.038
 5224POPC   C4B66418  40.471  25.735   7.421
 5225POPC   NC366419  13.111   7.733   5.566
 5225POPC   PO466420  12.606   7.239   5.615
 5225POPC   GL166421  12.892   7.376   5.905
 5225POPC   GL266422  12.775   7.695   6.001
 5225POPC   C1A66423  13.124   7.221   6.263
 5225POPC   D2A66424  13.218   7.331   6.703
 5225POPC   C3A66425  12.934   7.128   7.008
 5225POPC   C4A66426  12.551   7.195   7.204
 5225POPC   C1B66427  12.659   7.411   6.377
 5225POPC   C2B66428  12.517   7.506   6.792
 5225POPC   C3B66429  12.781   7.639   7.090
 5225POPC   C4B66430  13.192   7.561   7.198
 5226POPC   NC366431  15.647   9.632   5.500
 5226POPC   PO466432  16.359   9.881   5.557
 5226POPC   GL166433  16.056   9.709   5.797
 5226POPC   GL266434  15.811   9.989   5.826
 5226POPC   C1A66435  16.021   9.699   6.233
 5226POPC   D2A66436  16.244   9.900   6.575
 5226POPC   C3A66437  16.226   9.583   6.926
 5226POPC   C4A66438  16.004   9.456   7.299
 5226POPC   C1B66439  15.647  10.097   6.230
 5226POPC   C2B66440  15.747   9.906   6.639
 5226POPC   C3B66441  15.794   9.867   7.083
 5226POPC   C4B66442  15.412  10.074   7.247
 5227POPC   NC366443   4.811  35.172   5.373
 5227POPC   PO466444   5.173  35.669   5.437
 5227POPC   GL166445   4.860  35.520   5.747
 5227POPC   GL266446   5.086  35.253   5.818
 5227POPC   C1A66447   4.887  35.520   6.216
 5227POPC   D2A66448   5.062  35.316   6.579
 5227POPC   C3A66449   5.057  35.559   6.945
 5227POPC   C4A66450   5.193  35.376   7.303
 5227POPC   C1B66451   4.969  34.975   6.177
 5227POPC   C2B66452   4.820  34.859   6.593
 5227POPC   C3B66453   5.125  34.873   6.912
 5227POPC   C4B66454   5.072  34.899   7.348
 5228POPC   NC366455   3.175  19.671   5.598
 5228POPC   PO466456   2.522  19.563   5.350
 5228POPC   GL166457   2.520  19.808   5.746
 5228POPC   GL266458   2.737  19.591   5.868
 5228POPC   C1A66459   2.725  20.057   6.108
 5228POPC   D2A66460   2.623  20.073   6.542
 5228POPC   C3A66461   2.869  20.063   6.916
 5228POPC   C4A66462   2.870  19.765   7.244
 5228POPC   C1B66463   2.585  19.588   6.271
 5228POPC   C2B66464   2.756  19.598   6.677
 5228POPC   C3B66465   2.556  19.435   7.000
 5228POPC   C4B66466   2.391  19.439   7.398
 5229POPC   NC366467  43.908  19.080   5.320
 5229POPC   PO466468  43.955  19.670   5.659
 5229POPC   GL166469  44.107  19.304   5.878
 5229POPC   GL266470  44.116  18.948   5.782
 5229POPC   C1A66471  43.990  19.181   6.296
 5229POPC   D2A66472  43.767  19.071   6.682
 5229POPC   C3A66473  43.965  19.163   7.093
 5229POPC   C4A66474  44.085  19.314   7.524
 5229POPC   C1B66475  43.871  18.731   6.109
 5229POPC   C2B66476  43.874  18.579   6.525
 5229POPC   C3B66477  43.868  18.665   6.973
 5229POPC   C4B66478  43.900  18.762   7.398
 5230POPC   NC366479  25.180  15.377   5.122
 5230POPC   PO466480  24.946  14.847   5.595
 5230POPC   GL166481  25.176  15.091   5.925
 5230POPC   GL266482  25.323  15.371   5.724
 5230POPC   C1A66483  25.216  15.044   6.350
 5230POPC   D2A66484  25.093  15.316   6.699
 5230POPC   C3A66485  25.238  15.108   7.070
 5230POPC   C4A66486  25.352  15.025   7.542
 5230POPC   C1B66487  25.441  15.480   6.154
 5230POPC   C2B66488  25.433  15.704   6.543
 5230POPC   C3B66489  25.483  15.571   6.951
 5230POPC   C4B66490  25.515  15.470   7.378
 5231POPC   NC366491   5.943   2.918   5.437
 5231POPC   PO466492   5.438   2.451   5.416
 5231POPC   GL166493   5.597   2.659   5.798
 5231POPC   GL266494   5.970   2.590   5.846
 5231POPC   C1A66495   5.709   2.719   6.254
 5231POPC   D2A66496   5.884   3.024   6.526
 5231POPC   C3A66497   5.813   2.989   6.946
 5231POPC   C4A66498   5.959   3.007   7.383
 5231POPC   C1B66499   6.106   2.364   6.247
 5231POPC   C2B66500   6.223   2.448   6.713
 5231POPC   C3B66501   6.045   2.562   7.123
 5231POPC   C4B66502   5.570   2.602   7.144
 5232POPC   NC366503   3.525  23.102   5.221
 5232POPC   PO466504   2.991  22.675   5.278
 5232POPC   GL166505   3.358  22.806   5.652
 5232POPC   GL266506   3.549  23.132   5.723
 5232POPC   C1A66507   3.430  22.841   6.154
 5232POPC   D2A66508   3.237  22.802   6.614
 5232POPC   C3A66509   3.279  22.960   7.069
 5232POPC   C4A66510   3.596  22.841   7.388
 5232POPC   C1B66511   3.642  23.301   6.131
 5232POPC   C2B66512   3.641  23.120   6.542
 5232POPC   C3B66513   3.745  23.123   6.951
 5232POPC   C4B66514   3.643  23.349   7.316
 5233POPC   NC366515  26.478  26.013   5.425
 5233POPC   PO466516  25.875  26.283   5.581
 5233POPC   GL166517  25.947  25.842   5.716
 5233POPC   GL266518  25.633  25.677   5.846
 5233POPC   C1A66519  26.280  25.756   6.020
 5233POPC   D2A66520  26.390  26.084   6.323
 5233POPC   C3A66521  26.363  26.019   6.789
 5233POPC   C4A66522  26.319  26.024   7.213
 5233POPC   C1B66523  25.769  25.931   6.201
 5233POPC   C2B66524  25.935  26.233   6.511
 5233POPC   C3B66525  25.911  26.264   6.947
 5233POPC   C4B66526  25.762  26.003   7.261
 5234POPC   NC366527  18.195  44.736   5.231
 5234POPC   PO466528  18.631   0.020   5.646
 5234POPC   GL166529  18.442  44.870   5.963
 5234POPC   GL266530  18.147  44.808   5.762
 5234POPC   C1A66531  18.281  44.557   6.246
 5234POPC   D2A66532  18.058  44.561   6.651
 5234POPC   C3A66533  18.294  44.618   7.051
 5234POPC   C4A66534  18.245  44.665   7.512
 5234POPC   C1B66535  17.961   0.006   6.132
 5234POPC   C2B66536  17.754   0.084   6.531
 5234POPC   C3B66537  17.995   0.003   6.897
 5234POPC   C4B66538  17.894  44.990   7.308
 5235POPC   NC366539  38.585  15.626   5.112
 5235POPC   PO466540  38.461  16.192   5.614
 5235POPC   GL166541  38.391  15.953   5.970
 5235POPC   GL266542  38.190  15.649   5.842
 5235POPC   C1A66543  38.451  16.056   6.380
 5235POPC   D2A66544  38.264  16.103   6.778
 5235POPC   C3A66545  38.515  15.874   7.054
 5235POPC   C4A66546  38.685  16.126   7.366
 5235POPC   C1B66547  38.115  15.678   6.276
 5235POPC   C2B66548  38.330  15.619   6.612
 5235POPC   C3B66549  38.065  15.628   6.910
 5235POPC   C4B66550  38.027  15.578   7.293
 5236POPC   NC366551  11.877  34.202   5.454
 5236POPC   PO466552  11.835  33.540   5.571
 5236POPC   GL166553  12.126  33.811   5.790
 5236POPC   GL266554  12.108  33.548   6.026
 5236POPC   C1A66555  12.359  33.958   6.178
 5236POPC   D2A66556  12.225  33.781   6.564
 5236POPC   C3A66557  12.339  33.941   6.944
 5236POPC   C4A66558  12.273  33.918   7.372
 5236POPC   C1B66559  11.785  33.675   6.304
 5236POPC   C2B66560  11.762  33.532   6.748
 5236POPC   C3B66561  12.019  33.518   7.118
 5236POPC   C4B66562  11.936  33.603   7.566
 5237POPC   NC366563  22.463  41.962   5.442
 5237POPC   PO466564  22.849  41.418   5.380
 5237POPC   GL166565  22.982  41.412   5.815
 5237POPC   GL266566  23.241  41.648   5.884
 5237POPC   C1A66567  22.843  41.524   6.223
 5237POPC   D2A66568  23.047  41.553   6.608
 5237POPC   C3A66569  22.848  41.445   6.973
 5237POPC   C4A66570  22.640  41.706   7.254
 5237POPC   C1B66571  23.327  41.318   6.230
 5237POPC   C2B66572  23.262  41.110   6.663
 5237POPC   C3B66573  23.340  41.348   7.054
 5237POPC   C4B66574  23.195  41.527   7.444
 5238POPC   NC366575  13.817  40.426   5.326
 5238POPC   PO466576  13.594  41.032   5.333
 5238POPC   GL166577  13.499  40.874   5.783
 5238POPC   GL266578  13.663  40.549   5.814
 5238POPC   C1A66579  13.553  40.744   6.264
 5238POPC   D2A66580  13.564  40.422   6.608
 5238POPC   C3A66581  13.552  40.599   7.016
 5238POPC   C4A66582  13.564  40.989   7.218
 5238POPC   C1B66583  13.989  40.449   6.176
 5238POPC   C2B66584  14.067  40.602   6.613
 5238POPC   C3B66585  14.044  40.726   7.065
 5238POPC   C4B66586  14.030  40.616   7.506
 5239POPC   NC366587  11.265   3.256   5.406
 5239POPC   PO466588  11.662   3.727   5.394
 5239POPC   GL166589  11.354   3.824   5.739
 5239POPC   GL266590  11.026   3.666   5.689
 5239POPC   C1A66591  11.330   3.641   6.170
 5239POPC   D2A66592  11.488   3.384   6.549
 5239POPC   C3A66593  11.567   3.575   6.955
 5239POPC   C4A66594  11.263   3.676   7.237
 5239POPC   C1B66595  10.923   3.352   6.038
 5239POPC   C2B66596  10.973   3.457   6.496
 5239POPC   C3B66597  11.076   3.328   6.901
 5239POPC   C4B66598  10.859   3.360   7.281
 5240POPC   NC366599  20.720  22.988   5.018
 5240POPC   PO466600  20.278  22.767   5.463
 5240POPC   GL166601  20.309  22.878   5.871
 5240POPC   GL266602  20.596  23.090   5.820
 5240POPC   C1A66603  20.597  22.742   6.200
 5240POPC   D2A66604  20.751  22.945   6.542
 5240POPC   C3A66605  20.539  22.801   6.895
 5240POPC   C4A66606  20.588  22.857   7.343
 5240POPC   C1B66607  20.488  23.268   6.228
 5240POPC   C2B66608  20.316  23.225   6.657
 5240POPC   C3B66609  20.453  23.289   7.070
 5240POPC   C4B66610  20.519  23.359   7.513
 5241POPC   NC366611  17.657  16.297   5.527
 5241POPC   PO466612  17.376  16.884   5.405
 5241POPC   GL166613  17.381  16.659   5.784
 5241POPC   GL266614  17.736  16.698   5.847
 5241POPC   C1A66615  17.411  16.659   6.253
 5241POPC   D2A66616  17.250  16.829   6.656
 5241POPC   C3A66617  17.577  16.839   6.949
 5241POPC   C4A66618  17.400  16.499   7.156
 5241POPC   C1B66619  17.899  16.425   6.169
 5241POPC   C2B66620  17.893  16.556   6.608
 5241POPC   C3B66621  17.880  16.378   7.028
 5241POPC   C4B66622  17.736  16.366   7.499
 5242POPC   NC366623  13.417  42.342   5.377
 5242POPC   PO466624  13.933  41.970   5.254
 5242POPC   GL166625  13.791  42.256   5.729
 5242POPC   GL266626  13.396  42.247   5.870
 5242POPC   C1A66627  13.685  42.579   6.095
 5242POPC   D2A66628  13.769  42.686   6.551
 5242POPC   C3A66629  13.575  42.531   6.947
 5242POPC   C4A66630  13.761  42.238   7.256
 5242POPC   C1B66631  13.496  42.091   6.261
 5242POPC   C2B66632  13.345  42.094   6.680
 5242POPC   C3B66633  13.453  41.881   7.057
 5242POPC   C4B66634  13.404  41.974   7.496
 5243POPC   NC366635  32.726  28.095   5.601
 5243POPC   PO466636  33.246  27.668   5.434
 5243POPC   GL166637  33.179  27.563   5.848
 5243POPC   GL266638  32.840  27.627   5.847
 5243POPC   C1A66639  33.262  27.557   6.295
 5243POPC   D2A66640  32.990  27.544   6.656
 5243POPC   C3A66641  33.127  27.731   7.061
 5243POPC   C4A66642  33.339  27.627   7.446
 5243POPC   C1B66643  32.874  27.263   6.156
 5243POPC   C2B66644  32.580  27.150   6.464
 5243POPC   C3B66645  32.698  27.198   6.896
 5243POPC   C4B66646  32.792  27.415   7.265
 5244POPC   NC366647  41.072  37.316   5.121
 5244POPC   PO466648  40.852  36.797   5.554
 5244POPC   GL166649  41.056  36.805   5.922
 5244POPC   GL266650  40.882  37.095   6.046
 5244POPC   C1A66651  41.028  36.678   6.350
 5244POPC   D2A66652  40.732  36.591   6.664
 5244POPC   C3A66653  40.857  36.734   7.066
 5244POPC   C4A66654  41.191  36.546   7.241
 5244POPC   C1B66655  40.878  37.225   6.453
 5244POPC   C2B66656  40.637  37.106   6.786
 5244POPC   C3B66657  40.411  37.104   7.182
 5244POPC   C4B66658  40.542  37.056   7.616
 5245POPC   NC366659  36.467  27.859   5.191
 5245POPC   PO466660  35.927  27.462   5.394
 5245POPC   GL166661  36.029  27.484   5.819
 5245POPC   GL266662  35.987  27.840   5.919
 5245POPC   C1A66663  36.161  27.402   6.239
 5245POPC   D2A66664  36.032  27.655   6.604
 5245POPC   C3A66665  36.178  27.400   6.955
 5245POPC   C4A66666  36.326  27.277   7.323
 5245POPC   C1B66667  36.402  27.862   6.142
 5245POPC   C2B66668  36.488  27.998   6.563
 5245POPC   C3B66669  36.324  27.915   6.962
 5245POPC   C4B66670  36.436  27.777   7.359
 5246POPC   NC366671  16.002  29.452   5.323
 5246POPC   PO466672  16.001  28.781   5.315
 5246POPC   GL166673  16.046  29.079   5.706
 5246POPC   GL266674  16.378  28.938   5.842
 5246POPC   C1A66675  16.018  29.228   6.171
 5246POPC   D2A66676  15.912  29.204   6.655
 5246POPC   C3A66677  15.802  29.433   7.054
 5246POPC   C4A66678  15.828  29.301   7.483
 5246POPC   C1B66679  16.248  28.760   6.257
 5246POPC   C2B66680  16.314  28.890   6.698
 5246POPC   C3B66681  16.190  29.103   7.116
 5246POPC   C4B66682  16.292  29.085   7.590
 5247POPC   NC366683   1.194  33.920   5.312
 5247POPC   PO466684   1.716  33.724   5.645
 5247POPC   GL166685   1.386  33.708   5.882
 5247POPC   GL266686   1.275  34.024   5.798
 5247POPC   C1A66687   1.158  33.612   6.257
 5247POPC   D2A66688   1.404  33.724   6.599
 5247POPC   C3A66689   1.311  33.917   6.976
 5247POPC   C4A66690   1.485  34.008   7.349
 5247POPC   C1B66691   1.240  34.107   6.221
 5247POPC   C2B66692   0.992  34.023   6.584
 5247POPC   C3B66693   0.814  34.041   7.001
 5247POPC   C4B66694   0.993  34.167   7.407
 5248POPC   NC366695  33.552  27.160   5.445
 5248POPC   PO466696  32.952  26.807   5.393
 5248POPC   GL166697  33.183  26.726   5.756
 5248POPC   GL266698  33.239  27.060   5.830
 5248POPC   C1A66699  33.073  26.771   6.202
 5248POPC   D2A66700  33.063  27.005   6.569
 5248POPC   C3A66701  33.040  26.774   6.940
 5248POPC   C4A66702  33.129  26.741   7.369
 5248POPC   C1B66703  33.481  27.084   6.217
 5248POPC   C2B66704  33.492  27.258   6.651
 5248POPC   C3B66705  33.253  27.243   7.018
 5248POPC   C4B66706  33.503  27.092   7.314
 5249POPC   NC366707  29.508  44.206   5.600
 5249POPC   PO466708  29.890  43.761   5.248
 5249POPC   GL166709  29.918  43.931   5.699
 5249POPC   GL266710  29.923  44.318   5.845
 5249POPC   C1A66711  29.941  43.774   6.144
 5249POPC   D2A66712  29.778  43.567   6.529
 5249POPC   C3A66713  29.981  43.639   6.956
 5249POPC   C4A66714  29.902  43.824   7.386
 5249POPC   C1B66715  30.133  44.227   6.217
 5249POPC   C2B66716  30.132  44.050   6.651
 5249POPC   C3B66717  29.805  44.115   6.978
 5249POPC   C4B66718  29.427  44.116   7.202
 5250POPC   NC366719  40.455  38.911   5.330
 5250POPC   PO466720  41.094  39.178   5.518
 5250POPC   GL166721  40.693  39.258   5.690
 5250POPC   GL266722  40.674  38.898   5.786
 5250POPC   C1A66723  40.480  39.394   6.082
 5250POPC   D2A66724  40.631  39.426   6.495
 5250POPC   C3A66725  40.469  39.481   6.912
 5250POPC   C4A66726  40.730  39.619   7.245
 5250POPC   C1B66727  40.880  39.078   6.142
 5250POPC   C2B66728  41.060  39.158   6.529
 5250POPC   C3B66729  40.843  39.146   6.886
 5250POPC   C4B66730  40.973  39.100   7.273
 5251POPC   NC366731  33.685  27.845   5.464
 5251POPC   PO466732  33.991  27.169   5.613
 5251POPC   GL166733  33.685  27.422   5.874
 5251POPC   GL266734  33.637  27.801   5.948
 5251POPC   C1A66735  33.769  27.500   6.307
 5251POPC   D2A66736  33.955  27.734   6.591
 5251POPC   C3A66737  33.860  27.499   6.927
 5251POPC   C4A66738  33.805  27.497   7.345
 5251POPC   C1B66739  33.534  28.003   6.324
 5251POPC   C2B66740  33.502  27.869   6.748
 5251POPC   C3B66741  33.716  27.942   7.126
 5251POPC   C4B66742  33.732  27.985   7.586
 5252POPC   NC366743  22.479  40.150   5.347
 5252POPC   PO466744  22.001  39.616   5.370
 5252POPC   GL166745  21.945  39.867   5.765
 5252POPC   GL266746  22.304  39.929   5.840
 5252POPC   C1A66747  21.923  39.966   6.236
 5252POPC   D2A66748  22.053  40.217   6.604
 5252POPC   C3A66749  21.992  40.071   7.043
 5252POPC   C4A66750  21.880  39.983   7.463
 5252POPC   C1B66751  22.325  40.283   6.148
 5252POPC   C2B66752  22.540  40.380   6.569
 5252POPC   C3B66753  22.488  40.232   7.001
 5252POPC   C4B66754  22.344  40.212   7.445
 5253POPC   NC366755  24.552  40.507   5.449
 5253POPC   PO466756  24.709  41.199   5.542
 5253POPC   GL166757  24.323  40.997   5.775
 5253POPC   GL266758  24.341  40.633   5.905
 5253POPC   C1A66759  24.275  41.023   6.238
 5253POPC   D2A66760  24.607  40.923   6.530
 5253POPC   C3A66761  24.531  40.759   6.932
 5253POPC   C4A66762  24.632  41.026   7.272
 5253POPC   C1B66763  24.703  40.475   6.154
 5253POPC   C2B66764  24.889  40.492   6.567
 5253POPC   C3B66765  24.912  40.405   7.005
 5253POPC   C4B66766  24.704  40.512   7.395
 5254POPC   NC366767  40.788   6.176   5.460
 5254POPC   PO466768  40.935   5.507   5.483
 5254POPC   GL166769  40.951   5.765   5.835
 5254POPC   GL266770  40.679   5.931   5.881
 5254POPC   C1A66771  41.017   6.046   6.214
 5254POPC   D2A66772  40.868   5.848   6.586
 5254POPC   C3A66773  40.801   5.985   6.993
 5254POPC   C4A66774  40.828   5.798   7.413
 5254POPC   C1B66775  40.466   5.928   6.267
 5254POPC   C2B66776  40.321   6.063   6.631
 5254POPC   C3B66777  40.308   5.855   6.973
 5254POPC   C4B66778  40.397   6.045   7.310
 5255POPC   NC366779  11.801  13.360   5.633
 5255POPC   PO466780  11.329  13.002   5.335
 5255POPC   GL166781  11.291  12.918   5.761
 5255POPC   GL266782  11.120  13.203   5.913
 5255POPC   C1A66783  11.296  12.751   6.194
 5255POPC   D2A66784  11.205  12.977   6.591
 5255POPC   C3A66785  11.183  12.691   6.954
 5255POPC   C4A66786  11.235  12.672   7.394
 5255POPC   C1B66787  11.478  13.236   6.189
 5255POPC   C2B66788  11.686  13.191   6.583
 5255POPC   C3B66789  11.556  13.045   6.967
 5255POPC   C4B66790  11.656  13.032   7.378
 5256POPC   NC366791   7.841  24.659   5.511
 5256POPC   PO466792   8.448  24.632   5.309
 5256POPC   GL166793   8.490  24.612   5.753
 5256POPC   GL266794   8.182  24.700   5.907
 5256POPC   C1A66795   8.464  24.274   6.103
 5256POPC   D2A66796   8.498  24.093   6.550
 5256POPC   C3A66797   8.328  24.343   6.901
 5256POPC   C4A66798   8.019  24.244   7.211
 5256POPC   C1B66799   8.249  24.679   6.348
 5256POPC   C2B66800   7.936  24.605   6.653
 5256POPC   C3B66801   7.957  24.712   7.064
 5256POPC   C4B66802   8.325  24.682   7.336
 5257POPC   NC366803  21.496  28.113   5.356
 5257POPC   PO466804  20.899  28.471   5.550
 5257POPC   GL166805  21.224  28.268   5.807
 5257POPC   GL266806  21.375  27.926   5.803
 5257POPC   C1A66807  21.312  28.399   6.223
 5257POPC   D2A66808  21.345  28.595   6.623
 5257POPC   C3A66809  21.280  28.405   7.022
 5257POPC   C4A66810  21.576  28.316   7.368
 5257POPC   C1B66811  21.527  27.937   6.208
 5257POPC   C2B66812  21.420  28.062   6.622
 5257POPC   C3B66813  21.524  27.948   6.997
 5257POPC   C4B66814  21.216  27.964   7.309
 5258POPC   NC366815  40.140  34.670   5.425
 5258POPC   PO466816  39.490  34.852   5.554
 5258POPC   GL166817  39.851  34.723   5.859
 5258POPC   GL266818  40.200  34.929   5.848
 5258POPC   C1A66819  39.932  34.450   6.246
 5258POPC   D2A66820  40.214  34.219   6.571
 5258POPC   C3A66821  40.264  34.397   6.993
 5258POPC   C4A66822  39.847  34.446   7.216
 5258POPC   C1B66823  40.235  34.907   6.279
 5258POPC   C2B66824  40.055  34.734   6.661
 5258POPC   C3B66825  40.076  34.879   7.087
 5258POPC   C4B66826  40.326  34.903   7.450
 5259POPC   NC366827  29.677  30.224   5.383
 5259POPC   PO466828  30.239  29.829   5.429
 5259POPC   GL166829  30.013  29.962   5.757
 5259POPC   GL266830  29.733  29.815   5.753
 5259POPC   C1A66831  30.071  29.837   6.193
 5259POPC   D2A66832  30.143  30.125   6.496
 5259POPC   C3A66833  30.015  30.007   6.885
 5259POPC   C4A66834  29.869  29.980   7.295
 5259POPC   C1B66835  29.658  30.115   6.105
 5259POPC   C2B66836  29.630  29.967   6.527
 5259POPC   C3B66837  29.486  30.003   6.952
 5259POPC   C4B66838  29.404  29.766   7.360
 5260POPC   NC366839  32.633   3.300   5.442
 5260POPC   PO466840  33.095   3.825   5.349
 5260POPC   GL166841  32.988   3.732   5.759
 5260POPC   GL266842  33.121   3.388   5.719
 5260POPC   C1A66843  33.126   3.799   6.209
 5260POPC   D2A66844  33.355   3.873   6.612
 5260POPC   C3A66845  33.197   3.653   6.976
 5260POPC   C4A66846  32.792   3.719   7.173
 5260POPC   C1B66847  32.889   3.342   6.102
 5260POPC   C2B66848  32.778   3.344   6.540
 5260POPC   C3B66849  32.859   3.181   6.947
 5260POPC   C4B66850  33.021   3.292   7.342
 5261POPC   NC366851  43.322  43.264   5.130
 5261POPC   PO466852  42.907  42.863   5.458
 5261POPC   GL166853  43.067  43.111   5.803
 5261POPC   GL266854  43.404  43.258   5.710
 5261POPC   C1A66855  42.949  43.156   6.243
 5261POPC   D2A66856  43.161  43.060   6.659
 5261POPC   C3A66857  42.971  43.132   7.077
 5261POPC   C4A66858  42.917  43.099   7.517
 5261POPC   C1B66859  43.470  43.205   6.194
 5261POPC   C2B66860  43.660  43.208   6.625
 5261POPC   C3B66861  43.504  43.142   7.061
 5261POPC   C4B66862  43.327  43.376   7.408
 5262POPC   NC366863  41.608  14.285   5.112
 5262POPC   PO466864  41.234  14.749   5.446
 5262POPC   GL166865  41.529  14.392   5.634
 5262POPC   GL266866  41.407  14.122   5.885
 5262POPC   C1A66867  41.817  14.394   6.019
 5262POPC   D2A66868  41.667  14.281   6.448
 5262POPC   C3A66869  41.749  14.425   6.889
 5262POPC   C4A66870  42.045  14.329   7.236
 5262POPC   C1B66871  41.356  14.572   6.097
 5262POPC   C2B66872  41.276  14.610   6.551
 5262POPC   C3B66873  41.356  14.747   6.966
 5262POPC   C4B66874  41.284  14.595   7.414
 5263POPC   NC366875   3.299   6.498   5.481
 5263POPC   PO466876   2.685   6.472   5.388
 5263POPC   GL166877   2.885   6.481   5.782
 5263POPC   GL266878   2.706   6.215   5.845
 5263POPC   C1A66879   2.929   6.736   6.186
 5263POPC   D2A66880   2.985   6.977   6.544
 5263POPC   C3A66881   2.700   6.854   6.871
 5263POPC   C4A66882   2.789   6.765   7.283
 5263POPC   C1B66883   2.926   6.235   6.218
 5263POPC   C2B66884   2.746   6.420   6.568
 5263POPC   C3B66885   2.814   6.341   6.972
 5263POPC   C4B66886   2.896   6.174   7.332
 5264POPC   NC366887  10.290  20.702   5.328
 5264POPC   PO466888  10.841  20.721   5.665
 5264POPC   GL166889  10.523  20.560   5.887
 5264POPC   GL266890  10.725  20.243   5.979
 5264POPC   C1A66891  10.346  20.767   6.266
 5264POPC   D2A66892  10.273  20.597   6.685
 5264POPC   C3A66893  10.445  20.687   7.105
 5264POPC   C4A66894  10.307  20.954   7.427
 5264POPC   C1B66895  10.848  20.576   6.284
 5264POPC   C2B66896  10.792  20.740   6.695
 5264POPC   C3B66897  10.917  20.486   7.051
 5264POPC   C4B66898  10.980  20.545   7.472
 5265POPC   NC366899  14.928  42.065   5.739
 5265POPC   PO466900  15.161  42.686   5.567
 5265POPC   GL166901  15.312  42.385   5.887
 5265POPC   GL266902  14.997  42.478   6.023
 5265POPC   C1A66903  15.240  42.139   6.319
 5265POPC   D2A66904  14.966  41.942   6.635
 5265POPC   C3A66905  15.015  42.188   7.011
 5265POPC   C4A66906  15.425  42.189   7.199
 5265POPC   C1B66907  15.266  42.661   6.318
 5265POPC   C2B66908  15.334  42.547   6.749
 5265POPC   C3B66909  15.127  42.673   7.126
 5265POPC   C4B66910  15.117  42.532   7.543
 5266POPC   NC366911  43.482   0.171   5.268
 5266POPC   PO466912  42.835   0.389   5.370
 5266POPC   GL166913  42.939   0.420   5.799
 5266POPC   GL266914  43.239   0.214   5.805
 5266POPC   C1A66915  43.004   0.725   6.151
 5266POPC   D2A66916  43.142   0.881   6.563
 5266POPC   C3A66917  42.848   0.783   6.899
 5266POPC   C4A66918  42.935   0.516   7.238
 5266POPC   C1B66919  43.068   0.206   6.257
 5266POPC   C2B66920  43.057   0.344   6.704
 5266POPC   C3B66921  43.370   0.354   7.015
 5266POPC   C4B66922  43.599   0.107   7.271
 5267POPC   NC366923   0.725   6.295   5.466
 5267POPC   PO466924   0.508   6.967   5.404
 5267POPC   GL166925   0.236   6.772   5.778
 5267POPC   GL266926   0.354   6.410   5.854
 5267POPC   C1A66927   0.068   6.755   6.244
 5267POPC   D2A66928   0.140   6.586   6.704
 5267POPC   C3A66929   0.260   6.883   7.052
 5267POPC   C4A66930   0.638   7.150   7.076
 5267POPC   C1B66931   0.523   6.470   6.283
 5267POPC   C2B66932   0.746   6.704   6.626
 5267POPC   C3B66933   0.718   6.609   7.059
 5267POPC   C4B66934   0.391   6.319   7.152
 5268POPC   NC366935  44.476   9.517   5.355
 5268POPC   PO466936  44.627  10.130   5.144
 5268POPC   GL166937  44.642   9.924   5.620
 5268POPC   GL266938  44.746   9.587   5.805
 5268POPC   C1A66939  44.789   9.996   6.085
 5268POPC   D2A66940  44.708   9.795   6.467
 5268POPC   C3A66941  44.688   9.894   6.892
 5268POPC   C4A66942  44.379   9.784   7.190
 5268POPC   C1B66943   0.063   9.546   6.194
 5268POPC   C2B66944   0.267   9.477   6.607
 5268POPC   C3B66945   0.186   9.537   7.028
 5268POPC   C4B66946  44.809   9.515   7.238
 5269POPC   NC366947  37.264  44.473   5.577
 5269POPC   PO466948  36.540  44.681   5.588
 5269POPC   GL166949  36.852  44.669   5.873
 5269POPC   GL266950  36.652  44.467   6.109
 5269POPC   C1A66951  37.136  44.625   6.233
 5269POPC   D2A66952  37.277  44.764   6.653
 5269POPC   C3A66953  36.969  44.746   6.988
 5269POPC   C4A66954  37.016  44.884   7.420
 5269POPC   C1B66955  36.701  44.899   6.314
 5269POPC   C2B66956  36.648   0.104   6.736
 5269POPC   C3B66957  36.583   0.011   7.197
 5269POPC   C4B66958  36.581  44.619   7.505
 5270POPC   NC366959  23.208  40.294   5.505
 5270POPC   PO466960  22.775  39.756   5.400
 5270POPC   GL166961  22.811  40.041   5.750
 5270POPC   GL266962  23.104  39.947   5.871
 5270POPC   C1A66963  22.713  39.989   6.217
 5270POPC   D2A66964  22.580  39.825   6.631
 5270POPC   C3A66965  22.858  39.859   6.994
 5270POPC   C4A66966  22.814  40.007   7.390
 5270POPC   C1B66967  23.198  40.162   6.205
 5270POPC   C2B66968  23.039  40.134   6.597
 5270POPC   C3B66969  23.300  40.242   6.910
 5270POPC   C4B66970  23.139  40.364   7.270
 5271POPC   NC366971  27.127  21.551   5.406
 5271POPC   PO466972  26.949  20.867   5.389
 5271POPC   GL166973  26.895  21.192   5.755
 5271POPC   GL266974  26.700  21.520   5.749
 5271POPC   C1A66975  26.640  21.240   6.159
 5271POPC   D2A66976  26.737  21.463   6.531
 5271POPC   C3A66977  26.623  21.324   6.930
 5271POPC   C4A66978  26.901  21.326   7.243
 5271POPC   C1B66979  26.556  21.760   6.146
 5271POPC   C2B66980  26.555  21.941   6.595
 5271POPC   C3B66981  26.854  21.785   6.929
 5271POPC   C4B66982  26.996  21.812   7.342
 5272POPC   NC366983  21.755  41.652   5.452
 5272POPC   PO466984  22.262  41.279   5.416
 5272POPC   GL166985  22.369  41.523   5.796
 5272POPC   GL266986  22.125  41.781   5.793
 5272POPC   C1A66987  22.354  41.694   6.243
 5272POPC   D2A66988  22.508  41.639   6.653
 5272POPC   C3A66989  22.208  41.712   6.971
 5272POPC   C4A66990  21.918  41.441   7.205
 5272POPC   C1B66991  21.855  41.788   6.149
 5272POPC   C2B66992  21.916  41.966   6.568
 5272POPC   C3B66993  21.729  41.882   6.986
 5272POPC   C4B66994  21.948  41.908   7.384
 5273POPC   NC366995   6.576  28.840   5.361
 5273POPC   PO466996   6.734  29.516   5.432
 5273POPC   GL166997   6.846  29.365   5.828
 5273POPC   GL266998   6.842  28.997   5.830
 5273POPC   C1A66999   6.690  29.285   6.254
 5273POPC   D2A67000   6.428  29.282   6.598
 5273POPC   C3A67001   6.600  29.293   7.000
 5273POPC   C4A67002   6.365  29.000   7.279
 5273POPC   C1B67003   6.865  28.791   6.257
 5273POPC   C2B67004   6.836  28.934   6.693
 5273POPC   C3B67005   6.831  28.868   7.177
 5273POPC   C4B67006   6.644  28.771   7.628
 5274POPC   NC367007  33.392  15.098   5.437
 5274POPC   PO467008  32.833  15.540   5.524
 5274POPC   GL167009  33.126  15.390   5.838
 5274POPC   GL267010  33.214  15.009   5.917
 5274POPC   C1A67011  32.900  15.279   6.203
 5274POPC   D2A67012  33.002  15.070   6.597
 5274POPC   C3A67013  32.958  15.318   6.972
 5274POPC   C4A67014  32.958  15.109   7.369
 5274POPC   C1B67015  33.413  15.261   6.291
 5274POPC   C2B67016  33.458  15.328   6.745
 5274POPC   C3B67017  33.364  15.007   6.996
 5274POPC   C4B67018  33.257  14.648   7.144
 5275POPC   NC367019   4.423  16.224   5.538
 5275POPC   PO467020   3.950  15.830   5.459
 5275POPC   GL167021   3.993  15.828   5.873
 5275POPC   GL267022   4.373  15.888   5.944
 5275POPC   C1A67023   3.984  15.786   6.296
 5275POPC   D2A67024   4.309  15.921   6.508
 5275POPC   C3A67025   4.212  15.946   6.914
 5275POPC   C4A67026   4.429  16.019   7.266
 5275POPC   C1B67027   4.148  16.258   6.136
 5275POPC   C2B67028   4.081  16.405   6.552
 5275POPC   C3B67029   4.284  16.453   6.950
 5275POPC   C4B67030   4.229  16.468   7.403
 5276POPC   NC367031  21.198  44.932   5.405
 5276POPC   PO467032  21.665  44.531   5.540
 5276POPC   GL167033  21.267  44.522   5.713
 5276POPC   GL267034  21.132  44.209   5.578
 5276POPC   C1A67035  21.331  44.620   6.154
 5276POPC   D2A67036  21.548  44.921   6.436
 5276POPC   C3A67037  21.458  44.838   6.855
 5276POPC   C4A67038  21.228  44.680   7.180
 5276POPC   C1B67039  21.041  44.183   6.051
 5276POPC   C2B67040  21.252  44.214   6.484
 5276POPC   C3B67041  21.088  44.240   6.919
 5276POPC   C4B67042  21.208  44.218   7.378
 5277POPC   NC367043  29.741  19.478   5.312
 5277POPC   PO467044  30.235  19.812   5.438
 5277POPC   GL167045  29.968  19.823   5.832
 5277POPC   GL267046  29.681  19.571   5.809
 5277POPC   C1A67047  30.068  19.984   6.269
 5277POPC   D2A67048  30.329  19.841   6.615
 5277POPC   C3A67049  30.067  19.865   6.980
 5277POPC   C4A67050  30.196  19.806   7.379
 5277POPC   C1B67051  29.667  19.637   6.246
 5277POPC   C2B67052  29.492  19.670   6.668
 5277POPC   C3B67053  29.594  19.661   7.110
 5277POPC   C4B67054  29.720  19.790   7.527
 5278POPC   NC367055  17.148  39.073   5.348
 5278POPC   PO467056  17.763  39.039   5.321
 5278POPC   GL167057  17.693  39.057   5.773
 5278POPC   GL267058  17.385  39.253   5.767
 5278POPC   C1A67059  17.656  39.277   6.199
 5278POPC   D2A67060  17.707  39.499   6.595
 5278POPC   C3A67061  17.619  39.237   6.935
 5278POPC   C4A67062  17.788  39.030   7.299
 5278POPC   C1B67063  17.162  39.119   6.120
 5278POPC   C2B67064  17.219  39.013   6.538
 5278POPC   C3B67065  17.077  39.042   6.950
 5278POPC   C4B67066  17.274  39.153   7.295
 5279POPC   NC367067   5.023  17.949   5.379
 5279POPC   PO467068   5.548  18.340   5.468
 5279POPC   GL167069   5.292  18.213   5.791
 5279POPC   GL267070   4.994  18.398   5.679
 5279POPC   C1A67071   5.418  18.306   6.222
 5279POPC   D2A67072   5.322  18.603   6.563
 5279POPC   C3A67073   5.450  18.442   6.959
 5279POPC   C4A67074   5.248  18.356   7.350
 5279POPC   C1B67075   4.930  18.486   6.141
 5279POPC   C2B67076   4.792  18.476   6.599
 5279POPC   C3B67077   4.803  18.433   7.069
 5279POPC   C4B67078   4.531  18.680   7.367
 5280POPC   NC367079  40.734  28.595   5.462
 5280POPC   PO467080  40.473  27.930   5.355
 5280POPC   GL167081  40.589  28.203   5.748
 5280POPC   GL267082  40.927  28.132   5.906
 5280POPC   C1A67083  40.641  28.476   6.155
 5280POPC   D2A67084  40.861  28.370   6.553
 5280POPC   C3A67085  40.636  28.373   6.910
 5280POPC   C4A67086  40.444  28.656   7.176
 5280POPC   C1B67087  41.183  28.450   6.161
 5280POPC   C2B67088  41.336  28.608   6.552
 5280POPC   C3B67089  41.220  28.520   6.961
 5280POPC   C4B67090  40.937  28.535   7.283
 5281POPC   NC367091  42.902  29.343   5.480
 5281POPC   PO467092  43.262  28.759   5.637
 5281POPC   GL167093  43.055  29.062   5.879
 5281POPC   GL267094  43.267  29.368   5.858
 5281POPC   C1A67095  43.048  29.195   6.303
 5281POPC   D2A67096  43.204  29.033   6.646
 5281POPC   C3A67097  42.995  29.096   7.001
 5281POPC   C4A67098  43.331  28.962   7.227
 5281POPC   C1B67099  43.322  29.625   6.219
 5281POPC   C2B67100  43.249  29.560   6.644
 5281POPC   C3B67101  43.348  29.460   7.038
 5281POPC   C4B67102  43.541  29.397   7.405
 5282POPC   NC367103   6.815   5.357   5.541
 5282POPC   PO467104   6.553   4.756   5.319
 5282POPC   GL167105   6.611   4.908   5.735
 5282POPC   GL267106   6.261   4.958   5.756
 5282POPC   C1A67107   6.671   5.110   6.162
 5282POPC   D2A67108   6.727   5.470   6.451
 5282POPC   C3A67109   6.751   5.367   6.895
 5282POPC   C4A67110   6.982   5.432   7.287
 5282POPC   C1B67111   6.184   4.894   6.201
 5282POPC   C2B67112   6.322   5.079   6.589
 5282POPC   C3B67113   6.228   5.164   7.020
 5282POPC   C4B67114   6.507   5.171   7.334
 5283POPC   NC367115  14.031  15.960   5.442
 5283POPC   PO467116  13.351  15.851   5.371
 5283POPC   GL167117  13.473  15.901   5.847
 5283POPC   GL267118  13.843  16.007   5.917
 5283POPC   C1A67119  13.508  16.030   6.312
 5283POPC   D2A67120  13.490  15.841   6.732
 5283POPC   C3A67121  13.485  16.104   7.101
 5283POPC   C4A67122  13.300  16.013   7.510
 5283POPC   C1B67123  14.099  16.172   6.257
 5283POPC   C2B67124  13.953  16.303   6.685
 5283POPC   C3B67125  13.993  16.290   7.145
 5283POPC   C4B67126  13.793  16.142   7.536
 5284POPC   NC367127  24.046  13.943   5.521
 5284POPC   PO467128  23.988  14.588   5.480
 5284POPC   GL167129  23.714  14.361   5.776
 5284POPC   GL267130  23.408  14.120   5.742
 5284POPC   C1A67131  23.775  14.288   6.198
 5284POPC   D2A67132  23.907  14.466   6.589
 5284POPC   C3A67133  23.682  14.407   6.973
 5284POPC   C4A67134  23.894  14.259   7.337
 5284POPC   C1B67135  23.315  14.085   6.201
 5284POPC   C2B67136  23.556  14.003   6.625
 5284POPC   C3B67137  23.576  13.912   7.085
 5284POPC   C4B67138  23.387  14.197   7.385
 5285POPC   NC367139  35.684  10.822   5.441
 5285POPC   PO467140  35.199  10.382   5.508
 5285POPC   GL167141  35.445  10.551   5.847
 5285POPC   GL267142  35.219  10.791   5.909
 5285POPC   C1A67143  35.300  10.465   6.306
 5285POPC   D2A67144  35.079  10.409   6.707
 5285POPC   C3A67145  35.230  10.199   7.118
 5285POPC   C4A67146  35.534  10.382   7.428
 5285POPC   C1B67147  35.536  10.907   6.257
 5285POPC   C2B67148  35.506  10.752   6.695
 5285POPC   C3B67149  35.276  10.688   7.080
 5285POPC   C4B67150  35.362  10.855   7.457
 5286POPC   NC367151  26.393  11.185   5.310
 5286POPC   PO467152  25.710  10.952   5.264
 5286POPC   GL167153  25.830  11.222   5.664
 5286POPC   GL267154  26.117  11.206   5.823
 5286POPC   C1A67155  25.871  11.593   6.007
 5286POPC   D2A67156  26.099  11.584   6.432
 5286POPC   C3A67157  25.859  11.586   6.801
 5286POPC   C4A67158  25.987  11.395   7.180
 5286POPC   C1B67159  25.932  11.145   6.238
 5286POPC   C2B67160  25.895  11.090   6.670
 5286POPC   C3B67161  25.947  10.873   6.995
 5286POPC   C4B67162  26.207  10.930   7.273
 5287POPC   NC367163   2.928  42.841   5.374
 5287POPC   PO467164   2.448  42.374   5.408
 5287POPC   GL167165   2.644  42.281   5.771
 5287POPC   GL267166   2.394  42.083   5.857
 5287POPC   C1A67167   2.747  42.368   6.226
 5287POPC   D2A67168   2.547  42.480   6.647
 5287POPC   C3A67169   2.821  42.525   7.025
 5287POPC   C4A67170   3.133  42.281   7.288
 5287POPC   C1B67171   2.414  41.842   6.207
 5287POPC   C2B67172   2.661  41.951   6.542
 5287POPC   C3B67173   2.611  42.046   6.964
 5287POPC   C4B67174   2.650  42.202   7.376
 5288POPC   NC367175  38.650  44.233   5.510
 5288POPC   PO467176  38.620  44.973   5.409
 5288POPC   GL167177  38.506  44.806   5.816
 5288POPC   GL267178  38.264  44.520   5.778
 5288POPC   C1A67179  38.539  44.720   6.269
 5288POPC   D2A67180  38.857  44.582   6.549
 5288POPC   C3A67181  38.683  44.562   6.936
 5288POPC   C4A67182  38.511  44.782   7.268
 5288POPC   C1B67183  38.129  44.394   6.207
 5288POPC   C2B67184  38.272  44.361   6.682
 5288POPC   C3B67185  38.179  44.433   7.131
 5288POPC   C4B67186  38.256  44.476   7.596
 5289POPC   NC367187  16.342  41.166   5.378
 5289POPC   PO467188  15.769  40.961   5.436
 5289POPC   GL167189  15.970  40.658   5.730
 5289POPC   GL267190  15.630  40.536   5.810
 5289POPC   C1A67191  16.248  40.667   6.149
 5289POPC   D2A67192  16.408  40.862   6.575
 5289POPC   C3A67193  16.090  40.966   6.907
 5289POPC   C4A67194  16.035  41.083   7.322
 5289POPC   C1B67195  15.742  40.750   6.190
 5289POPC   C2B67196  15.940  40.590   6.575
 5289POPC   C3B67197  16.226  40.456   6.908
 5289POPC   C4B67198  16.063  40.580   7.275
 5290POPC   NC367199  39.184  30.919   5.394
 5290POPC   PO467200  39.286  30.307   5.377
 5290POPC   GL167201  39.095  30.512   5.762
 5290POPC   GL267202  38.947  30.848   5.850
 5290POPC   C1A67203  39.293  30.641   6.167
 5290POPC   D2A67204  39.342  30.479   6.578
 5290POPC   C3A67205  39.322  30.689   6.971
 5290POPC   C4A67206  39.616  30.566   7.250
 5290POPC   C1B67207  38.819  30.814   6.274
 5290POPC   C2B67208  38.971  30.899   6.661
 5290POPC   C3B67209  38.840  30.835   7.084
 5290POPC   C4B67210  39.102  30.922   7.436
 5291POPC   NC367211   8.250   8.732   5.182
 5291POPC   PO467212   8.091   9.352   5.395
 5291POPC   GL167213   8.274   9.135   5.786
 5291POPC   GL267214   8.365   8.741   5.753
 5291POPC   C1A67215   8.175   9.103   6.252
 5291POPC   D2A67216   8.430   9.080   6.644
 5291POPC   C3A67217   8.261   9.307   7.012
 5291POPC   C4A67218   7.991   9.159   7.383
 5291POPC   C1B67219   8.342   8.615   6.217
 5291POPC   C2B67220   8.153   8.624   6.638
 5291POPC   C3B67221   8.192   8.757   7.070
 5291POPC   C4B67222   8.487   8.622   7.371
 5292POPC   NC367223  22.156  23.160   5.333
 5292POPC   PO467224  21.964  22.477   5.443
 5292POPC   GL167225  21.913  22.668   5.838
 5292POPC   GL267226  22.066  22.987   5.818
 5292POPC   C1A67227  22.134  22.669   6.243
 5292POPC   D2A67228  22.336  22.801   6.648
 5292POPC   C3A67229  22.079  22.859   7.028
 5292POPC   C4A67230  21.878  22.863   7.457
 5292POPC   C1B67231  22.124  23.189   6.223
 5292POPC   C2B67232  21.999  23.248   6.655
 5292POPC   C3B67233  22.313  23.360   6.966
 5292POPC   C4B67234  22.328  23.152   7.351
 5293POPC   NC367235   1.559   6.151   5.145
 5293POPC   PO467236   2.193   5.819   5.163
 5293POPC   GL167237   2.132   5.983   5.616
 5293POPC   GL267238   1.830   5.781   5.695
 5293POPC   C1A67239   2.048   6.037   6.098
 5293POPC   D2A67240   2.005   5.814   6.512
 5293POPC   C3A67241   1.946   6.025   6.909
 5293POPC   C4A67242   1.961   6.239   7.289
 5293POPC   C1B67243   1.696   5.632   6.125
 5293POPC   C2B67244   1.475   5.436   6.466
 5293POPC   C3B67245   1.631   5.602   6.844
 5293POPC   C4B67246   1.751   5.615   7.244
 5294POPC   NC367247   1.211   3.874   5.401
 5294POPC   PO467248   1.151   3.244   5.285
 5294POPC   GL167249   1.310   3.408   5.684
 5294POPC   GL267250   1.002   3.356   5.829
 5294POPC   C1A67251   1.364   3.594   6.132
 5294POPC   D2A67252   1.196   3.492   6.584
 5294POPC   C3A67253   1.427   3.619   6.955
 5294POPC   C4A67254   1.275   3.780   7.348
 5294POPC   C1B67255   0.865   3.553   6.211
 5294POPC   C2B67256   0.672   3.633   6.598
 5294POPC   C3B67257   0.889   3.704   6.972
 5294POPC   C4B67258   0.799   3.579   7.346
 5295POPC   NC367259  15.587  42.799   5.417
 5295POPC   PO467260  15.022  43.328   5.242
 5295POPC   GL167261  15.146  43.236   5.701
 5295POPC   GL267262  14.917  43.023   5.868
 5295POPC   C1A67263  15.428  43.104   6.085
 5295POPC   D2A67264  15.618  42.982   6.513
 5295POPC   C3A67265  15.479  43.061   6.918
 5295POPC   C4A67266  15.399  43.053   7.321
 5295POPC   C1B67267  14.960  43.102   6.283
 5295POPC   C2B67268  15.036  42.965   6.675
 5295POPC   C3B67269  14.803  43.068   6.997
 5295POPC   C4B67270  14.900  43.107   7.371
 5296POPC   NC367271  27.379   0.686   5.388
 5296POPC   PO467272  27.950   0.372   5.319
 5296POPC   GL167273  27.740   0.274   5.738
 5296POPC   GL267274  27.883   0.552   5.891
 5296POPC   C1A67275  27.480   0.423   6.140
 5296POPC   D2A67276  27.479   0.657   6.553
 5296POPC   C3A67277  27.498   0.388   6.869
 5296POPC   C4A67278  27.479   0.213   7.243
 5296POPC   C1B67279  27.943   0.546   6.340
 5296POPC   C2B67280  27.990   0.525   6.756
 5296POPC   C3B67281  27.920   0.486   7.215
 5296POPC   C4B67282  27.841   0.267   7.599
 5297POPC   NC367283  31.138  16.918   5.509
 5297POPC   PO467284  30.487  16.685   5.425
 5297POPC   GL167285  30.537  16.590   5.841
 5297POPC   GL267286  30.894  16.508   5.919
 5297POPC   C1A67287  30.538  16.753   6.246
 5297POPC   D2A67288  30.730  16.566   6.590
 5297POPC   C3A67289  30.861  16.749   6.931
 5297POPC   C4A67290  30.632  16.929   7.217
 5297POPC   C1B67291  30.680  16.218   6.212
 5297POPC   C2B67292  30.811  16.082   6.648
 5297POPC   C3B67293  30.769  16.282   7.068
 5297POPC   C4B67294  30.757  16.483   7.491
 5298POPC   NC367295  35.591   5.591   5.329
 5298POPC   PO467296  35.223   6.076   5.357
 5298POPC   GL167297  35.175   5.890   5.856
 5298POPC   GL267298  34.939   5.560   5.878
 5298POPC   C1A67299  35.343   6.033   6.312
 5298POPC   D2A67300  35.305   6.233   6.769
 5298POPC   C3A67301  35.475   6.143   7.222
 5298POPC   C4A67302  35.377   6.039   7.680
 5298POPC   C1B67303  35.022   5.617   6.295
 5298POPC   C2B67304  35.141   5.738   6.685
 5298POPC   C3B67305  35.200   5.742   7.098
 5298POPC   C4B67306  35.562   5.622   7.337
 5299POPC   NC367307   2.728  24.732   5.436
 5299POPC   PO467308   2.889  25.386   5.539
 5299POPC   GL167309   2.675  25.426   5.904
 5299POPC   GL267310   2.555  25.095   5.817
 5299POPC   C1A67311   2.625  25.313   6.349
 5299POPC   D2A67312   2.636  25.232   6.776
 5299POPC   C3A67313   2.773  25.578   7.029
 5299POPC   C4A67314   2.657  25.412   7.395
 5299POPC   C1B67315   2.918  25.013   6.085
 5299POPC   C2B67316   2.808  24.800   6.452
 5299POPC   C3B67317   2.777  24.753   6.892
 5299POPC   C4B67318   2.833  24.898   7.290
 5300POPC   NC367319  38.833   6.134   5.512
 5300POPC   PO467320  39.384   5.803   5.475
 5300POPC   GL167321  39.264   5.666   5.852
 5300POPC   GL267322  38.900   5.651   5.915
 5300POPC   C1A67323  39.385   5.920   6.221
 5300POPC   D2A67324  39.202   6.105   6.590
 5300POPC   C3A67325  39.328   5.941   6.992
 5300POPC   C4A67326  39.359   6.023   7.419
 5300POPC   C1B67327  39.073   5.515   6.296
 5300POPC   C2B67328  38.973   5.658   6.682
 5300POPC   C3B67329  38.990   5.546   7.080
 5300POPC   C4B67330  39.202   5.552   7.470
 5301POPC   NC367331   5.510  14.421   5.456
 5301POPC   PO467332   6.060  14.146   5.484
 5301POPC   GL167333   5.820  14.309   5.856
 5301POPC   GL267334   5.855  14.657   5.789
 5301POPC   C1A67335   5.867  14.350   6.314
 5301POPC   D2A67336   5.775  14.273   6.711
 5301POPC   C3A67337   5.937  14.370   7.097
 5301POPC   C4A67338   6.339  14.527   7.173
 5301POPC   C1B67339   5.691  14.777   6.150
 5301POPC   C2B67340   5.650  14.786   6.566
 5301POPC   C3B67341   5.742  14.830   6.969
 5301POPC   C4B67342   5.476  14.627   7.210
 5302POPC   NC367343   2.567  21.342   5.477
 5302POPC   PO467344   3.207  21.017   5.486
 5302POPC   GL167345   3.008  21.183   5.837
 5302POPC   GL267346   2.873  21.505   5.866
 5302POPC   C1A67347   2.874  21.131   6.268
 5302POPC   D2A67348   3.101  21.225   6.661
 5302POPC   C3A67349   2.878  21.081   6.993
 5302POPC   C4A67350   2.610  21.198   7.325
 5302POPC   C1B67351   2.634  21.599   6.247
 5302POPC   C2B67352   2.602  21.430   6.669
 5302POPC   C3B67353   2.457  21.691   6.990
 5302POPC   C4B67354   2.316  21.861   7.386
 5303POPC   NC367355  27.271  23.300   5.430
 5303POPC   PO467356  27.051  22.709   5.339
 5303POPC   GL167357  27.003  22.886   5.767
 5303POPC   GL267358  26.702  22.714   5.949
 5303POPC   C1A67359  26.829  23.208   6.072
 5303POPC   D2A67360  26.879  23.277   6.537
 5303POPC   C3A67361  26.648  23.033   6.852
 5303POPC   C4A67362  26.299  23.062   7.166
 5303POPC   C1B67363  26.934  22.781   6.343
 5303POPC   C2B67364  27.020  22.655   6.761
 5303POPC   C3B67365  26.892  22.724   7.180
 5303POPC   C4B67366  27.111  22.816   7.574
 5304POPC   NC367367  37.816  11.911   5.462
 5304POPC   PO467368  37.227  12.274   5.468
 5304POPC   GL167369  37.451  12.123   5.776
 5304POPC   GL267370  37.714  12.369   5.701
 5304POPC   C1A67371  37.441  12.005   6.185
 5304POPC   D2A67372  37.582  11.868   6.560
 5304POPC   C3A67373  37.417  11.952   6.941
 5304POPC   C4A67374  37.713  11.883   7.315
 5304POPC   C1B67375  37.916  12.187   6.048
 5304POPC   C2B67376  37.924  12.275   6.467
 5304POPC   C3B67377  37.860  12.197   6.874
 5304POPC   C4B67378  37.953  12.403   7.214
 5305POPC   NC367379   5.871   1.315   5.410
 5305POPC   PO467380   5.767   0.610   5.500
 5305POPC   GL167381   5.992   0.829   5.872
 5305POPC   GL267382   6.099   1.197   5.866
 5305POPC   C1A67383   5.998   0.952   6.323
 5305POPC   D2A67384   5.933   1.034   6.734
 5305POPC   C3A67385   6.116   1.191   7.087
 5305POPC   C4A67386   5.833   0.990   7.331
 5305POPC   C1B67387   5.769   1.374   6.159
 5305POPC   C2B67388   5.753   1.516   6.613
 5305POPC   C3B67389   5.593   1.320   7.016
 5305POPC   C4B67390   5.535   1.403   7.463
 5306POPC   NC367391  44.097   8.512   5.537
 5306POPC   PO467392  43.699   8.033   5.457
 5306POPC   GL167393  43.744   8.237   5.815
 5306POPC   GL267394  43.600   8.542   5.725
 5306POPC   C1A67395  43.962   8.227   6.188
 5306POPC   D2A67396  44.146   8.280   6.581
 5306POPC   C3A67397  43.974   8.231   6.989
 5306POPC   C4A67398  44.060   7.994   7.337
 5306POPC   C1B67399  43.609   8.603   6.182
 5306POPC   C2B67400  43.642   8.425   6.634
 5306POPC   C3B67401  43.636   8.605   7.099
 5306POPC   C4B67402  43.537   8.645   7.580
 5307POPC   NC367403  36.449  36.497   5.328
 5307POPC   PO467404  36.225  37.110   5.535
 5307POPC   GL167405  36.258  36.771   5.816
 5307POPC   GL267406  36.593  36.751   5.755
 5307POPC   C1A67407  36.168  36.825   6.257
 5307POPC   D2A67408  36.111  37.048   6.653
 5307POPC   C3A67409  36.191  36.707   6.988
 5307POPC   C4A67410  36.061  36.717   7.425
 5307POPC   C1B67411  36.722  36.822   6.168
 5307POPC   C2B67412  36.572  36.836   6.583
 5307POPC   C3B67413  36.560  37.084   6.953
 5307POPC   C4B67414  36.564  36.865   7.315
 5308POPC   NC367415  13.569  10.323   5.337
 5308POPC   PO467416  13.875  10.911   5.219
 5308POPC   GL167417  13.602  10.751   5.644
 5308POPC   GL267418  13.440  10.450   5.801
 5308POPC   C1A67419  13.614  10.781   6.135
 5308POPC   D2A67420  13.306  10.671   6.475
 5308POPC   C3A67421  13.479  10.735   6.886
 5308POPC   C4A67422  13.462  10.623   7.341
 5308POPC   C1B67423  13.483  10.246   6.186
 5308POPC   C2B67424  13.259  10.139   6.555
 5308POPC   C3B67425  13.260   9.935   6.954
 5308POPC   C4B67426  13.564  10.172   7.120
 5309POPC   NC367427  12.178  28.996   5.616
 5309POPC   PO467428  11.663  29.290   5.592
 5309POPC   GL167429  11.886  29.269   5.961
 5309POPC   GL267430  12.217  29.429   5.966
 5309POPC   C1A67431  11.899  29.220   6.396
 5309POPC   D2A67432  12.247  29.183   6.657
 5309POPC   C3A67433  12.324  29.422   6.973
 5309POPC   C4A67434  11.962  29.321   7.162
 5309POPC   C1B67435  12.496  29.169   6.209
 5309POPC   C2B67436  12.589  28.849   6.539
 5309POPC   C3B67437  12.521  28.812   6.971
 5309POPC   C4B67438  12.555  29.099   7.292
 5310POPC   NC367439  16.147   9.902   5.159
 5310POPC   PO467440  16.840   9.862   5.263
 5310POPC   GL167441  16.810   9.814   5.786
 5310POPC   GL267442  16.554   9.596   5.936
 5310POPC   C1A67443  16.789  10.065   6.195
 5310POPC   D2A67444  16.942  10.080   6.642
 5310POPC   C3A67445  16.656   9.863   6.885
 5310POPC   C4A67446  16.259  10.090   7.051
 5310POPC   C1B67447  16.567   9.568   6.366
 5310POPC   C2B67448  16.612   9.292   6.702
 5310POPC   C3B67449  16.721   9.392   7.100
 5310POPC   C4B67450  17.135   9.285   7.261
 5311POPC   NC367451  30.359  43.735   5.327
 5311POPC   PO467452  30.255  44.293   5.473
 5311POPC   GL167453  30.399  43.968   5.830
 5311POPC   GL267454  30.687  43.736   5.763
 5311POPC   C1A67455  30.481  43.855   6.288
 5311POPC   D2A67456  30.828  44.041   6.572
 5311POPC   C3A67457  30.669  44.213   6.960
 5311POPC   C4A67458  30.335  43.988   7.147
 5311POPC   C1B67459  30.925  43.640   6.157
 5311POPC   C2B67460  30.762  43.528   6.583
 5311POPC   C3B67461  30.770  43.660   7.015
 5311POPC   C4B67462  31.094  43.558   7.303
 5312POPC   NC367463  16.901  25.846   5.145
 5312POPC   PO467464  16.539  26.456   5.486
 5312POPC   GL167465  16.614  26.141   5.808
 5312POPC   GL267466  16.807  25.872   5.640
 5312POPC   C1A67467  16.699  26.214   6.259
 5312POPC   D2A67468  16.605  26.027   6.659
 5312POPC   C3A67469  16.753  26.143   7.045
 5312POPC   C4A67470  16.600  26.151   7.427
 5312POPC   C1B67471  16.989  25.795   6.044
 5312POPC   C2B67472  16.992  25.649   6.476
 5312POPC   C3B67473  16.922  25.680   6.910
 5312POPC   C4B67474  17.059  25.797   7.307
 5313POPC   NC367475  28.288  31.944   5.452
 5313POPC   PO467476  28.782  32.476   5.641
 5313POPC   GL167477  28.604  32.306   5.974
 5313POPC   GL267478  28.370  32.054   5.927
 5313POPC   C1A67479  28.423  32.529   6.306
 5313POPC   D2A67480  28.273  32.428   6.715
 5313POPC   C3A67481  28.483  32.480   7.069
 5313POPC   C4A67482  28.516  32.084   7.193
 5313POPC   C1B67483  28.234  32.051   6.337
 5313POPC   C2B67484  28.346  31.874   6.729
 5313POPC   C3B67485  28.095  31.830   7.086
 5313POPC   C4B67486  28.121  31.942   7.520
 5314POPC   NC367487  39.169  34.732   5.196
 5314POPC   PO467488  38.908  34.324   5.644
 5314POPC   GL167489  39.034  34.460   5.988
 5314POPC   GL267490  38.720  34.644   6.032
 5314POPC   C1A67491  39.285  34.324   6.309
 5314POPC   D2A67492  39.013  34.508   6.552
 5314POPC   C3A67493  39.138  34.671   6.897
 5314POPC   C4A67494  39.160  34.428   7.237
 5314POPC   C1B67495  39.059  34.924   6.211
 5314POPC   C2B67496  39.433  34.810   6.467
 5314POPC   C3B67497  39.611  34.848   6.881
 5314POPC   C4B67498  39.469  34.853   7.280
 5315POPC   NC367499  13.001  42.884   5.242
 5315POPC   PO467500  12.363  42.941   5.471
 5315POPC   GL167501  12.642  42.912   5.845
 5315POPC   GL267502  12.952  43.123   5.797
 5315POPC   C1A67503  12.661  43.054   6.297
 5315POPC   D2A67504  12.960  43.256   6.611
 5315POPC   C3A67505  12.737  43.174   6.979
 5315POPC   C4A67506  12.593  42.781   7.163
 5315POPC   C1B67507  13.163  43.028   6.192
 5315POPC   C2B67508  13.297  42.878   6.607
 5315POPC   C3B67509  13.117  42.812   7.018
 5315POPC   C4B67510  13.387  42.865   7.333
 5316POPC   NC367511   6.801  40.787   5.362
 5316POPC   PO467512   6.127  40.618   5.454
 5316POPC   GL167513   6.531  40.549   5.779
 5316POPC   GL267514   6.791  40.855   5.852
 5316POPC   C1A67515   6.572  40.615   6.250
 5316POPC   D2A67516   6.396  40.968   6.455
 5316POPC   C3A67517   6.287  40.812   6.832
 5316POPC   C4A67518   6.495  40.854   7.193
 5316POPC   C1B67519   6.906  40.974   6.253
 5316POPC   C2B67520   6.863  40.832   6.653
 5316POPC   C3B67521   6.941  41.053   6.994
 5316POPC   C4B67522   6.917  40.990   7.403
 5317POPC   NC367523  44.379  25.662   5.484
 5317POPC   PO467524  44.712  25.025   5.549
 5317POPC   GL167525  44.668  25.387   5.817
 5317POPC   GL267526  44.940  25.579   5.851
 5317POPC   C1A67527  44.551  25.371   6.256
 5317POPC   D2A67528  44.796  25.262   6.665
 5317POPC   C3A67529  44.565  25.334   7.029
 5317POPC   C4A67530  44.518  25.167   7.478
 5317POPC   C1B67531   0.053  25.471   6.258
 5317POPC   C2B67532   0.074  25.695   6.629
 5317POPC   C3B67533   0.034  25.635   7.061
 5317POPC   C4B67534  44.745  25.631   7.387
 5318POPC   NC367535  42.042  12.233   5.168
 5318POPC   PO467536  42.688  12.190   5.495
 5318POPC   GL167537  42.437  12.276   5.886
 5318POPC   GL267538  42.641  12.537   5.978
 5318POPC   C1A67539  42.167  12.130   6.291
 5318POPC   D2A67540  42.017  11.806   6.620
 5318POPC   C3A67541  42.158  11.795   7.074
 5318POPC   C4A67542  42.552  11.702   7.215
 5318POPC   C1B67543  42.296  12.621   6.281
 5318POPC   C2B67544  42.182  12.535   6.714
 5318POPC   C3B67545  42.277  12.302   7.072
 5318POPC   C4B67546  42.176  12.248   7.486
 5319POPC   NC367547  42.654  35.540   5.056
 5319POPC   PO467548  42.076  35.562   5.405
 5319POPC   GL167549  42.172  35.501   5.830
 5319POPC   GL267550  42.553  35.563   5.824
 5319POPC   C1A67551  42.032  35.287   6.233
 5319POPC   D2A67552  42.095  35.440   6.691
 5319POPC   C3A67553  42.373  35.328   7.058
 5319POPC   C4A67554  42.693  35.033   7.179
 5319POPC   C1B67555  42.433  35.652   6.248
 5319POPC   C2B67556  42.293  35.910   6.572
 5319POPC   C3B67557  42.495  35.783   6.925
 5319POPC   C4B67558  42.700  35.628   7.272
 5320POPC   NC367559  40.263  33.090   5.317
 5320POPC   PO467560  39.624  33.048   5.426
 5320POPC   GL167561  39.808  33.091   5.856
 5320POPC   GL267562  40.197  33.079   5.866
 5320POPC   C1A67563  39.751  33.050   6.323
 5320POPC   D2A67564  40.035  33.134   6.679
 5320POPC   C3A67565  39.944  33.246   7.089
 5320POPC   C4A67566  39.573  33.222   7.334
 5320POPC   C1B67567  40.223  32.823   6.268
 5320POPC   C2B67568  40.025  32.628   6.654
 5320POPC   C3B67569  40.174  32.758   7.077
 5320POPC   C4B67570  39.996  32.900   7.481
 5321POPC   NC367571   1.961   8.546   5.338
 5321POPC   PO467572   1.774   7.849   5.432
 5321POPC   GL167573   1.725   8.115   5.794
 5321POPC   GL267574   2.067   8.269   5.765
 5321POPC   C1A67575   1.875   8.175   6.231
 5321POPC   D2A67576   2.273   8.166   6.461
 5321POPC   C3A67577   2.149   8.273   6.888
 5321POPC   C4A67578   1.831   8.279   7.194
 5321POPC   C1B67579   2.268   8.533   6.094
 5321POPC   C2B67580   2.210   8.673   6.547
 5321POPC   C3B67581   2.379   8.740   6.978
 5321POPC   C4B67582   2.134   8.691   7.368
 5322POPC   NC367583  43.638  34.202   5.410
 5322POPC   PO467584  43.040  33.941   5.418
 5322POPC   GL167585  43.088  33.961   5.861
 5322POPC   GL267586  43.325  34.231   5.909
 5322POPC   C1A67587  43.100  33.607   6.174
 5322POPC   D2A67588  43.090  33.597   6.631
 5322POPC   C3A67589  42.846  33.634   7.011
 5322POPC   C4A67590  42.694  33.379   7.386
 5322POPC   C1B67591  43.450  34.455   6.295
 5322POPC   C2B67592  43.413  34.326   6.739
 5322POPC   C3B67593  43.172  33.999   6.944
 5322POPC   C4B67594  43.017  33.803   7.439
 5323POPC   NC367595  10.645  17.010   5.336
 5323POPC   PO467596  10.361  16.451   5.313
 5323POPC   GL167597  10.673  16.634   5.734
 5323POPC   GL267598  10.613  16.983   5.866
 5323POPC   C1A67599  10.599  16.664   6.257
 5323POPC   D2A67600  10.312  16.746   6.627
 5323POPC   C3A67601  10.628  16.751   6.938
 5323POPC   C4A67602  10.675  16.548   7.308
 5323POPC   C1B67603  10.250  17.042   6.209
 5323POPC   C2B67604  10.199  17.318   6.578
 5323POPC   C3B67605  10.279  17.141   6.977
 5323POPC   C4B67606  10.431  17.024   7.400
 5324POPC   NC367607  31.327  30.353   5.409
 5324POPC   PO467608  31.682  30.808   5.331
 5324POPC   GL167609  31.560  30.661   5.734
 5324POPC   GL267610  31.233  30.731   5.832
 5324POPC   C1A67611  31.609  30.696   6.189
 5324POPC   D2A67612  31.459  30.820   6.582
 5324POPC   C3A67613  31.656  30.616   6.916
 5324POPC   C4A67614  31.593  30.816   7.296
 5324POPC   C1B67615  31.129  30.526   6.252
 5324POPC   C2B67616  31.300  30.325   6.625
 5324POPC   C3B67617  31.200  30.373   7.057
 5324POPC   C4B67618  31.324  30.434   7.475
 5325POPC   NC367619  30.882  17.884   5.546
 5325POPC   PO467620  30.508  18.539   5.438
 5325POPC   GL167621  30.608  18.501   5.840
 5325POPC   GL267622  30.568  18.153   5.860
 5325POPC   C1A67623  30.767  18.482   6.255
 5325POPC   D2A67624  30.908  18.444   6.655
 5325POPC   C3A67625  30.594  18.547   6.932
 5325POPC   C4A67626  30.577  18.238   7.202
 5325POPC   C1B67627  30.736  17.973   6.237
 5325POPC   C2B67628  30.994  17.930   6.586
 5325POPC   C3B67629  31.027  18.056   6.984
 5325POPC   C4B67630  30.989  17.804   7.350
 5326POPC   NC367631  21.901  29.026   5.404
 5326POPC   PO467632  22.535  29.117   5.600
 5326POPC   GL167633  22.261  29.286   5.940
 5326POPC   GL267634  21.921  29.412   5.794
 5326POPC   C1A67635  22.118  29.022   6.319
 5326POPC   D2A67636  22.111  28.702   6.662
 5326POPC   C3A67637  22.273  28.881   7.046
 5326POPC   C4A67638  22.354  29.339   7.189
 5326POPC   C1B67639  21.732  29.335   6.188
 5326POPC   C2B67640  21.710  29.510   6.590
 5326POPC   C3B67641  21.595  29.354   6.991
 5326POPC   C4B67642  21.874  29.165   7.217
 5327POPC   NC367643  35.514  34.848   5.073
 5327POPC   PO467644  35.368  34.268   5.463
 5327POPC   GL167645  35.388  34.321   5.879
 5327POPC   GL267646  35.045  34.282   5.965
 5327POPC   C1A67647  35.679  34.399   6.241
 5327POPC   D2A67648  35.692  34.249   6.676
 5327POPC   C3A67649  35.608  34.569   6.978
 5327POPC   C4A67650  35.491  34.708   7.390
 5327POPC   C1B67651  35.190  34.549   6.296
 5327POPC   C2B67652  35.190  34.662   6.722
 5327POPC   C3B67653  35.052  34.876   7.087
 5327POPC   C4B67654  34.763  34.766   7.421
 5328POPC   NC367655  30.313   7.643   5.564
 5328POPC   PO467656  30.951   7.289   5.481
 5328POPC   GL167657  30.735   7.292   5.893
 5328POPC   GL267658  30.368   7.196   5.851
 5328POPC   C1A67659  30.796   7.484   6.333
 5328POPC   D2A67660  30.721   7.784   6.703
 5328POPC   C3A67661  30.955   7.709   7.109
 5328POPC   C4A67662  30.921   7.369   7.462
 5328POPC   C1B67663  30.272   7.344   6.234
 5328POPC   C2B67664  30.380   7.373   6.657
 5328POPC   C3B67665  30.492   7.453   7.074
 5328POPC   C4B67666  30.183   7.261   7.307
 5329POPC   NC367667  36.140  30.516   5.547
 5329POPC   PO467668  36.133  31.156   5.540
 5329POPC   GL167669  35.939  31.086   5.909
 5329POPC   GL267670  36.072  30.746   5.997
 5329POPC   C1A67671  35.974  31.097   6.343
 5329POPC   D2A67672  36.025  30.712   6.534
 5329POPC   C3A67673  36.232  30.715   6.903
 5329POPC   C4A67674  36.151  30.847   7.277
 5329POPC   C1B67675  36.008  30.334   6.197
 5329POPC   C2B67676  35.896  30.193   6.576
 5329POPC   C3B67677  35.922  30.320   6.979
 5329POPC   C4B67678  35.752  30.515   7.268
 5330POPC   NC367679   6.872  32.311   5.304
 5330POPC   PO467680   6.400  31.933   5.371
 5330POPC   GL167681   6.522  32.228   5.819
 5330POPC   GL267682   6.850  32.313   5.930
 5330POPC   C1A67683   6.553  32.528   6.264
 5330POPC   D2A67684   6.694  32.389   6.659
 5330POPC   C3A67685   6.823  32.583   7.038
 5330POPC   C4A67686   6.758  32.396   7.460
 5330POPC   C1B67687   6.585  32.029   6.287
 5330POPC   C2B67688   6.356  31.998   6.693
 5330POPC   C3B67689   6.525  32.148   7.085
 5330POPC   C4B67690   6.340  32.126   7.512
 5331POPC   NC367691   1.148  16.481   5.353
 5331POPC   PO467692   1.078  17.237   5.404
 5331POPC   GL167693   0.989  16.897   5.730
 5331POPC   GL267694   1.249  16.700   5.799
 5331POPC   C1A67695   0.885  16.692   6.137
 5331POPC   D2A67696   1.064  16.786   6.528
 5331POPC   C3A67697   1.241  16.667   6.931
 5331POPC   C4A67698   0.981  16.822   7.261
 5331POPC   C1B67699   1.314  16.437   6.170
 5331POPC   C2B67700   1.217  16.277   6.567
 5331POPC   C3B67701   1.520  16.232   6.892
 5331POPC   C4B67702   1.662  16.420   7.261
 5332POPC   NC367703  29.838   0.909   5.553
 5332POPC   PO467704  30.215   1.519   5.541
 5332POPC   GL167705  29.906   1.459   5.944
 5332POPC   GL267706  29.525   1.366   5.892
 5332POPC   C1A67707  29.920   1.368   6.426
 5332POPC   D2A67708  30.177   1.079   6.706
 5332POPC   C3A67709  30.162   1.185   7.148
 5332POPC   C4A67710  30.111   1.172   7.591
 5332POPC   C1B67711  29.685   1.015   6.149
 5332POPC   C2B67712  29.692   0.917   6.564
 5332POPC   C3B67713  29.711   1.199   6.906
 5332POPC   C4B67714  29.699   1.361   7.323
 5333POPC   NC367715   0.620  42.396   5.187
 5333POPC   PO467716   0.247  42.049   5.582
 5333POPC   GL167717   0.406  42.332   5.797
 5333POPC   GL267718   0.169  42.588   5.880
 5333POPC   C1A67719   0.613  42.198   6.136
 5333POPC   D2A67720   0.659  42.379   6.509
 5333POPC   C3A67721   0.642  42.200   6.879
 5333POPC   C4A67722   0.540  42.356   7.246
 5333POPC   C1B67723   0.160  42.433   6.262
 5333POPC   C2B67724   0.211  42.583   6.663
 5333POPC   C3B67725  44.973  42.541   7.032
 5333POPC   C4B67726   0.024  42.328   7.394
 5334POPC   NC367727  26.375  14.372   5.492
 5334POPC   PO467728  27.072  14.331   5.412
 5334POPC   GL167729  26.928  14.318   5.831
 5334POPC   GL267730  26.651  14.138   5.850
 5334POPC   C1A67731  26.962  14.318   6.282
 5334POPC   D2A67732  26.754  14.458   6.649
 5334POPC   C3A67733  26.904  14.790   6.898
 5334POPC   C4A67734  26.684  14.792   7.260
 5334POPC   C1B67735  26.739  13.875   6.160
 5334POPC   C2B67736  26.760  13.822   6.567
 5334POPC   C3B67737  27.012  14.060   6.838
 5334POPC   C4B67738  26.852  14.313   7.151
 5335POPC   NC367739  15.041   5.891   5.280
 5335POPC   PO467740  15.540   6.289   5.601
 5335POPC   GL167741  15.459   5.993   5.953
 5335POPC   GL267742  15.210   5.744   5.811
 5335POPC   C1A67743  15.415   6.011   6.429
 5335POPC   D2A67744  15.027   5.913   6.695
 5335POPC   C3A67745  15.032   6.034   7.128
 5335POPC   C4A67746  14.867   6.144   7.551
 5335POPC   C1B67747  15.180   5.589   6.250
 5335POPC   C2B67748  15.367   5.527   6.687
 5335POPC   C3B67749  15.412   5.608   7.153
 5335POPC   C4B67750  15.370   5.449   7.616
 5336POPC   NC367751  35.392  29.383   5.446
 5336POPC   PO467752  35.595  28.669   5.499
 5336POPC   GL167753  35.279  28.804   5.837
 5336POPC   GL267754  35.204  29.164   5.936
 5336POPC   C1A67755  35.318  28.802   6.296
 5336POPC   D2A67756  35.077  29.036   6.574
 5336POPC   C3A67757  35.245  29.181   6.925
 5336POPC   C4A67758  35.491  28.949   7.242
 5336POPC   C1B67759  34.857  29.315   6.228
 5336POPC   C2B67760  34.635  29.354   6.658
 5336POPC   C3B67761  34.791  29.369   7.100
 5336POPC   C4B67762  35.166  29.360   7.392
 5337POPC   NC367763  36.875  28.318   5.405
 5337POPC   PO467764  36.574  28.833   5.618
 5337POPC   GL167765  36.779  28.532   5.866
 5337POPC   GL267766  37.131  28.464   5.853
 5337POPC   C1A67767  36.646  28.363   6.227
 5337POPC   D2A67768  36.473  28.523   6.578
 5337POPC   C3A67769  36.666  28.369   6.932
 5337POPC   C4A67770  36.486  28.276   7.313
 5337POPC   C1B67771  37.169  28.301   6.291
 5337POPC   C2B67772  37.023  28.059   6.639
 5337POPC   C3B67773  37.194  28.235   6.999
 5337POPC   C4B67774  36.984  28.458   7.337
 5338POPC   NC367775   6.105  10.889   5.496
 5338POPC   PO467776   5.704  11.473   5.375
 5338POPC   GL167777   5.787  11.226   5.745
 5338POPC   GL267778   5.631  11.418   5.969
 5338POPC   C1A67779   6.027  11.137   6.149
 5338POPC   D2A67780   6.100  11.427   6.503
 5338POPC   C3A67781   5.859  11.323   6.845
 5338POPC   C4A67782   5.919  11.184   7.265
 5338POPC   C1B67783   5.447  11.607   6.327
 5338POPC   C2B67784   5.457  11.652   6.777
 5338POPC   C3B67785   5.676  11.621   7.207
 5338POPC   C4B67786   5.568  11.458   7.624
 5339POPC   NC367787  11.139   1.552   5.369
 5339POPC   PO467788  11.634   1.046   5.416
 5339POPC   GL167789  11.280   0.997   5.748
 5339POPC   GL267790  11.013   1.265   5.811
 5339POPC   C1A67791  11.137   0.949   6.195
 5339POPC   D2A67792  11.298   1.115   6.587
 5339POPC   C3A67793  11.213   1.015   7.026
 5339POPC   C4A67794  11.595   1.156   7.270
 5339POPC   C1B67795  11.133   1.476   6.231
 5339POPC   C2B67796  11.118   1.591   6.696
 5339POPC   C3B67797  11.176   1.519   7.179
 5339POPC   C4B67798  11.008   1.584   7.644
 5340POPC   NC367799  38.232  31.084   5.653
 5340POPC   PO467800  38.746  30.793   5.394
 5340POPC   GL167801  38.557  30.519   5.748
 5340POPC   GL267802  38.403  30.693   5.981
 5340POPC   C1A67803  38.764  30.326   6.124
 5340POPC   D2A67804  38.841  30.385   6.579
 5340POPC   C3A67805  38.483  30.431   6.862
 5340POPC   C4A67806  38.460  30.469   7.295
 5340POPC   C1B67807  38.343  30.995   6.292
 5340POPC   C2B67808  38.455  30.914   6.699
 5340POPC   C3B67809  38.354  31.005   7.122
 5340POPC   C4B67810  38.566  30.940   7.531
 5341POPC   NC367811  42.684  43.382   5.581
 5341POPC   PO467812  42.131  43.005   5.375
 5341POPC   GL167813  42.240  43.158   5.799
 5341POPC   GL267814  42.545  42.967   5.861
 5341POPC   C1A67815  42.315  43.320   6.252
 5341POPC   D2A67816  42.167  43.441   6.702
 5341POPC   C3A67817  42.433  43.271   7.030
 5341POPC   C4A67818  42.409  43.214   7.476
 5341POPC   C1B67819  42.610  42.772   6.292
 5341POPC   C2B67820  42.722  42.796   6.766
 5341POPC   C3B67821  42.569  42.797   7.234
 5341POPC   C4B67822  42.618  42.778   7.751
 5342POPC   NC367823  34.996  11.548   5.456
 5342POPC   PO467824  34.357  11.603   5.512
 5342POPC   GL167825  34.526  11.326   5.817
 5342POPC   GL267826  34.863  11.203   5.796
 5342POPC   C1A67827  34.606  11.125   6.216
 5342POPC   D2A67828  34.379  11.083   6.552
 5342POPC   C3A67829  34.590  11.137   6.921
 5342POPC   C4A67830  34.428  11.391   7.242
 5342POPC   C1B67831  34.871  11.578   6.093
 5342POPC   C2B67832  34.831  11.467   6.527
 5342POPC   C3B67833  34.884  11.564   6.939
 5342POPC   C4B67834  34.804  11.745   7.326
 5343POPC   NC367835  25.745  42.688   5.445
 5343POPC   PO467836  25.062  42.455   5.364
 5343POPC   GL167837  25.167  42.247   5.810
 5343POPC   GL267838  25.058  41.939   5.941
 5343POPC   C1A67839  25.122  42.308   6.271
 5343POPC   D2A67840  25.092  42.280   6.712
 5343POPC   C3A67841  25.194  42.553   7.037
 5343POPC   C4A67842  25.317  42.467   7.484
 5343POPC   C1B67843  25.462  41.920   6.182
 5343POPC   C2B67844  25.582  42.161   6.566
 5343POPC   C3B67845  25.482  42.138   7.041
 5343POPC   C4B67846  25.052  42.078   7.192
 5344POPC   NC367847   2.606  10.857   5.510
 5344POPC   PO467848   3.239  10.786   5.721
 5344POPC   GL167849   2.965  10.507   5.900
 5344POPC   GL267850   2.632  10.404   5.806
 5344POPC   C1A67851   2.767  10.630   6.269
 5344POPC   D2A67852   2.897  10.773   6.679
 5344POPC   C3A67853   2.807  10.517   7.050
 5344POPC   C4A67854   2.880  10.374   7.488
 5344POPC   C1B67855   2.502  10.192   6.189
 5344POPC   C2B67856   2.540  10.341   6.623
 5344POPC   C3B67857   2.296  10.449   6.972
 5344POPC   C4B67858   2.428  10.569   7.403
 5345POPC   NC367859  15.560  28.684   5.501
 5345POPC   PO467860  14.959  28.365   5.533
 5345POPC   GL167861  15.190  28.584   5.862
 5345POPC   GL267862  15.499  28.369   5.896
 5345POPC   C1A67863  15.174  28.844   6.253
 5345POPC   D2A67864  15.203  28.676   6.667
 5345POPC   C3A67865  15.161  28.687   7.096
 5345POPC   C4A67866  15.526  28.420   7.199
 5345POPC   C1B67867  15.341  28.082   6.175
 5345POPC   C2B67868  15.122  28.199   6.500
 5345POPC   C3B67869  15.190  28.119   6.905
 5345POPC   C4B67870  15.057  28.174   7.288
 5346POPC   NC367871  32.463  39.629   5.524
 5346POPC   PO467872  32.239  40.311   5.430
 5346POPC   GL167873  32.423  40.071   5.790
 5346POPC   GL267874  32.089  39.892   5.738
 5346POPC   C1A67875  32.588  39.903   6.222
 5346POPC   D2A67876  32.623  40.048   6.656
 5346POPC   C3A67877  32.529  39.812   7.048
 5346POPC   C4A67878  32.627  39.872   7.509
 5346POPC   C1B67879  32.096  39.967   6.159
 5346POPC   C2B67880  32.167  39.829   6.562
 5346POPC   C3B67881  32.145  40.079   6.912
 5346POPC   C4B67882  32.139  40.000   7.352
 5347POPC   NC367883  12.477  35.549   5.082
 5347POPC   PO467884  12.237  35.155   5.568
 5347POPC   GL167885  11.941  35.240   5.877
 5347POPC   GL267886  11.871  35.590   5.860
 5347POPC   C1A67887  11.889  35.274   6.290
 5347POPC   D2A67888  12.196  35.257   6.577
 5347POPC   C3A67889  11.981  35.026   6.854
 5347POPC   C4A67890  11.631  35.196   7.052
 5347POPC   C1B67891  12.275  35.588   6.118
 5347POPC   C2B67892  12.297  35.756   6.531
 5347POPC   C3B67893  12.096  35.669   6.928
 5347POPC   C4B67894  12.241  35.657   7.334
 5348POPC   NC367895  24.046  43.451   5.524
 5348POPC   PO467896  23.501  42.983   5.426
 5348POPC   GL167897  23.739  43.112   5.805
 5348POPC   GL267898  24.107  43.010   5.806
 5348POPC   C1A67899  23.560  43.328   6.202
 5348POPC   D2A67900  23.718  43.484   6.558
 5348POPC   C3A67901  23.568  43.316   6.903
 5348POPC   C4A67902  23.829  43.374   7.267
 5348POPC   C1B67903  24.038  43.133   6.229
 5348POPC   C2B67904  23.797  42.976   6.546
 5348POPC   C3B67905  23.937  42.977   6.920
 5348POPC   C4B67906  24.059  42.893   7.292
 5349POPC   NC367907   3.698  26.932   5.431
 5349POPC   PO467908   3.197  26.491   5.588
 5349POPC   GL167909   3.369  26.806   5.803
 5349POPC   GL267910   3.346  27.181   5.736
 5349POPC   C1A67911   3.618  26.908   6.140
 5349POPC   D2A67912   3.762  26.706   6.513
 5349POPC   C3A67913   3.733  26.935   6.902
 5349POPC   C4A67914   3.626  26.835   7.312
 5349POPC   C1B67915   3.142  27.095   6.146
 5349POPC   C2B67916   3.307  26.943   6.557
 5349POPC   C3B67917   3.145  26.987   6.972
 5349POPC   C4B67918   3.156  27.147   7.390
 5350POPC   NC367919  40.434  43.620   5.695
 5350POPC   PO467920  39.832  43.815   5.413
 5350POPC   GL167921  39.767  43.783   5.839
 5350POPC   GL267922  40.092  43.908   5.956
 5350POPC   C1A67923  39.681  43.654   6.271
 5350POPC   D2A67924  39.841  43.599   6.708
 5350POPC   C3A67925  39.689  43.587   7.143
 5350POPC   C4A67926  39.640  43.999   7.348
 5350POPC   C1B67927  40.205  44.347   6.121
 5350POPC   C2B67928  40.374  44.413   6.545
 5350POPC   C3B67929  40.335  44.227   6.946
 5350POPC   C4B67930  40.143  43.838   7.066
 5351POPC   NC367931  18.629  27.588   5.400
 5351POPC   PO467932  17.942  27.428   5.321
 5351POPC   GL167933  18.179  27.614   5.714
 5351POPC   GL267934  18.518  27.509   5.879
 5351POPC   C1A67935  18.189  27.791   6.174
 5351POPC   D2A67936  17.883  27.786   6.546
 5351POPC   C3A67937  18.109  27.681   6.918
 5351POPC   C4A67938  18.478  27.847   7.086
 5351POPC   C1B67939  18.193  27.285   6.090
 5351POPC   C2B67940  18.078  27.318   6.490
 5351POPC   C3B67941  18.234  27.175   6.867
 5351POPC   C4B67942  18.384  27.370   7.251
 5352POPC   NC367943  21.853   2.329   5.421
 5352POPC   PO467944  21.322   1.837   5.220
 5352POPC   GL167945  21.418   2.004   5.663
 5352POPC   GL267946  21.587   1.772   5.906
 5352POPC   C1A67947  21.295   2.129   6.118
 5352POPC   D2A67948  21.449   2.103   6.556
 5352POPC   C3A67949  21.275   2.093   6.971
 5352POPC   C4A67950  21.498   2.287   7.295
 5352POPC   C1B67951  21.455   1.648   6.299
 5352POPC   C2B67952  21.333   1.636   6.721
 5352POPC   C3B67953  21.435   1.560   7.136
 5352POPC   C4B67954  21.435   1.798   7.553
 5353POPC   NC367955  20.822  32.317   5.455
 5353POPC   PO467956  20.212  32.338   5.199
 5353POPC   GL167957  20.379  32.331   5.686
 5353POPC   GL267958  20.571  32.044   5.801
 5353POPC   C1A67959  20.633  32.450   6.110
 5353POPC   D2A67960  20.749  32.592   6.574
 5353POPC   C3A67961  20.654  32.384   6.994
 5353POPC   C4A67962  20.702  32.436   7.490
 5353POPC   C1B67963  20.880  32.003   6.160
 5353POPC   C2B67964  20.971  32.132   6.621
 5353POPC   C3B67965  20.939  31.975   7.058
 5353POPC   C4B67966  20.632  31.945   7.412
 5354POPC   NC367967  43.157  44.228   5.335
 5354POPC   PO467968  43.080  43.542   5.393
 5354POPC   GL167969  42.946  43.880   5.714
 5354POPC   GL267970  43.266  43.992   5.787
 5354POPC   C1A67971  42.965  44.019   6.211
 5354POPC   D2A67972  43.196  44.048   6.639
 5354POPC   C3A67973  42.883  43.986   6.971
 5354POPC   C4A67974  42.789  43.597   7.189
 5354POPC   C1B67975  43.180  43.593   6.051
 5354POPC   C2B67976  43.135  43.553   6.511
 5354POPC   C3B67977  43.237  43.590   6.951
 5354POPC   C4B67978  43.223  43.862   7.335
 5355POPC   NC367979  15.934   8.733   5.394
 5355POPC   PO467980  16.034   9.462   5.284
 5355POPC   GL167981  15.901   9.216   5.705
 5355POPC   GL267982  15.931   8.873   5.875
 5355POPC   C1A67983  15.742   9.252   6.156
 5355POPC   D2A67984  15.514   9.142   6.556
 5355POPC   C3A67985  15.729   9.143   6.965
 5355POPC   C4A67986  15.846   8.975   7.385
 5355POPC   C1B67987  15.725   8.732   6.263
 5355POPC   C2B67988  15.913   8.750   6.673
 5355POPC   C3B67989  15.776   8.583   7.071
 5355POPC   C4B67990  15.632   8.504   7.496
 5356POPC   NC367991  20.469  44.974   5.441
 5356POPC   PO467992  20.806  44.485   5.018
 5356POPC   GL167993  20.789  44.578   5.505
 5356POPC   GL267994  20.636  44.304   5.713
 5356POPC   C1A67995  20.840  44.699   5.994
 5356POPC   D2A67996  20.911  44.596   6.464
 5356POPC   C3A67997  20.820  44.776   6.898
 5356POPC   C4A67998  20.668  44.652   7.287
 5356POPC   C1B67999  20.542  44.331   6.166
 5356POPC   C2B68000  20.279  44.277   6.517
 5356POPC   C3B68001  20.315  44.432   6.931
 5356POPC   C4B68002  20.177  44.267   7.280
 5357POPC   NC368003  26.409  23.807   5.393
 5357POPC   PO468004  27.062  23.704   5.438
 5357POPC   GL168005  26.752  23.674   5.795
 5357POPC   GL268006  26.673  24.017   5.847
 5357POPC   C1A68007  26.667  23.690   6.263
 5357POPC   D2A68008  26.895  23.799   6.649
 5357POPC   C3A68009  26.803  23.520   6.988
 5357POPC   C4A68010  26.890  23.210   7.297
 5357POPC   C1B68011  26.850  24.180   6.252
 5357POPC   C2B68012  26.686  24.255   6.683
 5357POPC   C3B68013  26.790  24.053   7.127
 5357POPC   C4B68014  26.529  23.921   7.537
 5358POPC   NC368015  25.733  37.327   5.365
 5358POPC   PO468016  26.373  37.649   5.410
 5358POPC   GL168017  26.395  37.741   5.797
 5358POPC   GL268018  26.383  37.405   5.854
 5358POPC   C1A68019  26.184  37.797   6.175
 5358POPC   D2A68020  26.062  38.071   6.509
 5358POPC   C3A68021  26.040  37.833   6.863
 5358POPC   C4A68022  26.043  37.905   7.289
 5358POPC   C1B68023  26.525  37.410   6.239
 5358POPC   C2B68024  26.412  37.276   6.649
 5358POPC   C3B68025  26.239  37.398   7.056
 5358POPC   C4B68026  25.904  37.406   7.302
 5359POPC   NC368027  40.233   6.709   5.284
 5359POPC   PO468028  39.993   7.319   5.379
 5359POPC   GL168029  39.881   6.926   5.618
 5359POPC   GL268030  39.717   7.080   5.906
 5359POPC   C1A68031  40.002   6.590   5.968
 5359POPC   D2A68032  40.154   6.540   6.435
 5359POPC   C3A68033  39.872   6.618   6.783
 5359POPC   C4A68034  39.952   6.724   7.230
 5359POPC   C1B68035  39.822   6.932   6.313
 5359POPC   C2B68036  39.745   7.100   6.713
 5359POPC   C3B68037  39.523   6.947   7.112
 5359POPC   C4B68038  39.601   6.838   7.590
 5360POPC   NC368039  26.875  10.476   5.528
 5360POPC   PO468040  26.269  10.826   5.546
 5360POPC   GL168041  26.627  10.736   5.882
 5360POPC   GL268042  26.968  10.921   5.866
 5360POPC   C1A68043  26.815  10.439   6.274
 5360POPC   D2A68044  27.091  10.385   6.706
 5360POPC   C3A68045  27.049  10.392   7.177
 5360POPC   C4A68046  27.181  10.325   7.686
 5360POPC   C1B68047  26.797  10.938   6.305
 5360POPC   C2B68048  26.715  10.769   6.756
 5360POPC   C3B68049  26.717  10.877   7.215
 5360POPC   C4B68050  26.503  10.927   7.663
 5361POPC   NC368051   4.658  42.691   5.515
 5361POPC   PO468052   4.198  42.144   5.442
 5361POPC   GL168053   4.249  42.314   5.849
 5361POPC   GL268054   4.462  42.597   5.953
 5361POPC   C1A68055   4.060  42.330   6.222
 5361POPC   D2A68056   4.078  42.111   6.594
 5361POPC   C3A68057   3.934  42.456   6.845
 5361POPC   C4A68058   4.136  42.508   7.205
 5361POPC   C1B68059   4.580  42.429   6.279
 5361POPC   C2B68060   4.416  42.469   6.659
 5361POPC   C3B68061   4.540  42.282   7.006
 5361POPC   C4B68062   4.780  42.417   7.348
 5362POPC   NC368063  38.403  41.786   5.277
 5362POPC   PO468064  38.877  41.409   5.559
 5362POPC   GL168065  38.648  41.581   5.902
 5362POPC   GL268066  38.350  41.810   5.813
 5362POPC   C1A68067  38.593  41.481   6.305
 5362POPC   D2A68068  38.284  41.550   6.584
 5362POPC   C3A68069  38.296  41.296   6.927
 5362POPC   C4A68070  38.610  41.398   7.202
 5362POPC   C1B68071  38.092  41.899   6.211
 5362POPC   C2B68072  38.185  42.043   6.675
 5362POPC   C3B68073  38.283  41.809   7.081
 5362POPC   C4B68074  38.049  41.472   7.341
 5363POPC   NC368075   3.822  20.018   5.371
 5363POPC   PO468076   3.401  19.547   5.202
 5363POPC   GL168077   3.659  19.709   5.704
 5363POPC   GL268078   3.465  19.617   6.020
 5363POPC   C1A68079   3.815  19.990   6.035
 5363POPC   D2A68080   3.701  20.083   6.468
 5363POPC   C3A68081   4.027  19.993   6.783
 5363POPC   C4A68082   3.892  20.037   7.220
 5363POPC   C1B68083   3.097  19.716   6.252
 5363POPC   C2B68084   3.236  19.792   6.624
 5363POPC   C3B68085   3.558  19.786   6.886
 5363POPC   C4B68086   3.354  19.952   7.192
 5364POPC   NC368087  12.077  16.942   5.165
 5364POPC   PO468088  11.916  16.352   5.302
 5364POPC   GL168089  11.989  16.562   5.759
 5364POPC   GL268090  12.113  16.877   5.860
 5364POPC   C1A68091  12.347  16.545   6.122
 5364POPC   D2A68092  12.241  16.415   6.519
 5364POPC   C3A68093  12.408  16.547   6.928
 5364POPC   C4A68094  12.121  16.682   7.259
 5364POPC   C1B68095  11.894  17.046   6.164
 5364POPC   C2B68096  12.137  16.929   6.454
 5364POPC   C3B68097  12.150  16.983   6.852
 5364POPC   C4B68098  11.969  17.180   7.203
 5365POPC   NC368099   0.639  13.021   5.089
 5365POPC   PO468100   0.325  12.629   5.612
 5365POPC   GL168101   0.355  12.822   5.992
 5365POPC   GL268102   0.148  13.078   5.839
 5365POPC   C1A68103   0.506  12.875   6.421
 5365POPC   D2A68104   0.665  12.695   6.832
 5365POPC   C3A68105   0.591  12.736   7.300
 5365POPC   C4A68106   0.565  13.108   7.606
 5365POPC   C1B68107   0.123  13.210   6.277
 5365POPC   C2B68108   0.305  13.263   6.698
 5365POPC   C3B68109   0.255  13.062   7.111
 5365POPC   C4B68110   0.068  13.012   7.542
 5366POPC   NC368111   8.733  22.314   5.383
 5366POPC   PO468112   9.229  21.845   5.333
 5366POPC   GL168113   9.143  22.096   5.710
 5366POPC   GL268114   9.410  22.304   5.781
 5366POPC   C1A68115   9.197  22.005   6.183
 5366POPC   D2A68116   8.997  22.008   6.585
 5366POPC   C3A68117   9.123  22.092   6.989
 5366POPC   C4A68118   8.831  22.132   7.286
 5366POPC   C1B68119   9.263  22.500   6.152
 5366POPC   C2B68120   9.327  22.410   6.588
 5366POPC   C3B68121   9.108  22.607   6.923
 5366POPC   C4B68122   9.117  22.530   7.370
 5367POPC   NC368123  14.045  44.189   5.512
 5367POPC   PO468124  14.288  44.883   5.343
 5367POPC   GL168125  14.334  44.585   5.706
 5367POPC   GL268126  14.642  44.418   5.789
 5367POPC   C1A68127  14.268  44.392   6.143
 5367POPC   D2A68128  14.134  44.262   6.576
 5367POPC   C3A68129  14.304  44.428   6.987
 5367POPC   C4A68130  14.302  44.804   7.290
 5367POPC   C1B68131  14.775  44.484   6.220
 5367POPC   C2B68132  14.804  44.445   6.652
 5367POPC   C3B68133  14.690  44.774   6.919
 5367POPC   C4B68134  14.791  44.833   7.312
 5368POPC   NC368135  14.960  13.281   5.432
 5368POPC   PO468136  15.394  12.778   5.392
 5368POPC   GL168137  15.255  12.820   5.848
 5368POPC   GL268138  14.969  13.070   5.913
 5368POPC   C1A68139  15.283  12.916   6.322
 5368POPC   D2A68140  15.484  12.904   6.740
 5368POPC   C3A68141  15.345  12.734   7.124
 5368POPC   C4A68142  15.325  12.791   7.597
 5368POPC   C1B68143  14.805  13.121   6.350
 5368POPC   C2B68144  14.943  12.925   6.759
 5368POPC   C3B68145  15.029  13.141   7.163
 5368POPC   C4B68146  14.839  13.159   7.619
 5369POPC   NC368147  14.855  39.907   5.557
 5369POPC   PO468148  15.420  40.282   5.424
 5369POPC   GL168149  15.227  40.170   5.867
 5369POPC   GL268150  15.059  39.828   6.010
 5369POPC   C1A68151  15.171  40.195   6.338
 5369POPC   D2A68152  15.012  40.132   6.789
 5369POPC   C3A68153  15.262  39.954   7.142
 5369POPC   C4A68154  15.203  40.080   7.587
 5369POPC   C1B68155  14.790  39.871   6.400
 5369POPC   C2B68156  14.597  39.712   6.759
 5369POPC   C3B68157  14.757  39.816   7.155
 5369POPC   C4B68158  14.974  39.602   7.506
 5370POPC   NC368159  25.094   6.413   5.161
 5370POPC   PO468160  25.157   6.992   5.549
 5370POPC   GL168161  25.371   6.935   5.947
 5370POPC   GL268162  25.247   6.616   6.096
 5370POPC   C1A68163  25.525   6.887   6.387
 5370POPC   D2A68164  25.263   6.605   6.609
 5370POPC   C3A68165  25.326   6.510   7.001
 5370POPC   C4A68166  25.544   6.398   7.335
 5370POPC   C1B68167  24.872   6.400   6.294
 5370POPC   C2B68168  24.763   6.359   6.746
 5370POPC   C3B68169  24.928   6.195   7.119
 5370POPC   C4B68170  25.019   6.484   7.415
 5371POPC   NC368171  15.526  22.791   5.523
 5371POPC   PO468172  15.065  23.282   5.450
 5371POPC   GL168173  15.282  23.137   5.826
 5371POPC   GL268174  15.100  22.809   5.809
 5371POPC   C1A68175  15.461  23.109   6.270
 5371POPC   D2A68176  15.466  23.258   6.715
 5371POPC   C3A68177  15.508  22.901   7.001
 5371POPC   C4A68178  15.383  22.754   7.393
 5371POPC   C1B68179  14.986  22.936   6.224
 5371POPC   C2B68180  15.147  22.875   6.631
 5371POPC   C3B68181  15.004  22.935   7.056
 5371POPC   C4B68182  14.703  22.748   7.315
 5372POPC   NC368183   7.707   4.657   5.440
 5372POPC   PO468184   7.200   5.068   5.440
 5372POPC   GL168185   7.255   5.179   5.830
 5372POPC   GL268186   7.585   5.039   5.813
 5372POPC   C1A68187   7.212   4.957   6.222
 5372POPC   D2A68188   6.937   4.952   6.604
 5372POPC   C3A68189   7.205   5.061   6.958
 5372POPC   C4A68190   7.300   4.844   7.297
 5372POPC   C1B68191   7.761   4.815   6.130
 5372POPC   C2B68192   7.659   4.979   6.540
 5372POPC   C3B68193   7.776   5.141   6.925
 5372POPC   C4B68194   7.792   5.385   7.277
 5373POPC   NC368195  11.840  37.238   5.509
 5373POPC   PO468196  11.330  37.640   5.450
 5373POPC   GL168197  11.434  37.798   5.863
 5373POPC   GL268198  11.745  37.671   5.796
 5373POPC   C1A68199  11.462  37.583   6.261
 5373POPC   D2A68200  11.408  37.571   6.707
 5373POPC   C3A68201  11.157  37.395   7.037
 5373POPC   C4A68202  11.124  37.741   7.329
 5373POPC   C1B68203  11.885  37.896   6.148
 5373POPC   C2B68204  11.653  37.988   6.516
 5373POPC   C3B68205  11.739  37.938   6.937
 5373POPC   C4B68206  11.616  37.621   7.174
 5374POPC   NC368207  25.904  23.029   5.312
 5374POPC   PO468208  26.101  22.480   5.575
 5374POPC   GL168209  25.910  22.790   5.844
 5374POPC   GL268210  26.017  23.146   5.791
 5374POPC   C1A68211  26.017  22.814   6.283
 5374POPC   D2A68212  26.182  22.852   6.692
 5374POPC   C3A68213  25.908  22.734   6.999
 5374POPC   C4A68214  25.772  22.877   7.380
 5374POPC   C1B68215  25.787  23.248   6.147
 5374POPC   C2B68216  25.717  23.128   6.557
 5374POPC   C3B68217  25.861  23.248   6.928
 5374POPC   C4B68218  25.866  23.378   7.315
 5375POPC   NC368219  26.106  41.099   5.461
 5375POPC   PO468220  25.867  40.463   5.583
 5375POPC   GL168221  26.071  40.746   5.830
 5375POPC   GL268222  25.898  40.981   5.913
 5375POPC   C1A68223  26.284  40.942   6.212
 5375POPC   D2A68224  26.350  40.695   6.589
 5375POPC   C3A68225  26.178  40.824   6.969
 5375POPC   C4A68226  26.251  40.849   7.402
 5375POPC   C1B68227  25.901  40.593   6.272
 5375POPC   C2B68228  25.863  40.368   6.669
 5375POPC   C3B68229  25.882  40.414   7.094
 5375POPC   C4B68230  25.746  40.806   7.281
 5376POPC   NC368231  39.164  33.214   5.445
 5376POPC   PO468232  39.145  32.552   5.308
 5376POPC   GL168233  39.077  32.710   5.751
 5376POPC   GL268234  39.277  33.008   5.898
 5376POPC   C1A68235  39.027  32.692   6.221
 5376POPC   D2A68236  38.890  32.780   6.652
 5376POPC   C3A68237  39.159  33.047   6.880
 5376POPC   C4A68238  39.078  33.121   7.293
 5376POPC   C1B68239  39.199  33.261   6.298
 5376POPC   C2B68240  39.072  33.514   6.674
 5376POPC   C3B68241  39.263  33.557   7.062
 5376POPC   C4B68242  39.294  33.647   7.499
 5377POPC   NC368243   2.652  32.925   5.510
 5377POPC   PO468244   3.309  33.116   5.683
 5377POPC   GL168245   2.971  33.159   5.911
 5377POPC   GL268246   2.919  32.798   5.940
 5377POPC   C1A68247   2.986  33.195   6.350
 5377POPC   D2A68248   3.077  32.913   6.662
 5377POPC   C3A68249   3.084  33.174   6.998
 5377POPC   C4A68250   3.314  33.092   7.298
 5377POPC   C1B68251   2.566  32.965   6.190
 5377POPC   C2B68252   2.558  32.968   6.640
 5377POPC   C3B68253   2.714  32.835   7.041
 5377POPC   C4B68254   2.698  33.150   7.378
 5378POPC   NC368255   6.971  11.115   5.494
 5378POPC   PO468256   7.449  11.647   5.435
 5378POPC   GL168257   7.519  11.393   5.840
 5378POPC   GL268258   7.425  11.027   5.811
 5378POPC   C1A68259   7.429  11.352   6.294
 5378POPC   D2A68260   7.591  11.178   6.701
 5378POPC   C3A68261   7.338  11.168   7.063
 5378POPC   C4A68262   7.077  11.522   7.176
 5378POPC   C1B68263   7.663  10.915   6.202
 5378POPC   C2B68264   7.639  10.684   6.587
 5378POPC   C3B68265   7.684  10.730   7.026
 5378POPC   C4B68266   7.841  11.081   7.188
 5379POPC   NC368267   7.015  39.475   5.645
 5379POPC   PO468268   6.494  39.467   5.267
 5379POPC   GL168269   6.453  39.261   5.740
 5379POPC   GL268270   6.742  39.128   5.905
 5379POPC   C1A68271   6.443  39.372   6.235
 5379POPC   D2A68272   6.574  39.591   6.653
 5379POPC   C3A68273   6.732  39.427   7.070
 5379POPC   C4A68274   6.798  39.388   7.551
 5379POPC   C1B68275   6.511  38.865   6.188
 5379POPC   C2B68276   6.625  39.041   6.584
 5379POPC   C3B68277   6.662  38.907   6.965
 5379POPC   C4B68278   6.858  38.950   7.306
 5380POPC   NC368279  22.252  28.107   5.228
 5380POPC   PO468280  21.768  28.538   5.324
 5380POPC   GL168281  22.078  28.398   5.670
 5380POPC   GL268282  22.458  28.483   5.711
 5380POPC   C1A68283  22.064  28.512   6.131
 5380POPC   D2A68284  21.787  28.353   6.447
 5380POPC   C3A68285  21.865  28.300   6.891
 5380POPC   C4A68286  22.049  28.480   7.280
 5380POPC   C1B68287  22.492  28.254   6.123
 5380POPC   C2B68288  22.288  28.201   6.525
 5380POPC   C3B68289  22.375  28.321   6.929
 5380POPC   C4B68290  22.467  28.193   7.359
 5381POPC   NC368291  33.982  29.535   5.377
 5381POPC   PO468292  33.475  29.899   5.493
 5381POPC   GL168293  33.827  29.856   5.778
 5381POPC   GL268294  33.920  30.183   5.811
 5381POPC   C1A68295  34.035  29.687   6.166
 5381POPC   D2A68296  33.961  29.835   6.606
 5381POPC   C3A68297  34.160  29.734   6.994
 5381POPC   C4A68298  33.953  29.704   7.415
 5381POPC   C1B68299  33.763  30.147   6.248
 5381POPC   C2B68300  33.653  30.236   6.710
 5381POPC   C3B68301  33.678  29.984   7.098
 5381POPC   C4B68302  33.635  30.091   7.545
 5382POPC   NC368303  10.863   8.151   5.513
 5382POPC   PO468304  10.238   8.188   5.280
 5382POPC   GL168305  10.226   8.291   5.711
 5382POPC   GL268306  10.449   8.001   5.766
 5382POPC   C1A68307  10.297   8.265   6.174
 5382POPC   D2A68308  10.609   8.369   6.474
 5382POPC   C3A68309  10.529   8.440   6.910
 5382POPC   C4A68310  10.313   8.365   7.299
 5382POPC   C1B68311  10.744   7.960   6.145
 5382POPC   C2B68312  10.644   7.869   6.567
 5382POPC   C3B68313  10.803   7.962   6.956
 5382POPC   C4B68314  10.822   8.217   7.276
 5383POPC   NC368315   4.656  19.466   5.400
 5383POPC   PO468316   5.300  19.894   5.358
 5383POPC   GL168317   4.900  19.899   5.624
 5383POPC   GL268318   4.969  19.591   5.796
 5383POPC   C1A68319   4.778  19.947   6.094
 5383POPC   D2A68320   5.119  20.031   6.396
 5383POPC   C3A68321   5.049  20.144   6.817
 5383POPC   C4A68322   5.092  19.926   7.188
 5383POPC   C1B68323   5.016  19.491   6.250
 5383POPC   C2B68324   5.146  19.601   6.691
 5383POPC   C3B68325   5.024  19.402   7.085
 5383POPC   C4B68326   4.965  19.535   7.525
 5384POPC   NC368327  32.997  36.500   5.624
 5384POPC   PO468328  32.920  37.148   5.433
 5384POPC   GL168329  32.893  36.954   5.842
 5384POPC   GL268330  33.207  36.833   5.989
 5384POPC   C1A68331  32.810  37.115   6.249
 5384POPC   D2A68332  33.114  37.278   6.541
 5384POPC   C3A68333  33.161  37.015   6.894
 5384POPC   C4A68334  32.988  36.888   7.283
 5384POPC   C1B68335  33.268  36.781   6.443
 5384POPC   C2B68336  33.208  36.507   6.825
 5384POPC   C3B68337  33.275  36.463   7.268
 5384POPC   C4B68338  33.141  36.598   7.691
 5385POPC   NC368339  15.418  26.192   5.437
 5385POPC   PO468340  14.781  25.922   5.575
 5385POPC   GL168341  15.078  25.927   5.908
 5385POPC   GL268342  15.193  26.215   5.905
 5385POPC   C1A68343  15.283  25.800   6.275
 5385POPC   D2A68344  15.332  25.897   6.724
 5385POPC   C3A68345  14.949  25.765   6.962
 5385POPC   C4A68346  14.811  25.777   7.402
 5385POPC   C1B68347  15.411  26.311   6.289
 5385POPC   C2B68348  15.704  26.290   6.603
 5385POPC   C3B68349  15.474  26.335   6.968
 5385POPC   C4B68350  15.294  26.059   7.272
 5386POPC   NC368351  25.035   8.117   5.423
 5386POPC   PO468352  25.610   8.478   5.536
 5386POPC   GL168353  25.404   8.191   5.802
 5386POPC   GL268354  25.021   8.199   5.918
 5386POPC   C1A68355  25.417   8.209   6.238
 5386POPC   D2A68356  25.105   8.212   6.513
 5386POPC   C3A68357  25.221   8.065   6.915
 5386POPC   C4A68358  25.364   8.295   7.248
 5386POPC   C1B68359  24.951   8.596   6.140
 5386POPC   C2B68360  24.988   8.723   6.574
 5386POPC   C3B68361  24.980   8.544   6.985
 5386POPC   C4B68362  24.894   8.555   7.433
 5387POPC   NC368363  35.884  34.101   5.503
 5387POPC   PO468364  36.033  34.734   5.253
 5387POPC   GL168365  36.080  34.571   5.670
 5387POPC   GL268366  35.746  34.649   5.739
 5387POPC   C1A68367  36.193  34.447   6.095
 5387POPC   D2A68368  36.178  34.264   6.516
 5387POPC   C3A68369  36.300  34.444   6.898
 5387POPC   C4A68370  35.982  34.267   7.177
 5387POPC   C1B68371  35.854  34.875   6.120
 5387POPC   C2B68372  36.071  34.775   6.469
 5387POPC   C3B68373  36.036  34.894   6.849
 5387POPC   C4B68374  36.001  34.764   7.215
 5388POPC   NC368375  12.626  10.825   5.364
 5388POPC   PO468376  13.103  10.341   5.402
 5388POPC   GL168377  12.925  10.462   5.755
 5388POPC   GL268378  13.052  10.790   5.707
 5388POPC   C1A68379  12.985  10.361   6.179
 5388POPC   D2A68380  12.821  10.445   6.585
 5388POPC   C3A68381  13.063  10.402   6.954
 5388POPC   C4A68382  13.050  10.350   7.395
 5388POPC   C1B68383  12.778  10.833   6.077
 5388POPC   C2B68384  12.818  10.951   6.513
 5388POPC   C3B68385  12.621  10.886   6.932
 5388POPC   C4B68386  12.665  10.736   7.364
 5389POPC   NC368387  17.597  37.389   5.397
 5389POPC   PO468388  17.558  38.089   5.518
 5389POPC   GL168389  17.476  37.792   5.841
 5389POPC   GL268390  17.142  37.615   5.742
 5389POPC   C1A68391  17.705  37.725   6.267
 5389POPC   D2A68392  17.854  37.703   6.716
 5389POPC   C3A68393  17.622  37.743   7.077
 5389POPC   C4A68394  17.560  37.618   7.480
 5389POPC   C1B68395  17.227  37.527   6.216
 5389POPC   C2B68396  17.370  37.525   6.670
 5389POPC   C3B68397  17.244  37.414   7.108
 5389POPC   C4B68398  17.319  37.170   7.489
 5390POPC   NC368399   3.082  36.743   5.200
 5390POPC   PO468400   2.541  37.137   5.387
 5390POPC   GL168401   2.620  37.003   5.795
 5390POPC   GL268402   2.284  36.907   5.845
 5390POPC   C1A68403   2.825  37.088   6.210
 5390POPC   D2A68404   3.000  37.246   6.620
 5390POPC   C3A68405   2.964  36.935   6.943
 5390POPC   C4A68406   2.983  36.712   7.327
 5390POPC   C1B68407   2.370  36.814   6.244
 5390POPC   C2B68408   2.549  36.880   6.631
 5390POPC   C3B68409   2.431  36.807   7.050
 5390POPC   C4B68410   2.497  36.725   7.474
 5391POPC   NC368411  14.648  26.393   5.512
 5391POPC   PO468412  13.970  26.321   5.541
 5391POPC   GL168413  14.334  26.085   5.806
 5391POPC   GL268414  14.659  26.221   5.976
 5391POPC   C1A68415  14.424  25.836   6.198
 5391POPC   D2A68416  14.280  25.632   6.598
 5391POPC   C3A68417  14.416  25.766   7.020
 5391POPC   C4A68418  14.144  26.048   7.262
 5391POPC   C1B68419  14.902  26.175   6.361
 5391POPC   C2B68420  14.933  26.260   6.814
 5391POPC   C3B68421  14.650  26.236   7.175
 5391POPC   C4B68422  14.535  26.178   7.603
 5392POPC   NC368423   7.099  31.935   5.703
 5392POPC   PO468424   7.315  32.378   5.235
 5392POPC   GL168425   7.367  32.379   5.742
 5392POPC   GL268426   7.563  32.146   5.859
 5392POPC   C1A68427   7.276  32.284   6.243
 5392POPC   D2A68428   7.205  32.419   6.677
 5392POPC   C3A68429   7.043  32.129   7.000
 5392POPC   C4A68430   7.204  32.204   7.379
 5392POPC   C1B68431   7.726  32.506   6.100
 5392POPC   C2B68432   7.677  32.637   6.539
 5392POPC   C3B68433   7.680  32.409   6.935
 5392POPC   C4B68434   7.681  32.368   7.382
 5393POPC   NC368435   0.974  24.962   5.041
 5393POPC   PO468436   1.513  25.112   5.485
 5393POPC   GL168437   1.171  25.305   5.785
 5393POPC   GL268438   0.957  25.635   5.839
 5393POPC   C1A68439   1.269  25.269   6.217
 5393POPC   D2A68440   1.317  24.973   6.524
 5393POPC   C3A68441   1.253  25.074   6.939
 5393POPC   C4A68442   0.943  24.910   7.218
 5393POPC   C1B68443   1.168  25.754   6.293
 5393POPC   C2B68444   1.411  25.596   6.674
 5393POPC   C3B68445   1.234  25.544   7.090
 5393POPC   C4B68446   0.895  25.760   7.220
 5394POPC   NC368447  17.221  28.388   5.403
 5394POPC   PO468448  16.576  28.066   5.503
 5394POPC   GL168449  16.801  28.301   5.825
 5394POPC   GL268450  16.908  28.652   5.810
 5394POPC   C1A68451  16.641  28.399   6.253
 5394POPC   D2A68452  16.712  28.551   6.679
 5394POPC   C3A68453  16.606  28.288   7.052
 5394POPC   C4A68454  16.813  28.119   7.448
 5394POPC   C1B68455  17.124  28.561   6.210
 5394POPC   C2B68456  17.234  28.493   6.674
 5394POPC   C3B68457  17.064  28.488   7.132
 5394POPC   C4B68458  17.063  28.527   7.628
 5395POPC   NC368459  37.541  37.773   5.487
 5395POPC   PO468460  38.056  37.454   5.344
 5395POPC   GL168461  37.880  37.538   5.791
 5395POPC   GL268462  37.844  37.884   5.881
 5395POPC   C1A68463  37.720  37.522   6.245
 5395POPC   D2A68464  37.922  37.438   6.643
 5395POPC   C3A68465  37.661  37.408   7.030
 5395POPC   C4A68466  37.832  37.361   7.483
 5395POPC   C1B68467  37.813  38.045   6.282
 5395POPC   C2B68468  37.620  37.884   6.614
 5395POPC   C3B68469  37.383  37.845   6.959
 5395POPC   C4B68470  37.570  37.807   7.363
 5396POPC   NC368471   6.363  29.817   5.378
 5396POPC   PO468472   6.450  30.457   5.354
 5396POPC   GL168473   6.657  30.236   5.737
 5396POPC   GL268474   6.874  29.908   5.804
 5396POPC   C1A68475   6.593  30.133   6.183
 5396POPC   D2A68476   6.680  29.855   6.529
 5396POPC   C3A68477   6.599  30.098   6.884
 5396POPC   C4A68478   6.354  30.124   7.233
 5396POPC   C1B68479   7.040  29.663   6.188
 5396POPC   C2B68480   7.016  29.469   6.620
 5396POPC   C3B68481   6.958  29.724   6.986
 5396POPC   C4B68482   6.933  30.121   7.263
 5397POPC   NC368483   7.303  21.635   5.571
 5397POPC   PO468484   7.775  21.241   5.524
 5397POPC   GL168485   7.579  21.347   5.900
 5397POPC   GL268486   7.208  21.250   5.926
 5397POPC   C1A68487   7.637  21.541   6.303
 5397POPC   D2A68488   7.436  21.517   6.699
 5397POPC   C3A68489   7.374  21.146   6.951
 5397POPC   C4A68490   7.239  21.402   7.294
 5397POPC   C1B68491   7.134  21.610   6.251
 5397POPC   C2B68492   6.995  21.789   6.662
 5397POPC   C3B68493   6.933  21.778   7.135
 5397POPC   C4B68494   6.806  21.519   7.535
 5398POPC   NC368495  32.541  16.895   5.363
 5398POPC   PO468496  31.894  16.467   5.298
 5398POPC   GL168497  32.180  16.583   5.639
 5398POPC   GL268498  32.223  16.945   5.751
 5398POPC   C1A68499  32.239  16.591   6.112
 5398POPC   D2A68500  32.119  16.796   6.505
 5398POPC   C3A68501  32.129  16.663   6.933
 5398POPC   C4A68502  32.008  16.703   7.368
 5398POPC   C1B68503  32.421  17.087   6.165
 5398POPC   C2B68504  32.403  17.199   6.618
 5398POPC   C3B68505  32.366  17.102   7.070
 5398POPC   C4B68506  32.313  17.089   7.528
 5399POPC   NC368507  10.643   4.124   5.260
 5399POPC   PO468508  10.187   4.662   5.443
 5399POPC   GL168509  10.574   4.524   5.778
 5399POPC   GL268510  10.628   4.138   5.789
 5399POPC   C1A68511  10.717   4.376   6.211
 5399POPC   D2A68512  10.447   4.360   6.561
 5399POPC   C3A68513  10.667   4.277   6.915
 5399POPC   C4A68514  10.906   4.333   7.263
 5399POPC   C1B68515  10.352   3.997   6.229
 5399POPC   C2B68516  10.322   3.865   6.709
 5399POPC   C3B68517  10.390   3.896   7.122
 5399POPC   C4B68518  10.435   4.222   7.386
 5400POPC   NC368519  41.925  23.857   5.260
 5400POPC   PO468520  41.407  23.466   5.426
 5400POPC   GL168521  41.430  23.687   5.873
 5400POPC   GL268522  41.189  23.979   5.906
 5400POPC   C1A68523  41.632  23.668   6.308
 5400POPC   D2A68524  41.941  23.689   6.647
 5400POPC   C3A68525  41.774  23.689   7.035
 5400POPC   C4A68526  41.609  23.347   7.279
 5400POPC   C1B68527  41.226  23.995   6.331
 5400POPC   C2B68528  41.451  23.954   6.709
 5400POPC   C3B68529  41.274  23.793   7.079
 5400POPC   C4B68530  41.457  23.792   7.478
 5401POPC   NC368531  40.335  44.328   5.332
 5401POPC   PO468532  40.827  43.756   5.498
 5401POPC   GL168533  40.858  43.949   5.878
 5401POPC   GL268534  40.573  44.140   5.814
 5401POPC   C1A68535  41.097  44.059   6.269
 5401POPC   D2A68536  41.294  43.909   6.632
 5401POPC   C3A68537  41.154  43.993   7.028
 5401POPC   C4A68538  41.069  43.879   7.470
 5401POPC   C1B68539  40.522  43.971   6.272
 5401POPC   C2B68540  40.707  43.959   6.693
 5401POPC   C3B68541  40.662  43.853   7.137
 5401POPC   C4B68542  40.589  44.132   7.508
 5402POPC   NC368543  33.174   7.651   5.074
 5402POPC   PO468544  32.948   8.239   5.352
 5402POPC   GL168545  33.021   8.199   5.815
 5402POPC   GL268546  33.348   8.367   5.820
 5402POPC   C1A68547  32.979   8.001   6.238
 5402POPC   D2A68548  32.951   7.802   6.659
 5402POPC   C3A68549  33.099   7.932   7.089
 5402POPC   C4A68550  33.029   7.995   7.587
 5402POPC   C1B68551  33.305   8.417   6.238
 5402POPC   C2B68552  33.221   8.248   6.633
 5402POPC   C3B68553  33.408   8.427   6.971
 5402POPC   C4B68554  33.347   8.325   7.358
 5403POPC   NC368555  24.193  22.943   5.141
 5403POPC   PO468556  24.646  22.896   5.603
 5403POPC   GL168557  24.392  23.002   5.862
 5403POPC   GL268558  24.313  23.297   5.699
 5403POPC   C1A68559  24.389  22.947   6.290
 5403POPC   D2A68560  24.635  22.943   6.599
 5403POPC   C3A68561  24.457  22.860   6.967
 5403POPC   C4A68562  24.686  22.705   7.306
 5403POPC   C1B68563  24.514  23.409   6.117
 5403POPC   C2B68564  24.442  23.418   6.550
 5403POPC   C3B68565  24.302  23.337   6.961
 5403POPC   C4B68566  24.360  23.138   7.377
 5404POPC   NC368567   6.190  24.235   5.566
 5404POPC   PO468568   6.225  23.520   5.384
 5404POPC   GL168569   5.970  23.762   5.662
 5404POPC   GL268570   5.634  23.624   5.740
 5404POPC   C1A68571   6.018  23.905   6.108
 5404POPC   D2A68572   5.819  23.806   6.487
 5404POPC   C3A68573   5.918  23.778   6.929
 5404POPC   C4A68574   5.691  23.949   7.315
 5404POPC   C1B68575   5.939  23.407   6.031
 5404POPC   C2B68576   5.961  23.278   6.452
 5404POPC   C3B68577   5.941  23.253   6.885
 5404POPC   C4B68578   5.841  23.428   7.287
 5405POPC   NC368579  22.600  27.694   5.392
 5405POPC   PO468580  23.245  27.425   5.361
 5405POPC   GL168581  23.091  27.632   5.729
 5405POPC   GL268582  22.736  27.593   5.877
 5405POPC   C1A68583  23.194  27.576   6.156
 5405POPC   D2A68584  22.928  27.562   6.516
 5405POPC   C3A68585  23.132  27.621   6.918
 5405POPC   C4A68586  22.924  27.686   7.316
 5405POPC   C1B68587  22.657  27.238   6.160
 5405POPC   C2B68588  22.716  27.102   6.599
 5405POPC   C3B68589  22.659  27.382   6.950
 5405POPC   C4B68590  22.618  27.251   7.356
 5406POPC   NC368591  30.200  31.066   5.512
 5406POPC   PO468592  29.894  31.587   5.418
 5406POPC   GL168593  29.886  31.378   5.845
 5406POPC   GL268594  30.156  31.187   6.026
 5406POPC   C1A68595  29.842  31.568   6.268
 5406POPC   D2A68596  29.766  31.735   6.701
 5406POPC   C3A68597  29.932  31.514   7.063
 5406POPC   C4A68598  29.852  31.257   7.447
 5406POPC   C1B68599  30.269  30.982   6.412
 5406POPC   C2B68600  30.162  31.050   6.855
 5406POPC   C3B68601  30.361  31.256   7.225
 5406POPC   C4B68602  30.302  31.360   7.681
 5407POPC   NC368603  11.091  18.432   5.194
 5407POPC   PO468604  11.523  17.926   5.383
 5407POPC   GL168605  11.370  18.040   5.767
 5407POPC   GL268606  11.207  18.363   5.703
 5407POPC   C1A68607  11.546  18.085   6.180
 5407POPC   D2A68608  11.729  17.905   6.546
 5407POPC   C3A68609  11.517  17.960   6.937
 5407POPC   C4A68610  11.326  17.975   7.336
 5407POPC   C1B68611  11.085  18.340   6.139
 5407POPC   C2B68612  11.126  18.127   6.554
 5407POPC   C3B68613  11.093  18.286   6.994
 5407POPC   C4B68614  11.430  18.478   7.254
 5408POPC   NC368615   3.176  18.687   5.416
 5408POPC   PO468616   3.434  19.280   5.647
 5408POPC   GL168617   3.386  18.961   5.933
 5408POPC   GL268618   3.084  18.732   5.928
 5408POPC   C1A68619   3.651  19.029   6.302
 5408POPC   D2A68620   3.645  19.352   6.616
 5408POPC   C3A68621   3.615  19.185   7.026
 5408POPC   C4A68622   3.642  19.077   7.452
 5408POPC   C1B68623   3.321  18.611   6.301
 5408POPC   C2B68624   3.429  18.786   6.708
 5408POPC   C3B68625   3.633  18.672   7.091
 5408POPC   C4B68626   3.332  18.674   7.422
 5409POPC   NC368627  17.998  43.854   5.374
 5409POPC   PO468628  18.533  44.235   5.423
 5409POPC   GL168629  18.418  43.830   5.712
 5409POPC   GL268630  18.078  43.752   5.855
 5409POPC   C1A68631  18.454  43.635   6.150
 5409POPC   D2A68632  18.460  43.718   6.585
 5409POPC   C3A68633  18.336  44.128   6.818
 5409POPC   C4A68634  18.216  44.167   7.267
 5409POPC   C1B68635  17.901  43.770   6.243
 5409POPC   C2B68636  17.951  43.797   6.655
 5409POPC   C3B68637  18.176  43.688   7.026
 5409POPC   C4B68638  17.991  43.701   7.398
 5410POPC   NC368639  17.554   2.057   5.310
 5410POPC   PO468640  17.121   1.571   5.576
 5410POPC   GL168641  17.404   1.877   5.801
 5410POPC   GL268642  17.766   1.867   5.764
 5410POPC   C1A68643  17.496   2.123   6.199
 5410POPC   D2A68644  17.258   2.198   6.607
 5410POPC   C3A68645  17.455   2.262   7.022
 5410POPC   C4A68646  17.427   2.077   7.456
 5410POPC   C1B68647  17.879   1.767   6.192
 5410POPC   C2B68648  17.688   1.858   6.607
 5410POPC   C3B68649  17.841   1.794   7.024
 5410POPC   C4B68650  18.059   2.134   7.182
 5411POPC   NC368651  42.518  42.631   5.303
 5411POPC   PO468652  41.979  42.313   5.115
 5411POPC   GL168653  42.072  42.272   5.592
 5411POPC   GL268654  42.375  42.451   5.753
 5411POPC   C1A68655  41.974  42.037   6.025
 5411POPC   D2A68656  42.031  41.848   6.483
 5411POPC   C3A68657  42.142  42.066   6.854
 5411POPC   C4A68658  41.900  41.998   7.226
 5411POPC   C1B68659  42.576  42.261   6.117
 5411POPC   C2B68660  42.793  42.329   6.524
 5411POPC   C3B68661  42.712  42.331   6.998
 5411POPC   C4B68662  42.318  42.329   7.275
 5412POPC   NC368663  13.230   8.976   5.420
 5412POPC   PO468664  13.890   8.961   5.488
 5412POPC   GL168665  13.704   9.156   5.845
 5412POPC   GL268666  13.360   9.335   5.847
 5412POPC   C1A68667  13.897   9.133   6.243
 5412POPC   D2A68668  13.959   8.832   6.565
 5412POPC   C3A68669  13.960   9.106   6.888
 5412POPC   C4A68670  13.674   9.230   7.201
 5412POPC   C1B68671  13.378   9.021   6.198
 5412POPC   C2B68672  13.505   9.098   6.616
 5412POPC   C3B68673  13.364   8.897   6.984
 5412POPC   C4B68674  13.178   9.086   7.355
 5413POPC   NC368675   0.018   2.207   5.401
 5413POPC   PO468676  44.386   2.196   5.690
 5413POPC   GL168677  44.764   2.103   5.885
 5413POPC   GL268678  44.946   1.814   5.760
 5413POPC   C1A68679  44.822   2.137   6.319
 5413POPC   D2A68680  44.632   2.050   6.715
 5413POPC   C3A68681  44.649   2.123   7.112
 5413POPC   C4A68682  44.905   1.992   7.390
 5413POPC   C1B68683  44.866   1.635   6.184
 5413POPC   C2B68684  44.681   1.570   6.593
 5413POPC   C3B68685  44.873   1.622   6.998
 5413POPC   C4B68686  44.799   1.453   7.398
 5414POPC   NC368687  23.932  25.656   5.552
 5414POPC   PO468688  23.485  26.247   5.625
 5414POPC   GL168689  23.707  25.971   5.933
 5414POPC   GL268690  24.056  26.051   5.994
 5414POPC   C1A68691  23.716  25.948   6.405
 5414POPC   D2A68692  23.445  26.224   6.690
 5414POPC   C3A68693  23.549  26.222   7.110
 5414POPC   C4A68694  23.798  26.528   7.257
 5414POPC   C1B68695  24.099  25.632   6.218
 5414POPC   C2B68696  24.026  25.540   6.664
 5414POPC   C3B68697  23.936  25.831   7.002
 5414POPC   C4B68698  23.739  25.776   7.406
 5415POPC   NC368699  41.170  44.143   5.448
 5415POPC   PO468700  41.811  43.952   5.408
 5415POPC   GL168701  41.524  43.982   5.787
 5415POPC   GL268702  41.304  43.701   5.714
 5415POPC   C1A68703  41.617  44.029   6.241
 5415POPC   D2A68704  41.816  44.032   6.660
 5415POPC   C3A68705  41.643  44.162   7.038
 5415POPC   C4A68706  41.938  44.093   7.363
 5415POPC   C1B68707  41.338  43.599   6.151
 5415POPC   C2B68708  41.338  43.405   6.573
 5415POPC   C3B68709  41.608  43.586   6.891
 5415POPC   C4B68710  41.545  43.724   7.290
 5416POPC   NC368711   4.827   1.333   5.317
 5416POPC   PO468712   5.462   1.553   5.369
 5416POPC   GL168713   5.274   1.381   5.785
 5416POPC   GL268714   4.953   1.190   5.787
 5416POPC   C1A68715   5.260   1.198   6.219
 5416POPC   D2A68716   5.429   1.045   6.606
 5416POPC   C3A68717   5.122   1.082   6.944
 5416POPC   C4A68718   4.800   1.044   7.288
 5416POPC   C1B68719   4.798   1.428   6.137
 5416POPC   C2B68720   4.760   1.262   6.559
 5416POPC   C3B68721   4.759   1.457   6.958
 5416POPC   C4B68722   5.086   1.516   7.253
 5417POPC   NC368723  42.777  26.140   5.697
 5417POPC   PO468724  42.179  26.022   5.403
 5417POPC   GL168725  42.306  25.902   5.857
 5417POPC   GL268726  42.438  26.186   6.066
 5417POPC   C1A68727  42.225  25.842   6.347
 5417POPC   D2A68728  42.308  26.121   6.675
 5417POPC   C3A68729  42.290  26.017   7.110
 5417POPC   C4A68730  42.496  26.013   7.519
 5417POPC   C1B68731  42.728  26.412   6.312
 5417POPC   C2B68732  42.817  26.323   6.726
 5417POPC   C3B68733  42.765  26.191   7.116
 5417POPC   C4B68734  43.003  26.275   7.494
 5418POPC   NC368735  14.945  21.978   5.483
 5418POPC   PO468736  14.483  21.457   5.350
 5418POPC   GL168737  14.359  21.384   5.800
 5418POPC   GL268738  14.155  21.067   5.801
 5418POPC   C1A68739  14.317  21.532   6.250
 5418POPC   D2A68740  14.548  21.441   6.659
 5418POPC   C3A68741  14.506  21.640   7.104
 5418POPC   C4A68742  14.662  21.447   7.500
 5418POPC   C1B68743  13.966  21.157   6.207
 5418POPC   C2B68744  14.040  21.314   6.630
 5418POPC   C3B68745  14.208  21.239   7.021
 5418POPC   C4B68746  14.364  21.034   7.379
 5419POPC   NC368747  13.739  17.346   5.377
 5419POPC   PO468748  13.586  18.032   5.448
 5419POPC   GL168749  13.751  17.665   5.771
 5419POPC   GL268750  13.962  17.283   5.831
 5419POPC   C1A68751  13.700  17.510   6.186
 5419POPC   D2A68752  13.510  17.323   6.531
 5419POPC   C3A68753  13.745  17.471   6.854
 5419POPC   C4A68754  13.837  17.573   7.257
 5419POPC   C1B68755  13.811  17.021   6.240
 5419POPC   C2B68756  13.843  16.975   6.740
 5419POPC   C3B68757  13.710  17.078   7.184
 5419POPC   C4B68758  13.986  17.178   7.536
 5420POPC   NC368759  31.176  28.780   5.291
 5420POPC   PO468760  31.889  28.616   5.324
 5420POPC   GL168761  31.620  28.494   5.728
 5420POPC   GL268762  31.258  28.429   5.711
 5420POPC   C1A68763  31.529  28.163   6.106
 5420POPC   D2A68764  31.715  28.147   6.563
 5420POPC   C3A68765  31.566  28.316   6.980
 5420POPC   C4A68766  31.589  28.123   7.400
 5420POPC   C1B68767  31.315  28.626   6.149
 5420POPC   C2B68768  31.185  28.332   6.513
 5420POPC   C3B68769  31.092  28.103   6.924
 5420POPC   C4B68770  31.134  28.340   7.296
 5421POPC   NC368771  24.265  38.365   5.332
 5421POPC   PO468772  24.821  38.254   5.607
 5421POPC   GL168773  24.411  38.435   5.845
 5421POPC   GL268774  24.070  38.250   5.791
 5421POPC   C1A68775  24.446  38.667   6.302
 5421POPC   D2A68776  24.769  38.552   6.609
 5421POPC   C3A68777  24.629  38.377   6.981
 5421POPC   C4A68778  24.604  38.478   7.407
 5421POPC   C1B68779  24.060  38.345   6.221
 5421POPC   C2B68780  24.276  38.286   6.595
 5421POPC   C3B68781  24.117  38.360   6.988
 5421POPC   C4B68782  24.153  38.625   7.311
 5422POPC   NC368783  22.866  23.334   5.470
 5422POPC   PO468784  22.852  23.953   5.231
 5422POPC   GL168785  22.952  23.851   5.711
 5422POPC   GL268786  22.827  23.540   5.928
 5422POPC   C1A68787  22.994  23.926   6.190
 5422POPC   D2A68788  22.699  23.688   6.485
 5422POPC   C3A68789  22.777  23.747   6.921
 5422POPC   C4A68790  23.011  23.882   7.276
 5422POPC   C1B68791  23.107  23.423   6.307
 5422POPC   C2B68792  23.109  23.372   6.771
 5422POPC   C3B68793  23.088  23.268   7.199
 5422POPC   C4B68794  22.738  23.444   7.326
 5423POPC   NC368795   0.077  17.780   5.407
 5423POPC   PO468796  44.575  17.295   5.459
 5423POPC   GL168797  44.621  17.413   5.872
 5423POPC   GL268798  44.948  17.472   5.806
 5423POPC   C1A68799  44.725  17.503   6.304
 5423POPC   D2A68800  44.374  17.523   6.576
 5423POPC   C3A68801  44.368  17.310   6.912
 5423POPC   C4A68802  44.500  17.388   7.284
 5423POPC   C1B68803  44.996  17.872   6.052
 5423POPC   C2B68804   0.060  17.889   6.500
 5423POPC   C3B68805  44.861  17.587   6.812
 5423POPC   C4B68806  44.979  17.513   7.238
 5424POPC   NC368807  30.690  19.751   5.467
 5424POPC   PO468808  31.112  20.265   5.595
 5424POPC   GL168809  30.876  19.945   5.907
 5424POPC   GL268810  30.496  19.777   5.917
 5424POPC   C1A68811  30.817  19.870   6.354
 5424POPC   D2A68812  31.087  19.780   6.711
 5424POPC   C3A68813  30.963  20.068   7.035
 5424POPC   C4A68814  30.697  19.980   7.369
 5424POPC   C1B68815  30.683  19.425   6.133
 5424POPC   C2B68816  30.657  19.429   6.588
 5424POPC   C3B68817  30.637  19.589   7.024
 5424POPC   C4B68818  30.454  19.380   7.402
 5425POPC   NC368819  32.863  43.706   5.419
 5425POPC   PO468820  33.347  44.161   5.278
 5425POPC   GL168821  33.110  44.075   5.715
 5425POPC   GL268822  33.092  43.768   5.866
 5425POPC   C1A68823  32.992  44.089   6.221
 5425POPC   D2A68824  33.164  44.051   6.612
 5425POPC   C3A68825  32.892  43.986   6.973
 5425POPC   C4A68826  32.886  44.003   7.438
 5425POPC   C1B68827  33.146  43.593   6.280
 5425POPC   C2B68828  33.005  43.559   6.710
 5425POPC   C3B68829  33.028  43.533   7.168
 5425POPC   C4B68830  32.991  43.437   7.604
 5426POPC   NC368831  11.650  25.385   5.377
 5426POPC   PO468832  11.077  25.132   5.465
 5426POPC   GL168833  11.103  25.411   5.819
 5426POPC   GL268834  11.330  25.155   5.933
 5426POPC   C1A68835  11.026  25.597   6.253
 5426POPC   D2A68836  10.932  25.366   6.669
 5426POPC   C3A68837  11.072  25.489   7.057
 5426POPC   C4A68838  11.205  25.462   7.477
 5426POPC   C1B68839  11.398  25.255   6.365
 5426POPC   C2B68840  11.404  25.202   6.797
 5426POPC   C3B68841  11.479  25.115   7.197
 5426POPC   C4B68842  11.877  24.927   7.382
 5427POPC   NC368843  17.858  27.889   5.394
 5427POPC   PO468844  17.703  28.529   5.403
 5427POPC   GL168845  17.487  28.544   5.819
 5427POPC   GL268846  17.332  28.203   5.874
 5427POPC   C1A68847  17.617  28.464   6.260
 5427POPC   D2A68848  17.738  28.272   6.650
 5427POPC   C3A68849  17.718  28.535   7.026
 5427POPC   C4A68850  17.492  28.673   7.375
 5427POPC   C1B68851  17.487  27.953   6.236
 5427POPC   C2B68852  17.382  27.848   6.668
 5427POPC   C3B68853  17.389  28.120   7.009
 5427POPC   C4B68854  17.601  28.141   7.378
 5428POPC   NC368855  36.942  43.619   5.360
 5428POPC   PO468856  36.735  42.961   5.470
 5428POPC   GL168857  36.750  43.338   5.758
 5428POPC   GL268858  37.114  43.455   5.796
 5428POPC   C1A68859  36.631  43.349   6.195
 5428POPC   D2A68860  36.932  43.378   6.556
 5428POPC   C3A68861  36.968  43.017   6.826
 5428POPC   C4A68862  36.703  43.071   7.180
 5428POPC   C1B68863  37.166  43.193   6.143
 5428POPC   C2B68864  37.435  43.222   6.509
 5428POPC   C3B68865  37.348  43.369   6.921
 5428POPC   C4B68866  37.193  43.152   7.276
 5429POPC   NC368867  34.323  32.267   5.617
 5429POPC   PO468868  33.808  32.178   5.205
 5429POPC   GL168869  33.745  32.239   5.715
 5429POPC   GL268870  33.935  32.505   5.870
 5429POPC   C1A68871  33.563  32.318   6.187
 5429POPC   D2A68872  33.650  32.595   6.595
 5429POPC   C3A68873  33.643  32.415   7.038
 5429POPC   C4A68874  33.697  32.034   7.233
 5429POPC   C1B68875  34.053  32.348   6.289
 5429POPC   C2B68876  33.915  32.129   6.688
 5429POPC   C3B68877  34.149  32.208   7.075
 5429POPC   C4B68878  34.042  32.340   7.472
 5430POPC   NC368879  26.755  41.745   5.669
 5430POPC   PO468880  27.214  41.288   5.420
 5430POPC   GL168881  27.025  41.379   5.900
 5430POPC   GL268882  26.662  41.430   6.049
 5430POPC   C1A68883  26.986  41.710   6.280
 5430POPC   D2A68884  26.739  41.889   6.602
 5430POPC   C3A68885  26.700  41.570   6.887
 5430POPC   C4A68886  27.000  41.543   7.187
 5430POPC   C1B68887  26.410  41.476   6.405
 5430POPC   C2B68888  26.191  41.417   6.783
 5430POPC   C3B68889  26.348  41.288   7.166
 5430POPC   C4B68890  26.301  41.306   7.622
 5431POPC   NC368891   6.333   7.107   5.438
 5431POPC   PO468892   6.613   6.457   5.462
 5431POPC   GL168893   6.775   6.596   5.845
 5431POPC   GL268894   6.738   6.975   5.815
 5431POPC   C1A68895   6.787   6.379   6.249
 5431POPC   D2A68896   7.020   6.306   6.611
 5431POPC   C3A68897   6.795   6.422   7.006
 5431POPC   C4A68898   6.926   6.405   7.451
 5431POPC   C1B68899   6.689   6.883   6.279
 5431POPC   C2B68900   6.610   6.850   6.728
 5431POPC   C3B68901   6.794   6.988   7.094
 5431POPC   C4B68902   6.811   6.954   7.512
 5432POPC   NC368903  27.644  19.737   5.349
 5432POPC   PO468904  27.060  20.063   5.283
 5432POPC   GL168905  27.268  19.877   5.731
 5432POPC   GL268906  27.641  19.748   5.829
 5432POPC   C1A68907  27.360  19.805   6.218
 5432POPC   D2A68908  27.615  19.932   6.571
 5432POPC   C3A68909  27.479  19.883   6.985
 5432POPC   C4A68910  27.355  19.595   7.258
 5432POPC   C1B68911  27.932  19.868   6.147
 5432POPC   C2B68912  28.072  19.731   6.559
 5432POPC   C3B68913  27.991  19.920   6.945
 5432POPC   C4B68914  27.891  19.890   7.353
 5433POPC   NC368915  38.911  32.368   4.954
 5433POPC   PO468916  39.473  32.079   5.228
 5433POPC   GL168917  39.355  32.229   5.642
 5433POPC   GL268918  39.208  31.982   5.813
 5433POPC   C1A68919  39.437  32.422   6.038
 5433POPC   D2A68920  39.415  32.252   6.476
 5433POPC   C3A68921  39.453  32.587   6.790
 5433POPC   C4A68922  39.278  32.650   7.205
 5433POPC   C1B68923  38.995  32.179   6.155
 5433POPC   C2B68924  38.845  32.288   6.533
 5433POPC   C3B68925  39.041  32.296   6.893
 5433POPC   C4B68926  39.023  32.181   7.285
 5434POPC   NC368927  13.173  28.130   5.570
 5434POPC   PO468928  13.870  28.151   5.500
 5434POPC   GL168929  13.770  28.363   5.865
 5434POPC   GL268930  13.732  28.755   5.824
 5434POPC   C1A68931  13.636  28.149   6.242
 5434POPC   D2A68932  13.677  27.890   6.603
 5434POPC   C3A68933  13.648  28.069   7.007
 5434POPC   C4A68934  13.873  28.389   7.212
 5434POPC   C1B68935  13.378  28.589   6.089
 5434POPC   C2B68936  13.378  28.499   6.519
 5434POPC   C3B68937  13.503  28.562   6.913
 5434POPC   C4B68938  13.347  28.508   7.322
 5435POPC   NC368939   2.190  32.412   5.378
 5435POPC   PO468940   1.654  32.043   5.277
 5435POPC   GL168941   1.896  32.003   5.690
 5435POPC   GL268942   2.146  32.214   5.888
 5435POPC   C1A68943   1.861  31.864   6.152
 5435POPC   D2A68944   1.894  31.796   6.628
 5435POPC   C3A68945   1.677  32.021   6.956
 5435POPC   C4A68946   1.744  32.402   7.207
 5435POPC   C1B68947   2.332  32.018   6.310
 5435POPC   C2B68948   2.373  32.058   6.754
 5435POPC   C3B68949   2.150  32.073   7.120
 5435POPC   C4B68950   2.166  32.269   7.480
 5436POPC   NC368951  28.249  27.398   5.052
 5436POPC   PO468952  28.160  27.859   5.565
 5436POPC   GL168953  28.431  27.773   5.944
 5436POPC   GL268954  28.604  27.427   6.024
 5436POPC   C1A68955  28.295  27.662   6.345
 5436POPC   D2A68956  28.039  27.744   6.686
 5436POPC   C3A68957  28.317  27.752   7.043
 5436POPC   C4A68958  28.321  27.872   7.483
 5436POPC   C1B68959  28.444  27.165   6.334
 5436POPC   C2B68960  28.209  27.270   6.701
 5436POPC   C3B68961  28.066  27.318   7.103
 5436POPC   C4B68962  28.289  27.373   7.490
 5437POPC   NC368963  13.835  37.332   5.480
 5437POPC   PO468964  13.749  36.641   5.373
 5437POPC   GL168965  13.817  36.892   5.762
 5437POPC   GL268966  13.497  36.987   5.958
 5437POPC   C1A68967  13.959  37.068   6.171
 5437POPC   D2A68968  13.704  37.032   6.551
 5437POPC   C3A68969  13.760  37.009   6.994
 5437POPC   C4A68970  13.649  36.909   7.440
 5437POPC   C1B68971  13.681  36.639   6.209
 5437POPC   C2B68972  13.769  36.457   6.623
 5437POPC   C3B68973  13.633  36.504   7.055
 5437POPC   C4B68974  13.427  36.443   7.436
 5438POPC   NC368975   1.541   1.516   5.537
 5438POPC   PO468976   1.065   1.220   5.110
 5438POPC   GL168977   1.002   1.262   5.615
 5438POPC   GL268978   1.288   1.179   5.847
 5438POPC   C1A68979   0.872   1.231   6.105
 5438POPC   D2A68980   1.096   1.088   6.508
 5438POPC   C3A68981   1.075   1.324   6.902
 5438POPC   C4A68982   1.123   1.166   7.308
 5438POPC   C1B68983   1.416   1.394   6.221
 5438POPC   C2B68984   1.650   1.311   6.591
 5438POPC   C3B68985   1.573   1.230   7.013
 5438POPC   C4B68986   1.489   1.500   7.368
 5439POPC   NC368987  24.264  21.889   5.352
 5439POPC   PO468988  24.412  22.527   5.232
 5439POPC   GL168989  24.664  22.385   5.658
 5439POPC   GL268990  24.636  22.022   5.740
 5439POPC   C1A68991  24.686  22.532   6.138
 5439POPC   D2A68992  24.396  22.486   6.514
 5439POPC   C3A68993  24.549  22.379   6.917
 5439POPC   C4A68994  24.346  22.334   7.299
 5439POPC   C1B68995  24.394  22.110   6.139
 5439POPC   C2B68996  24.541  22.001   6.573
 5439POPC   C3B68997  24.452  21.897   7.004
 5439POPC   C4B68998  24.744  21.955   7.332
 5440POPC   NC368999  17.992  40.858   5.631
 5440POPC   PO469000  17.288  41.099   5.503
 5440POPC   GL169001  17.513  40.906   5.834
 5440POPC   GL269002  17.602  40.538   5.760
 5440POPC   C1A69003  17.661  41.076   6.230
 5440POPC   D2A69004  17.751  41.039   6.674
 5440POPC   C3A69005  17.394  40.846   6.896
 5440POPC   C4A69006  17.266  40.889   7.297
 5440POPC   C1B69007  17.729  40.551   6.196
 5440POPC   C2B69008  17.718  40.510   6.662
 5440POPC   C3B69009  17.800  40.654   7.122
 5440POPC   C4B69010  17.597  40.484   7.507
 5441POPC   NC369011  23.807   1.584   5.374
 5441POPC   PO469012  23.689   2.149   5.361
 5441POPC   GL169013  23.669   2.053   5.778
 5441POPC   GL269014  23.573   1.749   5.784
 5441POPC   C1A69015  23.916   1.995   6.153
 5441POPC   D2A69016  23.897   2.244   6.492
 5441POPC   C3A69017  23.851   2.047   6.854
 5441POPC   C4A69018  23.876   2.036   7.275
 5441POPC   C1B69019  23.575   1.625   6.191
 5441POPC   C2B69020  23.747   1.638   6.552
 5441POPC   C3B69021  23.515   1.689   6.913
 5441POPC   C4B69022  23.596   1.567   7.282
 5442POPC   NC369023   5.843  27.730   5.531
 5442POPC   PO469024   6.075  27.039   5.510
 5442POPC   GL169025   5.871  27.307   5.861
 5442POPC   GL269026   5.958  27.631   6.015
 5442POPC   C1A69027   5.847  27.168   6.269
 5442POPC   D2A69028   5.934  27.513   6.547
 5442POPC   C3A69029   5.793  27.502   6.967
 5442POPC   C4A69030   5.996  27.597   7.376
 5442POPC   C1B69031   5.753  27.949   6.270
 5442POPC   C2B69032   5.655  28.089   6.696
 5442POPC   C3B69033   5.762  28.006   7.151
 5442POPC   C4B69034   5.729  27.930   7.639
 5443POPC   NC369035  30.330  15.498   5.547
 5443POPC   PO469036  29.911  14.953   5.391
 5443POPC   GL169037  29.792  15.156   5.767
 5443POPC   GL269038  30.137  15.098   5.859
 5443POPC   C1A69039  29.721  15.118   6.206
 5443POPC   D2A69040  29.948  15.098   6.581
 5443POPC   C3A69041  29.701  15.069   6.915
 5443POPC   C4A69042  29.685  14.872   7.319
 5443POPC   C1B69043  30.176  15.375   6.194
 5443POPC   C2B69044  30.102  15.591   6.553
 5443POPC   C3B69045  30.168  15.475   6.933
 5443POPC   C4B69046  29.981  15.302   7.269
 5444POPC   NC369047  19.376   3.882   5.551
 5444POPC   PO469048  18.801   3.616   5.292
 5444POPC   GL169049  18.842   3.593   5.785
 5444POPC   GL269050  19.177   3.540   5.912
 5444POPC   C1A69051  18.847   3.616   6.273
 5444POPC   D2A69052  19.175   3.483   6.553
 5444POPC   C3A69053  18.973   3.571   6.918
 5444POPC   C4A69054  19.075   3.503   7.343
 5444POPC   C1B69055  19.296   3.868   6.217
 5444POPC   C2B69056  19.422   3.914   6.657
 5444POPC   C3B69057  19.308   3.892   7.103
 5444POPC   C4B69058  19.374   3.871   7.571
 5445POPC   NC369059  26.616  28.133   5.419
 5445POPC   PO469060  27.223  28.192   5.672
 5445POPC   GL169061  26.897  28.353   5.913
 5445POPC   GL269062  26.808  28.054   5.995
 5445POPC   C1A69063  26.685  28.383   6.376
 5445POPC   D2A69064  26.560  28.666   6.749
 5445POPC   C3A69065  26.754  28.628   7.131
 5445POPC   C4A69066  26.611  28.233   7.267
 5445POPC   C1B69067  27.145  28.146   6.314
 5445POPC   C2B69068  27.050  28.149   6.727
 5445POPC   C3B69069  27.152  28.317   7.104
 5445POPC   C4B69070  27.067  28.116   7.474
 5446POPC   NC369071  34.895  15.716   5.129
 5446POPC   PO469072  34.333  15.640   5.532
 5446POPC   GL169073  34.409  15.372   5.890
 5446POPC   GL269074  34.493  15.050   5.786
 5446POPC   C1A69075  34.557  15.259   6.263
 5446POPC   D2A69076  34.316  15.234   6.606
 5446POPC   C3A69077  34.556  15.205   6.962
 5446POPC   C4A69078  34.423  15.178   7.382
 5446POPC   C1B69079  34.776  14.826   6.055
 5446POPC   C2B69080  34.946  14.820   6.470
 5446POPC   C3B69081  34.852  14.720   6.892
 5446POPC   C4B69082  34.879  14.918   7.274
 5447POPC   NC369083  12.954  16.079   5.455
 5447POPC   PO469084  12.873  15.463   5.354
 5447POPC   GL169085  12.971  15.676   5.752
 5447POPC   GL269086  12.661  15.829   5.807
 5447POPC   C1A69087  13.033  15.908   6.148
 5447POPC   D2A69088  12.986  15.775   6.556
 5447POPC   C3A69089  13.022  16.001   6.918
 5447POPC   C4A69090  12.859  15.876   7.293
 5447POPC   C1B69091  12.535  16.058   6.174
 5447POPC   C2B69092  12.663  16.168   6.575
 5447POPC   C3B69093  12.509  16.039   6.950
 5447POPC   C4B69094  12.322  16.201   7.318
 5448POPC   NC369095  21.240  31.606   5.465
 5448POPC   PO469096  21.921  31.870   5.460
 5448POPC   GL169097  21.617  31.708   5.796
 5448POPC   GL269098  21.690  31.367   5.910
 5448POPC   C1A69099  21.409  31.839   6.169
 5448POPC   D2A69100  21.139  31.689   6.471
 5448POPC   C3A69101  21.302  31.666   6.883
 5448POPC   C4A69102  21.235  31.289   7.135
 5448POPC   C1B69103  21.306  31.299   6.149
 5448POPC   C2B69104  21.340  31.246   6.586
 5448POPC   C3B69105  21.687  31.319   6.865
 5448POPC   C4B69106  21.858  31.029   7.168
 5449POPC   NC369107   2.019  44.638   5.388
 5449POPC   PO469108   2.508  44.143   5.538
 5449POPC   GL169109   2.257  44.400   5.807
 5449POPC   GL269110   1.879  44.458   5.870
 5449POPC   C1A69111   2.248  44.547   6.243
 5449POPC   D2A69112   2.382  44.662   6.666
 5449POPC   C3A69113   2.143  44.643   7.050
 5449POPC   C4A69114   1.757  44.573   7.273
 5449POPC   C1B69115   1.783  44.176   6.262
 5449POPC   C2B69116   1.813  44.160   6.751
 5449POPC   C3B69117   1.559  44.103   7.170
 5449POPC   C4B69118   1.571  44.278   7.646
 5450POPC   NC369119  40.863   8.660   5.443
 5450POPC   PO469120  40.690   9.258   5.432
 5450POPC   GL169121  40.698   9.026   5.791
 5450POPC   GL269122  41.045   9.072   5.783
 5450POPC   C1A69123  40.802   8.807   6.170
 5450POPC   D2A69124  40.867   8.999   6.563
 5450POPC   C3A69125  40.622   8.926   6.922
 5450POPC   C4A69126  40.926   8.671   7.143
 5450POPC   C1B69127  41.126   9.296   6.163
 5450POPC   C2B69128  41.097   9.438   6.594
 5450POPC   C3B69129  40.961   9.322   6.997
 5450POPC   C4B69130  40.787   9.128   7.370
 5451POPC   NC369131  16.665   4.549   4.962
 5451POPC   PO469132  16.890   5.043   5.333
 5451POPC   GL169133  16.644   4.919   5.655
 5451POPC   GL269134  16.813   5.178   5.834
 5451POPC   C1A69135  16.731   4.685   6.024
 5451POPC   D2A69136  16.799   4.676   6.451
 5451POPC   C3A69137  16.717   4.953   6.829
 5451POPC   C4A69138  16.549   4.987   7.251
 5451POPC   C1B69139  16.711   5.156   6.260
 5451POPC   C2B69140  16.719   5.431   6.606
 5451POPC   C3B69141  16.471   5.469   6.973
 5451POPC   C4B69142  16.609   5.478   7.347
 5452POPC   NC369143  19.679   9.538   5.235
 5452POPC   PO469144  20.263   9.357   5.413
 5452POPC   GL169145  19.917   9.466   5.699
 5452POPC   GL269146  19.604   9.310   5.724
 5452POPC   C1A69147  19.795   9.585   6.126
 5452POPC   D2A69148  19.936   9.514   6.550
 5452POPC   C3A69149  19.827   9.845   6.834
 5452POPC   C4A69150  19.953  10.001   7.256
 5452POPC   C1B69151  19.633   9.110   6.117
 5452POPC   C2B69152  19.492   9.261   6.525
 5452POPC   C3B69153  19.618   9.306   6.950
 5452POPC   C4B69154  19.478   9.308   7.369
 5453POPC   NC369155   3.816  37.354   5.496
 5453POPC   PO469156   3.302  36.826   5.580
 5453POPC   GL169157   3.705  36.906   5.779
 5453POPC   GL269158   3.932  36.624   5.710
 5453POPC   C1A69159   3.776  37.082   6.185
 5453POPC   D2A69160   3.514  37.347   6.460
 5453POPC   C3A69161   3.454  37.098   6.815
 5453POPC   C4A69162   3.372  37.068   7.234
 5453POPC   C1B69163   3.833  36.526   6.169
 5453POPC   C2B69164   3.879  36.663   6.616
 5453POPC   C3B69165   3.763  36.752   7.060
 5453POPC   C4B69166   3.461  36.570   7.318
 5454POPC   NC369167  23.497   7.457   5.345
 5454POPC   PO469168  23.808   6.985   5.469
 5454POPC   GL169169  23.719   7.328   5.813
 5454POPC   GL269170  23.911   7.617   5.676
 5454POPC   C1A69171  23.563   7.378   6.290
 5454POPC   D2A69172  23.565   7.175   6.752
 5454POPC   C3A69173  23.388   7.368   7.147
 5454POPC   C4A69174  23.472   7.656   7.485
 5454POPC   C1B69175  23.970   7.707   6.125
 5454POPC   C2B69176  23.808   7.844   6.539
 5454POPC   C3B69177  23.775   7.633   6.929
 5454POPC   C4B69178  23.924   7.267   7.178
 5455POPC   NC369179  21.814  30.022   5.234
 5455POPC   PO469180  22.335  29.706   5.226
 5455POPC   GL169181  22.257  29.790   5.699
 5455POPC   GL269182  21.947  30.001   5.759
 5455POPC   C1A69183  22.330  29.898   6.154
 5455POPC   D2A69184  22.389  29.715   6.594
 5455POPC   C3A69185  22.371  30.006   6.948
 5455POPC   C4A69186  22.340  29.857   7.422
 5455POPC   C1B69187  21.829  29.858   6.203
 5455POPC   C2B69188  21.945  29.974   6.641
 5455POPC   C3B69189  22.020  29.654   6.976
 5455POPC   C4B69190  21.867  29.644   7.383
 5456POPC   NC369191  33.766  21.214   5.446
 5456POPC   PO469192  34.129  21.830   5.415
 5456POPC   GL169193  33.859  21.638   5.769
 5456POPC   GL269194  33.997  21.288   5.878
 5456POPC   C1A69195  33.651  21.517   6.180
 5456POPC   D2A69196  33.817  21.303   6.550
 5456POPC   C3A69197  33.607  21.327   6.964
 5456POPC   C4A69198  33.804  21.465   7.374
 5456POPC   C1B69199  34.217  21.087   6.207
 5456POPC   C2B69200  34.205  21.005   6.634
 5456POPC   C3B69201  34.115  21.251   7.022
 5456POPC   C4B69202  34.194  21.152   7.462
 5457POPC   NC369203   3.155  17.745   5.695
 5457POPC   PO469204   3.818  17.528   5.446
 5457POPC   GL169205   3.637  17.522   5.848
 5457POPC   GL269206   3.661  17.896   5.871
 5457POPC   C1A69207   3.349  17.427   6.212
 5457POPC   D2A69208   3.248  17.632   6.604
 5457POPC   C3A69209   3.314  17.397   6.978
 5457POPC   C4A69210   3.709  17.387   7.240
 5457POPC   C1B69211   3.734  17.767   6.306
 5457POPC   C2B69212   3.709  17.770   6.759
 5457POPC   C3B69213   3.510  17.847   7.150
 5457POPC   C4B69214   3.596  17.750   7.582
 5458POPC   NC369215   9.480  36.345   5.287
 5458POPC   PO469216   9.580  35.669   5.345
 5458POPC   GL169217   9.654  35.911   5.771
 5458POPC   GL269218   9.618  36.298   5.786
 5458POPC   C1A69219   9.865  36.074   6.166
 5458POPC   D2A69220   9.805  36.277   6.552
 5458POPC   C3A69221   9.894  36.074   6.941
 5458POPC   C4A69222  10.155  35.885   7.253
 5458POPC   C1B69223   9.441  36.541   6.152
 5458POPC   C2B69224   9.283  36.471   6.556
 5458POPC   C3B69225   9.459  36.384   6.964
 5458POPC   C4B69226   9.749  36.438   7.269
 5459POPC   NC369227  35.000  39.587   5.533
 5459POPC   PO469228  35.524  39.185   5.367
 5459POPC   GL169229  35.478  39.232   5.782
 5459POPC   GL269230  35.142  39.192   5.836
 5459POPC   C1A69231  35.505  39.379   6.204
 5459POPC   D2A69232  35.653  39.508   6.583
 5459POPC   C3A69233  35.369  39.389   6.877
 5459POPC   C4A69234  35.415  39.342   7.298
 5459POPC   C1B69235  35.045  39.130   6.279
 5459POPC   C2B69236  34.929  39.121   6.727
 5459POPC   C3B69237  34.732  38.944   7.099
 5459POPC   C4B69238  34.806  39.085   7.534
 5460POPC   NC369239   0.014  10.210   5.384
 5460POPC   PO469240  44.449  10.726   5.440
 5460POPC   GL169241  44.719  10.734   5.786
 5460POPC   GL269242  44.634  10.390   5.803
 5460POPC   C1A69243  44.913  10.537   6.181
 5460POPC   D2A69244  44.805  10.313   6.562
 5460POPC   C3A69245  44.927  10.496   6.949
 5460POPC   C4A69246  44.820  10.442   7.376
 5460POPC   C1B69247  44.419  10.291   6.226
 5460POPC   C2B69248  44.313  10.162   6.659
 5460POPC   C3B69249  44.396  10.280   7.099
 5460POPC   C4B69250  44.362  10.204   7.548
 5461POPC   NC369251   4.674  14.507   5.399
 5461POPC   PO469252   4.075  14.125   5.398
 5461POPC   GL169253   4.327  14.283   5.737
 5461POPC   GL269254   4.609  14.079   5.710
 5461POPC   C1A69255   4.262  14.424   6.166
 5461POPC   D2A69256   4.279  14.221   6.553
 5461POPC   C3A69257   4.162  14.448   6.877
 5461POPC   C4A69258   4.301  14.582   7.251
 5461POPC   C1B69259   4.600  14.015   6.179
 5461POPC   C2B69260   4.594  13.846   6.634
 5461POPC   C3B69261   4.528  14.104   7.009
 5461POPC   C4B69262   4.566  14.182   7.430
 5462POPC   NC369263  34.479  27.308   5.628
 5462POPC   PO469264  34.556  26.665   5.372
 5462POPC   GL169265  34.631  26.792   5.806
 5462POPC   GL269266  34.998  26.737   5.865
 5462POPC   C1A69267  34.537  27.009   6.233
 5462POPC   D2A69268  34.586  26.824   6.644
 5462POPC   C3A69269  34.438  27.021   6.992
 5462POPC   C4A69270  34.710  27.173   7.326
 5462POPC   C1B69271  34.907  26.631   6.296
 5462POPC   C2B69272  35.014  26.530   6.734
 5462POPC   C3B69273  34.857  26.744   7.107
 5462POPC   C4B69274  34.460  26.744   7.437
 5463POPC   NC369275  27.713  24.044   5.318
 5463POPC   PO469276  27.707  23.432   5.415
 5463POPC   GL169277  27.518  23.737   5.807
 5463POPC   GL269278  27.199  23.930   5.878
 5463POPC   C1A69279  27.541  23.870   6.315
 5463POPC   D2A69280  27.638  23.953   6.788
 5463POPC   C3A69281  27.745  23.798   7.268
 5463POPC   C4A69282  27.665  23.725   7.731
 5463POPC   C1B69283  27.166  23.575   6.182
 5463POPC   C2B69284  27.321  23.529   6.626
 5463POPC   C3B69285  27.279  23.685   7.053
 5463POPC   C4B69286  27.379  23.419   7.421
 5464POPC   NC369287  35.211  41.991   5.100
 5464POPC   PO469288  35.187  42.518   5.493
 5464POPC   GL169289  35.470  42.350   5.827
 5464POPC   GL269290  35.752  42.522   5.755
 5464POPC   C1A69291  35.454  42.231   6.279
 5464POPC   D2A69292  35.347  42.050   6.705
 5464POPC   C3A69293  35.156  42.309   7.057
 5464POPC   C4A69294  35.242  42.326   7.504
 5464POPC   C1B69295  35.774  42.629   6.202
 5464POPC   C2B69296  35.825  42.379   6.595
 5464POPC   C3B69297  35.655  42.398   7.008
 5464POPC   C4B69298  35.610  42.652   7.365
 5465POPC   NC369299   3.209  21.513   5.456
 5465POPC   PO469300   3.876  21.354   5.428
 5465POPC   GL169301   3.536  21.290   5.782
 5465POPC   GL269302   3.569  21.579   5.868
 5465POPC   C1A69303   3.324  21.372   6.230
 5465POPC   D2A69304   3.462  21.626   6.618
 5465POPC   C3A69305   3.454  21.425   7.037
 5465POPC   C4A69306   3.127  21.311   7.359
 5465POPC   C1B69307   3.831  21.464   6.243
 5465POPC   C2B69308   4.011  21.654   6.624
 5465POPC   C3B69309   3.853  21.803   7.032
 5465POPC   C4B69310   3.818  21.697   7.476
 5466POPC   NC369311  44.327   2.611   5.473
 5466POPC   PO469312  43.725   2.811   5.261
 5466POPC   GL169313  43.921   2.870   5.677
 5466POPC   GL269314  43.974   2.523   5.827
 5466POPC   C1A69315  43.851   2.905   6.143
 5466POPC   D2A69316  43.935   2.647   6.523
 5466POPC   C3A69317  43.887   2.743   6.963
 5466POPC   C4A69318  43.835   2.439   7.300
 5466POPC   C1B69319  44.301   2.665   6.137
 5466POPC   C2B69320  44.382   2.398   6.459
 5466POPC   C3B69321  44.224   2.343   6.874
 5466POPC   C4B69322  44.342   2.560   7.247
 5467POPC   NC369323  33.553  43.743   5.212
 5467POPC   PO469324  33.957  44.200   5.559
 5467POPC   GL169325  33.604  44.066   5.748
 5467POPC   GL269326  33.610  43.720   5.785
 5467POPC   C1A69327  33.504  44.183   6.186
 5467POPC   D2A69328  33.828  44.281   6.512
 5467POPC   C3A69329  33.756  44.103   6.913
 5467POPC   C4A69330  33.387  43.933   7.054
 5467POPC   C1B69331  33.908  43.878   6.123
 5467POPC   C2B69332  33.946  43.773   6.532
 5467POPC   C3B69333  33.950  43.620   6.934
 5467POPC   C4B69334  33.817  43.813   7.360
 5468POPC   NC369335  38.800  30.313   5.366
 5468POPC   PO469336  38.193  29.858   5.341
 5468POPC   GL169337  38.307  30.051   5.715
 5468POPC   GL269338  38.638  29.978   5.734
 5468POPC   C1A69339  38.266  30.183   6.138
 5468POPC   D2A69340  38.457  30.035   6.507
 5468POPC   C3A69341  38.226  29.964   6.885
 5468POPC   C4A69342  38.373  29.907   7.292
 5468POPC   C1B69343  38.837  29.819   6.111
 5468POPC   C2B69344  38.947  29.867   6.552
 5468POPC   C3B69345  38.780  30.001   6.961
 5468POPC   C4B69346  38.878  29.941   7.403
 5469POPC   NC369347   5.158  34.136   5.241
 5469POPC   PO469348   4.983  34.761   5.468
 5469POPC   GL169349   5.305  34.497   5.700
 5469POPC   GL269350   5.214  34.159   5.784
 5469POPC   C1A69351   5.418  34.440   6.151
 5469POPC   D2A69352   5.173  34.484   6.527
 5469POPC   C3A69353   5.429  34.441   6.864
 5469POPC   C4A69354   5.501  34.692   7.217
 5469POPC   C1B69355   4.913  34.178   6.174
 5469POPC   C2B69356   4.705  34.260   6.593
 5469POPC   C3B69357   4.881  34.416   6.985
 5469POPC   C4B69358   5.193  34.285   7.291
 5470POPC   NC369359  13.007  25.753   5.481
 5470POPC   PO469360  12.568  26.260   5.369
 5470POPC   GL169361  12.747  26.070   5.768
 5470POPC   GL269362  12.635  25.722   5.860
 5470POPC   C1A69363  12.757  26.164   6.213
 5470POPC   D2A69364  12.974  26.149   6.631
 5470POPC   C3A69365  12.757  25.901   6.974
 5470POPC   C4A69366  12.499  25.753   7.337
 5470POPC   C1B69367  12.974  25.714   6.145
 5470POPC   C2B69368  12.979  25.628   6.578
 5470POPC   C3B69369  13.223  25.690   6.950
 5470POPC   C4B69370  13.010  25.605   7.314
 5471POPC   NC369371  19.236  37.159   5.430
 5471POPC   PO469372  18.753  36.734   5.502
 5471POPC   GL169373  18.997  36.874   5.822
 5471POPC   GL269374  19.268  36.629   5.802
 5471POPC   C1A69375  18.949  37.153   6.169
 5471POPC   D2A69376  19.236  37.362   6.470
 5471POPC   C3A69377  19.186  37.157   6.896
 5471POPC   C4A69378  18.901  37.080   7.247
 5471POPC   C1B69379  19.284  36.746   6.240
 5471POPC   C2B69380  19.112  36.630   6.653
 5471POPC   C3B69381  19.141  36.663   7.111
 5471POPC   C4B69382  19.342  36.468   7.466
 5472POPC   NC369383  31.745  26.505   5.498
 5472POPC   PO469384  31.746  25.825   5.467
 5472POPC   GL169385  31.562  25.874   5.892
 5472POPC   GL269386  31.650  26.233   5.935
 5472POPC   C1A69387  31.287  26.044   6.247
 5472POPC   D2A69388  31.342  26.316   6.617
 5472POPC   C3A69389  31.255  26.135   7.028
 5472POPC   C4A69390  31.263  25.869   7.385
 5472POPC   C1B69391  31.781  26.131   6.365
 5472POPC   C2B69392  31.775  25.922   6.750
 5472POPC   C3B69393  31.731  25.971   7.181
 5472POPC   C4B69394  31.731  25.854   7.635
 5473POPC   NC369395  24.502  34.210   5.489
 5473POPC   PO469396  24.059  33.844   5.162
 5473POPC   GL169397  24.202  33.778   5.672
 5473POPC   GL269398  24.290  34.074   5.948
 5473POPC   C1A69399  24.122  33.642   6.151
 5473POPC   D2A69400  24.051  33.559   6.614
 5473POPC   C3A69401  24.308  33.692   6.988
 5473POPC   C4A69402  24.232  33.948   7.353
 5473POPC   C1B69403  24.495  34.335   6.296
 5473POPC   C2B69404  24.499  34.260   6.764
 5473POPC   C3B69405  24.715  34.040   7.113
 5473POPC   C4B69406  24.687  34.092   7.561
 5474POPC   NC369407  42.391  27.757   5.504
 5474POPC   PO469408  42.544  27.151   5.477
 5474POPC   GL169409  42.664  27.386   5.875
 5474POPC   GL269410  42.463  27.704   6.010
 5474POPC   C1A69411  42.769  27.439   6.324
 5474POPC   D2A69412  42.671  27.700   6.702
 5474POPC   C3A69413  42.348  27.531   7.010
 5474POPC   C4A69414  42.074  27.271   7.314
 5474POPC   C1B69415  42.106  27.680   6.311
 5474POPC   C2B69416  41.835  27.841   6.637
 5474POPC   C3B69417  42.084  27.992   6.961
 5474POPC   C4B69418  42.521  28.025   7.114
 5475POPC   NC369419   7.802   9.061   5.601
 5475POPC   PO469420   7.428   9.086   5.128
 5475POPC   GL169421   7.312   8.911   5.602
 5475POPC   GL269422   7.063   9.128   5.770
 5475POPC   C1A69423   7.257   8.829   6.119
 5475POPC   D2A69424   7.231   8.675   6.589
 5475POPC   C3A69425   7.484   8.855   6.930
 5475POPC   C4A69426   7.701   8.641   7.275
 5475POPC   C1B69427   7.126   9.356   6.149
 5475POPC   C2B69428   7.321   9.401   6.573
 5475POPC   C3B69429   7.235   9.328   7.012
 5475POPC   C4B69430   6.977   9.401   7.377
 5476POPC   NC369431  15.255  14.888   5.464
 5476POPC   PO469432  14.808  15.427   5.563
 5476POPC   GL169433  15.009  15.277   5.919
 5476POPC   GL269434  15.312  15.335   5.829
 5476POPC   C1A69435  15.074  15.154   6.358
 5476POPC   D2A69436  14.935  15.217   6.778
 5476POPC   C3A69437  15.220  15.183   7.096
 5476POPC   C4A69438  15.436  14.839   7.239
 5476POPC   C1B69439  15.451  15.470   6.231
 5476POPC   C2B69440  15.348  15.502   6.652
 5476POPC   C3B69441  15.503  15.604   7.024
 5476POPC   C4B69442  15.459  15.508   7.450
 5477POPC   NC369443  20.448   7.117   5.574
 5477POPC   PO469444  20.814   7.683   5.387
 5477POPC   GL169445  20.612   7.554   5.773
 5477POPC   GL269446  20.857   7.322   5.810
 5477POPC   C1A69447  20.485   7.318   6.181
 5477POPC   D2A69448  20.644   7.132   6.540
 5477POPC   C3A69449  20.488   7.280   6.919
 5477POPC   C4A69450  20.615   7.367   7.313
 5477POPC   C1B69451  20.959   7.502   6.214
 5477POPC   C2B69452  21.093   7.361   6.615
 5477POPC   C3B69453  21.011   7.509   7.013
 5477POPC   C4B69454  21.093   7.382   7.410
 5478POPC   NC369455  41.344  11.539   5.346
 5478POPC   PO469456  41.889  11.221   5.598
 5478POPC   GL169457  41.575  11.429   5.833
 5478POPC   GL269458  41.353  11.160   5.744
 5478POPC   C1A69459  41.597  11.375   6.293
 5478POPC   D2A69460  41.889  11.291   6.643
 5478POPC   C3A69461  41.730  11.522   6.987
 5478POPC   C4A69462  41.272  11.563   7.079
 5478POPC   C1B69463  41.338  10.939   6.145
 5478POPC   C2B69464  41.229  10.937   6.571
 5478POPC   C3B69465  41.369  11.064   6.969
 5478POPC   C4B69466  41.620  11.195   7.343
 5479POPC   NC369467  14.417  40.826   5.371
 5479POPC   PO469468  14.210  40.267   5.139
 5479POPC   GL169469  14.154  40.540   5.667
 5479POPC   GL269470  14.040  40.912   5.733
 5479POPC   C1A69471  14.431  40.667   6.029
 5479POPC   D2A69472  14.509  40.854   6.440
 5479POPC   C3A69473  14.593  40.576   6.803
 5479POPC   C4A69474  14.702  40.685   7.231
 5479POPC   C1B69475  14.033  40.947   6.209
 5479POPC   C2B69476  14.098  41.114   6.640
 5479POPC   C3B69477  14.413  41.036   6.950
 5479POPC   C4B69478  14.350  41.001   7.416
 5480POPC   NC369479  12.664  35.986   5.470
 5480POPC   PO469480  13.277  36.098   5.510
 5480POPC   GL169481  13.053  35.890   5.859
 5480POPC   GL269482  12.876  36.186   5.892
 5480POPC   C1A69483  12.754  35.848   6.246
 5480POPC   D2A69484  12.682  36.055   6.657
 5480POPC   C3A69485  12.643  35.831   7.049
 5480POPC   C4A69486  12.951  35.829   7.390
 5480POPC   C1B69487  12.752  36.389   6.262
 5480POPC   C2B69488  12.782  36.566   6.680
 5480POPC   C3B69489  12.630  36.383   7.059
 5480POPC   C4B69490  12.500  36.516   7.471
 5481POPC   NC369491   5.440  31.557   5.476
 5481POPC   PO469492   4.850  31.156   5.411
 5481POPC   GL169493   5.119  31.195   5.774
 5481POPC   GL269494   5.099  31.533   5.833
 5481POPC   C1A69495   5.241  31.278   6.226
 5481POPC   D2A69496   5.096  31.400   6.629
 5481POPC   C3A69497   5.272  31.293   7.002
 5481POPC   C4A69498   5.086  31.148   7.363
 5481POPC   C1B69499   5.267  31.800   6.135
 5481POPC   C2B69500   5.139  31.898   6.540
 5481POPC   C3B69501   5.366  31.813   6.895
 5481POPC   C4B69502   5.197  31.706   7.301
 5482POPC   NC369503  10.827   6.470   5.172
 5482POPC   PO469504  10.545   6.977   5.419
 5482POPC   GL169505  10.481   6.724   5.753
 5482POPC   GL269506  10.522   7.035   5.927
 5482POPC   C1A69507  10.562   6.582   6.185
 5482POPC   D2A69508  10.399   6.507   6.611
 5482POPC   C3A69509  10.732   6.521   6.905
 5482POPC   C4A69510  10.618   6.348   7.280
 5482POPC   C1B69511  10.215   7.192   6.186
 5482POPC   C2B69512  10.451   6.999   6.488
 5482POPC   C3B69513  10.457   6.956   6.906
 5482POPC   C4B69514  10.492   6.819   7.319
 5483POPC   NC369515   1.364  34.820   5.344
 5483POPC   PO469516   1.993  34.627   5.576
 5483POPC   GL169517   1.881  34.590   5.981
 5483POPC   GL269518   2.223  34.658   6.041
 5483POPC   C1A69519   1.901  34.628   6.438
 5483POPC   D2A69520   2.025  34.358   6.740
 5483POPC   C3A69521   2.138  34.503   7.100
 5483POPC   C4A69522   1.758  34.435   7.320
 5483POPC   C1B69523   2.231  35.007   6.297
 5483POPC   C2B69524   2.170  34.975   6.708
 5483POPC   C3B69525   2.312  35.144   7.025
 5483POPC   C4B69526   2.527  34.864   7.172
 5484POPC   NC369527   2.309   9.956   5.357
 5484POPC   PO469528   1.747   9.733   5.302
 5484POPC   GL169529   1.929   9.857   5.702
 5484POPC   GL269530   2.200   9.654   5.818
 5484POPC   C1A69531   2.012  10.055   6.119
 5484POPC   D2A69532   2.179   9.974   6.547
 5484POPC   C3A69533   1.945   9.949   6.914
 5484POPC   C4A69534   2.093  10.125   7.297
 5484POPC   C1B69535   2.181   9.564   6.253
 5484POPC   C2B69536   1.839   9.507   6.569
 5484POPC   C3B69537   1.688   9.432   6.985
 5484POPC   C4B69538   1.977   9.584   7.277
 5485POPC   NC369539  39.960  18.027   5.531
 5485POPC   PO469540  39.896  18.684   5.354
 5485POPC   GL169541  40.013  18.568   5.827
 5485POPC   GL269542  40.148  18.233   5.956
 5485POPC   C1A69543  39.862  18.481   6.300
 5485POPC   D2A69544  39.748  18.248   6.712
 5485POPC   C3A69545  39.748  18.502   7.131
 5485POPC   C4A69546  39.733  18.587   7.594
 5485POPC   C1B69547  40.155  17.993   6.362
 5485POPC   C2B69548  40.377  17.979   6.778
 5485POPC   C3B69549  40.373  18.103   7.221
 5485POPC   C4B69550  40.372  18.118   7.708
 5486POPC   NC369551   4.434  24.238   5.470
 5486POPC   PO469552   4.138  24.786   5.342
 5486POPC   GL169553   4.162  24.671   5.776
 5486POPC   GL269554   3.958  24.420   5.876
 5486POPC   C1A69555   4.396  24.436   6.133
 5486POPC   D2A69556   4.370  24.281   6.572
 5486POPC   C3A69557   4.384  24.622   6.909
 5486POPC   C4A69558   4.442  24.785   7.356
 5486POPC   C1B69559   3.976  24.119   6.200
 5486POPC   C2B69560   3.961  23.953   6.607
 5486POPC   C3B69561   3.963  24.216   6.948
 5486POPC   C4B69562   4.037  24.501   7.280
 5487POPC   NC369563  20.944  40.591   5.475
 5487POPC   PO469564  20.247  40.558   5.271
 5487POPC   GL169565  20.442  40.740   5.691
 5487POPC   GL269566  20.783  40.907   5.839
 5487POPC   C1A69567  20.410  40.710   6.168
 5487POPC   D2A69568  20.635  40.879   6.544
 5487POPC   C3A69569  20.369  40.915   6.882
 5487POPC   C4A69570  20.282  40.780   7.284
 5487POPC   C1B69571  20.944  40.633   6.185
 5487POPC   C2B69572  21.065  40.491   6.619
 5487POPC   C3B69573  20.821  40.594   6.999
 5487POPC   C4B69574  20.752  40.929   7.254
 5488POPC   NC369575   2.336  31.193   5.484
 5488POPC   PO469576   2.432  30.604   5.525
 5488POPC   GL169577   2.726  30.575   5.893
 5488POPC   GL269578   3.022  30.365   5.861
 5488POPC   C1A69579   2.848  30.738   6.320
 5488POPC   D2A69580   3.098  30.993   6.618
 5488POPC   C3A69581   3.042  30.963   7.092
 5488POPC   C4A69582   2.803  30.803   7.466
 5488POPC   C1B69583   2.829  30.245   6.289
 5488POPC   C2B69584   2.801  30.327   6.708
 5488POPC   C3B69585   2.993  30.446   7.103
 5488POPC   C4B69586   3.111  30.388   7.550
 5489POPC   NC369587  31.502   5.939   5.345
 5489POPC   PO469588  30.900   5.739   5.421
 5489POPC   GL169589  31.210   5.844   5.773
 5489POPC   GL269590  31.558   5.648   5.776
 5489POPC   C1A69591  31.378   6.036   6.173
 5489POPC   D2A69592  31.532   5.936   6.626
 5489POPC   C3A69593  31.316   5.839   7.043
 5489POPC   C4A69594  31.458   6.134   7.379
 5489POPC   C1B69595  31.862   5.948   5.978
 5489POPC   C2B69596  31.990   6.111   6.380
 5489POPC   C3B69597  31.991   6.117   6.813
 5489POPC   C4B69598  31.817   5.847   7.134
 5490POPC   NC369599  33.200  15.867   5.571
 5490POPC   PO469600  32.751  16.439   5.322
 5490POPC   GL169601  32.833  16.159   5.746
 5490POPC   GL269602  33.119  16.215   5.963
 5490POPC   C1A69603  32.873  15.812   6.143
 5490POPC   D2A69604  33.112  15.630   6.508
 5490POPC   C3A69605  33.203  15.782   6.934
 5490POPC   C4A69606  33.002  15.719   7.341
 5490POPC   C1B69607  33.181  16.155   6.397
 5490POPC   C2B69608  32.860  16.083   6.703
 5490POPC   C3B69609  32.816  16.176   7.138
 5490POPC   C4B69610  32.758  16.209   7.587
 5491POPC   NC369611  25.120   3.788   5.583
 5491POPC   PO469612  25.766   3.617   5.665
 5491POPC   GL169613  25.370   3.484   5.929
 5491POPC   GL269614  25.116   3.255   5.797
 5491POPC   C1A69615  25.079   3.669   6.259
 5491POPC   D2A69616  25.364   3.751   6.586
 5491POPC   C3A69617  25.376   3.639   7.014
 5491POPC   C4A69618  25.701   3.716   7.297
 5491POPC   C1B69619  25.010   3.165   6.245
 5491POPC   C2B69620  25.187   3.257   6.659
 5491POPC   C3B69621  25.096   3.223   7.113
 5491POPC   C4B69622  25.117   3.423   7.504
 5492POPC   NC369623  34.329  24.525   5.547
 5492POPC   PO469624  34.778  24.043   5.722
 5492POPC   GL169625  34.676  24.398   5.923
 5492POPC   GL269626  34.795  24.697   5.784
 5492POPC   C1A69627  34.463  24.468   6.309
 5492POPC   D2A69628  34.482  24.228   6.685
 5492POPC   C3A69629  34.352  24.503   6.989
 5492POPC   C4A69630  34.557  24.619   7.342
 5492POPC   C1B69631  34.902  24.716   6.242
 5492POPC   C2B69632  34.692  24.783   6.671
 5492POPC   C3B69633  34.899  24.846   7.062
 5492POPC   C4B69634  34.918  24.931   7.540
 5493POPC   NC369635  16.987   2.665   5.565
 5493POPC   PO469636  17.545   2.937   5.284
 5493POPC   GL169637  17.439   3.041   5.745
 5493POPC   GL269638  17.099   3.033   5.900
 5493POPC   C1A69639  17.539   2.924   6.207
 5493POPC   D2A69640  17.572   2.636   6.585
 5493POPC   C3A69641  17.671   2.753   7.027
 5493POPC   C4A69642  17.721   2.488   7.417
 5493POPC   C1B69643  17.101   3.150   6.326
 5493POPC   C2B69644  17.347   3.153   6.681
 5493POPC   C3B69645  17.248   3.030   7.095
 5493POPC   C4B69646  17.233   2.621   7.361
 5494POPC   NC369647  42.509   5.857   5.447
 5494POPC   PO469648  41.818   5.761   5.474
 5494POPC   GL169649  42.135   5.854   5.833
 5494POPC   GL269650  42.457   5.657   5.900
 5494POPC   C1A69651  42.316   5.994   6.264
 5494POPC   D2A69652  42.384   6.166   6.707
 5494POPC   C3A69653  42.208   5.964   7.073
 5494POPC   C4A69654  42.086   5.947   7.509
 5494POPC   C1B69655  42.584   5.530   6.304
 5494POPC   C2B69656  42.517   5.664   6.730
 5494POPC   C3B69657  42.526   5.559   7.167
 5494POPC   C4B69658  42.599   5.394   7.601
 5495POPC   NC369659   1.884  24.794   5.409
 5495POPC   PO469660   1.757  24.146   5.402
 5495POPC   GL169661   1.911  24.406   5.789
 5495POPC   GL269662   2.199  24.667   5.799
 5495POPC   C1A69663   1.877  24.569   6.238
 5495POPC   D2A69664   1.817  24.813   6.634
 5495POPC   C3A69665   1.942  24.573   7.001
 5495POPC   C4A69666   1.729  24.508   7.421
 5495POPC   C1B69667   2.328  24.869   6.208
 5495POPC   C2B69668   2.331  24.795   6.648
 5495POPC   C3B69669   2.319  24.928   7.079
 5495POPC   C4B69670   2.264  24.647   7.422
 5496POPC   NC369671   9.148  23.006   5.420
 5496POPC   PO469672   8.491  22.707   5.404
 5496POPC   GL169673   8.766  22.874   5.727
 5496POPC   GL269674   9.007  22.609   5.700
 5496POPC   C1A69675   9.061  22.964   6.091
 5496POPC   D2A69676   9.259  22.913   6.494
 5496POPC   C3A69677   9.108  23.152   6.857
 5496POPC   C4A69678   8.993  23.044   7.258
 5496POPC   C1B69679   8.759  22.486   6.051
 5496POPC   C2B69680   8.831  22.490   6.469
 5496POPC   C3B69681   8.655  22.340   6.839
 5496POPC   C4B69682   8.651  22.619   7.176
 5497POPC   NC369683  15.397  26.997   5.541
 5497POPC   PO469684  15.065  26.468   5.341
 5497POPC   GL169685  15.053  26.681   5.769
 5497POPC   GL269686  15.423  26.670   5.919
 5497POPC   C1A69687  14.821  26.664   6.180
 5497POPC   D2A69688  14.805  26.870   6.592
 5497POPC   C3A69689  15.117  26.726   6.878
 5497POPC   C4A69690  15.091  26.518   7.275
 5497POPC   C1B69691  15.268  26.855   6.303
 5497POPC   C2B69692  15.253  27.162   6.630
 5497POPC   C3B69693  15.407  27.105   7.012
 5497POPC   C4B69694  15.537  26.751   7.269
 5498POPC   NC369695   2.219  12.575   5.430
 5498POPC   PO469696   1.604  12.224   5.477
 5498POPC   GL169697   2.042  12.112   5.711
 5498POPC   GL269698   2.288  12.338   5.866
 5498POPC   C1A69699   2.115  11.915   6.140
 5498POPC   D2A69700   1.759  11.750   6.426
 5498POPC   C3A69701   1.710  11.792   6.877
 5498POPC   C4A69702   2.011  11.970   7.168
 5498POPC   C1B69703   1.981  12.434   6.166
 5498POPC   C2B69704   1.871  12.262   6.567
 5498POPC   C3B69705   1.888  12.429   6.963
 5498POPC   C4B69706   2.267  12.495   7.160
 5499POPC   NC369707  32.469   5.356   5.380
 5499POPC   PO469708  32.026   4.890   5.496
 5499POPC   GL169709  32.219   4.898   5.853
 5499POPC   GL269710  32.287   5.233   5.843
 5499POPC   C1A69711  32.096   4.918   6.290
 5499POPC   D2A69712  32.346   4.899   6.660
 5499POPC   C3A69713  32.114   4.838   7.030
 5499POPC   C4A69714  31.785   4.877   7.349
 5499POPC   C1B69715  32.498   5.211   6.234
 5499POPC   C2B69716  32.589   5.360   6.635
 5499POPC   C3B69717  32.460   5.231   7.060
 5499POPC   C4B69718  32.536   5.330   7.489
 5500POPC   NC369719  33.222  39.383   5.427
 5500POPC   PO469720  32.861  38.923   5.158
 5500POPC   GL169721  32.908  39.015   5.656
 5500POPC   GL269722  32.897  39.367   5.862
 5500POPC   C1A69723  33.053  38.942   6.092
 5500POPC   D2A69724  32.993  39.219   6.443
 5500POPC   C3A69725  33.030  39.178   6.882
 5500POPC   C4A69726  32.862  39.455   7.222
 5500POPC   C1B69727  33.320  39.380   6.101
 5500POPC   C2B69728  33.484  39.368   6.525
 5500POPC   C3B69729  33.397  39.572   6.911
 5500POPC   C4B69730  33.361  39.378   7.293
 5501POPC   NC369731  40.272  27.632   5.054
 5501POPC   PO469732  40.760  27.414   5.476
 5501POPC   GL169733  40.659  27.702   5.811
 5501POPC   GL269734  40.666  27.486   6.059
 5501POPC   C1A69735  40.538  27.945   6.196
 5501POPC   D2A69736  40.460  27.975   6.624
 5501POPC   C3A69737  40.865  27.897   6.827
 5501POPC   C4A69738  40.902  28.003   7.244
 5501POPC   C1B69739  41.018  27.245   6.197
 5501POPC   C2B69740  41.090  27.117   6.626
 5501POPC   C3B69741  40.932  27.180   7.044
 5501POPC   C4B69742  40.924  27.504   7.356
 5502POPC   NC369743   9.330  15.545   5.447
 5502POPC   PO469744   8.803  15.047   5.489
 5502POPC   GL169745   8.986  15.131   5.869
 5502POPC   GL269746   9.211  15.405   5.918
 5502POPC   C1A69747   8.710  15.260   6.192
 5502POPC   D2A69748   8.641  15.174   6.607
 5502POPC   C3A69749   8.799  15.349   6.974
 5502POPC   C4A69750   8.871  15.007   7.215
 5502POPC   C1B69751   9.178  15.287   6.357
 5502POPC   C2B69752   9.289  14.996   6.679
 5502POPC   C3B69753   9.364  15.059   7.101
 5502POPC   C4B69754   9.301  15.476   7.262
 5503POPC   NC369755  36.654  21.616   5.525
 5503POPC   PO469756  36.043  21.384   5.349
 5503POPC   GL169757  36.040  21.339   5.773
 5503POPC   GL269758  36.216  21.027   5.824
 5503POPC   C1A69759  35.950  21.552   6.153
 5503POPC   D2A69760  36.167  21.434   6.508
 5503POPC   C3A69761  36.005  21.416   6.925
 5503POPC   C4A69762  36.112  21.755   7.211
 5503POPC   C1B69763  36.382  21.022   6.257
 5503POPC   C2B69764  36.237  20.938   6.661
 5503POPC   C3B69765  36.310  20.998   7.097
 5503POPC   C4B69766  36.156  21.255   7.444
 5504POPC   NC369767  13.439  31.316   5.367
 5504POPC   PO469768  13.938  31.855   5.395
 5504POPC   GL169769  13.685  31.600   5.722
 5504POPC   GL269770  13.603  31.243   5.829
 5504POPC   C1A69771  13.449  31.661   6.112
 5504POPC   D2A69772  13.556  31.948   6.465
 5504POPC   C3A69773  13.641  31.700   6.831
 5504POPC   C4A69774  13.466  31.585   7.201
 5504POPC   C1B69775  13.738  31.251   6.246
 5504POPC   C2B69776  13.442  31.286   6.586
 5504POPC   C3B69777  13.330  31.142   6.998
 5504POPC   C4B69778  13.542  31.122   7.426
 5505POPC   NC369779  13.397  15.439   5.618
 5505POPC   PO469780  13.916  15.026   5.356
 5505POPC   GL169781  13.675  15.035   5.817
 5505POPC   GL269782  13.667  15.354   6.045
 5505POPC   C1A69783  13.460  14.953   6.271
 5505POPC   D2A69784  13.655  15.020   6.693
 5505POPC   C3A69785  13.524  15.119   7.134
 5505POPC   C4A69786  13.765  15.203   7.520
 5505POPC   C1B69787  13.340  15.485   6.331
 5505POPC   C2B69788  13.243  15.369   6.767
 5505POPC   C3B69789  13.266  15.580   7.153
 5505POPC   C4B69790  13.686  15.665   7.265
 5506POPC   NC369791  29.380   2.305   5.481
 5506POPC   PO469792  29.280   1.623   5.488
 5506POPC   GL169793  29.160   1.889   5.828
 5506POPC   GL269794  28.926   2.161   5.769
 5506POPC   C1A69795  29.104   1.904   6.267
 5506POPC   D2A69796  29.027   1.727   6.659
 5506POPC   C3A69797  29.107   2.085   6.905
 5506POPC   C4A69798  29.348   2.169   7.247
 5506POPC   C1B69799  28.629   2.050   6.098
 5506POPC   C2B69800  28.671   2.098   6.545
 5506POPC   C3B69801  28.623   1.896   6.946
 5506POPC   C4B69802  28.819   1.856   7.338
 5507POPC   NC369803  44.773   4.707   5.019
 5507POPC   PO469804  44.799   4.106   5.479
 5507POPC   GL169805  44.854   4.150   5.902
 5507POPC   GL269806   0.110   3.916   6.050
 5507POPC   C1A69807  44.565   4.345   6.203
 5507POPC   D2A69808  44.352   4.463   6.601
 5507POPC   C3A69809  44.497   4.373   7.027
 5507POPC   C4A69810  44.850   4.636   7.137
 5507POPC   C1B69811  44.762   3.886   6.325
 5507POPC   C2B69812  44.535   3.943   6.696
 5507POPC   C3B69813  44.685   3.885   7.117
 5507POPC   C4B69814  44.840   4.209   7.427
 5508POPC   NC369815  35.910   0.576   5.457
 5508POPC   PO469816  36.541   0.507   5.503
 5508POPC   GL169817  36.421   0.246   5.860
 5508POPC   GL269818  36.050   0.264   5.864
 5508POPC   C1A69819  36.295   0.218   6.312
 5508POPC   D2A69820  36.069   0.197   6.688
 5508POPC   C3A69821  36.221   0.337   7.055
 5508POPC   C4A69822  35.984   0.390   7.450
 5508POPC   C1B69823  36.047   0.641   6.118
 5508POPC   C2B69824  36.018   0.697   6.561
 5508POPC   C3B69825  35.812   0.599   6.947
 5508POPC   C4B69826  35.546   0.629   7.290
 5509POPC   NC369827  10.312  40.431   5.595
 5509POPC   PO469828  10.756  39.998   5.308
 5509POPC   GL169829  10.774  40.164   5.752
 5509POPC   GL269830  10.485  40.191   5.998
 5509POPC   C1A69831  10.917  40.046   6.199
 5509POPC   D2A69832  10.659  39.999   6.592
 5509POPC   C3A69833  10.767  40.145   6.996
 5509POPC   C4A69834  10.815  39.877   7.338
 5509POPC   C1B69835  10.308  39.847   6.242
 5509POPC   C2B69836  10.149  39.790   6.665
 5509POPC   C3B69837  10.338  39.789   7.082
 5509POPC   C4B69838  10.329  39.837   7.540
 5510POPC   NC369839  28.583  35.950   5.601
 5510POPC   PO469840  28.002  36.207   5.285
 5510POPC   GL169841  28.106  36.349   5.765
 5510POPC   GL269842  28.452  36.305   5.935
 5510POPC   C1A69843  28.079  36.270   6.263
 5510POPC   D2A69844  28.368  36.292   6.648
 5510POPC   C3A69845  28.117  36.370   7.026
 5510POPC   C4A69846  28.039  36.170   7.420
 5510POPC   C1B69847  28.494  35.937   6.256
 5510POPC   C2B69848  28.721  35.727   6.619
 5510POPC   C3B69849  28.677  35.677   7.046
 5510POPC   C4B69850  28.492  36.052   7.214
 5511POPC   NC369851  12.496  27.390   5.557
 5511POPC   PO469852  11.938  27.810   5.368
 5511POPC   GL169853  12.074  27.674   5.752
 5511POPC   GL269854  12.060  28.022   5.826
 5511POPC   C1A69855  12.067  27.485   6.165
 5511POPC   D2A69856  11.924  27.287   6.544
 5511POPC   C3A69857  12.178  27.401   6.874
 5511POPC   C4A69858  12.493  27.373   7.167
 5511POPC   C1B69859  11.809  27.928   6.178
 5511POPC   C2B69860  11.947  27.821   6.575
 5511POPC   C3B69861  12.057  27.878   6.998
 5511POPC   C4B69862  11.803  27.717   7.305
 5512POPC   NC369863   2.093  42.053   5.435
 5512POPC   PO469864   1.739  42.665   5.418
 5512POPC   GL169865   2.005  42.458   5.788
 5512POPC   GL269866   2.295  42.629   5.920
 5512POPC   C1A69867   2.108  42.274   6.243
 5512POPC   D2A69868   2.175  42.085   6.657
 5512POPC   C3A69869   2.156  42.308   7.054
 5512POPC   C4A69870   2.174  42.248   7.499
 5512POPC   C1B69871   1.986  42.758   6.238
 5512POPC   C2B69872   2.034  42.642   6.663
 5512POPC   C3B69873   2.029  42.823   7.050
 5512POPC   C4B69874   2.140  42.770   7.503
 5513POPC   NC369875   5.247  13.779   5.447
 5513POPC   PO469876   4.713  13.354   5.405
 5513POPC   GL169877   4.768  13.593   5.829
 5513POPC   GL269878   5.044  13.883   5.900
 5513POPC   C1A69879   4.885  13.600   6.289
 5513POPC   D2A69880   5.131  13.905   6.534
 5513POPC   C3A69881   4.997  13.907   6.961
 5513POPC   C4A69882   5.039  13.742   7.365
 5513POPC   C1B69883   5.338  13.545   6.085
 5513POPC   C2B69884   5.531  13.541   6.511
 5513POPC   C3B69885   5.452  13.614   6.970
 5513POPC   C4B69886   5.403  13.353   7.347
 5514POPC   NC369887  19.616  40.041   5.257
 5514POPC   PO469888  18.937  40.101   5.460
 5514POPC   GL169889  19.208  40.190   5.784
 5514POPC   GL269890  18.902  40.245   5.980
 5514POPC   C1A69891  19.294  40.085   6.235
 5514POPC   D2A69892  19.111  40.065   6.626
 5514POPC   C3A69893  19.440  40.097   6.895
 5514POPC   C4A69894  19.471  40.288   7.282
 5514POPC   C1B69895  18.848  39.811   6.198
 5514POPC   C2B69896  18.962  39.573   6.592
 5514POPC   C3B69897  19.008  39.727   7.028
 5514POPC   C4B69898  19.000  40.185   7.138
 5515POPC   NC369899   8.445   4.450   5.444
 5515POPC   PO469900   7.718   4.218   5.535
 5515POPC   GL169901   8.080   4.299   5.755
 5515POPC   GL269902   8.147   3.943   5.803
 5515POPC   C1A69903   8.315   4.397   6.140
 5515POPC   D2A69904   8.323   4.198   6.559
 5515POPC   C3A69905   8.363   4.418   6.947
 5515POPC   C4A69906   8.002   4.558   7.179
 5515POPC   C1B69907   7.906   4.088   6.180
 5515POPC   C2B69908   7.846   3.977   6.604
 5515POPC   C3B69909   7.981   4.081   7.030
 5515POPC   C4B69910   7.884   4.007   7.459
 5516POPC   NC369911  35.075  35.303   4.930
 5516POPC   PO469912  34.965  35.675   5.442
 5516POPC   GL169913  35.335  35.391   5.743
 5516POPC   GL269914  35.247  34.998   5.900
 5516POPC   C1A69915  35.527  35.292   6.209
 5516POPC   D2A69916  35.592  34.965   6.581
 5516POPC   C3A69917  35.593  35.092   7.053
 5516POPC   C4A69918  35.655  35.515   7.279
 5516POPC   C1B69919  35.098  35.049   6.376
 5516POPC   C2B69920  35.243  35.331   6.724
 5516POPC   C3B69921  35.191  35.380   7.181
 5516POPC   C4B69922  35.183  35.077   7.537
 5517POPC   NC369923  14.545  39.994   4.959
 5517POPC   PO469924  14.452  40.156   5.614
 5517POPC   GL169925  14.521  39.984   5.979
 5517POPC   GL269926  14.750  40.253   6.052
 5517POPC   C1A69927  14.264  39.815   6.325
 5517POPC   D2A69928  14.089  39.659   6.702
 5517POPC   C3A69929  14.209  39.770   7.115
 5517POPC   C4A69930  13.915  39.813   7.431
 5517POPC   C1B69931  14.445  40.294   6.390
 5517POPC   C2B69932  14.240  40.149   6.762
 5517POPC   C3B69933  14.391  40.267   7.165
 5517POPC   C4B69934  14.730  40.219   7.437
 5518POPC   NC369935  19.390  26.970   5.596
 5518POPC   PO469936  19.979  26.744   5.472
 5518POPC   GL169937  19.786  26.758   5.830
 5518POPC   GL269938  19.818  27.142   5.860
 5518POPC   C1A69939  19.901  26.729   6.233
 5518POPC   D2A69940  19.964  27.020   6.545
 5518POPC   C3A69941  19.840  26.751   6.870
 5518POPC   C4A69942  19.994  26.833   7.237
 5518POPC   C1B69943  19.561  27.124   6.222
 5518POPC   C2B69944  19.463  27.054   6.638
 5518POPC   C3B69945  19.691  27.215   7.017
 5518POPC   C4B69946  19.709  27.186   7.476
 5519POPC   NC369947  29.419   9.406   5.553
 5519POPC   PO469948  29.997   9.002   5.540
 5519POPC   GL169949  30.015   9.060   5.937
 5519POPC   GL269950  29.762   9.314   5.938
 5519POPC   C1A69951  29.985   9.107   6.365
 5519POPC   D2A69952  30.199   9.068   6.743
 5519POPC   C3A69953  29.994   9.117   7.123
 5519POPC   C4A69954  30.019   8.812   7.460
 5519POPC   C1B69955  29.529   9.003   6.111
 5519POPC   C2B69956  29.528   8.955   6.543
 5519POPC   C3B69957  29.516   8.934   6.970
 5519POPC   C4B69958  29.569   9.026   7.384
 5520POPC   NC369959  19.649   7.707   5.691
 5520POPC   PO469960  19.922   8.101   5.212
 5520POPC   GL169961  19.909   8.182   5.688
 5520POPC   GL269962  20.226   8.051   5.858
 5520POPC   C1A69963  19.810   8.140   6.162
 5520POPC   D2A69964  19.987   8.050   6.597
 5520POPC   C3A69965  19.665   7.962   6.906
 5520POPC   C4A69966  19.624   8.123   7.333
 5520POPC   C1B69967  20.268   8.330   6.249
 5520POPC   C2B69968  20.150   8.544   6.665
 5520POPC   C3B69969  19.922   8.413   7.008
 5520POPC   C4B69970  20.102   7.998   7.170
 5521POPC   NC369971  27.658  41.424   5.383
 5521POPC   PO469972  27.884  42.028   5.471
 5521POPC   GL169973  27.611  42.033   5.851
 5521POPC   GL269974  27.440  41.702   5.842
 5521POPC   C1A69975  27.373  42.031   6.252
 5521POPC   D2A69976  27.306  41.841   6.696
 5521POPC   C3A69977  27.695  41.817   6.996
 5521POPC   C4A69978  27.911  41.927   7.399
 5521POPC   C1B69979  27.460  41.516   6.275
 5521POPC   C2B69980  27.603  41.419   6.696
 5521POPC   C3B69981  27.455  41.307   7.115
 5521POPC   C4B69982  27.648  41.054   7.443
 5522POPC   NC369983  23.109  32.485   5.387
 5522POPC   PO469984  22.957  31.806   5.377
 5522POPC   GL169985  22.767  32.086   5.721
 5522POPC   GL269986  23.087  32.105   5.843
 5522POPC   C1A69987  22.737  32.378   6.144
 5522POPC   D2A69988  22.568  32.393   6.619
 5522POPC   C3A69989  22.749  32.448   7.081
 5522POPC   C4A69990  23.157  32.476   7.374
 5522POPC   C1B69991  22.968  31.934   6.260
 5522POPC   C2B69992  23.069  32.051   6.681
 5522POPC   C3B69993  23.052  32.037   7.109
 5522POPC   C4B69994  22.791  31.797   7.277
 5523POPC   NC369995  26.427   0.155   5.637
 5523POPC   PO469996  26.950   0.502   5.326
 5523POPC   GL169997  26.994   0.726   5.732
 5523POPC   GL269998  26.695   0.819   5.858
 5523POPC   C1A69999  27.097   0.794   6.183
 5523POPC   D2A70000  26.997   0.524   6.535
 5523POPC   C3A70001  27.019   0.668   6.917
 5523POPC   C4A70002  26.995   0.430   7.237
 5523POPC   C1B70003  26.612   0.568   6.205
 5523POPC   C2B70004  26.496   0.617   6.640
 5523POPC   C3B70005  26.512   0.443   7.048
 5523POPC   C4B70006  26.523  44.994   7.194
 5524POPC   NC370007  14.356  31.701   5.296
 5524POPC   PO470008  13.897  31.132   5.410
 5524POPC   GL170009  14.107  31.213   5.869
 5524POPC   GL270010  14.207  31.545   5.773
 5524POPC   C1A70011  14.360  31.401   6.246
 5524POPC   D2A70012  14.527  31.606   6.643
 5524POPC   C3A70013  14.496  31.403   7.074
 5524POPC   C4A70014  14.608  31.333   7.511
 5524POPC   C1B70015  13.967  31.722   6.137
 5524POPC   C2B70016  14.085  31.902   6.556
 5524POPC   C3B70017  14.133  31.756   6.989
 5524POPC   C4B70018  13.940  31.376   7.184
 5525POPC   NC370019  11.743  36.187   5.414
 5525POPC   PO470020  12.311  35.993   5.174
 5525POPC   GL170021  12.182  35.984   5.674
 5525POPC   GL270022  11.879  36.114   5.892
 5525POPC   C1A70023  12.327  36.123   6.121
 5525POPC   D2A70024  12.303  36.406   6.498
 5525POPC   C3A70025  12.142  36.174   6.809
 5525POPC   C4A70026  12.215  36.149   7.218
 5525POPC   C1B70027  11.853  36.418   6.264
 5525POPC   C2B70028  11.762  36.559   6.691
 5525POPC   C3B70029  11.805  36.419   7.115
 5525POPC   C4B70030  11.745  35.989   7.173
 5526POPC   NC370031  12.499  12.585   5.284
 5526POPC   PO470032  11.796  12.684   5.311
 5526POPC   GL170033  11.811  12.775   5.748
 5526POPC   GL270034  11.984  12.470   5.890
 5526POPC   C1A70035  11.803  12.825   6.211
 5526POPC   D2A70036  11.991  12.703   6.598
 5526POPC   C3A70037  12.059  12.964   6.965
 5526POPC   C4A70038  12.295  13.149   7.320
 5526POPC   C1B70039  12.319  12.721   6.065
 5526POPC   C2B70040  12.524  12.716   6.470
 5526POPC   C3B70041  12.419  12.558   6.875
 5526POPC   C4B70042  12.223  12.619   7.299
 5527POPC   NC370043   5.409  42.929   5.437
 5527POPC   PO470044   4.727  43.203   5.355
 5527POPC   GL170045   5.012  43.232   5.710
 5527POPC   GL270046   5.012  42.923   5.885
 5527POPC   C1A70047   5.069  43.326   6.176
 5527POPC   D2A70048   5.200  43.025   6.516
 5527POPC   C3A70049   5.037  43.061   6.962
 5527POPC   C4A70050   5.017  43.377   7.319
 5527POPC   C1B70051   4.716  42.946   6.239
 5527POPC   C2B70052   4.503  42.984   6.637
 5527POPC   C3B70053   4.587  42.794   7.039
 5527POPC   C4B70054   4.797  42.919   7.402
 5528POPC   NC370055  27.227  37.544   5.352
 5528POPC   PO470056  26.740  37.967   5.103
 5528POPC   GL170057  26.847  37.844   5.576
 5528POPC   GL270058  26.854  37.500   5.700
 5528POPC   C1A70059  26.796  37.841   6.090
 5528POPC   D2A70060  26.563  37.823   6.531
 5528POPC   C3A70061  26.687  37.602   6.935
 5528POPC   C4A70062  26.596  37.571   7.398
 5528POPC   C1B70063  27.171  37.438   6.027
 5528POPC   C2B70064  27.320  37.422   6.461
 5528POPC   C3B70065  27.161  37.308   6.845
 5528POPC   C4B70066  27.100  37.494   7.236
 5529POPC   NC370067  38.847   7.120   5.406
 5529POPC   PO470068  39.549   7.064   5.215
 5529POPC   GL170069  39.375   6.839   5.602
 5529POPC   GL270070  39.166   7.009   5.826
 5529POPC   C1A70071  39.459   6.659   6.058
 5529POPC   D2A70072  39.397   6.757   6.521
 5529POPC   C3A70073  39.364   6.495   6.869
 5529POPC   C4A70074  39.432   6.489   7.278
 5529POPC   C1B70075  38.975   6.804   6.222
 5529POPC   C2B70076  38.896   6.747   6.697
 5529POPC   C3B70077  38.990   6.956   7.101
 5529POPC   C4B70078  39.112   6.853   7.518
 5530POPC   NC370079  28.464  24.678   5.501
 5530POPC   PO470080  27.937  24.402   5.502
 5530POPC   GL170081  28.159  24.546   5.882
 5530POPC   GL270082  28.357  24.301   5.928
 5530POPC   C1A70083  28.507  24.682   6.253
 5530POPC   D2A70084  28.543  24.446   6.700
 5530POPC   C3A70085  28.588  24.664   7.081
 5530POPC   C4A70086  28.597  24.734   7.505
 5530POPC   C1B70087  28.190  24.315   6.351
 5530POPC   C2B70088  28.079  24.253   6.808
 5530POPC   C3B70089  28.204  24.327   7.251
 5530POPC   C4B70090  27.972  24.138   7.619
 5531POPC   NC370091   4.490   0.034   5.503
 5531POPC   PO470092   4.090  44.552   5.251
 5531POPC   GL170093   4.261  44.606   5.690
 5531POPC   GL270094   4.612  44.528   5.686
 5531POPC   C1A70095   4.342  44.758   6.129
 5531POPC   D2A70096   4.149  44.727   6.547
 5531POPC   C3A70097   4.240  44.801   6.989
 5531POPC   C4A70098   4.005  44.535   7.322
 5531POPC   C1B70099   4.775  44.469   6.101
 5531POPC   C2B70100   4.648  44.525   6.514
 5531POPC   C3B70101   4.784  44.459   6.926
 5531POPC   C4B70102   4.588  44.612   7.284
 5532POPC   NC370103  36.524  32.889   5.449
 5532POPC   PO470104  37.100  32.724   5.609
 5532POPC   GL170105  37.045  32.972   5.955
 5532POPC   GL270106  36.770  33.140   5.897
 5532POPC   C1A70107  37.109  32.939   6.355
 5532POPC   D2A70108  37.390  33.089   6.616
 5532POPC   C3A70109  37.208  33.047   7.002
 5532POPC   C4A70110  37.070  33.333   7.315
 5532POPC   C1B70111  36.599  33.024   6.293
 5532POPC   C2B70112  36.600  32.827   6.692
 5532POPC   C3B70113  36.716  33.060   7.051
 5532POPC   C4B70114  36.604  33.109   7.475
 5533POPC   NC370115  20.984  36.076   5.484
 5533POPC   PO470116  21.649  36.146   5.389
 5533POPC   GL170117  21.426  36.051   5.757
 5533POPC   GL270118  21.268  36.367   5.802
 5533POPC   C1A70119  21.276  35.913   6.173
 5533POPC   D2A70120  21.509  35.796   6.556
 5533POPC   C3A70121  21.276  35.753   6.950
 5533POPC   C4A70122  21.317  36.066   7.294
 5533POPC   C1B70123  21.027  36.373   6.166
 5533POPC   C2B70124  21.151  36.219   6.579
 5533POPC   C3B70125  21.074  36.390   6.994
 5533POPC   C4B70126  20.999  36.511   7.440
 5534POPC   NC370127  19.522  38.781   5.457
 5534POPC   PO470128  20.207  38.792   5.412
 5534POPC   GL170129  20.107  38.495   5.755
 5534POPC   GL270130  19.742  38.395   5.768
 5534POPC   C1A70131  19.986  38.586   6.196
 5534POPC   D2A70132  20.110  38.469   6.625
 5534POPC   C3A70133  20.020  38.762   6.968
 5534POPC   C4A70134  20.109  38.617   7.370
 5534POPC   C1B70135  19.641  38.206   6.184
 5534POPC   C2B70136  19.609  38.418   6.605
 5534POPC   C3B70137  19.752  38.344   7.039
 5534POPC   C4B70138  19.497  38.350   7.405
 5535POPC   NC370139  10.084  34.444   5.198
 5535POPC   PO470140  10.684  34.772   5.368
 5535POPC   GL170141  10.646  34.424   5.715
 5535POPC   GL270142  10.336  34.433   5.741
 5535POPC   C1A70143  10.597  34.362   6.185
 5535POPC   D2A70144  10.671  34.433   6.598
 5535POPC   C3A70145  10.444  34.236   6.930
 5535POPC   C4A70146  10.396  34.449   7.344
 5535POPC   C1B70147  10.475  34.822   6.021
 5535POPC   C2B70148  10.391  34.855   6.467
 5535POPC   C3B70149  10.395  34.752   6.909
 5535POPC   C4B70150  10.236  34.930   7.269
 5536POPC   NC370151   9.557  18.043   5.584
 5536POPC   PO470152   9.075  18.423   5.381
 5536POPC   GL170153   8.967  18.208   5.800
 5536POPC   GL270154   9.198  18.012   5.936
 5536POPC   C1A70155   8.796  18.227   6.217
 5536POPC   D2A70156   8.593  18.288   6.604
 5536POPC   C3A70157   8.790  18.548   6.873
 5536POPC   C4A70158   8.915  18.481   7.285
 5536POPC   C1B70159   9.269  17.950   6.368
 5536POPC   C2B70160   9.117  18.203   6.666
 5536POPC   C3B70161   8.931  18.064   7.008
 5536POPC   C4B70162   9.262  18.095   7.315
 5537POPC   NC370163  32.475  23.564   5.224
 5537POPC   PO470164  32.023  24.123   5.365
 5537POPC   GL170165  32.198  23.816   5.643
 5537POPC   GL270166  32.382  24.041   5.864
 5537POPC   C1A70167  32.148  23.662   6.085
 5537POPC   D2A70168  32.301  23.809   6.508
 5537POPC   C3A70169  32.223  23.672   6.953
 5537POPC   C4A70170  31.867  23.539   7.213
 5537POPC   C1B70171  32.515  24.212   6.267
 5537POPC   C2B70172  32.629  24.152   6.724
 5537POPC   C3B70173  32.565  24.051   7.161
 5537POPC   C4B70174  32.681  24.096   7.603
 5538POPC   NC370175  15.104  25.585   5.543
 5538POPC   PO470176  14.856  25.004   5.515
 5538POPC   GL170177  15.195  25.058   5.782
 5538POPC   GL270178  15.471  25.302   5.761
 5538POPC   C1A70179  15.184  25.226   6.189
 5538POPC   D2A70180  15.144  25.019   6.556
 5538POPC   C3A70181  15.110  25.218   6.931
 5538POPC   C4A70182  15.308  25.039   7.249
 5538POPC   C1B70183  15.640  25.424   6.146
 5538POPC   C2B70184  15.466  25.419   6.573
 5538POPC   C3B70185  15.591  25.410   6.999
 5538POPC   C4B70186  15.293  25.554   7.265
 5539POPC   NC370187   6.392   2.164   5.490
 5539POPC   PO470188   7.000   1.892   5.408
 5539POPC   GL170189   6.757   1.839   5.764
 5539POPC   GL270190   6.814   2.181   5.882
 5539POPC   C1A70191   6.522   1.892   6.174
 5539POPC   D2A70192   6.644   2.199   6.507
 5539POPC   C3A70193   6.511   2.085   6.943
 5539POPC   C4A70194   6.492   2.303   7.321
 5539POPC   C1B70195   7.042   1.906   6.205
 5539POPC   C2B70196   7.269   1.802   6.602
 5539POPC   C3B70197   7.184   1.792   7.052
 5539POPC   C4B70198   6.858   1.915   7.334
 5540POPC   NC370199  39.436  44.717   5.298
 5540POPC   PO470200  40.093  44.772   5.288
 5540POPC   GL170201  39.821  44.655   5.647
 5540POPC   GL270202  39.833  44.286   5.666
 5540POPC   C1A70203  39.777  44.715   6.103
 5540POPC   D2A70204  40.079  44.828   6.449
 5540POPC   C3A70205  40.067  44.683   6.898
 5540POPC   C4A70206  40.009  44.938   7.288
 5540POPC   C1B70207  39.711  44.205   6.103
 5540POPC   C2B70208  39.898  44.104   6.496
 5540POPC   C3B70209  39.804  44.207   6.916
 5540POPC   C4B70210  39.640  44.510   7.209
 5541POPC   NC370211  15.698  16.388   5.563
 5541POPC   PO470212  16.215  15.917   5.454
 5541POPC   GL170213  15.891  15.944   5.753
 5541POPC   GL270214  15.688  15.667   5.769
 5541POPC   C1A70215  15.843  16.003   6.185
 5541POPC   D2A70216  16.008  16.078   6.591
 5541POPC   C3A70217  15.794  16.040   6.961
 5541POPC   C4A70218  16.021  16.121   7.319
 5541POPC   C1B70219  15.947  15.517   6.115
 5541POPC   C2B70220  15.844  15.595   6.552
 5541POPC   C3B70221  16.104  15.625   6.905
 5541POPC   C4B70222  15.937  15.638   7.277
 5542POPC   NC370223  26.228  26.553   5.677
 5542POPC   PO470224  26.382  27.139   5.687
 5542POPC   GL170225  26.109  26.947   5.989
 5542POPC   GL270226  25.750  26.857   5.867
 5542POPC   C1A70227  26.120  26.724   6.391
 5542POPC   D2A70228  26.426  26.506   6.648
 5542POPC   C3A70229  26.346  26.514   7.090
 5542POPC   C4A70230  26.312  26.825   7.396
 5542POPC   C1B70231  25.721  27.051   6.300
 5542POPC   C2B70232  25.970  27.158   6.692
 5542POPC   C3B70233  25.970  26.860   7.004
 5542POPC   C4B70234  25.626  26.655   7.127
 5543POPC   NC370235  43.839  26.408   5.606
 5543POPC   PO470236  44.214  27.042   5.582
 5543POPC   GL170237  43.829  26.899   5.828
 5543POPC   GL270238  43.485  27.048   5.770
 5543POPC   C1A70239  43.771  26.653   6.214
 5543POPC   D2A70240  43.807  26.435   6.610
 5543POPC   C3A70241  43.771  26.697   6.978
 5543POPC   C4A70242  44.015  26.756   7.363
 5543POPC   C1B70243  43.371  26.976   6.175
 5543POPC   C2B70244  43.543  26.971   6.591
 5543POPC   C3B70245  43.515  27.217   6.965
 5543POPC   C4B70246  43.579  27.024   7.339
 5544POPC   NC370247  31.444   6.847   4.929
 5544POPC   PO470248  31.683   6.366   5.375
 5544POPC   GL170249  31.483   6.517   5.749
 5544POPC   GL270250  31.113   6.444   5.728
 5544POPC   C1A70251  31.552   6.718   6.148
 5544POPC   D2A70252  31.498   6.435   6.486
 5544POPC   C3A70253  31.615   6.579   6.864
 5544POPC   C4A70254  31.819   6.425   7.207
 5544POPC   C1B70255  31.073   6.580   6.161
 5544POPC   C2B70256  31.086   6.721   6.585
 5544POPC   C3B70257  31.167   6.812   6.992
 5544POPC   C4B70258  31.389   6.667   7.344
 5545POPC   NC370259  34.746   5.192   5.178
 5545POPC   PO470260  34.426   4.594   5.188
 5545POPC   GL170261  34.589   4.777   5.642
 5545POPC   GL270262  34.656   5.156   5.696
 5545POPC   C1A70263  34.497   4.788   6.122
 5545POPC   D2A70264  34.426   4.686   6.567
 5545POPC   C3A70265  34.722   4.819   6.902
 5545POPC   C4A70266  34.637   4.821   7.362
 5545POPC   C1B70267  34.453   5.297   6.097
 5545POPC   C2B70268  34.500   5.209   6.546
 5545POPC   C3B70269  34.683   5.313   6.972
 5545POPC   C4B70270  34.704   5.670   7.204
 5546POPC   NC370271  26.307   0.205   5.066
 5546POPC   PO470272  26.332   0.614   5.577
 5546POPC   GL170273  26.054   0.449   5.883
 5546POPC   GL270274  25.730   0.568   5.760
 5546POPC   C1A70275  26.124   0.392   6.325
 5546POPC   D2A70276  26.252   0.098   6.659
 5546POPC   C3A70277  26.028   0.224   7.017
 5546POPC   C4A70278  25.984   0.689   7.113
 5546POPC   C1B70279  25.573   0.430   6.151
 5546POPC   C2B70280  25.673   0.344   6.582
 5546POPC   C3B70281  25.521   0.447   6.967
 5546POPC   C4B70282  25.667   0.372   7.360
 5547POPC   NC370283  38.840  40.937   5.574
 5547POPC   PO470284  38.330  40.558   5.525
 5547POPC   GL170285  38.476  40.473   5.899
 5547POPC   GL270286  38.153  40.289   5.962
 5547POPC   C1A70287  38.692  40.720   6.239
 5547POPC   D2A70288  38.638  41.049   6.582
 5547POPC   C3A70289  38.560  40.856   6.972
 5547POPC   C4A70290  38.808  40.785   7.298
 5547POPC   C1B70291  38.110  40.676   6.201
 5547POPC   C2B70292  38.297  40.663   6.569
 5547POPC   C3B70293  38.281  40.420   6.916
 5547POPC   C4B70294  38.155  40.525   7.307
 5548POPC   NC370295  26.899   0.984   5.274
 5548POPC   PO470296  26.491   1.530   5.587
 5548POPC   GL170297  26.669   1.332   5.889
 5548POPC   GL270298  26.965   1.253   5.725
 5548POPC   C1A70299  26.694   1.138   6.253
 5548POPC   D2A70300  26.808   1.040   6.637
 5548POPC   C3A70301  26.779   1.356   6.951
 5548POPC   C4A70302  26.817   1.152   7.348
 5548POPC   C1B70303  27.159   1.375   6.128
 5548POPC   C2B70304  27.305   1.164   6.512
 5548POPC   C3B70305  27.252   1.133   6.956
 5548POPC   C4B70306  27.210   1.482   7.232
 5549POPC   NC370307   3.394  32.522   4.974
 5549POPC   PO470308   3.265  32.096   5.512
 5549POPC   GL170309   3.584  32.086   5.797
 5549POPC   GL270310   3.773  31.790   5.790
 5549POPC   C1A70311   3.580  32.279   6.184
 5549POPC   D2A70312   3.390  32.482   6.555
 5549POPC   C3A70313   3.257  32.241   6.943
 5549POPC   C4A70314   3.468  32.099   7.355
 5549POPC   C1B70315   3.936  31.863   6.188
 5549POPC   C2B70316   3.711  31.979   6.555
 5549POPC   C3B70317   3.588  31.841   6.930
 5549POPC   C4B70318   3.782  31.680   7.316
 5550POPC   NC370319  26.423   9.899   5.307
 5550POPC   PO470320  27.095  10.059   5.488
 5550POPC   GL170321  26.725   9.924   5.734
 5550POPC   GL270322  26.595   9.559   5.705
 5550POPC   C1A70323  26.627   9.951   6.175
 5550POPC   D2A70324  27.015   9.956   6.439
 5550POPC   C3A70325  26.997   9.856   6.890
 5550POPC   C4A70326  26.690  10.011   7.171
 5550POPC   C1B70327  26.896   9.528   6.093
 5550POPC   C2B70328  26.734   9.531   6.548
 5550POPC   C3B70329  26.568   9.529   6.990
 5550POPC   C4B70330  26.561   9.228   7.334
 5551POPC   NC370331  11.678   8.617   5.545
 5551POPC   PO470332  11.362   9.283   5.553
 5551POPC   GL170333  11.234   9.167   5.944
 5551POPC   GL270334  11.176   8.803   5.867
 5551POPC   C1A70335  11.190   9.378   6.336
 5551POPC   D2A70336  11.053   9.168   6.704
 5551POPC   C3A70337  11.375   8.988   6.941
 5551POPC   C4A70338  11.447   9.072   7.358
 5551POPC   C1B70339  11.031   8.536   6.225
 5551POPC   C2B70340  10.975   8.643   6.696
 5551POPC   C3B70341  11.034   8.665   7.143
 5551POPC   C4B70342  11.433   8.561   7.308
 5552POPC   NC370343  33.436  11.247   5.159
 5552POPC   PO470344  32.857  10.990   5.250
 5552POPC   GL170345  33.039  11.246   5.605
 5552POPC   GL270346  32.728  11.313   5.749
 5552POPC   C1A70347  33.070  11.210   6.114
 5552POPC   D2A70348  32.812  11.259   6.535
 5552POPC   C3A70349  33.044  11.171   6.940
 5552POPC   C4A70350  33.419  10.950   7.177
 5552POPC   C1B70351  32.755  11.613   6.119
 5552POPC   C2B70352  32.858  11.795   6.529
 5552POPC   C3B70353  32.733  11.678   6.949
 5552POPC   C4B70354  33.058  11.585   7.252
 5553POPC   NC370355   9.270   7.591   5.458
 5553POPC   PO470356   9.911   7.390   5.447
 5553POPC   GL170357   9.830   7.352   5.830
 5553POPC   GL270358   9.502   7.263   5.826
 5553POPC   C1A70359   9.825   7.532   6.230
 5553POPC   D2A70360   9.824   7.372   6.609
 5553POPC   C3A70361   9.907   7.623   6.943
 5553POPC   C4A70362   9.779   7.531   7.334
 5553POPC   C1B70363   9.677   7.050   6.200
 5553POPC   C2B70364   9.498   6.965   6.594
 5553POPC   C3B70365   9.615   7.116   7.009
 5553POPC   C4B70366   9.378   7.225   7.380
 5554POPC   NC370367  42.341   3.852   5.506
 5554POPC   PO470368  42.018   3.305   5.384
 5554POPC   GL170369  42.286   3.355   5.774
 5554POPC   GL270370  42.230   3.663   5.958
 5554POPC   C1A70371  42.189   3.265   6.244
 5554POPC   D2A70372  42.033   3.411   6.641
 5554POPC   C3A70373  42.273   3.322   7.007
 5554POPC   C4A70374  42.392   3.481   7.416
 5554POPC   C1B70375  42.191   3.875   6.350
 5554POPC   C2B70376  42.446   4.060   6.660
 5554POPC   C3B70377  42.352   3.840   7.013
 5554POPC   C4B70378  42.099   3.904   7.337
 5555POPC   NC370379  11.480  28.846   5.590
 5555POPC   PO470380  10.982  29.316   5.486
 5555POPC   GL170381  11.041  28.984   5.818
 5555POPC   GL270382  11.321  29.196   5.955
 5555POPC   C1A70383  11.066  28.935   6.302
 5555POPC   D2A70384  11.147  29.121   6.735
 5555POPC   C3A70385  11.263  28.861   7.103
 5555POPC   C4A70386  11.427  28.980   7.544
 5555POPC   C1B70387  11.518  29.549   6.209
 5555POPC   C2B70388  11.591  29.616   6.652
 5555POPC   C3B70389  11.475  29.448   7.054
 5555POPC   C4B70390  11.491  29.522   7.491
 5556POPC   NC370391  30.275  28.605   5.383
 5556POPC   PO470392  30.933  28.371   5.294
 5556POPC   GL170393  30.730  28.485   5.664
 5556POPC   GL270394  30.430  28.313   5.795
 5556POPC   C1A70395  30.839  28.454   6.091
 5556POPC   D2A70396  30.652  28.563   6.498
 5556POPC   C3A70397  30.852  28.551   6.878
 5556POPC   C4A70398  30.628  28.359   7.188
 5556POPC   C1B70399  30.318  28.669   6.108
 5556POPC   C2B70400  30.249  28.894   6.551
 5556POPC   C3B70401  30.294  28.760   7.023
 5556POPC   C4B70402  30.337  28.652   7.503
 5557POPC   NC370403   1.765  25.538   5.486
 5557POPC   PO470404   2.275  25.046   5.388
 5557POPC   GL170405   2.016  25.151   5.747
 5557POPC   GL270406   2.164  25.424   5.829
 5557POPC   C1A70407   1.902  25.156   6.201
 5557POPC   D2A70408   2.144  25.260   6.576
 5557POPC   C3A70409   1.930  25.263   6.953
 5557POPC   C4A70410   1.790  24.989   7.236
 5557POPC   C1B70411   2.253  25.625   6.235
 5557POPC   C2B70412   2.424  25.697   6.655
 5557POPC   C3B70413   2.259  25.649   7.087
 5557POPC   C4B70414   2.056  25.789   7.499
 5558POPC   NC370415   0.043  20.306   5.464
 5558POPC   PO470416  44.564  20.697   5.413
 5558POPC   GL170417  44.801  20.625   5.805
 5558POPC   GL270418   0.015  20.880   5.946
 5558POPC   C1A70419  44.790  20.470   6.237
 5558POPC   D2A70420   0.008  20.538   6.663
 5558POPC   C3A70421  44.810  20.454   7.082
 5558POPC   C4A70422  44.931  20.660   7.461
 5558POPC   C1B70423  44.870  20.952   6.378
 5558POPC   C2B70424  44.607  20.831   6.779
 5558POPC   C3B70425  44.511  20.884   7.240
 5558POPC   C4B70426  44.322  21.016   7.650
 5559POPC   NC370427  22.040  34.456   5.156
 5559POPC   PO470428  22.404  34.809   5.568
 5559POPC   GL170429  22.104  34.553   5.808
 5559POPC   GL270430  21.840  34.765   5.771
 5559POPC   C1A70431  21.975  34.479   6.262
 5559POPC   D2A70432  22.123  34.467   6.700
 5559POPC   C3A70433  22.254  34.822   6.979
 5559POPC   C4A70434  22.101  34.517   7.255
 5559POPC   C1B70435  21.714  34.893   6.151
 5559POPC   C2B70436  21.934  34.924   6.546
 5559POPC   C3B70437  21.757  34.783   6.939
 5559POPC   C4B70438  21.777  34.908   7.372
 5560POPC   NC370439  42.494  39.346   5.288
 5560POPC   PO470440  42.612  38.798   5.672
 5560POPC   GL170441  42.487  39.166   5.913
 5560POPC   GL270442  42.299  39.486   5.762
 5560POPC   C1A70443  42.332  39.213   6.346
 5560POPC   D2A70444  42.163  39.085   6.739
 5560POPC   C3A70445  42.468  39.033   7.084
 5560POPC   C4A70446  42.566  39.280   7.480
 5560POPC   C1B70447  42.084  39.608   6.150
 5560POPC   C2B70448  41.999  39.568   6.617
 5560POPC   C3B70449  42.213  39.506   7.036
 5560POPC   C4B70450  42.184  39.615   7.484
 5561POPC   NC370451  40.296   9.025   5.458
 5561POPC   PO470452  39.699   9.389   5.460
 5561POPC   GL170453  39.906   9.284   5.835
 5561POPC   GL270454  40.281   9.371   5.845
 5561POPC   C1A70455  39.779   8.983   6.183
 5561POPC   D2A70456  39.647   8.986   6.632
 5561POPC   C3A70457  39.909   8.764   6.917
 5561POPC   C4A70458  39.830   8.799   7.357
 5561POPC   C1B70459  40.135   9.329   6.287
 5561POPC   C2B70460  40.136   9.185   6.702
 5561POPC   C3B70461  40.009   9.224   7.114
 5561POPC   C4B70462  40.288   9.008   7.349
 5562POPC   NC370463   1.711  18.213   5.243
 5562POPC   PO470464   2.267  17.976   5.585
 5562POPC   GL170465   2.029  18.309   5.816
 5562POPC   GL270466   2.103  18.045   6.052
 5562POPC   C1A70467   1.860  18.419   6.276
 5562POPC   D2A70468   2.112  18.418   6.701
 5562POPC   C3A70469   1.977  18.347   7.120
 5562POPC   C4A70470   2.096  18.049   7.468
 5562POPC   C1B70471   1.800  17.907   6.336
 5562POPC   C2B70472   1.709  18.102   6.703
 5562POPC   C3B70473   1.713  17.923   7.100
 5562POPC   C4B70474   1.579  18.200   7.431
 5563POPC   NC370475   4.344  23.450   5.585
 5563POPC   PO470476   3.971  24.108   5.491
 5563POPC   GL170477   4.158  23.881   5.786
 5563POPC   GL270478   3.915  23.617   5.823
 5563POPC   C1A70479   4.424  23.916   6.144
 5563POPC   D2A70480   4.457  23.733   6.541
 5563POPC   C3A70481   4.393  23.913   6.927
 5563POPC   C4A70482   4.506  23.764   7.310
 5563POPC   C1B70483   4.045  23.587   6.246
 5563POPC   C2B70484   4.057  23.429   6.669
 5563POPC   C3B70485   4.055  23.556   7.102
 5563POPC   C4B70486   4.119  23.493   7.540
 5564POPC   NC370487  21.518  22.539   5.284
 5564POPC   PO470488  21.704  23.207   5.426
 5564POPC   GL170489  21.549  23.104   5.845
 5564POPC   GL270490  21.396  22.762   5.845
 5564POPC   C1A70491  21.646  23.000   6.291
 5564POPC   D2A70492  21.779  22.710   6.625
 5564POPC   C3A70493  21.588  22.721   7.053
 5564POPC   C4A70494  21.416  23.095   7.171
 5564POPC   C1B70495  21.191  22.750   6.279
 5564POPC   C2B70496  21.250  22.981   6.681
 5564POPC   C3B70497  20.948  23.088   6.997
 5564POPC   C4B70498  21.040  22.690   7.183
 5565POPC   NC370499  34.618   3.230   5.384
 5565POPC   PO470500  34.275   2.639   5.441
 5565POPC   GL170501  34.449   2.737   5.830
 5565POPC   GL270502  34.779   2.841   5.754
 5565POPC   C1A70503  34.506   2.852   6.268
 5565POPC   D2A70504  34.607   3.111   6.626
 5565POPC   C3A70505  34.443   2.987   7.012
 5565POPC   C4A70506  34.673   2.669   7.178
 5565POPC   C1B70507  34.983   2.949   6.131
 5565POPC   C2B70508  35.012   2.784   6.567
 5565POPC   C3B70509  35.144   2.772   7.009
 5565POPC   C4B70510  35.090   3.057   7.367
 5566POPC   NC370511  31.818  29.066   5.444
 5566POPC   PO470512  31.223  29.263   5.345
 5566POPC   GL170513  31.396  28.984   5.716
 5566POPC   GL270514  31.049  28.890   5.775
 5566POPC   C1A70515  31.690  29.049   6.136
 5566POPC   D2A70516  31.776  29.339   6.548
 5566POPC   C3A70517  31.646  29.121   6.971
 5566POPC   C4A70518  31.252  28.847   7.073
 5566POPC   C1B70519  31.186  29.159   6.133
 5566POPC   C2B70520  31.310  29.109   6.553
 5566POPC   C3B70521  31.172  29.348   6.895
 5566POPC   C4B70522  31.051  29.262   7.299
 5567POPC   NC370523  11.843  19.066   5.373
 5567POPC   PO470524  12.051  18.614   5.801
 5567POPC   GL170525  12.004  19.071   5.863
 5567POPC   GL270526  12.250  19.349   5.858
 5567POPC   C1A70527  11.778  19.340   6.158
 5567POPC   D2A70528  11.750  19.502   6.594
 5567POPC   C3A70529  11.904  19.233   6.907
 5567POPC   C4A70530  12.184  19.244   7.213
 5567POPC   C1B70531  12.358  19.107   6.251
 5567POPC   C2B70532  12.635  18.984   6.605
 5567POPC   C3B70533  12.518  18.889   7.042
 5567POPC   C4B70534  12.132  18.711   7.260
 5568POPC   NC370535   6.292  24.976   5.553
 5568POPC   PO470536   5.814  24.522   5.548
 5568POPC   GL170537   5.972  24.516   5.926
 5568POPC   GL270538   6.024  24.841   5.974
 5568POPC   C1A70539   6.116  24.375   6.302
 5568POPC   D2A70540   6.184  24.136   6.653
 5568POPC   C3A70541   5.963  24.263   7.026
 5568POPC   C4A70542   6.167  24.325   7.401
 5568POPC   C1B70543   5.752  24.724   6.325
 5568POPC   C2B70544   5.884  24.651   6.713
 5568POPC   C3B70545   5.783  24.741   7.127
 5568POPC   C4B70546   5.679  24.470   7.423
 5569POPC   NC370547  18.162  11.875   5.050
 5569POPC   PO470548  18.555  12.352   5.386
 5569POPC   GL170549  18.502  12.143   5.816
 5569POPC   GL270550  18.161  12.008   5.910
 5569POPC   C1A70551  18.597  11.962   6.224
 5569POPC   D2A70552  18.514  11.705   6.578
 5569POPC   C3A70553  18.233  11.806   6.881
 5569POPC   C4A70554  18.422  12.012   7.213
 5569POPC   C1B70555  18.090  11.922   6.338
 5569POPC   C2B70556  17.866  12.126   6.663
 5569POPC   C3B70557  17.922  12.171   7.106
 5569POPC   C4B70558  17.961  11.836   7.397
 5570POPC   NC370559  17.587   4.171   5.049
 5570POPC   PO470560  17.469   4.673   5.412
 5570POPC   GL170561  17.355   4.401   5.791
 5570POPC   GL270562  17.657   4.324   5.916
 5570POPC   C1A70563  17.273   4.467   6.262
 5570POPC   D2A70564  17.205   4.555   6.709
 5570POPC   C3A70565  17.188   4.249   7.020
 5570POPC   C4A70566  17.470   4.468   7.316
 5570POPC   C1B70567  17.430   3.986   6.160
 5570POPC   C2B70568  17.442   4.071   6.597
 5570POPC   C3B70569  17.669   4.133   6.968
 5570POPC   C4B70570  17.772   3.809   7.202
 5571POPC   NC370571  23.232  39.533   5.119
 5571POPC   PO470572  22.821  39.084   5.522
 5571POPC   GL170573  22.683  39.238   5.869
 5571POPC   GL270574  22.687  39.573   5.910
 5571POPC   C1A70575  22.855  39.123   6.245
 5571POPC   D2A70576  23.006  38.976   6.620
 5571POPC   C3A70577  22.742  38.931   6.990
 5571POPC   C4A70578  22.894  39.035   7.362
 5571POPC   C1B70579  23.040  39.610   6.245
 5571POPC   C2B70580  23.018  39.543   6.623
 5571POPC   C3B70581  23.025  39.364   6.979
 5571POPC   C4B70582  22.974  39.539   7.405
 5572POPC   NC370583   3.105   5.307   5.670
 5572POPC   PO470584   3.637   5.035   5.368
 5572POPC   GL170585   3.614   5.208   5.783
 5572POPC   GL270586   3.420   4.900   5.849
 5572POPC   C1A70587   3.491   5.270   6.261
 5572POPC   D2A70588   3.594   5.175   6.739
 5572POPC   C3A70589   3.567   5.478   7.131
 5572POPC   C4A70590   3.302   5.436   7.533
 5572POPC   C1B70591   3.771   4.842   6.156
 5572POPC   C2B70592   3.707   4.667   6.584
 5572POPC   C3B70593   3.392   4.711   6.887
 5572POPC   C4B70594   3.413   4.997   7.226
 5573POPC   NC370595  36.455   5.206   5.001
 5573POPC   PO470596  35.960   5.308   5.456
 5573POPC   GL170597  36.060   4.957   5.794
 5573POPC   GL270598  36.335   4.752   5.757
 5573POPC   C1A70599  36.020   4.816   6.215
 5573POPC   D2A70600  35.975   5.067   6.607
 5573POPC   C3A70601  35.853   4.898   7.014
 5573POPC   C4A70602  35.895   5.200   7.364
 5573POPC   C1B70603  36.542   4.914   6.134
 5573POPC   C2B70604  36.491   4.965   6.546
 5573POPC   C3B70605  36.377   4.885   6.932
 5573POPC   C4B70606  36.637   5.087   7.224
 5574POPC   NC370607  36.804  26.578   5.316
 5574POPC   PO470608  37.253  26.984   5.460
 5574POPC   GL170609  37.038  26.680   5.784
 5574POPC   GL270610  36.677  26.520   5.805
 5574POPC   C1A70611  36.845  26.861   6.175
 5574POPC   D2A70612  36.686  26.980   6.598
 5574POPC   C3A70613  36.977  27.099   6.922
 5574POPC   C4A70614  36.900  26.952   7.318
 5574POPC   C1B70615  36.853  26.340   6.176
 5574POPC   C2B70616  37.006  26.531   6.546
 5574POPC   C3B70617  36.895  26.578   6.966
 5574POPC   C4B70618  37.156  26.519   7.317
 5575POPC   NC370619   2.493  25.587   5.433
 5575POPC   PO470620   3.077  26.009   5.280
 5575POPC   GL170621   2.928  25.875   5.731
 5575POPC   GL270622   2.863  26.192   5.849
 5575POPC   C1A70623   2.704  25.861   6.184
 5575POPC   D2A70624   2.883  25.926   6.607
 5575POPC   C3A70625   2.641  26.073   6.974
 5575POPC   C4A70626   2.545  25.943   7.385
 5575POPC   C1B70627   3.162  26.119   6.193
 5575POPC   C2B70628   3.336  26.358   6.569
 5575POPC   C3B70629   3.174  26.193   6.953
 5575POPC   C4B70630   2.986  26.170   7.372
 5576POPC   NC370631  12.778  32.692   5.350
 5576POPC   PO470632  12.699  33.399   5.427
 5576POPC   GL170633  12.723  33.206   5.826
 5576POPC   GL270634  12.519  32.888   5.805
 5576POPC   C1A70635  13.041  33.358   6.142
 5576POPC   D2A70636  13.207  33.365   6.569
 5576POPC   C3A70637  13.007  33.239   6.946
 5576POPC   C4A70638  12.922  33.276   7.371
 5576POPC   C1B70639  12.679  32.898   6.250
 5576POPC   C2B70640  12.762  32.718   6.665
 5576POPC   C3B70641  12.711  32.829   7.092
 5576POPC   C4B70642  12.824  32.572   7.423
 5577POPC   NC370643  19.074  15.763   5.520
 5577POPC   PO470644  18.827  16.391   5.485
 5577POPC   GL170645  18.897  16.104   5.854
 5577POPC   GL270646  19.259  16.091   5.976
 5577POPC   C1A70647  18.922  15.892   6.293
 5577POPC   D2A70648  19.282  16.028   6.544
 5577POPC   C3A70649  19.237  16.161   6.964
 5577POPC   C4A70650  18.896  16.070   7.252
 5577POPC   C1B70651  19.373  15.659   6.166
 5577POPC   C2B70652  19.245  15.499   6.580
 5577POPC   C3B70653  18.970  15.672   6.870
 5577POPC   C4B70654  19.252  15.691   7.180
 5578POPC   NC370655  14.261  36.642   5.495
 5578POPC   PO470656  14.301  37.285   5.547
 5578POPC   GL170657  14.410  37.003   5.881
 5578POPC   GL270658  14.240  36.674   6.002
 5578POPC   C1A70659  14.602  37.101   6.282
 5578POPC   D2A70660  14.401  37.053   6.665
 5578POPC   C3A70661  14.534  37.143   7.079
 5578POPC   C4A70662  14.144  37.066   7.308
 5578POPC   C1B70663  14.697  36.618   6.099
 5578POPC   C2B70664  14.935  36.732   6.481
 5578POPC   C3B70665  14.715  36.689   6.870
 5578POPC   C4B70666  14.481  36.673   7.282
 5579POPC   NC370667  19.715  36.047   5.500
 5579POPC   PO470668  20.282  35.801   5.294
 5579POPC   GL170669  20.179  35.983   5.775
 5579POPC   GL270670  20.020  36.311   5.843
 5579POPC   C1A70671  19.937  35.928   6.180
 5579POPC   D2A70672  19.929  36.244   6.525
 5579POPC   C3A70673  19.852  36.001   6.892
 5579POPC   C4A70674  19.956  35.909   7.329
 5579POPC   C1B70675  19.587  36.305   6.099
 5579POPC   C2B70676  19.424  36.207   6.532
 5579POPC   C3B70677  19.535  36.417   6.893
 5579POPC   C4B70678  19.806  36.393   7.256
 5580POPC   NC370679  18.634  32.831   5.466
 5580POPC   PO470680  19.271  32.446   5.365
 5580POPC   GL170681  19.209  32.174   5.752
 5580POPC   GL270682  18.854  32.312   5.819
 5580POPC   C1A70683  19.114  31.951   6.157
 5580POPC   D2A70684  18.756  32.085   6.421
 5580POPC   C3A70685  18.862  32.207   6.833
 5580POPC   C4A70686  19.020  32.076   7.211
 5580POPC   C1B70687  19.041  32.459   6.214
 5580POPC   C2B70688  19.290  32.379   6.594
 5580POPC   C3B70689  19.291  32.512   7.055
 5580POPC   C4B70690  19.284  32.383   7.510
 5581POPC   NC370691  29.124  20.265   5.285
 5581POPC   PO470692  29.264  19.578   5.380
 5581POPC   GL170693  29.069  19.568   5.812
 5581POPC   GL270694  29.265  19.804   5.998
 5581POPC   C1A70695  28.850  19.737   6.246
 5581POPC   D2A70696  29.074  19.972   6.609
 5581POPC   C3A70697  29.021  19.982   7.089
 5581POPC   C4A70698  28.781  19.846   7.477
 5581POPC   C1B70699  29.212  19.398   6.289
 5581POPC   C2B70700  29.138  19.297   6.729
 5581POPC   C3B70701  29.087  19.478   7.151
 5581POPC   C4B70702  29.245  19.669   7.523
 5582POPC   NC370703  29.493  37.744   5.462
 5582POPC   PO470704  29.153  37.216   5.364
 5582POPC   GL170705  29.024  37.399   5.750
 5582POPC   GL270706  28.676  37.312   5.839
 5582POPC   C1A70707  29.255  37.562   6.124
 5582POPC   D2A70708  29.196  37.390   6.529
 5582POPC   C3A70709  29.437  37.297   6.903
 5582POPC   C4A70710  29.305  37.536   7.314
 5582POPC   C1B70711  28.709  37.621   6.199
 5582POPC   C2B70712  28.838  37.758   6.667
 5582POPC   C3B70713  28.838  37.728   7.143
 5582POPC   C4B70714  29.035  37.911   7.542
 5583POPC   NC370715  27.490  11.147   5.477
 5583POPC   PO470716  27.695  11.815   5.490
 5583POPC   GL170717  27.665  11.487   5.856
 5583POPC   GL270718  27.359  11.351   5.931
 5583POPC   C1A70719  27.576  11.479   6.355
 5583POPC   D2A70720  27.349  11.409   6.723
 5583POPC   C3A70721  27.645  11.233   6.973
 5583POPC   C4A70722  27.817  11.377   7.358
 5583POPC   C1B70723  27.278  11.072   6.308
 5583POPC   C2B70724  27.219  10.887   6.689
 5583POPC   C3B70725  27.221  10.981   7.104
 5583POPC   C4B70726  27.278  10.747   7.452
 5584POPC   NC370727  23.341  38.720   5.191
 5584POPC   PO470728  23.768  38.199   5.333
 5584POPC   GL170729  23.695  38.564   5.639
 5584POPC   GL270730  24.025  38.759   5.644
 5584POPC   C1A70731  23.601  38.557   6.121
 5584POPC   D2A70732  23.660  38.358   6.563
 5584POPC   C3A70733  23.606  38.505   7.002
 5584POPC   C4A70734  23.711  38.354   7.421
 5584POPC   C1B70735  24.033  38.885   6.077
 5584POPC   C2B70736  23.814  38.859   6.484
 5584POPC   C3B70737  23.954  38.865   6.902
 5584POPC   C4B70738  23.765  38.922   7.294
 5585POPC   NC370739  32.535  26.597   5.440
 5585POPC   PO470740  32.413  27.193   5.717
 5585POPC   GL170741  32.297  26.846   5.878
 5585POPC   GL270742  32.678  26.789   5.889
 5585POPC   C1A70743  32.066  26.941   6.259
 5585POPC   D2A70744  32.088  27.158   6.662
 5585POPC   C3A70745  32.044  26.861   6.966
 5585POPC   C4A70746  32.152  26.766   7.388
 5585POPC   C1B70747  32.540  26.656   6.297
 5585POPC   C2B70748  32.590  26.516   6.710
 5585POPC   C3B70749  32.539  26.754   7.064
 5585POPC   C4B70750  32.662  26.948   7.452
 5586POPC   NC370751  41.759   6.233   5.551
 5586POPC   PO470752  41.177   6.063   5.217
 5586POPC   GL170753  41.393   5.958   5.741
 5586POPC   GL270754  41.456   5.571   5.819
 5586POPC   C1A70755  41.713   5.919   6.134
 5586POPC   D2A70756  41.930   5.851   6.569
 5586POPC   C3A70757  41.707   5.957   6.950
 5586POPC   C4A70758  41.664   5.683   7.298
 5586POPC   C1B70759  41.277   5.580   6.219
 5586POPC   C2B70760  41.390   5.896   6.526
 5586POPC   C3B70761  41.236   6.175   6.812
 5586POPC   C4B70762  41.258   5.973   7.213
 5587POPC   NC370763   5.802  37.160   5.388
 5587POPC   PO470764   5.680  36.470   5.461
 5587POPC   GL170765   5.763  36.808   5.792
 5587POPC   GL270766   5.509  37.059   5.824
 5587POPC   C1A70767   5.929  36.794   6.223
 5587POPC   D2A70768   6.149  36.566   6.556
 5587POPC   C3A70769   6.041  36.771   6.909
 5587POPC   C4A70770   5.692  36.716   7.132
 5587POPC   C1B70771   5.723  37.260   6.159
 5587POPC   C2B70772   5.874  37.156   6.587
 5587POPC   C3B70773   5.592  37.204   6.951
 5587POPC   C4B70774   5.574  37.186   7.406
 5588POPC   NC370775  28.075  25.763   5.484
 5588POPC   PO470776  27.681  26.344   5.333
 5588POPC   GL170777  27.655  26.171   5.780
 5588POPC   GL270778  27.652  25.781   5.843
 5588POPC   C1A70779  27.747  26.281   6.226
 5588POPC   D2A70780  27.721  26.034   6.612
 5588POPC   C3A70781  27.633  26.134   7.038
 5588POPC   C4A70782  27.902  25.946   7.332
 5588POPC   C1B70783  27.414  25.861   6.249
 5588POPC   C2B70784  27.207  25.855   6.670
 5588POPC   C3B70785  27.145  25.940   7.093
 5588POPC   C4B70786  27.222  25.974   7.588
 5589POPC   NC370787  40.336  22.379   5.457
 5589POPC   PO470788  39.787  22.055   5.432
 5589POPC   GL170789  39.806  22.237   5.825
 5589POPC   GL270790  40.140  22.185   5.877
 5589POPC   C1A70791  39.832  22.391   6.256
 5589POPC   D2A70792  39.783  22.133   6.642
 5589POPC   C3A70793  39.941  22.174   7.107
 5589POPC   C4A70794  39.915  21.989   7.571
 5589POPC   C1B70795  40.287  22.168   6.297
 5589POPC   C2B70796  40.227  22.433   6.619
 5589POPC   C3B70797  40.416  22.471   6.978
 5589POPC   C4B70798  40.426  22.448   7.385
 5590POPC   NC370799  31.680   4.630   5.642
 5590POPC   PO470800  31.477   4.035   5.537
 5590POPC   GL170801  31.610   4.222   5.916
 5590POPC   GL270802  31.313   4.473   5.963
 5590POPC   C1A70803  31.679   4.416   6.333
 5590POPC   D2A70804  31.407   4.501   6.674
 5590POPC   C3A70805  31.622   4.482   7.055
 5590POPC   C4A70806  31.536   4.372   7.485
 5590POPC   C1B70807  31.175   4.052   6.165
 5590POPC   C2B70808  31.213   3.901   6.621
 5590POPC   C3B70809  31.280   4.098   7.043
 5590POPC   C4B70810  31.070   4.056   7.451
 5591POPC   NC370811  43.699  11.711   5.290
 5591POPC   PO470812  44.088  12.141   5.698
 5591POPC   GL170813  43.727  12.002   5.874
 5591POPC   GL270814  43.546  12.290   5.733
 5591POPC   C1A70815  43.784  11.995   6.328
 5591POPC   D2A70816  43.955  12.242   6.681
 5591POPC   C3A70817  43.852  11.975   7.032
 5591POPC   C4A70818  44.201  11.729   7.163
 5591POPC   C1B70819  43.502  12.402   6.168
 5591POPC   C2B70820  43.448  12.288   6.601
 5591POPC   C3B70821  43.620  12.445   7.013
 5591POPC   C4B70822  44.004  12.397   7.269
 5592POPC   NC370823  35.376  18.655   5.091
 5592POPC   PO470824  35.077  19.046   5.473
 5592POPC   GL170825  35.161  19.043   5.891
 5592POPC   GL270826  35.471  19.171   5.815
 5592POPC   C1A70827  35.191  18.901   6.319
 5592POPC   D2A70828  35.110  19.177   6.648
 5592POPC   C3A70829  35.247  19.088   7.074
 5592POPC   C4A70830  35.089  19.137   7.492
 5592POPC   C1B70831  35.670  19.016   6.184
 5592POPC   C2B70832  35.625  19.055   6.640
 5592POPC   C3B70833  35.704  19.298   7.008
 5592POPC   C4B70834  35.570  19.321   7.393
 5593POPC   NC370835  13.365  35.634   5.534
 5593POPC   PO470836  13.646  35.035   5.698
 5593POPC   GL170837  13.483  35.306   5.979
 5593POPC   GL270838  13.702  35.526   5.904
 5593POPC   C1A70839  13.553  35.364   6.450
 5593POPC   D2A70840  13.831  35.111   6.724
 5593POPC   C3A70841  13.651  34.930   7.072
 5593POPC   C4A70842  13.264  35.077   7.201
 5593POPC   C1B70843  13.470  35.791   6.187
 5593POPC   C2B70844  13.586  35.899   6.611
 5593POPC   C3B70845  13.631  35.596   6.957
 5593POPC   C4B70846  13.820  35.378   7.289
 5594POPC   NC370847  32.488  10.988   4.965
 5594POPC   PO470848  32.369  11.521   5.399
 5594POPC   GL170849  32.290  11.537   5.849
 5594POPC   GL270850  31.989  11.648   5.861
 5594POPC   C1A70851  32.373  11.263   6.219
 5594POPC   D2A70852  32.278  11.283   6.674
 5594POPC   C3A70853  32.523  11.162   7.063
 5594POPC   C4A70854  32.617  11.408   7.457
 5594POPC   C1B70855  31.917  11.522   6.319
 5594POPC   C2B70856  31.890  11.615   6.771
 5594POPC   C3B70857  31.986  11.581   7.221
 5594POPC   C4B70858  32.187  11.633   7.670
 5595POPC   NC370859   9.241   5.351   5.401
 5595POPC   PO470860   8.794   4.796   5.489
 5595POPC   GL170861   9.011   5.072   5.764
 5595POPC   GL270862   9.174   4.838   5.939
 5595POPC   C1A70863   8.960   5.285   6.161
 5595POPC   D2A70864   8.817   5.128   6.555
 5595POPC   C3A70865   9.033   5.243   6.948
 5595POPC   C4A70866   9.179   4.963   7.253
 5595POPC   C1B70867   8.763   4.747   6.145
 5595POPC   C2B70868   8.615   4.643   6.560
 5595POPC   C3B70869   8.684   4.830   6.966
 5595POPC   C4B70870   8.701   4.635   7.365
 5596POPC   NC370871  28.066  30.970   5.500
 5596POPC   PO470872  28.509  30.430   5.378
 5596POPC   GL170873  28.361  30.588   5.759
 5596POPC   GL270874  28.658  30.663   5.863
 5596POPC   C1A70875  28.374  30.419   6.207
 5596POPC   D2A70876  28.428  30.188   6.604
 5596POPC   C3A70877  28.395  30.509   6.887
 5596POPC   C4A70878  28.075  30.545   7.187
 5596POPC   C1B70879  28.563  30.929   6.190
 5596POPC   C2B70880  28.686  30.919   6.609
 5596POPC   C3B70881  28.568  30.966   7.043
 5596POPC   C4B70882  28.545  30.680   7.365
 5597POPC   NC370883  37.067  22.439   5.185
 5597POPC   PO470884  36.817  22.997   5.538
 5597POPC   GL170885  36.714  22.761   5.878
 5597POPC   GL270886  36.476  22.877   6.091
 5597POPC   C1A70887  36.915  22.680   6.278
 5597POPC   D2A70888  37.191  22.594   6.610
 5597POPC   C3A70889  36.969  22.741   6.992
 5597POPC   C4A70890  37.189  22.677   7.383
 5597POPC   C1B70891  36.630  23.124   6.465
 5597POPC   C2B70892  36.897  23.253   6.844
 5597POPC   C3B70893  37.224  23.324   7.146
 5597POPC   C4B70894  37.252  23.141   7.582
 5598POPC   NC370895  28.902  12.137   5.594
 5598POPC   PO470896  28.275  12.101   5.279
 5598POPC   GL170897  28.422  12.001   5.721
 5598POPC   GL270898  28.587  12.258   5.958
 5598POPC   C1A70899  28.294  11.911   6.160
 5598POPC   D2A70900  28.300  12.236   6.494
 5598POPC   C3A70901  28.053  12.172   6.865
 5598POPC   C4A70902  28.179  12.176   7.276
 5598POPC   C1B70903  28.810  11.918   6.186
 5598POPC   C2B70904  28.627  11.807   6.550
 5598POPC   C3B70905  28.551  12.028   6.920
 5598POPC   C4B70906  28.456  11.760   7.248
 5599POPC   NC370907  31.319  15.359   5.513
 5599POPC   PO470908  30.650  15.120   5.639
 5599POPC   GL170909  30.909  15.149   5.979
 5599POPC   GL270910  30.998  15.472   5.885
 5599POPC   C1A70911  30.873  15.207   6.449
 5599POPC   D2A70912  30.450  15.153   6.628
 5599POPC   C3A70913  30.453  15.064   7.071
 5599POPC   C4A70914  30.824  15.057   7.267
 5599POPC   C1B70915  30.648  15.562   6.150
 5599POPC   C2B70916  30.605  15.637   6.558
 5599POPC   C3B70917  30.721  15.489   6.951
 5599POPC   C4B70918  30.504  15.594   7.319
 5600POPC   NC370919   7.828  42.782   5.451
 5600POPC   PO470920   8.267  43.243   5.193
 5600POPC   GL170921   8.382  43.195   5.695
 5600POPC   GL270922   8.215  42.896   5.787
 5600POPC   C1A70923   8.468  43.061   6.195
 5600POPC   D2A70924   8.245  42.885   6.544
 5600POPC   C3A70925   8.388  42.851   6.983
 5600POPC   C4A70926   8.281  43.061   7.376
 5600POPC   C1B70927   7.970  43.123   6.126
 5600POPC   C2B70928   8.042  43.361   6.524
 5600POPC   C3B70929   8.003  43.223   6.971
 5600POPC   C4B70930   7.763  43.120   7.373
 5601POPC   NC370931  38.893  20.024   5.435
 5601POPC   PO470932  38.323  19.623   5.441
 5601POPC   GL170933  38.549  19.811   5.792
 5601POPC   GL270934  38.595  20.182   5.812
 5601POPC   C1A70935  38.505  19.714   6.226
 5601POPC   D2A70936  38.245  19.598   6.595
 5601POPC   C3A70937  38.382  19.726   7.045
 5601POPC   C4A70938  38.405  19.607   7.528
 5601POPC   C1B70939  38.569  20.224   6.235
 5601POPC   C2B70940  38.479  20.063   6.639
 5601POPC   C3B70941  38.675  20.182   7.031
 5601POPC   C4B70942  38.464  20.093   7.415
 5602POPC   NC370943  41.941  34.400   5.564
 5602POPC   PO470944  41.273  34.287   5.412
 5602POPC   GL170945  41.480  34.478   5.778
 5602POPC   GL270946  41.378  34.815   5.886
 5602POPC   C1A70947  41.686  34.509   6.184
 5602POPC   D2A70948  41.595  34.267   6.534
 5602POPC   C3A70949  41.713  34.402   6.910
 5602POPC   C4A70950  41.374  34.442   7.197
 5602POPC   C1B70951  41.429  34.948   6.281
 5602POPC   C2B70952  41.528  34.804   6.686
 5602POPC   C3B70953  41.576  34.896   7.131
 5602POPC   C4B70954  41.767  34.936   7.539
 5603POPC   NC370955  23.359   6.791   5.468
 5603POPC   PO470956  23.855   6.240   5.416
 5603POPC   GL170957  23.739   6.544   5.757
 5603POPC   GL270958  23.620   6.830   5.914
 5603POPC   C1A70959  23.943   6.479   6.142
 5603POPC   D2A70960  23.826   6.419   6.551
 5603POPC   C3A70961  23.871   6.728   6.849
 5603POPC   C4A70962  24.107   6.786   7.245
 5603POPC   C1B70963  23.647   6.865   6.340
 5603POPC   C2B70964  23.376   6.675   6.609
 5603POPC   C3B70965  23.356   6.532   7.004
 5603POPC   C4B70966  23.567   6.840   7.227
 5604POPC   NC370967  32.490  17.896   5.341
 5604POPC   PO470968  32.217  17.293   5.313
 5604POPC   GL170969  32.225  17.468   5.716
 5604POPC   GL270970  32.551  17.350   5.735
 5604POPC   C1A70971  32.139  17.512   6.155
 5604POPC   D2A70972  32.264  17.702   6.544
 5604POPC   C3A70973  32.146  17.545   6.911
 5604POPC   C4A70974  32.052  17.444   7.303
 5604POPC   C1B70975  32.646  17.603   6.091
 5604POPC   C2B70976  32.763  17.627   6.513
 5604POPC   C3B70977  32.667  17.517   6.913
 5604POPC   C4B70978  32.612  17.512   7.312
 5605POPC   NC370979  33.737  22.075   5.416
 5605POPC   PO470980  34.009  22.706   5.211
 5605POPC   GL170981  33.949  22.496   5.651
 5605POPC   GL270982  34.085  22.142   5.815
 5605POPC   C1A70983  34.018  22.555   6.126
 5605POPC   D2A70984  33.762  22.486   6.481
 5605POPC   C3A70985  33.798  22.285   6.880
 5605POPC   C4A70986  33.639  22.269   7.310
 5605POPC   C1B70987  33.838  22.028   6.198
 5605POPC   C2B70988  33.847  21.806   6.615
 5605POPC   C3B70989  33.695  21.824   7.040
 5605POPC   C4B70990  34.010  21.944   7.351
 5606POPC   NC370991  40.556   1.739   5.528
 5606POPC   PO470992  40.317   2.349   5.575
 5606POPC   GL170993  40.683   2.140   5.839
 5606POPC   GL270994  40.898   1.801   5.873
 5606POPC   C1A70995  40.937   2.186   6.190
 5606POPC   D2A70996  40.725   2.163   6.551
 5606POPC   C3A70997  40.929   2.239   6.909
 5606POPC   C4A70998  40.699   2.250   7.247
 5606POPC   C1B70999  40.668   1.746   6.222
 5606POPC   C2B71000  40.896   1.693   6.585
 5606POPC   C3B71001  40.754   1.763   6.984
 5606POPC   C4B71002  40.871   1.793   7.397
 5607POPC   NC371003  34.234  37.450   5.360
 5607POPC   PO471004  34.726  37.909   5.271
 5607POPC   GL171005  34.581  37.728   5.681
 5607POPC   GL271006  34.249  37.915   5.733
 5607POPC   C1A71007  34.734  37.544   6.110
 5607POPC   D2A71008  34.588  37.506   6.567
 5607POPC   C3A71009  34.832  37.580   6.959
 5607POPC   C4A71010  34.967  38.000   7.110
 5607POPC   C1B71011  34.293  37.798   6.178
 5607POPC   C2B71012  34.199  37.914   6.589
 5607POPC   C3B71013  34.496  37.969   6.896
 5607POPC   C4B71014  34.529  37.815   7.318
 5608POPC   NC371015   6.623   7.990   5.560
 5608POPC   PO471016   6.363   8.644   5.519
 5608POPC   GL171017   6.590   8.483   5.895
 5608POPC   GL271018   6.514   8.164   6.044
 5608POPC   C1A71019   6.894   8.430   6.261
 5608POPC   D2A71020   6.714   8.618   6.657
 5608POPC   C3A71021   6.491   8.311   6.894
 5608POPC   C4A71022   6.816   8.162   7.144
 5608POPC   C1B71023   6.469   7.814   6.348
 5608POPC   C2B71024   6.566   7.781   6.793
 5608POPC   C3B71025   6.346   7.893   7.148
 5608POPC   C4B71026   6.414   8.232   7.445
 5609POPC   NC371027  40.872   0.049   5.324
 5609POPC   PO471028  40.783  44.388   5.358
 5609POPC   GL171029  40.969  44.618   5.660
 5609POPC   GL271030  41.093  44.387   5.876
 5609POPC   C1A71031  40.902  44.889   6.018
 5609POPC   D2A71032  40.585  44.870   6.358
 5609POPC   C3A71033  40.587  44.818   6.826
 5609POPC   C4A71034  40.878  44.866   7.165
 5609POPC   C1B71035  40.768  44.424   6.191
 5609POPC   C2B71036  40.883  44.438   6.636
 5609POPC   C3B71037  40.816  44.367   7.088
 5609POPC   C4B71038  41.165  44.361   7.394
 5610POPC   NC371039  30.882  17.317   5.229
 5610POPC   PO471040  30.570  17.582   5.738
 5610POPC   GL171041  30.890  17.394   5.910
 5610POPC   GL271042  30.749  17.071   5.790
 5610POPC   C1A71043  30.912  17.460   6.356
 5610POPC   D2A71044  30.549  17.632   6.597
 5610POPC   C3A71045  30.596  17.747   7.016
 5610POPC   C4A71046  30.592  17.488   7.381
 5610POPC   C1B71047  30.996  16.958   6.147
 5610POPC   C2B71048  31.061  17.010   6.557
 5610POPC   C3B71049  30.867  17.268   6.900
 5610POPC   C4B71050  31.064  17.305   7.300
 5611POPC   NC371051  15.223   8.462   5.631
 5611POPC   PO471052  15.697   8.046   5.403
 5611POPC   GL171053  15.504   8.093   5.839
 5611POPC   GL271054  15.360   7.808   6.025
 5611POPC   C1A71055  15.363   8.279   6.268
 5611POPC   D2A71056  15.254   8.140   6.692
 5611POPC   C3A71057  15.355   8.277   7.088
 5611POPC   C4A71058  15.137   8.416   7.428
 5611POPC   C1B71059  14.993   7.879   6.320
 5611POPC   C2B71060  14.781   7.959   6.733
 5611POPC   C3B71061  14.891   8.002   7.190
 5611POPC   C4B71062  15.225   7.903   7.516
 5612POPC   NC371063  12.612  11.639   5.479
 5612POPC   PO471064  13.005  11.083   5.270
 5612POPC   GL171065  12.939  11.296   5.672
 5612POPC   GL271066  13.248  11.447   5.739
 5612POPC   C1A71067  12.745  11.348   6.116
 5612POPC   D2A71068  12.771  11.468   6.549
 5612POPC   C3A71069  12.612  11.424   6.985
 5612POPC   C4A71070  12.835  11.256   7.361
 5612POPC   C1B71071  13.207  11.121   6.067
 5612POPC   C2B71072  13.280  11.193   6.487
 5612POPC   C3B71073  13.080  11.196   6.881
 5612POPC   C4B71074  13.074  10.867   7.141
 5613POPC   NC371075  38.744  28.770   5.393
 5613POPC   PO471076  38.250  28.212   5.320
 5613POPC   GL171077  38.347  28.477   5.705
 5613POPC   GL271078  38.421  28.182   5.901
 5613POPC   C1A71079  38.481  28.622   6.160
 5613POPC   D2A71080  38.550  28.374   6.561
 5613POPC   C3A71081  38.490  28.561   6.990
 5613POPC   C4A71082  38.275  28.689   7.409
 5613POPC   C1B71083  38.132  27.865   6.108
 5613POPC   C2B71084  38.026  27.918   6.554
 5613POPC   C3B71085  38.182  28.168   6.908
 5613POPC   C4B71086  38.424  28.191   7.353
 5614POPC   NC371087  35.631  11.497   5.151
 5614POPC   PO471088  35.215  11.108   5.436
 5614POPC   GL171089  35.381  11.254   5.821
 5614POPC   GL271090  35.462  11.557   5.710
 5614POPC   C1A71091  35.133  11.181   6.231
 5614POPC   D2A71092  35.041  10.978   6.627
 5614POPC   C3A71093  35.279  11.169   6.982
 5614POPC   C4A71094  35.049  11.290   7.322
 5614POPC   C1B71095  35.402  11.636   6.183
 5614POPC   C2B71096  35.327  11.530   6.636
 5614POPC   C3B71097  35.359  11.672   7.104
 5614POPC   C4B71098  35.245  11.711   7.567
 5615POPC   NC371099  21.757  40.653   5.414
 5615POPC   PO471100  21.260  40.986   5.502
 5615POPC   GL171101  21.339  40.723   5.834
 5615POPC   GL271102  21.660  40.855   5.871
 5615POPC   C1A71103  21.448  40.664   6.292
 5615POPC   D2A71104  21.588  40.503   6.703
 5615POPC   C3A71105  21.328  40.733   7.013
 5615POPC   C4A71106  21.150  40.637   7.414
 5615POPC   C1B71107  21.706  41.108   6.239
 5615POPC   C2B71108  21.650  41.005   6.666
 5615POPC   C3B71109  21.768  40.985   7.088
 5615POPC   C4B71110  21.599  41.076   7.508
 5616POPC   NC371111  29.518  31.768   5.231
 5616POPC   PO471112  29.123  31.217   5.327
 5616POPC   GL171113  29.188  31.217   5.789
 5616POPC   GL271114  28.826  31.144   5.778
 5616POPC   C1A71115  29.324  31.467   6.197
 5616POPC   D2A71116  29.226  31.762   6.568
 5616POPC   C3A71117  29.342  31.604   6.992
 5616POPC   C4A71118  29.444  31.718   7.423
 5616POPC   C1B71119  28.828  31.367   6.136
 5616POPC   C2B71120  28.851  31.412   6.545
 5616POPC   C3B71121  28.774  31.624   6.912
 5616POPC   C4B71122  28.943  31.384   7.241
 5617POPC   NC371123   1.635   6.248   5.646
 5617POPC   PO471124   1.307   5.759   5.320
 5617POPC   GL171125   1.311   5.849   5.748
 5617POPC   GL271126   1.349   5.498   5.788
 5617POPC   C1A71127   1.328   6.002   6.201
 5617POPC   D2A71128   1.240   5.885   6.651
 5617POPC   C3A71129   1.444   6.107   7.031
 5617POPC   C4A71130   1.241   6.178   7.486
 5617POPC   C1B71131   1.047   5.553   6.130
 5617POPC   C2B71132   0.882   5.509   6.550
 5617POPC   C3B71133   1.128   5.454   6.925
 5617POPC   C4B71134   1.243   5.721   7.277
 5618POPC   NC371135  24.325  14.903   5.552
 5618POPC   PO471136  24.753  15.260   5.268
 5618POPC   GL171137  24.753  15.298   5.761
 5618POPC   GL271138  24.425  15.286   5.932
 5618POPC   C1A71139  24.857  15.377   6.214
 5618POPC   D2A71140  24.577  15.301   6.572
 5618POPC   C3A71141  24.686  15.162   7.014
 5618POPC   C4A71142  24.389  14.924   7.226
 5618POPC   C1B71143  24.169  15.130   6.286
 5618POPC   C2B71144  24.158  15.030   6.721
 5618POPC   C3B71145  24.170  15.328   7.047
 5618POPC   C4B71146  24.034  15.242   7.444
 5619POPC   NC371147  32.646   1.800   5.518
 5619POPC   PO471148  33.102   1.337   5.283
 5619POPC   GL171149  33.188   1.274   5.736
 5619POPC   GL271150  32.931   1.082   5.894
 5619POPC   C1A71151  33.265   1.317   6.200
 5619POPC   D2A71152  33.326   1.105   6.614
 5619POPC   C3A71153  33.083   1.210   6.989
 5619POPC   C4A71154  33.235   1.297   7.412
 5619POPC   C1B71155  32.713   0.905   6.239
 5619POPC   C2B71156  32.837   0.824   6.673
 5619POPC   C3B71157  32.701   0.820   7.108
 5619POPC   C4B71158  32.718   0.803   7.564
 5620POPC   NC371159  19.377  32.939   5.392
 5620POPC   PO471160  18.838  33.271   5.477
 5620POPC   GL171161  19.000  32.961   5.849
 5620POPC   GL271162  19.279  32.689   5.827
 5620POPC   C1A71163  19.002  33.045   6.343
 5620POPC   D2A71164  19.133  33.345   6.733
 5620POPC   C3A71165  18.955  33.254   7.164
 5620POPC   C4A71166  18.983  32.817   7.350
 5620POPC   C1B71167  19.426  32.792   6.247
 5620POPC   C2B71168  19.380  32.884   6.680
 5620POPC   C3B71169  19.402  33.042   7.101
 5620POPC   C4B71170  19.350  33.232   7.547
 5621POPC   NC371171  44.860  40.184   5.587
 5621POPC   PO471172  44.537  39.610   5.537
 5621POPC   GL171173  44.550  39.899   5.884
 5621POPC   GL271174  44.374  40.187   5.794
 5621POPC   C1A71175  44.639  40.059   6.314
 5621POPC   D2A71176  44.986  39.965   6.606
 5621POPC   C3A71177  44.932  39.728   7.005
 5621POPC   C4A71178  44.758  39.882   7.389
 5621POPC   C1B71179  44.402  40.471   6.111
 5621POPC   C2B71180  44.573  40.532   6.502
 5621POPC   C3B71181  44.640  40.256   6.865
 5621POPC   C4B71182  44.635  40.365   7.312
 5622POPC   NC371183  39.615  32.573   5.358
 5622POPC   PO471184  40.204  32.239   5.337
 5622POPC   GL171185  39.880  32.232   5.678
 5622POPC   GL271186  39.912  32.569   5.842
 5622POPC   C1A71187  39.771  32.031   6.100
 5622POPC   D2A71188  39.952  32.050   6.528
 5622POPC   C3A71189  39.730  32.150   6.901
 5622POPC   C4A71190  39.751  32.495   7.222
 5622POPC   C1B71191  40.211  32.318   6.118
 5622POPC   C2B71192  40.394  32.308   6.528
 5622POPC   C3B71193  40.244  32.262   6.956
 5622POPC   C4B71194  40.062  32.125   7.342
 5623POPC   NC371195  43.000   5.328   5.456
 5623POPC   PO471196  42.931   4.752   5.664
 5623POPC   GL171197  42.813   5.086   5.873
 5623POPC   GL271198  43.130   5.067   6.025
 5623POPC   C1A71199  42.653   5.022   6.268
 5623POPC   D2A71200  42.677   5.160   6.668
 5623POPC   C3A71201  43.036   4.999   6.850
 5623POPC   C4A71202  42.897   5.209   7.211
 5623POPC   C1B71203  43.138   5.325   6.408
 5623POPC   C2B71204  43.065   5.522   6.827
 5623POPC   C3B71205  43.314   5.482   7.204
 5623POPC   C4B71206  43.380   5.028   7.258
 5624POPC   NC371207  33.557  33.422   5.658
 5624POPC   PO471208  34.003  33.430   5.171
 5624POPC   GL171209  33.881  33.827   5.602
 5624POPC   GL271210  33.631  33.890   5.834
 5624POPC   C1A71211  34.033  33.923   6.129
 5624POPC   D2A71212  33.949  33.792   6.625
 5624POPC   C3A71213  33.930  34.027   7.075
 5624POPC   C4A71214  34.099  34.147   7.526
 5624POPC   C1B71215  33.606  33.637   6.264
 5624POPC   C2B71216  33.475  33.546   6.704
 5624POPC   C3B71217  33.589  33.622   7.146
 5624POPC   C4B71218  33.632  33.858   7.568
 5625POPC   NC371219  17.928  22.423   5.519
 5625POPC   PO471220  18.285  21.869   5.434
 5625POPC   GL171221  18.121  22.044   5.814
 5625POPC   GL271222  18.274  22.382   5.899
 5625POPC   C1A71223  18.208  22.022   6.255
 5625POPC   D2A71224  18.473  22.092   6.600
 5625POPC   C3A71225  18.191  22.263   6.852
 5625POPC   C4A71226  18.099  22.312   7.256
 5625POPC   C1B71227  18.616  22.468   6.237
 5625POPC   C2B71228  18.709  22.673   6.645
 5625POPC   C3B71229  18.549  22.556   7.067
 5625POPC   C4B71230  18.559  22.097   7.186
 5626POPC   NC371231  12.900  44.507   5.228
 5626POPC   PO471232  12.874  43.839   5.393
 5626POPC   GL171233  13.003  43.719   5.796
 5626POPC   GL271234  12.917  44.056   5.895
 5626POPC   C1A71235  12.849  43.517   6.167
 5626POPC   D2A71236  12.560  43.547   6.531
 5626POPC   C3A71237  12.779  43.675   6.872
 5626POPC   C4A71238  12.691  43.598   7.297
 5626POPC   C1B71239  12.692  43.991   6.298
 5626POPC   C2B71240  12.480  44.099   6.707
 5626POPC   C3B71241  12.596  44.062   7.137
 5626POPC   C4B71242  13.067  43.947   7.210
 5627POPC   NC371243  24.929  10.258   5.549
 5627POPC   PO471244  24.664  10.880   5.303
 5627POPC   GL171245  24.579  10.761   5.733
 5627POPC   GL271246  24.907  10.714   5.768
 5627POPC   C1A71247  24.301  10.625   6.103
 5627POPC   D2A71248  24.330  10.290   6.440
 5627POPC   C3A71249  24.509  10.324   6.902
 5627POPC   C4A71250  24.522  10.672   7.240
 5627POPC   C1B71251  24.777  10.479   6.133
 5627POPC   C2B71252  24.724  10.631   6.538
 5627POPC   C3B71253  24.981  10.556   6.882
 5627POPC   C4B71254  24.947  10.368   7.295
 5628POPC   NC371255  41.721  28.009   5.484
 5628POPC   PO471256  41.123  28.345   5.492
 5628POPC   GL171257  41.465  28.354   5.762
 5628POPC   GL271258  41.427  28.034   5.891
 5628POPC   C1A71259  41.745  28.502   6.082
 5628POPC   D2A71260  41.858  28.620   6.492
 5628POPC   C3A71261  41.745  28.365   6.820
 5628POPC   C4A71262  41.665  28.510   7.227
 5628POPC   C1B71263  41.544  28.086   6.295
 5628POPC   C2B71264  41.313  28.104   6.641
 5628POPC   C3B71265  41.390  28.055   7.047
 5628POPC   C4B71266  41.294  28.242   7.459
 5629POPC   NC371267  17.606  36.719   5.178
 5629POPC   PO471268  17.315  37.128   5.650
 5629POPC   GL171269  17.555  36.837   5.906
 5629POPC   GL271270  17.242  36.665   5.945
 5629POPC   C1A71271  17.720  36.847   6.352
 5629POPC   D2A71272  17.780  37.223   6.561
 5629POPC   C3A71273  17.716  37.207   7.013
 5629POPC   C4A71274  17.725  36.818   7.262
 5629POPC   C1B71275  17.195  36.982   6.298
 5629POPC   C2B71276  17.315  37.001   6.735
 5629POPC   C3B71277  17.233  36.809   7.130
 5629POPC   C4B71278  17.301  36.535   7.480
 5630POPC   NC371279  16.017   1.029   5.285
 5630POPC   PO471280  16.213   1.694   5.240
 5630POPC   GL171281  16.015   1.409   5.650
 5630POPC   GL271282  15.813   1.069   5.752
 5630POPC   C1A71283  15.993   1.374   6.127
 5630POPC   D2A71284  16.176   1.435   6.561
 5630POPC   C3A71285  15.981   1.193   6.870
 5630POPC   C4A71286  16.166   1.010   7.226
 5630POPC   C1B71287  15.566   1.099   6.140
 5630POPC   C2B71288  15.556   1.263   6.548
 5630POPC   C3B71289  15.485   1.027   6.942
 5630POPC   C4B71290  15.679   1.150   7.318
 5631POPC   NC371291   0.564   1.442   5.334
 5631POPC   PO471292   0.122   0.949   5.398
 5631POPC   GL171293   0.372   1.144   5.728
 5631POPC   GL271294   0.641   0.891   5.726
 5631POPC   C1A71295   0.352   1.409   6.127
 5631POPC   D2A71296   0.177   1.427   6.584
 5631POPC   C3A71297   0.420   1.276   6.966
 5631POPC   C4A71298   0.714   1.457   7.284
 5631POPC   C1B71299   0.483   0.895   6.166
 5631POPC   C2B71300   0.605   0.907   6.596
 5631POPC   C3B71301   0.829   0.873   6.973
 5631POPC   C4B71302   0.655   0.965   7.341
 5632POPC   NC371303  33.878  36.220   5.493
 5632POPC   PO471304  33.406  35.806   5.280
 5632POPC   GL171305  33.610  35.869   5.791
 5632POPC   GL271306  33.892  36.128   5.970
 5632POPC   C1A71307  33.690  35.809   6.270
 5632POPC   D2A71308  33.988  35.953   6.588
 5632POPC   C3A71309  33.789  36.166   6.930
 5632POPC   C4A71310  33.610  36.009   7.303
 5632POPC   C1B71311  34.041  36.487   6.226
 5632POPC   C2B71312  34.196  36.444   6.641
 5632POPC   C3B71313  34.126  36.565   7.046
 5632POPC   C4B71314  33.877  36.458   7.353
 5633POPC   NC371315  22.075  24.963   5.465
 5633POPC   PO471316  21.966  24.300   5.539
 5633POPC   GL171317  22.207  24.585   5.811
 5633POPC   GL271318  21.885  24.753   5.904
 5633POPC   C1A71319  22.429  24.602   6.227
 5633POPC   D2A71320  22.231  24.462   6.631
 5633POPC   C3A71321  22.353  24.536   7.065
 5633POPC   C4A71322  22.296  24.595   7.514
 5633POPC   C1B71323  21.941  24.374   6.205
 5633POPC   C2B71324  21.826  24.148   6.597
 5633POPC   C3B71325  21.904  24.266   7.020
 5633POPC   C4B71326  22.085  24.115   7.416
 5634POPC   NC371327  15.453  19.251   5.525
 5634POPC   PO471328  15.193  19.946   5.401
 5634POPC   GL171329  15.234  19.894   5.820
 5634POPC   GL271330  15.164  19.545   5.854
 5634POPC   C1A71331  15.189  19.997   6.259
 5634POPC   D2A71332  15.285  20.273   6.615
 5634POPC   C3A71333  14.889  20.188   6.845
 5634POPC   C4A71334  14.807  19.735   6.922
 5634POPC   C1B71335  15.439  19.549   6.229
 5634POPC   C2B71336  15.514  19.737   6.654
 5634POPC   C3B71337  15.313  19.808   7.048
 5634POPC   C4B71338  15.073  19.520   7.295
 5635POPC   NC371339  25.229  36.252   5.558
 5635POPC   PO471340  25.503  36.911   5.507
 5635POPC   GL171341  25.333  36.745   5.873
 5635POPC   GL271342  25.499  36.419   5.960
 5635POPC   C1A71343  25.164  36.989   6.231
 5635POPC   D2A71344  25.094  36.906   6.672
 5635POPC   C3A71345  25.204  37.258   6.954
 5635POPC   C4A71346  25.415  37.328   7.340
 5635POPC   C1B71347  25.212  36.474   6.289
 5635POPC   C2B71348  25.179  36.380   6.697
 5635POPC   C3B71349  25.348  36.578   7.041
 5635POPC   C4B71350  25.175  36.865   7.279
 5636POPC   NC371351  34.030   8.604   5.365
 5636POPC   PO471352  33.529   9.052   5.444
 5636POPC   GL171353  33.786   9.025   5.813
 5636POPC   GL271354  33.777   8.684   5.867
 5636POPC   C1A71355  33.782   9.197   6.238
 5636POPC   D2A71356  33.753   8.974   6.632
 5636POPC   C3A71357  33.496   9.173   6.933
 5636POPC   C4A71358  33.594   9.377   7.306
 5636POPC   C1B71359  34.078   8.774   6.221
 5636POPC   C2B71360  34.160   8.659   6.667
 5636POPC   C3B71361  33.988   8.799   7.077
 5636POPC   C4B71362  33.599   8.805   7.276
 5637POPC   NC371363  16.135  16.992   5.489
 5637POPC   PO471364  15.852  17.630   5.424
 5637POPC   GL171365  15.890  17.338   5.790
 5637POPC   GL271366  15.582  17.290   5.943
 5637POPC   C1A71367  16.102  17.292   6.171
 5637POPC   D2A71368  16.095  17.507   6.577
 5637POPC   C3A71369  16.390  17.299   6.859
 5637POPC   C4A71370  16.260  17.355   7.276
 5637POPC   C1B71371  15.651  17.504   6.296
 5637POPC   C2B71372  15.566  17.369   6.696
 5637POPC   C3B71373  15.797  17.419   7.057
 5637POPC   C4B71374  15.969  17.787   7.246
 5638POPC   NC371375   2.992  42.048   5.468
 5638POPC   PO471376   2.690  41.424   5.447
 5638POPC   GL171377   2.891  41.606   5.842
 5638POPC   GL271378   2.964  41.937   5.977
 5638POPC   C1A71379   2.830  41.512   6.266
 5638POPC   D2A71380   2.531  41.442   6.540
 5638POPC   C3A71381   2.595  41.510   6.958
 5638POPC   C4A71382   2.470  41.703   7.329
 5638POPC   C1B71383   3.154  41.876   6.388
 5638POPC   C2B71384   3.050  41.789   6.826
 5638POPC   C3B71385   2.969  41.791   7.269
 5638POPC   C4B71386   2.999  41.979   7.694
 5639POPC   NC371387  40.333  41.181   5.576
 5639POPC   PO471388  40.927  41.471   5.621
 5639POPC   GL171389  40.819  41.486   6.012
 5639POPC   GL271390  40.490  41.391   6.005
 5639POPC   C1A71391  40.629  41.783   6.305
 5639POPC   D2A71392  40.486  41.658   6.686
 5639POPC   C3A71393  40.509  41.854   7.068
 5639POPC   C4A71394  40.825  41.679   7.294
 5639POPC   C1B71395  40.606  41.195   6.394
 5639POPC   C2B71396  40.739  41.230   6.808
 5639POPC   C3B71397  41.024  41.074   7.099
 5639POPC   C4B71398  40.811  41.143   7.454
 5640POPC   NC371399   7.764  15.536   5.482
 5640POPC   PO471400   7.276  15.113   5.365
 5640POPC   GL171401   7.289  15.011   5.787
 5640POPC   GL271402   7.654  15.033   5.791
 5640POPC   C1A71403   7.195  15.176   6.183
 5640POPC   D2A71404   7.424  15.089   6.544
 5640POPC   C3A71405   7.237  15.121   6.982
 5640POPC   C4A71406   7.553  14.979   7.288
 5640POPC   C1B71407   7.721  15.345   6.124
 5640POPC   C2B71408   7.698  15.519   6.533
 5640POPC   C3B71409   7.717  15.292   6.903
 5640POPC   C4B71410   7.559  15.492   7.244
 5641POPC   NC371411  28.663  13.683   5.306
 5641POPC   PO471412  28.161  13.315   5.453
 5641POPC   GL171413  28.272  13.570   5.817
 5641POPC   GL271414  28.581  13.719   5.817
 5641POPC   C1A71415  28.432  13.436   6.231
 5641POPC   D2A71416  28.771  13.332   6.504
 5641POPC   C3A71417  28.537  13.411   6.894
 5641POPC   C4A71418  28.125  13.534   7.066
 5641POPC   C1B71419  28.494  13.953   6.209
 5641POPC   C2B71420  28.738  14.139   6.535
 5641POPC   C3B71421  28.677  13.956   6.956
 5641POPC   C4B71422  28.251  14.023   7.117
 5642POPC   NC371423  28.533   8.479   5.451
 5642POPC   PO471424  28.078   8.033   5.631
 5642POPC   GL171425  28.197   8.379   5.821
 5642POPC   GL271426  28.513   8.236   5.909
 5642POPC   C1A71427  28.146   8.508   6.206
 5642POPC   D2A71428  28.209   8.189   6.482
 5642POPC   C3A71429  28.214   8.341   6.873
 5642POPC   C4A71430  28.084   8.359   7.287
 5642POPC   C1B71431  28.664   8.000   6.249
 5642POPC   C2B71432  28.603   7.947   6.676
 5642POPC   C3B71433  28.622   7.956   7.093
 5642POPC   C4B71434  28.505   8.110   7.469
 5643POPC   NC371435   2.012  33.431   5.439
 5643POPC   PO471436   2.193  32.867   5.452
 5643POPC   GL171437   2.201  33.164   5.843
 5643POPC   GL271438   1.849  33.300   5.896
 5643POPC   C1A71439   2.116  33.169   6.327
 5643POPC   D2A71440   2.053  32.926   6.730
 5643POPC   C3A71441   2.259  33.092   7.096
 5643POPC   C4A71442   2.081  33.256   7.480
 5643POPC   C1B71443   1.630  33.392   6.271
 5643POPC   C2B71444   1.764  33.340   6.692
 5643POPC   C3B71445   1.740  33.134   7.113
 5643POPC   C4B71446   1.574  33.366   7.454
 5644POPC   NC371447  14.532   5.683   5.550
 5644POPC   PO471448  14.761   6.244   5.221
 5644POPC   GL171449  14.848   6.119   5.734
 5644POPC   GL271450  14.515   6.035   6.016
 5644POPC   C1A71451  14.956   6.051   6.201
 5644POPC   D2A71452  14.639   6.221   6.532
 5644POPC   C3A71453  14.549   6.024   6.935
 5644POPC   C4A71454  14.721   5.620   7.071
 5644POPC   C1B71455  14.291   5.831   6.371
 5644POPC   C2B71456  14.334   5.576   6.743
 5644POPC   C3B71457  14.128   5.724   7.068
 5644POPC   C4B71458  14.014   6.132   7.061
 5645POPC   NC371459  28.180  11.660   5.420
 5645POPC   PO471460  27.987  10.943   5.502
 5645POPC   GL171461  28.138  11.273   5.779
 5645POPC   GL271462  28.446  11.485   5.862
 5645POPC   C1A71463  28.070  11.440   6.191
 5645POPC   D2A71464  28.023  11.254   6.580
 5645POPC   C3A71465  28.131  11.427   6.963
 5645POPC   C4A71466  28.271  11.149   7.295
 5645POPC   C1B71467  28.478  11.129   6.139
 5645POPC   C2B71468  28.543  11.127   6.569
 5645POPC   C3B71469  28.622  11.409   6.885
 5645POPC   C4B71470  28.776  11.373   7.263
 5646POPC   NC371471  15.024  24.605   5.362
 5646POPC   PO471472  15.629  24.865   5.528
 5646POPC   GL171473  15.439  24.590   5.783
 5646POPC   GL271474  15.076  24.512   5.853
 5646POPC   C1A71475  15.360  24.718   6.201
 5646POPC   D2A71476  15.085  24.493   6.454
 5646POPC   C3A71477  15.224  24.293   6.833
 5646POPC   C4A71478  15.425  24.545   7.128
 5646POPC   C1B71479  14.849  24.847   6.130
 5646POPC   C2B71480  14.689  24.823   6.540
 5646POPC   C3B71481  14.924  24.733   6.920
 5646POPC   C4B71482  14.841  24.859   7.330
 5647POPC   NC371483  12.982  27.975   5.023
 5647POPC   PO471484  12.899  28.509   5.426
 5647POPC   GL171485  12.855  28.394   5.867
 5647POPC   GL271486  12.796  28.045   5.932
 5647POPC   C1A71487  12.663  28.406   6.264
 5647POPC   D2A71488  12.889  28.450   6.603
 5647POPC   C3A71489  12.754  28.311   6.946
 5647POPC   C4A71490  12.725  28.447   7.326
 5647POPC   C1B71491  13.123  28.133   6.256
 5647POPC   C2B71492  13.198  28.048   6.725
 5647POPC   C3B71493  13.133  28.066   7.187
 5647POPC   C4B71494  12.887  28.042   7.586
 5648POPC   NC371495  44.583   8.820   5.336
 5648POPC   PO471496  44.982   9.291   5.328
 5648POPC   GL171497  44.855   9.093   5.707
 5648POPC   GL271498  44.490   9.144   5.729
 5648POPC   C1A71499  44.849   9.083   6.183
 5648POPC   D2A71500  44.762   9.305   6.600
 5648POPC   C3A71501  44.923   9.101   6.974
 5648POPC   C4A71502  44.808   8.721   7.138
 5648POPC   C1B71503  44.396   9.327   6.145
 5648POPC   C2B71504  44.242   9.165   6.552
 5648POPC   C3B71505  44.403   9.064   6.966
 5648POPC   C4B71506  44.338   9.299   7.337
 5649POPC   NC371507   4.352  11.350   5.315
 5649POPC   PO471508   3.859  10.965   5.357
 5649POPC   GL171509   4.141  11.084   5.707
 5649POPC   GL271510   4.147  11.477   5.764
 5649POPC   C1A71511   4.414  11.169   6.070
 5649POPC   D2A71512   4.266  11.135   6.480
 5649POPC   C3A71513   4.539  11.183   6.827
 5649POPC   C4A71514   4.373  11.134   7.236
 5649POPC   C1B71515   4.174  11.640   6.218
 5649POPC   C2B71516   4.407  11.632   6.623
 5649POPC   C3B71517   4.460  11.620   7.089
 5649POPC   C4B71518   4.243  11.587   7.461
 5650POPC   NC371519   6.613  38.818   5.522
 5650POPC   PO471520   6.846  38.153   5.487
 5650POPC   GL171521   6.684  38.378   5.821
 5650POPC   GL271522   6.905  38.638   5.938
 5650POPC   C1A71523   6.641  38.325   6.265
 5650POPC   D2A71524   6.498  38.552   6.622
 5650POPC   C3A71525   6.545  38.397   7.044
 5650POPC   C4A71526   6.420  38.682   7.353
 5650POPC   C1B71527   7.025  38.871   6.284
 5650POPC   C2B71528   7.014  38.665   6.667
 5650POPC   C3B71529   7.065  38.520   7.068
 5650POPC   C4B71530   7.335  38.763   7.287
 5651POPC   NC371531  33.212   4.277   5.435
 5651POPC   PO471532  33.868   4.141   5.389
 5651POPC   GL171533  33.755   4.255   5.798
 5651POPC   GL271534  33.553   4.552   5.729
 5651POPC   C1A71535  33.676   4.124   6.231
 5651POPC   D2A71536  33.576   4.329   6.608
 5651POPC   C3A71537  33.676   4.142   6.983
 5651POPC   C4A71538  33.622   4.457   7.279
 5651POPC   C1B71539  33.644   4.639   6.176
 5651POPC   C2B71540  33.912   4.691   6.559
 5651POPC   C3B71541  34.038   4.530   6.945
 5651POPC   C4B71542  34.141   4.695   7.294
 5652POPC   NC371543  43.682  41.508   5.245
 5652POPC   PO471544  44.318  41.732   5.394
 5652POPC   GL171545  44.074  41.588   5.747
 5652POPC   GL271546  43.774  41.811   5.711
 5652POPC   C1A71547  44.033  41.355   6.157
 5652POPC   D2A71548  43.819  41.515   6.548
 5652POPC   C3A71549  43.876  41.456   7.015
 5652POPC   C4A71550  43.895  41.528   7.460
 5652POPC   C1B71551  43.901  41.893   6.171
 5652POPC   C2B71552  43.848  42.006   6.621
 5652POPC   C3B71553  43.548  41.825   6.882
 5652POPC   C4B71554  43.452  41.712   7.284
 5653POPC   NC371555  13.828  41.448   5.195
 5653POPC   PO471556  13.503  41.885   5.563
 5653POPC   GL171557  13.516  41.441   5.675
 5653POPC   GL271558  13.206  41.332   5.809
 5653POPC   C1A71559  13.654  41.250   6.072
 5653POPC   D2A71560  13.542  41.202   6.517
 5653POPC   C3A71561  13.766  41.481   6.816
 5653POPC   C4A71562  14.006  41.301   7.138
 5653POPC   C1B71563  13.289  41.594   6.169
 5653POPC   C2B71564  13.202  41.586   6.589
 5653POPC   C3B71565  13.298  41.387   6.973
 5653POPC   C4B71566  13.532  41.469   7.359
 5654POPC   NC371567  10.328  14.023   5.528
 5654POPC   PO471568  10.334  14.730   5.335
 5654POPC   GL171569  10.601  14.644   5.704
 5654POPC   GL271570  10.688  14.280   5.780
 5654POPC   C1A71571  10.545  14.758   6.144
 5654POPC   D2A71572  10.328  14.635   6.548
 5654POPC   C3A71573  10.533  14.581   6.967
 5654POPC   C4A71574  10.493  14.468   7.436
 5654POPC   C1B71575  10.539  14.232   6.209
 5654POPC   C2B71576  10.689  14.235   6.640
 5654POPC   C3B71577  10.533  14.073   7.064
 5654POPC   C4B71578  10.626  13.931   7.515
 5655POPC   NC371579   6.082  39.261   5.355
 5655POPC   PO471580   5.479  39.287   5.071
 5655POPC   GL171581   5.654  39.443   5.595
 5655POPC   GL271582   6.016  39.537   5.765
 5655POPC   C1A71583   5.670  39.536   6.104
 5655POPC   D2A71584   5.739  39.326   6.512
 5655POPC   C3A71585   5.577  39.398   6.928
 5655POPC   C4A71586   5.887  39.384   7.237
 5655POPC   C1B71587   6.008  39.139   6.083
 5655POPC   C2B71588   6.114  38.960   6.516
 5655POPC   C3B71589   6.240  39.202   6.900
 5655POPC   C4B71590   6.366  39.182   7.347
 5656POPC   NC371591  12.515  31.570   5.436
 5656POPC   PO471592  12.600  32.274   5.245
 5656POPC   GL171593  12.737  32.257   5.681
 5656POPC   GL271594  13.069  32.165   5.720
 5656POPC   C1A71595  12.736  32.380   6.138
 5656POPC   D2A71596  12.536  32.241   6.536
 5656POPC   C3A71597  12.715  32.123   6.947
 5656POPC   C4A71598  12.441  32.107   7.297
 5656POPC   C1B71599  13.125  32.051   6.164
 5656POPC   C2B71600  13.054  32.276   6.566
 5656POPC   C3B71601  13.119  32.434   6.996
 5656POPC   C4B71602  13.338  32.096   7.161
 5657POPC   NC371603  44.487  16.024   5.517
 5657POPC   PO471604   0.003  15.617   5.673
 5657POPC   GL171605  44.737  15.611   5.972
 5657POPC   GL271606  44.379  15.627   5.862
 5657POPC   C1A71607  44.811  15.695   6.391
 5657POPC   D2A71608  44.725  16.081   6.589
 5657POPC   C3A71609  44.695  16.037   7.018
 5657POPC   C4A71610   0.002  16.079   7.315
 5657POPC   C1B71611  44.305  15.776   6.289
 5657POPC   C2B71612  44.402  15.641   6.722
 5657POPC   C3B71613  44.241  15.809   7.116
 5657POPC   C4B71614  44.411  15.994   7.483
 5658POPC   NC371615  44.280   5.123   5.368
 5658POPC   PO471616  43.676   4.740   5.311
 5658POPC   GL171617  43.679   4.995   5.684
 5658POPC   GL271618  44.012   5.019   5.797
 5658POPC   C1A71619  43.609   5.169   6.098
 5658POPC   D2A71620  43.601   5.021   6.510
 5658POPC   C3A71621  43.954   5.133   6.778
 5658POPC   C4A71622  43.917   5.035   7.225
 5658POPC   C1B71623  44.073   5.052   6.251
 5658POPC   C2B71624  44.083   5.493   6.407
 5658POPC   C3B71625  44.276   5.623   6.792
 5658POPC   C4B71626  44.324   5.332   7.156
 5659POPC   NC371627  30.208   2.970   5.033
 5659POPC   PO471628  30.657   2.610   5.383
 5659POPC   GL171629  30.875   2.800   5.735
 5659POPC   GL271630  30.582   2.871   5.929
 5659POPC   C1A71631  30.999   2.714   6.171
 5659POPC   D2A71632  30.898   2.523   6.567
 5659POPC   C3A71633  30.995   2.785   6.885
 5659POPC   C4A71634  31.051   2.707   7.274
 5659POPC   C1B71635  30.454   2.688   6.320
 5659POPC   C2B71636  30.466   2.734   6.782
 5659POPC   C3B71637  30.507   2.789   7.255
 5659POPC   C4B71638  30.347   2.666   7.704
 5660POPC   NC371639  36.820  25.597   5.344
 5660POPC   PO471640  36.664  24.961   5.505
 5660POPC   GL171641  36.804  25.285   5.758
 5660POPC   GL271642  36.494  25.454   5.860
 5660POPC   C1A71643  36.903  25.429   6.179
 5660POPC   D2A71644  36.874  25.221   6.592
 5660POPC   C3A71645  37.202  25.162   6.919
 5660POPC   C4A71646  37.094  25.144   7.373
 5660POPC   C1B71647  36.403  25.355   6.304
 5660POPC   C2B71648  36.409  25.385   6.763
 5660POPC   C3B71649  36.694  25.323   7.113
 5660POPC   C4B71650  36.663  25.426   7.578
 5661POPC   NC371651   0.892  17.670   5.429
 5661POPC   PO471652   0.284  17.331   5.405
 5661POPC   GL171653   0.468  17.546   5.747
 5661POPC   GL271654   0.790  17.368   5.821
 5661POPC   C1A71655   0.292  17.485   6.171
 5661POPC   D2A71656   0.395  17.468   6.591
 5661POPC   C3A71657   0.335  17.750   6.927
 5661POPC   C4A71658   0.463  17.651   7.340
 5661POPC   C1B71659   0.780  17.631   6.166
 5661POPC   C2B71660   0.915  17.583   6.574
 5661POPC   C3B71661   0.764  17.470   6.958
 5661POPC   C4B71662   0.919  17.332   7.308
 5662POPC   NC371663  44.119  40.415   5.417
 5662POPC   PO471664  43.867  41.086   5.450
 5662POPC   GL171665  44.037  40.787   5.797
 5662POPC   GL271666  43.813  40.472   5.827
 5662POPC   C1A71667  44.043  40.795   6.277
 5662POPC   D2A71668  44.078  41.100   6.635
 5662POPC   C3A71669  44.287  41.163   7.038
 5662POPC   C4A71670  44.109  40.825   7.290
 5662POPC   C1B71671  43.651  40.389   6.245
 5662POPC   C2B71672  43.716  40.560   6.681
 5662POPC   C3B71673  43.619  40.749   7.098
 5662POPC   C4B71674  43.692  40.611   7.532
 5663POPC   NC371675  14.037  18.173   5.383
 5663POPC   PO471676  14.690  18.434   5.205
 5663POPC   GL171677  14.450  18.425   5.614
 5663POPC   GL271678  14.680  18.397   5.927
 5663POPC   C1A71679  14.201  18.380   6.026
 5663POPC   D2A71680  14.455  18.403   6.422
 5663POPC   C3A71681  14.265  18.344   6.813
 5663POPC   C4A71682  14.365  18.440   7.220
 5663POPC   C1B71683  14.544  17.990   6.147
 5663POPC   C2B71684  14.440  17.905   6.621
 5663POPC   C3B71685  14.520  17.954   7.095
 5663POPC   C4B71686  14.845  17.829   7.429
 5664POPC   NC371687   8.628   7.334   5.383
 5664POPC   PO471688   9.211   7.067   5.443
 5664POPC   GL171689   8.937   7.168   5.748
 5664POPC   GL271690   9.015   7.475   5.875
 5664POPC   C1A71691   8.669   7.210   6.103
 5664POPC   D2A71692   8.806   7.526   6.388
 5664POPC   C3A71693   8.742   7.434   6.806
 5664POPC   C4A71694   8.938   7.436   7.166
 5664POPC   C1B71695   9.317   7.541   6.200
 5664POPC   C2B71696   9.283   7.429   6.621
 5664POPC   C3B71697   9.389   7.581   7.003
 5664POPC   C4B71698   9.250   7.740   7.415
 5665POPC   NC371699   7.520  10.255   5.468
 5665POPC   PO471700   7.148  10.695   5.480
 5665POPC   GL171701   7.237  10.475   5.836
 5665POPC   GL271702   7.569  10.526   5.899
 5665POPC   C1A71703   7.201  10.634   6.244
 5665POPC   D2A71704   7.201  10.425   6.626
 5665POPC   C3A71705   7.114  10.689   6.955
 5665POPC   C4A71706   7.239  10.745   7.353
 5665POPC   C1B71707   7.553  10.265   6.270
 5665POPC   C2B71708   7.664  10.192   6.716
 5665POPC   C3B71709   7.460  10.286   7.120
 5665POPC   C4B71710   7.606  10.469   7.542
 5666POPC   NC371711   9.854   0.088   5.422
 5666POPC   PO471712   9.540   0.659   5.355
 5666POPC   GL171713   9.559   0.408   5.744
 5666POPC   GL271714   9.928   0.417   5.812
 5666POPC   C1A71715   9.583   0.310   6.210
 5666POPC   D2A71716   9.738   0.444   6.653
 5666POPC   C3A71717   9.668   0.278   7.073
 5666POPC   C4A71718   9.556   0.285   7.518
 5666POPC   C1B71719   9.976   0.665   6.192
 5666POPC   C2B71720  10.146   0.741   6.614
 5666POPC   C3B71721  10.054   0.776   7.034
 5666POPC   C4B71722  10.057   0.464   7.333
 5667POPC   NC371723  11.536  40.641   5.411
 5667POPC   PO471724  10.978  40.961   5.154
 5667POPC   GL171725  11.131  41.016   5.640
 5667POPC   GL271726  11.355  40.826   5.825
 5667POPC   C1A71727  11.102  41.140   6.106
 5667POPC   D2A71728  11.119  40.849   6.464
 5667POPC   C3A71729  10.884  40.923   6.834
 5667POPC   C4A71730  10.979  40.606   7.099
 5667POPC   C1B71731  11.621  40.693   6.136
 5667POPC   C2B71732  11.589  40.595   6.574
 5667POPC   C3B71733  11.470  40.746   6.969
 5667POPC   C4B71734  11.256  41.066   7.182
 5668POPC   NC371735   1.325  24.007   5.252
 5668POPC   PO471736   0.952  23.444   5.192
 5668POPC   GL171737   1.059  23.696   5.612
 5668POPC   GL271738   1.407  23.847   5.720
 5668POPC   C1A71739   1.039  23.825   6.077
 5668POPC   D2A71740   1.191  23.982   6.501
 5668POPC   C3A71741   1.322  23.794   6.881
 5668POPC   C4A71742   1.107  23.683   7.247
 5668POPC   C1B71743   1.490  24.128   6.091
 5668POPC   C2B71744   1.706  24.079   6.519
 5668POPC   C3B71745   1.572  24.236   6.934
 5668POPC   C4B71746   1.445  24.078   7.327
 5669POPC   NC371747  34.381  12.128   5.489
 5669POPC   PO471748  35.030  12.008   5.425
 5669POPC   GL171749  34.742  12.017   5.834
 5669POPC   GL271750  34.426  11.867   5.934
 5669POPC   C1A71751  34.732  12.028   6.302
 5669POPC   D2A71752  35.015  11.952   6.620
 5669POPC   C3A71753  34.840  12.105   6.993
 5669POPC   C4A71754  34.608  12.227   7.380
 5669POPC   C1B71755  34.391  11.621   6.306
 5669POPC   C2B71756  34.488  11.787   6.711
 5669POPC   C3B71757  34.358  11.879   7.102
 5669POPC   C4B71758  34.329  11.822   7.556
 5670POPC   NC371759   6.059  36.386   5.151
 5670POPC   PO471760   5.869  35.828   5.471
 5670POPC   GL171761   6.064  35.940   5.839
 5670POPC   GL271762   5.749  36.136   5.910
 5670POPC   C1A71763   5.963  35.865   6.289
 5670POPC   D2A71764   5.776  36.028   6.648
 5670POPC   C3A71765   5.951  36.256   6.994
 5670POPC   C4A71766   5.940  35.983   7.341
 5670POPC   C1B71767   5.566  36.431   6.204
 5670POPC   C2B71768   5.631  36.514   6.638
 5670POPC   C3B71769   5.432  36.317   6.957
 5670POPC   C4B71770   5.520  36.261   7.340
 5671POPC   NC371771  14.291  11.004   5.020
 5671POPC   PO471772  14.338  11.311   5.575
 5671POPC   GL171773  14.504  11.257   5.924
 5671POPC   GL271774  14.569  10.908   5.971
 5671POPC   C1A71775  14.455  11.428   6.334
 5671POPC   D2A71776  14.305  11.244   6.711
 5671POPC   C3A71777  14.058  11.518   6.947
 5671POPC   C4A71778  14.265  11.493   7.287
 5671POPC   C1B71779  14.565  10.925   6.382
 5671POPC   C2B71780  14.808  10.731   6.668
 5671POPC   C3B71781  14.707  10.912   7.037
 5671POPC   C4B71782  14.344  10.962   7.212
 5672POPC   NC371783  12.956  38.483   5.532
 5672POPC   PO471784  12.397  38.920   5.383
 5672POPC   GL171785  12.761  38.862   5.793
 5672POPC   GL271786  13.151  38.855   5.816
 5672POPC   C1A71787  12.826  38.667   6.225
 5672POPC   D2A71788  13.009  38.420   6.587
 5672POPC   C3A71789  12.797  38.460   7.001
 5672POPC   C4A71790  12.804  38.304   7.428
 5672POPC   C1B71791  13.333  38.600   6.181
 5672POPC   C2B71792  13.483  38.673   6.610
 5672POPC   C3B71793  13.264  38.754   6.985
 5672POPC   C4B71794  13.029  38.772   7.359
 5673POPC   NC371795  23.471  15.546   5.636
 5673POPC   PO471796  23.509  16.271   5.634
 5673POPC   GL171797  23.728  16.237   5.997
 5673POPC   GL271798  23.731  15.885   5.943
 5673POPC   C1A71799  23.780  16.115   6.407
 5673POPC   D2A71800  23.518  16.051   6.722
 5673POPC   C3A71801  23.636  16.250   7.134
 5673POPC   C4A71802  23.953  16.116   7.508
 5673POPC   C1B71803  24.027  15.660   6.203
 5673POPC   C2B71804  23.974  15.524   6.630
 5673POPC   C3B71805  23.864  15.786   7.000
 5673POPC   C4B71806  23.402  15.790   7.140
 5674POPC   NC371807   0.734  14.647   5.535
 5674POPC   PO471808   1.278  14.214   5.525
 5674POPC   GL171809   1.246  14.566   5.817
 5674POPC   GL271810   1.487  14.872   5.764
 5674POPC   C1A71811   1.138  14.425   6.239
 5674POPC   D2A71812   0.904  14.406   6.630
 5674POPC   C3A71813   1.125  14.450   7.045
 5674POPC   C4A71814   1.445  14.322   7.375
 5674POPC   C1B71815   1.438  14.863   6.210
 5674POPC   C2B71816   1.347  14.696   6.624
 5674POPC   C3B71817   1.375  14.894   7.014
 5674POPC   C4B71818   1.664  14.789   7.320
 5675POPC   NC371819   0.371   9.360   5.630
 5675POPC   PO471820   0.499   8.716   5.373
 5675POPC   GL171821   0.660   8.962   5.781
 5675POPC   GL271822   0.800   9.310   5.911
 5675POPC   C1A71823   0.480   9.085   6.224
 5675POPC   D2A71824   0.215   8.974   6.575
 5675POPC   C3A71825   0.382   8.824   6.980
 5675POPC   C4A71826   0.242   8.484   7.257
 5675POPC   C1B71827   0.957   9.301   6.316
 5675POPC   C2B71828   0.728   9.214   6.661
 5675POPC   C3B71829   0.674   9.312   7.055
 5675POPC   C4B71830   0.826   9.167   7.443
 5676POPC   NC371831   1.729  34.202   5.635
 5676POPC   PO471832   2.037  33.821   5.196
 5676POPC   GL171833   2.188  33.812   5.736
 5676POPC   GL271834   2.235  34.177   5.815
 5676POPC   C1A71835   2.045  33.679   6.214
 5676POPC   D2A71836   1.876  33.867   6.635
 5676POPC   C3A71837   1.773  33.675   7.069
 5676POPC   C4A71838   1.909  33.730   7.516
 5676POPC   C1B71839   2.147  34.175   6.273
 5676POPC   C2B71840   2.362  33.987   6.672
 5676POPC   C3B71841   2.160  34.000   7.116
 5676POPC   C4B71842   2.242  34.097   7.576
 5677POPC   NC371843  18.695   7.537   5.579
 5677POPC   PO471844  19.310   7.400   5.506
 5677POPC   GL171845  19.187   7.215   5.903
 5677POPC   GL271846  18.847   7.238   5.960
 5677POPC   C1A71847  19.109   7.170   6.364
 5677POPC   D2A71848  18.849   7.289   6.687
 5677POPC   C3A71849  19.164   7.354   7.018
 5677POPC   C4A71850  19.348   7.706   7.226
 5677POPC   C1B71851  18.907   7.617   6.246
 5677POPC   C2B71852  19.122   7.745   6.655
 5677POPC   C3B71853  18.883   7.759   7.030
 5677POPC   C4B71854  18.669   7.410   7.149
 5678POPC   NC371855   8.884  24.841   5.464
 5678POPC   PO471856   9.005  24.241   5.369
 5678POPC   GL171857   9.038  24.394   5.814
 5678POPC   GL271858   9.163  24.736   5.886
 5678POPC   C1A71859   9.178  24.393   6.276
 5678POPC   D2A71860   9.173  24.238   6.693
 5678POPC   C3A71861   8.814  24.131   6.938
 5678POPC   C4A71862   8.661  24.278   7.306
 5678POPC   C1B71863   8.770  24.665   6.169
 5678POPC   C2B71864   8.717  24.542   6.593
 5678POPC   C3B71865   8.815  24.666   7.001
 5678POPC   C4B71866   8.758  24.959   7.314
 5679POPC   NC371867  38.593   3.775   5.406
 5679POPC   PO471868  38.052   3.379   5.334
 5679POPC   GL171869  38.230   3.357   5.794
 5679POPC   GL271870  38.513   3.575   5.860
 5679POPC   C1A71871  38.131   3.130   6.219
 5679POPC   D2A71872  38.081   3.265   6.696
 5679POPC   C3A71873  38.366   3.202   7.090
 5679POPC   C4A71874  38.209   3.106   7.554
 5679POPC   C1B71875  38.459   3.502   6.280
 5679POPC   C2B71876  38.573   3.477   6.688
 5679POPC   C3B71877  38.587   3.710   7.022
 5679POPC   C4B71878  38.611   3.576   7.405
 5680POPC   NC371879  36.089  40.504   5.457
 5680POPC   PO471880  36.052  41.095   5.548
 5680POPC   GL171881  36.065  40.744   5.892
 5680POPC   GL271882  35.746  40.534   5.818
 5680POPC   C1A71883  36.257  40.663   6.306
 5680POPC   D2A71884  36.481  40.854   6.655
 5680POPC   C3A71885  36.287  40.772   7.048
 5680POPC   C4A71886  36.307  40.937   7.458
 5680POPC   C1B71887  35.832  40.356   6.192
 5680POPC   C2B71888  35.839  40.469   6.612
 5680POPC   C3B71889  35.971  40.394   7.039
 5680POPC   C4B71890  35.886  40.633   7.439
 5681POPC   NC371891  34.827  10.095   5.453
 5681POPC   PO471892  34.343   9.630   5.494
 5681POPC   GL171893  34.444   9.901   5.829
 5681POPC   GL271894  34.794   9.827   5.874
 5681POPC   C1A71895  34.467   9.770   6.277
 5681POPC   D2A71896  34.469   9.613   6.714
 5681POPC   C3A71897  34.373   9.765   7.089
 5681POPC   C4A71898  34.468   9.668   7.530
 5681POPC   C1B71899  34.811  10.141   6.178
 5681POPC   C2B71900  34.763  10.039   6.594
 5681POPC   C3B71901  34.843   9.902   6.989
 5681POPC   C4B71902  34.751  10.066   7.394
 5682POPC   NC371903   7.550  35.392   5.302
 5682POPC   PO471904   6.983  35.020   5.337
 5682POPC   GL171905   7.178  35.230   5.754
 5682POPC   GL271906   7.224  35.564   5.726
 5682POPC   C1A71907   7.324  35.172   6.208
 5682POPC   D2A71908   7.533  35.168   6.643
 5682POPC   C3A71909   7.315  35.191   7.061
 5682POPC   C4A71910   7.313  35.213   7.526
 5682POPC   C1B71911   7.444  35.682   6.102
 5682POPC   C2B71912   7.402  35.667   6.521
 5682POPC   C3B71913   7.568  35.617   6.927
 5682POPC   C4B71914   7.422  35.680   7.345
 5683POPC   NC371915  16.521  20.092   5.528
 5683POPC   PO471916  16.586  20.744   5.273
 5683POPC   GL171917  16.815  20.828   5.712
 5683POPC   GL271918  16.679  20.540   5.838
 5683POPC   C1A71919  16.677  20.946   6.185
 5683POPC   D2A71920  16.568  20.786   6.618
 5683POPC   C3A71921  16.627  20.840   7.122
 5683POPC   C4A71922  16.535  20.991   7.586
 5683POPC   C1B71923  16.592  20.263   6.176
 5683POPC   C2B71924  16.330  20.310   6.531
 5683POPC   C3B71925  16.404  20.411   6.909
 5683POPC   C4B71926  16.601  20.342   7.263
 5684POPC   NC371927  12.526  15.077   5.381
 5684POPC   PO471928  11.962  15.526   5.330
 5684POPC   GL171929  12.061  15.295   5.715
 5684POPC   GL271930  12.405  15.397   5.736
 5684POPC   C1A71931  11.903  15.212   6.174
 5684POPC   D2A71932  11.893  15.303   6.663
 5684POPC   C3A71933  11.906  14.985   7.016
 5684POPC   C4A71934  11.844  14.857   7.455
 5684POPC   C1B71935  12.408  15.070   6.046
 5684POPC   C2B71936  12.333  15.168   6.446
 5684POPC   C3B71937  12.390  15.094   6.857
 5684POPC   C4B71938  12.353  15.194   7.258
 5685POPC   NC371939  27.978   1.472   5.540
 5685POPC   PO471940  27.339   1.161   5.381
 5685POPC   GL171941  27.540   1.301   5.773
 5685POPC   GL271942  27.798   1.043   5.756
 5685POPC   C1A71943  27.799   1.408   6.174
 5685POPC   D2A71944  27.843   1.621   6.586
 5685POPC   C3A71945  27.689   1.415   6.952
 5685POPC   C4A71946  27.610   1.214   7.366
 5685POPC   C1B71947  27.620   0.936   6.151
 5685POPC   C2B71948  27.810   1.051   6.568
 5685POPC   C3B71949  27.729   0.901   6.974
 5685POPC   C4B71950  27.418   0.729   7.253
 5686POPC   NC371951  24.286  36.579   5.475
 5686POPC   PO471952  24.608  37.150   5.510
 5686POPC   GL171953  24.649  36.873   5.872
 5686POPC   GL271954  24.293  36.775   5.949
 5686POPC   C1A71955  24.650  36.869   6.334
 5686POPC   D2A71956  24.378  37.150   6.527
 5686POPC   C3A71957  24.323  37.172   6.891
 5686POPC   C4A71958  24.246  37.032   7.274
 5686POPC   C1B71959  24.044  36.832   6.326
 5686POPC   C2B71960  24.243  36.689   6.700
 5686POPC   C3B71961  24.653  36.607   6.848
 5686POPC   C4B71962  24.758  36.993   7.046
 5687POPC   NC371963   6.243  19.132   5.414
 5687POPC   PO471964   6.801  19.404   5.395
 5687POPC   GL171965   6.698  19.232   5.814
 5687POPC   GL271966   6.508  18.966   5.810
 5687POPC   C1A71967   6.695  19.096   6.271
 5687POPC   D2A71968   6.713  19.376   6.603
 5687POPC   C3A71969   6.655  19.187   6.965
 5687POPC   C4A71970   6.905  19.088   7.326
 5687POPC   C1B71971   6.259  18.832   6.154
 5687POPC   C2B71972   6.310  18.684   6.565
 5687POPC   C3B71973   6.251  18.882   6.974
 5687POPC   C4B71974   6.416  18.975   7.386
 5688POPC   NC371975  31.095  37.177   5.527
 5688POPC   PO471976  30.838  37.714   5.467
 5688POPC   GL171977  30.754  37.483   5.793
 5688POPC   GL271978  30.413  37.386   5.816
 5688POPC   C1A71979  30.817  37.413   6.204
 5688POPC   D2A71980  30.552  37.369   6.558
 5688POPC   C3A71981  30.842  37.463   6.880
 5688POPC   C4A71982  30.797  37.651   7.257
 5688POPC   C1B71983  30.429  37.708   6.173
 5688POPC   C2B71984  30.530  37.853   6.619
 5688POPC   C3B71985  30.356  37.661   7.016
 5688POPC   C4B71986  30.393  37.855   7.466
 5689POPC   NC371987  35.831  14.032   5.639
 5689POPC   PO471988  36.025  13.408   5.574
 5689POPC   GL171989  36.083  13.655   5.923
 5689POPC   GL271990  36.404  13.554   6.000
 5689POPC   C1A71991  36.114  13.713   6.381
 5689POPC   D2A71992  36.479  13.686   6.672
 5689POPC   C3A71993  36.303  13.813   7.060
 5689POPC   C4A71994  36.050  13.670   7.408
 5689POPC   C1B71995  36.432  13.291   6.319
 5689POPC   C2B71996  36.206  13.244   6.689
 5689POPC   C3B71997  36.301  13.295   7.121
 5689POPC   C4B71998  36.321  13.277   7.552
 5690POPC   NC371999  22.612   6.204   5.591
 5690POPC   PO472000  23.056   5.638   5.406
 5690POPC   GL172001  22.949   5.858   5.797
 5690POPC   GL272002  23.146   6.149   5.825
 5690POPC   C1A72003  22.837   6.082   6.219
 5690POPC   D2A72004  22.887   6.146   6.669
 5690POPC   C3A72005  22.839   5.737   6.865
 5690POPC   C4A72006  22.518   5.746   7.153
 5690POPC   C1B72007  23.298   5.820   6.166
 5690POPC   C2B72008  23.373   5.650   6.593
 5690POPC   C3B72009  23.324   5.788   7.019
 5690POPC   C4B72010  23.066   6.109   7.166
 5691POPC   NC372011  32.979  22.655   5.520
 5691POPC   PO472012  32.646  22.087   5.641
 5691POPC   GL172013  32.919  22.326   5.919
 5691POPC   GL272014  32.720  22.603   5.949
 5691POPC   C1A72015  33.288  22.307   6.206
 5691POPC   D2A72016  33.431  22.087   6.572
 5691POPC   C3A72017  33.287  22.185   6.977
 5691POPC   C4A72018  33.156  21.949   7.345
 5691POPC   C1B72019  32.902  22.629   6.359
 5691POPC   C2B72020  32.935  22.274   6.621
 5691POPC   C3B72021  32.791  22.218   7.041
 5691POPC   C4B72022  32.845  22.494   7.396
 5692POPC   NC372023  44.834  37.922   5.508
 5692POPC   PO472024  44.710  37.262   5.548
 5692POPC   GL172025  44.686  37.475   5.870
 5692POPC   GL272026  44.415  37.668   5.914
 5692POPC   C1A72027  44.879  37.521   6.242
 5692POPC   D2A72028  44.721  37.581   6.648
 5692POPC   C3A72029  44.986  37.669   7.001
 5692POPC   C4A72030  44.843  37.511   7.377
 5692POPC   C1B72031  44.371  37.317   6.261
 5692POPC   C2B72032  44.347  37.239   6.738
 5692POPC   C3B72033  44.441  37.534   7.081
 5692POPC   C4B72034  44.295  37.478   7.505
 5693POPC   NC372035  42.659  15.456   5.618
 5693POPC   PO472036  42.167  14.932   5.521
 5693POPC   GL172037  42.324  15.125   5.897
 5693POPC   GL272038  42.189  15.436   5.828
 5693POPC   C1A72039  42.453  15.385   6.270
 5693POPC   D2A72040  42.271  15.546   6.648
 5693POPC   C3A72041  42.315  15.260   6.985
 5693POPC   C4A72042  42.459  15.256   7.410
 5693POPC   C1B72043  41.947  15.483   6.174
 5693POPC   C2B72044  41.799  15.326   6.561
 5693POPC   C3B72045  41.839  15.491   6.954
 5693POPC   C4B72046  41.895  15.260   7.315
 5694POPC   NC372047  16.956   0.608   5.398
 5694POPC   PO472048  16.653   0.015   5.225
 5694POPC   GL172049  16.667   0.301   5.715
 5694POPC   GL272050  16.897   0.595   5.894
 5694POPC   C1A72051  16.624   0.309   6.216
 5694POPC   D2A72052  16.460   0.311   6.654
 5694POPC   C3A72053  16.763   0.304   6.998
 5694POPC   C4A72054  16.736   0.335   7.478
 5694POPC   C1B72055  16.927   0.736   6.331
 5694POPC   C2B72056  16.621   0.815   6.689
 5694POPC   C3B72057  16.617   0.761   7.129
 5694POPC   C4B72058  17.065   0.650   7.225
 5695POPC   NC372059  16.682  11.278   5.525
 5695POPC   PO472060  17.127  11.739   5.500
 5695POPC   GL172061  17.016  11.500   5.860
 5695POPC   GL272062  16.645  11.527   5.972
 5695POPC   C1A72063  16.975  11.198   6.195
 5695POPC   D2A72064  16.611  11.202   6.468
 5695POPC   C3A72065  16.721  11.323   6.874
 5695POPC   C4A72066  16.583  11.231   7.288
 5695POPC   C1B72067  16.888  11.747   6.297
 5695POPC   C2B72068  16.929  11.797   6.746
 5695POPC   C3B72069  16.824  11.720   7.176
 5695POPC   C4B72070  16.699  11.655   7.591
 5696POPC   NC372071   0.411  27.673   5.579
 5696POPC   PO472072   0.323  28.349   5.475
 5696POPC   GL172073   0.346  28.081   5.890
 5696POPC   GL272074   0.720  28.058   5.912
 5696POPC   C1A72075   0.301  27.687   6.226
 5696POPC   D2A72076   0.228  27.315   6.553
 5696POPC   C3A72077   0.376  27.400   6.962
 5696POPC   C4A72078   0.293  27.736   7.219
 5696POPC   C1B72079   0.857  27.713   6.161
 5696POPC   C2B72080   0.694  27.552   6.536
 5696POPC   C3B72081   0.674  27.811   6.861
 5696POPC   C4B72082   0.786  27.811   7.258
 5697POPC   NC372083   5.354   6.099   5.429
 5697POPC   PO472084   5.988   6.133   5.313
 5697POPC   GL172085   5.904   5.828   5.685
 5697POPC   GL272086   5.576   5.621   5.733
 5697POPC   C1A72087   5.884   5.944   6.125
 5697POPC   D2A72088   6.078   6.023   6.516
 5697POPC   C3A72089   5.870   6.115   6.884
 5697POPC   C4A72090   5.991   6.048   7.303
 5697POPC   C1B72091   5.435   5.695   6.166
 5697POPC   C2B72092   5.643   5.757   6.568
 5697POPC   C3B72093   5.490   5.754   6.980
 5697POPC   C4B72094   5.630   5.698   7.400
 5698POPC   NC372095   2.160  37.844   5.360
 5698POPC   PO472096   1.547  37.879   5.608
 5698POPC   GL172097   1.881  37.781   5.887
 5698POPC   GL272098   2.184  37.979   5.848
 5698POPC   C1A72099   1.660  37.710   6.278
 5698POPC   D2A72100   1.589  37.368   6.555
 5698POPC   C3A72101   1.600  37.560   6.924
 5698POPC   C4A72102   1.851  37.544   7.271
 5698POPC   C1B72103   2.363  37.853   6.217
 5698POPC   C2B72104   2.111  37.689   6.519
 5698POPC   C3B72105   2.093  37.794   6.906
 5698POPC   C4B72106   2.341  37.675   7.245
 5699POPC   NC372107  34.328  40.666   5.680
 5699POPC   PO472108  34.900  41.019   5.517
 5699POPC   GL172109  34.711  41.101   5.899
 5699POPC   GL272110  34.737  40.751   5.987
 5699POPC   C1A72111  34.842  41.106   6.343
 5699POPC   D2A72112  34.854  40.699   6.570
 5699POPC   C3A72113  34.714  40.683   7.004
 5699POPC   C4A72114  34.609  40.845   7.435
 5699POPC   C1B72115  34.412  40.806   6.317
 5699POPC   C2B72116  34.270  40.698   6.738
 5699POPC   C3B72117  34.234  40.561   7.185
 5699POPC   C4B72118  34.166  40.616   7.652
 5700POPC   NC372119  25.524  34.394   5.449
 5700POPC   PO472120  26.225  34.440   5.348
 5700POPC   GL172121  25.992  34.579   5.748
 5700POPC   GL272122  26.324  34.717   5.834
 5700POPC   C1A72123  25.760  34.546   6.164
 5700POPC   D2A72124  25.906  34.366   6.591
 5700POPC   C3A72125  25.931  34.527   7.031
 5700POPC   C4A72126  26.242  34.423   7.373
 5700POPC   C1B72127  26.240  34.663   6.254
 5700POPC   C2B72128  26.147  34.805   6.647
 5700POPC   C3B72129  26.317  34.887   7.041
 5700POPC   C4B72130  26.232  34.956   7.425
 5701POPC   NC372131  15.529  30.293   5.578
 5701POPC   PO472132  16.277  30.482   5.395
 5701POPC   GL172133  16.006  30.604   5.757
 5701POPC   GL272134  15.658  30.749   5.777
 5701POPC   C1A72135  15.953  30.705   6.216
 5701POPC   D2A72136  16.098  30.757   6.653
 5701POPC   C3A72137  15.865  30.861   7.057
 5701POPC   C4A72138  16.055  30.931   7.481
 5701POPC   C1B72139  15.440  30.757   6.174
 5701POPC   C2B72140  15.599  30.765   6.591
 5701POPC   C3B72141  15.528  30.474   6.901
 5701POPC   C4B72142  15.528  30.545   7.312
 5702POPC   NC372143  36.557  17.406   5.474
 5702POPC   PO472144  37.196  17.374   5.433
 5702POPC   GL172145  37.041  17.576   5.787
 5702POPC   GL272146  36.757  17.801   5.730
 5702POPC   C1A72147  37.110  17.435   6.217
 5702POPC   D2A72148  36.927  17.288   6.578
 5702POPC   C3A72149  37.100  17.356   6.996
 5702POPC   C4A72150  36.843  17.309   7.345
 5702POPC   C1B72151  36.653  17.637   6.131
 5702POPC   C2B72152  36.730  17.772   6.521
 5702POPC   C3B72153  36.640  17.589   6.912
 5702POPC   C4B72154  36.717  17.799   7.283
 5703POPC   NC372155  20.924   2.093   5.390
 5703POPC   PO472156  20.356   1.797   5.476
 5703POPC   GL172157  20.574   2.065   5.780
 5703POPC   GL272158  20.333   1.959   5.978
 5703POPC   C1A72159  20.789   2.076   6.202
 5703POPC   D2A72160  20.898   1.929   6.629
 5703POPC   C3A72161  20.756   2.161   7.031
 5703POPC   C4A72162  20.444   2.189   7.401
 5703POPC   C1B72163  20.321   2.255   6.315
 5703POPC   C2B72164  20.314   2.185   6.774
 5703POPC   C3B72165  20.418   1.769   6.948
 5703POPC   C4B72166  20.169   1.483   7.193
 5704POPC   NC372167  19.825  44.224   5.590
 5704POPC   PO472168  19.846  43.580   5.612
 5704POPC   GL172169  20.002  43.781   5.959
 5704POPC   GL272170  20.099  44.135   6.002
 5704POPC   C1A72171  20.018  43.762   6.399
 5704POPC   D2A72172  19.627  43.710   6.609
 5704POPC   C3A72173  19.672  43.636   7.025
 5704POPC   C4A72174  20.063  43.782   7.184
 5704POPC   C1B72175  19.681  44.104   6.214
 5704POPC   C2B72176  19.591  44.240   6.600
 5704POPC   C3B72177  19.819  44.144   6.913
 5704POPC   C4B72178  19.624  44.090   7.258
 5705POPC   NC372179   2.210   1.115   5.381
 5705POPC   PO472180   1.567   0.973   5.494
 5705POPC   GL172181   1.876   1.149   5.843
 5705POPC   GL272182   2.274   1.064   5.884
 5705POPC   C1A72183   1.918   1.514   6.176
 5705POPC   D2A72184   1.941   1.732   6.618
 5705POPC   C3A72185   2.078   1.397   6.909
 5705POPC   C4A72186   1.955   1.315   7.323
 5705POPC   C1B72187   2.165   1.080   6.309
 5705POPC   C2B72188   2.035   0.873   6.658
 5705POPC   C3B72189   2.321   0.929   6.957
 5705POPC   C4B72190   2.425   1.167   7.274
 5706POPC   NC372191  31.851   8.487   5.418
 5706POPC   PO472192  31.358   8.099   5.474
 5706POPC   GL172193  31.393   8.389   5.836
 5706POPC   GL272194  31.736   8.460   5.919
 5706POPC   C1A72195  31.245   8.340   6.283
 5706POPC   D2A72196  31.208   8.029   6.631
 5706POPC   C3A72197  31.400   8.127   7.038
 5706POPC   C4A72198  31.225   8.142   7.446
 5706POPC   C1B72199  31.662   8.070   6.156
 5706POPC   C2B72200  31.751   8.059   6.599
 5706POPC   C3B72201  31.907   8.015   6.999
 5706POPC   C4B72202  31.874   8.412   7.203
 5707POPC   NC372203  18.325  29.560   5.411
 5707POPC   PO472204  18.621  28.916   5.328
 5707POPC   GL172205  18.306  29.073   5.695
 5707POPC   GL272206  18.211  29.389   5.880
 5707POPC   C1A72207  18.056  28.949   6.070
 5707POPC   D2A72208  17.991  29.133   6.487
 5707POPC   C3A72209  18.257  29.120   6.845
 5707POPC   C4A72210  18.182  29.417   7.156
 5707POPC   C1B72211  18.441  29.288   6.271
 5707POPC   C2B72212  18.718  29.288   6.669
 5707POPC   C3B72213  18.700  29.437   7.125
 5707POPC   C4B72214  18.484  29.520   7.567
 5708POPC   NC372215  17.330   5.106   5.462
 5708POPC   PO472216  17.693   5.568   5.613
 5708POPC   GL172217  17.738   5.233   5.909
 5708POPC   GL272218  17.568   4.888   5.881
 5708POPC   C1A72219  17.548   5.273   6.304
 5708POPC   D2A72220  17.450   5.532   6.656
 5708POPC   C3A72221  17.604   5.346   7.030
 5708POPC   C4A72222  17.556   5.128   7.402
 5708POPC   C1B72223  17.178   4.954   6.123
 5708POPC   C2B72224  17.128   5.099   6.554
 5708POPC   C3B72225  17.207   5.019   6.986
 5708POPC   C4B72226  17.028   5.146   7.360
 5709POPC   NC372227  33.700  33.042   5.157
 5709POPC   PO472228  34.017  33.349   5.692
 5709POPC   GL172229  33.857  33.049   5.938
 5709POPC   GL272230  34.199  32.925   5.963
 5709POPC   C1A72231  33.737  33.104   6.368
 5709POPC   D2A72232  33.893  33.247   6.773
 5709POPC   C3A72233  33.624  33.092   7.092
 5709POPC   C4A72234  33.298  32.780   7.126
 5709POPC   C1B72235  34.205  32.869   6.396
 5709POPC   C2B72236  34.149  32.601   6.725
 5709POPC   C3B72237  34.027  32.755   7.060
 5709POPC   C4B72238  34.126  33.164   7.224
 5710POPC   NC372239  44.246  37.345   5.501
 5710POPC   PO472240  44.041  37.960   5.293
 5710POPC   GL172241  43.950  37.694   5.716
 5710POPC   GL272242  43.592  37.659   5.826
 5710POPC   C1A72243  43.970  37.640   6.181
 5710POPC   D2A72244  44.173  37.691   6.602
 5710POPC   C3A72245  43.948  37.516   6.990
 5710POPC   C4A72246  43.972  37.815   7.360
 5710POPC   C1B72247  43.450  37.623   6.222
 5710POPC   C2B72248  43.662  37.793   6.580
 5710POPC   C3B72249  43.737  37.971   6.935
 5710POPC   C4B72250  43.497  37.699   7.189
 5711POPC   NC372251  40.439   7.373   5.431
 5711POPC   PO472252  41.087   7.418   5.501
 5711POPC   GL172253  40.846   7.470   5.830
 5711POPC   GL272254  40.704   7.160   5.857
 5711POPC   C1A72255  40.989   7.506   6.257
 5711POPC   D2A72256  41.115   7.725   6.622
 5711POPC   C3A72257  41.063   7.429   6.914
 5711POPC   C4A72258  40.915   7.713   7.201
 5711POPC   C1B72259  40.493   7.427   6.205
 5711POPC   C2B72260  40.616   7.450   6.642
 5711POPC   C3B72261  40.529   7.388   7.070
 5711POPC   C4B72262  40.264   7.728   7.173
 5712POPC   NC372263   8.985  25.832   5.554
 5712POPC   PO472264   8.733  25.267   5.397
 5712POPC   GL172265   8.914  25.294   5.796
 5712POPC   GL272266   8.665  25.546   5.833
 5712POPC   C1A72267   9.013  25.088   6.214
 5712POPC   D2A72268   9.151  24.830   6.595
 5712POPC   C3A72269   9.247  25.024   7.012
 5712POPC   C4A72270   9.273  25.302   7.392
 5712POPC   C1B72271   8.714  25.507   6.273
 5712POPC   C2B72272   8.967  25.363   6.627
 5712POPC   C3B72273   8.856  25.365   7.037
 5712POPC   C4B72274   8.790  25.430   7.491
 5713POPC   NC372275  22.820  18.496   5.390
 5713POPC   PO472276  22.970  17.850   5.512
 5713POPC   GL172277  22.958  18.233   5.814
 5713POPC   GL272278  22.647  18.474   5.869
 5713POPC   C1A72279  23.036  18.190   6.251
 5713POPC   D2A72280  22.730  17.978   6.527
 5713POPC   C3A72281  22.763  18.179   6.905
 5713POPC   C4A72282  22.988  18.191   7.271
 5713POPC   C1B72283  22.629  18.483   6.327
 5713POPC   C2B72284  22.561  18.627   6.734
 5713POPC   C3B72285  22.604  18.636   7.194
 5713POPC   C4B72286  22.669  18.456   7.620
 5714POPC   NC372287  13.955  26.778   5.668
 5714POPC   PO472288  14.611  26.875   5.561
 5714POPC   GL172289  14.401  26.655   5.894
 5714POPC   GL272290  14.100  26.468   6.029
 5714POPC   C1A72291  14.347  26.862   6.283
 5714POPC   D2A72292  14.336  27.190   6.563
 5714POPC   C3A72293  14.428  27.001   6.911
 5714POPC   C4A72294  14.673  26.762   7.134
 5714POPC   C1B72295  14.363  26.349   6.353
 5714POPC   C2B72296  14.453  26.503   6.744
 5714POPC   C3B72297  14.192  26.567   7.112
 5714POPC   C4B72298  14.215  26.570   7.565
 5715POPC   NC372299  41.671  36.523   5.229
 5715POPC   PO472300  41.327  35.989   5.399
 5715POPC   GL172301  41.614  35.975   5.756
 5715POPC   GL272302  41.852  36.234   5.646
 5715POPC   C1A72303  41.495  36.006   6.201
 5715POPC   D2A72304  41.327  36.235   6.547
 5715POPC   C3A72305  41.479  36.141   6.930
 5715POPC   C4A72306  41.536  36.203   7.355
 5715POPC   C1B72307  41.927  36.352   6.105
 5715POPC   C2B72308  41.876  36.213   6.518
 5715POPC   C3B72309  41.928  36.375   6.903
 5715POPC   C4B72310  42.040  36.277   7.318
 5716POPC   NC372311  34.156  19.914   5.390
 5716POPC   PO472312  33.524  19.971   5.406
 5716POPC   GL172313  33.790  19.885   5.785
 5716POPC   GL272314  34.040  19.596   5.771
 5716POPC   C1A72315  33.730  19.607   6.162
 5716POPC   D2A72316  33.502  19.596   6.527
 5716POPC   C3A72317  33.661  19.838   6.830
 5716POPC   C4A72318  33.898  19.701   7.146
 5716POPC   C1B72319  34.172  19.901   6.133
 5716POPC   C2B72320  34.020  20.068   6.545
 5716POPC   C3B72321  34.048  20.154   7.003
 5716POPC   C4B72322  34.046  20.156   7.468
 5717POPC   NC372323  28.596  15.684   5.542
 5717POPC   PO472324  28.074  16.134   5.464
 5717POPC   GL172325  28.269  16.054   5.846
 5717POPC   GL272326  28.551  15.966   5.955
 5717POPC   C1A72327  28.126  16.002   6.269
 5717POPC   D2A72328  27.874  15.830   6.564
 5717POPC   C3A72329  27.988  16.017   6.942
 5717POPC   C4A72330  28.166  15.932   7.340
 5717POPC   C1B72331  28.331  15.575   6.103
 5717POPC   C2B72332  28.314  15.539   6.528
 5717POPC   C3B72333  28.451  15.801   6.867
 5717POPC   C4B72334  28.682  15.825   7.253
 5718POPC   NC372335   9.679  17.258   5.424
 5718POPC   PO472336   9.961  17.919   5.412
 5718POPC   GL172337   9.843  17.632   5.768
 5718POPC   GL272338   9.638  17.792   6.020
 5718POPC   C1A72339   9.867  17.390   6.176
 5718POPC   D2A72340   9.698  17.632   6.541
 5718POPC   C3A72341   9.839  17.495   6.930
 5718POPC   C4A72342  10.055  17.402   7.344
 5718POPC   C1B72343   9.342  17.471   6.220
 5718POPC   C2B72344   9.158  17.463   6.624
 5718POPC   C3B72345   9.322  17.734   6.941
 5718POPC   C4B72346   9.609  17.721   7.329
 5719POPC   NC372347  25.181  20.915   5.441
 5719POPC   PO472348  25.128  20.270   5.281
 5719POPC   GL172349  25.270  20.424   5.716
 5719POPC   GL272350  25.097  20.711   5.891
 5719POPC   C1A72351  25.226  20.357   6.183
 5719POPC   D2A72352  25.257  20.619   6.530
 5719POPC   C3A72353  25.313  20.405   6.890
 5719POPC   C4A72354  25.275  20.498   7.297
 5719POPC   C1B72355  25.206  21.014   6.165
 5719POPC   C2B72356  25.313  21.140   6.558
 5719POPC   C3B72357  25.242  20.932   6.951
 5719POPC   C4B72358  24.969  20.909   7.264
 5720POPC   NC372359  22.520  30.809   5.607
 5720POPC   PO472360  22.127  30.352   5.307
 5720POPC   GL172361  22.097  30.544   5.763
 5720POPC   GL272362  22.022  30.933   5.876
 5720POPC   C1A72363  22.179  30.559   6.229
 5720POPC   D2A72364  21.885  30.522   6.564
 5720POPC   C3A72365  22.003  30.524   6.994
 5720POPC   C4A72366  21.944  30.129   7.156
 5720POPC   C1B72367  21.984  31.024   6.363
 5720POPC   C2B72368  22.246  30.906   6.754
 5720POPC   C3B72369  22.341  31.073   7.200
 5720POPC   C4B72370  22.197  30.798   7.516
 5721POPC   NC372371  38.432  31.500   5.083
 5721POPC   PO472372  38.723  31.821   5.635
 5721POPC   GL172373  38.443  31.546   5.745
 5721POPC   GL272374  38.693  31.278   5.588
 5721POPC   C1A72375  38.301  31.511   6.195
 5721POPC   D2A72376  38.215  31.357   6.629
 5721POPC   C3A72377  38.292  31.551   7.027
 5721POPC   C4A72378  38.072  31.376   7.362
 5721POPC   C1B72379  38.741  31.265   6.043
 5721POPC   C2B72380  38.721  31.326   6.459
 5721POPC   C3B72381  38.724  31.312   6.884
 5721POPC   C4B72382  38.707  31.387   7.314
 5722POPC   NC372383  40.533   8.102   5.355
 5722POPC   PO472384  41.201   8.387   5.283
 5722POPC   GL172385  40.968   8.195   5.646
 5722POPC   GL272386  41.102   7.944   5.877
 5722POPC   C1A72387  40.723   8.276   6.025
 5722POPC   D2A72388  40.784   8.126   6.449
 5722POPC   C3A72389  40.614   8.391   6.800
 5722POPC   C4A72390  40.616   8.151   7.180
 5722POPC   C1B72391  41.216   8.319   6.131
 5722POPC   C2B72392  41.108   8.528   6.524
 5722POPC   C3B72393  41.083   8.223   6.858
 5722POPC   C4B72394  41.120   8.202   7.241
 5723POPC   NC372395  32.543  36.926   5.262
 5723POPC   PO472396  31.934  37.001   5.632
 5723POPC   GL172397  32.310  36.785   5.707
 5723POPC   GL272398  32.404  37.039   5.825
 5723POPC   C1A72399  32.356  36.649   6.140
 5723POPC   D2A72400  32.378  36.506   6.560
 5723POPC   C3A72401  32.182  36.736   6.893
 5723POPC   C4A72402  32.233  36.549   7.280
 5723POPC   C1B72403  32.268  37.163   6.207
 5723POPC   C2B72404  32.416  37.108   6.601
 5723POPC   C3B72405  32.642  37.124   6.966
 5723POPC   C4B72406  32.446  36.991   7.323
 5724POPC   NC372407  38.601  17.187   5.323
 5724POPC   PO472408  38.778  17.845   5.488
 5724POPC   GL172409  38.679  17.720   5.912
 5724POPC   GL272410  38.591  17.395   5.805
 5724POPC   C1A72411  38.332  17.602   6.213
 5724POPC   D2A72412  38.286  17.457   6.623
 5724POPC   C3A72413  38.286  17.708   6.963
 5724POPC   C4A72414  38.492  17.572   7.313
 5724POPC   C1B72415  38.645  17.213   6.192
 5724POPC   C2B72416  38.783  17.269   6.626
 5724POPC   C3B72417  38.577  17.130   6.972
 5724POPC   C4B72418  38.680  17.046   7.375
 5725POPC   NC372419  35.451  33.200   5.496
 5725POPC   PO472420  36.083  33.004   5.422
 5725POPC   GL172421  35.929  33.182   5.802
 5725POPC   GL272422  36.258  33.140   5.913
 5725POPC   C1A72423  35.877  33.040   6.255
 5725POPC   D2A72424  36.101  32.990   6.671
 5725POPC   C3A72425  35.855  32.944   7.071
 5725POPC   C4A72426  35.718  33.266   7.370
 5725POPC   C1B72427  36.234  33.410   6.289
 5725POPC   C2B72428  36.353  33.465   6.723
 5725POPC   C3B72429  36.256  33.240   7.107
 5725POPC   C4B72430  36.322  32.768   7.173
 5726POPC   NC372431   4.125   6.317   5.105
 5726POPC   PO472432   4.157   5.717   5.374
 5726POPC   GL172433   4.246   5.824   5.837
 5726POPC   GL272434   4.456   5.584   5.939
 5726POPC   C1A72435   4.415   6.003   6.259
 5726POPC   D2A72436   4.224   5.933   6.675
 5726POPC   C3A72437   4.352   5.911   7.100
 5726POPC   C4A72438   4.105   5.605   7.302
 5726POPC   C1B72439   4.419   5.498   6.393
 5726POPC   C2B72440   4.633   5.604   6.772
 5726POPC   C3B72441   4.660   5.487   7.209
 5726POPC   C4B72442   4.562   5.738   7.536
 5727POPC   NC372443  27.421  27.603   5.260
 5727POPC   PO472444  26.692  27.588   5.348
 5727POPC   GL172445  26.697  27.607   5.778
 5727POPC   GL272446  27.061  27.668   5.746
 5727POPC   C1A72447  26.694  27.393   6.207
 5727POPC   D2A72448  26.770  27.174   6.602
 5727POPC   C3A72449  26.899  27.293   7.047
 5727POPC   C4A72450  26.605  27.238   7.368
 5727POPC   C1B72451  27.140  27.640   6.211
 5727POPC   C2B72452  27.062  27.622   6.678
 5727POPC   C3B72453  26.852  27.808   7.069
 5727POPC   C4B72454  26.830  27.669   7.524
 5728POPC   NC372455   9.942  43.589   5.450
 5728POPC   PO472456   9.394  44.013   5.341
 5728POPC   GL172457   9.620  43.983   5.760
 5728POPC   GL272458   9.300  43.963   5.920
 5728POPC   C1A72459   9.719  43.786   6.207
 5728POPC   D2A72460   9.645  43.534   6.612
 5728POPC   C3A72461   9.750  43.694   7.029
 5728POPC   C4A72462   9.845  43.865   7.425
 5728POPC   C1B72463   9.418  44.191   6.301
 5728POPC   C2B72464   9.583  44.040   6.684
 5728POPC   C3B72465   9.464  44.138   7.131
 5728POPC   C4B72466   9.428  44.070   7.613
 5729POPC   NC372467  40.024   9.714   5.531
 5729POPC   PO472468  40.581   9.861   5.470
 5729POPC   GL172469  40.360   9.875   5.881
 5729POPC   GL272470  40.015  10.030   5.936
 5729POPC   C1A72471  40.376   9.781   6.306
 5729POPC   D2A72472  40.132   9.693   6.665
 5729POPC   C3A72473  40.138   9.870   7.057
 5729POPC   C4A72474  40.013   9.656   7.445
 5729POPC   C1B72475  39.844   9.744   6.213
 5729POPC   C2B72476  39.626   9.720   6.581
 5729POPC   C3B72477  39.710   9.614   6.977
 5729POPC   C4B72478  39.584   9.417   7.316
 5730POPC   NC372479  40.524  10.323   5.384
 5730POPC   PO472480  39.829  10.161   5.459
 5730POPC   GL172481  40.097  10.487   5.710
 5730POPC   GL272482  40.380  10.381   5.848
 5730POPC   C1A72483  40.192  10.730   6.129
 5730POPC   D2A72484  40.064  10.808   6.548
 5730POPC   C3A72485  40.031  10.587   6.932
 5730POPC   C4A72486  40.213  10.716   7.299
 5730POPC   C1B72487  40.504  10.269   6.234
 5730POPC   C2B72488  40.446  10.404   6.656
 5730POPC   C3B72489  40.437  10.293   7.094
 5730POPC   C4B72490  40.602  10.436   7.481
 5731POPC   NC372491   6.382  26.466   5.524
 5731POPC   PO472492   6.987  26.726   5.246
 5731POPC   GL172493   6.796  26.690   5.703
 5731POPC   GL272494   6.539  26.949   5.730
 5731POPC   C1A72495   6.618  26.486   6.127
 5731POPC   D2A72496   6.388  26.347   6.511
 5731POPC   C3A72497   6.520  26.413   6.944
 5731POPC   C4A72498   6.801  26.659   7.196
 5731POPC   C1B72499   6.730  26.981   6.142
 5731POPC   C2B72500   6.671  26.785   6.547
 5731POPC   C3B72501   6.477  26.927   6.891
 5731POPC   C4B72502   6.604  27.166   7.221
 5732POPC   NC372503  31.801  32.850   5.451
 5732POPC   PO472504  31.448  33.388   5.194
 5732POPC   GL172505  31.550  33.227   5.654
 5732POPC   GL272506  31.822  33.402   5.830
 5732POPC   C1A72507  31.630  32.972   6.072
 5732POPC   D2A72508  31.454  33.012   6.491
 5732POPC   C3A72509  31.554  32.795   6.884
 5732POPC   C4A72510  31.362  32.917   7.274
 5732POPC   C1B72511  31.895  33.342   6.286
 5732POPC   C2B72512  31.742  33.399   6.681
 5732POPC   C3B72513  31.781  33.235   7.081
 5732POPC   C4B72514  31.857  33.400   7.491
 5733POPC   NC372515   2.302  13.331   5.530
 5733POPC   PO472516   1.835  13.731   5.194
 5733POPC   GL172517   1.915  13.628   5.678
 5733POPC   GL272518   1.781  13.299   5.768
 5733POPC   C1A72519   2.080  13.478   6.145
 5733POPC   D2A72520   2.022  13.312   6.598
 5733POPC   C3A72521   2.251  13.482   6.974
 5733POPC   C4A72522   2.244  13.856   7.263
 5733POPC   C1B72523   1.561  13.531   6.094
 5733POPC   C2B72524   1.648  13.678   6.523
 5733POPC   C3B72525   1.641  13.549   6.957
 5733POPC   C4B72526   1.859  13.376   7.312
 5734POPC   NC372527  22.534  30.091   5.402
 5734POPC   PO472528  23.279  30.025   5.297
 5734POPC   GL172529  23.051  30.044   5.787
 5734POPC   GL272530  22.759  29.872   5.841
 5734POPC   C1A72531  22.924  30.162   6.268
 5734POPC   D2A72532  22.824  29.992   6.690
 5734POPC   C3A72533  22.796  30.204   7.094
 5734POPC   C4A72534  23.113  30.053   7.232
 5734POPC   C1B72535  22.776  29.689   6.262
 5734POPC   C2B72536  22.873  29.464   6.595
 5734POPC   C3B72537  23.055  29.581   6.943
 5734POPC   C4B72538  22.724  29.705   7.141
 5735POPC   NC372539  29.865  44.309   5.235
 5735POPC   PO472540  30.045  44.909   5.244
 5735POPC   GL172541  29.996  44.843   5.731
 5735POPC   GL272542  29.681  44.994   5.852
 5735POPC   C1A72543  30.023  44.738   6.194
 5735POPC   D2A72544  29.837  44.470   6.548
 5735POPC   C3A72545  30.059  44.544   6.927
 5735POPC   C4A72546  30.054  44.904   7.143
 5735POPC   C1B72547  29.518  44.710   6.191
 5735POPC   C2B72548  29.356  44.656   6.581
 5735POPC   C3B72549  29.526  44.575   6.959
 5735POPC   C4B72550  29.615  44.618   7.351
 5736POPC   NC372551   7.264  12.806   5.760
 5736POPC   PO472552   7.632  13.295   5.268
 5736POPC   GL172553   7.785  13.271   5.707
 5736POPC   GL272554   7.741  12.945   5.722
 5736POPC   C1A72555   7.740  13.191   6.168
 5736POPC   D2A72556   7.336  13.064   6.430
 5736POPC   C3A72557   7.323  12.896   6.855
 5736POPC   C4A72558   7.516  12.848   7.231
 5736POPC   C1B72559   7.755  12.685   6.136
 5736POPC   C2B72560   7.767  12.794   6.561
 5736POPC   C3B72561   7.818  12.577   6.927
 5736POPC   C4B72562   7.738  12.377   7.292
 5737POPC   NC372563  14.716  14.250   5.467
 5737POPC   PO472564  15.403  14.438   5.587
 5737POPC   GL172565  15.256  14.497   5.983
 5737POPC   GL272566  15.310  14.846   5.991
 5737POPC   C1A72567  15.350  14.542   6.424
 5737POPC   D2A72568  15.556  14.585   6.810
 5737POPC   C3A72569  15.566  14.341   7.178
 5737POPC   C4A72570  15.137  14.322   7.312
 5737POPC   C1B72571  14.847  14.797   6.071
 5737POPC   C2B72572  14.704  14.801   6.499
 5737POPC   C3B72573  15.023  14.719   6.823
 5737POPC   C4B72574  14.924  14.781   7.239
 5738POPC   NC372575  35.054  42.105   5.653
 5738POPC   PO472576  34.409  41.890   5.513
 5738POPC   GL172577  34.582  42.124   5.834
 5738POPC   GL272578  34.544  42.475   5.825
 5738POPC   C1A72579  34.649  42.078   6.261
 5738POPC   D2A72580  34.880  42.266   6.600
 5738POPC   C3A72581  34.688  42.127   6.984
 5738POPC   C4A72582  34.761  42.205   7.440
 5738POPC   C1B72583  34.310  42.576   6.206
 5738POPC   C2B72584  34.047  42.549   6.590
 5738POPC   C3B72585  34.157  42.280   6.923
 5738POPC   C4B72586  34.302  42.356   7.333
 5739POPC   NC372587  38.694  19.186   5.378
 5739POPC   PO472588  38.139  18.937   5.534
 5739POPC   GL172589  38.395  19.115   5.886
 5739POPC   GL272590  38.720  19.309   5.898
 5739POPC   C1A72591  38.526  18.959   6.295
 5739POPC   D2A72592  38.419  18.613   6.551
 5739POPC   C3A72593  38.424  18.719   6.975
 5739POPC   C4A72594  38.589  18.911   7.357
 5739POPC   C1B72595  38.825  19.368   6.367
 5739POPC   C2B72596  38.659  19.232   6.768
 5739POPC   C3B72597  38.721  19.359   7.189
 5739POPC   C4B72598  38.806  19.325   7.658
 5740POPC   NC372599  17.682  26.427   5.497
 5740POPC   PO472600  17.320  25.917   5.431
 5740POPC   GL172601  17.535  25.821   5.844
 5740POPC   GL272602  17.862  26.032   5.887
 5740POPC   C1A72603  17.424  25.929   6.301
 5740POPC   D2A72604  17.118  26.147   6.610
 5740POPC   C3A72605  17.296  26.142   7.021
 5740POPC   C4A72606  17.572  25.781   7.164
 5740POPC   C1B72607  17.813  26.386   6.209
 5740POPC   C2B72608  17.694  26.417   6.664
 5740POPC   C3B72609  17.809  26.250   7.061
 5740POPC   C4B72610  17.980  26.045   7.421
 5741POPC   NC372611   5.580   8.380   5.413
 5741POPC   PO472612   4.896   8.264   5.373
 5741POPC   GL172613   5.104   8.372   5.774
 5741POPC   GL272614   5.191   8.058   5.856
 5741POPC   C1A72615   5.224   8.481   6.231
 5741POPC   D2A72616   5.311   8.222   6.586
 5741POPC   C3A72617   5.390   8.367   6.985
 5741POPC   C4A72618   5.123   8.637   7.221
 5741POPC   C1B72619   4.943   8.068   6.227
 5741POPC   C2B72620   4.803   7.969   6.623
 5741POPC   C3B72621   4.928   8.155   7.001
 5741POPC   C4B72622   4.927   7.942   7.390
 5742POPC   NC372623  17.913   5.970   5.707
 5742POPC   PO472624  17.451   5.937   5.173
 5742POPC   GL172625  17.387   5.957   5.755
 5742POPC   GL272626  17.589   5.745   6.063
 5742POPC   C1A72627  17.292   6.085   6.270
 5742POPC   D2A72628  17.520   6.067   6.726
 5742POPC   C3A72629  17.439   5.820   7.117
 5742POPC   C4A72630  17.582   5.615   7.524
 5742POPC   C1B72631  17.837   6.057   6.321
 5742POPC   C2B72632  17.921   6.398   6.611
 5742POPC   C3B72633  17.975   6.213   7.023
 5742POPC   C4B72634  17.619   6.264   7.269
 5743POPC   NC372635   4.379  13.085   5.590
 5743POPC   PO472636   4.305  12.447   5.514
 5743POPC   GL172637   4.232  12.667   5.889
 5743POPC   GL272638   4.466  12.957   6.056
 5743POPC   C1A72639   4.298  12.555   6.288
 5743POPC   D2A72640   4.413  12.848   6.572
 5743POPC   C3A72641   4.221  12.851   6.939
 5743POPC   C4A72642   4.529  12.995   7.191
 5743POPC   C1B72643   4.079  13.096   6.271
 5743POPC   C2B72644   4.119  13.308   6.690
 5743POPC   C3B72645   4.161  13.332   7.140
 5743POPC   C4B72646   3.991  13.001   7.377
 5744POPC   NC372647  27.455  29.514   5.150
 5744POPC   PO472648  27.760  29.965   5.427
 5744POPC   GL172649  27.666  29.728   5.829
 5744POPC   GL272650  27.771  29.959   6.093
 5744POPC   C1A72651  27.333  29.711   6.199
 5744POPC   D2A72652  27.435  29.749   6.672
 5744POPC   C3A72653  27.278  29.863   7.081
 5744POPC   C4A72654  27.487  30.048   7.452
 5744POPC   C1B72655  27.800  29.583   6.346
 5744POPC   C2B72656  27.798  29.407   6.763
 5744POPC   C3B72657  27.743  29.647   7.171
 5744POPC   C4B72658  27.789  29.702   7.650
 5745POPC   NC372659   9.956  16.284   5.477
 5745POPC   PO472660   9.785  15.635   5.361
 5745POPC   GL172661   9.636  15.900   5.716
 5745POPC   GL272662   9.989  15.847   5.837
 5745POPC   C1A72663   9.708  16.134   6.136
 5745POPC   D2A72664   9.854  15.912   6.520
 5745POPC   C3A72665   9.954  16.062   6.939
 5745POPC   C4A72666   9.850  15.938   7.366
 5745POPC   C1B72667  10.120  15.578   6.225
 5745POPC   C2B72668  10.220  15.630   6.722
 5745POPC   C3B72669  10.317  15.760   7.156
 5745POPC   C4B72670  10.225  15.782   7.656
 5746POPC   NC372671  25.783  16.070   5.516
 5746POPC   PO472672  26.394  15.834   5.514
 5746POPC   GL172673  26.126  15.809   5.848
 5746POPC   GL272674  25.837  15.562   5.763
 5746POPC   C1A72675  26.284  16.023   6.238
 5746POPC   D2A72676  26.445  16.141   6.638
 5746POPC   C3A72677  26.191  16.068   6.979
 5746POPC   C4A72678  26.226  15.916   7.377
 5746POPC   C1B72679  26.006  15.463   6.192
 5746POPC   C2B72680  26.192  15.638   6.577
 5746POPC   C3B72681  25.999  15.597   6.988
 5746POPC   C4B72682  25.753  15.891   7.259
 5747POPC   NC372683   9.015  10.710   5.223
 5747POPC   PO472684   8.676  10.159   5.474
 5747POPC   GL172685   8.850  10.490   5.780
 5747POPC   GL272686   9.010  10.826   5.727
 5747POPC   C1A72687   9.131  10.534   6.148
 5747POPC   D2A72688   8.923  10.520   6.544
 5747POPC   C3A72689   9.096  10.689   6.918
 5747POPC   C4A72690   9.214  10.563   7.348
 5747POPC   C1B72691   8.789  10.918   6.111
 5747POPC   C2B72692   8.834  11.056   6.523
 5747POPC   C3B72693   8.685  11.062   6.920
 5747POPC   C4B72694   8.889  10.976   7.287
 5748POPC   NC372695  13.042  29.046   5.304
 5748POPC   PO472696  12.476  29.333   5.529
 5748POPC   GL172697  12.847  29.214   5.809
 5748POPC   GL272698  13.041  28.887   5.783
 5748POPC   C1A72699  12.965  29.341   6.236
 5748POPC   D2A72700  12.731  29.379   6.620
 5748POPC   C3A72701  12.937  29.269   6.985
 5748POPC   C4A72702  12.942  29.403   7.419
 5748POPC   C1B72703  12.947  28.832   6.191
 5748POPC   C2B72704  13.094  28.938   6.592
 5748POPC   C3B72705  13.034  28.761   6.997
 5748POPC   C4B72706  12.990  28.894   7.419
 5749POPC   NC372707  10.059  14.398   5.158
 5749POPC   PO472708   9.445  14.282   5.424
 5749POPC   GL172709   9.612  14.424   5.794
 5749POPC   GL272710   9.961  14.337   5.723
 5749POPC   C1A72711   9.522  14.558   6.210
 5749POPC   D2A72712   9.312  14.423   6.588
 5749POPC   C3A72713   9.567  14.615   6.871
 5749POPC   C4A72714   9.719  14.680   7.227
 5749POPC   C1B72715   9.952  14.215   6.176
 5749POPC   C2B72716   9.828  14.265   6.611
 5749POPC   C3B72717  10.055  14.328   7.022
 5749POPC   C4B72718  10.134  14.085   7.399
 5750POPC   NC372719  12.523  39.269   5.663
 5750POPC   PO472720  11.918  39.302   5.407
 5750POPC   GL172721  12.020  39.156   5.836
 5750POPC   GL272722  12.262  38.872   5.934
 5750POPC   C1A72723  12.101  39.268   6.277
 5750POPC   D2A72724  12.325  39.179   6.677
 5750POPC   C3A72725  12.145  39.304   7.063
 5750POPC   C4A72726  11.746  39.359   7.271
 5750POPC   C1B72727  12.102  38.773   6.381
 5750POPC   C2B72728  11.821  38.850   6.759
 5750POPC   C3B72729  11.888  38.871   7.221
 5750POPC   C4B72730  11.811  39.020   7.669
 5751POPC   NC372731  43.986  38.435   5.375
 5751POPC   PO472732  44.519  38.213   5.697
 5751POPC   GL172733  44.110  38.166   5.905
 5751POPC   GL272734  43.771  38.152   5.754
 5751POPC   C1A72735  43.908  38.528   6.142
 5751POPC   D2A72736  44.034  38.791   6.513
 5751POPC   C3A72737  43.999  38.671   6.953
 5751POPC   C4A72738  43.733  38.779   7.282
 5751POPC   C1B72739  43.663  38.089   6.169
 5751POPC   C2B72740  43.672  38.336   6.569
 5751POPC   C3B72741  43.530  38.447   6.969
 5751POPC   C4B72742  43.707  38.265   7.352
 5752POPC   NC372743  28.794  44.554   5.566
 5752POPC   PO472744  28.178  44.461   5.329
 5752POPC   GL172745  28.274  44.702   5.724
 5752POPC   GL272746  28.555  44.843   5.912
 5752POPC   C1A72747  28.149  44.651   6.151
 5752POPC   D2A72748  28.410  44.602   6.470
 5752POPC   C3A72749  28.231  44.670   6.854
 5752POPC   C4A72750  28.270  44.461   7.247
 5752POPC   C1B72751  28.669   0.091   6.250
 5752POPC   C2B72752  28.693  44.971   6.676
 5752POPC   C3B72753  28.659  44.792   7.088
 5752POPC   C4B72754  28.611  44.900   7.499
 5753POPC   NC372755  32.806   0.974   5.412
 5753POPC   PO472756  32.322   1.466   5.514
 5753POPC   GL172757  32.500   1.375   5.899
 5753POPC   GL272758  32.795   1.577   5.953
 5753POPC   C1A72759  32.289   1.227   6.274
 5753POPC   D2A72760  32.362   0.994   6.657
 5753POPC   C3A72761  32.127   1.119   7.023
 5753POPC   C4A72762  31.882   1.034   7.389
 5753POPC   C1B72763  32.767   1.397   6.360
 5753POPC   C2B72764  32.478   1.493   6.678
 5753POPC   C3B72765  32.549   1.441   7.104
 5753POPC   C4B72766  32.243   1.411   7.442
 5754POPC   NC372767  11.141  39.885   5.525
 5754POPC   PO472768  11.076  40.520   5.481
 5754POPC   GL172769  11.357  40.294   5.777
 5754POPC   GL272770  11.590  39.980   5.753
 5754POPC   C1A72771  11.412  40.220   6.228
 5754POPC   D2A72772  11.147  40.307   6.602
 5754POPC   C3A72773  11.365  40.233   6.984
 5754POPC   C4A72774  11.168  40.237   7.385
 5754POPC   C1B72775  11.740  39.805   6.156
 5754POPC   C2B72776  11.495  39.763   6.547
 5754POPC   C3B72777  11.667  39.786   6.961
 5754POPC   C4B72778  11.478  39.816   7.371
 5755POPC   NC372779  10.153  23.960   5.668
 5755POPC   PO472780   9.744  23.568   5.368
 5755POPC   GL172781   9.675  23.666   5.801
 5755POPC   GL272782   9.947  23.483   5.905
 5755POPC   C1A72783   9.701  23.780   6.265
 5755POPC   D2A72784   9.593  23.930   6.691
 5755POPC   C3A72785   9.580  23.672   7.059
 5755POPC   C4A72786   9.666  23.766   7.474
 5755POPC   C1B72787  10.002  23.384   6.359
 5755POPC   C2B72788   9.995  23.613   6.762
 5755POPC   C3B72789  10.055  23.848   7.170
 5755POPC   C4B72790  10.303  23.807   7.593
 5756POPC   NC372791   0.661  17.048   5.371
 5756POPC   PO472792   0.577  16.388   5.397
 5756POPC   GL172793   0.515  16.666   5.772
 5756POPC   GL272794   0.403  17.026   5.841
 5756POPC   C1A72795   0.384  16.625   6.207
 5756POPC   D2A72796   0.622  16.522   6.571
 5756POPC   C3A72797   0.403  16.593   6.932
 5756POPC   C4A72798   0.556  16.527   7.311
 5756POPC   C1B72799   0.633  17.111   6.266
 5756POPC   C2B72800   0.642  17.021   6.739
 5756POPC   C3B72801   0.480  17.054   7.194
 5756POPC   C4B72802   0.116  17.109   7.478
 5757POPC   NC372803  22.345  43.504   5.627
 5757POPC   PO472804  22.071  43.984   5.185
 5757POPC   GL172805  22.252  44.003   5.619
 5757POPC   GL272806  21.987  43.925   5.846
 5757POPC   C1A72807  22.391  44.035   6.097
 5757POPC   D2A72808  22.228  44.122   6.511
 5757POPC   C3A72809  22.480  44.152   6.875
 5757POPC   C4A72810  22.228  44.232   7.223
 5757POPC   C1B72811  21.912  43.658   6.187
 5757POPC   C2B72812  22.085  43.601   6.554
 5757POPC   C3B72813  22.105  43.797   6.933
 5757POPC   C4B72814  22.127  43.618   7.301
 5758POPC   NC372815  18.499  22.314   5.435
 5758POPC   PO472816  19.212  22.283   5.440
 5758POPC   GL172817  19.212  22.261   5.877
 5758POPC   GL272818  19.029  21.936   5.953
 5758POPC   C1A72819  19.372  22.512   6.201
 5758POPC   D2A72820  19.211  22.549   6.616
 5758POPC   C3A72821  18.936  22.247   6.816
 5758POPC   C4A72822  19.082  22.132   7.195
 5758POPC   C1B72823  19.150  22.071   6.372
 5758POPC   C2B72824  19.416  22.033   6.742
 5758POPC   C3B72825  19.474  21.796   7.132
 5758POPC   C4B72826  19.220  21.729   7.452
 5759POPC   NC372827   3.672   0.854   5.086
 5759POPC   PO472828   3.522   1.384   5.496
 5759POPC   GL172829   3.616   1.245   5.876
 5759POPC   GL272830   3.499   0.892   6.000
 5759POPC   C1A72831   3.805   1.235   6.250
 5759POPC   D2A72832   3.629   1.071   6.594
 5759POPC   C3A72833   3.886   1.237   6.897
 5759POPC   C4A72834   3.823   1.249   7.318
 5759POPC   C1B72835   3.279   1.245   6.244
 5759POPC   C2B72836   3.127   1.309   6.648
 5759POPC   C3B72837   3.341   1.283   7.040
 5759POPC   C4B72838   3.222   1.456   7.460
 5760POPC   NC372839  19.189  22.775   5.369
 5760POPC   PO472840  18.562  22.747   5.608
 5760POPC   GL172841  18.983  22.757   5.843
 5760POPC   GL272842  19.292  23.022   5.811
 5760POPC   C1A72843  19.004  22.907   6.262
 5760POPC   D2A72844  18.768  23.209   6.522
 5760POPC   C3A72845  18.906  23.084   6.920
 5760POPC   C4A72846  19.041  22.679   7.082
 5760POPC   C1B72847  19.484  23.112   6.213
 5760POPC   C2B72848  19.627  22.826   6.549
 5760POPC   C3B72849  19.553  22.754   6.991
 5760POPC   C4B72850  19.340  23.099   7.192
 5761POPC   NC372851  12.835  37.324   5.465
 5761POPC   PO472852  12.964  38.009   5.474
 5761POPC   GL172853  13.100  37.706   5.758
 5761POPC   GL272854  12.778  37.611   5.900
 5761POPC   C1A72855  13.178  37.674   6.197
 5761POPC   D2A72856  12.865  37.571   6.507
 5761POPC   C3A72857  13.003  37.787   6.893
 5761POPC   C4A72858  13.099  37.657   7.299
 5761POPC   C1B72859  12.794  38.009   6.188
 5761POPC   C2B72860  12.631  38.011   6.613
 5761POPC   C3B72861  12.510  37.649   6.904
 5761POPC   C4B72862  12.595  37.776   7.318
 5762POPC   NC372863  26.545   7.350   5.479
 5762POPC   PO472864  27.167   7.049   5.429
 5762POPC   GL172865  27.079   7.304   5.845
 5762POPC   GL272866  26.727   7.267   5.951
 5762POPC   C1A72867  27.083   7.623   6.217
 5762POPC   D2A72868  26.912   7.754   6.662
 5762POPC   C3A72869  26.653   7.486   6.964
 5762POPC   C4A72870  26.737   7.411   7.408
 5762POPC   C1B72871  26.710   7.332   6.415
 5762POPC   C2B72872  26.998   7.150   6.722
 5762POPC   C3B72873  26.937   6.979   7.155
 5762POPC   C4B72874  27.074   7.079   7.594
 5763POPC   NC372875  39.286  12.509   5.579
 5763POPC   PO472876  38.906  13.044   5.520
 5763POPC   GL172877  38.933  13.186   5.907
 5763POPC   GL272878  39.259  12.987   5.908
 5763POPC   C1A72879  39.013  13.080   6.338
 5763POPC   D2A72880  39.369  12.952   6.567
 5763POPC   C3A72881  39.290  12.831   6.944
 5763POPC   C4A72882  39.421  13.073   7.276
 5763POPC   C1B72883  39.471  12.661   6.169
 5763POPC   C2B72884  39.450  12.397   6.531
 5763POPC   C3B72885  39.655  12.427   6.897
 5763POPC   C4B72886  39.572  12.560   7.304
 5764POPC   NC372887  32.807  27.238   5.503
 5764POPC   PO472888  32.342  27.825   5.466
 5764POPC   GL172889  32.317  27.687   5.875
 5764POPC   GL272890  32.449  27.974   6.017
 5764POPC   C1A72891  32.131  27.498   6.263
 5764POPC   D2A72892  31.920  27.663   6.646
 5764POPC   C3A72893  32.132  27.642   7.066
 5764POPC   C4A72894  32.294  27.238   7.210
 5764POPC   C1B72895  32.610  27.679   6.301
 5764POPC   C2B72896  32.460  27.605   6.675
 5764POPC   C3B72897  32.622  27.849   6.966
 5764POPC   C4B72898  32.661  27.930   7.358
 5765POPC   NC372899   7.178  29.655   5.459
 5765POPC   PO472900   7.328  30.319   5.389
 5765POPC   GL172901   7.387  30.082   5.781
 5765POPC   GL272902   7.442  29.719   5.872
 5765POPC   C1A72903   7.189  30.157   6.182
 5765POPC   D2A72904   7.211  29.956   6.584
 5765POPC   C3A72905   7.327  30.155   6.950
 5765POPC   C4A72906   7.438  30.085   7.381
 5765POPC   C1B72907   7.610  29.467   6.200
 5765POPC   C2B72908   7.559  29.582   6.622
 5765POPC   C3B72909   7.476  29.670   7.047
 5765POPC   C4B72910   7.716  29.660   7.424
 5766POPC   NC372911  29.895  29.449   5.379
 5766POPC   PO472912  29.446  28.973   5.387
 5766POPC   GL172913  29.822  29.010   5.699
 5766POPC   GL272914  30.069  29.299   5.804
 5766POPC   C1A72915  29.882  28.957   6.152
 5766POPC   D2A72916  29.644  28.860   6.529
 5766POPC   C3A72917  29.811  29.035   6.914
 5766POPC   C4A72918  29.906  28.892   7.344
 5766POPC   C1B72919  29.760  29.449   6.095
 5766POPC   C2B72920  29.775  29.398   6.523
 5766POPC   C3B72921  29.754  29.563   6.922
 5766POPC   C4B72922  29.796  29.402   7.306
 5767POPC   NC372923  31.792   6.880   5.521
 5767POPC   PO472924  32.425   6.511   5.271
 5767POPC   GL172925  32.184   6.570   5.617
 5767POPC   GL272926  32.297   6.904   5.679
 5767POPC   C1A72927  31.998   6.475   6.013
 5767POPC   D2A72928  31.971   6.626   6.443
 5767POPC   C3A72929  32.149   6.599   6.855
 5767POPC   C4A72930  32.202   6.733   7.259
 5767POPC   C1B72931  32.315   7.089   6.117
 5767POPC   C2B72932  32.366   6.939   6.543
 5767POPC   C3B72933  32.301   7.110   6.944
 5767POPC   C4B72934  32.594   7.134   7.300
 5768POPC   NC372935  40.354  16.537   5.367
 5768POPC   PO472936  40.685  17.059   5.566
 5768POPC   GL172937  40.585  16.730   5.871
 5768POPC   GL272938  40.827  16.465   5.808
 5768POPC   C1A72939  40.709  16.629   6.309
 5768POPC   D2A72940  40.488  16.570   6.701
 5768POPC   C3A72941  40.613  16.616   7.147
 5768POPC   C4A72942  40.541  16.723   7.594
 5768POPC   C1B72943  41.126  16.369   6.151
 5768POPC   C2B72944  41.084  16.208   6.578
 5768POPC   C3B72945  41.248  16.396   6.960
 5768POPC   C4B72946  41.102  16.682   7.305
 5769POPC   NC372947  17.335  31.092   5.334
 5769POPC   PO472948  17.789  31.607   5.393
 5769POPC   GL172949  17.673  31.358   5.777
 5769POPC   GL272950  17.307  31.336   5.793
 5769POPC   C1A72951  17.601  31.392   6.257
 5769POPC   D2A72952  17.640  31.520   6.725
 5769POPC   C3A72953  17.514  31.174   7.004
 5769POPC   C4A72954  17.809  30.980   7.208
 5769POPC   C1B72955  17.085  31.287   6.184
 5769POPC   C2B72956  17.202  31.298   6.607
 5769POPC   C3B72957  17.133  31.502   7.003
 5769POPC   C4B72958  17.076  31.280   7.376
 5770POPC   NC372959  44.958  39.434   5.391
 5770POPC   PO472960  44.520  38.951   5.616
 5770POPC   GL172961  44.829  39.127   5.835
 5770POPC   GL272962  44.874  39.489   5.909
 5770POPC   C1A72963  44.859  39.129   6.268
 5770POPC   D2A72964   0.007  39.402   6.580
 5770POPC   C3A72965  44.838  39.219   6.936
 5770POPC   C4A72966  44.526  39.019   7.193
 5770POPC   C1B72967  44.600  39.566   6.280
 5770POPC   C2B72968  44.531  39.719   6.702
 5770POPC   C3B72969  44.437  39.542   7.101
 5770POPC   C4B72970  44.082  39.251   7.182
 5771POPC   NC372971  10.321  21.458   5.465
 5771POPC   PO472972  10.940  21.334   5.293
 5771POPC   GL172973  10.762  21.238   5.752
 5771POPC   GL272974  10.373  21.208   5.905
 5771POPC   C1A72975  10.761  21.081   6.206
 5771POPC   D2A72976  10.448  21.204   6.522
 5771POPC   C3A72977  10.570  21.172   6.962
 5771POPC   C4A72978  10.640  21.366   7.356
 5771POPC   C1B72979  10.221  21.617   6.133
 5771POPC   C2B72980  10.252  21.704   6.617
 5771POPC   C3B72981  10.449  21.771   7.061
 5771POPC   C4B72982  10.331  21.765   7.533
 5772POPC   NC372983  38.155  16.478   5.412
 5772POPC   PO472984  37.522  16.530   5.552
 5772POPC   GL172985  37.413  16.737   5.940
 5772POPC   GL272986  37.720  16.945   5.932
 5772POPC   C1A72987  37.150  16.586   6.302
 5772POPC   D2A72988  37.255  16.265   6.615
 5772POPC   C3A72989  37.427  16.457   7.016
 5772POPC   C4A72990  37.854  16.559   7.156
 5772POPC   C1B72991  37.503  17.100   6.314
 5772POPC   C2B72992  37.489  17.099   6.772
 5772POPC   C3B72993  37.668  17.039   7.185
 5772POPC   C4B72994  37.789  17.070   7.645
 5773POPC   NC372995  19.303  37.877   5.557
 5773POPC   PO472996  18.863  37.462   5.292
 5773POPC   GL172997  18.886  37.602   5.737
 5773POPC   GL272998  19.208  37.504   5.911
 5773POPC   C1A72999  18.714  37.642   6.162
 5773POPC   D2A73000  18.702  37.456   6.550
 5773POPC   C3A73001  18.967  37.632   6.851
 5773POPC   C4A73002  18.789  37.558   7.248
 5773POPC   C1B73003  19.157  37.880   6.184
 5773POPC   C2B73004  19.268  38.038   6.559
 5773POPC   C3B73005  19.322  38.104   6.956
 5773POPC   C4B73006  19.187  37.863   7.258
 5774POPC   NC373007  21.136  33.285   5.082
 5774POPC   PO473008  20.798  32.797   5.470
 5774POPC   GL173009  20.544  33.033   5.756
 5774POPC   GL273010  20.291  32.798   5.888
 5774POPC   C1A73011  20.575  33.211   6.173
 5774POPC   D2A73012  20.590  33.091   6.614
 5774POPC   C3A73013  20.489  33.322   6.952
 5774POPC   C4A73014  20.700  33.287   7.327
 5774POPC   C1B73015  20.327  32.773   6.344
 5774POPC   C2B73016  20.281  32.726   6.796
 5774POPC   C3B73017  20.539  32.840   7.165
 5774POPC   C4B73018  20.448  32.852   7.631
 5775POPC   NC373019  16.124  27.860   5.520
 5775POPC   PO473020  15.484  27.524   5.650
 5775POPC   GL173021  15.710  27.778   5.851
 5775POPC   GL273022  15.969  27.531   5.873
 5775POPC   C1A73023  15.706  27.717   6.271
 5775POPC   D2A73024  15.901  27.871   6.588
 5775POPC   C3A73025  15.689  27.838   6.961
 5775POPC   C4A73026  15.917  27.813   7.324
 5775POPC   C1B73027  16.138  27.295   6.202
 5775POPC   C2B73028  16.252  27.481   6.576
 5775POPC   C3B73029  16.155  27.551   6.972
 5775POPC   C4B73030  16.225  27.405   7.425
 5776POPC   NC373031   3.687  38.835   5.521
 5776POPC   PO473032   3.364  39.352   5.442
 5776POPC   GL173033   3.566  39.332   5.840
 5776POPC   GL273034   3.361  39.052   5.895
 5776POPC   C1A73035   3.743  39.474   6.254
 5776POPC   D2A73036   3.781  39.440   6.700
 5776POPC   C3A73037   3.565  39.318   7.071
 5776POPC   C4A73038   3.678  38.873   7.129
 5776POPC   C1B73039   3.396  39.113   6.340
 5776POPC   C2B73040   3.137  39.173   6.707
 5776POPC   C3B73041   3.119  39.065   7.141
 5776POPC   C4B73042   3.196  39.287   7.553
 5777POPC   NC373043  24.029  13.217   5.355
 5777POPC   PO473044  23.581  13.633   5.475
 5777POPC   GL173045  23.818  13.608   5.827
 5777POPC   GL273046  24.168  13.444   5.790
 5777POPC   C1A73047  23.695  13.746   6.201
 5777POPC   D2A73048  23.819  13.508   6.519
 5777POPC   C3A73049  23.784  13.457   6.951
 5777POPC   C4A73050  23.578  13.460   7.355
 5777POPC   C1B73051  24.217  13.675   6.160
 5777POPC   C2B73052  24.068  13.975   6.470
 5777POPC   C3B73053  24.068  14.012   6.906
 5777POPC   C4B73054  24.030  13.747   7.279
 5778POPC   NC373055  40.284  23.848   5.475
 5778POPC   PO473056  39.801  23.345   5.550
 5778POPC   GL173057  39.991  23.656   5.858
 5778POPC   GL273058  39.931  24.041   5.815
 5778POPC   C1A73059  40.279  23.601   6.209
 5778POPC   D2A73060  40.428  23.751   6.599
 5778POPC   C3A73061  40.256  23.536   6.991
 5778POPC   C4A73062  39.838  23.653   7.169
 5778POPC   C1B73063  39.869  23.955   6.269
 5778POPC   C2B73064  39.947  23.870   6.715
 5778POPC   C3B73065  40.007  24.118   7.107
 5778POPC   C4B73066  39.762  24.116   7.530
 5779POPC   NC373067   6.174  13.674   5.445
 5779POPC   PO473068   5.509  13.372   5.353
 5779POPC   GL173069   5.685  13.663   5.705
 5779POPC   GL273070   5.973  13.543   5.885
 5779POPC   C1A73071   5.711  13.887   6.145
 5779POPC   D2A73072   6.006  13.849   6.509
 5779POPC   C3A73073   5.916  13.841   6.960
 5779POPC   C4A73074   5.875  13.525   7.301
 5779POPC   C1B73075   6.028  13.370   6.291
 5779POPC   C2B73076   5.958  13.349   6.743
 5779POPC   C3B73077   6.167  13.168   7.097
 5779POPC   C4B73078   6.186  13.231   7.585
 5780POPC   NC373079  40.302  27.414   5.610
 5780POPC   PO473080  39.845  27.696   5.188
 5780POPC   GL173081  39.828  27.600   5.682
 5780POPC   GL273082  39.918  27.309   5.933
 5780POPC   C1A73083  39.854  27.798   6.119
 5780POPC   D2A73084  39.916  28.002   6.521
 5780POPC   C3A73085  40.043  27.720   6.865
 5780POPC   C4A73086  39.747  27.495   7.140
 5780POPC   C1B73087  40.205  27.442   6.313
 5780POPC   C2B73088  40.550  27.463   6.654
 5780POPC   C3B73089  40.503  27.641   7.091
 5780POPC   C4B73090  40.181  27.494   7.399
 5781POPC   NC373091  27.481  33.180   5.302
 5781POPC   PO473092  27.911  32.723   5.443
 5781POPC   GL173093  27.644  32.923   5.761
 5781POPC   GL273094  27.656  33.264   5.775
 5781POPC   C1A73095  27.600  32.917   6.237
 5781POPC   D2A73096  27.678  33.210   6.601
 5781POPC   C3A73097  27.632  33.097   7.039
 5781POPC   C4A73098  27.615  32.740   7.312
 5781POPC   C1B73099  27.515  33.454   6.171
 5781POPC   C2B73100  27.231  33.504   6.553
 5781POPC   C3B73101  27.224  33.394   7.015
 5781POPC   C4B73102  27.270  33.101   7.416
 5782POPC   NC373103  31.749  31.259   5.436
 5782POPC   PO473104  31.243  31.704   5.397
 5782POPC   GL173105  31.410  31.458   5.790
 5782POPC   GL273106  31.618  31.140   5.913
 5782POPC   C1A73107  31.520  31.535   6.224
 5782POPC   D2A73108  31.692  31.400   6.591
 5782POPC   C3A73109  31.526  31.644   6.932
 5782POPC   C4A73110  31.544  31.645   7.397
 5782POPC   C1B73111  31.243  31.097   6.203
 5782POPC   C2B73112  31.177  31.266   6.630
 5782POPC   C3B73113  31.354  31.194   7.057
 5782POPC   C4B73114  31.177  31.274   7.476
 5783POPC   NC373115  35.431  14.926   5.438
 5783POPC   PO473116  34.769  15.187   5.372
 5783POPC   GL173117  35.049  15.148   5.748
 5783POPC   GL273118  35.364  15.375   5.778
 5783POPC   C1A73119  35.292  14.940   6.085
 5783POPC   D2A73120  35.538  14.928   6.463
 5783POPC   C3A73121  35.328  14.967   6.851
 5783POPC   C4A73122  35.464  14.911   7.251
 5783POPC   C1B73123  35.524  15.403   6.235
 5783POPC   C2B73124  35.531  15.459   6.717
 5783POPC   C3B73125  35.437  15.434   7.164
 5783POPC   C4B73126  35.520  15.319   7.610
 5784POPC   NC373127  44.594  23.573   5.352
 5784POPC   PO473128  44.752  24.253   5.150
 5784POPC   GL173129  44.638  23.982   5.618
 5784POPC   GL273130  44.776  23.635   5.793
 5784POPC   C1A73131  44.673  23.934   6.154
 5784POPC   D2A73132  44.763  23.999   6.628
 5784POPC   C3A73133  44.637  23.850   7.067
 5784POPC   C4A73134  44.502  23.985   7.503
 5784POPC   C1B73135  44.520  23.426   6.115
 5784POPC   C2B73136  44.565  23.503   6.547
 5784POPC   C3B73137  44.376  23.374   6.947
 5784POPC   C4B73138  44.438  23.475   7.378
 5785POPC   NC373139  38.963  14.127   5.404
 5785POPC   PO473140  39.493  14.629   5.527
 5785POPC   GL173141  39.296  14.400   5.889
 5785POPC   GL273142  38.946  14.355   5.855
 5785POPC   C1A73143  39.167  14.126   6.262
 5785POPC   D2A73144  39.005  13.974   6.676
 5785POPC   C3A73145  39.266  14.174   6.997
 5785POPC   C4A73146  39.351  14.670   7.105
 5785POPC   C1B73147  38.850  14.556   6.244
 5785POPC   C2B73148  39.014  14.515   6.661
 5785POPC   C3B73149  38.884  14.490   7.086
 5785POPC   C4B73150  38.904  14.113   7.366
 5786POPC   NC373151  32.031  27.377   5.559
 5786POPC   PO473152  31.410  27.644   5.380
 5786POPC   GL173153  31.420  27.715   5.812
 5786POPC   GL273154  31.790  27.731   5.909
 5786POPC   C1A73155  31.192  27.642   6.194
 5786POPC   D2A73156  31.335  27.832   6.554
 5786POPC   C3A73157  31.534  27.778   6.956
 5786POPC   C4A73158  31.274  27.738   7.279
 5786POPC   C1B73159  31.637  27.337   6.140
 5786POPC   C2B73160  31.334  27.189   6.471
 5786POPC   C3B73161  31.367  27.142   6.922
 5786POPC   C4B73162  31.766  27.280   7.071
 5787POPC   NC373163   9.444  31.160   5.326
 5787POPC   PO473164   9.966  31.681   5.415
 5787POPC   GL173165   9.826  31.471   5.813
 5787POPC   GL273166   9.650  31.166   5.896
 5787POPC   C1A73167  10.005  31.371   6.249
 5787POPC   D2A73168   9.824  31.436   6.684
 5787POPC   C3A73169  10.016  31.275   7.055
 5787POPC   C4A73170  10.027  31.098   7.475
 5787POPC   C1B73171   9.491  31.378   6.272
 5787POPC   C2B73172   9.287  31.279   6.658
 5787POPC   C3B73173   9.302  31.275   7.090
 5787POPC   C4B73174   9.621  31.436   7.366
 5788POPC   NC373175  16.785  39.965   5.132
 5788POPC   PO473176  16.328  40.130   5.471
 5788POPC   GL173177  16.389  40.213   5.873
 5788POPC   GL273178  16.753  40.178   5.777
 5788POPC   C1A73179  16.475  40.045   6.265
 5788POPC   D2A73180  16.448  39.739   6.580
 5788POPC   C3A73181  16.480  39.982   6.929
 5788POPC   C4A73182  16.643  39.932   7.317
 5788POPC   C1B73183  16.947  39.974   6.106
 5788POPC   C2B73184  16.924  39.927   6.534
 5788POPC   C3B73185  16.991  39.907   6.951
 5788POPC   C4B73186  17.164  40.038   7.313
 5789POPC   NC373187  10.120  26.307   5.516
 5789POPC   PO473188   9.382  26.098   5.457
 5789POPC   GL173189   9.572  26.075   5.857
 5789POPC   GL273190   9.900  25.893   5.794
 5789POPC   C1A73191   9.653  26.228   6.296
 5789POPC   D2A73192   9.924  26.338   6.671
 5789POPC   C3A73193   9.675  26.221   7.026
 5789POPC   C4A73194   9.270  26.102   7.216
 5789POPC   C1B73195   9.744  25.743   6.195
 5789POPC   C2B73196   9.716  25.851   6.653
 5789POPC   C3B73197  10.051  25.873   6.977
 5789POPC   C4B73198  10.118  25.529   7.273
 5790POPC   NC373199   4.633   8.623   5.160
 5790POPC   PO473200   4.317   8.080   5.416
 5790POPC   GL173201   4.256   8.116   5.835
 5790POPC   GL273202   4.595   8.057   5.875
 5790POPC   C1A73203   4.236   7.926   6.258
 5790POPC   D2A73204   4.073   8.104   6.652
 5790POPC   C3A73205   4.413   8.154   6.947
 5790POPC   C4A73206   4.624   7.735   7.051
 5790POPC   C1B73207   4.502   8.349   6.252
 5790POPC   C2B73208   4.775   8.474   6.564
 5790POPC   C3B73209   4.667   8.631   6.945
 5790POPC   C4B73210   4.313   8.676   7.223
 5791POPC   NC373211  40.749  31.458   5.475
 5791POPC   PO473212  41.044  30.932   5.788
 5791POPC   GL173213  40.868  31.360   5.954
 5791POPC   GL273214  40.531  31.549   5.913
 5791POPC   C1A73215  40.759  31.544   6.350
 5791POPC   D2A73216  40.553  31.351   6.653
 5791POPC   C3A73217  40.691  31.583   6.993
 5791POPC   C4A73218  40.899  31.423   7.272
 5791POPC   C1B73219  40.307  31.809   6.221
 5791POPC   C2B73220  40.398  31.837   6.668
 5791POPC   C3B73221  40.202  31.726   7.060
 5791POPC   C4B73222  40.369  31.566   7.468
 5792POPC   NC373223   3.492   1.869   5.420
 5792POPC   PO473224   3.381   2.544   5.251
 5792POPC   GL173225   3.317   2.303   5.709
 5792POPC   GL273226   3.575   2.064   5.870
 5792POPC   C1A73227   3.292   2.214   6.222
 5792POPC   D2A73228   3.616   2.096   6.537
 5792POPC   C3A73229   3.471   2.162   6.965
 5792POPC   C4A73230   3.698   2.148   7.336
 5792POPC   C1B73231   3.599   1.709   6.187
 5792POPC   C2B73232   3.551   1.584   6.623
 5792POPC   C3B73233   3.681   1.684   7.041
 5792POPC   C4B73234   3.652   1.689   7.483
 5793POPC   NC373235  16.757  35.342   5.419
 5793POPC   PO473236  16.360  35.036   5.763
 5793POPC   GL173237  16.675  35.349   5.915
 5793POPC   GL273238  16.969  35.138   5.883
 5793POPC   C1A73239  16.881  35.478   6.309
 5793POPC   D2A73240  16.709  35.294   6.718
 5793POPC   C3A73241  16.678  35.519   7.089
 5793POPC   C4A73242  16.332  35.702   7.276
 5793POPC   C1B73243  17.041  35.011   6.350
 5793POPC   C2B73244  17.203  35.225   6.734
 5793POPC   C3B73245  17.025  35.160   7.152
 5793POPC   C4B73246  16.868  34.821   7.435
 5794POPC   NC373247  23.133   3.688   5.481
 5794POPC   PO473248  22.685   3.127   5.569
 5794POPC   GL173249  22.807   3.528   5.826
 5794POPC   GL273250  22.524   3.771   5.910
 5794POPC   C1A73251  23.138   3.623   6.161
 5794POPC   D2A73252  23.179   3.311   6.506
 5794POPC   C3A73253  22.950   3.297   6.885
 5794POPC   C4A73254  22.901   3.563   7.220
 5794POPC   C1B73255  22.658   3.561   6.297
 5794POPC   C2B73256  22.873   3.747   6.629
 5794POPC   C3B73257  22.580   3.796   6.925
 5794POPC   C4B73258  22.453   3.366   7.011
 5795POPC   NC373259  24.454  15.549   5.453
 5795POPC   PO473260  24.479  16.213   5.398
 5795POPC   GL173261  24.506  16.111   5.818
 5795POPC   GL273262  24.717  15.828   5.792
 5795POPC   C1A73263  24.269  16.204   6.219
 5795POPC   D2A73264  24.223  15.962   6.613
 5795POPC   C3A73265  24.378  16.084   7.012
 5795POPC   C4A73266  24.482  16.220   7.427
 5795POPC   C1B73267  24.534  15.764   6.189
 5795POPC   C2B73268  24.707  15.797   6.571
 5795POPC   C3B73269  24.594  15.645   6.959
 5795POPC   C4B73270  24.727  15.781   7.333
 5796POPC   NC373271   4.928  28.492   5.462
 5796POPC   PO473272   5.445  28.035   5.482
 5796POPC   GL173273   5.146  28.186   5.815
 5796POPC   GL273274   4.907  27.941   5.935
 5796POPC   C1A73275   4.978  28.399   6.214
 5796POPC   D2A73276   5.147  28.383   6.668
 5796POPC   C3A73277   4.897  28.334   7.056
 5796POPC   C4A73278   4.676  28.626   7.320
 5796POPC   C1B73279   5.168  27.934   6.297
 5796POPC   C2B73280   4.994  27.881   6.695
 5796POPC   C3B73281   5.264  27.975   6.997
 5796POPC   C4B73282   5.294  28.086   7.368
 5797POPC   NC373283  34.819  22.693   5.592
 5797POPC   PO473284  34.320  23.111   5.347
 5797POPC   GL173285  34.311  22.862   5.744
 5797POPC   GL273286  34.429  22.515   5.827
 5797POPC   C1A73287  34.391  22.950   6.182
 5797POPC   D2A73288  34.745  23.041   6.467
 5797POPC   C3A73289  34.692  23.092   6.948
 5797POPC   C4A73290  34.918  23.234   7.341
 5797POPC   C1B73291  34.563  22.483   6.254
 5797POPC   C2B73292  34.467  22.650   6.683
 5797POPC   C3B73293  34.627  22.598   7.127
 5797POPC   C4B73294  34.955  22.721   7.413
 5798POPC   NC373295  25.533  16.932   5.317
 5798POPC   PO473296  24.922  16.677   5.273
 5798POPC   GL173297  25.186  16.714   5.669
 5798POPC   GL273298  25.388  16.398   5.710
 5798POPC   C1A73299  25.095  16.783   6.149
 5798POPC   D2A73300  25.036  16.652   6.604
 5798POPC   C3A73301  25.012  16.921   7.008
 5798POPC   C4A73302  25.280  16.852   7.416
 5798POPC   C1B73303  25.381  16.349   6.167
 5798POPC   C2B73304  25.579  16.537   6.534
 5798POPC   C3B73305  25.442  16.658   6.937
 5798POPC   C4B73306  25.187  16.394   7.216
 5799POPC   NC373307   7.969  44.238   5.470
 5799POPC   PO473308   8.308  44.792   5.443
 5799POPC   GL173309   8.366  44.693   5.862
 5799POPC   GL273310   8.240  44.398   5.867
 5799POPC   C1A73311   8.442  44.626   6.289
 5799POPC   D2A73312   8.280  44.717   6.684
 5799POPC   C3A73313   8.550  44.624   7.039
 5799POPC   C4A73314   8.485  44.392   7.413
 5799POPC   C1B73315   7.882  44.428   6.130
 5799POPC   C2B73316   7.740  44.606   6.531
 5799POPC   C3B73317   7.827  44.675   6.965
 5799POPC   C4B73318   8.001  44.580   7.375
 5800POPC   NC373319   4.565  31.794   5.349
 5800POPC   PO473320   4.681  32.453   5.438
 5800POPC   GL173321   4.447  32.115   5.725
 5800POPC   GL273322   4.131  32.105   5.643
 5800POPC   C1A73323   4.457  31.970   6.187
 5800POPC   D2A73324   4.646  32.086   6.623
 5800POPC   C3A73325   4.452  32.300   7.001
 5800POPC   C4A73326   4.551  32.149   7.421
 5800POPC   C1B73327   4.114  32.338   6.056
 5800POPC   C2B73328   4.159  32.255   6.517
 5800POPC   C3B73329   4.073  32.004   6.901
 5800POPC   C4B73330   3.774  32.331   7.033
 5801POPC   NC373331  23.261   1.989   5.430
 5801POPC   PO473332  22.618   2.090   5.666
 5801POPC   GL173333  22.794   1.858   5.973
 5801POPC   GL273334  23.074   1.646   5.874
 5801POPC   C1A73335  22.848   1.898   6.405
 5801POPC   D2A73336  23.031   1.835   6.776
 5801POPC   C3A73337  22.803   1.952   7.133
 5801POPC   C4A73338  22.801   1.751   7.544
 5801POPC   C1B73339  23.262   2.005   6.105
 5801POPC   C2B73340  23.426   2.048   6.515
 5801POPC   C3B73341  23.374   2.178   6.948
 5801POPC   C4B73342  23.264   1.996   7.340
 5802POPC   NC373343  36.896  42.531   5.468
 5802POPC   PO473344  37.288  41.892   5.483
 5802POPC   GL173345  37.083  42.126   5.825
 5802POPC   GL273346  36.711  42.181   5.819
 5802POPC   C1A73347  36.985  42.172   6.292
 5802POPC   D2A73348  37.087  42.424   6.699
 5802POPC   C3A73349  37.002  42.201   7.111
 5802POPC   C4A73350  36.825  42.315   7.518
 5802POPC   C1B73351  36.700  42.566   6.099
 5802POPC   C2B73352  36.649  42.705   6.541
 5802POPC   C3B73353  36.660  42.592   7.004
 5802POPC   C4B73354  36.450  42.674   7.423
 5803POPC   NC373355  10.723  33.682   5.301
 5803POPC   PO473356  10.170  33.994   5.284
 5803POPC   GL173357  10.403  33.841   5.707
 5803POPC   GL273358  10.722  33.601   5.786
 5803POPC   C1A73359  10.348  33.600   6.133
 5803POPC   D2A73360  10.547  33.476   6.567
 5803POPC   C3A73361  10.543  33.714   6.979
 5803POPC   C4A73362  10.453  33.594   7.441
 5803POPC   C1B73363  10.772  33.897   6.108
 5803POPC   C2B73364  10.837  33.962   6.542
 5803POPC   C3B73365  10.936  34.090   6.974
 5803POPC   C4B73366  10.697  34.054   7.328
 5804POPC   NC373367  31.847  17.613   5.386
 5804POPC   PO473368  31.244  17.362   5.530
 5804POPC   GL173369  31.391  17.215   5.903
 5804POPC   GL273370  31.694  17.421   5.855
 5804POPC   C1A73371  31.432  17.290   6.342
 5804POPC   D2A73372  31.282  17.496   6.729
 5804POPC   C3A73373  31.521  17.507   7.110
 5804POPC   C4A73374  31.440  17.544   7.551
 5804POPC   C1B73375  31.681  17.733   6.206
 5804POPC   C2B73376  31.732  17.728   6.644
 5804POPC   C3B73377  31.813  17.914   7.019
 5804POPC   C4B73378  31.837  17.841   7.485
 5805POPC   NC373379  10.011  27.959   5.642
 5805POPC   PO473380   9.766  28.463   5.275
 5805POPC   GL173381   9.873  28.506   5.727
 5805POPC   GL273382   9.537  28.656   5.766
 5805POPC   C1A73383   9.767  28.366   6.191
 5805POPC   D2A73384   9.755  28.131   6.604
 5805POPC   C3A73385   9.987  28.267   6.963
 5805POPC   C4A73386   9.882  28.401   7.373
 5805POPC   C1B73387   9.488  28.804   6.186
 5805POPC   C2B73388   9.363  28.636   6.564
 5805POPC   C3B73389   9.505  28.476   6.948
 5805POPC   C4B73390   9.419  28.629   7.333
 5806POPC   NC373391  16.246  10.833   5.508
 5806POPC   PO473392  15.775  10.428   5.271
 5806POPC   GL173393  15.861  10.503   5.759
 5806POPC   GL273394  15.972  10.822   5.937
 5806POPC   C1A73395  16.076  10.352   6.161
 5806POPC   D2A73396  16.046  10.453   6.617
 5806POPC   C3A73397  15.762  10.333   6.928
 5806POPC   C4A73398  15.832  10.317   7.364
 5806POPC   C1B73399  15.955  11.034   6.329
 5806POPC   C2B73400  16.123  10.986   6.756
 5806POPC   C3B73401  16.037  10.746   7.127
 5806POPC   C4B73402  15.966  10.762   7.598
 5807POPC   NC373403   6.181  44.762   5.568
 5807POPC   PO473404   6.795  44.435   5.380
 5807POPC   GL173405   6.594  44.502   5.753
 5807POPC   GL273406   6.645  44.866   5.768
 5807POPC   C1A73407   6.711  44.578   6.188
 5807POPC   D2A73408   6.583  44.759   6.568
 5807POPC   C3A73409   6.577  44.539   6.953
 5807POPC   C4A73410   6.885  44.711   7.250
 5807POPC   C1B73411   6.421   0.039   6.137
 5807POPC   C2B73412   6.185   0.090   6.516
 5807POPC   C3B73413   6.327   0.038   6.924
 5807POPC   C4B73414   6.393  44.868   7.301
 5808POPC   NC373415   3.839  42.445   5.486
 5808POPC   PO473416   3.208  42.469   5.466
 5808POPC   GL173417   3.385  42.198   5.805
 5808POPC   GL273418   3.753  42.073   5.850
 5808POPC   C1A73419   3.318  42.327   6.235
 5808POPC   D2A73420   3.105  42.309   6.647
 5808POPC   C3A73421   3.367  42.548   6.928
 5808POPC   C4A73422   3.635  42.337   7.244
 5808POPC   C1B73423   3.659  41.961   6.306
 5808POPC   C2B73424   3.609  42.057   6.772
 5808POPC   C3B73425   3.977  41.996   7.101
 5808POPC   C4B73426   3.989  42.114   7.556
 5809POPC   NC373427   2.558  40.272   5.465
 5809POPC   PO473428   3.135  39.929   5.366
 5809POPC   GL173429   2.989  40.040   5.802
 5809POPC   GL273430   2.628  39.979   5.864
 5809POPC   C1A73431   2.927  40.009   6.287
 5809POPC   D2A73432   3.039  40.044   6.728
 5809POPC   C3A73433   2.900  40.351   6.981
 5809POPC   C4A73434   2.870  40.239   7.410
 5809POPC   C1B73435   2.407  40.154   6.220
 5809POPC   C2B73436   2.527  40.031   6.635
 5809POPC   C3B73437   2.568  39.953   7.088
 5809POPC   C4B73438   2.343  40.271   7.354
 5810POPC   NC373439   9.543  13.842   5.313
 5810POPC   PO473440  10.157  13.594   5.561
 5810POPC   GL173441   9.938  13.827   5.840
 5810POPC   GL273442   9.584  13.908   5.817
 5810POPC   C1A73443   9.817  13.724   6.258
 5810POPC   D2A73444   9.997  13.492   6.577
 5810POPC   C3A73445   9.689  13.422   6.861
 5810POPC   C4A73446   9.450  13.462   7.199
 5810POPC   C1B73447   9.423  14.052   6.222
 5810POPC   C2B73448   9.477  13.869   6.649
 5810POPC   C3B73449   9.719  13.921   7.042
 5810POPC   C4B73450   9.643  14.219   7.378
 5811POPC   NC373451  16.080  26.207   5.535
 5811POPC   PO473452  15.546  25.725   5.451
 5811POPC   GL173453  15.609  25.881   5.873
 5811POPC   GL273454  15.728  26.228   5.911
 5811POPC   C1A73455  15.803  25.877   6.303
 5811POPC   D2A73456  16.090  25.925   6.656
 5811POPC   C3A73457  15.875  25.832   7.055
 5811POPC   C4A73458  15.686  25.785   7.490
 5811POPC   C1B73459  16.116  26.287   6.202
 5811POPC   C2B73460  16.252  26.417   6.624
 5811POPC   C3B73461  16.215  26.248   7.067
 5811POPC   C4B73462  15.811  26.263   7.339
 5812POPC   NC373463   2.837  27.076   5.165
 5812POPC   PO473464   2.934  27.701   5.326
 5812POPC   GL173465   2.693  27.594   5.740
 5812POPC   GL273466   2.689  27.917   5.914
 5812POPC   C1A73467   2.836  27.501   6.206
 5812POPC   D2A73468   3.036  27.406   6.638
 5812POPC   C3A73469   2.843  27.432   7.080
 5812POPC   C4A73470   2.749  27.461   7.563
 5812POPC   C1B73471   2.535  27.910   6.352
 5812POPC   C2B73472   2.634  27.818   6.788
 5812POPC   C3B73473   2.528  27.831   7.246
 5812POPC   C4B73474   2.514  27.908   7.703
 5813POPC   NC373475  32.022  11.221   5.523
 5813POPC   PO473476  31.390  11.497   5.391
 5813POPC   GL173477  31.516  11.226   5.778
 5813POPC   GL273478  31.820  11.155   5.974
 5813POPC   C1A73479  31.387  11.216   6.232
 5813POPC   D2A73480  31.591  11.180   6.647
 5813POPC   C3A73481  31.485  11.411   7.038
 5813POPC   C4A73482  31.215  11.375   7.429
 5813POPC   C1B73483  31.739  10.830   6.281
 5813POPC   C2B73484  31.981  10.843   6.674
 5813POPC   C3B73485  31.933  11.102   7.018
 5813POPC   C4B73486  31.655  11.012   7.346
 5814POPC   NC373487  41.816  44.795   5.597
 5814POPC   PO473488  42.464  44.631   5.517
 5814POPC   GL173489  42.439  44.710   5.924
 5814POPC   GL273490  42.112  44.608   5.964
 5814POPC   C1A73491  42.553  44.930   6.299
 5814POPC   D2A73492  42.810  44.889   6.642
 5814POPC   C3A73493  42.508  44.719   6.905
 5814POPC   C4A73494  42.552  44.797   7.287
 5814POPC   C1B73495  41.948  44.418   6.328
 5814POPC   C2B73496  42.046  44.652   6.637
 5814POPC   C3B73497  42.174   0.043   6.719
 5814POPC   C4B73498  42.097   0.027   7.144
 5815POPC   NC373499  44.773  27.367   5.320
 5815POPC   PO473500  44.929  26.628   5.277
 5815POPC   GL173501  44.855  26.766   5.729
 5815POPC   GL273502  44.754  27.082   5.804
 5815POPC   C1A73503  44.949  26.819   6.202
 5815POPC   D2A73504  44.753  26.900   6.626
 5815POPC   C3A73505   0.027  26.882   6.992
 5815POPC   C4A73506   0.007  26.626   7.366
 5815POPC   C1B73507  44.456  26.913   6.166
 5815POPC   C2B73508  44.158  26.842   6.501
 5815POPC   C3B73509  44.268  26.785   6.909
 5815POPC   C4B73510  44.564  26.930   7.191
 5816POPC   NC373511   5.420   9.170   5.523
 5816POPC   PO473512   4.730   8.989   5.453
 5816POPC   GL173513   4.953   8.879   5.859
 5816POPC   GL273514   5.312   8.848   5.901
 5816POPC   C1A73515   4.992   8.926   6.314
 5816POPC   D2A73516   5.169   8.766   6.694
 5816POPC   C3A73517   4.966   9.049   6.950
 5816POPC   C4A73518   4.741   9.006   7.313
 5816POPC   C1B73519   5.512   9.004   6.273
 5816POPC   C2B73520   5.410   9.215   6.644
 5816POPC   C3B73521   5.422   9.219   7.080
 5816POPC   C4B73522   5.133   9.345   7.367
 5817POPC   NC373523  38.738  36.346   5.641
 5817POPC   PO473524  38.311  35.841   5.402
 5817POPC   GL173525  38.501  35.902   5.786
 5817POPC   GL273526  38.180  35.991   5.917
 5817POPC   C1A73527  38.598  36.006   6.217
 5817POPC   D2A73528  38.623  36.289   6.578
 5817POPC   C3A73529  38.402  36.130   6.949
 5817POPC   C4A73530  38.545  36.094   7.369
 5817POPC   C1B73531  38.190  36.317   6.255
 5817POPC   C2B73532  38.118  36.476   6.650
 5817POPC   C3B73533  37.918  36.453   7.009
 5817POPC   C4B73534  38.027  36.154   7.329
 5818POPC   NC373535  15.231  43.730   5.340
 5818POPC   PO473536  14.671  44.172   5.319
 5818POPC   GL173537  15.014  44.070   5.722
 5818POPC   GL273538  15.208  43.774   5.834
 5818POPC   C1A73539  15.166  44.097   6.227
 5818POPC   D2A73540  15.076  43.945   6.688
 5818POPC   C3A73541  15.196  43.972   7.165
 5818POPC   C4A73542  15.312  44.085   7.611
 5818POPC   C1B73543  15.305  43.583   6.224
 5818POPC   C2B73544  15.247  43.437   6.644
 5818POPC   C3B73545  15.144  43.462   7.079
 5818POPC   C4B73546  15.231  43.521   7.523
 5819POPC   NC373547  39.901   0.225   5.318
 5819POPC   PO473548  40.307   0.718   5.425
 5819POPC   GL173549  40.345   0.398   5.751
 5819POPC   GL273550  39.977   0.385   5.799
 5819POPC   C1A73551  40.247   0.304   6.204
 5819POPC   D2A73552  40.101   0.571   6.551
 5819POPC   C3A73553  40.155   0.415   6.980
 5819POPC   C4A73554  39.827   0.410   7.305
 5819POPC   C1B73555  39.738   0.607   6.127
 5819POPC   C2B73556  39.660   0.842   6.497
 5819POPC   C3B73557  39.689   0.795   6.947
 5819POPC   C4B73558  39.676   1.083   7.284
 5820POPC   NC373559   4.622   8.538   5.653
 5820POPC   PO473560   4.153   8.826   5.292
 5820POPC   GL173561   4.263   8.895   5.731
 5820POPC   GL273562   4.130   8.614   5.867
 5820POPC   C1A73563   4.305   9.073   6.157
 5820POPC   D2A73564   4.112   9.081   6.593
 5820POPC   C3A73565   4.372   9.079   6.933
 5820POPC   C4A73566   4.232   9.235   7.332
 5820POPC   C1B73567   4.018   8.645   6.297
 5820POPC   C2B73568   4.130   8.599   6.739
 5820POPC   C3B73569   3.839   8.724   7.049
 5820POPC   C4B73570   3.910   8.868   7.480
 5821POPC   NC373571   9.595  20.780   5.585
 5821POPC   PO473572  10.053  20.308   5.496
 5821POPC   GL173573  10.008  20.523   5.897
 5821POPC   GL273574   9.944  20.862   5.953
 5821POPC   C1A73575   9.864  20.470   6.325
 5821POPC   D2A73576   9.535  20.202   6.531
 5821POPC   C3A73577   9.583  20.233   6.975
 5821POPC   C4A73578   9.954  20.473   7.069
 5821POPC   C1B73579   9.567  20.875   6.284
 5821POPC   C2B73580   9.551  20.706   6.745
 5821POPC   C3B73581   9.486  20.698   7.232
 5821POPC   C4B73582   9.302  20.871   7.638
 5822POPC   NC373583  39.442   5.342   5.461
 5822POPC   PO473584  39.029   4.872   5.555
 5822POPC   GL173585  39.184   5.128   5.901
 5822POPC   GL273586  39.538   5.068   5.880
 5822POPC   C1A73587  39.334   5.058   6.335
 5822POPC   D2A73588  39.196   5.192   6.692
 5822POPC   C3A73589  39.234   4.958   7.012
 5822POPC   C4A73590  39.136   5.062   7.399
 5822POPC   C1B73591  39.603   5.454   6.167
 5822POPC   C2B73592  39.500   5.601   6.613
 5822POPC   C3B73593  39.481   5.425   7.047
 5822POPC   C4B73594  39.642   5.088   7.307
 5823POPC   NC373595  35.530  44.477   5.226
 5823POPC   PO473596  35.689   0.150   5.469
 5823POPC   GL173597  35.676  44.909   5.875
 5823POPC   GL273598  35.679  44.553   5.870
 5823POPC   C1A73599  35.436  44.918   6.263
 5823POPC   D2A73600  35.181  44.884   6.613
 5823POPC   C3A73601  35.312  44.771   7.010
 5823POPC   C4A73602  35.650  44.563   7.192
 5823POPC   C1B73603  35.655  44.425   6.325
 5823POPC   C2B73604  35.521  44.310   6.757
 5823POPC   C3B73605  35.284  44.180   7.142
 5823POPC   C4B73606  35.425  43.986   7.535
 5824POPC   NC373607  21.070   6.406   5.245
 5824POPC   PO473608  20.479   6.646   5.454
 5824POPC   GL173609  20.626   6.537   5.863
 5824POPC   GL273610  20.876   6.806   5.795
 5824POPC   C1A73611  20.676   6.587   6.341
 5824POPC   D2A73612  20.407   6.718   6.716
 5824POPC   C3A73613  20.499   6.545   7.134
 5824POPC   C4A73614  20.440   6.572   7.576
 5824POPC   C1B73615  21.015   6.981   6.205
 5824POPC   C2B73616  21.076   6.843   6.641
 5824POPC   C3B73617  20.891   6.981   7.044
 5824POPC   C4B73618  20.838   6.927   7.504
 5825POPC   NC373619  26.849  36.441   5.553
 5825POPC   PO473620  27.232  35.853   5.593
 5825POPC   GL173621  26.796  35.951   5.770
 5825POPC   GL273622  26.746  36.261   5.994
 5825POPC   C1A73623  26.659  35.832   6.209
 5825POPC   D2A73624  26.834  36.034   6.561
 5825POPC   C3A73625  26.739  35.986   6.998
 5825POPC   C4A73626  26.720  36.235   7.400
 5825POPC   C1B73627  26.498  36.353   6.339
 5825POPC   C2B73628  26.533  36.437   6.777
 5825POPC   C3B73629  26.308  36.265   7.115
 5825POPC   C4B73630  26.344  35.862   7.317
 5826POPC   NC373631  21.004   7.250   5.288
 5826POPC   PO473632  21.542   7.494   5.562
 5826POPC   GL173633  21.351   7.402   5.901
 5826POPC   GL273634  21.317   7.069   5.809
 5826POPC   C1A73635  21.471   7.537   6.322
 5826POPC   D2A73636  21.715   7.681   6.666
 5826POPC   C3A73637  21.525   7.671   7.070
 5826POPC   C4A73638  21.579   7.413   7.443
 5826POPC   C1B73639  21.622   7.068   6.168
 5826POPC   C2B73640  21.609   7.142   6.615
 5826POPC   C3B73641  21.401   7.168   6.990
 5826POPC   C4B73642  21.330   6.914   7.309
 5827POPC   NC373643   0.573   4.972   5.034
 5827POPC   PO473644   0.432   5.502   5.480
 5827POPC   GL173645   0.622   5.189   5.744
 5827POPC   GL273646   0.374   4.894   5.730
 5827POPC   C1A73647   0.696   5.157   6.195
 5827POPC   D2A73648   0.421   5.239   6.572
 5827POPC   C3A73649   0.648   5.249   6.968
 5827POPC   C4A73650   0.828   5.438   7.339
 5827POPC   C1B73651   0.279   4.885   6.188
 5827POPC   C2B73652   0.428   4.705   6.612
 5827POPC   C3B73653   0.318   4.852   7.068
 5827POPC   C4B73654   0.190   4.720   7.521
 5828POPC   NC373655  33.391  32.058   5.375
 5828POPC   PO473656  32.898  32.368   5.577
 5828POPC   GL173657  33.068  32.196   5.918
 5828POPC   GL273658  33.333  31.963   5.889
 5828POPC   C1A73659  33.086  32.212   6.326
 5828POPC   D2A73660  33.312  32.200   6.689
 5828POPC   C3A73661  33.062  32.284   7.033
 5828POPC   C4A73662  33.153  32.372   7.423
 5828POPC   C1B73663  33.373  31.767   6.290
 5828POPC   C2B73664  33.485  31.729   6.727
 5828POPC   C3B73665  33.274  31.788   7.107
 5828POPC   C4B73666  33.313  31.918   7.558
 5829POPC   NC373667  27.800   3.466   5.215
 5829POPC   PO473668  28.316   3.297   5.627
 5829POPC   GL173669  28.190   3.610   5.849
 5829POPC   GL273670  27.869   3.686   5.825
 5829POPC   C1A73671  28.396   3.724   6.189
 5829POPC   D2A73672  28.564   3.491   6.504
 5829POPC   C3A73673  28.591   3.515   6.945
 5829POPC   C4A73674  28.494   3.264   7.295
 5829POPC   C1B73675  27.990   4.029   6.147
 5829POPC   C2B73676  28.126   3.948   6.561
 5829POPC   C3B73677  28.109   3.608   6.870
 5829POPC   C4B73678  28.252   3.730   7.280
 5830POPC   NC373679  32.514  10.791   5.485
 5830POPC   PO473680  31.859  10.787   5.588
 5830POPC   GL173681  32.161  10.781   5.835
 5830POPC   GL273682  32.247  10.423   5.764
 5830POPC   C1A73683  32.230  10.756   6.218
 5830POPC   D2A73684  32.147  10.427   6.438
 5830POPC   C3A73685  32.260  10.434   6.852
 5830POPC   C4A73686  32.229  10.720   7.208
 5830POPC   C1B73687  32.548  10.356   6.098
 5830POPC   C2B73688  32.700  10.374   6.504
 5830POPC   C3B73689  32.670  10.138   6.849
 5830POPC   C4B73690  32.511  10.158   7.241
 5831POPC   NC373691  41.903   7.465   5.351
 5831POPC   PO473692  42.574   7.334   5.508
 5831POPC   GL173693  42.206   7.477   5.779
 5831POPC   GL273694  42.040   7.133   5.808
 5831POPC   C1A73695  42.100   7.661   6.197
 5831POPC   D2A73696  42.248   7.525   6.608
 5831POPC   C3A73697  42.027   7.527   7.009
 5831POPC   C4A73698  42.152   7.676   7.442
 5831POPC   C1B73699  42.294   7.166   6.188
 5831POPC   C2B73700  42.569   7.136   6.532
 5831POPC   C3B73701  42.376   7.109   6.910
 5831POPC   C4B73702  42.392   7.247   7.291
 5832POPC   NC373703  23.090  26.950   5.291
 5832POPC   PO473704  22.635  26.402   5.362
 5832POPC   GL173705  22.994  26.594   5.652
 5832POPC   GL273706  22.987  26.953   5.798
 5832POPC   C1A73707  23.083  26.529   6.106
 5832POPC   D2A73708  23.049  26.690   6.541
 5832POPC   C3A73709  22.966  26.594   6.976
 5832POPC   C4A73710  22.876  26.796   7.369
 5832POPC   C1B73711  23.145  27.067   6.203
 5832POPC   C2B73712  23.256  27.162   6.637
 5832POPC   C3B73713  23.088  27.124   7.050
 5832POPC   C4B73714  23.124  27.213   7.505
 5833POPC   NC373715  25.406  26.009   5.513
 5833POPC   PO473716  24.800  25.525   5.556
 5833POPC   GL173717  25.019  25.802   5.867
 5833POPC   GL273718  25.099  26.148   5.903
 5833POPC   C1A73719  25.249  25.843   6.275
 5833POPC   D2A73720  25.469  26.036   6.631
 5833POPC   C3A73721  25.353  25.817   6.996
 5833POPC   C4A73722  24.968  25.896   7.213
 5833POPC   C1B73723  25.434  26.345   6.158
 5833POPC   C2B73724  25.483  26.553   6.559
 5833POPC   C3B73725  25.219  26.431   6.892
 5833POPC   C4B73726  25.327  26.269   7.276
 5834POPC   NC373727   4.263  17.737   5.342
 5834POPC   PO473728   4.669  17.234   5.479
 5834POPC   GL173729   4.261  17.337   5.736
 5834POPC   GL273730   4.139  17.683   5.825
 5834POPC   C1A73731   4.070  17.349   6.182
 5834POPC   D2A73732   4.155  17.601   6.550
 5834POPC   C3A73733   4.060  17.344   6.884
 5834POPC   C4A73734   4.208  17.354   7.294
 5834POPC   C1B73735   4.488  17.649   6.125
 5834POPC   C2B73736   4.670  17.697   6.538
 5834POPC   C3B73737   4.562  17.496   6.932
 5834POPC   C4B73738   4.720  17.434   7.334
 5835POPC   NC373739  41.616   8.510   5.081
 5835POPC   PO473740  41.789   7.935   5.397
 5835POPC   GL173741  41.668   7.966   5.814
 5835POPC   GL273742  41.490   8.250   5.698
 5835POPC   C1A73743  41.793   8.090   6.241
 5835POPC   D2A73744  41.487   8.186   6.550
 5835POPC   C3A73745  41.593   8.191   6.963
 5835POPC   C4A73746  41.911   8.018   7.159
 5835POPC   C1B73747  41.667   8.518   5.994
 5835POPC   C2B73748  41.738   8.612   6.412
 5835POPC   C3B73749  41.771   8.630   6.810
 5835POPC   C4B73750  41.447   8.649   7.143
 5836POPC   NC373751  17.027   4.595   5.460
 5836POPC   PO473752  16.660   4.141   5.160
 5836POPC   GL173753  16.743   4.208   5.620
 5836POPC   GL273754  16.471   4.176   5.810
 5836POPC   C1A73755  16.933   4.157   6.047
 5836POPC   D2A73756  16.923   4.121   6.530
 5836POPC   C3A73757  16.735   4.401   6.874
 5836POPC   C4A73758  16.926   4.639   7.219
 5836POPC   C1B73759  16.483   4.307   6.265
 5836POPC   C2B73760  16.390   4.096   6.632
 5836POPC   C3B73761  16.324   4.153   7.049
 5836POPC   C4B73762  16.419   4.502   7.303
 5837POPC   NC373763  22.670  22.099   5.542
 5837POPC   PO473764  23.052  22.561   5.528
 5837POPC   GL173765  22.884  22.380   5.912
 5837POPC   GL273766  22.975  22.015   5.925
 5837POPC   C1A73767  22.934  22.304   6.357
 5837POPC   D2A73768  22.781  22.525   6.705
 5837POPC   C3A73769  22.920  22.372   7.058
 5837POPC   C4A73770  22.615  22.181   7.260
 5837POPC   C1B73771  22.919  21.791   6.311
 5837POPC   C2B73772  22.967  21.929   6.744
 5837POPC   C3B73773  22.997  21.868   7.196
 5837POPC   C4B73774  23.082  21.748   7.627
 5838POPC   NC373775   7.884  31.526   5.440
 5838POPC   PO473776   8.364  31.082   5.394
 5838POPC   GL173777   8.265  31.380   5.750
 5838POPC   GL273778   7.918  31.254   5.867
 5838POPC   C1A73779   8.247  31.501   6.179
 5838POPC   D2A73780   8.263  31.264   6.553
 5838POPC   C3A73781   8.267  31.558   6.943
 5838POPC   C4A73782   8.544  31.795   7.228
 5838POPC   C1B73783   7.747  31.384   6.257
 5838POPC   C2B73784   7.817  31.532   6.659
 5838POPC   C3B73785   7.928  31.160   6.911
 5838POPC   C4B73786   8.230  31.059   7.179
 5839POPC   NC373787  41.941  43.482   5.461
 5839POPC   PO473788  41.379  43.050   5.399
 5839POPC   GL173789  41.348  43.189   5.824
 5839POPC   GL273790  41.685  43.338   5.884
 5839POPC   C1A73791  41.103  43.109   6.206
 5839POPC   D2A73792  40.971  42.993   6.617
 5839POPC   C3A73793  41.271  43.008   6.940
 5839POPC   C4A73794  41.507  43.208   7.272
 5839POPC   C1B73795  41.791  43.393   6.338
 5839POPC   C2B73796  41.759  43.123   6.745
 5839POPC   C3B73797  41.975  43.058   7.153
 5839POPC   C4B73798  41.917  43.238   7.575
 5840POPC   NC373799  31.863  36.555   5.685
 5840POPC   PO473800  31.363  36.878   5.306
 5840POPC   GL173801  31.437  36.874   5.770
 5840POPC   GL273802  31.087  36.766   5.805
 5840POPC   C1A73803  31.632  36.886   6.221
 5840POPC   D2A73804  31.707  36.592   6.589
 5840POPC   C3A73805  31.668  36.865   6.953
 5840POPC   C4A73806  31.904  36.923   7.310
 5840POPC   C1B73807  31.129  36.943   6.196
 5840POPC   C2B73808  31.251  36.831   6.623
 5840POPC   C3B73809  31.154  36.929   7.048
 5840POPC   C4B73810  31.237  37.000   7.481
 5841POPC   NC373811  39.577  17.002   5.205
 5841POPC   PO473812  39.291  16.429   5.584
 5841POPC   GL173813  39.136  16.834   5.889
 5841POPC   GL273814  39.440  17.070   6.033
 5841POPC   C1A73815  39.053  16.932   6.336
 5841POPC   D2A73816  38.871  16.693   6.672
 5841POPC   C3A73817  39.153  16.519   6.974
 5841POPC   C4A73818  39.152  16.888   7.241
 5841POPC   C1B73819  39.566  16.816   6.360
 5841POPC   C2B73820  39.465  16.867   6.787
 5841POPC   C3B73821  39.657  16.941   7.191
 5841POPC   C4B73822  39.515  16.825   7.605
 5842POPC   NC373823  18.222   0.774   5.387
 5842POPC   PO473824  18.280   0.191   5.272
 5842POPC   GL173825  18.270   0.358   5.719
 5842POPC   GL273826  17.992   0.592   5.799
 5842POPC   C1A73827  18.369   0.336   6.156
 5842POPC   D2A73828  18.341   0.006   6.474
 5842POPC   C3A73829  18.512   0.100   6.845
 5842POPC   C4A73830  18.424   0.059   7.251
 5842POPC   C1B73831  17.897   0.512   6.212
 5842POPC   C2B73832  18.093   0.456   6.585
 5842POPC   C3B73833  17.896   0.484   6.941
 5842POPC   C4B73834  18.115   0.453   7.315
 5843POPC   NC373835  18.726   8.362   5.464
 5843POPC   PO473836  19.368   8.060   5.585
 5843POPC   GL173837  19.156   8.370   5.877
 5843POPC   GL273838  18.843   8.615   5.913
 5843POPC   C1A73839  19.179   8.372   6.322
 5843POPC   D2A73840  19.098   8.528   6.749
 5843POPC   C3A73841  19.192   8.162   7.005
 5843POPC   C4A73842  19.131   8.107   7.461
 5843POPC   C1B73843  18.677   8.511   6.335
 5843POPC   C2B73844  18.788   8.135   6.586
 5843POPC   C3B73845  18.690   8.213   6.979
 5843POPC   C4B73846  18.839   8.522   7.274
 5844POPC   NC373847  34.953  32.778   5.284
 5844POPC   PO473848  35.020  33.347   5.639
 5844POPC   GL173849  35.175  33.080   5.925
 5844POPC   GL273850  35.116  32.791   5.780
 5844POPC   C1A73851  35.370  33.078   6.323
 5844POPC   D2A73852  35.599  33.151   6.688
 5844POPC   C3A73853  35.344  33.112   7.049
 5844POPC   C4A73854  35.216  33.182   7.494
 5844POPC   C1B73855  35.049  32.698   6.244
 5844POPC   C2B73856  35.141  32.740   6.705
 5844POPC   C3B73857  35.034  32.728   7.186
 5844POPC   C4B73858  35.079  32.734   7.685
 5845POPC   NC373859  40.163   4.091   5.164
 5845POPC   PO473860  40.004   4.651   5.508
 5845POPC   GL173861  40.185   4.320   5.783
 5845POPC   GL273862  39.911   4.350   6.008
 5845POPC   C1A73863  40.338   4.206   6.230
 5845POPC   D2A73864  39.991   4.349   6.555
 5845POPC   C3A73865  39.954   4.222   7.007
 5845POPC   C4A73866  40.260   4.228   7.344
 5845POPC   C1B73867  39.617   4.621   6.220
 5845POPC   C2B73868  39.455   4.652   6.645
 5845POPC   C3B73869  39.579   4.600   7.076
 5845POPC   C4B73870  39.917   4.643   7.327
 5846POPC   NC373871  40.292  23.105   5.379
 5846POPC   PO473872  39.941  22.623   5.514
 5846POPC   GL173873  40.214  22.795   5.827
 5846POPC   GL273874  40.180  23.178   5.894
 5846POPC   C1A73875  40.133  22.834   6.289
 5846POPC   D2A73876  40.229  23.155   6.597
 5846POPC   C3A73877  40.257  22.946   6.948
 5846POPC   C4A73878  39.993  22.669   7.190
 5846POPC   C1B73879  39.878  23.287   6.269
 5846POPC   C2B73880  39.745  23.208   6.737
 5846POPC   C3B73881  39.883  23.165   7.173
 5846POPC   C4B73882  40.115  23.320   7.517
 5847POPC   NC373883   5.654  33.174   5.483
 5847POPC   PO473884   6.169  32.771   5.458
 5847POPC   GL173885   5.909  32.748   5.847
 5847POPC   GL273886   5.549  32.906   5.911
 5847POPC   C1A73887   5.953  32.833   6.291
 5847POPC   D2A73888   6.064  33.148   6.594
 5847POPC   C3A73889   6.042  32.984   7.018
 5847POPC   C4A73890   5.806  32.702   7.279
 5847POPC   C1B73891   5.459  32.704   6.319
 5847POPC   C2B73892   5.626  32.746   6.756
 5847POPC   C3B73893   5.519  33.051   7.085
 5847POPC   C4B73894   5.465  32.985   7.564
 5848POPC   NC373895  10.674  26.238   5.193
 5848POPC   PO473896  10.166  25.882   5.346
 5848POPC   GL173897  10.466  25.883   5.684
 5848POPC   GL273898  10.609  26.218   5.708
 5848POPC   C1A73899  10.551  25.953   6.137
 5848POPC   D2A73900  10.286  25.953   6.523
 5848POPC   C3A73901  10.530  26.048   6.921
 5848POPC   C4A73902  10.465  25.898   7.321
 5848POPC   C1B73903  10.795  26.402   6.106
 5848POPC   C2B73904  11.050  26.292   6.519
 5848POPC   C3B73905  10.987  26.320   6.991
 5848POPC   C4B73906  10.696  26.330   7.393
 5849POPC   NC373907  17.862   0.167   5.493
 5849POPC   PO473908  17.404   0.629   5.465
 5849POPC   GL173909  17.278   0.288   5.753
 5849POPC   GL273910  17.577   0.271   5.905
 5849POPC   C1A73911  17.201   0.200   6.229
 5849POPC   D2A73912  17.176   0.406   6.648
 5849POPC   C3A73913  17.447   0.253   6.949
 5849POPC   C4A73914  17.319   0.184   7.342
 5849POPC   C1B73915  17.421   0.660   6.131
 5849POPC   C2B73916  17.570   0.726   6.552
 5849POPC   C3B73917  17.475   0.803   6.961
 5849POPC   C4B73918  17.690   0.710   7.349
 5850POPC   NC373919   3.398  28.674   5.427
 5850POPC   PO473920   3.875  28.147   5.418
 5850POPC   GL173921   3.641  28.189   5.794
 5850POPC   GL273922   3.311  28.173   5.822
 5850POPC   C1A73923   3.610  28.034   6.229
 5850POPC   D2A73924   3.610  28.240   6.634
 5850POPC   C3A73925   3.619  27.998   7.020
 5850POPC   C4A73926   3.929  28.113   7.316
 5850POPC   C1B73927   3.285  28.438   6.190
 5850POPC   C2B73928   3.313  28.638   6.591
 5850POPC   C3B73929   3.280  28.439   7.004
 5850POPC   C4B73930   3.381  28.712   7.323
 5851POPC   NC373931  38.201   0.688   5.377
 5851POPC   PO473932  38.861   0.635   5.600
 5851POPC   GL173933  38.586   0.363   5.763
 5851POPC   GL273934  38.248   0.261   5.730
 5851POPC   C1A73935  38.570   0.219   6.164
 5851POPC   D2A73936  38.266   0.254   6.467
 5851POPC   C3A73937  38.411   0.084   6.856
 5851POPC   C4A73938  38.239   0.221   7.250
 5851POPC   C1B73939  38.257   0.612   6.046
 5851POPC   C2B73940  38.222   0.774   6.466
 5851POPC   C3B73941  38.237   0.601   6.871
 5851POPC   C4B73942  38.069   0.693   7.261
 5852POPC   NC373943  44.518  43.096   5.436
 5852POPC   PO473944   0.222  43.031   5.392
 5852POPC   GL173945  44.932  43.285   5.699
 5852POPC   GL273946  44.817  42.982   5.846
 5852POPC   C1A73947  44.812  43.385   6.156
 5852POPC   D2A73948  44.533  43.372   6.503
 5852POPC   C3A73949  44.646  43.425   6.932
 5852POPC   C4A73950  44.448  43.449   7.320
 5852POPC   C1B73951  44.944  42.897   6.284
 5852POPC   C2B73952  44.785  42.962   6.732
 5852POPC   C3B73953  44.765  42.990   7.207
 5852POPC   C4B73954  44.867  42.759   7.621
 5853POPC   NC373955   6.168  32.316   5.485
 5853POPC   PO473956   5.784  31.840   5.650
 5853POPC   GL173957   5.870  32.217   5.898
 5853POPC   GL273958   5.523  32.380   5.913
 5853POPC   C1A73959   6.084  32.327   6.303
 5853POPC   D2A73960   6.176  32.555   6.710
 5853POPC   C3A73961   6.059  32.310   7.104
 5853POPC   C4A73962   5.840  32.033   7.407
 5853POPC   C1B73963   5.589  32.160   6.318
 5853POPC   C2B73964   5.746  32.204   6.718
 5853POPC   C3B73965   5.531  32.276   7.094
 5853POPC   C4B73966   5.300  32.611   7.188
 5854POPC   NC373967  41.559  31.977   5.347
 5854POPC   PO473968  41.167  32.494   5.426
 5854POPC   GL173969  41.437  32.310   5.796
 5854POPC   GL273970  41.643  31.981   5.845
 5854POPC   C1A73971  41.333  32.373   6.250
 5854POPC   D2A73972  41.462  32.288   6.679
 5854POPC   C3A73973  41.195  32.412   7.007
 5854POPC   C4A73974  41.236  32.407   7.434
 5854POPC   C1B73975  41.616  31.932   6.290
 5854POPC   C2B73976  41.629  31.802   6.704
 5854POPC   C3B73977  41.602  31.981   7.160
 5854POPC   C4B73978  41.756  31.814   7.551
 5855POPC   NC373979  41.700  13.880   5.524
 5855POPC   PO473980  41.311  13.375   5.548
 5855POPC   GL173981  41.440  13.557   5.901
 5855POPC   GL273982  41.776  13.451   5.882
 5855POPC   C1A73983  41.502  13.384   6.331
 5855POPC   D2A73984  41.440  13.206   6.751
 5855POPC   C3A73985  41.619  13.475   7.045
 5855POPC   C4A73986  41.383  13.749   7.301
 5855POPC   C1B73987  41.779  13.837   6.177
 5855POPC   C2B73988  41.987  13.900   6.590
 5855POPC   C3B73989  41.840  13.935   6.976
 5855POPC   C4B73990  41.913  13.801   7.354
 5856POPC   NC373991  14.440  43.826   5.118
 5856POPC   PO473992  13.865  43.721   5.468
 5856POPC   GL173993  14.217  43.652   5.722
 5856POPC   GL273994  14.496  43.893   5.708
 5856POPC   C1A73995  14.272  43.725   6.164
 5856POPC   D2A73996  14.114  43.653   6.557
 5856POPC   C3A73997  14.152  43.878   6.929
 5856POPC   C4A73998  14.055  43.596   7.233
 5856POPC   C1B73999  14.675  44.005   6.120
 5856POPC   C2B74000  14.550  43.983   6.566
 5856POPC   C3B74001  14.654  43.988   7.004
 5856POPC   C4B74002  14.833  44.336   7.178
 5857POPC   NC374003  34.237  27.063   5.230
 5857POPC   PO474004  33.618  26.752   5.248
 5857POPC   GL174005  33.708  26.702   5.705
 5857POPC   GL274006  34.068  26.698   5.827
 5857POPC   C1A74007  33.583  26.564   6.142
 5857POPC   D2A74008  33.616  26.735   6.583
 5857POPC   C3A74009  33.801  26.490   6.930
 5857POPC   C4A74010  33.711  26.594   7.332
 5857POPC   C1B74011  33.992  26.906   6.224
 5857POPC   C2B74012  34.058  27.125   6.603
 5857POPC   C3B74013  33.916  26.998   7.014
 5857POPC   C4B74014  33.982  27.019   7.461
 5858POPC   NC374015  36.837  41.815   5.468
 5858POPC   PO474016  36.968  41.233   5.171
 5858POPC   GL174017  36.905  41.300   5.642
 5858POPC   GL274018  37.142  41.526   5.800
 5858POPC   C1A74019  36.751  41.427   6.101
 5858POPC   D2A74020  36.977  41.540   6.510
 5858POPC   C3A74021  36.757  41.514   6.922
 5858POPC   C4A74022  36.430  41.243   7.017
 5858POPC   C1B74023  37.227  41.218   6.135
 5858POPC   C2B74024  37.439  41.304   6.526
 5858POPC   C3B74025  37.246  41.331   6.938
 5858POPC   C4B74026  37.057  41.475   7.348
 5859POPC   NC374027  43.372  13.154   5.446
 5859POPC   PO474028  43.019  13.830   5.338
 5859POPC   GL174029  43.075  13.752   5.814
 5859POPC   GL274030  43.368  13.562   5.860
 5859POPC   C1A74031  43.135  13.769   6.279
 5859POPC   D2A74032  43.195  13.580   6.675
 5859POPC   C3A74033  43.117  13.603   7.108
 5859POPC   C4A74034  43.231  13.783   7.513
 5859POPC   C1B74035  43.580  13.448   6.251
 5859POPC   C2B74036  43.507  13.194   6.638
 5859POPC   C3B74037  43.559  13.380   7.047
 5859POPC   C4B74038  43.626  13.483   7.462
 5860POPC   NC374039   3.121  12.726   5.263
 5860POPC   PO474040   2.561  12.983   5.383
 5860POPC   GL174041   2.835  12.805   5.685
 5860POPC   GL274042   2.784  12.462   5.733
 5860POPC   C1A74043   2.990  12.943   6.103
 5860POPC   D2A74044   2.852  12.800   6.533
 5860POPC   C3A74045   3.040  12.905   6.936
 5860POPC   C4A74046   2.882  12.979   7.327
 5860POPC   C1B74047   2.925  12.418   6.160
 5860POPC   C2B74048   2.973  12.307   6.616
 5860POPC   C3B74049   2.770  12.461   6.998
 5860POPC   C4B74050   2.704  12.486   7.456
 5861POPC   NC374051  25.112  41.914   5.437
 5861POPC   PO474052  25.612  41.424   5.473
 5861POPC   GL174053  25.346  41.527   5.810
 5861POPC   GL274054  25.605  41.390   5.979
 5861POPC   C1A74055  25.029  41.493   6.163
 5861POPC   D2A74056  25.004  41.829   6.485
 5861POPC   C3A74057  24.892  41.683   6.916
 5861POPC   C4A74058  24.989  41.387   7.284
 5861POPC   C1B74059  25.482  41.386   6.365
 5861POPC   C2B74060  25.253  41.423   6.695
 5861POPC   C3B74061  25.381  41.638   7.083
 5861POPC   C4B74062  25.536  41.642   7.512
 5862POPC   NC374063  24.090   6.637   5.407
 5862POPC   PO474064  24.676   6.419   5.414
 5862POPC   GL174065  24.593   6.609   5.796
 5862POPC   GL274066  24.577   6.971   5.764
 5862POPC   C1A74067  24.402   6.727   6.160
 5862POPC   D2A74068  24.178   6.865   6.474
 5862POPC   C3A74069  24.402   6.741   6.840
 5862POPC   C4A74070  24.530   6.484   7.209
 5862POPC   C1B74071  24.855   6.962   6.135
 5862POPC   C2B74072  24.811   6.836   6.546
 5862POPC   C3B74073  24.898   6.805   6.994
 5862POPC   C4B74074  24.600   6.980   7.261
 5863POPC   NC374075  13.895  27.719   5.339
 5863POPC   PO474076  13.263  27.752   5.312
 5863POPC   GL174077  13.375  27.696   5.766
 5863POPC   GL274078  13.666  27.837   5.826
 5863POPC   C1A74079  13.446  27.607   6.231
 5863POPC   D2A74080  13.285  27.515   6.660
 5863POPC   C3A74081  13.456  27.365   7.085
 5863POPC   C4A74082  13.516  27.724   7.357
 5863POPC   C1B74083  13.942  27.723   6.167
 5863POPC   C2B74084  13.870  27.429   6.528
 5863POPC   C3B74085  13.891  27.579   6.965
 5863POPC   C4B74086  13.939  27.444   7.386
 5864POPC   NC374087  24.786  20.245   5.607
 5864POPC   PO474088  24.347  19.803   5.231
 5864POPC   GL174089  24.422  19.874   5.668
 5864POPC   GL274090  24.630  19.611   5.819
 5864POPC   C1A74091  24.387  19.992   6.117
 5864POPC   D2A74092  24.558  19.835   6.521
 5864POPC   C3A74093  24.469  20.044   6.924
 5864POPC   C4A74094  24.345  19.834   7.309
 5864POPC   C1B74095  24.821  19.415   6.179
 5864POPC   C2B74096  25.002  19.542   6.582
 5864POPC   C3B74097  24.721  19.553   6.933
 5864POPC   C4B74098  24.698  19.415   7.335
 5865POPC   NC374099  20.021  40.955   5.350
 5865POPC   PO474100  19.672  40.387   5.543
 5865POPC   GL174101  19.620  40.793   5.795
 5865POPC   GL274102  19.967  40.853   5.870
 5865POPC   C1A74103  19.597  40.924   6.266
 5865POPC   D2A74104  19.965  40.918   6.539
 5865POPC   C3A74105  19.862  40.795   6.971
 5865POPC   C4A74106  19.864  41.034   7.365
 5865POPC   C1B74107  19.899  40.520   6.166
 5865POPC   C2B74108  20.063  40.396   6.552
 5865POPC   C3B74109  20.209  40.376   6.968
 5865POPC   C4B74110  19.963  40.365   7.313
 5866POPC   NC374111  22.815  21.112   5.475
 5866POPC   PO474112  23.189  21.770   5.513
 5866POPC   GL174113  23.056  21.504   5.814
 5866POPC   GL274114  22.700  21.574   5.766
 5866POPC   C1A74115  22.909  21.291   6.162
 5866POPC   D2A74116  22.707  21.361   6.556
 5866POPC   C3A74117  22.935  21.311   6.966
 5866POPC   C4A74118  23.252  21.331   7.328
 5866POPC   C1B74119  22.455  21.588   6.149
 5866POPC   C2B74120  22.282  21.636   6.580
 5866POPC   C3B74121  22.558  21.655   6.957
 5866POPC   C4B74122  22.687  21.513   7.385
 5867POPC   NC374123  18.536  21.475   5.344
 5867POPC   PO474124  18.349  20.909   5.461
 5867POPC   GL174125  18.077  21.012   5.815
 5867POPC   GL274126  17.996  21.396   5.851
 5867POPC   C1A74127  18.230  21.151   6.220
 5867POPC   D2A74128  18.424  21.545   6.382
 5867POPC   C3A74129  18.471  21.598   6.806
 5867POPC   C4A74130  18.299  21.376   7.112
 5867POPC   C1B74131  17.924  21.593   6.277
 5867POPC   C2B74132  18.007  21.797   6.692
 5867POPC   C3B74133  18.099  21.830   7.144
 5867POPC   C4B74134  17.818  21.817   7.506
 5868POPC   NC374135  10.505  42.899   5.465
 5868POPC   PO474136  10.338  43.531   5.696
 5868POPC   GL174137  10.314  43.141   5.870
 5868POPC   GL274138  10.674  43.129   5.899
 5868POPC   C1A74139  10.317  42.983   6.285
 5868POPC   D2A74140  10.268  43.283   6.625
 5868POPC   C3A74141  10.459  43.225   7.045
 5868POPC   C4A74142  10.431  43.396   7.460
 5868POPC   C1B74143  10.843  42.935   6.234
 5868POPC   C2B74144  10.703  42.960   6.637
 5868POPC   C3B74145  10.892  42.952   6.999
 5868POPC   C4B74146  10.925  43.273   7.324
 5869POPC   NC374147   5.678  19.957   5.629
 5869POPC   PO474148   6.133  19.568   5.270
 5869POPC   GL174149   6.068  19.493   5.754
 5869POPC   GL274150   5.700  19.430   5.766
 5869POPC   C1A74151   5.981  19.718   6.192
 5869POPC   D2A74152   5.873  20.100   6.486
 5869POPC   C3A74153   5.783  20.060   6.948
 5869POPC   C4A74154   5.793  20.120   7.407
 5869POPC   C1B74155   5.511  19.539   6.193
 5869POPC   C2B74156   5.668  19.641   6.622
 5869POPC   C3B74157   5.539  19.613   7.064
 5869POPC   C4B74158   5.421  19.355   7.397
 5870POPC   NC374159  17.337  19.927   5.374
 5870POPC   PO474160  17.795  19.545   5.639
 5870POPC   GL174161  17.434  19.729   5.837
 5870POPC   GL274162  17.439  20.106   5.869
 5870POPC   C1A74163  17.280  19.797   6.240
 5870POPC   D2A74164  17.266  20.015   6.604
 5870POPC   C3A74165  17.529  19.842   6.891
 5870POPC   C4A74166  17.468  20.096   7.229
 5870POPC   C1B74167  17.714  20.161   6.255
 5870POPC   C2B74168  17.706  20.297   6.710
 5870POPC   C3B74169  17.949  20.096   7.081
 5870POPC   C4B74170  17.859  19.978   7.544
 5871POPC   NC374171  25.586  35.391   5.389
 5871POPC   PO474172  25.076  35.483   5.690
 5871POPC   GL174173  25.431  35.316   5.877
 5871POPC   GL274174  25.718  35.551   5.902
 5871POPC   C1A74175  25.388  35.352   6.303
 5871POPC   D2A74176  25.150  35.159   6.601
 5871POPC   C3A74177  25.278  35.235   7.003
 5871POPC   C4A74178  25.107  34.990   7.335
 5871POPC   C1B74179  25.789  35.654   6.357
 5871POPC   C2B74180  25.623  35.559   6.798
 5871POPC   C3B74181  25.445  35.679   7.250
 5871POPC   C4B74182  25.505  35.810   7.719
 5872POPC   NC374183  34.379   3.858   5.415
 5872POPC   PO474184  34.996   3.493   5.329
 5872POPC   GL174185  34.662   3.583   5.727
 5872POPC   GL274186  34.591   3.284   5.913
 5872POPC   C1A74187  34.527   3.760   6.133
 5872POPC   D2A74188  34.659   3.595   6.508
 5872POPC   C3A74189  34.450   3.553   6.903
 5872POPC   C4A74190  34.731   3.423   7.234
 5872POPC   C1B74191  34.282   3.311   6.234
 5872POPC   C2B74192  34.100   3.237   6.637
 5872POPC   C3B74193  33.968   3.202   7.050
 5872POPC   C4B74194  34.248   3.333   7.359
 5873POPC   NC374195   3.649  13.738   5.516
 5873POPC   PO474196   3.257  13.154   5.395
 5873POPC   GL174197   3.370  13.388   5.782
 5873POPC   GL274198   3.717  13.515   5.965
 5873POPC   C1A74199   3.240  13.472   6.197
 5873POPC   D2A74200   3.106  13.238   6.532
 5873POPC   C3A74201   3.289  13.382   6.907
 5873POPC   C4A74202   3.198  13.623   7.250
 5873POPC   C1B74203   3.544  13.890   6.164
 5873POPC   C2B74204   3.410  13.923   6.591
 5873POPC   C3B74205   3.617  13.863   6.972
 5873POPC   C4B74206   3.714  13.543   7.216
 5874POPC   NC374207  28.481  10.911   5.440
 5874POPC   PO474208  29.143  10.628   5.345
 5874POPC   GL174209  28.985  10.584   5.734
 5874POPC   GL274210  29.293  10.556   5.935
 5874POPC   C1A74211  28.805  10.722   6.099
 5874POPC   D2A74212  29.090  10.715   6.470
 5874POPC   C3A74213  28.991  10.596   6.925
 5874POPC   C4A74214  29.031  10.494   7.368
 5874POPC   C1B74215  29.469  10.315   6.322
 5874POPC   C2B74216  29.377  10.282   6.767
 5874POPC   C3B74217  29.507  10.487   7.156
 5874POPC   C4B74218  29.451  10.580   7.620
 5875POPC   NC374219  27.080  17.097   5.427
 5875POPC   PO474220  26.842  16.442   5.285
 5875POPC   GL174221  26.806  16.516   5.746
 5875POPC   GL274222  26.747  16.887   5.790
 5875POPC   C1A74223  26.574  16.515   6.158
 5875POPC   D2A74224  26.648  16.716   6.564
 5875POPC   C3A74225  26.603  16.515   6.962
 5875POPC   C4A74226  26.650  16.714   7.364
 5875POPC   C1B74227  26.966  16.900   6.188
 5875POPC   C2B74228  27.081  17.077   6.592
 5875POPC   C3B74229  26.885  16.979   6.968
 5875POPC   C4B74230  27.117  16.961   7.344
 5876POPC   NC374231   7.207  27.409   5.033
 5876POPC   PO474232   7.538  27.731   5.414
 5876POPC   GL174233   7.578  27.664   5.812
 5876POPC   GL274234   7.275  27.453   5.761
 5876POPC   C1A74235   7.688  27.723   6.223
 5876POPC   D2A74236   7.524  27.366   6.448
 5876POPC   C3A74237   7.437  27.515   6.819
 5876POPC   C4A74238   7.630  27.764   7.141
 5876POPC   C1B74239   7.204  27.177   6.108
 5876POPC   C2B74240   7.060  27.136   6.527
 5876POPC   C3B74241   7.044  27.185   6.954
 5876POPC   C4B74242   7.011  27.602   7.107
 5877POPC   NC374243   5.273  39.791   5.547
 5877POPC   PO474244   4.649  39.814   5.254
 5877POPC   GL174245   4.889  40.110   5.635
 5877POPC   GL274246   5.289  40.226   5.799
 5877POPC   C1A74247   4.930  40.080   6.115
 5877POPC   D2A74248   4.963  39.851   6.537
 5877POPC   C3A74249   4.845  39.989   6.967
 5877POPC   C4A74250   4.954  39.863   7.407
 5877POPC   C1B74251   5.403  39.959   6.196
 5877POPC   C2B74252   5.482  39.812   6.632
 5877POPC   C3B74253   5.337  39.858   7.046
 5877POPC   C4B74254   5.414  39.620   7.404
 5878POPC   NC374255   6.350   6.103   5.594
 5878POPC   PO474256   6.340   5.493   5.649
 5878POPC   GL174257   6.634   5.735   5.885
 5878POPC   GL274258   6.802   6.072   5.855
 5878POPC   C1A74259   6.492   5.945   6.242
 5878POPC   D2A74260   6.637   5.964   6.629
 5878POPC   C3A74261   6.385   6.000   6.942
 5878POPC   C4A74262   6.469   5.662   7.228
 5878POPC   C1B74263   7.003   5.879   6.239
 5878POPC   C2B74264   7.102   5.807   6.682
 5878POPC   C3B74265   6.925   5.921   7.091
 5878POPC   C4B74266   6.964   5.907   7.544
 5879POPC   NC374267  33.458  18.547   5.612
 5879POPC   PO474268  33.541  17.847   5.553
 5879POPC   GL174269  33.410  18.041   5.934
 5879POPC   GL274270  33.656  18.242   5.966
 5879POPC   C1A74271  33.544  17.984   6.395
 5879POPC   D2A74272  33.871  18.154   6.688
 5879POPC   C3A74273  33.847  18.219   7.151
 5879POPC   C4A74274  33.639  18.132   7.591
 5879POPC   C1B74275  33.821  18.568   6.204
 5879POPC   C2B74276  33.886  18.677   6.625
 5879POPC   C3B74277  33.732  18.731   7.059
 5879POPC   C4B74278  33.843  18.600   7.489
 5880POPC   NC374279  35.353  41.194   5.418
 5880POPC   PO474280  35.649  41.833   5.199
 5880POPC   GL174281  35.606  41.818   5.713
 5880POPC   GL274282  35.466  41.497   5.812
 5880POPC   C1A74283  35.491  41.746   6.225
 5880POPC   D2A74284  35.270  41.526   6.605
 5880POPC   C3A74285  35.452  41.551   6.997
 5880POPC   C4A74286  35.401  41.906   7.239
 5880POPC   C1B74287  35.333  41.231   6.173
 5880POPC   C2B74288  35.344  41.020   6.584
 5880POPC   C3B74289  34.997  41.122   6.845
 5880POPC   C4B74290  34.917  41.205   7.247
 5881POPC   NC374291  32.019   0.341   5.354
 5881POPC   PO474292  32.650   0.533   5.369
 5881POPC   GL174293  32.386   0.687   5.740
 5881POPC   GL274294  32.157   0.408   5.831
 5881POPC   C1A74295  32.238   0.716   6.205
 5881POPC   D2A74296  32.438   0.496   6.503
 5881POPC   C3A74297  32.311   0.545   6.902
 5881POPC   C4A74298  32.456   0.284   7.185
 5881POPC   C1B74299  32.016   0.217   6.222
 5881POPC   C2B74300  31.953   0.296   6.634
 5881POPC   C3B74301  32.012   0.109   7.021
 5881POPC   C4B74302  32.038   0.251   7.469
 5882POPC   NC374303  18.127  25.754   5.526
 5882POPC   PO474304  18.158  26.462   5.465
 5882POPC   GL174305  18.286  26.336   5.871
 5882POPC   GL274306  18.442  26.067   5.801
 5882POPC   C1A74307  18.324  26.311   6.303
 5882POPC   D2A74308  18.079  26.058   6.572
 5882POPC   C3A74309  18.281  26.075   6.955
 5882POPC   C4A74310  18.370  26.353   7.303
 5882POPC   C1B74311  18.405  25.810   6.160
 5882POPC   C2B74312  18.561  25.848   6.567
 5882POPC   C3B74313  18.652  25.682   6.935
 5882POPC   C4B74314  18.579  25.896   7.320
 5883POPC   NC374315  29.144  10.162   5.436
 5883POPC   PO474316  28.959   9.516   5.513
 5883POPC   GL174317  29.148   9.701   5.877
 5883POPC   GL274318  29.275  10.036   5.919
 5883POPC   C1A74319  28.939   9.766   6.264
 5883POPC   D2A74320  29.126   9.757   6.654
 5883POPC   C3A74321  28.837   9.621   6.944
 5883POPC   C4A74322  28.881   9.643   7.385
 5883POPC   C1B74323  28.971  10.260   6.224
 5883POPC   C2B74324  28.818  10.180   6.657
 5883POPC   C3B74325  28.982  10.086   7.068
 5883POPC   C4B74326  29.324   9.816   7.132
 5884POPC   NC374327  41.263  12.278   5.541
 5884POPC   PO474328  41.754  11.903   5.359
 5884POPC   GL174329  41.645  12.006   5.786
 5884POPC   GL274330  41.312  11.922   5.892
 5884POPC   C1A74331  41.687  11.899   6.231
 5884POPC   D2A74332  41.486  11.839   6.634
 5884POPC   C3A74333  41.727  12.050   6.962
 5884POPC   C4A74334  41.740  12.018   7.382
 5884POPC   C1B74335  41.327  12.276   6.195
 5884POPC   C2B74336  41.179  12.261   6.617
 5884POPC   C3B74337  41.237  12.115   7.032
 5884POPC   C4B74338  41.355  12.366   7.383
 5885POPC   NC374339  31.099   4.406   5.486
 5885POPC   PO474340  30.674   4.031   5.224
 5885POPC   GL174341  30.772   4.162   5.756
 5885POPC   GL274342  30.485   4.277   5.933
 5885POPC   C1A74343  30.851   4.456   6.190
 5885POPC   D2A74344  30.547   4.558   6.545
 5885POPC   C3A74345  30.711   4.441   6.968
 5885POPC   C4A74346  31.075   4.528   7.247
 5885POPC   C1B74347  30.228   4.076   6.250
 5885POPC   C2B74348  30.171   4.198   6.648
 5885POPC   C3B74349  30.443   3.998   6.896
 5885POPC   C4B74350  30.532   3.992   7.303
 5886POPC   NC374351   0.205  18.533   5.534
 5886POPC   PO474352   0.548  17.983   5.434
 5886POPC   GL174353   0.465  18.164   5.803
 5886POPC   GL274354   0.635  18.497   5.848
 5886POPC   C1A74355   0.298  18.271   6.187
 5886POPC   D2A74356   0.202  18.503   6.542
 5886POPC   C3A74357   0.323  18.295   6.899
 5886POPC   C4A74358   0.460  18.166   7.285
 5886POPC   C1B74359   0.659  18.626   6.287
 5886POPC   C2B74360   0.801  18.476   6.703
 5886POPC   C3B74361   0.710  18.615   7.145
 5886POPC   C4B74362   0.774  18.483   7.615
 5887POPC   NC374363  21.785  32.443   5.408
 5887POPC   PO474364  21.209  32.072   5.488
 5887POPC   GL174365  21.356  32.221   5.846
 5887POPC   GL274366  21.708  32.200   5.833
 5887POPC   C1A74367  21.198  32.401   6.239
 5887POPC   D2A74368  21.262  32.624   6.615
 5887POPC   C3A74369  21.203  32.436   6.977
 5887POPC   C4A74370  21.039  32.711   7.249
 5887POPC   C1B74371  21.703  32.356   6.217
 5887POPC   C2B74372  21.554  32.212   6.607
 5887POPC   C3B74373  21.670  32.212   7.037
 5887POPC   C4B74374  21.580  31.844   7.278
 5888POPC   NC374375  28.110  26.410   5.124
 5888POPC   PO474376  28.508  25.911   5.341
 5888POPC   GL174377  28.404  26.159   5.690
 5888POPC   GL274378  28.692  26.086   5.843
 5888POPC   C1A74379  28.255  26.186   6.136
 5888POPC   D2A74380  28.134  26.351   6.553
 5888POPC   C3A74381  28.161  26.096   6.908
 5888POPC   C4A74382  28.404  26.058   7.278
 5888POPC   C1B74383  28.614  25.827   6.233
 5888POPC   C2B74384  28.522  25.793   6.687
 5888POPC   C3B74385  28.701  25.696   7.104
 5888POPC   C4B74386  28.824  25.825   7.551
 5889POPC   NC374387  11.515  15.578   5.416
 5889POPC   PO474388  11.224  16.146   5.598
 5889POPC   GL174389  11.616  15.966   5.798
 5889POPC   GL274390  11.686  15.604   5.896
 5889POPC   C1A74391  11.572  15.972   6.254
 5889POPC   D2A74392  11.344  16.266   6.497
 5889POPC   C3A74393  11.460  16.285   6.921
 5889POPC   C4A74394  11.327  15.989   7.252
 5889POPC   C1B74395  11.275  15.569   6.111
 5889POPC   C2B74396  11.207  15.690   6.562
 5889POPC   C3B74397  11.211  15.559   7.003
 5889POPC   C4B74398  11.168  15.532   7.473
 5890POPC   NC374399  27.141   5.051   5.208
 5890POPC   PO474400  26.530   5.215   5.505
 5890POPC   GL174401  26.748   5.306   5.839
 5890POPC   GL274402  27.110   5.206   5.735
 5890POPC   C1A74403  26.592   5.290   6.261
 5890POPC   D2A74404  26.378   5.104   6.601
 5890POPC   C3A74405  26.649   4.965   6.939
 5890POPC   C4A74406  26.909   4.985   7.317
 5890POPC   C1B74407  26.979   4.958   6.114
 5890POPC   C2B74408  27.015   5.053   6.564
 5890POPC   C3B74409  27.147   4.767   6.890
 5890POPC   C4B74410  27.119   4.535   7.277
 5891POPC   NC374411  29.990   6.749   5.255
 5891POPC   PO474412  29.433   6.463   5.519
 5891POPC   GL174413  29.764   6.629   5.814
 5891POPC   GL274414  30.127   6.716   5.733
 5891POPC   C1A74415  29.773   6.598   6.279
 5891POPC   D2A74416  29.638   6.369   6.666
 5891POPC   C3A74417  29.798   6.601   7.023
 5891POPC   C4A74418  29.829   6.923   7.329
 5891POPC   C1B74419  30.221   6.798   6.129
 5891POPC   C2B74420  30.133   6.925   6.521
 5891POPC   C3B74421  30.224   6.929   6.931
 5891POPC   C4B74422  30.291   6.678   7.270
 5892POPC   NC374423  32.438  38.946   4.986
 5892POPC   PO474424  32.024  39.277   5.475
 5892POPC   GL174425  32.358  39.196   5.793
 5892POPC   GL274426  32.354  39.519   5.998
 5892POPC   C1A74427  32.562  39.110   6.189
 5892POPC   D2A74428  32.511  39.425   6.525
 5892POPC   C3A74429  32.427  39.317   6.956
 5892POPC   C4A74430  32.349  39.489   7.389
 5892POPC   C1B74431  32.037  39.408   6.284
 5892POPC   C2B74432  31.952  39.378   6.746
 5892POPC   C3B74433  31.911  39.324   7.209
 5892POPC   C4B74434  31.731  39.131   7.592
 5893POPC   NC374435  27.775  10.555   5.659
 5893POPC   PO474436  28.262  10.234   5.369
 5893POPC   GL174437  28.253  10.379   5.808
 5893POPC   GL274438  28.248  10.744   5.894
 5893POPC   C1A74439  28.444  10.353   6.225
 5893POPC   D2A74440  28.604  10.627   6.557
 5893POPC   C3A74441  28.466  10.671   6.966
 5893POPC   C4A74442  28.558  10.342   7.243
 5893POPC   C1B74443  28.163  10.760   6.349
 5893POPC   C2B74444  28.125  10.407   6.661
 5893POPC   C3B74445  28.052  10.368   7.115
 5893POPC   C4B74446  28.209  10.650   7.473
 5894POPC   NC374447   2.301  41.191   5.338
 5894POPC   PO474448   1.782  41.666   5.433
 5894POPC   GL174449   2.055  41.672   5.817
 5894POPC   GL274450   1.883  41.965   5.905
 5894POPC   C1A74451   2.137  41.368   6.194
 5894POPC   D2A74452   1.866  41.038   6.429
 5894POPC   C3A74453   1.827  41.126   6.885
 5894POPC   C4A74454   2.148  41.284   7.168
 5894POPC   C1B74455   1.886  41.799   6.324
 5894POPC   C2B74456   2.060  41.574   6.699
 5894POPC   C3B74457   2.027  41.787   7.097
 5894POPC   C4B74458   1.693  41.955   7.338
 5895POPC   NC374459   0.165  21.918   5.431
 5895POPC   PO474460   0.731  22.208   5.600
 5895POPC   GL174461   0.632  21.937   5.962
 5895POPC   GL274462   0.306  21.769   5.972
 5895POPC   C1A74463   0.562  21.954   6.421
 5895POPC   D2A74464   0.302  22.137   6.772
 5895POPC   C3A74465   0.525  22.363   7.084
 5895POPC   C4A74466   0.569  22.117   7.410
 5895POPC   C1B74467   0.078  22.096   6.286
 5895POPC   C2B74468  44.905  22.423   6.623
 5895POPC   C3B74469   0.044  22.543   7.079
 5895POPC   C4B74470   0.140  22.397   7.506
 5896POPC   NC374471  13.691  20.680   5.495
 5896POPC   PO474472  13.280  20.193   5.606
 5896POPC   GL174473  13.569  20.368   5.923
 5896POPC   GL274474  13.560  20.740   5.984
 5896POPC   C1A74475  13.604  20.396   6.389
 5896POPC   D2A74476  13.413  20.693   6.662
 5896POPC   C3A74477  13.490  20.520   7.030
 5896POPC   C4A74478  13.680  20.317   7.374
 5896POPC   C1B74479  13.975  20.660   6.166
 5896POPC   C2B74480  13.929  20.805   6.593
 5896POPC   C3B74481  13.901  20.833   7.038
 5896POPC   C4B74482  14.013  20.680   7.454
 5897POPC   NC374483  40.604  30.479   5.332
 5897POPC   PO474484  41.136  30.783   5.263
 5897POPC   GL174485  40.622  30.938   5.560
 5897POPC   GL274486  40.575  30.643   5.807
 5897POPC   C1A74487  40.503  31.038   6.098
 5897POPC   D2A74488  40.711  30.811   6.469
 5897POPC   C3A74489  40.823  30.979   6.885
 5897POPC   C4A74490  40.853  30.886   7.310
 5897POPC   C1B74491  40.441  30.363   6.152
 5897POPC   C2B74492  40.469  30.348   6.609
 5897POPC   C3B74493  40.802  30.440   6.893
 5897POPC   C4B74494  40.851  30.340   7.322
 5898POPC   NC374495  27.665  35.993   5.776
 5898POPC   PO474496  27.457  35.428   5.329
 5898POPC   GL174497  27.709  35.344   5.705
 5898POPC   GL274498  27.478  35.509   5.886
 5898POPC   C1A74499  27.791  35.131   6.128
 5898POPC   D2A74500  27.604  34.995   6.537
 5898POPC   C3A74501  27.768  35.018   6.951
 5898POPC   C4A74502  27.601  35.156   7.377
 5898POPC   C1B74503  27.572  35.571   6.296
 5898POPC   C2B74504  27.770  35.465   6.657
 5898POPC   C3B74505  27.651  35.521   7.017
 5898POPC   C4B74506  27.708  35.781   7.332
 5899POPC   NC374507  42.663   4.395   5.585
 5899POPC   PO474508  42.072   4.499   5.376
 5899POPC   GL174509  42.236   4.493   5.851
 5899POPC   GL274510  42.454   4.143   5.964
 5899POPC   C1A74511  42.193   4.408   6.312
 5899POPC   D2A74512  41.956   4.245   6.660
 5899POPC   C3A74513  42.161   4.335   7.056
 5899POPC   C4A74514  42.344   4.597   7.361
 5899POPC   C1B74515  42.727   4.337   6.297
 5899POPC   C2B74516  42.761   4.479   6.732
 5899POPC   C3B74517  42.672   4.230   7.114
 5899POPC   C4B74518  42.616   3.928   7.456
 5900POPC   NC374519  34.632  27.980   5.172
 5900POPC   PO474520  34.217  27.550   5.308
 5900POPC   GL174521  34.153  27.649   5.790
 5900POPC   GL274522  34.510  27.798   5.902
 5900POPC   C1A74523  34.262  27.526   6.238
 5900POPC   D2A74524  34.460  27.838   6.528
 5900POPC   C3A74525  34.309  27.762   6.954
 5900POPC   C4A74526  34.281  27.434   7.237
 5900POPC   C1B74527  34.763  27.505   6.227
 5900POPC   C2B74528  34.669  27.389   6.681
 5900POPC   C3B74529  34.766  27.611   7.082
 5900POPC   C4B74530  35.038  27.531   7.466
 5901POPC   NC374531  35.824  29.874   5.102
 5901POPC   PO474532  35.213  29.925   5.288
 5901POPC   GL174533  35.440  29.930   5.698
 5901POPC   GL274534  35.598  29.603   5.835
 5901POPC   C1A74535  35.504  30.205   6.090
 5901POPC   D2A74536  35.386  30.071   6.525
 5901POPC   C3A74537  35.443  30.190   6.958
 5901POPC   C4A74538  35.123  30.229   7.252
 5901POPC   C1B74539  35.258  29.657   6.165
 5901POPC   C2B74540  35.046  29.664   6.599
 5901POPC   C3B74541  35.244  29.706   7.013
 5901POPC   C4B74542  35.610  29.457   7.173
 5902POPC   NC374543  20.629  12.649   5.432
 5902POPC   PO474544  20.816  13.316   5.520
 5902POPC   GL174545  20.608  13.085   5.819
 5902POPC   GL274546  20.941  13.133   5.994
 5902POPC   C1A74547  20.306  12.818   6.121
 5902POPC   D2A74548  20.177  12.626   6.572
 5902POPC   C3A74549  20.281  12.711   7.027
 5902POPC   C4A74550  20.494  12.509   7.390
 5902POPC   C1B74551  20.629  13.149   6.327
 5902POPC   C2B74552  20.602  12.896   6.688
 5902POPC   C3B74553  20.827  12.735   7.049
 5902POPC   C4B74554  21.147  12.936   7.301
 5903POPC   NC374555  22.885   7.870   5.524
 5903POPC   PO474556  23.102   7.198   5.340
 5903POPC   GL174557  23.036   7.426   5.735
 5903POPC   GL274558  22.660   7.406   5.810
 5903POPC   C1A74559  23.006   7.517   6.202
 5903POPC   D2A74560  23.219   7.602   6.624
 5903POPC   C3A74561  22.969   7.721   6.990
 5903POPC   C4A74562  22.873   7.451   7.274
 5903POPC   C1B74563  22.663   7.112   6.212
 5903POPC   C2B74564  22.476   6.990   6.636
 5903POPC   C3B74565  22.553   7.046   7.109
 5903POPC   C4B74566  22.488   7.292   7.546
 5904POPC   NC374567  12.433   8.375   5.474
 5904POPC   PO474568  11.932   7.934   5.457
 5904POPC   GL174569  11.978   7.818   5.867
 5904POPC   GL274570  12.305   7.966   5.860
 5904POPC   C1A74571  11.903   8.042   6.265
 5904POPC   D2A74572  11.677   8.162   6.686
 5904POPC   C3A74573  11.825   8.257   7.126
 5904POPC   C4A74574  12.073   8.306   7.543
 5904POPC   C1B74575  12.299   8.339   6.101
 5904POPC   C2B74576  12.251   8.347   6.529
 5904POPC   C3B74577  12.269   8.444   6.944
 5904POPC   C4B74578  12.604   8.500   7.191
 5905POPC   NC374579   5.122  13.121   5.267
 5905POPC   PO474580   5.126  12.450   5.296
 5905POPC   GL174581   5.198  12.678   5.696
 5905POPC   GL274582   5.400  12.990   5.712
 5905POPC   C1A74583   5.312  12.619   6.135
 5905POPC   D2A74584   5.190  12.650   6.570
 5905POPC   C3A74585   4.878  12.839   6.807
 5905POPC   C4A74586   4.992  12.796   7.220
 5905POPC   C1B74587   5.075  13.084   6.055
 5905POPC   C2B74588   5.107  13.199   6.511
 5905POPC   C3B74589   5.045  13.295   6.981
 5905POPC   C4B74590   4.884  13.274   7.422
 5906POPC   NC374591  35.001  34.570   5.523
 5906POPC   PO474592  34.421  34.224   5.425
 5906POPC   GL174593  34.296  34.298   5.876
 5906POPC   GL274594  34.364  34.670   5.937
 5906POPC   C1A74595  34.408  34.323   6.326
 5906POPC   D2A74596  34.807  34.302   6.582
 5906POPC   C3A74597  34.736  34.417   7.031
 5906POPC   C4A74598  34.310  34.483   7.206
 5906POPC   C1B74599  34.700  34.728   6.251
 5906POPC   C2B74600  34.712  34.822   6.692
 5906POPC   C3B74601  34.451  34.946   7.055
 5906POPC   C4B74602  34.300  35.080   7.476
 5907POPC   NC374603  42.156  26.888   5.462
 5907POPC   PO474604  42.685  26.505   5.410
 5907POPC   GL174605  42.493  26.647   5.792
 5907POPC   GL274606  42.188  26.444   5.712
 5907POPC   C1A74607  42.368  27.021   6.110
 5907POPC   D2A74608  42.316  27.261   6.525
 5907POPC   C3A74609  42.278  27.023   6.902
 5907POPC   C4A74610  41.961  26.800   7.132
 5907POPC   C1B74611  42.107  26.591   6.136
 5907POPC   C2B74612  42.311  26.643   6.542
 5907POPC   C3B74613  42.359  26.517   6.968
 5907POPC   C4B74614  42.251  26.437   7.379
 5908POPC   NC374615  13.507  13.851   5.416
 5908POPC   PO474616  13.932  13.399   5.186
 5908POPC   GL174617  13.908  13.573   5.617
 5908POPC   GL274618  13.604  13.504   5.802
 5908POPC   C1A74619  13.974  13.620   6.102
 5908POPC   D2A74620  13.760  13.696   6.496
 5908POPC   C3A74621  13.903  13.535   6.919
 5908POPC   C4A74622  13.579  13.277   7.132
 5908POPC   C1B74623  13.345  13.738   6.064
 5908POPC   C2B74624  13.225  13.802   6.488
 5908POPC   C3B74625  13.411  13.695   6.879
 5908POPC   C4B74626  13.354  13.761   7.294
 5909POPC   NC374627   3.964  18.322   5.583
 5909POPC   PO474628   4.567  18.185   5.354
 5909POPC   GL174629   4.483  18.422   5.737
 5909POPC   GL274630   4.388  18.123   5.847
 5909POPC   C1A74631   4.395  18.552   6.175
 5909POPC   D2A74632   4.080  18.615   6.526
 5909POPC   C3A74633   4.318  18.537   6.923
 5909POPC   C4A74634   4.374  18.209   7.283
 5909POPC   C1B74635   4.164  18.051   6.196
 5909POPC   C2B74636   4.351  18.173   6.536
 5909POPC   C3B74637   4.387  17.977   6.854
 5909POPC   C4B74638   4.088  17.798   7.101
 5910POPC   NC374639  34.215  33.849   5.233
 5910POPC   PO474640  34.828  33.488   5.180
 5910POPC   GL174641  34.663  33.769   5.589
 5910POPC   GL274642  34.354  33.742   5.732
 5910POPC   C1A74643  34.664  33.962   6.053
 5910POPC   D2A74644  34.461  33.846   6.472
 5910POPC   C3A74645  34.376  34.105   6.801
 5910POPC   C4A74646  34.450  33.983   7.186
 5910POPC   C1B74647  34.477  33.489   6.110
 5910POPC   C2B74648  34.331  33.354   6.517
 5910POPC   C3B74649  34.306  33.557   6.913
 5910POPC   C4B74650  34.544  33.489   7.265
 5911POPC   NC374651   2.836  35.799   5.423
 5911POPC   PO474652   2.722  35.141   5.603
 5911POPC   GL174653   2.739  35.515   5.835
 5911POPC   GL274654   2.396  35.690   5.720
 5911POPC   C1A74655   2.827  35.385   6.281
 5911POPC   D2A74656   2.669  35.166   6.659
 5911POPC   C3A74657   2.870  35.227   7.070
 5911POPC   C4A74658   2.944  35.577   7.384
 5911POPC   C1B74659   2.362  35.501   6.146
 5911POPC   C2B74660   2.377  35.572   6.577
 5911POPC   C3B74661   2.517  35.594   7.003
 5911POPC   C4B74662   2.482  35.803   7.393
 5912POPC   NC374663  13.162   8.197   5.171
 5912POPC   PO474664  12.660   7.936   5.494
 5912POPC   GL174665  12.781   8.185   5.847
 5912POPC   GL274666  13.132   8.221   5.779
 5912POPC   C1A74667  12.733   8.196   6.317
 5912POPC   D2A74668  12.732   8.498   6.685
 5912POPC   C3A74669  13.069   8.415   6.966
 5912POPC   C4A74670  13.001   8.108   7.298
 5912POPC   C1B74671  13.180   7.949   6.183
 5912POPC   C2B74672  12.944   7.802   6.577
 5912POPC   C3B74673  12.605   8.026   6.813
 5912POPC   C4B74674  12.367   8.006   7.199
 5913POPC   NC374675   4.214  33.800   5.308
 5913POPC   PO474676   4.772  34.018   5.541
 5913POPC   GL174677   4.457  33.859   5.832
 5913POPC   GL274678   4.107  33.722   5.828
 5913POPC   C1A74679   4.410  33.818   6.268
 5913POPC   D2A74680   4.229  34.021   6.620
 5913POPC   C3A74681   4.512  33.861   6.911
 5913POPC   C4A74682   4.435  33.769   7.331
 5913POPC   C1B74683   3.869  33.810   6.230
 5913POPC   C2B74684   3.826  33.659   6.670
 5913POPC   C3B74685   3.973  33.772   7.107
 5913POPC   C4B74686   3.913  33.737   7.551
 5914POPC   NC374687  40.695  11.535   5.411
 5914POPC   PO474688  40.945  10.894   5.562
 5914POPC   GL174689  40.796  11.246   5.840
 5914POPC   GL274690  41.016  11.530   5.808
 5914POPC   C1A74691  40.607  11.620   6.102
 5914POPC   D2A74692  40.405  11.729   6.507
 5914POPC   C3A74693  40.537  11.563   6.926
 5914POPC   C4A74694  40.392  11.689   7.327
 5914POPC   C1B74695  41.072  11.391   6.248
 5914POPC   C2B74696  40.910  11.327   6.662
 5914POPC   C3B74697  40.888  11.187   7.064
 5914POPC   C4B74698  41.141  11.116   7.432
 5915POPC   NC374699  18.752  14.998   5.519
 5915POPC   PO474700  19.348  15.369   5.501
 5915POPC   GL174701  19.058  15.312   5.820
 5915POPC   GL274702  19.120  14.954   5.886
 5915POPC   C1A74703  18.912  15.375   6.239
 5915POPC   D2A74704  18.752  15.054   6.545
 5915POPC   C3A74705  18.754  15.052   7.008
 5915POPC   C4A74706  18.902  15.333   7.306
 5915POPC   C1B74707  19.262  14.992   6.322
 5915POPC   C2B74708  19.234  15.005   6.775
 5915POPC   C3B74709  19.371  15.185   7.151
 5915POPC   C4B74710  19.516  14.940   7.538
 5916POPC   NC374711  22.105  36.693   5.448
 5916POPC   PO474712  22.401  37.277   5.307
 5916POPC   GL174713  22.235  37.143   5.756
 5916POPC   GL274714  22.279  36.792   5.902
 5916POPC   C1A74715  22.365  37.163   6.220
 5916POPC   D2A74716  22.270  36.909   6.591
 5916POPC   C3A74717  22.483  36.910   6.979
 5916POPC   C4A74718  22.252  36.996   7.322
 5916POPC   C1B74719  21.931  36.822   6.186
 5916POPC   C2B74720  21.817  36.678   6.586
 5916POPC   C3B74721  21.995  36.639   7.004
 5916POPC   C4B74722  22.344  36.497   7.264
 5917POPC   NC374723  22.401  31.792   5.464
 5917POPC   PO474724  22.233  32.435   5.311
 5917POPC   GL174725  22.154  32.463   5.770
 5917POPC   GL274726  22.230  32.133   5.803
 5917POPC   C1A74727  22.216  32.395   6.224
 5917POPC   D2A74728  22.076  32.192   6.591
 5917POPC   C3A74729  22.124  32.473   6.935
 5917POPC   C4A74730  22.273  32.502   7.333
 5917POPC   C1B74731  22.463  31.928   6.146
 5917POPC   C2B74732  22.513  31.885   6.607
 5917POPC   C3B74733  22.419  32.066   7.018
 5917POPC   C4B74734  22.102  32.025   7.328
 5918POPC   NC374735  14.515  10.041   5.172
 5918POPC   PO474736  14.417   9.436   5.354
 5918POPC   GL174737  14.444   9.622   5.763
 5918POPC   GL274738  14.806   9.528   5.828
 5918POPC   C1A74739  14.245   9.848   6.160
 5918POPC   D2A74740  14.168   9.705   6.588
 5918POPC   C3A74741  14.160  10.032   6.900
 5918POPC   C4A74742  14.429   9.996   7.232
 5918POPC   C1B74743  14.647   9.545   6.225
 5918POPC   C2B74744  14.789   9.553   6.611
 5918POPC   C3B74745  14.559   9.600   6.935
 5918POPC   C4B74746  14.663   9.554   7.336
 5919POPC   NC374747  20.249  11.119   5.219
 5919POPC   PO474748  19.697  10.763   5.426
 5919POPC   GL174749  19.654  11.086   5.784
 5919POPC   GL274750  19.874  11.404   5.796
 5919POPC   C1A74751  19.763  11.157   6.248
 5919POPC   D2A74752  19.876  11.205   6.692
 5919POPC   C3A74753  19.648  11.187   7.090
 5919POPC   C4A74754  19.779  11.216   7.530
 5919POPC   C1B74755  19.993  11.621   6.227
 5919POPC   C2B74756  20.228  11.604   6.668
 5919POPC   C3B74757  20.251  11.769   7.118
 5919POPC   C4B74758  20.007  11.652   7.485
 5920POPC   NC374759   0.513  38.006   5.158
 5920POPC   PO474760   0.065  37.565   5.263
 5920POPC   GL174761   0.159  37.647   5.794
 5920POPC   GL274762   0.525  37.683   5.854
 5920POPC   C1A74763   0.279  37.855   6.251
 5920POPC   D2A74764   0.656  37.681   6.504
 5920POPC   C3A74765   0.575  37.702   6.948
 5920POPC   C4A74766   0.359  38.069   7.130
 5920POPC   C1B74767   0.377  37.361   6.189
 5920POPC   C2B74768   0.213  37.380   6.617
 5920POPC   C3B74769   0.306  37.239   7.041
 5920POPC   C4B74770   0.547  37.352   7.376
 5921POPC   NC374771  13.996  13.016   5.417
 5921POPC   PO474772  13.583  12.540   5.083
 5921POPC   GL174773  13.404  12.708   5.598
 5921POPC   GL274774  13.588  12.996   5.733
 5921POPC   C1A74775  13.338  12.710   6.068
 5921POPC   D2A74776  13.537  12.649   6.500
 5921POPC   C3A74777  13.418  12.901   6.824
 5921POPC   C4A74778  13.185  12.947   7.200
 5921POPC   C1B74779  13.644  13.138   6.187
 5921POPC   C2B74780  13.916  13.138   6.567
 5921POPC   C3B74781  14.020  12.999   7.001
 5921POPC   C4B74782  13.709  12.741   7.207
 5922POPC   NC374783   4.690   4.421   5.387
 5922POPC   PO474784   4.056   4.154   5.424
 5922POPC   GL174785   4.173   4.457   5.781
 5922POPC   GL274786   4.512   4.599   5.819
 5922POPC   C1A74787   4.088   4.445   6.231
 5922POPC   D2A74788   4.308   4.278   6.592
 5922POPC   C3A74789   4.086   4.367   6.959
 5922POPC   C4A74790   4.083   4.229   7.373
 5922POPC   C1B74791   4.615   4.418   6.186
 5922POPC   C2B74792   4.707   4.635   6.580
 5922POPC   C3B74793   4.568   4.608   6.991
 5922POPC   C4B74794   4.563   4.250   7.220
 5923POPC   NC374795   3.542  39.766   5.520
 5923POPC   PO474796   3.869  40.370   5.489
 5923POPC   GL174797   3.620  40.174   5.828
 5923POPC   GL274798   3.603  39.875   5.992
 5923POPC   C1A74799   3.319  40.285   6.120
 5923POPC   D2A74800   3.468  40.115   6.481
 5923POPC   C3A74801   3.551  40.351   6.857
 5923POPC   C4A74802   3.889  40.335   7.202
 5923POPC   C1B74803   3.248  39.637   6.122
 5923POPC   C2B74804   3.305  39.617   6.545
 5923POPC   C3B74805   3.470  39.812   6.904
 5923POPC   C4B74806   3.309  40.088   7.218
 5924POPC   NC374807  11.166   9.729   5.531
 5924POPC   PO474808  11.823   9.907   5.426
 5924POPC   GL174809  11.624   9.771   5.832
 5924POPC   GL274810  11.347   9.989   5.932
 5924POPC   C1A74811  11.605   9.728   6.294
 5924POPC   D2A74812  11.745   9.761   6.723
 5924POPC   C3A74813  11.462   9.505   7.021
 5924POPC   C4A74814  11.428   9.578   7.458
 5924POPC   C1B74815  11.121   9.952   6.286
 5924POPC   C2B74816  11.216   9.786   6.665
 5924POPC   C3B74817  11.182   9.924   7.082
 5924POPC   C4B74818  11.084   9.938   7.500
 5925POPC   NC374819  26.974   6.581   5.368
 5925POPC   PO474820  26.380   6.893   5.529
 5925POPC   GL174821  26.681   6.615   5.809
 5925POPC   GL274822  26.993   6.792   5.833
 5925POPC   C1A74823  26.938   6.400   6.186
 5925POPC   D2A74824  26.952   6.154   6.599
 5925POPC   C3A74825  26.616   6.286   6.904
 5925POPC   C4A74826  26.464   6.646   7.145
 5925POPC   C1B74827  26.944   6.907   6.254
 5925POPC   C2B74828  26.823   6.681   6.641
 5925POPC   C3B74829  27.098   6.511   6.943
 5925POPC   C4B74830  27.380   6.671   7.221
 5926POPC   NC374831  35.453   2.472   5.274
 5926POPC   PO474832  35.577   1.867   5.388
 5926POPC   GL174833  35.303   1.908   5.754
 5926POPC   GL274834  35.042   1.680   5.645
 5926POPC   C1A74835  35.193   2.102   6.159
 5926POPC   D2A74836  35.134   2.235   6.616
 5926POPC   C3A74837  35.444   2.017   6.926
 5926POPC   C4A74838  35.705   2.127   7.308
 5926POPC   C1B74839  34.964   1.644   6.079
 5926POPC   C2B74840  35.147   1.716   6.483
 5926POPC   C3B74841  34.981   1.773   6.871
 5926POPC   C4B74842  35.050   1.723   7.294
 5927POPC   NC374843   3.991  21.767   5.659
 5927POPC   PO474844   4.560  21.586   5.398
 5927POPC   GL174845   4.330  21.363   5.736
 5927POPC   GL274846   4.026  21.158   5.844
 5927POPC   C1A74847   4.337  21.484   6.173
 5927POPC   D2A74848   4.597  21.401   6.507
 5927POPC   C3A74849   4.459  21.400   6.933
 5927POPC   C4A74850   4.294  21.635   7.281
 5927POPC   C1B74851   4.143  20.998   6.180
 5927POPC   C2B74852   4.157  21.149   6.552
 5927POPC   C3B74853   4.105  20.992   6.926
 5927POPC   C4B74854   4.060  21.189   7.314
 5928POPC   NC374855   3.679  12.949   5.457
 5928POPC   PO474856   3.430  12.393   5.157
 5928POPC   GL174857   3.328  12.765   5.736
 5928POPC   GL274858   3.711  12.728   5.903
 5928POPC   C1A74859   3.367  12.637   6.248
 5928POPC   D2A74860   3.431  12.854   6.626
 5928POPC   C3A74861   3.523  12.662   7.050
 5928POPC   C4A74862   3.189  12.544   7.309
 5928POPC   C1B74863   3.566  13.079   6.149
 5928POPC   C2B74864   3.638  13.320   6.525
 5928POPC   C3B74865   3.722  13.118   6.950
 5928POPC   C4B74866   3.440  13.092   7.352
 5929POPC   NC374867  17.394   8.910   5.364
 5929POPC   PO474868  16.930   9.301   5.698
 5929POPC   GL174869  17.247   9.031   5.848
 5929POPC   GL274870  17.604   8.995   5.812
 5929POPC   C1A74871  17.254   8.797   6.211
 5929POPC   D2A74872  16.979   8.886   6.557
 5929POPC   C3A74873  17.243   8.933   6.904
 5929POPC   C4A74874  17.382   8.726   7.245
 5929POPC   C1B74875  17.773   8.881   6.194
 5929POPC   C2B74876  17.656   8.778   6.602
 5929POPC   C3B74877  17.826   8.848   7.001
 5929POPC   C4B74878  17.633   9.181   7.248
 5930POPC   NC374879  21.377  36.631   5.360
 5930POPC   PO474880  21.830  37.062   5.435
 5930POPC   GL174881  21.633  37.016   5.804
 5930POPC   GL274882  21.508  37.376   5.751
 5930POPC   C1A74883  21.413  36.756   6.124
 5930POPC   D2A74884  21.162  36.739   6.521
 5930POPC   C3A74885  21.417  36.747   6.884
 5930POPC   C4A74886  21.545  36.523   7.220
 5930POPC   C1B74887  21.334  37.289   6.159
 5930POPC   C2B74888  21.550  37.103   6.490
 5930POPC   C3B74889  21.736  37.135   6.888
 5930POPC   C4B74890  21.740  37.011   7.289
 5931POPC   NC374891  14.847  21.306   5.076
 5931POPC   PO474892  15.271  21.659   5.338
 5931POPC   GL174893  14.947  21.466   5.642
 5931POPC   GL274894  15.131  21.222   5.838
 5931POPC   C1A74895  14.802  21.463   6.119
 5931POPC   D2A74896  15.045  21.552   6.530
 5931POPC   C3A74897  14.968  21.469   6.999
 5931POPC   C4A74898  15.157  21.505   7.410
 5931POPC   C1B74899  15.105  21.080   6.273
 5931POPC   C2B74900  15.186  21.113   6.732
 5931POPC   C3B74901  15.362  21.123   7.160
 5931POPC   C4B74902  15.290  20.834   7.558
 5932POPC   NC374903  13.605  36.218   5.223
 5932POPC   PO474904  13.909  35.658   5.454
 5932POPC   GL174905  13.729  36.009   5.749
 5932POPC   GL274906  13.636  36.366   5.774
 5932POPC   C1A74907  13.845  36.145   6.193
 5932POPC   D2A74908  14.087  36.062   6.586
 5932POPC   C3A74909  13.894  36.068   6.991
 5932POPC   C4A74910  13.817  35.881   7.395
 5932POPC   C1B74911  13.342  36.267   6.118
 5932POPC   C2B74912  13.160  36.220   6.510
 5932POPC   C3B74913  13.145  36.307   6.945
 5932POPC   C4B74914  13.387  36.011   7.129
 5933POPC   NC374915  18.905   1.380   5.499
 5933POPC   PO474916  19.560   1.196   5.413
 5933POPC   GL174917  19.303   1.187   5.800
 5933POPC   GL274918  19.012   0.921   5.802
 5933POPC   C1A74919  19.099   1.447   6.165
 5933POPC   D2A74920  18.980   1.695   6.577
 5933POPC   C3A74921  19.144   1.457   6.952
 5933POPC   C4A74922  19.182   1.315   7.389
 5933POPC   C1B74923  19.273   0.887   6.202
 5933POPC   C2B74924  19.354   1.125   6.598
 5933POPC   C3B74925  19.419   0.973   7.025
 5933POPC   C4B74926  19.087   0.731   7.182
 5934POPC   NC374927   6.775   0.707   5.181
 5934POPC   PO474928   6.441   0.153   5.371
 5934POPC   GL174929   6.590   0.391   5.783
 5934POPC   GL274930   6.912   0.586   5.766
 5934POPC   C1A74931   6.733   0.472   6.223
 5934POPC   D2A74932   6.642   0.288   6.591
 5934POPC   C3A74933   6.637   0.454   7.009
 5934POPC   C4A74934   6.735   0.258   7.419
 5934POPC   C1B74935   7.014   0.887   6.127
 5934POPC   C2B74936   6.855   0.871   6.554
 5934POPC   C3B74937   7.065   0.760   6.912
 5934POPC   C4B74938   6.926   0.739   7.312
 5935POPC   NC374939  14.556   0.525   5.282
 5935POPC   PO474940  14.074   0.859   5.403
 5935POPC   GL174941  14.359   0.611   5.740
 5935POPC   GL274942  14.329   0.228   5.739
 5935POPC   C1A74943  14.577   0.492   6.170
 5935POPC   D2A74944  14.650   0.236   6.574
 5935POPC   C3A74945  14.446   0.462   6.928
 5935POPC   C4A74946  14.391   0.642   7.328
 5935POPC   C1B74947  14.488  44.917   6.076
 5935POPC   C2B74948  14.386  44.751   6.501
 5935POPC   C3B74949  14.226   0.002   6.839
 5935POPC   C4B74950  14.046   0.253   7.219
 5936POPC   NC374951  21.073  18.655   5.561
 5936POPC   PO474952  21.583  18.431   5.212
 5936POPC   GL174953  21.454  18.228   5.628
 5936POPC   GL274954  21.121  18.200   5.802
 5936POPC   C1A74955  21.556  18.120   6.084
 5936POPC   D2A74956  21.380  18.203   6.519
 5936POPC   C3A74957  21.482  18.059   6.936
 5936POPC   C4A74958  21.339  18.035   7.378
 5936POPC   C1B74959  21.202  18.509   6.158
 5936POPC   C2B74960  21.040  18.636   6.545
 5936POPC   C3B74961  21.204  18.514   6.917
 5936POPC   C4B74962  21.124  18.495   7.333
 5937POPC   NC374963  42.140  41.135   5.563
 5937POPC   PO474964  42.118  40.430   5.404
 5937POPC   GL174965  42.144  40.666   5.792
 5937POPC   GL274966  42.497  40.699   5.793
 5937POPC   C1A74967  42.267  40.911   6.183
 5937POPC   D2A74968  42.472  41.075   6.507
 5937POPC   C3A74969  42.363  40.871   6.871
 5937POPC   C4A74970  42.154  41.095   7.145
 5937POPC   C1B74971  42.434  40.418   6.147
 5937POPC   C2B74972  42.307  40.459   6.561
 5937POPC   C3B74973  42.282  40.361   6.991
 5937POPC   C4B74974  42.255  40.610   7.322
 5938POPC   NC374975  41.766  18.074   5.576
 5938POPC   PO474976  41.241  18.463   5.583
 5938POPC   GL174977  41.550  18.375   5.924
 5938POPC   GL274978  41.882  18.546   5.860
 5938POPC   C1A74979  41.674  17.992   6.212
 5938POPC   D2A74980  41.773  17.860   6.637
 5938POPC   C3A74981  41.404  17.997   6.824
 5938POPC   C4A74982  41.289  18.023   7.234
 5938POPC   C1B74983  42.008  18.359   6.249
 5938POPC   C2B74984  41.745  18.385   6.626
 5938POPC   C3B74985  41.788  18.270   7.061
 5938POPC   C4B74986  41.991  18.476   7.408
 5939POPC   NC374987  44.202  12.550   5.514
 5939POPC   PO474988  43.472  12.672   5.368
 5939POPC   GL174989  43.539  12.807   5.792
 5939POPC   GL274990  43.915  12.791   5.868
 5939POPC   C1A74991  43.567  12.926   6.212
 5939POPC   D2A74992  43.767  12.726   6.572
 5939POPC   C3A74993  43.811  12.942   6.982
 5939POPC   C4A74994  43.621  12.982   7.387
 5939POPC   C1B74995  44.029  13.160   6.150
 5939POPC   C2B74996  44.168  13.084   6.564
 5939POPC   C3B74997  44.237  12.725   6.806
 5939POPC   C4B74998  44.268  12.828   7.236
 5940POPC   NC374999   4.350  40.152   5.411
 5940POPC   PO475000   3.982  39.623   5.635
 5940POPC   GL175001   4.108  39.974   5.862
 5940POPC   GL275002   4.470  39.911   5.843
 5940POPC   C1A75003   3.958  40.056   6.301
 5940POPC   D2A75004   3.919  40.030   6.756
 5940POPC   C3A75005   4.111  39.707   6.976
 5940POPC   C4A75006   4.517  39.630   7.137
 5940POPC   C1B75007   4.454  40.119   6.227
 5940POPC   C2B75008   4.431  39.954   6.651
 5940POPC   C3B75009   4.354  40.163   7.049
 5940POPC   C4B75010   4.583  40.227   7.421
 5941POPC   NC375011  40.358  36.533   5.538
 5941POPC   PO475012  39.933  36.997   5.695
 5941POPC   GL175013  40.121  36.990   5.998
 5941POPC   GL275014  40.439  36.935   5.853
 5941POPC   C1A75015  39.960  37.106   6.385
 5941POPC   D2A75016  40.135  37.040   6.741
 5941POPC   C3A75017  39.917  36.948   7.076
 5941POPC   C4A75018  39.626  37.191   7.247
 5941POPC   C1B75019  40.465  36.765   6.270
 5941POPC   C2B75020  40.228  36.556   6.582
 5941POPC   C3B75021  40.341  36.645   6.987
 5941POPC   C4B75022  40.263  36.683   7.408
 5942POPC   NC375023  23.117  39.489   5.637
 5942POPC   PO475024  23.563  39.171   5.212
 5942POPC   GL175025  23.713  39.212   5.674
 5942POPC   GL275026  23.984  39.471   5.779
 5942POPC   C1A75027  23.552  39.103   6.092
 5942POPC   D2A75028  23.433  39.275   6.494
 5942POPC   C3A75029  23.446  39.043   6.890
 5942POPC   C4A75030  23.393  39.253   7.290
 5942POPC   C1B75031  23.974  39.400   6.207
 5942POPC   C2B75032  23.871  39.504   6.619
 5942POPC   C3B75033  23.848  39.354   7.017
 5942POPC   C4B75034  23.801  39.640   7.306
 5943POPC   NC375035  10.162  19.146   5.481
 5943POPC   PO475036   9.669  18.874   5.059
 5943POPC   GL175037   9.703  18.897   5.600
 5943POPC   GL275038   9.810  19.215   5.831
 5943POPC   C1A75039   9.606  18.842   6.098
 5943POPC   D2A75040   9.483  19.078   6.476
 5943POPC   C3A75041   9.652  18.965   6.878
 5943POPC   C4A75042   9.616  18.974   7.299
 5943POPC   C1B75043  10.092  19.364   6.200
 5943POPC   C2B75044   9.977  19.350   6.647
 5943POPC   C3B75045   9.898  19.396   7.085
 5943POPC   C4B75046   9.988  19.266   7.504
 5944POPC   NC375047  40.227  29.093   5.256
 5944POPC   PO475048  40.922  29.036   5.434
 5944POPC   GL175049  40.984  29.113   5.826
 5944POPC   GL275050  40.628  29.100   5.848
 5944POPC   C1A75051  40.965  28.934   6.233
 5944POPC   D2A75052  41.125  29.078   6.619
 5944POPC   C3A75053  40.864  28.882   6.886
 5944POPC   C4A75054  40.812  29.022   7.260
 5944POPC   C1B75055  40.439  29.115   6.234
 5944POPC   C2B75056  40.418  28.935   6.639
 5944POPC   C3B75057  40.391  29.153   7.035
 5944POPC   C4B75058  40.381  29.083   7.496
 5945POPC   NC375059  41.094  15.866   5.328
 5945POPC   PO475060  40.550  16.090   5.358
 5945POPC   GL175061  40.805  15.945   5.758
 5945POPC   GL275062  41.000  15.583   5.794
 5945POPC   C1A75063  40.713  16.046   6.198
 5945POPC   D2A75064  40.607  15.853   6.596
 5945POPC   C3A75065  40.686  16.139   6.932
 5945POPC   C4A75066  40.940  16.171   7.296
 5945POPC   C1B75067  40.928  15.432   6.275
 5945POPC   C2B75068  40.899  15.453   6.758
 5945POPC   C3B75069  40.606  15.664   7.102
 5945POPC   C4B75070  40.682  15.801   7.560
 5946POPC   NC375071  35.916  37.444   5.549
 5946POPC   PO475072  36.441  37.773   5.467
 5946POPC   GL175073  36.466  37.594   5.912
 5946POPC   GL275074  36.461  37.226   5.979
 5946POPC   C1A75075  36.461  37.582   6.373
 5946POPC   D2A75076  36.210  37.731   6.685
 5946POPC   C3A75077  36.335  37.636   7.065
 5946POPC   C4A75078  36.058  37.641   7.432
 5946POPC   C1B75079  36.060  37.339   6.186
 5946POPC   C2B75080  35.765  37.506   6.515
 5946POPC   C3B75081  35.835  37.495   6.959
 5946POPC   C4B75082  36.089  37.181   7.152
 5947POPC   NC375083  18.749  20.700   5.455
 5947POPC   PO475084  19.223  20.362   5.415
 5947POPC   GL175085  19.190  20.722   5.725
 5947POPC   GL275086  18.958  20.497   5.874
 5947POPC   C1A75087  19.124  20.879   6.166
 5947POPC   D2A75088  19.035  20.625   6.554
 5947POPC   C3A75089  19.129  20.768   6.980
 5947POPC   C4A75090  18.913  20.843   7.349
 5947POPC   C1B75091  18.694  20.419   6.203
 5947POPC   C2B75092  18.480  20.514   6.560
 5947POPC   C3B75093  18.658  20.571   6.917
 5947POPC   C4B75094  18.868  20.362   7.206
 5948POPC   NC375095   8.156  41.847   5.435
 5948POPC   PO475096   8.267  42.551   5.385
 5948POPC   GL175097   8.317  42.382   5.803
 5948POPC   GL275098   8.008  42.221   5.808
 5948POPC   C1A75099   8.277  42.188   6.244
 5948POPC   D2A75100   8.128  42.015   6.609
 5948POPC   C3A75101   8.391  41.979   6.962
 5948POPC   C4A75102   8.026  41.912   7.189
 5948POPC   C1B75103   7.970  42.584   6.137
 5948POPC   C2B75104   7.934  42.495   6.584
 5948POPC   C3B75105   8.111  42.404   6.977
 5948POPC   C4B75106   7.975  42.691   7.230
 5949POPC   NC375107  23.629  34.300   5.319
 5949POPC   PO475108  24.037  34.841   5.089
 5949POPC   GL175109  23.895  34.761   5.599
 5949POPC   GL275110  23.537  34.603   5.734
 5949POPC   C1A75111  23.845  34.739   6.109
 5949POPC   D2A75112  23.820  34.485   6.529
 5949POPC   C3A75113  23.864  34.569   6.974
 5949POPC   C4A75114  23.667  34.774   7.278
 5949POPC   C1B75115  23.416  34.455   6.194
 5949POPC   C2B75116  23.374  34.289   6.634
 5949POPC   C3B75117  23.314  34.528   7.020
 5949POPC   C4B75118  23.178  34.747   7.394
 5950POPC   NC375119  37.687   3.500   5.085
 5950POPC   PO475120  37.421   3.591   5.697
 5950POPC   GL175121  37.770   3.531   5.949
 5950POPC   GL275122  38.036   3.809   5.990
 5950POPC   C1A75123  37.695   3.383   6.356
 5950POPC   D2A75124  37.591   3.036   6.615
 5950POPC   C3A75125  37.479   3.278   6.933
 5950POPC   C4A75126  37.595   3.567   7.181
 5950POPC   C1B75127  37.647   3.914   6.275
 5950POPC   C2B75128  37.580   3.784   6.721
 5950POPC   C3B75129  37.782   4.015   7.086
 5950POPC   C4B75130  38.242   4.028   7.193
 5951POPC   NC375131   3.842  17.038   5.530
 5951POPC   PO475132   3.283  16.574   5.450
 5951POPC   GL175133   3.457  16.748   5.781
 5951POPC   GL275134   3.780  16.610   5.906
 5951POPC   C1A75135   3.352  16.633   6.187
 5951POPC   D2A75136   3.601  16.619   6.547
 5951POPC   C3A75137   3.392  16.427   6.872
 5951POPC   C4A75138   3.451  16.622   7.244
 5951POPC   C1B75139   3.696  17.011   6.179
 5951POPC   C2B75140   3.651  17.255   6.575
 5951POPC   C3B75141   3.624  16.992   6.929
 5951POPC   C4B75142   3.949  16.809   7.147
 5952POPC   NC375143   7.189  17.199   5.184
 5952POPC   PO475144   7.376  16.557   5.228
 5952POPC   GL175145   7.579  16.549   5.676
 5952POPC   GL275146   7.498  16.896   5.715
 5952POPC   C1A75147   7.445  16.380   6.136
 5952POPC   D2A75148   7.470  16.602   6.545
 5952POPC   C3A75149   7.453  16.431   6.925
 5952POPC   C4A75150   7.304  16.463   7.302
 5952POPC   C1B75151   7.425  16.924   6.168
 5952POPC   C2B75152   7.350  17.112   6.598
 5952POPC   C3B75153   7.373  16.949   7.026
 5952POPC   C4B75154   7.654  16.842   7.334
 5953POPC   NC375155   2.791  15.896   5.434
 5953POPC   PO475156   2.325  16.222   5.452
 5953POPC   GL175157   2.507  16.076   5.840
 5953POPC   GL275158   2.385  15.752   5.873
 5953POPC   C1A75159   2.751  15.946   6.232
 5953POPC   D2A75160   3.051  16.122   6.578
 5953POPC   C3A75161   2.890  16.018   6.989
 5953POPC   C4A75162   2.557  16.205   7.231
 5953POPC   C1B75163   2.186  15.540   6.206
 5953POPC   C2B75164   2.231  15.633   6.619
 5953POPC   C3B75165   2.439  15.757   6.993
 5953POPC   C4B75166   2.565  15.706   7.433
 5954POPC   NC375167   5.708  16.702   5.277
 5954POPC   PO475168   5.074  16.668   5.458
 5954POPC   GL175169   5.089  16.608   5.903
 5954POPC   GL275170   5.331  16.390   6.001
 5954POPC   C1A75171   5.017  16.613   6.366
 5954POPC   D2A75172   5.312  16.469   6.670
 5954POPC   C3A75173   5.199  16.660   7.058
 5954POPC   C4A75174   4.964  17.035   7.114
 5954POPC   C1B75175   5.459  16.809   6.253
 5954POPC   C2B75176   5.573  16.913   6.694
 5954POPC   C3B75177   5.509  17.086   7.131
 5954POPC   C4B75178   5.433  16.957   7.602
 5955POPC   NC375179   9.844   0.952   5.513
 5955POPC   PO475180   9.648   1.559   5.321
 5955POPC   GL175181   9.610   1.324   5.768
 5955POPC   GL275182   9.383   1.005   5.713
 5955POPC   C1A75183   9.869   1.246   6.139
 5955POPC   D2A75184   9.908   1.480   6.521
 5955POPC   C3A75185   9.828   1.267   6.894
 5955POPC   C4A75186   9.805   1.242   7.301
 5955POPC   C1B75187   9.504   0.882   6.116
 5955POPC   C2B75188   9.687   0.940   6.534
 5955POPC   C3B75189   9.549   0.829   6.990
 5955POPC   C4B75190   9.662   0.770   7.453
 5956POPC   NC375191   1.539  17.232   5.252
 5956POPC   PO475192   1.282  17.922   5.421
 5956POPC   GL175193   1.281  17.610   5.771
 5956POPC   GL275194   1.396  17.279   5.793
 5956POPC   C1A75195   1.284  17.683   6.214
 5956POPC   D2A75196   1.449  17.681   6.626
 5956POPC   C3A75197   1.239  17.644   6.982
 5956POPC   C4A75198   1.337  17.717   7.388
 5956POPC   C1B75199   1.158  17.183   6.175
 5956POPC   C2B75200   1.345  17.193   6.604
 5956POPC   C3B75201   1.325  17.153   7.057
 5956POPC   C4B75202   1.404  17.228   7.512
 5957POPC   NC375203  43.193  35.692   5.518
 5957POPC   PO475204  42.671  35.233   5.403
 5957POPC   GL175205  42.902  35.176   5.789
 5957POPC   GL275206  43.262  35.239   5.834
 5957POPC   C1A75207  42.877  35.326   6.189
 5957POPC   D2A75208  43.135  35.301   6.554
 5957POPC   C3A75209  42.940  35.383   6.897
 5957POPC   C4A75210  43.121  35.347   7.292
 5957POPC   C1B75211  43.320  35.579   6.165
 5957POPC   C2B75212  43.325  35.784   6.584
 5957POPC   C3B75213  43.413  35.663   7.020
 5957POPC   C4B75214  43.558  35.637   7.430
 5958POPC   NC375215   5.106   7.808   5.397
 5958POPC   PO475216   5.550   7.392   5.122
 5958POPC   GL175217   5.367   7.448   5.669
 5958POPC   GL275218   5.014   7.579   5.840
 5958POPC   C1A75219   5.173   7.162   6.065
 5958POPC   D2A75220   4.896   7.091   6.466
 5958POPC   C3A75221   4.943   7.385   6.821
 5958POPC   C4A75222   4.994   7.457   7.284
 5958POPC   C1B75223   4.979   7.570   6.296
 5958POPC   C2B75224   5.258   7.719   6.587
 5958POPC   C3B75225   5.297   7.780   7.009
 5958POPC   C4B75226   5.466   7.965   7.351
 5959POPC   NC375227  42.791   8.792   5.629
 5959POPC   PO475228  43.067   9.194   5.246
 5959POPC   GL175229  43.139   9.159   5.741
 5959POPC   GL275230  43.234   8.860   5.880
 5959POPC   C1A75231  42.896   9.114   6.161
 5959POPC   D2A75232  42.891   9.314   6.553
 5959POPC   C3A75233  43.074   9.118   6.885
 5959POPC   C4A75234  42.835   9.098   7.242
 5959POPC   C1B75235  43.115   8.621   6.206
 5959POPC   C2B75236  43.236   8.734   6.577
 5959POPC   C3B75237  43.175   8.484   6.888
 5959POPC   C4B75238  43.175   8.441   7.292
 5960POPC   NC375239  26.633  32.910   5.053
 5960POPC   PO475240  27.183  32.818   5.292
 5960POPC   GL175241  27.135  33.085   5.680
 5960POPC   GL275242  26.797  32.973   5.782
 5960POPC   C1A75243  27.134  33.110   6.166
 5960POPC   D2A75244  27.219  32.977   6.622
 5960POPC   C3A75245  26.988  32.921   7.024
 5960POPC   C4A75246  26.844  32.598   7.304
 5960POPC   C1B75247  26.685  32.897   6.236
 5960POPC   C2B75248  26.645  33.031   6.665
 5960POPC   C3B75249  26.452  32.973   7.084
 5960POPC   C4B75250  26.129  33.156   7.380
 5961POPC   NC375251   2.286   3.014   5.466
 5961POPC   PO475252   1.728   2.603   5.341
 5961POPC   GL175253   1.948   2.706   5.723
 5961POPC   GL275254   1.852   2.513   6.024
 5961POPC   C1A75255   2.076   2.952   6.098
 5961POPC   D2A75256   2.199   2.730   6.459
 5961POPC   C3A75257   2.051   2.882   6.807
 5961POPC   C4A75258   2.222   2.919   7.206
 5961POPC   C1B75259   1.669   2.733   6.370
 5961POPC   C2B75260   1.577   2.697   6.824
 5961POPC   C3B75261   1.725   2.791   7.210
 5961POPC   C4B75262   1.741   2.427   7.454
 5962POPC   NC375263   8.696  11.724   5.492
 5962POPC   PO475264   9.032  11.151   5.320
 5962POPC   GL175265   9.038  11.359   5.717
 5962POPC   GL275266   8.688  11.305   5.793
 5962POPC   C1A75267   9.093  11.356   6.166
 5962POPC   D2A75268   9.028  11.527   6.582
 5962POPC   C3A75269   9.152  11.271   6.926
 5962POPC   C4A75270   9.152  11.404   7.331
 5962POPC   C1B75271   8.530  11.358   6.209
 5962POPC   C2B75272   8.466  11.467   6.615
 5962POPC   C3B75273   8.708  11.564   6.975
 5962POPC   C4B75274   8.633  11.461   7.376
 5963POPC   NC375275  13.813  44.856   5.258
 5963POPC   PO475276  13.340   0.190   5.519
 5963POPC   GL175277  13.755  44.998   5.762
 5963POPC   GL275278  13.824  44.634   5.740
 5963POPC   C1A75279  13.962  44.836   6.190
 5963POPC   D2A75280  13.809  44.648   6.611
 5963POPC   C3A75281  13.859  44.734   7.068
 5963POPC   C4A75282  13.788  44.905   7.511
 5963POPC   C1B75283  13.546  44.508   6.116
 5963POPC   C2B75284  13.360  44.401   6.532
 5963POPC   C3B75285  13.376  44.594   6.951
 5963POPC   C4B75286  13.538  44.463   7.356
 5964POPC   NC375287  36.792   0.106   5.506
 5964POPC   PO475288  37.071   0.803   5.403
 5964POPC   GL175289  36.962   0.493   5.797
 5964POPC   GL275290  37.044   0.156   5.926
 5964POPC   C1A75291  36.760   0.422   6.241
 5964POPC   D2A75292  36.517   0.580   6.601
 5964POPC   C3A75293  36.702   0.533   7.012
 5964POPC   C4A75294  36.480   0.568   7.419
 5964POPC   C1B75295  37.238   0.138   6.283
 5964POPC   C2B75296  37.144   0.274   6.664
 5964POPC   C3B75297  37.147   0.235   7.077
 5964POPC   C4B75298  36.956   0.406   7.440
 5965POPC   NC375299  20.355   7.931   5.355
 5965POPC   PO475300  20.315   8.515   5.629
 5965POPC   GL175301  20.652   8.384   5.867
 5965POPC   GL275302  20.763   8.034   5.809
 5965POPC   C1A75303  20.781   8.253   6.268
 5965POPC   D2A75304  20.564   8.169   6.629
 5965POPC   C3A75305  20.711   8.360   6.942
 5965POPC   C4A75306  20.410   8.439   7.196
 5965POPC   C1B75307  20.546   7.824   6.202
 5965POPC   C2B75308  20.665   7.676   6.643
 5965POPC   C3B75309  20.625   7.852   7.107
 5965POPC   C4B75310  20.784   7.774   7.558
 5966POPC   NC375311  44.634  30.178   5.343
 5966POPC   PO475312  44.763  29.519   5.428
 5966POPC   GL175313  44.819  29.878   5.750
 5966POPC   GL275314  44.553  30.154   5.847
 5966POPC   C1A75315  44.947  29.967   6.185
 5966POPC   D2A75316  44.717  30.045   6.566
 5966POPC   C3A75317  44.865  30.154   6.985
 5966POPC   C4A75318   0.068  29.938   7.270
 5966POPC   C1B75319  44.438  29.848   6.155
 5966POPC   C2B75320  44.244  29.833   6.566
 5966POPC   C3B75321  44.390  29.927   6.967
 5966POPC   C4B75322  44.333  30.060   7.360
 5967POPC   NC375323  24.216  12.358   5.401
 5967POPC   PO475324  24.800  12.357   5.186
 5967POPC   GL175325  24.745  12.402   5.656
 5967POPC   GL275326  24.523  12.156   5.821
 5967POPC   C1A75327  24.840  12.430   6.135
 5967POPC   D2A75328  24.948  12.169   6.555
 5967POPC   C3A75329  24.726  12.178   7.008
 5967POPC   C4A75330  24.438  12.211   7.406
 5967POPC   C1B75331  24.823  11.890   6.135
 5967POPC   C2B75332  24.827  11.637   6.571
 5967POPC   C3B75333  24.682  11.539   7.021
 5967POPC   C4B75334  24.612  11.228   7.367
 5968POPC   NC375335  19.733  28.684   5.226
 5968POPC   PO475336  20.022  28.116   5.312
 5968POPC   GL175337  19.733  28.218   5.639
 5968POPC   GL275338  19.794  28.568   5.742
 5968POPC   C1A75339  19.768  28.123   6.086
 5968POPC   D2A75340  19.763  28.343   6.495
 5968POPC   C3A75341  19.942  28.126   6.839
 5968POPC   C4A75342  19.767  28.285   7.197
 5968POPC   C1B75343  20.048  28.549   6.125
 5968POPC   C2B75344  20.262  28.472   6.523
 5968POPC   C3B75345  20.178  28.574   6.961
 5968POPC   C4B75346  20.328  28.570   7.365
 5969POPC   NC375347  42.017  25.569   5.422
 5969POPC   PO475348  42.730  25.707   5.483
 5969POPC   GL175349  42.544  25.421   5.793
 5969POPC   GL275350  42.254  25.184   5.709
 5969POPC   C1A75351  42.510  25.180   6.195
 5969POPC   D2A75352  42.297  24.986   6.571
 5969POPC   C3A75353  42.472  25.184   6.942
 5969POPC   C4A75354  42.677  25.212   7.347
 5969POPC   C1B75355  42.086  25.442   6.061
 5969POPC   C2B75356  42.009  25.414   6.513
 5969POPC   C3B75357  42.160  25.594   6.866
 5969POPC   C4B75358  42.342  25.555   7.268
 5970POPC   NC375359  33.377  17.441   5.423
 5970POPC   PO475360  32.938  17.986   5.271
 5970POPC   GL175361  33.032  17.759   5.719
 5970POPC   GL275362  33.053  17.397   5.795
 5970POPC   C1A75363  33.170  17.678   6.189
 5970POPC   D2A75364  33.235  17.454   6.586
 5970POPC   C3A75365  33.154  17.673   6.907
 5970POPC   C4A75366  33.127  17.481   7.247
 5970POPC   C1B75367  33.144  17.156   6.146
 5970POPC   C2B75368  32.880  17.105   6.500
 5970POPC   C3B75369  32.990  17.103   6.920
 5970POPC   C4B75370  32.806  17.055   7.320
 5971POPC   NC375371  13.820  30.657   5.365
 5971POPC   PO475372  13.244  30.359   5.213
 5971POPC   GL175373  13.485  30.592   5.711
 5971POPC   GL275374  13.816  30.764   5.855
 5971POPC   C1A75375  13.419  30.638   6.153
 5971POPC   D2A75376  13.663  30.790   6.509
 5971POPC   C3A75377  13.517  30.668   6.916
 5971POPC   C4A75378  13.378  30.661   7.330
 5971POPC   C1B75379  13.892  30.408   6.155
 5971POPC   C2B75380  13.790  30.292   6.588
 5971POPC   C3B75381  13.941  30.406   6.989
 5971POPC   C4B75382  13.894  30.784   7.260
 5972POPC   NC375383  13.515  33.001   5.317
 5972POPC   PO475384  14.102  32.702   5.484
 5972POPC   GL175385  13.822  32.834   5.790
 5972POPC   GL275386  13.739  33.175   5.775
 5972POPC   C1A75387  13.792  32.836   6.251
 5972POPC   D2A75388  13.786  32.923   6.704
 5972POPC   C3A75389  13.383  32.888   6.881
 5972POPC   C4A75390  13.221  32.866   7.278
 5972POPC   C1B75391  13.597  33.352   6.198
 5972POPC   C2B75392  13.686  33.519   6.625
 5972POPC   C3B75393  13.523  33.379   7.015
 5972POPC   C4B75394  13.417  33.312   7.491
 5973POPC   NC375395  27.933  29.209   5.474
 5973POPC   PO475396  27.246  29.137   5.345
 5973POPC   GL175397  27.518  29.092   5.773
 5973POPC   GL275398  27.830  28.856   5.878
 5973POPC   C1A75399  27.475  29.208   6.223
 5973POPC   D2A75400  27.419  29.053   6.656
 5973POPC   C3A75401  27.324  29.342   6.998
 5973POPC   C4A75402  27.432  29.336   7.416
 5973POPC   C1B75403  27.665  28.751   6.302
 5973POPC   C2B75404  27.848  28.763   6.733
 5973POPC   C3B75405  27.755  29.021   7.100
 5973POPC   C4B75406  27.733  28.947   7.542
 5974POPC   NC375407  27.061  43.508   5.533
 5974POPC   PO475408  26.561  43.069   5.408
 5974POPC   GL175409  26.727  43.230   5.837
 5974POPC   GL275410  27.066  43.237   5.949
 5974POPC   C1A75411  26.534  43.035   6.227
 5974POPC   D2A75412  26.334  42.868   6.557
 5974POPC   C3A75413  26.470  43.128   6.862
 5974POPC   C4A75414  26.612  43.034   7.207
 5974POPC   C1B75415  26.952  43.317   6.320
 5974POPC   C2B75416  26.914  43.023   6.612
 5974POPC   C3B75417  27.037  43.131   6.979
 5974POPC   C4B75418  27.100  42.905   7.316
 5975POPC   NC375419  41.919  23.965   5.767
 5975POPC   PO475420  42.356  23.686   5.376
 5975POPC   GL175421  42.395  23.800   5.793
 5975POPC   GL275422  42.409  24.153   5.738
 5975POPC   C1A75423  42.341  23.681   6.245
 5975POPC   D2A75424  42.461  23.512   6.651
 5975POPC   C3A75425  42.332  23.707   7.014
 5975POPC   C4A75426  42.093  23.579   7.402
 5975POPC   C1B75427  42.563  24.155   6.168
 5975POPC   C2B75428  42.652  24.001   6.589
 5975POPC   C3B75429  42.556  24.169   6.999
 5975POPC   C4B75430  42.201  24.093   7.292
 5976POPC   NC375431  32.736  14.384   5.309
 5976POPC   PO475432  33.292  14.022   5.480
 5976POPC   GL175433  32.975  14.183   5.743
 5976POPC   GL275434  32.884  14.558   5.792
 5976POPC   C1A75435  32.928  14.269   6.195
 5976POPC   D2A75436  33.004  14.492   6.602
 5976POPC   C3A75437  32.999  14.248   6.992
 5976POPC   C4A75438  33.199  14.216   7.423
 5976POPC   C1B75439  32.795  14.773   6.194
 5976POPC   C2B75440  32.572  14.769   6.598
 5976POPC   C3B75441  32.783  14.755   7.009
 5976POPC   C4B75442  32.862  14.604   7.457
 5977POPC   NC375443   1.786  22.426   5.356
 5977POPC   PO475444   1.525  21.852   5.386
 5977POPC   GL175445   1.889  21.905   5.701
 5977POPC   GL275446   1.877  22.216   5.827
 5977POPC   C1A75447   2.176  21.936   6.121
 5977POPC   D2A75448   1.982  22.033   6.542
 5977POPC   C3A75449   2.141  22.111   6.958
 5977POPC   C4A75450   1.958  22.234   7.386
 5977POPC   C1B75451   1.677  22.283   6.212
 5977POPC   C2B75452   1.566  22.396   6.635
 5977POPC   C3B75453   1.622  22.151   7.004
 5977POPC   C4B75454   1.433  22.187   7.389
 5978POPC   NC375455  42.395  24.714   5.247
 5978POPC   PO475456  41.967  24.308   5.456
 5978POPC   GL175457  42.148  24.602   5.761
 5978POPC   GL275458  42.057  24.381   6.036
 5978POPC   C1A75459  42.443  24.662   6.161
 5978POPC   D2A75460  42.390  24.469   6.596
 5978POPC   C3A75461  42.487  24.679   7.006
 5978POPC   C4A75462  42.266  24.873   7.363
 5978POPC   C1B75463  42.093  24.101   6.389
 5978POPC   C2B75464  42.041  24.151   6.823
 5978POPC   C3B75465  42.004  24.522   7.082
 5978POPC   C4B75466  41.949  24.468   7.540
 5979POPC   NC375467  19.204   4.475   5.172
 5979POPC   PO475468  19.681   4.488   5.686
 5979POPC   GL175469  19.366   4.297   5.891
 5979POPC   GL275470  19.069   4.292   5.680
 5979POPC   C1A75471  19.199   4.376   6.291
 5979POPC   D2A75472  18.970   4.203   6.608
 5979POPC   C3A75473  19.145   4.357   6.983
 5979POPC   C4A75474  18.994   4.186   7.391
 5979POPC   C1B75475  18.966   4.677   5.939
 5979POPC   C2B75476  18.890   4.836   6.371
 5979POPC   C3B75477  18.791   4.674   6.774
 5979POPC   C4B75478  18.771   4.609   7.220
 5980POPC   NC375479  16.976  38.165   5.504
 5980POPC   PO475480  16.712  37.583   5.347
 5980POPC   GL175481  16.621  37.553   5.763
 5980POPC   GL275482  16.660  37.886   5.812
 5980POPC   C1A75483  16.326  37.572   6.098
 5980POPC   D2A75484  16.452  37.590   6.504
 5980POPC   C3A75485  16.435  37.419   6.883
 5980POPC   C4A75486  16.758  37.609   7.114
 5980POPC   C1B75487  16.674  37.969   6.214
 5980POPC   C2B75488  16.947  37.831   6.530
 5980POPC   C3B75489  17.033  37.986   6.909
 5980POPC   C4B75490  16.738  38.133   7.201
 5981POPC   NC375491  15.512  17.313   5.445
 5981POPC   PO475492  14.844  17.202   5.409
 5981POPC   GL175493  15.111  17.479   5.730
 5981POPC   GL275494  15.391  17.765   5.786
 5981POPC   C1A75495  15.140  17.517   6.172
 5981POPC   D2A75496  14.771  17.588   6.421
 5981POPC   C3A75497  14.805  17.576   6.888
 5981POPC   C4A75498  14.906  17.360   7.275
 5981POPC   C1B75499  15.399  17.941   6.257
 5981POPC   C2B75500  15.223  17.798   6.645
 5981POPC   C3B75501  15.319  17.649   7.063
 5981POPC   C4B75502  15.498  17.776   7.455
 5982POPC   NC375503  30.757  13.763   5.562
 5982POPC   PO475504  30.191  13.712   5.163
 5982POPC   GL175505  30.251  13.846   5.646
 5982POPC   GL275506  30.357  13.555   5.892
 5982POPC   C1A75507  30.443  13.996   6.095
 5982POPC   D2A75508  30.744  13.738   6.376
 5982POPC   C3A75509  30.637  13.770   6.818
 5982POPC   C4A75510  30.403  13.992   7.205
 5982POPC   C1B75511  30.546  13.279   6.212
 5982POPC   C2B75512  30.726  13.228   6.634
 5982POPC   C3B75513  30.714  13.336   7.060
 5982POPC   C4B75514  30.848  13.739   7.276
 5983POPC   NC375515  23.384  37.039   5.509
 5983POPC   PO475516  23.827  36.524   5.502
 5983POPC   GL175517  23.802  36.874   5.804
 5983POPC   GL275518  23.885  37.224   5.704
 5983POPC   C1A75519  23.601  37.036   6.177
 5983POPC   D2A75520  23.515  36.914   6.601
 5983POPC   C3A75521  23.845  36.973   6.898
 5983POPC   C4A75522  23.712  37.111   7.284
 5983POPC   C1B75523  23.988  37.405   6.118
 5983POPC   C2B75524  23.915  37.365   6.560
 5983POPC   C3B75525  23.994  37.528   6.979
 5983POPC   C4B75526  24.022  37.463   7.441
 5984POPC   NC375527  15.183   6.415   5.324
 5984POPC   PO475528  15.308   7.126   5.357
 5984POPC   GL175529  15.267   6.797   5.683
 5984POPC   GL275530  15.008   6.980   5.808
 5984POPC   C1A75531  15.023   6.524   6.026
 5984POPC   D2A75532  15.107   6.448   6.501
 5984POPC   C3A75533  14.874   6.487   6.912
 5984POPC   C4A75534  15.056   6.530   7.300
 5984POPC   C1B75535  15.204   6.936   6.261
 5984POPC   C2B75536  15.133   6.933   6.736
 5984POPC   C3B75537  15.045   7.023   7.198
 5984POPC   C4B75538  14.837   7.146   7.608
 5985POPC   NC375539  18.579   2.315   5.337
 5985POPC   PO475540  18.013   1.940   5.316
 5985POPC   GL175541  18.278   1.973   5.738
 5985POPC   GL275542  18.562   2.177   5.817
 5985POPC   C1A75543  18.394   1.840   6.180
 5985POPC   D2A75544  18.255   2.008   6.598
 5985POPC   C3A75545  18.460   1.845   6.982
 5985POPC   C4A75546  18.385   1.817   7.442
 5985POPC   C1B75547  18.492   2.351   6.185
 5985POPC   C2B75548  18.677   2.424   6.562
 5985POPC   C3B75549  18.455   2.356   6.940
 5985POPC   C4B75550  18.594   2.242   7.305
 5986POPC   NC375551  39.661  39.115   5.448
 5986POPC   PO475552  40.174  39.398   5.194
 5986POPC   GL175553  40.048  39.417   5.650
 5986POPC   GL275554  40.204  39.125   5.759
 5986POPC   C1A75555  39.886  39.300   6.099
 5986POPC   D2A75556  40.138  39.303   6.486
 5986POPC   C3A75557  39.955  39.353   6.882
 5986POPC   C4A75558  39.677  39.136   7.133
 5986POPC   C1B75559  40.306  38.909   6.134
 5986POPC   C2B75560  40.545  38.900   6.489
 5986POPC   C3B75561  40.345  38.971   6.877
 5986POPC   C4B75562  40.476  39.028   7.288
 5987POPC   NC375563  35.720  26.033   5.614
 5987POPC   PO475564  36.328  25.680   5.425
 5987POPC   GL175565  36.185  25.889   5.760
 5987POPC   GL275566  36.268  26.213   5.802
 5987POPC   C1A75567  36.033  25.915   6.172
 5987POPC   D2A75568  36.202  25.842   6.555
 5987POPC   C3A75569  36.088  26.151   6.837
 5987POPC   C4A75570  36.050  25.985   7.223
 5987POPC   C1B75571  36.347  26.322   6.262
 5987POPC   C2B75572  36.580  26.239   6.673
 5987POPC   C3B75573  36.487  26.313   7.139
 5987POPC   C4B75574  36.612  26.562   7.498
 5988POPC   NC375575  27.918  17.271   5.541
 5988POPC   PO475576  27.257  17.567   5.472
 5988POPC   GL175577  27.462  17.618   5.898
 5988POPC   GL275578  27.579  17.320   5.897
 5988POPC   C1A75579  27.665  17.558   6.347
 5988POPC   D2A75580  27.432  17.477   6.746
 5988POPC   C3A75581  27.690  17.574   7.113
 5988POPC   C4A75582  27.714  17.713   7.568
 5988POPC   C1B75583  27.431  17.130   6.223
 5988POPC   C2B75584  27.627  17.026   6.604
 5988POPC   C3B75585  27.786  17.063   7.048
 5988POPC   C4B75586  27.616  17.200   7.456
 5989POPC   NC375587  34.248  32.210   5.069
 5989POPC   PO475588  34.697  31.989   5.494
 5989POPC   GL175589  34.744  32.113   5.885
 5989POPC   GL275590  35.025  32.303   5.914
 5989POPC   C1A75591  34.480  32.006   6.224
 5989POPC   D2A75592  34.422  32.174   6.610
 5989POPC   C3A75593  34.466  31.856   6.885
 5989POPC   C4A75594  34.655  32.018   7.212
 5989POPC   C1B75595  34.912  32.236   6.364
 5989POPC   C2B75596  34.894  32.237   6.809
 5989POPC   C3B75597  35.125  32.218   7.193
 5989POPC   C4B75598  35.168  32.235   7.650
 5990POPC   NC375599  11.384  33.643   5.523
 5990POPC   PO475600  11.134  34.188   5.275
 5990POPC   GL175601  11.264  34.108   5.745
 5990POPC   GL275602  11.623  33.991   5.837
 5990POPC   C1A75603  11.271  33.808   6.145
 5990POPC   D2A75604  11.337  33.782   6.580
 5990POPC   C3A75605  11.015  33.593   6.844
 5990POPC   C4A75606  10.945  33.621   7.292
 5990POPC   C1B75607  11.627  34.170   6.270
 5990POPC   C2B75608  11.774  34.063   6.691
 5990POPC   C3B75609  11.848  34.005   7.135
 5990POPC   C4B75610  11.657  34.028   7.566
 5991POPC   NC375611   0.205  29.660   5.475
 5991POPC   PO475612   0.110  30.308   5.434
 5991POPC   GL175613   0.303  30.082   5.819
 5991POPC   GL275614   0.568  29.825   5.807
 5991POPC   C1A75615   0.505  30.066   6.268
 5991POPC   D2A75616   0.747  30.120   6.671
 5991POPC   C3A75617   0.478  30.126   7.050
 5991POPC   C4A75618   0.286  30.386   7.389
 5991POPC   C1B75619   0.327  29.612   6.145
 5991POPC   C2B75620   0.204  29.714   6.577
 5991POPC   C3B75621   0.351  29.599   7.004
 5991POPC   C4B75622   0.504  29.742   7.409
 5992POPC   NC375623  35.196  13.290   5.423
 5992POPC   PO475624  35.457  13.908   5.369
 5992POPC   GL175625  35.512  13.629   5.742
 5992POPC   GL275626  35.194  13.755   5.869
 5992POPC   C1A75627  35.676  13.454   6.170
 5992POPC   D2A75628  35.704  13.462   6.644
 5992POPC   C3A75629  35.311  13.605   6.879
 5992POPC   C4A75630  35.067  13.495   7.254
 5992POPC   C1B75631  35.461  13.941   6.191
 5992POPC   C2B75632  35.625  13.972   6.619
 5992POPC   C3B75633  35.612  13.983   7.060
 5992POPC   C4B75634  35.232  14.001   7.309
 5993POPC   NC375635   3.969  21.721   5.148
 5993POPC   PO475636   4.353  22.197   5.462
 5993POPC   GL175637   4.116  22.255   5.831
 5993POPC   GL275638   4.054  22.614   5.806
 5993POPC   C1A75639   4.114  22.034   6.242
 5993POPC   D2A75640   4.469  21.907   6.499
 5993POPC   C3A75641   4.376  21.978   6.914
 5993POPC   C4A75642   4.640  22.028   7.252
 5993POPC   C1B75643   4.214  22.566   6.238
 5993POPC   C2B75644   4.156  22.359   6.636
 5993POPC   C3B75645   4.128  22.487   7.045
 5993POPC   C4B75646   4.481  22.508   7.345
 5994POPC   NC375647  14.772  27.238   5.319
 5994POPC   PO475648  14.340  27.738   5.280
 5994POPC   GL175649  14.448  27.680   5.749
 5994POPC   GL275650  14.542  27.322   5.803
 5994POPC   C1A75651  14.425  27.583   6.229
 5994POPC   D2A75652  14.278  27.714   6.636
 5994POPC   C3A75653  14.391  27.493   7.017
 5994POPC   C4A75654  14.444  27.618   7.440
 5994POPC   C1B75655  14.754  27.199   6.194
 5994POPC   C2B75656  14.804  27.409   6.614
 5994POPC   C3B75657  14.868  27.242   7.033
 5994POPC   C4B75658  14.673  27.181   7.456
 5995POPC   NC375659  36.414  11.023   5.553
 5995POPC   PO475660  35.952  10.438   5.523
 5995POPC   GL175661  36.159  10.671   5.828
 5995POPC   GL275662  35.889  10.860   5.904
 5995POPC   C1A75663  36.353  10.692   6.249
 5995POPC   D2A75664  36.495  10.438   6.594
 5995POPC   C3A75665  36.356  10.436   7.002
 5995POPC   C4A75666  36.367  10.733   7.280
 5995POPC   C1B75667  35.860  10.521   6.237
 5995POPC   C2B75668  35.998  10.625   6.659
 5995POPC   C3B75669  35.875  10.613   7.102
 5995POPC   C4B75670  36.057  10.327   7.429
 5996POPC   NC375671  17.507   6.670   5.198
 5996POPC   PO475672  17.909   6.416   5.589
 5996POPC   GL175673  17.581   6.678   5.851
 5996POPC   GL275674  17.201   6.753   5.803
 5996POPC   C1A75675  17.518   6.799   6.302
 5996POPC   D2A75676  17.349   6.981   6.703
 5996POPC   C3A75677  17.470   6.704   7.010
 5996POPC   C4A75678  17.636   6.754   7.383
 5996POPC   C1B75679  17.042   6.590   6.207
 5996POPC   C2B75680  17.207   6.473   6.625
 5996POPC   C3B75681  17.157   6.278   7.040
 5996POPC   C4B75682  17.215   6.465   7.473
 5997POPC   NC375683   4.360   7.649   5.278
 5997POPC   PO475684   4.909   7.289   5.434
 5997POPC   GL175685   4.552   7.326   5.733
 5997POPC   GL275686   4.292   7.613   5.782
 5997POPC   C1A75687   4.426   7.310   6.179
 5997POPC   D2A75688   4.474   7.567   6.546
 5997POPC   C3A75689   4.354   7.332   6.872
 5997POPC   C4A75690   4.607   7.163   7.141
 5997POPC   C1B75691   3.942   7.546   6.110
 5997POPC   C2B75692   3.942   7.594   6.589
 5997POPC   C3B75693   4.110   7.743   7.021
 5997POPC   C4B75694   4.296   7.486   7.379
 5998POPC   NC375695   1.185   8.748   5.270
 5998POPC   PO475696   0.855   9.320   5.420
 5998POPC   GL175697   1.223   9.118   5.706
 5998POPC   GL275698   1.162   8.798   5.778
 5998POPC   C1A75699   1.405   9.068   6.183
 5998POPC   D2A75700   1.342   9.244   6.653
 5998POPC   C3A75701   1.377   8.986   7.053
 5998POPC   C4A75702   1.317   9.010   7.518
 5998POPC   C1B75703   0.959   8.813   6.162
 5998POPC   C2B75704   1.093   8.801   6.579
 5998POPC   C3B75705   0.896   8.836   6.976
 5998POPC   C4B75706   0.961   8.676   7.357
 5999POPC   NC375707  44.099  35.766   5.677
 5999POPC   PO475708  43.781  36.169   5.182
 5999POPC   GL175709  43.873  36.264   5.624
 5999POPC   GL275710  44.156  36.458   5.639
 5999POPC   C1A75711  43.657  36.324   6.040
 5999POPC   D2A75712  43.686  36.507   6.450
 5999POPC   C3A75713  43.530  36.244   6.807
 5999POPC   C4A75714  43.689  36.064   7.184
 5999POPC   C1B75715  44.174  36.327   6.064
 5999POPC   C2B75716  44.231  36.459   6.494
 5999POPC   C3B75717  44.040  36.402   6.897
 5999POPC   C4B75718  44.201  36.196   7.230
 6000POPC   NC375719  11.821  11.481   5.480
 6000POPC   PO475720  12.434  11.207   5.561
 6000POPC   GL175721  12.256  11.489   5.868
 6000POPC   GL275722  11.905  11.450   5.966
 6000POPC   C1A75723  12.279  11.467   6.303
 6000POPC   D2A75724  12.346  11.155   6.592
 6000POPC   C3A75725  12.161  11.143   6.992
 6000POPC   C4A75726  12.349  11.137   7.390
 6000POPC   C1B75727  11.678  11.417   6.330
 6000POPC   C2B75728  11.913  11.507   6.683
 6000POPC   C3B75729  12.100  11.650   7.042
 6000POPC   C4B75730  11.954  11.463   7.351
 6001POPC   NC375731   4.441   3.114   5.534
 6001POPC   PO475732   4.134   2.575   5.308
 6001POPC   GL175733   4.250   2.637   5.756
 6001POPC   GL275734   4.082   2.928   5.825
 6001POPC   C1A75735   4.449   2.797   6.155
 6001POPC   D2A75736   4.284   2.741   6.579
 6001POPC   C3A75737   4.453   2.844   6.979
 6001POPC   C4A75738   4.189   2.526   7.136
 6001POPC   C1B75739   4.041   3.082   6.237
 6001POPC   C2B75740   3.935   3.267   6.606
 6001POPC   C3B75741   3.950   2.994   6.926
 6001POPC   C4B75742   3.944   2.971   7.347
 6002POPC   NC375743  32.440  40.810   5.461
 6002POPC   PO475744  31.821  41.139   5.477
 6002POPC   GL175745  32.046  40.927   5.833
 6002POPC   GL275746  32.251  40.593   5.876
 6002POPC   C1A75747  32.268  41.003   6.243
 6002POPC   D2A75748  32.225  41.180   6.671
 6002POPC   C3A75749  32.341  40.906   7.034
 6002POPC   C4A75750  32.550  41.161   7.359
 6002POPC   C1B75751  32.404  40.381   6.245
 6002POPC   C2B75752  32.359  40.498   6.665
 6002POPC   C3B75753  32.531  40.394   7.050
 6002POPC   C4B75754  32.405  40.503   7.446
 6003POPC   NC375755  39.427  24.356   5.557
 6003POPC   PO475756  40.077  24.330   5.324
 6003POPC   GL175757  40.181  24.547   5.693
 6003POPC   GL275758  40.380  24.293   5.793
 6003POPC   C1A75759  40.007  24.513   6.110
 6003POPC   D2A75760  39.730  24.457   6.450
 6003POPC   C3A75761  39.902  24.569   6.829
 6003POPC   C4A75762  39.749  24.545   7.204
 6003POPC   C1B75763  40.350  24.121   6.178
 6003POPC   C2B75764  40.230  24.277   6.562
 6003POPC   C3B75765  40.435  24.418   6.940
 6003POPC   C4B75766  40.473  24.208   7.331
 6004POPC   NC375767  21.858  27.369   5.445
 6004POPC   PO475768  21.239  27.689   5.334
 6004POPC   GL175769  21.290  27.436   5.695
 6004POPC   GL275770  20.945  27.361   5.826
 6004POPC   C1A75771  21.584  27.411   6.070
 6004POPC   D2A75772  21.820  27.298   6.464
 6004POPC   C3A75773  21.658  27.395   6.897
 6004POPC   C4A75774  21.586  27.576   7.316
 6004POPC   C1B75775  21.116  27.632   6.134
 6004POPC   C2B75776  21.337  27.565   6.516
 6004POPC   C3B75777  21.173  27.589   6.925
 6004POPC   C4B75778  21.079  27.455   7.328
 6005POPC   NC375779  29.541  10.804   5.197
 6005POPC   PO475780  30.169  10.539   5.330
 6005POPC   GL175781  30.140  10.636   5.812
 6005POPC   GL275782  29.799  10.816   5.866
 6005POPC   C1A75783  30.086  10.600   6.278
 6005POPC   D2A75784  29.849  10.549   6.673
 6005POPC   C3A75785  30.021  10.412   7.061
 6005POPC   C4A75786  29.822   9.997   7.129
 6005POPC   C1B75787  29.567  10.815   6.278
 6005POPC   C2B75788  29.478  10.878   6.735
 6005POPC   C3B75789  29.723  11.037   7.056
 6005POPC   C4B75790  29.818  10.844   7.416
 6006POPC   NC375791  25.582  20.090   5.346
 6006POPC   PO475792  24.916  19.822   5.472
 6006POPC   GL175793  25.265  19.899   5.716
 6006POPC   GL275794  25.233  19.630   5.962
 6006POPC   C1A75795  25.554  20.010   6.049
 6006POPC   D2A75796  25.356  19.924   6.462
 6006POPC   C3A75797  25.511  19.782   6.855
 6006POPC   C4A75798  25.405  19.997   7.242
 6006POPC   C1B75799  24.931  19.926   6.162
 6006POPC   C2B75800  24.899  20.208   6.536
 6006POPC   C3B75801  25.012  19.994   6.881
 6006POPC   C4B75802  24.867  19.924   7.250
 6007POPC   NC375803  10.363   3.170   5.367
 6007POPC   PO475804  10.247   3.883   5.373
 6007POPC   GL175805  10.525   3.559   5.621
 6007POPC   GL275806  10.526   3.667   5.895
 6007POPC   C1A75807  10.428   3.220   6.031
 6007POPC   D2A75808  10.476   3.497   6.409
 6007POPC   C3A75809  10.536   3.405   6.893
 6007POPC   C4A75810  10.424   3.105   7.290
 6007POPC   C1B75811  10.830   3.838   6.142
 6007POPC   C2B75812  10.792   3.949   6.545
 6007POPC   C3B75813  10.860   3.800   6.960
 6007POPC   C4B75814  10.806   3.848   7.422
 6008POPC   NC375815  16.559   6.700   5.159
 6008POPC   PO475816  17.122   6.913   5.223
 6008POPC   GL175817  16.765   6.916   5.575
 6008POPC   GL275818  16.621   6.581   5.674
 6008POPC   C1A75819  16.629   6.962   6.030
 6008POPC   D2A75820  16.512   6.919   6.471
 6008POPC   C3A75821  16.852   6.845   6.724
 6008POPC   C4A75822  16.961   6.759   7.141
 6008POPC   C1B75823  16.590   6.325   6.073
 6008POPC   C2B75824  16.767   6.252   6.495
 6008POPC   C3B75825  16.675   6.394   6.903
 6008POPC   C4B75826  16.426   6.332   7.274
 6009POPC   NC375827  10.198  35.069   5.468
 6009POPC   PO475828  10.563  35.620   5.303
 6009POPC   GL175829  10.659  35.290   5.649
 6009POPC   GL275830  10.354  35.310   5.894
 6009POPC   C1A75831  10.805  35.233   6.099
 6009POPC   D2A75832  10.484  35.351   6.447
 6009POPC   C3A75833  10.623  35.205   6.849
 6009POPC   C4A75834  10.779  35.032   7.227
 6009POPC   C1B75835  10.156  35.641   6.126
 6009POPC   C2B75836  10.064  35.740   6.560
 6009POPC   C3B75837  10.308  35.597   6.887
 6009POPC   C4B75838  10.405  35.425   7.292
 6010POPC   NC375839   5.443  36.046   5.498
 6010POPC   PO475840   4.846  36.382   5.455
 6010POPC   GL175841   4.892  36.050   5.814
 6010POPC   GL275842   5.211  35.854   5.906
 6010POPC   C1A75843   4.923  36.076   6.264
 6010POPC   D2A75844   5.107  36.399   6.534
 6010POPC   C3A75845   4.940  36.240   6.900
 6010POPC   C4A75846   5.075  35.993   7.244
 6010POPC   C1B75847   5.426  35.930   6.269
 6010POPC   C2B75848   5.275  35.922   6.668
 6010POPC   C3B75849   5.512  35.799   7.028
 6010POPC   C4B75850   5.490  35.754   7.435
 6011POPC   NC375851   5.016   2.296   5.561
 6011POPC   PO475852   4.693   1.786   5.373
 6011POPC   GL175853   4.921   1.769   5.739
 6011POPC   GL275854   5.280   1.895   5.757
 6011POPC   C1A75855   4.937   1.943   6.146
 6011POPC   D2A75856   5.114   2.134   6.507
 6011POPC   C3A75857   4.963   1.952   6.883
 6011POPC   C4A75858   5.082   2.058   7.277
 6011POPC   C1B75859   5.379   1.711   6.200
 6011POPC   C2B75860   5.253   1.592   6.650
 6011POPC   C3B75861   5.456   1.806   7.029
 6011POPC   C4B75862   5.563   2.125   7.353
 6012POPC   NC375863   4.703  12.223   5.358
 6012POPC   PO475864   5.192  11.893   5.637
 6012POPC   GL175865   5.022  12.224   5.884
 6012POPC   GL275866   4.710  12.425   5.838
 6012POPC   C1A75867   5.058  12.182   6.319
 6012POPC   D2A75868   5.293  12.154   6.668
 6012POPC   C3A75869   5.059  12.335   6.983
 6012POPC   C4A75870   4.794  12.005   7.144
 6012POPC   C1B75871   4.797  12.612   6.238
 6012POPC   C2B75872   4.679  12.402   6.628
 6012POPC   C3B75873   4.581  12.493   7.075
 6012POPC   C4B75874   4.784  12.386   7.476
 6013POPC   NC375875  28.057  44.014   5.383
 6013POPC   PO475876  28.763  44.083   5.491
 6013POPC   GL175877  28.400  44.174   5.727
 6013POPC   GL275878  28.300  43.803   5.793
 6013POPC   C1A75879  28.236  44.158   6.143
 6013POPC   D2A75880  28.552  44.100   6.446
 6013POPC   C3A75881  28.472  44.205   6.858
 6013POPC   C4A75882  28.650  44.090   7.251
 6013POPC   C1B75883  28.277  43.662   6.251
 6013POPC   C2B75884  28.186  43.810   6.659
 6013POPC   C3B75885  28.418  43.695   7.008
 6013POPC   C4B75886  28.424  43.593   7.420
 6014POPC   NC375887  24.664   7.833   5.054
 6014POPC   PO475888  24.780   8.516   5.327
 6014POPC   GL175889  24.552   8.224   5.672
 6014POPC   GL275890  24.322   8.403   5.881
 6014POPC   C1A75891  24.443   7.940   6.081
 6014POPC   D2A75892  24.721   7.859   6.449
 6014POPC   C3A75893  24.721   8.106   6.822
 6014POPC   C4A75894  24.794   8.089   7.245
 6014POPC   C1B75895  24.485   8.370   6.319
 6014POPC   C2B75896  24.271   8.085   6.595
 6014POPC   C3B75897  24.260   8.087   7.030
 6014POPC   C4B75898  24.364   8.375   7.356
 6015POPC   NC375899  10.336  13.485   5.152
 6015POPC   PO475900  10.805  13.856   5.452
 6015POPC   GL175901  10.598  13.704   5.831
 6015POPC   GL275902  10.509  13.358   5.881
 6015POPC   C1A75903  10.334  13.747   6.210
 6015POPC   D2A75904  10.237  13.965   6.603
 6015POPC   C3A75905  10.192  13.724   6.986
 6015POPC   C4A75906  10.538  13.547   7.220
 6015POPC   C1B75907  10.373  13.226   6.306
 6015POPC   C2B75908  10.475  13.336   6.741
 6015POPC   C3B75909  10.895  13.362   6.916
 6015POPC   C4B75910  11.118  13.143   7.214
 6016POPC   NC375911  11.006  31.136   5.490
 6016POPC   PO475912  11.465  31.595   5.301
 6016POPC   GL175913  11.408  31.447   5.763
 6016POPC   GL275914  11.062  31.541   5.841
 6016POPC   C1A75915  11.645  31.472   6.199
 6016POPC   D2A75916  11.690  31.809   6.564
 6016POPC   C3A75917  11.539  31.749   6.992
 6016POPC   C4A75918  11.346  31.432   7.224
 6016POPC   C1B75919  11.157  31.280   6.226
 6016POPC   C2B75920  11.209  31.295   6.690
 6016POPC   C3B75921  10.904  31.279   7.029
 6016POPC   C4B75922  10.918  31.366   7.519
 6017POPC   NC375923  37.368   2.813   5.275
 6017POPC   PO475924  36.731   3.106   5.401
 6017POPC   GL175925  36.814   2.822   5.774
 6017POPC   GL275926  36.803   2.456   5.762
 6017POPC   C1A75927  36.998   2.894   6.193
 6017POPC   D2A75928  36.848   2.896   6.604
 6017POPC   C3A75929  37.059   2.979   6.959
 6017POPC   C4A75930  36.949   2.844   7.324
 6017POPC   C1B75931  36.658   2.291   6.166
 6017POPC   C2B75932  36.521   2.419   6.590
 6017POPC   C3B75933  36.683   2.548   6.972
 6017POPC   C4B75934  36.791   2.367   7.359
 6018POPC   NC375935   3.924  23.676   5.310
 6018POPC   PO475936   3.263  23.469   5.326
 6018POPC   GL175937   3.466  23.773   5.637
 6018POPC   GL275938   3.308  23.577   5.846
 6018POPC   C1A75939   3.570  23.830   6.160
 6018POPC   D2A75940   3.574  23.616   6.572
 6018POPC   C3A75941   3.620  23.797   6.992
 6018POPC   C4A75942   3.291  23.939   7.256
 6018POPC   C1B75943   3.162  23.465   6.251
 6018POPC   C2B75944   3.145  23.321   6.661
 6018POPC   C3B75945   3.217  23.471   7.052
 6018POPC   C4B75946   3.066  23.315   7.427
 6019POPC   NC375947  32.434  42.566   5.380
 6019POPC   PO475948  32.040  42.101   5.644
 6019POPC   GL175949  32.244  42.496   5.884
 6019POPC   GL275950  32.627  42.657   5.843
 6019POPC   C1A75951  32.100  42.496   6.339
 6019POPC   D2A75952  32.119  42.286   6.750
 6019POPC   C3A75953  32.013  42.487   7.140
 6019POPC   C4A75954  31.932  42.171   7.416
 6019POPC   C1B75955  32.638  42.433   6.218
 6019POPC   C2B75956  32.549  42.536   6.612
 6019POPC   C3B75957  32.574  42.328   7.002
 6019POPC   C4B75958  32.479  42.437   7.397
 6020POPC   NC375959  27.522  14.242   5.414
 6020POPC   PO475960  28.029  14.609   5.492
 6020POPC   GL175961  27.664  14.532   5.822
 6020POPC   GL275962  27.430  14.189   5.907
 6020POPC   C1A75963  27.418  14.588   6.215
 6020POPC   D2A75964  27.396  14.302   6.576
 6020POPC   C3A75965  27.329  14.479   6.983
 6020POPC   C4A75966  27.619  14.604   7.292
 6020POPC   C1B75967  27.779  14.190   6.202
 6020POPC   C2B75968  28.058  14.235   6.561
 6020POPC   C3B75969  27.819  14.263   6.945
 6020POPC   C4B75970  27.832  14.137   7.389
 6021POPC   NC375971  15.982   6.116   5.532
 6021POPC   PO475972  15.969   5.477   5.206
 6021POPC   GL175973  16.004   5.609   5.692
 6021POPC   GL275974  15.696   5.504   5.821
 6021POPC   C1A75975  16.118   5.869   6.110
 6021POPC   D2A75976  15.940   5.987   6.525
 6021POPC   C3A75977  16.076   6.104   6.950
 6021POPC   C4A75978  15.753   6.064   7.251
 6021POPC   C1B75979  15.698   5.596   6.261
 6021POPC   C2B75980  15.908   5.490   6.650
 6021POPC   C3B75981  15.943   5.592   7.091
 6021POPC   C4B75982  15.815   5.650   7.548
 6022POPC   NC375983  19.965  37.203   5.605
 6022POPC   PO475984  20.032  36.597   5.411
 6022POPC   GL175985  19.785  36.766   5.827
 6022POPC   GL275986  19.542  37.074   5.895
 6022POPC   C1A75987  19.809  36.732   6.289
 6022POPC   D2A75988  19.565  36.940   6.619
 6022POPC   C3A75989  19.730  36.868   7.009
 6022POPC   C4A75990  20.141  36.779   7.112
 6022POPC   C1B75991  19.823  37.243   6.240
 6022POPC   C2B75992  19.874  37.397   6.668
 6022POPC   C3B75993  19.967  37.307   7.108
 6022POPC   C4B75994  19.769  37.356   7.519
 6023POPC   NC375995  44.262   1.872   5.384
 6023POPC   PO475996  43.607   1.803   5.347
 6023POPC   GL175997  43.874   1.961   5.748
 6023POPC   GL275998  44.166   1.748   5.856
 6023POPC   C1A75999  43.945   2.126   6.213
 6023POPC   D2A76000  43.732   2.170   6.640
 6023POPC   C3A76001  43.881   1.978   7.027
 6023POPC   C4A76002  44.197   2.074   7.329
 6023POPC   C1B76003  44.376   1.837   6.246
 6023POPC   C2B76004  44.189   1.847   6.636
 6023POPC   C3B76005  44.360   1.703   7.023
 6023POPC   C4B76006  44.141   1.555   7.378
 6024POPC   NC376007   8.714  15.508   5.555
 6024POPC   PO476008   8.075  15.172   5.473
 6024POPC   GL176009   8.179  15.290   5.846
 6024POPC   GL276010   8.202  15.635   5.764
 6024POPC   C1A76011   8.205  15.128   6.250
 6024POPC   D2A76012   8.159  15.310   6.639
 6024POPC   C3A76013   8.306  15.110   6.997
 6024POPC   C4A76014   8.028  15.193   7.292
 6024POPC   C1B76015   8.398  15.661   6.175
 6024POPC   C2B76016   8.626  15.694   6.554
 6024POPC   C3B76017   8.504  15.810   6.951
 6024POPC   C4B76018   8.405  15.532   7.286
 6025POPC   NC376019  40.720  37.927   5.420
 6025POPC   PO476020  40.806  38.596   5.266
 6025POPC   GL176021  40.819  38.407   5.677
 6025POPC   GL276022  41.047  38.122   5.751
 6025POPC   C1A76023  40.856  38.530   6.116
 6025POPC   D2A76024  40.774  38.347   6.524
 6025POPC   C3A76025  40.743  38.633   6.878
 6025POPC   C4A76026  40.777  38.463   7.258
 6025POPC   C1B76027  41.174  38.056   6.169
 6025POPC   C2B76028  41.272  38.147   6.579
 6025POPC   C3B76029  41.153  38.336   6.913
 6025POPC   C4B76030  41.209  38.159   7.259
 6026POPC   NC376031   5.274   2.907   5.317
 6026POPC   PO476032   4.697   2.627   5.535
 6026POPC   GL176033   5.061   2.748   5.797
 6026POPC   GL276034   5.247   3.064   5.805
 6026POPC   C1A76035   5.205   2.644   6.216
 6026POPC   D2A76036   5.374   2.711   6.658
 6026POPC   C3A76037   5.125   2.446   6.950
 6026POPC   C4A76038   4.744   2.462   7.232
 6026POPC   C1B76039   5.394   3.146   6.238
 6026POPC   C2B76040   5.496   3.350   6.658
 6026POPC   C3B76041   5.347   3.194   7.060
 6026POPC   C4B76042   5.062   2.875   7.222
 6027POPC   NC376043  10.422  36.047   5.385
 6027POPC   PO476044  10.694  36.516   5.728
 6027POPC   GL176045  10.506  36.138   5.908
 6027POPC   GL276046  10.558  35.782   5.792
 6027POPC   C1A76047  10.360  36.099   6.319
 6027POPC   D2A76048  10.328  36.273   6.710
 6027POPC   C3A76049  10.546  36.125   7.054
 6027POPC   C4A76050  10.241  36.379   7.261
 6027POPC   C1B76051  10.678  35.727   6.183
 6027POPC   C2B76052  10.676  35.830   6.627
 6027POPC   C3B76053  10.823  35.662   7.040
 6027POPC   C4B76054  10.839  35.739   7.488
 6028POPC   NC376055   9.266  42.961   5.686
 6028POPC   PO476056   9.879  43.016   5.352
 6028POPC   GL176057   9.781  43.206   5.775
 6028POPC   GL276058   9.521  43.471   5.814
 6028POPC   C1A76059   9.889  43.288   6.216
 6028POPC   D2A76060   9.786  43.058   6.608
 6028POPC   C3A76061   9.938  43.214   7.009
 6028POPC   C4A76062  10.102  42.976   7.337
 6028POPC   C1B76063   9.357  43.308   6.221
 6028POPC   C2B76064   9.230  43.214   6.643
 6028POPC   C3B76065   9.432  43.274   7.015
 6028POPC   C4B76066   9.588  43.119   7.380
 6029POPC   NC376067  14.071   6.131   5.226
 6029POPC   PO476068  13.474   5.775   5.312
 6029POPC   GL176069  13.646   5.825   5.752
 6029POPC   GL276070  13.857   6.157   5.782
 6029POPC   C1A76071  13.611   5.879   6.223
 6029POPC   D2A76072  13.713   6.067   6.613
 6029POPC   C3A76073  13.527   5.843   6.950
 6029POPC   C4A76074  13.667   5.838   7.351
 6029POPC   C1B76075  13.438   6.287   5.993
 6029POPC   C2B76076  13.270   6.276   6.446
 6029POPC   C3B76077  13.359   6.321   6.888
 6029POPC   C4B76078  13.248   6.115   7.279
 6030POPC   NC376079  43.056  31.335   5.391
 6030POPC   PO476080  43.578  31.011   5.379
 6030POPC   GL176081  43.268  31.079   5.792
 6030POPC   GL276082  43.009  31.408   5.889
 6030POPC   C1A76083  43.214  31.187   6.280
 6030POPC   D2A76084  43.268  31.074   6.705
 6030POPC   C3A76085  43.108  31.212   7.092
 6030POPC   C4A76086  43.403  31.499   7.255
 6030POPC   C1B76087  43.022  31.696   6.298
 6030POPC   C2B76088  42.798  31.891   6.681
 6030POPC   C3B76089  42.756  31.667   7.092
 6030POPC   C4B76090  43.000  31.746   7.474
 6031POPC   NC376091  41.212   7.047   5.744
 6031POPC   PO476092  41.283   6.440   5.575
 6031POPC   GL176093  41.481   6.457   5.935
 6031POPC   GL276094  41.699   6.719   5.799
 6031POPC   C1A76095  41.253   6.528   6.313
 6031POPC   D2A76096  41.348   6.814   6.629
 6031POPC   C3A76097  41.579   6.563   6.872
 6031POPC   C4A76098  41.409   6.443   7.246
 6031POPC   C1B76099  41.731   6.823   6.243
 6031POPC   C2B76100  41.937   7.046   6.599
 6031POPC   C3B76101  41.948   6.861   7.032
 6031POPC   C4B76102  41.941   6.405   7.223
 6032POPC   NC376103  25.921  43.367   5.507
 6032POPC   PO476104  26.152  42.776   5.266
 6032POPC   GL176105  26.193  42.820   5.718
 6032POPC   GL276106  26.230  43.160   5.835
 6032POPC   C1A76107  26.008  42.805   6.140
 6032POPC   D2A76108  25.767  43.013   6.473
 6032POPC   C3A76109  25.967  43.075   6.851
 6032POPC   C4A76110  26.130  42.907   7.231
 6032POPC   C1B76111  26.040  43.345   6.205
 6032POPC   C2B76112  26.176  43.495   6.626
 6032POPC   C3B76113  26.036  43.584   7.035
 6032POPC   C4B76114  25.789  43.309   7.255
 6033POPC   NC376115   8.836  34.221   5.407
 6033POPC   PO476116   8.998  34.873   5.513
 6033POPC   GL176117   8.819  34.564   5.782
 6033POPC   GL276118   9.072  34.315   5.862
 6033POPC   C1A76119   8.648  34.418   6.184
 6033POPC   D2A76120   8.540  34.452   6.618
 6033POPC   C3A76121   8.806  34.293   6.926
 6033POPC   C4A76122   8.771  34.318   7.338
 6033POPC   C1B76123   9.130  34.592   6.220
 6033POPC   C2B76124   9.159  34.608   6.685
 6033POPC   C3B76125   9.036  34.742   7.104
 6033POPC   C4B76126   8.967  34.717   7.557
 6034POPC   NC376127  23.983  40.071   5.502
 6034POPC   PO476128  23.339  39.854   5.436
 6034POPC   GL176129  23.598  39.820   5.752
 6034POPC   GL276130  23.599  40.169   5.846
 6034POPC   C1A76131  23.563  39.698   6.170
 6034POPC   D2A76132  23.459  39.849   6.556
 6034POPC   C3A76133  23.448  39.642   6.908
 6034POPC   C4A76134  23.332  39.859   7.239
 6034POPC   C1B76135  23.710  40.202   6.275
 6034POPC   C2B76136  23.953  40.024   6.608
 6034POPC   C3B76137  23.808  40.060   7.017
 6034POPC   C4B76138  23.647  40.290   7.372
 6035POPC   NC376139  37.201  36.373   5.406
 6035POPC   PO476140  36.829  35.882   5.359
 6035POPC   GL176141  37.062  36.014   5.747
 6035POPC   GL276142  36.896  36.337   5.817
 6035POPC   C1A76143  37.211  36.091   6.176
 6035POPC   D2A76144  37.090  36.302   6.556
 6035POPC   C3A76145  37.087  36.046   6.945
 6035POPC   C4A76146  37.015  36.276   7.330
 6035POPC   C1B76147  36.715  36.220   6.210
 6035POPC   C2B76148  36.690  35.987   6.617
 6035POPC   C3B76149  36.574  36.159   7.043
 6035POPC   C4B76150  36.506  36.381   7.448
 6036POPC   NC376151  21.160  18.512   5.045
 6036POPC   PO476152  20.612  18.512   5.456
 6036POPC   GL176153  20.642  18.516   5.836
 6036POPC   GL276154  20.606  18.140   5.807
 6036POPC   C1A76155  20.687  18.426   6.227
 6036POPC   D2A76156  20.405  18.458   6.511
 6036POPC   C3A76157  20.629  18.517   6.840
 6036POPC   C4A76158  20.618  18.574   7.217
 6036POPC   C1B76159  20.433  17.963   6.154
 6036POPC   C2B76160  20.394  17.964   6.601
 6036POPC   C3B76161  20.368  18.111   7.011
 6036POPC   C4B76162  20.279  17.976   7.405
 6037POPC   NC376163   8.819  20.802   5.483
 6037POPC   PO476164   9.329  20.347   5.611
 6037POPC   GL176165   8.928  20.490   5.867
 6037POPC   GL276166   8.688  20.227   5.988
 6037POPC   C1A76167   8.746  20.636   6.287
 6037POPC   D2A76168   8.725  20.771   6.730
 6037POPC   C3A76169   9.074  20.846   6.968
 6037POPC   C4A76170   8.884  20.892   7.327
 6037POPC   C1B76171   9.051  20.243   6.283
 6037POPC   C2B76172   9.100  20.415   6.685
 6037POPC   C3B76173   8.930  20.352   7.083
 6037POPC   C4B76174   9.207  20.120   7.336
 6038POPC   NC376175  21.251  14.653   5.401
 6038POPC   PO476176  21.547  15.296   5.542
 6038POPC   GL176177  21.294  15.217   5.908
 6038POPC   GL276178  21.202  14.891   5.860
 6038POPC   C1A76179  21.306  15.250   6.358
 6038POPC   D2A76180  21.622  15.282   6.698
 6038POPC   C3A76181  21.425  15.416   7.068
 6038POPC   C4A76182  21.178  15.399   7.444
 6038POPC   C1B76183  21.425  14.752   6.222
 6038POPC   C2B76184  21.229  14.782   6.630
 6038POPC   C3B76185  21.174  14.954   7.038
 6038POPC   C4B76186  21.532  14.969   7.284
 6039POPC   NC376187  17.029  13.272   5.538
 6039POPC   PO476188  16.823  13.896   5.425
 6039POPC   GL176189  16.714  13.670   5.838
 6039POPC   GL276190  16.457  13.919   5.891
 6039POPC   C1A76191  16.806  13.474   6.264
 6039POPC   D2A76192  16.656  13.304   6.659
 6039POPC   C3A76193  16.734  13.573   7.012
 6039POPC   C4A76194  16.897  13.496   7.416
 6039POPC   C1B76195  16.390  13.758   6.299
 6039POPC   C2B76196  16.189  13.890   6.676
 6039POPC   C3B76197  16.368  13.944   7.103
 6039POPC   C4B76198  16.369  13.681   7.461
 6040POPC   NC376199  21.368  26.498   5.397
 6040POPC   PO476200  21.897  26.948   5.196
 6040POPC   GL176201  21.691  26.904   5.668
 6040POPC   GL276202  21.302  26.934   5.774
 6040POPC   C1A76203  21.628  26.886   6.169
 6040POPC   D2A76204  21.521  26.719   6.604
 6040POPC   C3A76205  21.514  26.889   7.055
 6040POPC   C4A76206  21.515  26.663   7.480
 6040POPC   C1B76207  21.164  27.118   6.230
 6040POPC   C2B76208  21.153  27.107   6.718
 6040POPC   C3B76209  20.997  26.978   7.159
 6040POPC   C4B76210  21.158  27.009   7.599
 6041POPC   NC376211   3.162  20.547   5.372
 6041POPC   PO476212   2.620  20.886   5.412
 6041POPC   GL176213   2.848  20.692   5.778
 6041POPC   GL276214   2.990  20.348   5.797
 6041POPC   C1A76215   2.848  20.580   6.239
 6041POPC   D2A76216   2.654  20.776   6.612
 6041POPC   C3A76217   2.715  20.609   7.033
 6041POPC   C4A76218   2.806  20.745   7.474
 6041POPC   C1B76219   3.253  20.210   6.141
 6041POPC   C2B76220   3.174  20.289   6.549
 6041POPC   C3B76221   3.214  20.520   6.907
 6041POPC   C4B76222   3.089  20.365   7.271
 6042POPC   NC376223   3.145   5.316   5.018
 6042POPC   PO476224   2.719   5.475   5.463
 6042POPC   GL176225   2.582   5.206   5.805
 6042POPC   GL276226   2.777   4.884   5.777
 6042POPC   C1A76227   2.663   5.167   6.243
 6042POPC   D2A76228   2.453   5.021   6.620
 6042POPC   C3A76229   2.548   5.154   7.044
 6042POPC   C4A76230   2.387   4.952   7.460
 6042POPC   C1B76231   3.011   4.771   6.171
 6042POPC   C2B76232   2.976   4.906   6.608
 6042POPC   C3B76233   2.916   4.809   7.046
 6042POPC   C4B76234   3.136   4.603   7.381
 6043POPC   NC376235  39.122  37.856   5.518
 6043POPC   PO476236  39.671  37.471   5.404
 6043POPC   GL176237  39.427  37.533   5.817
 6043POPC   GL276238  39.399  37.884   5.958
 6043POPC   C1A76239  39.279  37.505   6.261
 6043POPC   D2A76240  39.291  37.682   6.666
 6043POPC   C3A76241  39.218  37.389   7.008
 6043POPC   C4A76242  39.247  37.437   7.467
 6043POPC   C1B76243  38.965  37.920   6.178
 6043POPC   C2B76244  38.702  37.844   6.557
 6043POPC   C3B76245  38.885  37.788   6.965
 6043POPC   C4B76246  39.058  37.892   7.361
 6044POPC   NC376247  18.517  41.473   5.621
 6044POPC   PO476248  17.958  41.195   5.323
 6044POPC   GL176249  18.159  41.218   5.906
 6044POPC   GL276250  18.480  41.380   6.099
 6044POPC   C1A76251  18.059  41.381   6.366
 6044POPC   D2A76252  18.306  41.600   6.699
 6044POPC   C3A76253  18.111  41.652   7.113
 6044POPC   C4A76254  18.277  41.759   7.495
 6044POPC   C1B76255  18.705  41.719   6.308
 6044POPC   C2B76256  18.628  42.025   6.639
 6044POPC   C3B76257  18.727  41.923   7.050
 6044POPC   C4B76258  18.612  41.540   7.151
 6045POPC   NC376259   5.785  17.765   5.519
 6045POPC   PO476260   5.993  17.059   5.419
 6045POPC   GL176261   5.879  17.322   5.813
 6045POPC   GL276262   5.503  17.380   5.883
 6045POPC   C1A76263   5.809  17.366   6.291
 6045POPC   D2A76264   5.757  17.385   6.725
 6045POPC   C3A76265   6.007  17.392   7.071
 6045POPC   C4A76266   6.226  17.714   7.285
 6045POPC   C1B76267   5.476  17.751   6.196
 6045POPC   C2B76268   5.559  17.868   6.660
 6045POPC   C3B76269   5.563  17.657   7.103
 6045POPC   C4B76270   5.718  17.399   7.493
 6046POPC   NC376271  41.380   5.672   5.334
 6046POPC   PO476272  41.608   5.003   5.443
 6046POPC   GL176273  41.724   4.909   5.867
 6046POPC   GL276274  41.420   5.070   5.933
 6046POPC   C1A76275  41.728   5.132   6.310
 6046POPC   D2A76276  41.599   5.425   6.613
 6046POPC   C3A76277  41.584   5.213   6.997
 6046POPC   C4A76278  41.932   4.965   7.158
 6046POPC   C1B76279  41.209   5.030   6.310
 6046POPC   C2B76280  41.029   5.321   6.598
 6046POPC   C3B76281  41.188   5.587   6.886
 6046POPC   C4B76282  41.190   5.433   7.251
 6047POPC   NC376283   5.398  44.576   5.188
 6047POPC   PO476284   4.938   0.059   5.401
 6047POPC   GL176285   4.955  44.906   5.822
 6047POPC   GL276286   5.347  44.888   5.851
 6047POPC   C1A76287   4.806  45.000   6.256
 6047POPC   D2A76288   4.995  44.882   6.654
 6047POPC   C3A76289   4.865  44.985   7.035
 6047POPC   C4A76290   4.994  44.827   7.455
 6047POPC   C1B76291   5.233  44.691   6.249
 6047POPC   C2B76292   5.414  44.603   6.682
 6047POPC   C3B76293   5.309  44.626   7.086
 6047POPC   C4B76294   5.131  44.277   7.255
 6048POPC   NC376295   3.136  22.243   5.441
 6048POPC   PO476296   3.588  21.822   5.416
 6048POPC   GL176297   3.628  22.082   5.784
 6048POPC   GL276298   3.627  22.375   5.669
 6048POPC   C1A76299   3.608  21.940   6.222
 6048POPC   D2A76300   3.702  22.105   6.627
 6048POPC   C3A76301   3.344  22.082   6.896
 6048POPC   C4A76302   3.305  21.871   7.272
 6048POPC   C1B76303   3.726  22.422   6.141
 6048POPC   C2B76304   3.714  22.614   6.528
 6048POPC   C3B76305   3.593  22.561   6.940
 6048POPC   C4B76306   3.695  22.256   7.237
 6049POPC   NC376307  44.342  11.770   5.624
 6049POPC   PO476308  44.685  12.381   5.439
 6049POPC   GL176309  44.588  12.204   5.835
 6049POPC   GL276310  44.879  11.989   5.848
 6049POPC   C1A76311  44.469  12.042   6.262
 6049POPC   D2A76312  44.662  11.842   6.652
 6049POPC   C3A76313  44.802  12.083   7.006
 6049POPC   C4A76314  44.472  12.150   7.299
 6049POPC   C1B76315  44.974  12.094   6.299
 6049POPC   C2B76316   0.172  11.898   6.687
 6049POPC   C3B76317   0.055  11.623   7.022
 6049POPC   C4B76318  44.865  11.780   7.411
 6050POPC   NC376319  13.428  13.000   5.207
 6050POPC   PO476320  12.749  12.972   5.220
 6050POPC   GL176321  12.912  12.857   5.630
 6050POPC   GL276322  12.956  12.488   5.698
 6050POPC   C1A76323  12.857  12.909   6.075
 6050POPC   D2A76324  13.043  12.835   6.473
 6050POPC   C3A76325  12.812  12.995   6.816
 6050POPC   C4A76326  12.692  12.831   7.197
 6050POPC   C1B76327  12.742  12.403   6.084
 6050POPC   C2B76328  12.879  12.348   6.496
 6050POPC   C3B76329  12.985  12.522   6.899
 6050POPC   C4B76330  13.274  12.434   7.233
 6051POPC   NC376331  37.093  32.194   5.509
 6051POPC   PO476332  36.383  32.447   5.379
 6051POPC   GL176333  36.633  32.320   5.790
 6051POPC   GL276334  36.640  32.642   5.933
 6051POPC   C1A76335  36.978  32.112   6.140
 6051POPC   D2A76336  36.999  31.844   6.543
 6051POPC   C3A76337  36.943  32.063   6.949
 6051POPC   C4A76338  36.789  32.050   7.378
 6051POPC   C1B76339  36.619  32.392   6.335
 6051POPC   C2B76340  36.508  32.063   6.633
 6051POPC   C3B76341  36.457  32.238   7.046
 6051POPC   C4B76342  36.781  32.544   7.145
 6052POPC   NC376343  25.648  13.942   5.161
 6052POPC   PO476344  25.306  13.366   5.352
 6052POPC   GL176345  25.214  13.454   5.781
 6052POPC   GL276346  25.311  13.795   5.748
 6052POPC   C1A76347  25.285  13.453   6.244
 6052POPC   D2A76348  25.525  13.766   6.523
 6052POPC   C3A76349  25.484  13.741   6.969
 6052POPC   C4A76350  25.559  13.341   7.197
 6052POPC   C1B76351  25.185  13.955   6.145
 6052POPC   C2B76352  25.015  13.851   6.519
 6052POPC   C3B76353  24.884  13.833   6.911
 6052POPC   C4B76354  25.099  13.811   7.304
 6053POPC   NC376355  35.774  15.632   5.485
 6053POPC   PO476356  36.221  16.082   5.395
 6053POPC   GL176357  36.196  16.004   5.824
 6053POPC   GL276358  35.864  15.994   5.822
 6053POPC   C1A76359  36.034  16.164   6.260
 6053POPC   D2A76360  36.194  16.190   6.665
 6053POPC   C3A76361  36.009  16.300   7.052
 6053POPC   C4A76362  36.276  16.255   7.349
 6053POPC   C1B76363  35.962  15.665   6.143
 6053POPC   C2B76364  35.933  15.743   6.561
 6053POPC   C3B76365  36.006  15.808   6.985
 6053POPC   C4B76366  35.841  15.665   7.370
 6054POPC   NC376367   9.873  38.815   5.469
 6054POPC   PO476368   9.550  39.338   5.234
 6054POPC   GL176369   9.757  39.308   5.634
 6054POPC   GL276370   9.514  39.082   5.762
 6054POPC   C1A76371   9.958  39.267   6.067
 6054POPC   D2A76372   9.765  39.195   6.510
 6054POPC   C3A76373   9.846  39.375   6.973
 6054POPC   C4A76374  10.051  39.424   7.394
 6054POPC   C1B76375   9.384  38.934   6.169
 6054POPC   C2B76376   9.485  38.772   6.579
 6054POPC   C3B76377   9.438  38.966   6.966
 6054POPC   C4B76378   9.593  39.093   7.339
 6055POPC   NC376379  28.422  18.398   5.330
 6055POPC   PO476380  28.343  17.739   5.155
 6055POPC   GL176381  28.409  18.001   5.648
 6055POPC   GL276382  28.390  18.383   5.828
 6055POPC   C1A76383  28.453  17.991   6.127
 6055POPC   D2A76384  28.136  18.060   6.458
 6055POPC   C3A76385  28.287  18.186   6.872
 6055POPC   C4A76386  28.438  18.216   7.303
 6055POPC   C1B76387  28.414  18.472   6.296
 6055POPC   C2B76388  28.299  18.690   6.675
 6055POPC   C3B76389  28.336  18.683   7.148
 6055POPC   C4B76390  28.096  18.558   7.544
 6056POPC   NC376391  43.072  37.178   5.532
 6056POPC   PO476392  43.102  36.536   5.466
 6056POPC   GL176393  43.153  36.745   5.823
 6056POPC   GL276394  42.834  36.849   5.919
 6056POPC   C1A76395  43.286  36.852   6.235
 6056POPC   D2A76396  43.199  37.040   6.639
 6056POPC   C3A76397  43.198  36.770   6.968
 6056POPC   C4A76398  42.880  36.648   7.296
 6056POPC   C1B76399  42.802  37.151   6.276
 6056POPC   C2B76400  42.749  37.286   6.720
 6056POPC   C3B76401  42.898  37.148   7.133
 6056POPC   C4B76402  42.743  37.073   7.537
 6057POPC   NC376403  42.585  16.264   5.033
 6057POPC   PO476404  42.375  15.813   5.517
 6057POPC   GL176405  42.451  15.936   5.879
 6057POPC   GL276406  42.165  15.938   5.966
 6057POPC   C1A76407  42.535  15.913   6.327
 6057POPC   D2A76408  42.778  15.672   6.613
 6057POPC   C3A76409  42.632  15.684   7.038
 6057POPC   C4A76410  42.228  15.679   7.260
 6057POPC   C1B76411  42.097  16.291   6.228
 6057POPC   C2B76412  42.123  16.289   6.653
 6057POPC   C3B76413  42.154  16.355   7.075
 6057POPC   C4B76414  41.992  16.110   7.333
 6058POPC   NC376415  20.369  26.512   5.482
 6058POPC   PO476416  20.976  26.766   5.389
 6058POPC   GL176417  20.765  26.828   5.761
 6058POPC   GL276418  20.734  26.467   5.858
 6058POPC   C1A76419  20.623  27.075   6.135
 6058POPC   D2A76420  20.631  26.997   6.580
 6058POPC   C3A76421  20.338  27.049   6.899
 6058POPC   C4A76422  20.491  26.789   7.198
 6058POPC   C1B76423  20.374  26.491   6.170
 6058POPC   C2B76424  20.251  26.590   6.612
 6058POPC   C3B76425  20.230  26.383   7.028
 6058POPC   C4B76426  20.580  26.313   7.347
 6059POPC   NC376427  44.114  35.818   5.149
 6059POPC   PO476428  43.625  35.810   5.613
 6059POPC   GL176429  43.737  35.463   5.890
 6059POPC   GL276430  43.796  35.094   5.822
 6059POPC   C1A76431  43.807  35.528   6.323
 6059POPC   D2A76432  43.785  35.517   6.730
 6059POPC   C3A76433  44.037  35.789   6.934
 6059POPC   C4A76434  44.071  35.739   7.371
 6059POPC   C1B76435  44.154  35.218   6.141
 6059POPC   C2B76436  44.263  35.321   6.616
 6059POPC   C3B76437  44.091  35.279   7.078
 6059POPC   C4B76438  43.649  35.217   7.161
 6060POPC   NC376439  41.972   9.349   5.493
 6060POPC   PO476440  42.145   8.709   5.249
 6060POPC   GL176441  41.919   8.861   5.685
 6060POPC   GL276442  41.544   8.937   5.710
 6060POPC   C1A76443  41.801   9.032   6.146
 6060POPC   D2A76444  41.909   9.168   6.614
 6060POPC   C3A76445  41.851   9.040   7.077
 6060POPC   C4A76446  41.822   9.340   7.387
 6060POPC   C1B76447  41.324   8.839   6.145
 6060POPC   C2B76448  41.407   9.010   6.559
 6060POPC   C3B76449  41.470   9.312   6.912
 6060POPC   C4B76450  41.317   9.121   7.315
 6061POPC   NC376451  14.976   9.201   5.455
 6061POPC   PO476452  15.505   8.815   5.568
 6061POPC   GL176453  15.212   8.938   5.870
 6061POPC   GL276454  15.305   9.278   5.857
 6061POPC   C1A76455  15.195   8.794   6.299
 6061POPC   D2A76456  15.403   8.636   6.681
 6061POPC   C3A76457  15.308   8.813   7.083
 6061POPC   C4A76458  14.918   8.840   7.281
 6061POPC   C1B76459  15.104   9.297   6.265
 6061POPC   C2B76460  14.981   9.081   6.682
 6061POPC   C3B76461  15.017   9.278   7.080
 6061POPC   C4B76462  15.417   9.247   7.373
 6062POPC   NC376463  38.425  37.214   5.496
 6062POPC   PO476464  38.336  36.554   5.678
 6062POPC   GL176465  38.660  36.794   5.874
 6062POPC   GL276466  38.501  37.104   5.984
 6062POPC   C1A76467  38.696  36.762   6.317
 6062POPC   D2A76468  38.453  36.864   6.656
 6062POPC   C3A76469  38.522  36.623   6.987
 6062POPC   C4A76470  38.293  36.581   7.339
 6062POPC   C1B76471  38.935  37.163   6.114
 6062POPC   C2B76472  39.053  37.127   6.553
 6062POPC   C3B76473  38.811  37.077   6.924
 6062POPC   C4B76474  38.413  37.078   7.194
 6063POPC   NC376475   4.266   9.274   5.401
 6063POPC   PO476476   4.450   9.929   5.259
 6063POPC   GL176477   4.384   9.707   5.639
 6063POPC   GL276478   4.688   9.772   5.793
 6063POPC   C1A76479   4.266   9.613   6.080
 6063POPC   D2A76480   4.407   9.482   6.499
 6063POPC   C3A76481   4.175   9.545   6.889
 6063POPC   C4A76482   3.866   9.712   7.167
 6063POPC   C1B76483   4.679   9.876   6.261
 6063POPC   C2B76484   4.456   9.970   6.654
 6063POPC   C3B76485   4.449   9.943   7.079
 6063POPC   C4B76486   4.576  10.003   7.469
 6064POPC   NC376487  37.107  18.839   5.457
 6064POPC   PO476488  36.664  19.387   5.419
 6064POPC   GL176489  36.716  19.112   5.753
 6064POPC   GL276490  37.056  19.219   5.830
 6064POPC   C1A76491  36.646  19.232   6.199
 6064POPC   D2A76492  36.545  19.367   6.637
 6064POPC   C3A76493  36.836  19.138   6.881
 6064POPC   C4A76494  36.844  18.942   7.296
 6064POPC   C1B76495  37.066  18.907   6.145
 6064POPC   C2B76496  37.153  18.835   6.579
 6064POPC   C3B76497  37.305  18.960   6.998
 6064POPC   C4B76498  37.170  19.345   7.203
 6065POPC   NC376499  39.898   2.162   5.669
 6065POPC   PO476500  40.112   1.532   5.491
 6065POPC   GL176501  40.226   1.669   5.935
 6065POPC   GL276502  39.918   1.825   6.040
 6065POPC   C1A76503  40.169   1.661   6.434
 6065POPC   D2A76504  39.790   1.880   6.672
 6065POPC   C3A76505  39.896   2.017   7.095
 6065POPC   C4A76506  40.334   1.896   7.228
 6065POPC   C1B76507  40.100   2.165   6.302
 6065POPC   C2B76508  40.251   2.122   6.708
 6065POPC   C3B76509  40.262   2.362   7.036
 6065POPC   C4B76510  40.150   2.287   7.490
 6066POPC   NC376511   5.309   3.686   5.341
 6066POPC   PO476512   4.661   3.474   5.326
 6066POPC   GL176513   4.886   3.460   5.764
 6066POPC   GL276514   5.228   3.581   5.822
 6066POPC   C1A76515   4.981   3.474   6.248
 6066POPC   D2A76516   4.774   3.552   6.649
 6066POPC   C3A76517   4.836   3.232   6.919
 6066POPC   C4A76518   4.960   3.496   7.209
 6066POPC   C1B76519   5.361   3.804   6.192
 6066POPC   C2B76520   5.211   3.805   6.614
 6066POPC   C3B76521   5.380   3.733   7.016
 6066POPC   C4B76522   5.670   3.913   7.310
 6067POPC   NC376523  20.158  41.742   5.239
 6067POPC   PO476524  20.596  41.229   5.466
 6067POPC   GL176525  20.616  41.396   5.878
 6067POPC   GL276526  20.858  41.678   5.934
 6067POPC   C1A76527  20.416  41.252   6.230
 6067POPC   D2A76528  20.238  41.501   6.538
 6067POPC   C3A76529  20.548  41.408   6.830
 6067POPC   C4A76530  20.412  41.313   7.226
 6067POPC   C1B76531  20.878  41.512   6.373
 6067POPC   C2B76532  21.035  41.679   6.776
 6067POPC   C3B76533  20.801  41.738   7.177
 6067POPC   C4B76534  20.855  41.805   7.626
 6068POPC   NC376535   0.199   0.498   5.461
 6068POPC   PO476536   0.884   0.375   5.574
 6068POPC   GL176537   0.571   0.393   5.872
 6068POPC   GL276538   0.429   0.083   5.697
 6068POPC   C1A76539   0.688   0.455   6.327
 6068POPC   D2A76540   0.611   0.421   6.811
 6068POPC   C3A76541   0.326   0.697   7.061
 6068POPC   C4A76542   0.294   0.638   7.529
 6068POPC   C1B76543   0.470  44.961   6.108
 6068POPC   C2B76544   0.444   0.052   6.508
 6068POPC   C3B76545   0.361  44.940   6.891
 6068POPC   C4B76546   0.213   0.213   7.234
 6069POPC   NC376547   5.717  43.882   5.429
 6069POPC   PO476548   6.361  43.622   5.399
 6069POPC   GL176549   6.318  43.688   5.805
 6069POPC   GL276550   6.353  44.062   5.904
 6069POPC   C1A76551   6.037  43.662   6.140
 6069POPC   D2A76552   5.849  43.990   6.428
 6069POPC   C3A76553   6.019  44.073   6.843
 6069POPC   C4A76554   5.743  44.100   7.210
 6069POPC   C1B76555   6.369  44.015   6.368
 6069POPC   C2B76556   6.238  43.649   6.603
 6069POPC   C3B76557   5.922  43.561   6.887
 6069POPC   C4B76558   6.044  43.673   7.276
 6070POPC   NC376559  43.582  25.871   5.376
 6070POPC   PO476560  44.209  26.122   5.512
 6070POPC   GL176561  44.116  25.981   5.859
 6070POPC   GL276562  43.770  25.897   5.848
 6070POPC   C1A76563  44.146  26.206   6.233
 6070POPC   D2A76564  44.149  26.029   6.610
 6070POPC   C3A76565  44.194  26.259   6.947
 6070POPC   C4A76566  43.936  26.239   7.239
 6070POPC   C1B76567  43.651  26.069   6.241
 6070POPC   C2B76568  43.661  25.836   6.615
 6070POPC   C3B76569  43.709  25.818   7.048
 6070POPC   C4B76570  43.701  25.506   7.388
 6071POPC   NC376571  22.654  15.364   5.373
 6071POPC   PO476572  23.230  15.079   5.687
 6071POPC   GL176573  22.858  15.273   5.822
 6071POPC   GL276574  22.879  15.092   6.070
 6071POPC   C1A76575  22.620  15.495   6.155
 6071POPC   D2A76576  22.973  15.503   6.453
 6071POPC   C3A76577  22.946  15.478   6.910
 6071POPC   C4A76578  22.809  15.250   7.277
 6071POPC   C1B76579  23.215  15.046   6.342
 6071POPC   C2B76580  23.107  14.967   6.728
 6071POPC   C3B76581  23.253  14.999   7.112
 6071POPC   C4B76582  23.446  14.694   7.397
 6072POPC   NC376583  44.282  39.305   5.768
 6072POPC   PO476584  43.871  38.968   5.291
 6072POPC   GL176585  43.802  39.068   5.752
 6072POPC   GL276586  43.788  39.406   5.922
 6072POPC   C1A76587  43.634  38.980   6.191
 6072POPC   D2A76588  43.538  38.848   6.636
 6072POPC   C3A76589  43.668  39.140   6.926
 6072POPC   C4A76590  43.595  39.250   7.375
 6072POPC   C1B76591  43.928  39.473   6.354
 6072POPC   C2B76592  44.016  39.618   6.786
 6072POPC   C3B76593  43.842  39.690   7.190
 6072POPC   C4B76594  43.490  39.744   7.458
 6073POPC   NC376595  12.301  41.517   5.383
 6073POPC   PO476596  12.433  42.088   5.760
 6073POPC   GL176597  12.269  41.679   5.860
 6073POPC   GL276598  11.929  41.518   5.741
 6073POPC   C1A76599  12.150  41.447   6.191
 6073POPC   D2A76600  11.866  41.555   6.480
 6073POPC   C3A76601  12.075  41.506   6.825
 6073POPC   C4A76602  12.397  41.654   7.096
 6073POPC   C1B76603  11.672  41.223   5.998
 6073POPC   C2B76604  11.527  41.158   6.404
 6073POPC   C3B76605  11.554  41.291   6.806
 6073POPC   C4B76606  11.788  41.194   7.122
 6074POPC   NC376607  26.588  42.614   5.204
 6074POPC   PO476608  26.405  41.949   5.433
 6074POPC   GL176609  26.048  42.191   5.705
 6074POPC   GL276610  25.675  42.164   5.735
 6074POPC   C1A76611  25.960  42.198   6.164
 6074POPC   D2A76612  25.996  42.467   6.536
 6074POPC   C3A76613  25.953  42.237   6.918
 6074POPC   C4A76614  26.138  42.173   7.316
 6074POPC   C1B76615  25.558  42.498   6.075
 6074POPC   C2B76616  25.427  42.646   6.498
 6074POPC   C3B76617  25.662  42.662   6.878
 6074POPC   C4B76618  25.781  42.546   7.292
 6075POPC   NC376619  10.335   7.347   5.264
 6075POPC   PO476620  10.869   7.665   5.521
 6075POPC   GL176621  10.643   7.532   5.863
 6075POPC   GL276622  10.318   7.490   5.767
 6075POPC   C1A76623  10.664   7.423   6.297
 6075POPC   D2A76624  10.341   7.473   6.628
 6075POPC   C3A76625  10.454   7.441   7.045
 6075POPC   C4A76626  10.139   7.193   7.262
 6075POPC   C1B76627  10.274   7.739   6.166
 6075POPC   C2B76628  10.110   7.932   6.552
 6075POPC   C3B76629  10.300   7.947   6.989
 6075POPC   C4B76630  10.523   7.803   7.400
 6076POPC   NC376631   5.036  27.718   5.496
 6076POPC   PO476632   5.605  27.343   5.424
 6076POPC   GL176633   5.334  27.396   5.782
 6076POPC   GL276634   5.426  27.731   5.883
 6076POPC   C1A76635   5.026  27.464   6.143
 6076POPC   D2A76636   4.986  27.296   6.579
 6076POPC   C3A76637   4.722  27.473   6.916
 6076POPC   C4A76638   4.817  27.816   7.199
 6076POPC   C1B76639   5.503  27.521   6.250
 6076POPC   C2B76640   5.416  27.619   6.637
 6076POPC   C3B76641   5.251  27.466   7.017
 6076POPC   C4B76642   5.474  27.616   7.349
 6077POPC   NC376643  28.740  12.187   5.110
 6077POPC   PO476644  29.291  11.908   5.547
 6077POPC   GL176645  29.351  12.132   5.897
 6077POPC   GL276646  29.423  12.448   5.896
 6077POPC   C1A76647  29.295  12.113   6.331
 6077POPC   D2A76648  29.320  11.839   6.649
 6077POPC   C3A76649  28.997  11.767   6.899
 6077POPC   C4A76650  28.943  11.914   7.260
 6077POPC   C1B76651  29.020  12.486   6.127
 6077POPC   C2B76652  28.820  12.328   6.502
 6077POPC   C3B76653  29.029  12.282   6.874
 6077POPC   C4B76654  29.220  12.363   7.255
 6078POPC   NC376655  32.246  34.274   5.465
 6078POPC   PO476656  32.429  33.581   5.223
 6078POPC   GL176657  32.198  33.712   5.632
 6078POPC   GL276658  32.446  33.925   5.768
 6078POPC   C1A76659  32.109  33.767   6.123
 6078POPC   D2A76660  32.263  33.700   6.544
 6078POPC   C3A76661  32.143  33.587   6.965
 6078POPC   C4A76662  32.349  33.673   7.333
 6078POPC   C1B76663  32.664  33.802   6.120
 6078POPC   C2B76664  32.660  34.002   6.503
 6078POPC   C3B76665  32.525  33.991   6.914
 6078POPC   C4B76666  32.811  34.144   7.231
 6079POPC   NC376667   7.180  16.266   5.545
 6079POPC   PO476668   6.732  16.134   5.045
 6079POPC   GL176669   6.726  15.989   5.513
 6079POPC   GL276670   6.726  16.259   5.757
 6079POPC   C1A76671   6.592  15.806   5.948
 6079POPC   D2A76672   6.520  15.809   6.419
 6079POPC   C3A76673   6.706  15.859   6.850
 6079POPC   C4A76674   6.576  15.736   7.297
 6079POPC   C1B76675   6.512  16.309   6.137
 6079POPC   C2B76676   6.575  16.327   6.555
 6079POPC   C3B76677   6.310  16.204   6.885
 6079POPC   C4B76678   6.477  16.251   7.265
 6080POPC   NC376679  18.858  11.871   5.489
 6080POPC   PO476680  19.529  12.145   5.470
 6080POPC   GL176681  19.262  11.993   5.870
 6080POPC   GL276682  18.981  11.730   5.955
 6080POPC   C1A76683  19.105  12.123   6.302
 6080POPC   D2A76684  18.860  12.060   6.715
 6080POPC   C3A76685  18.955  12.296   7.118
 6080POPC   C4A76686  18.861  12.448   7.528
 6080POPC   C1B76687  18.991  11.627   6.390
 6080POPC   C2B76688  19.333  11.798   6.631
 6080POPC   C3B76689  19.286  11.932   7.009
 6080POPC   C4B76690  18.898  11.786   7.173
 6081POPC   NC376691  15.284  30.062   4.988
 6081POPC   PO476692  15.097  30.061   5.636
 6081POPC   GL176693  15.419  29.927   5.935
 6081POPC   GL276694  15.469  30.238   6.113
 6081POPC   C1A76695  15.348  29.780   6.356
 6081POPC   D2A76696  15.217  30.042   6.721
 6081POPC   C3A76697  15.212  29.772   7.046
 6081POPC   C4A76698  15.445  29.766   7.416
 6081POPC   C1B76699  15.008  30.131   6.263
 6081POPC   C2B76700  14.703  30.296   6.566
 6081POPC   C3B76701  14.732  30.137   6.969
 6081POPC   C4B76702  14.681  29.740   7.095
 6082POPC   NC376703  13.021  26.444   5.546
 6082POPC   PO476704  12.825  27.052   5.590
 6082POPC   GL176705  12.845  26.750   5.919
 6082POPC   GL276706  12.553  26.542   5.880
 6082POPC   C1A76707  12.915  26.637   6.349
 6082POPC   D2A76708  12.926  26.912   6.697
 6082POPC   C3A76709  12.724  26.877   7.118
 6082POPC   C4A76710  12.952  26.672   7.496
 6082POPC   C1B76711  12.416  26.538   6.319
 6082POPC   C2B76712  12.611  26.506   6.746
 6082POPC   C3B76713  12.828  26.378   7.105
 6082POPC   C4B76714  12.680  26.211   7.513
 6083POPC   NC376715  44.046  10.958   5.583
 6083POPC   PO476716  44.139  11.563   5.256
 6083POPC   GL176717  43.793  11.439   5.691
 6083POPC   GL276718  43.634  11.098   5.839
 6083POPC   C1A76719  43.656  11.505   6.155
 6083POPC   D2A76720  43.496  11.577   6.617
 6083POPC   C3A76721  43.783  11.454   6.981
 6083POPC   C4A76722  44.159  11.216   7.154
 6083POPC   C1B76723  43.870  10.990   6.234
 6083POPC   C2B76724  43.936  11.024   6.680
 6083POPC   C3B76725  43.751  10.952   7.067
 6083POPC   C4B76726  43.558  11.166   7.365
 6084POPC   NC376727  22.169  13.439   5.386
 6084POPC   PO476728  21.988  14.011   5.143
 6084POPC   GL176729  22.169  13.903   5.643
 6084POPC   GL276730  22.104  13.560   5.885
 6084POPC   C1A76731  22.117  14.012   6.103
 6084POPC   D2A76732  22.010  13.759   6.479
 6084POPC   C3A76733  22.245  13.812   6.864
 6084POPC   C4A76734  22.230  13.679   7.289
 6084POPC   C1B76735  21.982  13.277   6.288
 6084POPC   C2B76736  21.972  13.069   6.725
 6084POPC   C3B76737  22.062  13.222   7.123
 6084POPC   C4B76738  21.839  13.399   7.471
 6085POPC   NC376739   0.883  25.670   5.044
 6085POPC   PO476740   1.418  26.074   5.228
 6085POPC   GL176741   1.315  25.975   5.700
 6085POPC   GL276742   1.458  25.713   5.874
 6085POPC   C1A76743   1.080  26.188   6.062
 6085POPC   D2A76744   1.183  26.273   6.505
 6085POPC   C3A76745   0.896  26.133   6.844
 6085POPC   C4A76746   0.874  26.250   7.306
 6085POPC   C1B76747   1.567  26.101   6.137
 6085POPC   C2B76748   1.716  26.152   6.542
 6085POPC   C3B76749   1.533  26.300   6.897
 6085POPC   C4B76750   1.305  26.052   7.142
 6086POPC   NC376751  41.153  29.502   5.504
 6086POPC   PO476752  40.804  30.092   5.487
 6086POPC   GL176753  40.643  29.959   5.859
 6086POPC   GL276754  40.681  29.612   5.797
 6086POPC   C1A76755  40.766  29.940   6.266
 6086POPC   D2A76756  41.070  29.744   6.544
 6086POPC   C3A76757  40.928  29.944   6.879
 6086POPC   C4A76758  40.598  29.945   7.151
 6086POPC   C1B76759  40.827  29.444   6.188
 6086POPC   C2B76760  40.692  29.373   6.609
 6086POPC   C3B76761  40.825  29.463   7.012
 6086POPC   C4B76762  40.637  29.507   7.421
 6087POPC   NC376763  26.301  40.360   5.417
 6087POPC   PO476764  25.833  39.961   5.169
 6087POPC   GL176765  25.761  39.959   5.684
 6087POPC   GL276766  25.965  39.703   5.822
 6087POPC   C1A76767  25.809  40.053   6.185
 6087POPC   D2A76768  26.172  39.992   6.527
 6087POPC   C3A76769  26.337  40.269   6.891
 6087POPC   C4A76770  26.331  40.347   7.345
 6087POPC   C1B76771  26.061  39.581   6.250
 6087POPC   C2B76772  25.818  39.646   6.667
 6087POPC   C3B76773  25.997  39.900   7.014
 6087POPC   C4B76774  26.363  39.843   7.227
 6088POPC   NC376775  37.848  15.358   5.202
 6088POPC   PO476776  37.428  15.541   5.673
 6088POPC   GL176777  37.560  15.141   5.771
 6088POPC   GL276778  37.899  15.227   5.685
 6088POPC   C1A76779  37.455  15.011   6.181
 6088POPC   D2A76780  37.594  15.160   6.599
 6088POPC   C3A76781  37.356  15.095   6.980
 6088POPC   C4A76782  37.349  15.056   7.413
 6088POPC   C1B76783  38.015  15.227   6.086
 6088POPC   C2B76784  38.121  15.173   6.522
 6088POPC   C3B76785  38.109  15.113   6.956
 6088POPC   C4B76786  37.820  15.128   7.268
 6089POPC   NC376787  18.059  36.272   5.335
 6089POPC   PO476788  18.504  35.872   5.487
 6089POPC   GL176789  18.256  36.108   5.798
 6089POPC   GL276790  18.362  36.441   5.736
 6089POPC   C1A76791  18.053  36.032   6.211
 6089POPC   D2A76792  17.957  35.881   6.638
 6089POPC   C3A76793  18.184  35.785   7.043
 6089POPC   C4A76794  18.036  35.955   7.447
 6089POPC   C1B76795  18.137  36.551   6.101
 6089POPC   C2B76796  18.015  36.430   6.520
 6089POPC   C3B76797  18.041  36.292   6.930
 6089POPC   C4B76798  18.123  36.502   7.267
 6090POPC   NC376799  36.672  18.154   5.378
 6090POPC   PO476800  37.302  18.419   5.357
 6090POPC   GL176801  37.074  18.222   5.723
 6090POPC   GL276802  36.905  18.515   5.791
 6090POPC   C1A76803  36.744  18.145   6.105
 6090POPC   D2A76804  36.527  18.305   6.485
 6090POPC   C3A76805  36.641  18.149   6.884
 6090POPC   C4A76806  36.579  18.309   7.291
 6090POPC   C1B76807  37.161  18.407   6.190
 6090POPC   C2B76808  37.053  18.331   6.616
 6090POPC   C3B76809  36.998  18.527   7.001
 6090POPC   C4B76810  37.209  18.604   7.384
 6091POPC   NC376811  22.625  41.096   5.638
 6091POPC   PO476812  22.243  40.586   5.361
 6091POPC   GL176813  22.144  40.650   5.802
 6091POPC   GL276814  22.161  41.010   5.878
 6091POPC   C1A76815  21.956  40.623   6.225
 6091POPC   D2A76816  22.103  40.749   6.603
 6091POPC   C3A76817  22.021  40.562   6.983
 6091POPC   C4A76818  22.156  40.694   7.358
 6091POPC   C1B76819  22.213  41.187   6.298
 6091POPC   C2B76820  22.136  41.244   6.751
 6091POPC   C3B76821  22.393  41.251   7.127
 6091POPC   C4B76822  22.485  41.061   7.514
 6092POPC   NC376823  31.130  29.774   5.382
 6092POPC   PO476824  31.748  30.114   5.354
 6092POPC   GL176825  31.492  29.963   5.721
 6092POPC   GL276826  31.374  30.226   5.923
 6092POPC   C1A76827  31.614  29.814   6.164
 6092POPC   D2A76828  31.805  29.972   6.565
 6092POPC   C3A76829  31.567  30.021   6.973
 6092POPC   C4A76830  31.467  29.637   7.265
 6092POPC   C1B76831  31.138  29.994   6.241
 6092POPC   C2B76832  31.303  29.780   6.604
 6092POPC   C3B76833  31.091  29.851   6.993
 6092POPC   C4B76834  31.140  29.992   7.415
 6093POPC   NC376835  43.268   3.602   5.524
 6093POPC   PO476836  42.628   3.524   5.365
 6093POPC   GL176837  42.746   3.689   5.820
 6093POPC   GL276838  43.106   3.785   5.971
 6093POPC   C1A76839  42.705   3.795   6.274
 6093POPC   D2A76840  42.537   3.552   6.613
 6093POPC   C3A76841  42.764   3.524   7.006
 6093POPC   C4A76842  42.905   3.140   7.164
 6093POPC   C1B76843  43.254   3.541   6.336
 6093POPC   C2B76844  43.248   3.524   6.805
 6093POPC   C3B76845  43.340   3.404   7.215
 6093POPC   C4B76846  43.388   3.649   7.579
 6094POPC   NC376847  35.446  25.092   5.436
 6094POPC   PO476848  35.041  25.665   5.397
 6094POPC   GL176849  35.237  25.458   5.738
 6094POPC   GL276850  35.072  25.134   5.788
 6094POPC   C1A76851  35.480  25.265   6.081
 6094POPC   D2A76852  35.413  25.360   6.512
 6094POPC   C3A76853  35.412  25.013   6.797
 6094POPC   C4A76854  35.621  25.217   7.099
 6094POPC   C1B76855  34.989  25.206   6.227
 6094POPC   C2B76856  34.945  25.239   6.687
 6094POPC   C3B76857  35.118  25.292   7.138
 6094POPC   C4B76858  35.352  25.283   7.532
 6095POPC   NC376859  14.450  38.116   5.389
 6095POPC   PO476860  14.370  38.759   5.675
 6095POPC   GL176861  14.208  38.520   5.938
 6095POPC   GL276862  14.431  38.269   5.886
 6095POPC   C1A76863  14.335  38.526   6.340
 6095POPC   D2A76864  14.309  38.790   6.666
 6095POPC   C3A76865  14.504  38.473   6.893
 6095POPC   C4A76866  14.424  38.331   7.275
 6095POPC   C1B76867  14.542  38.030   6.294
 6095POPC   C2B76868  14.685  37.991   6.746
 6095POPC   C3B76869  14.928  38.063   7.139
 6095POPC   C4B76870  14.784  38.163   7.594
 6096POPC   NC376871  27.815  15.673   5.434
 6096POPC   PO476872  27.292  16.016   5.537
 6096POPC   GL176873  27.501  15.774   5.827
 6096POPC   GL276874  27.785  15.935   5.869
 6096POPC   C1A76875  27.408  15.657   6.236
 6096POPC   D2A76876  27.351  15.894   6.606
 6096POPC   C3A76877  27.554  15.753   6.980
 6096POPC   C4A76878  27.380  15.867   7.359
 6096POPC   C1B76879  27.624  16.141   6.206
 6096POPC   C2B76880  27.683  16.302   6.607
 6096POPC   C3B76881  27.512  16.269   6.984
 6096POPC   C4B76882  27.734  16.211   7.326
 6097POPC   NC376883   4.672  34.461   5.625
 6097POPC   PO476884   4.012  34.556   5.399
 6097POPC   GL176885   4.182  34.312   5.733
 6097POPC   GL276886   4.254  34.671   5.860
 6097POPC   C1A76887   4.366  34.302   6.176
 6097POPC   D2A76888   4.368  34.655   6.435
 6097POPC   C3A76889   4.341  34.538   6.857
 6097POPC   C4A76890   4.426  34.267   7.185
 6097POPC   C1B76891   4.016  34.930   6.153
 6097POPC   C2B76892   3.937  34.897   6.587
 6097POPC   C3B76893   4.088  34.965   7.004
 6097POPC   C4B76894   3.839  34.828   7.360
 6098POPC   NC376895  32.079  14.416   5.444
 6098POPC   PO476896  32.637  13.935   5.346
 6098POPC   GL176897  32.466  14.238   5.729
 6098POPC   GL276898  32.129  14.148   5.869
 6098POPC   C1A76899  32.351  14.526   6.134
 6098POPC   D2A76900  32.127  14.482   6.527
 6098POPC   C3A76901  32.143  14.741   6.896
 6098POPC   C4A76902  32.080  14.503   7.260
 6098POPC   C1B76903  32.448  14.035   6.194
 6098POPC   C2B76904  32.568  14.212   6.553
 6098POPC   C3B76905  32.471  14.352   6.922
 6098POPC   C4B76906  32.556  14.215   7.292
 6099POPC   NC376907  19.748  43.616   5.163
 6099POPC   PO476908  19.853  43.015   5.443
 6099POPC   GL176909  19.896  43.142   5.852
 6099POPC   GL276910  20.194  43.294   5.982
 6099POPC   C1A76911  19.743  43.322   6.231
 6099POPC   D2A76912  19.933  43.250   6.616
 6099POPC   C3A76913  19.705  43.119   6.969
 6099POPC   C4A76914  19.923  43.272   7.318
 6099POPC   C1B76915  20.113  42.898   6.244
 6099POPC   C2B76916  20.156  42.709   6.654
 6099POPC   C3B76917  20.088  42.804   7.092
 6099POPC   C4B76918  20.169  42.891   7.539
 6100POPC   NC376919  26.310  15.365   5.499
 6100POPC   PO476920  25.726  15.094   5.438
 6100POPC   GL176921  26.019  15.055   5.794
 6100POPC   GL276922  25.877  14.759   5.885
 6100POPC   C1A76923  26.236  14.995   6.214
 6100POPC   D2A76924  26.108  15.131   6.634
 6100POPC   C3A76925  26.272  15.046   7.048
 6100POPC   C4A76926  26.262  15.372   7.361
 6100POPC   C1B76927  25.712  15.033   6.223
 6100POPC   C2B76928  25.599  15.153   6.668
 6100POPC   C3B76929  25.759  15.126   7.103
 6100POPC   C4B76930  25.846  15.126   7.583
 6101POPC   NC376931  36.756   3.587   5.438
 6101POPC   PO476932  37.322   3.282   5.255
 6101POPC   GL176933  37.010   3.320   5.767
 6101POPC   GL276934  36.662   3.295   5.870
 6101POPC   C1A76935  37.124   3.440   6.219
 6101POPC   D2A76936  37.123   3.325   6.587
 6101POPC   C3A76937  37.080   3.579   6.941
 6101POPC   C4A76938  37.155   3.352   7.355
 6101POPC   C1B76939  36.645   3.293   6.323
 6101POPC   C2B76940  36.629   3.368   6.768
 6101POPC   C3B76941  36.662   3.455   7.206
 6101POPC   C4B76942  36.424   3.369   7.565
 6102POPC   NC376943   7.368  14.659   5.425
 6102POPC   PO476944   7.581  14.039   5.183
 6102POPC   GL176945   7.459  14.176   5.671
 6102POPC   GL276946   7.206  14.363   5.816
 6102POPC   C1A76947   7.607  14.340   6.133
 6102POPC   D2A76948   7.400  14.371   6.569
 6102POPC   C3A76949   7.651  14.346   6.953
 6102POPC   C4A76950   7.611  14.500   7.393
 6102POPC   C1B76951   7.184  14.655   6.186
 6102POPC   C2B76952   7.078  14.747   6.638
 6102POPC   C3B76953   7.216  14.617   7.061
 6102POPC   C4B76954   7.088  14.802   7.451
 6103POPC   NC376955  42.681  10.035   5.418
 6103POPC   PO476956  43.265   9.625   5.542
 6103POPC   GL176957  43.057   9.870   5.804
 6103POPC   GL276958  42.836   9.621   5.990
 6103POPC   C1A76959  43.101   9.998   6.228
 6103POPC   D2A76960  42.820   9.835   6.498
 6103POPC   C3A76961  42.765  10.041   6.886
 6103POPC   C4A76962  42.987  10.007   7.290
 6103POPC   C1B76963  43.230   9.495   6.175
 6103POPC   C2B76964  43.306   9.651   6.566
 6103POPC   C3B76965  43.071   9.641   6.922
 6103POPC   C4B76966  43.150   9.490   7.288
 6104POPC   NC376967   4.725  33.537   5.524
 6104POPC   PO476968   5.181  32.926   5.485
 6104POPC   GL176969   5.016  32.882   5.842
 6104POPC   GL276970   4.787  33.128   5.841
 6104POPC   C1A76971   4.951  32.807   6.244
 6104POPC   D2A76972   4.832  33.038   6.552
 6104POPC   C3A76973   5.066  32.949   6.879
 6104POPC   C4A76974   5.039  33.063   7.271
 6104POPC   C1B76975   4.720  33.401   6.186
 6104POPC   C2B76976   4.556  33.448   6.605
 6104POPC   C3B76977   4.775  33.432   7.023
 6104POPC   C4B76978   4.709  33.388   7.491
 6105POPC   NC376979  32.159   2.612   5.350
 6105POPC   PO476980  32.218   3.310   5.221
 6105POPC   GL176981  32.261   3.015   5.680
 6105POPC   GL276982  31.949   2.828   5.789
 6105POPC   C1A76983  32.296   2.818   6.152
 6105POPC   D2A76984  32.379   2.968   6.583
 6105POPC   C3A76985  32.337   2.743   6.991
 6105POPC   C4A76986  32.603   2.912   7.313
 6105POPC   C1B76987  31.815   2.638   6.207
 6105POPC   C2B76988  31.943   2.610   6.674
 6105POPC   C3B76989  31.998   2.322   7.071
 6105POPC   C4B76990  31.967   2.386   7.566
 6106POPC   NC376991   1.650  17.989   5.719
 6106POPC   PO476992   1.924  17.597   5.258
 6106POPC   GL176993   1.984  17.590   5.763
 6106POPC   GL276994   1.922  17.277   5.860
 6106POPC   C1A76995   2.201  17.584   6.216
 6106POPC   D2A76996   2.227  17.879   6.621
 6106POPC   C3A76997   2.203  17.674   7.048
 6106POPC   C4A76998   2.214  17.200   7.147
 6106POPC   C1B76999   1.715  17.390   6.265
 6106POPC   C2B77000   1.874  17.433   6.713
 6106POPC   C3B77001   1.748  17.422   7.165
 6106POPC   C4B77002   1.798  17.654   7.560
 6107POPC   NC377003  30.982  35.216   5.472
 6107POPC   PO477004  31.555  35.534   5.272
 6107POPC   GL177005  31.442  35.528   5.749
 6107POPC   GL277006  31.635  35.273   5.973
 6107POPC   C1A77007  31.228  35.511   6.161
 6107POPC   D2A77008  31.385  35.563   6.591
 6107POPC   C3A77009  31.560  35.228   6.812
 6107POPC   C4A77010  31.420  35.365   7.183
 6107POPC   C1B77011  31.760  35.621   6.245
 6107POPC   C2B77012  31.897  35.605   6.685
 6107POPC   C3B77013  31.859  35.691   7.128
 6107POPC   C4B77014  31.684  35.641   7.551
 6108POPC   NC377015   5.331  20.364   5.335
 6108POPC   PO477016   4.771  20.706   5.389
 6108POPC   GL177017   5.107  20.641   5.704
 6108POPC   GL277018   5.227  20.285   5.835
 6108POPC   C1A77019   5.190  20.776   6.112
 6108POPC   D2A77020   5.016  20.569   6.478
 6108POPC   C3A77021   5.002  20.669   6.915
 6108POPC   C4A77022   4.829  20.400   7.251
 6108POPC   C1B77023   5.480  20.369   6.234
 6108POPC   C2B77024   5.480  20.414   6.689
 6108POPC   C3B77025   5.394  20.399   7.132
 6108POPC   C4B77026   5.618  20.594   7.485
 6109POPC   NC377027  10.332  42.019   5.022
 6109POPC   PO477028  10.728  42.491   5.423
 6109POPC   GL177029  10.478  42.328   5.734
 6109POPC   GL277030  10.491  42.641   5.912
 6109POPC   C1A77031  10.257  42.243   6.145
 6109POPC   D2A77032  10.468  42.252   6.564
 6109POPC   C3A77033  10.320  42.065   6.958
 6109POPC   C4A77034  10.495  42.183   7.373
 6109POPC   C1B77035  10.776  42.433   6.174
 6109POPC   C2B77036  10.937  42.517   6.581
 6109POPC   C3B77037  10.773  42.426   6.975
 6109POPC   C4B77038  10.578  42.692   7.280
 6110POPC   NC377039  40.706  32.412   5.405
 6110POPC   PO477040  41.082  31.770   5.415
 6110POPC   GL177041  40.787  31.983   5.737
 6110POPC   GL277042  40.933  32.317   5.853
 6110POPC   C1A77043  40.729  32.068   6.227
 6110POPC   D2A77044  40.924  32.305   6.569
 6110POPC   C3A77045  40.743  32.159   6.923
 6110POPC   C4A77046  40.564  32.015   7.289
 6110POPC   C1B77047  41.170  31.931   6.050
 6110POPC   C2B77048  41.152  31.854   6.486
 6110POPC   C3B77049  41.166  31.869   6.904
 6110POPC   C4B77050  41.061  31.945   7.281
 6111POPC   NC377051  37.002  39.069   5.442
 6111POPC   PO477052  36.459  39.473   5.298
 6111POPC   GL177053  36.544  39.387   5.816
 6111POPC   GL277054  36.850  39.197   5.912
 6111POPC   C1A77055  36.524  39.281   6.290
 6111POPC   D2A77056  36.696  39.413   6.699
 6111POPC   C3A77057  36.572  39.120   7.012
 6111POPC   C4A77058  36.739  39.093   7.405
 6111POPC   C1B77059  37.033  39.336   6.290
 6111POPC   C2B77060  37.114  39.092   6.674
 6111POPC   C3B77061  37.111  39.256   7.090
 6111POPC   C4B77062  37.199  39.547   7.413
 6112POPC   NC377063   5.851  15.079   5.501
 6112POPC   PO477064   5.504  15.686   5.544
 6112POPC   GL177065   5.692  15.495   5.931
 6112POPC   GL277066   5.952  15.189   5.984
 6112POPC   C1A77067   5.608  15.286   6.340
 6112POPC   D2A77068   5.942  15.202   6.646
 6112POPC   C3A77069   5.808  15.336   7.061
 6112POPC   C4A77070   5.617  15.116   7.404
 6112POPC   C1B77071   6.171  14.838   6.255
 6112POPC   C2B77072   6.150  14.693   6.695
 6112POPC   C3B77073   6.231  15.011   7.058
 6112POPC   C4B77074   6.117  15.245   7.463
 6113POPC   NC377075   5.020  38.195   4.989
 6113POPC   PO477076   5.168  38.658   5.430
 6113POPC   GL177077   5.164  38.339   5.748
 6113POPC   GL277078   5.072  38.607   5.972
 6113POPC   C1A77079   5.180  38.139   6.163
 6113POPC   D2A77080   5.252  38.361   6.553
 6113POPC   C3A77081   5.159  38.200   6.937
 6113POPC   C4A77082   5.117  38.360   7.299
 6113POPC   C1B77083   5.507  38.544   6.143
 6113POPC   C2B77084   5.717  38.604   6.549
 6113POPC   C3B77085   5.529  38.593   6.958
 6113POPC   C4B77086   5.522  38.640   7.382
 6114POPC   NC377087  15.671  41.689   5.396
 6114POPC   PO477088  16.299  41.613   5.492
 6114POPC   GL177089  16.027  41.650   5.799
 6114POPC   GL277090  15.750  41.398   5.802
 6114POPC   C1A77091  16.142  41.765   6.179
 6114POPC   D2A77092  15.964  41.611   6.535
 6114POPC   C3A77093  16.226  41.486   6.847
 6114POPC   C4A77094  16.160  41.571   7.277
 6114POPC   C1B77095  15.973  41.227   6.146
 6114POPC   C2B77096  15.808  41.138   6.547
 6114POPC   C3B77097  15.732  41.365   6.970
 6114POPC   C4B77098  15.559  41.216   7.373
 6115POPC   NC377099  22.652  17.516   5.495
 6115POPC   PO477100  22.005  17.670   5.319
 6115POPC   GL177101  22.160  17.530   5.691
 6115POPC   GL277102  22.039  17.228   5.599
 6115POPC   C1A77103  22.347  17.540   6.115
 6115POPC   D2A77104  22.240  17.764   6.497
 6115POPC   C3A77105  22.316  17.584   6.908
 6115POPC   C4A77106  22.140  17.775   7.283
 6115POPC   C1B77107  21.970  17.173   6.041
 6115POPC   C2B77108  22.099  17.245   6.475
 6115POPC   C3B77109  21.937  17.122   6.874
 6115POPC   C4B77110  22.040  17.289   7.233
 6116POPC   NC377111  33.209  16.476   5.221
 6116POPC   PO477112  33.131  17.023   5.443
 6116POPC   GL177113  33.036  16.685   5.758
 6116POPC   GL277114  32.668  16.641   5.795
 6116POPC   C1A77115  33.267  16.650   6.194
 6116POPC   D2A77116  33.341  16.904   6.569
 6116POPC   C3A77117  33.326  16.635   6.922
 6116POPC   C4A77118  33.041  16.618   7.236
 6116POPC   C1B77119  32.764  16.703   6.206
 6116POPC   C2B77120  32.916  16.591   6.594
 6116POPC   C3B77121  32.658  16.709   6.911
 6116POPC   C4B77122  32.517  16.620   7.304
 6117POPC   NC377123   2.749  38.513   5.394
 6117POPC   PO477124   2.421  38.965   5.756
 6117POPC   GL177125   2.746  38.689   5.922
 6117POPC   GL277126   2.794  38.322   5.859
 6117POPC   C1A77127   2.805  38.656   6.362
 6117POPC   D2A77128   2.897  38.736   6.788
 6117POPC   C3A77129   2.662  38.503   7.047
 6117POPC   C4A77130   2.586  38.726   7.387
 6117POPC   C1B77131   2.832  38.147   6.246
 6117POPC   C2B77132   2.948  38.254   6.663
 6117POPC   C3B77133   2.956  38.095   7.054
 6117POPC   C4B77134   2.657  38.038   7.390
 6118POPC   NC377135  38.487  25.568   5.281
 6118POPC   PO477136  38.320  24.931   5.330
 6118POPC   GL177137  38.352  25.260   5.731
 6118POPC   GL277138  38.654  25.439   5.857
 6118POPC   C1A77139  38.235  25.552   6.133
 6118POPC   D2A77140  37.988  25.566   6.523
 6118POPC   C3A77141  38.162  25.736   6.891
 6118POPC   C4A77142  38.197  25.583   7.281
 6118POPC   C1B77143  38.608  25.266   6.333
 6118POPC   C2B77144  38.510  25.370   6.799
 6118POPC   C3B77145  38.625  25.314   7.269
 6118POPC   C4B77146  38.759  25.159   7.681
 6119POPC   NC377147  37.931  19.359   5.499
 6119POPC   PO477148  37.739  19.955   5.555
 6119POPC   GL177149  37.758  19.657   5.926
 6119POPC   GL277150  38.106  19.573   5.932
 6119POPC   C1A77151  37.726  19.667   6.403
 6119POPC   D2A77152  37.447  19.992   6.616
 6119POPC   C3A77153  37.433  20.079   7.042
 6119POPC   C4A77154  37.532  19.709   7.231
 6119POPC   C1B77155  38.088  19.982   6.167
 6119POPC   C2B77156  37.990  20.088   6.567
 6119POPC   C3B77157  37.885  19.856   6.880
 6119POPC   C4B77158  37.973  19.989   7.251
 6120POPC   NC377159  39.330  23.365   5.465
 6120POPC   PO477160  39.116  24.016   5.512
 6120POPC   GL177161  39.154  23.727   5.804
 6120POPC   GL277162  38.892  23.500   5.790
 6120POPC   C1A77163  39.265  23.482   6.157
 6120POPC   D2A77164  39.527  23.576   6.470
 6120POPC   C3A77165  39.411  23.584   6.886
 6120POPC   C4A77166  39.358  23.790   7.276
 6120POPC   C1B77167  38.838  23.769   6.195
 6120POPC   C2B77168  39.036  23.789   6.603
 6120POPC   C3B77169  38.912  23.618   7.020
 6120POPC   C4B77170  38.876  23.762   7.441
 6121POPC   NC377171   7.940  22.401   5.488
 6121POPC   PO477172   8.460  21.930   5.410
 6121POPC   GL177173   8.307  21.991   5.823
 6121POPC   GL277174   8.666  21.998   5.892
 6121POPC   C1A77175   8.055  22.131   6.210
 6121POPC   D2A77176   8.191  22.360   6.598
 6121POPC   C3A77177   8.031  22.179   6.961
 6121POPC   C4A77178   7.883  22.407   7.276
 6121POPC   C1B77179   8.559  22.071   6.314
 6121POPC   C2B77180   8.337  21.882   6.643
 6121POPC   C3B77181   8.525  21.847   7.017
 6121POPC   C4B77182   8.325  22.059   7.369
 6122POPC   NC377183  36.830   1.948   5.330
 6122POPC   PO477184  37.341   2.375   5.434
 6122POPC   GL177185  37.127   2.039   5.754
 6122POPC   GL277186  36.754   1.890   5.810
 6122POPC   C1A77187  37.072   1.848   6.184
 6122POPC   D2A77188  37.201   1.945   6.579
 6122POPC   C3A77189  36.929   2.076   6.893
 6122POPC   C4A77190  37.056   1.952   7.276
 6122POPC   C1B77191  36.582   1.702   6.185
 6122POPC   C2B77192  36.575   1.915   6.561
 6122POPC   C3B77193  36.517   1.808   6.989
 6122POPC   C4B77194  36.437   2.020   7.361
 6123POPC   NC377195   9.043  37.515   5.092
 6123POPC   PO477196   8.511  37.791   5.359
 6123POPC   GL177197   8.821  37.674   5.735
 6123POPC   GL277198   9.149  37.877   5.823
 6123POPC   C1A77199   9.041  37.447   6.090
 6123POPC   D2A77200   9.182  37.567   6.525
 6123POPC   C3A77201   8.951  37.603   6.905
 6123POPC   C4A77202   9.184  37.446   7.265
 6123POPC   C1B77203   9.009  37.962   6.256
 6123POPC   C2B77204   8.860  38.060   6.676
 6123POPC   C3B77205   9.134  38.045   7.058
 6123POPC   C4B77206   9.014  37.919   7.452
 6124POPC   NC377207  19.342  13.422   5.347
 6124POPC   PO477208  18.704  13.664   5.352
 6124POPC   GL177209  18.874  13.647   5.746
 6124POPC   GL277210  19.203  13.660   5.757
 6124POPC   C1A77211  18.932  13.841   6.143
 6124POPC   D2A77212  18.998  13.597   6.515
 6124POPC   C3A77213  19.200  13.750   6.872
 6124POPC   C4A77214  18.929  13.691   7.206
 6124POPC   C1B77215  19.150  13.359   6.077
 6124POPC   C2B77216  19.111  13.106   6.479
 6124POPC   C3B77217  19.076  13.233   6.914
 6124POPC   C4B77218  19.362  13.141   7.215
 6125POPC   NC377219  20.438  23.882   5.368
 6125POPC   PO477220  20.713  23.317   5.346
 6125POPC   GL177221  20.680  23.604   5.759
 6125POPC   GL277222  20.727  23.992   5.773
 6125POPC   C1A77223  20.822  23.674   6.218
 6125POPC   D2A77224  20.766  23.474   6.639
 6125POPC   C3A77225  20.756  23.723   7.030
 6125POPC   C4A77226  20.865  23.759   7.474
 6125POPC   C1B77227  20.441  24.014   6.117
 6125POPC   C2B77228  20.572  23.999   6.561
 6125POPC   C3B77229  20.365  24.059   6.948
 6125POPC   C4B77230  20.257  23.832   7.351
 6126POPC   NC377231  25.554  23.884   5.405
 6126POPC   PO477232  26.099  23.452   5.338
 6126POPC   GL177233  26.000  23.664   5.675
 6126POPC   GL277234  25.718  23.579   5.786
 6126POPC   C1A77235  26.173  23.604   6.078
 6126POPC   D2A77236  26.018  23.555   6.496
 6126POPC   C3A77237  26.321  23.445   6.786
 6126POPC   C4A77238  26.340  23.603   7.187
 6126POPC   C1B77239  25.781  23.929   6.102
 6126POPC   C2B77240  25.764  23.999   6.532
 6126POPC   C3B77241  25.730  23.765   6.905
 6126POPC   C4B77242  25.928  23.884   7.265
 6127POPC   NC377243  20.349   6.165   5.530
 6127POPC   PO477244  20.836   5.713   5.409
 6127POPC   GL177245  20.484   5.708   5.771
 6127POPC   GL277246  20.416   6.009   5.984
 6127POPC   C1A77247  20.420   5.576   6.219
 6127POPC   D2A77248  20.268   5.758   6.601
 6127POPC   C3A77249  20.292   5.514   6.957
 6127POPC   C4A77250  20.541   5.550   7.304
 6127POPC   C1B77251  20.617   6.066   6.337
 6127POPC   C2B77252  20.492   6.205   6.718
 6127POPC   C3B77253  20.387   6.016   7.090
 6127POPC   C4B77254  20.681   6.125   7.410
 6128POPC   NC377255   2.964  23.950   5.269
 6128POPC   PO477256   2.452  24.309   5.512
 6128POPC   GL177257   2.823  24.328   5.779
 6128POPC   GL277258   2.689  24.601   5.936
 6128POPC   C1A77259   3.011  24.371   6.232
 6128POPC   D2A77260   2.777  24.301   6.624
 6128POPC   C3A77261   2.996  24.313   7.035
 6128POPC   C4A77262   3.061  24.465   7.450
 6128POPC   C1B77263   2.398  24.353   6.194
 6128POPC   C2B77264   2.193  24.303   6.604
 6128POPC   C3B77265   2.418  24.387   6.989
 6128POPC   C4B77266   2.605  24.243   7.349
 6129POPC   NC377267  38.368   3.036   5.420
 6129POPC   PO477268  38.821   2.597   5.487
 6129POPC   GL177269  38.469   2.600   5.791
 6129POPC   GL277270  38.191   2.321   5.776
 6129POPC   C1A77271  38.518   2.757   6.222
 6129POPC   D2A77272  38.517   2.997   6.573
 6129POPC   C3A77273  38.724   2.838   6.922
 6129POPC   C4A77274  38.597   2.811   7.338
 6129POPC   C1B77275  38.058   2.592   6.126
 6129POPC   C2B77276  38.050   2.753   6.569
 6129POPC   C3B77277  38.073   2.661   7.017
 6129POPC   C4B77278  37.780   2.408   7.256
 6130POPC   NC377279  35.094  43.752   5.182
 6130POPC   PO477280  35.479  44.177   5.565
 6130POPC   GL177281  35.183  43.856   5.694
 6130POPC   GL277282  35.453  43.659   5.738
 6130POPC   C1A77283  34.962  43.854   6.107
 6130POPC   D2A77284  35.171  43.984   6.523
 6130POPC   C3A77285  35.148  43.718   6.906
 6130POPC   C4A77286  35.024  43.745   7.307
 6130POPC   C1B77287  35.473  43.780   6.151
 6130POPC   C2B77288  35.590  43.687   6.568
 6130POPC   C3B77289  35.623  43.843   6.980
 6130POPC   C4B77290  35.558  43.570   7.309
 6131POPC   NC377291   6.446  41.807   5.381
 6131POPC   PO477292   6.811  41.268   5.383
 6131POPC   GL177293   6.819  41.412   5.802
 6131POPC   GL277294   6.714  41.747   5.814
 6131POPC   C1A77295   6.599  41.400   6.197
 6131POPC   D2A77296   6.781  41.370   6.586
 6131POPC   C3A77297   6.492  41.288   6.903
 6131POPC   C4A77298   6.679  41.414   7.272
 6131POPC   C1B77299   6.936  41.783   6.197
 6131POPC   C2B77300   6.883  41.920   6.630
 6131POPC   C3B77301   6.943  41.816   7.072
 6131POPC   C4B77302   6.783  41.955   7.496
 6132POPC   NC377303  30.990   8.422   5.520
 6132POPC   PO477304  30.386   8.103   5.614
 6132POPC   GL177305  30.624   8.328   5.905
 6132POPC   GL277306  30.628   8.702   5.797
 6132POPC   C1A77307  30.646   8.224   6.369
 6132POPC   D2A77308  30.318   8.198   6.719
 6132POPC   C3A77309  30.426   7.967   7.091
 6132POPC   C4A77310  30.741   8.223   7.258
 6132POPC   C1B77311  30.871   8.675   6.171
 6132POPC   C2B77312  30.794   8.657   6.614
 6132POPC   C3B77313  31.059   8.494   6.949
 6132POPC   C4B77314  31.110   8.621   7.397
 6133POPC   NC377315  37.066  28.986   5.489
 6133POPC   PO477316  36.701  29.485   5.464
 6133POPC   GL177317  37.041  29.430   5.792
 6133POPC   GL277318  36.864  29.127   5.933
 6133POPC   C1A77319  37.082  29.416   6.280
 6133POPC   D2A77320  37.213  29.059   6.573
 6133POPC   C3A77321  37.295  29.183   6.993
 6133POPC   C4A77322  37.013  29.397   7.290
 6133POPC   C1B77323  36.609  28.943   6.277
 6133POPC   C2B77324  36.700  28.986   6.716
 6133POPC   C3B77325  36.858  28.908   7.128
 6133POPC   C4B77326  36.877  28.938   7.581
 6134POPC   NC377327  36.170  28.791   5.402
 6134POPC   PO477328  35.893  29.471   5.318
 6134POPC   GL177329  36.020  29.252   5.691
 6134POPC   GL277330  35.720  29.091   5.815
 6134POPC   C1A77331  36.125  29.265   6.150
 6134POPC   D2A77332  36.046  29.448   6.574
 6134POPC   C3A77333  36.368  29.367   6.885
 6134POPC   C4A77334  36.491  29.265   7.310
 6134POPC   C1B77335  35.612  29.247   6.242
 6134POPC   C2B77336  35.671  29.080   6.670
 6134POPC   C3B77337  35.945  29.110   7.038
 6134POPC   C4B77338  35.966  28.994   7.464
 6135POPC   NC377339  26.096   3.933   5.745
 6135POPC   PO477340  26.028   4.565   5.483
 6135POPC   GL177341  25.882   4.514   5.877
 6135POPC   GL277342  25.610   4.726   5.931
 6135POPC   C1A77343  26.087   4.378   6.265
 6135POPC   D2A77344  26.277   4.067   6.539
 6135POPC   C3A77345  26.255   4.219   6.939
 6135POPC   C4A77346  25.927   4.155   7.214
 6135POPC   C1B77347  25.578   4.446   6.303
 6135POPC   C2B77348  25.784   4.320   6.700
 6135POPC   C3B77349  25.670   4.587   7.050
 6135POPC   C4B77350  25.671   4.488   7.468
 6136POPC   NC377351  30.019  42.269   5.500
 6136POPC   PO477352  29.584  41.815   5.545
 6136POPC   GL177353  29.629  42.155   5.847
 6136POPC   GL277354  29.980  42.144   6.008
 6136POPC   C1A77355  29.678  42.533   6.111
 6136POPC   D2A77356  29.885  42.508   6.482
 6136POPC   C3A77357  29.864  42.666   6.895
 6136POPC   C4A77358  29.567  42.517   7.166
 6136POPC   C1B77359  30.194  42.105   6.416
 6136POPC   C2B77360  30.291  42.368   6.758
 6136POPC   C3B77361  30.222  42.351   7.163
 6136POPC   C4B77362  30.072  42.039   7.428
 6137POPC   NC377363  34.915  19.980   5.323
 6137POPC   PO477364  34.421  19.529   5.415
 6137POPC   GL177365  34.527  19.790   5.775
 6137POPC   GL277366  34.805  20.023   5.831
 6137POPC   C1A77367  34.636  19.668   6.197
 6137POPC   D2A77368  34.978  19.702   6.521
 6137POPC   C3A77369  34.808  19.786   6.955
 6137POPC   C4A77370  34.411  19.852   7.183
 6137POPC   C1B77371  34.648  20.158   6.255
 6137POPC   C2B77372  34.511  20.108   6.692
 6137POPC   C3B77373  34.654  20.317   7.084
 6137POPC   C4B77374  34.520  20.378   7.521
 6138POPC   NC377375  10.241  11.004   5.293
 6138POPC   PO477376  10.743  11.380   5.533
 6138POPC   GL177377  10.490  11.337   5.866
 6138POPC   GL277378  10.395  10.992   5.785
 6138POPC   C1A77379  10.664  11.330   6.276
 6138POPC   D2A77380  10.842  11.132   6.653
 6138POPC   C3A77381  10.677  11.297   7.036
 6138POPC   C4A77382  10.243  11.302   7.127
 6138POPC   C1B77383  10.426  10.893   6.212
 6138POPC   C2B77384  10.322  11.038   6.630
 6138POPC   C3B77385  10.461  10.833   6.971
 6138POPC   C4B77386  10.492  10.925   7.391
 6139POPC   NC377387  16.358  28.532   5.489
 6139POPC   PO477388  15.750  28.155   5.492
 6139POPC   GL177389  15.999  28.261   5.820
 6139POPC   GL277390  15.965  28.598   5.825
 6139POPC   C1A77391  15.936  28.310   6.260
 6139POPC   D2A77392  16.229  28.357   6.601
 6139POPC   C3A77393  16.132  28.120   6.963
 6139POPC   C4A77394  16.155  28.265   7.371
 6139POPC   C1B77395  15.720  28.793   6.161
 6139POPC   C2B77396  15.791  28.702   6.604
 6139POPC   C3B77397  16.014  28.614   7.000
 6139POPC   C4B77398  15.975  28.739   7.411
 6140POPC   NC377399  29.992  36.109   5.017
 6140POPC   PO477400  29.737  35.793   5.539
 6140POPC   GL177401  29.724  35.949   5.932
 6140POPC   GL277402  29.722  36.316   5.848
 6140POPC   C1A77403  30.018  35.839   6.288
 6140POPC   D2A77404  30.011  35.694   6.722
 6140POPC   C3A77405  30.220  35.740   7.122
 6140POPC   C4A77406  30.032  35.956   7.460
 6140POPC   C1B77407  29.929  36.320   6.205
 6140POPC   C2B77408  30.172  36.281   6.572
 6140POPC   C3B77409  30.069  36.185   6.956
 6140POPC   C4B77410  29.909  36.420   7.264
 6141POPC   NC377411  33.276  20.295   5.145
 6141POPC   PO477412  32.769  19.935   5.434
 6141POPC   GL177413  32.925  19.966   5.862
 6141POPC   GL277414  33.279  19.803   5.859
 6141POPC   C1A77415  32.987  19.832   6.293
 6141POPC   D2A77416  32.648  19.731   6.581
 6141POPC   C3A77417  32.616  19.846   6.984
 6141POPC   C4A77418  32.891  19.674   7.292
 6141POPC   C1B77419  33.472  20.044   6.214
 6141POPC   C2B77420  33.296  20.120   6.599
 6141POPC   C3B77421  33.133  19.827   6.869
 6141POPC   C4B77422  33.392  19.661   7.225
 6142POPC   NC377423   6.212   9.153   5.464
 6142POPC   PO477424   5.699   8.785   5.591
 6142POPC   GL177425   5.897   8.930   5.909
 6142POPC   GL277426   5.788   9.260   5.874
 6142POPC   C1A77427   6.203   8.840   6.213
 6142POPC   D2A77428   6.216   8.558   6.536
 6142POPC   C3A77429   6.144   8.728   6.925
 6142POPC   C4A77430   6.092   8.575   7.319
 6142POPC   C1B77431   5.958   9.284   6.313
 6142POPC   C2B77432   5.934   9.172   6.721
 6142POPC   C3B77433   5.904   9.383   7.089
 6142POPC   C4B77434   5.743   9.278   7.502
 6143POPC   NC377435  30.072  16.452   5.398
 6143POPC   PO477436  29.747  17.099   5.518
 6143POPC   GL177437  29.997  16.834   5.805
 6143POPC   GL277438  29.830  16.523   5.836
 6143POPC   C1A77439  29.884  16.823   6.259
 6143POPC   D2A77440  29.662  16.622   6.603
 6143POPC   C3A77441  29.839  16.725   7.003
 6143POPC   C4A77442  30.145  17.024   7.210
 6143POPC   C1B77443  30.164  16.407   6.146
 6143POPC   C2B77444  30.195  16.556   6.597
 6143POPC   C3B77445  30.313  16.514   7.039
 6143POPC   C4B77446  29.999  16.389   7.348
 6144POPC   NC377447   0.678  34.815   5.481
 6144POPC   PO477448   1.223  34.371   5.405
 6144POPC   GL177449   1.369  34.543   5.815
 6144POPC   GL277450   1.325  34.891   5.847
 6144POPC   C1A77451   1.433  34.569   6.273
 6144POPC   D2A77452   1.493  34.277   6.647
 6144POPC   C3A77453   1.294  34.430   7.041
 6144POPC   C4A77454   1.412  34.814   7.239
 6144POPC   C1B77455   0.995  34.783   6.140
 6144POPC   C2B77456   1.041  34.744   6.611
 6144POPC   C3B77457   0.924  34.857   7.056
 6144POPC   C4B77458   0.984  34.796   7.514
 6145POPC   NC377459   0.755  38.298   5.605
 6145POPC   PO477460   0.215  38.683   5.408
 6145POPC   GL177461   0.355  38.572   5.812
 6145POPC   GL277462   0.663  38.701   5.915
 6145POPC   C1A77463   0.276  38.496   6.267
 6145POPC   D2A77464   0.221  38.436   6.741
 6145POPC   C3A77465   0.433  38.578   7.142
 6145POPC   C4A77466   0.173  38.503   7.544
 6145POPC   C1B77467   0.754  38.366   6.266
 6145POPC   C2B77468   0.698  38.212   6.707
 6145POPC   C3B77469   0.885  38.171   7.126
 6145POPC   C4B77470   0.666  38.307   7.518
 6146POPC   NC377471  44.717  11.165   5.395
 6146POPC   PO477472  44.268  11.330   5.790
 6146POPC   GL177473  44.704  11.482   5.807
 6146POPC   GL277474  44.951  11.258   5.849
 6146POPC   C1A77475  44.785  11.613   6.198
 6146POPC   D2A77476  44.897  11.396   6.557
 6146POPC   C3A77477  44.570  11.299   6.819
 6146POPC   C4A77478  44.617  11.409   7.231
 6146POPC   C1B77479  44.811  11.043   6.194
 6146POPC   C2B77480  44.967  10.871   6.577
 6146POPC   C3B77481  44.999  11.038   6.952
 6146POPC   C4B77482  44.679  10.917   7.171
 6147POPC   NC377483  15.771  24.390   5.398
 6147POPC   PO477484  16.152  24.951   5.270
 6147POPC   GL177485  16.079  24.646   5.704
 6147POPC   GL277486  16.148  24.240   5.711
 6147POPC   C1A77487  15.827  24.419   6.073
 6147POPC   D2A77488  15.616  24.386   6.489
 6147POPC   C3A77489  15.858  24.457   6.825
 6147POPC   C4A77490  15.927  24.460   7.240
 6147POPC   C1B77491  16.405  24.153   6.088
 6147POPC   C2B77492  16.483  24.143   6.555
 6147POPC   C3B77493  16.328  24.251   6.988
 6147POPC   C4B77494  16.401  24.453   7.388
 6148POPC   NC377495  33.656  38.808   5.339
 6148POPC   PO477496  33.677  39.464   5.364
 6148POPC   GL177497  33.651  39.300   5.741
 6148POPC   GL277498  33.435  39.019   5.751
 6148POPC   C1A77499  33.845  39.334   6.140
 6148POPC   D2A77500  34.026  39.236   6.524
 6148POPC   C3A77501  33.893  39.436   6.881
 6148POPC   C4A77502  33.859  39.302   7.261
 6148POPC   C1B77503  33.552  38.909   6.171
 6148POPC   C2B77504  33.369  38.869   6.569
 6148POPC   C3B77505  33.517  38.993   6.977
 6148POPC   C4B77506  33.561  38.785   7.373
 6149POPC   NC377507  29.376  34.534   5.152
 6149POPC   PO477508  29.971  34.665   5.268
 6149POPC   GL177509  29.976  34.557   5.757
 6149POPC   GL277510  29.789  34.277   5.956
 6149POPC   C1A77511  29.913  34.691   6.213
 6149POPC   D2A77512  30.080  34.635   6.646
 6149POPC   C3A77513  29.940  34.956   6.951
 6149POPC   C4A77514  30.195  34.937   7.284
 6149POPC   C1B77515  30.094  34.162   6.308
 6149POPC   C2B77516  30.410  34.183   6.648
 6149POPC   C3B77517  30.270  34.230   7.060
 6149POPC   C4B77518  29.900  34.499   7.154
 6150POPC   NC377519  19.932  11.939   5.335
 6150POPC   PO477520  20.179  12.560   5.372
 6150POPC   GL177521  20.033  12.258   5.753
 6150POPC   GL277522  19.809  11.940   5.838
 6150POPC   C1A77523  20.117  12.185   6.225
 6150POPC   D2A77524  20.324  12.116   6.634
 6150POPC   C3A77525  20.124  12.235   7.027
 6150POPC   C4A77526  20.159  12.127   7.503
 6150POPC   C1B77527  19.627  12.006   6.238
 6150POPC   C2B77528  19.830  11.910   6.621
 6150POPC   C3B77529  19.766  11.714   6.987
 6150POPC   C4B77530  19.701  12.062   7.272
 6151POPC   NC377531   7.147  44.798   5.368
 6151POPC   PO477532   7.520  44.181   5.363
 6151POPC   GL177533   7.568  44.506   5.700
 6151POPC   GL277534   7.865  44.745   5.721
 6151POPC   C1A77535   7.385  44.575   6.118
 6151POPC   D2A77536   7.267  44.416   6.533
 6151POPC   C3A77537   7.251  44.706   6.859
 6151POPC   C4A77538   7.393  44.592   7.242
 6151POPC   C1B77539   8.003  44.927   6.157
 6151POPC   C2B77540   7.921   0.090   6.587
 6151POPC   C3B77541   7.595   0.132   6.897
 6151POPC   C4B77542   7.619   0.033   7.335
 6152POPC   NC377543  25.400  44.925   5.379
 6152POPC   PO477544  25.057  44.290   5.414
 6152POPC   GL177545  25.021  44.483   5.840
 6152POPC   GL277546  25.187  44.818   5.852
 6152POPC   C1A77547  25.045  44.397   6.285
 6152POPC   D2A77548  24.969  44.624   6.658
 6152POPC   C3A77549  25.239  44.542   7.021
 6152POPC   C4A77550  25.148  44.618   7.457
 6152POPC   C1B77551  25.318  44.853   6.315
 6152POPC   C2B77552  25.332  44.990   6.759
 6152POPC   C3B77553  25.316   0.035   7.209
 6152POPC   C4B77554  25.396   0.045   7.648
 6153POPC   NC377555  32.664   9.972   5.390
 6153POPC   PO477556  31.997   9.830   5.335
 6153POPC   GL177557  32.135   9.768   5.762
 6153POPC   GL277558  32.424   9.928   5.840
 6153POPC   C1A77559  32.047   9.997   6.184
 6153POPC   D2A77560  32.277   9.969   6.581
 6153POPC   C3A77561  32.212   9.827   7.018
 6153POPC   C4A77562  32.136   9.904   7.500
 6153POPC   C1B77563  32.403   9.616   6.187
 6153POPC   C2B77564  32.497   9.522   6.636
 6153POPC   C3B77565  32.721   9.658   7.010
 6153POPC   C4B77566  32.567   9.660   7.400
 6154POPC   NC377567   8.605  18.326   5.472
 6154POPC   PO477568   7.919  18.285   5.362
 6154POPC   GL177569   8.091  18.320   5.813
 6154POPC   GL277570   8.398  18.099   5.881
 6154POPC   C1A77571   8.255  18.432   6.247
 6154POPC   D2A77572   8.294  18.719   6.602
 6154POPC   C3A77573   8.289  18.465   6.985
 6154POPC   C4A77574   8.049  18.266   7.273
 6154POPC   C1B77575   8.215  17.925   6.256
 6154POPC   C2B77576   8.304  17.871   6.695
 6154POPC   C3B77577   8.435  17.957   7.137
 6154POPC   C4B77578   8.290  17.896   7.581
 6155POPC   NC377579  43.337  27.979   5.492
 6155POPC   PO477580  43.302  27.375   5.427
 6155POPC   GL177581  43.204  27.551   5.859
 6155POPC   GL277582  42.928  27.821   5.795
 6155POPC   C1A77583  43.284  27.466   6.335
 6155POPC   D2A77584  43.084  27.202   6.679
 6155POPC   C3A77585  42.856  27.351   7.052
 6155POPC   C4A77586  43.155  27.396   7.384
 6155POPC   C1B77587  42.865  27.961   6.233
 6155POPC   C2B77588  43.168  27.928   6.574
 6155POPC   C3B77589  43.233  27.696   6.951
 6155POPC   C4B77590  42.957  27.845   7.315
 6156POPC   NC377591   8.551   9.679   5.361
 6156POPC   PO477592   7.869   9.944   5.390
 6156POPC   GL177593   7.936   9.706   5.740
 6156POPC   GL277594   8.275   9.797   5.764
 6156POPC   C1A77595   8.060   9.608   6.166
 6156POPC   D2A77596   8.261   9.701   6.586
 6156POPC   C3A77597   7.972   9.798   6.936
 6156POPC   C4A77598   8.098   9.735   7.356
 6156POPC   C1B77599   8.381  10.019   6.160
 6156POPC   C2B77600   8.487  10.182   6.583
 6156POPC   C3B77601   8.427  10.037   7.005
 6156POPC   C4B77602   8.515  10.001   7.437
 6157POPC   NC377603  33.144  36.166   4.967
 6157POPC   PO477604  33.397  36.280   5.570
 6157POPC   GL177605  33.133  36.058   5.865
 6157POPC   GL277606  33.093  36.318   6.089
 6157POPC   C1A77607  33.177  35.865   6.279
 6157POPC   D2A77608  33.367  36.036   6.655
 6157POPC   C3A77609  33.158  36.005   7.062
 6157POPC   C4A77610  33.113  36.081   7.538
 6157POPC   C1B77611  32.832  36.599   6.259
 6157POPC   C2B77612  32.797  36.771   6.636
 6157POPC   C3B77613  32.674  36.605   7.003
 6157POPC   C4B77614  32.754  36.423   7.397
 6158POPC   NC377615  44.952  12.819   5.386
 6158POPC   PO477616  44.375  13.070   5.520
 6158POPC   GL177617  44.547  12.764   5.827
 6158POPC   GL277618  44.874  12.629   5.858
 6158POPC   C1A77619  44.458  12.587   6.244
 6158POPC   D2A77620  44.677  12.385   6.601
 6158POPC   C3A77621  44.673  12.573   6.993
 6158POPC   C4A77622  44.768  12.956   7.136
 6158POPC   C1B77623  44.962  12.699   6.284
 6158POPC   C2B77624   0.073  12.787   6.688
 6158POPC   C3B77625   0.173  12.567   7.010
 6158POPC   C4B77626   0.114  12.527   7.402
 6159POPC   NC377627  18.281   4.806   5.388
 6159POPC   PO477628  18.317   5.466   5.342
 6159POPC   GL177629  18.306   5.175   5.734
 6159POPC   GL277630  18.624   5.051   5.841
 6159POPC   C1A77631  18.248   4.958   6.164
 6159POPC   D2A77632  18.458   5.045   6.582
 6159POPC   C3A77633  18.130   5.202   6.842
 6159POPC   C4A77634  18.020   5.031   7.226
 6159POPC   C1B77635  18.520   5.384   6.183
 6159POPC   C2B77636  18.436   5.567   6.616
 6159POPC   C3B77637  18.545   5.461   7.010
 6159POPC   C4B77638  18.521   5.040   7.153
 6160POPC   NC377639   9.349  34.566   5.494
 6160POPC   PO477640   9.911  34.880   5.136
 6160POPC   GL177641   9.865  34.551   5.635
 6160POPC   GL277642   9.597  34.494   5.913
 6160POPC   C1A77643  10.028  34.620   6.131
 6160POPC   D2A77644  10.126  34.424   6.567
 6160POPC   C3A77645   9.983  34.434   7.036
 6160POPC   C4A77646   9.938  34.326   7.517
 6160POPC   C1B77647   9.602  34.466   6.360
 6160POPC   C2B77648   9.707  34.742   6.681
 6160POPC   C3B77649   9.530  34.637   7.073
 6160POPC   C4B77650   9.279  34.305   7.188
 6161POPC   NC377651  30.363   2.082   5.467
 6161POPC   PO477652  30.961   1.797   5.491
 6161POPC   GL177653  30.950   2.184   5.762
 6161POPC   GL277654  30.633   2.354   5.816
 6161POPC   C1A77655  30.908   2.150   6.224
 6161POPC   D2A77656  30.738   1.781   6.459
 6161POPC   C3A77657  30.601   1.820   6.879
 6161POPC   C4A77658  30.795   1.921   7.255
 6161POPC   C1B77659  30.406   2.183   6.140
 6161POPC   C2B77660  30.470   2.229   6.564
 6161POPC   C3B77661  30.215   2.213   6.891
 6161POPC   C4B77662  30.254   2.343   7.303
 6162POPC   NC377663  28.354  27.441   5.582
 6162POPC   PO477664  28.272  26.904   5.155
 6162POPC   GL177665  28.366  26.899   5.625
 6162POPC   GL277666  28.684  26.932   5.787
 6162POPC   C1A77667  28.227  26.754   6.064
 6162POPC   D2A77668  28.065  26.845   6.492
 6162POPC   C3A77669  28.306  26.753   6.877
 6162POPC   C4A77670  28.515  26.593   7.262
 6162POPC   C1B77671  28.905  26.962   6.205
 6162POPC   C2B77672  28.797  26.956   6.657
 6162POPC   C3B77673  28.601  27.158   7.020
 6162POPC   C4B77674  28.666  27.069   7.421
 6163POPC   NC377675  44.233   0.552   5.555
 6163POPC   PO477676  43.901   0.238   5.075
 6163POPC   GL177677  43.718   0.596   5.559
 6163POPC   GL277678  43.926   0.717   5.906
 6163POPC   C1A77679  43.513   0.527   6.088
 6163POPC   D2A77680  43.564   0.261   6.529
 6163POPC   C3A77681  43.880   0.386   6.913
 6163POPC   C4A77682  43.765   0.601   7.316
 6163POPC   C1B77683  44.278   0.766   6.246
 6163POPC   C2B77684  44.347   0.651   6.718
 6163POPC   C3B77685  44.300   0.678   7.165
 6163POPC   C4B77686  44.204   0.701   7.590
 6164POPC   NC377687   6.310  35.552   5.445
 6164POPC   PO477688   6.374  35.042   5.848
 6164POPC   GL177689   6.689  35.384   5.832
 6164POPC   GL277690   6.727  35.745   5.794
 6164POPC   C1A77691   6.921  35.495   6.210
 6164POPC   D2A77692   7.030  35.330   6.633
 6164POPC   C3A77693   6.844  35.050   6.945
 6164POPC   C4A77694   6.792  35.194   7.372
 6164POPC   C1B77695   6.421  35.684   6.139
 6164POPC   C2B77696   6.435  35.430   6.529
 6164POPC   C3B77697   6.476  35.429   6.998
 6164POPC   C4B77698   6.470  35.614   7.456
 6165POPC   NC377699  13.301  18.398   5.493
 6165POPC   PO477700  13.943  18.641   5.392
 6165POPC   GL177701  13.738  18.423   5.787
 6165POPC   GL277702  13.472  18.154   5.922
 6165POPC   C1A77703  13.655  18.494   6.238
 6165POPC   D2A77704  13.793  18.276   6.596
 6165POPC   C3A77705  13.585  18.240   6.998
 6165POPC   C4A77706  13.886  18.547   7.105
 6165POPC   C1B77707  13.854  18.009   6.135
 6165POPC   C2B77708  13.942  17.811   6.527
 6165POPC   C3B77709  14.013  17.923   6.933
 6165POPC   C4B77710  13.993  18.069   7.322
 6166POPC   NC377711   2.068  36.000   5.406
 6166POPC   PO477712   1.737  36.562   5.305
 6166POPC   GL177713   1.746  36.306   5.737
 6166POPC   GL277714   2.103  36.188   5.878
 6166POPC   C1A77715   1.701  36.164   6.206
 6166POPC   D2A77716   1.755  35.973   6.652
 6166POPC   C3A77717   1.770  36.239   7.001
 6166POPC   C4A77718   2.106  36.451   7.234
 6166POPC   C1B77719   2.355  36.017   6.240
 6166POPC   C2B77720   2.480  36.055   6.698
 6166POPC   C3B77721   2.182  35.971   7.038
 6166POPC   C4B77722   1.903  35.988   7.428
 6167POPC   NC377723  22.596   5.414   5.536
 6167POPC   PO477724  21.833   5.468   5.373
 6167POPC   GL177725  22.076   5.310   5.761
 6167POPC   GL277726  22.324   5.013   5.721
 6167POPC   C1A77727  22.206   5.174   6.190
 6167POPC   D2A77728  22.082   5.076   6.592
 6167POPC   C3A77729  22.239   5.282   6.939
 6167POPC   C4A77730  22.069   5.066   7.268
 6167POPC   C1B77731  22.415   4.713   6.059
 6167POPC   C2B77732  22.508   4.746   6.494
 6167POPC   C3B77733  22.371   4.773   6.906
 6167POPC   C4B77734  22.412   4.606   7.287
 6168POPC   NC377735   3.862  30.388   5.445
 6168POPC   PO477736   4.490  30.576   5.454
 6168POPC   GL177737   4.224  30.687   5.804
 6168POPC   GL277738   4.014  30.460   5.973
 6168POPC   C1A77739   4.217  30.875   6.219
 6168POPC   D2A77740   4.133  30.598   6.615
 6168POPC   C3A77741   4.318  30.838   6.970
 6168POPC   C4A77742   4.491  31.003   7.348
 6168POPC   C1B77743   4.470  30.442   6.199
 6168POPC   C2B77744   4.642  30.564   6.640
 6168POPC   C3B77745   4.472  30.354   7.028
 6168POPC   C4B77746   4.424  30.339   7.479
 6169POPC   NC377747  39.799  33.673   5.499
 6169POPC   PO477748  39.784  34.377   5.392
 6169POPC   GL177749  39.816  34.175   5.811
 6169POPC   GL277750  39.563  33.926   5.902
 6169POPC   C1A77751  40.051  33.936   6.155
 6169POPC   D2A77752  40.109  33.621   6.501
 6169POPC   C3A77753  40.263  33.688   6.934
 6169POPC   C4A77754  40.096  33.991   7.244
 6169POPC   C1B77755  39.686  33.544   6.164
 6169POPC   C2B77756  39.611  33.472   6.624
 6169POPC   C3B77757  39.742  33.708   6.997
 6169POPC   C4B77758  39.798  33.659   7.471
 6170POPC   NC377759  21.282  19.479   5.276
 6170POPC   PO477760  21.495  18.899   5.626
 6170POPC   GL177761  21.393  19.099   5.949
 6170POPC   GL277762  21.155  19.356   5.847
 6170POPC   C1A77763  21.637  19.110   6.302
 6170POPC   D2A77764  21.471  18.909   6.620
 6170POPC   C3A77765  21.714  18.971   6.926
 6170POPC   C4A77766  21.589  18.715   7.219
 6170POPC   C1B77767  21.249  19.454   6.294
 6170POPC   C2B77768  21.489  19.426   6.704
 6170POPC   C3B77769  21.266  19.284   7.081
 6170POPC   C4B77770  21.239  19.424   7.533
 6171POPC   NC377771   4.414   0.610   5.348
 6171POPC   PO477772   4.019   0.062   5.544
 6171POPC   GL177773   4.192   0.219   5.900
 6171POPC   GL277774   4.361   0.537   5.857
 6171POPC   C1A77775   4.172   0.240   6.328
 6171POPC   D2A77776   4.407   0.216   6.701
 6171POPC   C3A77777   4.121   0.353   7.030
 6171POPC   C4A77778   4.214   0.430   7.454
 6171POPC   C1B77779   4.610   0.515   6.242
 6171POPC   C2B77780   4.562   0.713   6.647
 6171POPC   C3B77781   4.586   0.606   7.123
 6171POPC   C4B77782   4.634   0.677   7.626
 6172POPC   NC377783  29.305  18.121   5.477
 6172POPC   PO477784  28.908  18.560   5.245
 6172POPC   GL177785  28.934  18.358   5.736
 6172POPC   GL277786  29.299  18.363   5.924
 6172POPC   C1A77787  28.923  18.197   6.208
 6172POPC   D2A77788  28.707  18.138   6.607
 6172POPC   C3A77789  28.875  17.990   7.042
 6172POPC   C4A77790  28.889  18.060   7.483
 6172POPC   C1B77791  29.453  18.211   6.341
 6172POPC   C2B77792  29.547  17.946   6.733
 6172POPC   C3B77793  29.401  18.058   7.129
 6172POPC   C4B77794  29.243  18.452   7.172
 6173POPC   NC377795  39.566   7.397   5.536
 6173POPC   PO477796  38.906   7.573   5.488
 6173POPC   GL177797  39.219   7.514   5.884
 6173POPC   GL277798  39.588   7.599   5.987
 6173POPC   C1A77799  39.367   7.233   6.268
 6173POPC   D2A77800  39.251   7.211   6.721
 6173POPC   C3A77801  39.514   7.431   7.054
 6173POPC   C4A77802  39.318   7.306   7.449
 6173POPC   C1B77803  39.329   7.835   6.268
 6173POPC   C2B77804  39.301   7.732   6.701
 6173POPC   C3B77805  39.102   7.714   7.131
 6173POPC   C4B77806  39.050   7.746   7.589
 6174POPC   NC377807  36.377   2.806   5.461
 6174POPC   PO477808  35.688   2.860   5.352
 6174POPC   GL177809  35.898   2.755   5.802
 6174POPC   GL277810  36.262   2.620   5.912
 6174POPC   C1A77811  35.931   2.845   6.276
 6174POPC   D2A77812  36.003   2.577   6.655
 6174POPC   C3A77813  36.020   2.801   7.078
 6174POPC   C4A77814  36.041   3.048   7.477
 6174POPC   C1B77815  36.462   2.815   6.266
 6174POPC   C2B77816  36.370   2.921   6.724
 6174POPC   C3B77817  36.488   2.982   7.166
 6174POPC   C4B77818  36.486   2.776   7.572
 6175POPC   NC377819  24.753  25.195   5.217
 6175POPC   PO477820  24.103  25.212   5.467
 6175POPC   GL177821  24.336  25.080   5.820
 6175POPC   GL277822  24.493  25.405   5.937
 6175POPC   C1A77823  24.354  25.074   6.274
 6175POPC   D2A77824  24.508  25.417   6.531
 6175POPC   C3A77825  24.402  25.266   6.921
 6175POPC   C4A77826  24.541  25.027   7.275
 6175POPC   C1B77827  24.905  25.430   6.201
 6175POPC   C2B77828  25.105  25.436   6.599
 6175POPC   C3B77829  24.897  25.408   6.965
 6175POPC   C4B77830  24.663  25.518   7.293
 6176POPC   NC377831  19.000  17.455   5.644
 6176POPC   PO477832  19.510  17.102   5.652
 6176POPC   GL177833  19.335  17.333   6.012
 6176POPC   GL277834  19.334  17.682   5.993
 6176POPC   C1A77835  18.986  17.358   6.335
 6176POPC   D2A77836  18.914  17.610   6.711
 6176POPC   C3A77837  18.774  17.408   7.098
 6176POPC   C4A77838  18.959  17.375   7.518
 6176POPC   C1B77839  19.563  17.736   6.371
 6176POPC   C2B77840  19.410  17.792   6.773
 6176POPC   C3B77841  19.268  17.541   7.098
 6176POPC   C4B77842  19.375  17.735   7.453
 6177POPC   NC377843  40.063  15.077   5.388
 6177POPC   PO477844  39.758  15.579   5.692
 6177POPC   GL177845  39.517  15.279   5.902
 6177POPC   GL277846  39.709  14.993   5.822
 6177POPC   C1A77847  39.562  15.286   6.320
 6177POPC   D2A77848  39.952  15.347   6.475
 6177POPC   C3A77849  39.886  15.307   6.869
 6177POPC   C4A77850  40.172  15.285   7.166
 6177POPC   C1B77851  39.969  14.938   6.184
 6177POPC   C2B77852  39.868  14.840   6.612
 6177POPC   C3B77853  39.982  14.816   7.039
 6177POPC   C4B77854  40.311  14.826   7.343
 6178POPC   NC377855  34.557   1.505   5.502
 6178POPC   PO477856  33.941   1.670   5.475
 6178POPC   GL177857  34.171   1.404   5.830
 6178POPC   GL277858  34.327   1.047   5.778
 6178POPC   C1A77859  34.343   1.292   6.251
 6178POPC   D2A77860  34.723   1.416   6.479
 6178POPC   C3A77861  34.697   1.347   6.894
 6178POPC   C4A77862  34.307   1.305   7.075
 6178POPC   C1B77863  34.643   0.887   6.126
 6178POPC   C2B77864  34.822   0.892   6.562
 6178POPC   C3B77865  34.571   0.861   6.947
 6178POPC   C4B77866  34.471   0.899   7.382
 6179POPC   NC377867  18.903  31.165   5.461
 6179POPC   PO477868  19.030  30.493   5.382
 6179POPC   GL177869  19.173  30.624   5.783
 6179POPC   GL277870  19.455  30.385   5.861
 6179POPC   C1A77871  19.055  30.868   6.163
 6179POPC   D2A77872  19.039  30.695   6.588
 6179POPC   C3A77873  19.110  30.892   6.993
 6179POPC   C4A77874  18.805  30.867   7.318
 6179POPC   C1B77875  19.496  30.629   6.262
 6179POPC   C2B77876  19.533  30.706   6.703
 6179POPC   C3B77877  19.370  30.448   7.007
 6179POPC   C4B77878  19.197  30.522   7.378
 6180POPC   NC377879  29.598  26.624   5.442
 6180POPC   PO477880  30.312  26.486   5.349
 6180POPC   GL177881  30.199  26.618   5.769
 6180POPC   GL277882  29.991  26.926   5.739
 6180POPC   C1A77883  29.941  26.556   6.165
 6180POPC   D2A77884  29.670  26.724   6.520
 6180POPC   C3A77885  29.836  26.616   6.960
 6180POPC   C4A77886  30.245  26.613   7.155
 6180POPC   C1B77887  29.921  27.066   6.195
 6180POPC   C2B77888  30.072  27.018   6.652
 6180POPC   C3B77889  30.023  27.070   7.117
 6180POPC   C4B77890  29.919  27.230   7.508
 6181POPC   NC377891  29.439  36.132   5.463
 6181POPC   PO477892  28.873  36.305   5.623
 6181POPC   GL177893  28.939  36.071   5.939
 6181POPC   GL277894  29.252  36.154   5.955
 6181POPC   C1A77895  28.952  36.096   6.351
 6181POPC   D2A77896  29.182  36.061   6.672
 6181POPC   C3A77897  28.976  36.153   7.055
 6181POPC   C4A77898  28.887  36.261   7.497
 6181POPC   C1B77899  29.433  36.334   6.306
 6181POPC   C2B77900  29.682  36.099   6.606
 6181POPC   C3B77901  29.574  36.066   7.022
 6181POPC   C4B77902  29.398  36.295   7.336
 6182POPC   NC377903   8.332   1.864   5.328
 6182POPC   PO477904   8.104   2.480   5.366
 6182POPC   GL177905   8.317   2.213   5.744
 6182POPC   GL277906   8.423   1.822   5.819
 6182POPC   C1A77907   8.127   2.093   6.158
 6182POPC   D2A77908   8.284   2.169   6.561
 6182POPC   C3A77909   8.064   2.133   6.948
 6182POPC   C4A77910   8.355   2.302   7.252
 6182POPC   C1B77911   8.237   1.600   6.181
 6182POPC   C2B77912   8.135   1.686   6.599
 6182POPC   C3B77913   8.337   1.711   6.988
 6182POPC   C4B77914   8.078   1.756   7.353
 6183POPC   NC377915  42.763   0.938   5.365
 6183POPC   PO477916  43.341   1.241   5.230
 6183POPC   GL177917  43.180   1.248   5.686
 6183POPC   GL277918  42.947   1.501   5.833
 6183POPC   C1A77919  43.338   1.240   6.129
 6183POPC   D2A77920  43.306   1.393   6.570
 6183POPC   C3A77921  43.449   1.181   6.912
 6183POPC   C4A77922  43.335   0.830   7.161
 6183POPC   C1B77923  42.889   1.443   6.274
 6183POPC   C2B77924  42.823   1.269   6.670
 6183POPC   C3B77925  42.904   1.251   7.104
 6183POPC   C4B77926  42.849   1.424   7.510
 6184POPC   NC377927  14.410  10.850   5.506
 6184POPC   PO477928  14.283  10.114   5.565
 6184POPC   GL177929  14.385  10.444   5.827
 6184POPC   GL277930  14.080  10.646   5.831
 6184POPC   C1A77931  14.524  10.432   6.259
 6184POPC   D2A77932  14.356  10.470   6.687
 6184POPC   C3A77933  14.665  10.401   7.032
 6184POPC   C4A77934  14.658  10.573   7.444
 6184POPC   C1B77935  13.993  10.395   6.206
 6184POPC   C2B77936  13.767  10.397   6.600
 6184POPC   C3B77937  13.919  10.507   6.988
 6184POPC   C4B77938  14.211  10.457   7.245
 6185POPC   NC377939   8.592   2.522   5.423
 6185POPC   PO477940   9.338   2.667   5.363
 6185POPC   GL177941   9.090   2.561   5.751
 6185POPC   GL277942   8.707   2.612   5.911
 6185POPC   C1A77943   9.130   2.641   6.200
 6185POPC   D2A77944   9.077   2.951   6.532
 6185POPC   C3A77945   9.157   2.731   6.926
 6185POPC   C4A77946   9.324   2.924   7.264
 6185POPC   C1B77947   8.607   2.786   6.361
 6185POPC   C2B77948   8.657   2.852   6.841
 6185POPC   C3B77949   8.793   2.829   7.283
 6185POPC   C4B77950   8.608   2.600   7.655
 6186POPC   NC377951  20.235  31.539   5.292
 6186POPC   PO477952  20.903  31.398   5.239
 6186POPC   GL177953  20.653  31.543   5.643
 6186POPC   GL277954  20.328  31.617   5.898
 6186POPC   C1A77955  20.788  31.491   6.073
 6186POPC   D2A77956  20.620  31.612   6.466
 6186POPC   C3A77957  20.828  31.398   6.794
 6186POPC   C4A77958  20.774  31.503   7.209
 6186POPC   C1B77959  20.214  31.343   6.268
 6186POPC   C2B77960  20.351  31.184   6.662
 6186POPC   C3B77961  20.306  31.370   7.050
 6186POPC   C4B77962  20.235  31.558   7.428
 6187POPC   NC377963  29.294  16.039   5.025
 6187POPC   PO477964  28.860  16.075   5.549
 6187POPC   GL177965  29.066  15.917   5.942
 6187POPC   GL277966  28.970  16.205   6.122
 6187POPC   C1A77967  29.296  15.916   6.379
 6187POPC   D2A77968  29.358  16.233   6.743
 6187POPC   C3A77969  29.491  16.038   7.139
 6187POPC   C4A77970  29.181  15.727   7.300
 6187POPC   C1B77971  28.778  15.864   6.405
 6187POPC   C2B77972  28.971  15.853   6.819
 6187POPC   C3B77973  29.013  16.183   7.136
 6187POPC   C4B77974  29.099  16.139   7.575
 6188POPC   NC377975  26.186   1.557   5.229
 6188POPC   PO477976  26.170   2.208   5.293
 6188POPC   GL177977  25.927   2.133   5.688
 6188POPC   GL277978  25.812   1.770   5.694
 6188POPC   C1A77979  26.104   2.069   6.127
 6188POPC   D2A77980  26.140   1.840   6.541
 6188POPC   C3A77981  26.021   2.091   6.929
 6188POPC   C4A77982  26.136   2.328   7.330
 6188POPC   C1B77983  25.759   1.679   6.151
 6188POPC   C2B77984  25.616   1.871   6.556
 6188POPC   C3B77985  25.646   1.703   6.975
 6188POPC   C4B77986  25.962   1.698   7.295
 6189POPC   NC377987   8.578  42.912   5.291
 6189POPC   PO477988   9.062  43.358   5.579
 6189POPC   GL177989   8.860  43.256   5.927
 6189POPC   GL277990   8.781  42.883   5.844
 6189POPC   C1A77991   8.802  43.421   6.361
 6189POPC   D2A77992   8.523  43.293   6.718
 6189POPC   C3A77993   8.692  43.229   7.132
 6189POPC   C4A77994   8.754  42.930   7.498
 6189POPC   C1B77995   8.965  42.921   6.294
 6189POPC   C2B77996   8.841  42.867   6.732
 6189POPC   C3B77997   9.083  42.923   7.114
 6189POPC   C4B77998   9.107  43.274   7.462
 6190POPC   NC377999  10.681  40.468   5.210
 6190POPC   PO478000  10.356  40.906   5.627
 6190POPC   GL178001  10.693  40.904   5.916
 6190POPC   GL278002  10.919  40.607   5.989
 6190POPC   C1A78003  10.637  41.029   6.348
 6190POPC   D2A78004  10.305  40.816   6.553
 6190POPC   C3A78005  10.488  40.606   6.872
 6190POPC   C4A78006  10.544  40.846   7.264
 6190POPC   C1B78007  10.676  40.495   6.369
 6190POPC   C2B78008  10.243  40.311   6.468
 6190POPC   C3B78009  10.082  40.264   6.876
 6190POPC   C4B78010  10.261  40.386   7.260
 6191POPC   NC378011  15.692   5.153   5.371
 6191POPC   PO478012  15.009   5.337   5.482
 6191POPC   GL178013  15.271   5.222   5.874
 6191POPC   GL278014  15.542   4.979   5.829
 6191POPC   C1A78015  15.411   5.139   6.329
 6191POPC   D2A78016  15.137   5.051   6.676
 6191POPC   C3A78017  15.207   5.139   7.112
 6191POPC   C4A78018  15.274   4.963   7.551
 6191POPC   C1B78019  15.630   4.687   6.175
 6191POPC   C2B78020  15.460   4.652   6.627
 6191POPC   C3B78021  15.522   4.685   7.107
 6191POPC   C4B78022  15.577   4.561   7.558
 6192POPC   NC378023  30.967  18.747   5.471
 6192POPC   PO478024  30.592  19.302   5.434
 6192POPC   GL178025  30.618  19.019   5.787
 6192POPC   GL278026  30.956  18.969   5.915
 6192POPC   C1A78027  30.551  18.927   6.205
 6192POPC   D2A78028  30.774  18.929   6.594
 6192POPC   C3A78029  30.572  19.070   6.960
 6192POPC   C4A78030  30.643  18.892   7.323
 6192POPC   C1B78031  31.171  18.833   6.278
 6192POPC   C2B78032  31.302  18.789   6.698
 6192POPC   C3B78033  31.060  18.705   7.074
 6192POPC   C4B78034  31.122  18.795   7.510
 6193POPC   NC378035  23.561  40.957   5.313
 6193POPC   PO478036  24.072  40.520   5.469
 6193POPC   GL178037  23.836  40.704   5.793
 6193POPC   GL278038  23.491  40.670   5.766
 6193POPC   C1A78039  23.903  40.665   6.228
 6193POPC   D2A78040  24.085  40.718   6.629
 6193POPC   C3A78041  23.898  40.617   7.023
 6193POPC   C4A78042  24.159  40.852   7.282
 6193POPC   C1B78043  23.408  40.771   6.213
 6193POPC   C2B78044  23.503  40.660   6.678
 6193POPC   C3B78045  23.423  40.791   7.152
 6193POPC   C4B78046  23.330  41.057   7.539
 6194POPC   NC378047  33.151   6.157   5.543
 6194POPC   PO478048  32.839   5.594   5.514
 6194POPC   GL178049  33.036   5.726   5.905
 6194POPC   GL278050  32.829   6.014   5.916
 6194POPC   C1A78051  32.928   5.792   6.380
 6194POPC   D2A78052  32.828   5.768   6.848
 6194POPC   C3A78053  33.098   5.675   7.201
 6194POPC   C4A78054  33.475   5.586   7.460
 6194POPC   C1B78055  32.963   6.302   6.251
 6194POPC   C2B78056  33.070   6.218   6.683
 6194POPC   C3B78057  33.026   6.286   7.114
 6194POPC   C4B78058  32.778   6.055   7.383
 6195POPC   NC378059  34.096   7.411   5.428
 6195POPC   PO478060  33.445   7.557   5.442
 6195POPC   GL178061  33.722   7.455   5.779
 6195POPC   GL278062  33.570   7.307   6.009
 6195POPC   C1A78063  33.906   7.687   6.175
 6195POPC   D2A78064  34.031   7.929   6.553
 6195POPC   C3A78065  33.969   7.669   6.903
 6195POPC   C4A78066  33.592   7.473   7.027
 6195POPC   C1B78067  34.019   7.201   6.123
 6195POPC   C2B78068  33.976   7.176   6.561
 6195POPC   C3B78069  33.597   7.046   6.739
 6195POPC   C4B78070  33.493   7.024   7.192
 6196POPC   NC378071  39.537  18.689   5.643
 6196POPC   PO478072  39.081  18.886   5.203
 6196POPC   GL178073  39.095  18.993   5.664
 6196POPC   GL278074  38.816  18.783   5.713
 6196POPC   C1A78075  39.217  19.210   6.092
 6196POPC   D2A78076  39.329  19.379   6.530
 6196POPC   C3A78077  39.334  19.096   6.898
 6196POPC   C4A78078  39.148  19.124   7.331
 6196POPC   C1B78079  38.985  18.758   6.129
 6196POPC   C2B78080  39.021  18.920   6.539
 6196POPC   C3B78081  38.935  18.813   6.982
 6196POPC   C4B78082  39.240  18.630   7.330
 6197POPC   NC378083  42.538   6.856   5.488
 6197POPC   PO478084  42.214   6.312   5.584
 6197POPC   GL178085  42.012   6.346   5.989
 6197POPC   GL278086  42.183   6.670   6.044
 6197POPC   C1A78087  41.990   6.400   6.442
 6197POPC   D2A78088  42.296   6.679   6.645
 6197POPC   C3A78089  42.458   6.563   7.052
 6197POPC   C4A78090  42.406   6.340   7.439
 6197POPC   C1B78091  42.620   6.691   6.235
 6197POPC   C2B78092  42.837   6.695   6.651
 6197POPC   C3B78093  42.832   6.923   7.032
 6197POPC   C4B78094  42.720   6.805   7.459
 6198POPC   NC378095  21.558  16.531   5.370
 6198POPC   PO478096  20.949  16.660   5.649
 6198POPC   GL178097  21.380  16.685   5.837
 6198POPC   GL278098  21.552  16.997   5.706
 6198POPC   C1A78099  21.550  16.672   6.272
 6198POPC   D2A78100  21.409  16.818   6.704
 6198POPC   C3A78101  21.444  16.705   7.161
 6198POPC   C4A78102  21.151  16.527   7.520
 6198POPC   C1B78103  21.457  17.163   6.121
 6198POPC   C2B78104  21.588  17.286   6.541
 6198POPC   C3B78105  21.453  17.235   7.004
 6198POPC   C4B78106  21.598  17.159   7.436
 6199POPC   NC378107  22.789  36.311   5.478
 6199POPC   PO478108  23.169  35.784   5.368
 6199POPC   GL178109  23.111  35.987   5.769
 6199POPC   GL278110  22.747  36.027   5.906
 6199POPC   C1A78111  23.130  35.854   6.211
 6199POPC   D2A78112  22.989  36.025   6.618
 6199POPC   C3A78113  23.271  36.075   6.981
 6199POPC   C4A78114  23.270  35.982   7.447
 6199POPC   C1B78115  22.533  35.921   6.315
 6199POPC   C2B78116  22.526  35.817   6.766
 6199POPC   C3B78117  22.732  36.121   7.083
 6199POPC   C4B78118  22.794  36.159   7.534
 6200POPC   NC378119  26.036  14.866   5.196
 6200POPC   PO478120  25.913  14.270   5.394
 6200POPC   GL178121  26.089  14.292   5.882
 6200POPC   GL278122  26.349  14.551   5.967
 6200POPC   C1A78123  25.935  14.411   6.274
 6200POPC   D2A78124  25.836  14.684   6.587
 6200POPC   C3A78125  25.794  14.465   6.964
 6200POPC   C4A78126  25.925  14.690   7.290
 6200POPC   C1B78127  26.421  14.256   6.308
 6200POPC   C2B78128  26.245  14.351   6.727
 6200POPC   C3B78129  26.336  14.406   7.165
 6200POPC   C4B78130  26.499  14.121   7.468
 6201POPC   NC378131  20.000   3.961   5.331
 6201POPC   PO478132  19.515   3.453   5.549
 6201POPC   GL178133  19.689   3.533   5.909
 6201POPC   GL278134  20.013   3.567   5.901
 6201POPC   C1A78135  19.633   3.471   6.309
 6201POPC   D2A78136  19.833   3.513   6.680
 6201POPC   C3A78137  19.583   3.452   7.015
 6201POPC   C4A78138  19.779   3.797   7.243
 6201POPC   C1B78139  20.076   3.195   6.184
 6201POPC   C2B78140  20.282   3.123   6.567
 6201POPC   C3B78141  20.132   3.159   6.990
 6201POPC   C4B78142  20.335   3.041   7.367
 6202POPC   NC378143  11.170  20.932   5.399
 6202POPC   PO478144  11.577  20.388   5.166
 6202POPC   GL178145  11.419  20.522   5.620
 6202POPC   GL278146  11.191  20.269   5.746
 6202POPC   C1A78147  11.410  20.594   6.108
 6202POPC   D2A78148  11.234  20.874   6.440
 6202POPC   C3A78149  11.290  20.814   6.881
 6202POPC   C4A78150  11.035  21.006   7.201
 6202POPC   C1B78151  11.172  20.166   6.206
 6202POPC   C2B78152  11.205  20.373   6.614
 6202POPC   C3B78153  11.416  20.324   7.038
 6202POPC   C4B78154  11.264  20.120   7.405
 6203POPC   NC378155  37.302  31.549   5.313
 6203POPC   PO478156  37.961  31.404   5.436
 6203POPC   GL178157  37.895  31.645   5.780
 6203POPC   GL278158  37.544  31.702   5.756
 6203POPC   C1A78159  37.793  31.518   6.206
 6203POPC   D2A78160  37.651  31.318   6.562
 6203POPC   C3A78161  37.792  31.471   6.941
 6203POPC   C4A78162  37.523  31.461   7.337
 6203POPC   C1B78163  37.478  31.909   6.135
 6203POPC   C2B78164  37.538  31.821   6.564
 6203POPC   C3B78165  37.360  31.737   6.930
 6203POPC   C4B78166  37.264  31.899   7.332
 6204POPC   NC378167  26.390  44.218   5.745
 6204POPC   PO478168  26.211  44.829   5.301
 6204POPC   GL178169  26.054  44.849   5.776
 6204POPC   GL278170  25.712   0.045   5.796
 6204POPC   C1A78171  26.264  44.751   6.220
 6204POPC   D2A78172  26.263  44.438   6.570
 6204POPC   C3A78173  26.228  44.635   6.955
 6204POPC   C4A78174  26.121  44.532   7.344
 6204POPC   C1B78175  25.815  44.985   6.239
 6204POPC   C2B78176  25.818  44.808   6.660
 6204POPC   C3B78177  25.739  44.786   7.105
 6204POPC   C4B78178  25.897  44.966   7.500
 6205POPC   NC378179   8.420   0.883   5.497
 6205POPC   PO478180   8.071   1.481   5.404
 6205POPC   GL178181   8.137   1.228   5.791
 6205POPC   GL278182   8.487   1.291   5.857
 6205POPC   C1A78183   8.229   1.051   6.229
 6205POPC   D2A78184   8.348   1.236   6.651
 6205POPC   C3A78185   8.114   1.250   7.067
 6205POPC   C4A78186   7.858   0.972   7.307
 6205POPC   C1B78187   8.712   1.443   6.266
 6205POPC   C2B78188   8.822   1.380   6.714
 6205POPC   C3B78189   8.793   1.518   7.139
 6205POPC   C4B78190   8.474   1.449   7.443
 6206POPC   NC378191   6.215  34.744   5.528
 6206POPC   PO478192   5.752  34.218   5.517
 6206POPC   GL178193   5.840  34.499   5.817
 6206POPC   GL278194   6.157  34.329   5.839
 6206POPC   C1A78195   5.727  34.861   6.111
 6206POPC   D2A78196   5.533  34.906   6.540
 6206POPC   C3A78197   5.847  34.776   6.869
 6206POPC   C4A78198   5.997  34.761   7.318
 6206POPC   C1B78199   6.020  34.408   6.283
 6206POPC   C2B78200   5.954  34.210   6.695
 6206POPC   C3B78201   5.858  34.315   7.125
 6206POPC   C4B78202   6.117  34.318   7.485
 6207POPC   NC378203  24.927  23.224   5.396
 6207POPC   PO478204  25.084  23.909   5.429
 6207POPC   GL178205  25.225  23.583   5.678
 6207POPC   GL278206  25.329  23.901   5.876
 6207POPC   C1A78207  25.303  23.415   6.084
 6207POPC   D2A78208  25.497  23.567   6.437
 6207POPC   C3A78209  25.352  23.397   6.799
 6207POPC   C4A78210  25.380  23.482   7.197
 6207POPC   C1B78211  25.301  24.009   6.306
 6207POPC   C2B78212  25.163  23.885   6.707
 6207POPC   C3B78213  25.067  23.875   7.133
 6207POPC   C4B78214  25.451  24.040   7.288
 6208POPC   NC378215  14.027  21.598   5.373
 6208POPC   PO478216  13.610  21.106   5.363
 6208POPC   GL178217  13.574  21.367   5.697
 6208POPC   GL278218  13.860  21.502   5.851
 6208POPC   C1A78219  13.461  21.244   6.102
 6208POPC   D2A78220  13.553  21.161   6.519
 6208POPC   C3A78221  13.601  21.415   6.867
 6208POPC   C4A78222  13.747  21.293   7.250
 6208POPC   C1B78223  13.817  21.639   6.287
 6208POPC   C2B78224  13.833  21.836   6.702
 6208POPC   C3B78225  13.974  21.735   7.125
 6208POPC   C4B78226  14.158  21.497   7.458
 6209POPC   NC378227  17.819  10.672   5.565
 6209POPC   PO478228  17.405  10.106   5.521
 6209POPC   GL178229  17.476  10.373   5.844
 6209POPC   GL278230  17.146  10.498   5.917
 6209POPC   C1A78231  17.560  10.698   6.153
 6209POPC   D2A78232  17.374  10.801   6.542
 6209POPC   C3A78233  17.497  10.593   6.935
 6209POPC   C4A78234  17.426  10.668   7.383
 6209POPC   C1B78235  17.265  10.308   6.324
 6209POPC   C2B78236  17.490  10.117   6.699
 6209POPC   C3B78237  17.424  10.134   7.160
 6209POPC   C4B78238  17.175  10.245   7.518
 6210POPC   NC378239   6.758  26.339   5.097
 6210POPC   PO478240   6.350  25.994   5.488
 6210POPC   GL178241   6.602  26.059   5.824
 6210POPC   GL278242   6.891  25.839   5.819
 6210POPC   C1A78243   6.534  25.920   6.251
 6210POPC   D2A78244   6.333  25.865   6.673
 6210POPC   C3A78245   6.605  25.916   7.068
 6210POPC   C4A78246   6.465  25.998   7.512
 6210POPC   C1B78247   7.004  26.146   6.167
 6210POPC   C2B78248   6.879  26.222   6.590
 6210POPC   C3B78249   7.072  26.212   6.994
 6210POPC   C4B78250   6.943  26.159   7.394
 6211POPC   NC378251  24.715  42.251   5.117
 6211POPC   PO478252  24.367  42.734   5.330
 6211POPC   GL178253  24.473  42.378   5.578
 6211POPC   GL278254  24.176  42.443   5.771
 6211POPC   C1A78255  24.687  42.321   5.981
 6211POPC   D2A78256  24.628  42.384   6.439
 6211POPC   C3A78257  24.617  42.098   6.756
 6211POPC   C4A78258  24.562  42.221   7.179
 6211POPC   C1B78259  24.212  42.206   6.144
 6211POPC   C2B78260  24.131  41.952   6.484
 6211POPC   C3B78261  24.119  42.098   6.889
 6211POPC   C4B78262  24.126  41.915   7.254
 6212POPC   NC378263   8.651  31.536   5.448
 6212POPC   PO478264   9.329  31.478   5.638
 6212POPC   GL178265   8.964  31.380   5.832
 6212POPC   GL278266   8.757  31.100   5.706
 6212POPC   C1A78267   8.739  31.648   6.122
 6212POPC   D2A78268   8.619  31.633   6.560
 6212POPC   C3A78269   8.936  31.612   6.893
 6212POPC   C4A78270   9.080  31.704   7.302
 6212POPC   C1B78271   8.637  31.140   6.144
 6212POPC   C2B78272   8.805  31.146   6.528
 6212POPC   C3B78273   8.640  31.207   6.905
 6212POPC   C4B78274   8.752  31.273   7.290
 6213POPC   NC378275  17.416  14.050   5.043
 6213POPC   PO478276  17.429  13.549   5.498
 6213POPC   GL178277  17.545  13.657   5.899
 6213POPC   GL278278  17.204  13.712   5.953
 6213POPC   C1A78279  17.694  13.506   6.312
 6213POPC   D2A78280  17.551  13.469   6.743
 6213POPC   C3A78281  17.715  13.647   7.071
 6213POPC   C4A78282  17.674  13.937   7.396
 6213POPC   C1B78283  17.247  13.696   6.367
 6213POPC   C2B78284  17.150  13.823   6.744
 6213POPC   C3B78285  17.227  13.738   7.125
 6213POPC   C4B78286  17.325  13.314   7.191
 6214POPC   NC378287   6.224   0.565   5.481
 6214POPC   PO478288   5.788  44.993   5.485
 6214POPC   GL178289   5.707   0.259   5.862
 6214POPC   GL278290   6.055   0.306   5.885
 6214POPC   C1A78291   5.700   0.515   6.231
 6214POPC   D2A78292   5.868   0.500   6.646
 6214POPC   C3A78293   5.613   0.684   6.966
 6214POPC   C4A78294   5.610   0.531   7.372
 6214POPC   C1B78295   6.234   0.517   6.233
 6214POPC   C2B78296   6.344   0.705   6.644
 6214POPC   C3B78297   6.165   0.668   7.070
 6214POPC   C4B78298   6.068   0.280   7.295
 6215POPC   NC378299  20.076   6.599   5.231
 6215POPC   PO478300  19.501   6.772   5.289
 6215POPC   GL178301  19.699   6.565   5.709
 6215POPC   GL278302  20.065   6.466   5.823
 6215POPC   C1A78303  19.687   6.528   6.185
 6215POPC   D2A78304  19.902   6.728   6.559
 6215POPC   C3A78305  19.755   6.719   7.003
 6215POPC   C4A78306  19.997   6.848   7.356
 6215POPC   C1B78307  20.155   6.326   6.292
 6215POPC   C2B78308  19.950   6.193   6.703
 6215POPC   C3B78309  19.948   6.278   7.164
 6215POPC   C4B78310  20.175   6.163   7.529
 6216POPC   NC378311  26.970  40.862   5.456
 6216POPC   PO478312  26.340  40.782   5.233
 6216POPC   GL178313  26.538  40.729   5.693
 6216POPC   GL278314  26.680  40.967   5.878
 6216POPC   C1A78315  26.621  40.542   6.168
 6216POPC   D2A78316  26.838  40.539   6.634
 6216POPC   C3A78317  26.678  40.617   7.077
 6216POPC   C4A78318  26.785  40.521   7.533
 6216POPC   C1B78319  26.761  41.028   6.361
 6216POPC   C2B78320  26.658  41.059   6.825
 6216POPC   C3B78321  26.778  41.076   7.311
 6216POPC   C4B78322  26.751  41.028   7.759
 6217POPC   NC378323   9.499  18.437   5.152
 6217POPC   PO478324   9.904  18.422   5.637
 6217POPC   GL178325   9.700  18.334   5.974
 6217POPC   GL278326   9.399  18.486   5.794
 6217POPC   C1A78327   9.742  18.161   6.384
 6217POPC   D2A78328   9.641  18.106   6.811
 6217POPC   C3A78329   9.872  18.318   7.130
 6217POPC   C4A78330   9.886  18.107   7.540
 6217POPC   C1B78331   9.286  18.444   6.223
 6217POPC   C2B78332   9.483  18.564   6.604
 6217POPC   C3B78333   9.389  18.530   7.054
 6217POPC   C4B78334   9.546  18.495   7.492
 6218POPC   NC378335   4.302  15.540   5.553
 6218POPC   PO478336   4.599  14.971   5.297
 6218POPC   GL178337   4.495  15.091   5.742
 6218POPC   GL278338   4.678  15.379   5.837
 6218POPC   C1A78339   4.345  14.944   6.154
 6218POPC   D2A78340   4.452  14.744   6.551
 6218POPC   C3A78341   4.322  14.978   6.923
 6218POPC   C4A78342   4.541  15.031   7.317
 6218POPC   C1B78343   4.400  15.464   6.234
 6218POPC   C2B78344   4.200  15.449   6.686
 6218POPC   C3B78345   4.369  15.497   7.135
 6218POPC   C4B78346   4.137  15.544   7.538
 6219POPC   NC378347  41.539  33.840   5.334
 6219POPC   PO478348  41.035  33.693   5.665
 6219POPC   GL178349  41.371  33.945   5.819
 6219POPC   GL278350  41.304  33.723   6.105
 6219POPC   C1A78351  41.724  33.989   6.125
 6219POPC   D2A78352  41.655  33.741   6.534
 6219POPC   C3A78353  41.519  33.931   6.934
 6219POPC   C4A78354  41.729  34.084   7.317
 6219POPC   C1B78355  41.187  33.324   6.284
 6219POPC   C2B78356  41.369  33.293   6.674
 6219POPC   C3B78357  41.236  33.471   7.063
 6219POPC   C4B78358  41.505  33.640   7.357
 6220POPC   NC378359  18.633  24.526   5.566
 6220POPC   PO478360  18.010  24.348   5.486
 6220POPC   GL178361  18.180  24.533   5.855
 6220POPC   GL278362  17.982  24.827   5.837
 6220POPC   C1A78363  18.423  24.474   6.252
 6220POPC   D2A78364  18.779  24.552   6.536
 6220POPC   C3A78365  18.662  24.333   6.922
 6220POPC   C4A78366  18.294  24.427   7.207
 6220POPC   C1B78367  18.038  24.813   6.275
 6220POPC   C2B78368  18.061  24.659   6.692
 6220POPC   C3B78369  17.996  24.831   7.079
 6220POPC   C4B78370  18.005  24.719   7.535
 6221POPC   NC378371   6.275  17.432   5.398
 6221POPC   PO478372   6.945  17.541   5.395
 6221POPC   GL178373   6.674  17.648   5.771
 6221POPC   GL278374   6.314  17.615   5.879
 6221POPC   C1A78375   6.714  17.640   6.232
 6221POPC   D2A78376   6.847  17.464   6.629
 6221POPC   C3A78377   6.665  17.681   6.974
 6221POPC   C4A78378   6.717  17.557   7.391
 6221POPC   C1B78379   6.313  17.315   6.213
 6221POPC   C2B78380   6.327  17.427   6.657
 6221POPC   C3B78381   6.476  17.213   7.053
 6221POPC   C4B78382   6.320  17.252   7.480
 6222POPC   NC378383   5.075  15.502   5.457
 6222POPC   PO478384   5.413  14.882   5.509
 6222POPC   GL178385   5.412  15.072   5.885
 6222POPC   GL278386   5.182  15.301   5.946
 6222POPC   C1A78387   5.234  14.894   6.283
 6222POPC   D2A78388   5.000  14.838   6.635
 6222POPC   C3A78389   5.262  15.000   6.913
 6222POPC   C4A78390   5.138  15.010   7.304
 6222POPC   C1B78391   4.808  15.127   6.232
 6222POPC   C2B78392   4.658  15.235   6.620
 6222POPC   C3B78393   4.857  15.316   6.990
 6222POPC   C4B78394   4.853  15.405   7.427
 6223POPC   NC378395  36.903  34.089   5.457
 6223POPC   PO478396  36.744  33.360   5.443
 6223POPC   GL178397  36.952  33.600   5.764
 6223POPC   GL278398  36.631  33.635   5.899
 6223POPC   C1A78399  37.127  33.841   6.125
 6223POPC   D2A78400  37.042  34.114   6.473
 6223POPC   C3A78401  37.067  34.012   6.917
 6223POPC   C4A78402  36.721  34.146   7.164
 6223POPC   C1B78403  36.790  33.505   6.329
 6223POPC   C2B78404  36.873  33.501   6.794
 6223POPC   C3B78405  36.639  33.591   7.173
 6223POPC   C4B78406  36.631  33.579   7.630
 6224POPC   NC378407  31.863   3.768   5.591
 6224POPC   PO478408  31.361   3.321   5.374
 6224POPC   GL178409  31.224   3.535   5.787
 6224POPC   GL278410  31.522   3.704   5.937
 6224POPC   C1A78411  31.230   3.518   6.271
 6224POPC   D2A78412  31.595   3.479   6.559
 6224POPC   C3A78413  31.513   3.587   6.961
 6224POPC   C4A78414  31.773   3.396   7.287
 6224POPC   C1B78415  31.646   3.915   6.316
 6224POPC   C2B78416  31.703   4.044   6.748
 6224POPC   C3B78417  31.747   3.988   7.210
 6224POPC   C4B78418  31.531   3.875   7.620
 6225POPC   NC378419  16.948  26.699   5.485
 6225POPC   PO478420  17.591  26.834   5.301
 6225POPC   GL178421  17.539  26.918   5.731
 6225POPC   GL278422  17.824  27.156   5.754
 6225POPC   C1A78423  17.301  26.767   6.112
 6225POPC   D2A78424  17.254  26.668   6.567
 6225POPC   C3A78425  17.381  26.890   6.929
 6225POPC   C4A78426  17.469  26.601   7.217
 6225POPC   C1B78427  17.741  27.017   6.200
 6225POPC   C2B78428  17.782  26.927   6.647
 6225POPC   C3B78429  17.843  26.944   7.129
 6225POPC   C4B78430  17.937  26.603   7.418
 6226POPC   NC378431  22.068  23.863   5.444
 6226POPC   PO478432  22.432  23.335   5.651
 6226POPC   GL178433  22.210  23.626   5.875
 6226POPC   GL278434  21.921  23.478   5.798
 6226POPC   C1A78435  22.097  23.875   6.229
 6226POPC   D2A78436  22.179  23.736   6.621
 6226POPC   C3A78437  22.299  23.922   6.986
 6226POPC   C4A78438  22.296  23.669   7.388
 6226POPC   C1B78439  21.728  23.513   6.195
 6226POPC   C2B78440  21.662  23.670   6.598
 6226POPC   C3B78441  21.829  23.700   7.016
 6226POPC   C4B78442  21.870  23.318   7.224
 6227POPC   NC378443  21.245  30.597   5.438
 6227POPC   PO478444  21.430  31.175   5.505
 6227POPC   GL178445  21.465  30.875   5.852
 6227POPC   GL278446  21.111  30.807   5.898
 6227POPC   C1A78447  21.482  30.804   6.320
 6227POPC   D2A78448  21.564  30.836   6.785
 6227POPC   C3A78449  21.416  30.811   7.221
 6227POPC   C4A78450  21.721  30.491   7.430
 6227POPC   C1B78451  21.016  30.569   6.265
 6227POPC   C2B78452  21.235  30.436   6.630
 6227POPC   C3B78453  21.478  30.361   6.998
 6227POPC   C4B78454  21.221  30.397   7.411
 6228POPC   NC378455  43.282   7.989   5.290
 6228POPC   PO478456  43.171   8.635   5.438
 6228POPC   GL178457  43.077   8.331   5.803
 6228POPC   GL278458  43.267   8.047   5.794
 6228POPC   C1A78459  42.920   8.099   6.222
 6228POPC   D2A78460  42.750   8.253   6.650
 6228POPC   C3A78461  42.862   8.094   7.076
 6228POPC   C4A78462  42.832   8.158   7.555
 6228POPC   C1B78463  43.418   8.135   6.214
 6228POPC   C2B78464  43.266   8.040   6.640
 6228POPC   C3B78465  43.452   8.081   7.064
 6228POPC   C4B78466  43.307   8.012   7.512
 6229POPC   NC378467  21.894  18.121   5.358
 6229POPC   PO478468  22.364  18.602   5.371
 6229POPC   GL178469  22.147  18.387   5.718
 6229POPC   GL278470  21.818  18.521   5.857
 6229POPC   C1A78471  22.100  18.165   6.126
 6229POPC   D2A78472  22.172  18.333   6.529
 6229POPC   C3A78473  22.256  18.108   6.894
 6229POPC   C4A78474  22.436  18.163   7.300
 6229POPC   C1B78475  21.729  18.552   6.323
 6229POPC   C2B78476  21.763  18.471   6.800
 6229POPC   C3B78477  21.867  18.231   7.218
 6229POPC   C4B78478  21.808  17.989   7.613
 6230POPC   NC378479   4.389  13.744   5.363
 6230POPC   PO478480   3.963  13.297   5.563
 6230POPC   GL178481   4.238  13.496   5.861
 6230POPC   GL278482   4.133  13.804   5.789
 6230POPC   C1A78483   4.382  13.519   6.295
 6230POPC   D2A78484   4.622  13.331   6.688
 6230POPC   C3A78485   4.604  13.582   7.101
 6230POPC   C4A78486   4.552  13.696   7.567
 6230POPC   C1B78487   4.073  13.931   6.159
 6230POPC   C2B78488   3.936  13.761   6.532
 6230POPC   C3B78489   4.131  13.792   6.913
 6230POPC   C4B78490   4.106  13.999   7.301
 6231POPC   NC378491  39.999  43.386   5.334
 6231POPC   PO478492  39.763  42.810   5.458
 6231POPC   GL178493  39.992  42.987   5.789
 6231POPC   GL278494  40.022  43.343   5.871
 6231POPC   C1A78495  40.150  42.960   6.196
 6231POPC   D2A78496  39.991  43.111   6.612
 6231POPC   C3A78497  40.104  42.820   6.955
 6231POPC   C4A78498  40.044  42.871   7.367
 6231POPC   C1B78499  40.180  43.503   6.290
 6231POPC   C2B78500  40.345  43.502   6.718
 6231POPC   C3B78501  40.149  43.328   7.124
 6231POPC   C4B78502  40.281  43.276   7.569
 6232POPC   NC378503  14.056  35.217   5.596
 6232POPC   PO478504  14.679  35.522   5.522
 6232POPC   GL178505  14.365  35.514   5.892
 6232POPC   GL278506  14.154  35.782   5.916
 6232POPC   C1A78507  14.396  35.385   6.349
 6232POPC   D2A78508  14.568  35.380   6.794
 6232POPC   C3A78509  14.245  35.176   7.013
 6232POPC   C4A78510  14.115  34.970   7.354
 6232POPC   C1B78511  13.968  35.656   6.299
 6232POPC   C2B78512  14.068  35.567   6.705
 6232POPC   C3B78513  14.213  35.674   7.081
 6232POPC   C4B78514  14.251  35.613   7.509
 6233POPC   NC378515  41.751  37.954   5.485
 6233POPC   PO478516  41.137  37.668   5.452
 6233POPC   GL178517  41.420  37.735   5.819
 6233POPC   GL278518  41.633  37.436   5.844
 6233POPC   C1A78519  41.732  37.935   6.139
 6233POPC   D2A78520  41.788  38.015   6.599
 6233POPC   C3A78521  41.618  37.678   6.843
 6233POPC   C4A78522  41.473  37.537   7.252
 6233POPC   C1B78523  41.522  37.498   6.287
 6233POPC   C2B78524  41.192  37.631   6.539
 6233POPC   C3B78525  41.093  37.406   6.903
 6233POPC   C4B78526  40.888  37.224   7.225
 6234POPC   NC378527  24.288  41.382   5.384
 6234POPC   PO478528  24.732  41.812   5.203
 6234POPC   GL178529  24.618  41.881   5.670
 6234POPC   GL278530  24.253  41.884   5.741
 6234POPC   C1A78531  24.596  41.841   6.156
 6234POPC   D2A78532  24.583  41.521   6.499
 6234POPC   C3A78533  24.392  41.665   6.892
 6234POPC   C4A78534  24.597  41.731   7.333
 6234POPC   C1B78535  24.193  41.531   6.061
 6234POPC   C2B78536  24.083  41.434   6.495
 6234POPC   C3B78537  24.242  41.184   6.847
 6234POPC   C4B78538  24.234  41.362   7.265
 6235POPC   NC378539  39.660  11.602   5.673
 6235POPC   PO478540  39.024  12.052   5.557
 6235POPC   GL178541  39.240  11.925   5.916
 6235POPC   GL278542  39.173  12.263   6.030
 6235POPC   C1A78543  39.313  11.907   6.367
 6235POPC   D2A78544  39.216  11.993   6.794
 6235POPC   C3A78545  39.264  11.640   7.099
 6235POPC   C4A78546  39.053  11.385   7.428
 6235POPC   C1B78547  38.997  12.546   6.335
 6235POPC   C2B78548  38.942  12.475   6.753
 6235POPC   C3B78549  39.124  12.379   7.103
 6235POPC   C4B78550  39.011  12.029   7.305
 6236POPC   NC378551  42.818  34.769   5.480
 6236POPC   PO478552  43.419  34.583   5.534
 6236POPC   GL178553  43.136  34.705   5.872
 6236POPC   GL278554  42.855  34.466   5.910
 6236POPC   C1A78555  43.167  34.898   6.247
 6236POPC   D2A78556  43.330  34.821   6.648
 6236POPC   C3A78557  43.243  34.912   7.081
 6236POPC   C4A78558  43.437  34.706   7.460
 6236POPC   C1B78559  42.681  34.760   6.208
 6236POPC   C2B78560  42.819  34.877   6.647
 6236POPC   C3B78561  42.942  34.544   6.919
 6236POPC   C4B78562  42.910  34.595   7.306
 6237POPC   NC378563   5.575   1.996   5.319
 6237POPC   PO478564   6.146   1.745   5.444
 6237POPC   GL178565   5.806   1.776   5.756
 6237POPC   GL278566   5.734   2.143   5.780
 6237POPC   C1A78567   5.888   1.870   6.208
 6237POPC   D2A78568   6.174   1.943   6.558
 6237POPC   C3A78569   6.170   1.664   6.904
 6237POPC   C4A78570   5.904   1.666   7.273
 6237POPC   C1B78571   5.517   2.224   6.172
 6237POPC   C2B78572   5.624   2.078   6.612
 6237POPC   C3B78573   5.912   2.097   6.984
 6237POPC   C4B78574   6.045   2.134   7.450
 6238POPC   NC378575  34.681  39.916   5.120
 6238POPC   PO478576  34.204  40.309   5.409
 6238POPC   GL178577  34.590  40.217   5.636
 6238POPC   GL278578  34.604  39.882   5.728
 6238POPC   C1A78579  34.764  40.241   6.080
 6238POPC   D2A78580  34.489  40.315   6.477
 6238POPC   C3A78581  34.517  40.136   6.922
 6238POPC   C4A78582  34.785  39.917   7.250
 6238POPC   C1B78583  34.446  39.852   6.196
 6238POPC   C2B78584  34.281  39.727   6.642
 6238POPC   C3B78585  34.306  39.692   7.121
 6238POPC   C4B78586  34.127  39.704   7.554
 6239POPC   NC378587  43.260  15.011   5.224
 6239POPC   PO478588  43.085  15.641   5.547
 6239POPC   GL178589  43.224  15.434   5.898
 6239POPC   GL278590  43.402  15.176   5.706
 6239POPC   C1A78591  43.019  15.323   6.307
 6239POPC   D2A78592  42.731  15.134   6.628
 6239POPC   C3A78593  42.834  15.150   7.054
 6239POPC   C4A78594  43.001  15.269   7.483
 6239POPC   C1B78595  43.172  14.917   6.016
 6239POPC   C2B78596  43.188  14.828   6.469
 6239POPC   C3B78597  43.364  14.790   6.873
 6239POPC   C4B78598  43.223  14.858   7.241
 6240POPC   NC378599  42.436   3.085   5.324
 6240POPC   PO478600  41.992   2.568   5.399
 6240POPC   GL178601  42.253   2.528   5.815
 6240POPC   GL278602  42.519   2.273   5.881
 6240POPC   C1A78603  42.326   2.772   6.219
 6240POPC   D2A78604  42.463   3.012   6.608
 6240POPC   C3A78605  42.464   2.852   7.034
 6240POPC   C4A78606  42.130   2.887   7.289
 6240POPC   C1B78607  42.647   2.400   6.296
 6240POPC   C2B78608  42.447   2.479   6.682
 6240POPC   C3B78609  42.528   2.348   7.127
 6240POPC   C4B78610  42.424   2.530   7.532
 6241POPC   NC378611  29.348  25.132   5.385
 6241POPC   PO478612  28.741  24.942   5.254
 6241POPC   GL178613  28.929  25.111   5.705
 6241POPC   GL278614  29.285  25.298   5.879
 6241POPC   C1A78615  28.955  25.039   6.169
 6241POPC   D2A78616  29.197  25.159   6.552
 6241POPC   C3A78617  28.979  25.096   6.942
 6241POPC   C4A78618  29.042  24.848   7.285
 6241POPC   C1B78619  29.096  25.553   6.244
 6241POPC   C2B78620  28.996  25.594   6.692
 6241POPC   C3B78621  29.169  25.514   7.136
 6241POPC   C4B78622  28.867  25.322   7.435
 6242POPC   NC378623  40.731  10.888   5.152
 6242POPC   PO478624  40.992  10.311   5.327
 6242POPC   GL178625  40.876  10.414   5.763
 6242POPC   GL278626  40.820  10.090   5.856
 6242POPC   C1A78627  40.804  10.673   6.172
 6242POPC   D2A78628  40.729  10.838   6.600
 6242POPC   C3A78629  40.635  10.749   7.013
 6242POPC   C4A78630  40.979  10.694   7.231
 6242POPC   C1B78631  41.085  10.226   6.187
 6242POPC   C2B78632  41.109  10.436   6.538
 6242POPC   C3B78633  40.923  10.343   6.889
 6242POPC   C4B78634  41.023  10.173   7.254
 6243POPC   NC378635   3.044   0.076   5.055
 6243POPC   PO478636   2.450  44.864   5.388
 6243POPC   GL178637   2.647   0.025   5.791
 6243POPC   GL278638   3.008   0.073   5.916
 6243POPC   C1A78639   2.678  44.849   6.222
 6243POPC   D2A78640   2.879  44.717   6.575
 6243POPC   C3A78641   2.716  44.946   6.933
 6243POPC   C4A78642   2.675  44.708   7.306
 6243POPC   C1B78643   3.281  44.986   6.292
 6243POPC   C2B78644   3.284  44.946   6.757
 6243POPC   C3B78645   3.162  44.875   7.192
 6243POPC   C4B78646   3.080  44.829   7.673
 6244POPC   NC378647  40.747  24.594   5.075
 6244POPC   PO478648  40.712  24.006   5.550
 6244POPC   GL178649  40.898  24.378   5.736
 6244POPC   GL278650  40.696  24.693   5.781
 6244POPC   C1A78651  40.960  24.404   6.174
 6244POPC   D2A78652  40.744  24.215   6.532
 6244POPC   C3A78653  41.021  24.214   6.864
 6244POPC   C4A78654  41.175  24.316   7.248
 6244POPC   C1B78655  40.513  24.638   6.206
 6244POPC   C2B78656  40.750  24.732   6.593
 6244POPC   C3B78657  40.935  24.712   7.003
 6244POPC   C4B78658  40.858  24.955   7.359
 6245POPC   NC378659  34.307  13.830   5.405
 6245POPC   PO478660  34.845  13.582   5.507
 6245POPC   GL178661  34.647  13.813   5.893
 6245POPC   GL278662  34.358  14.053   5.849
 6245POPC   C1A78663  34.523  13.603   6.338
 6245POPC   D2A78664  34.398  13.302   6.704
 6245POPC   C3A78665  34.575  13.432   7.106
 6245POPC   C4A78666  34.758  13.859   7.057
 6245POPC   C1B78667  34.173  13.935   6.201
 6245POPC   C2B78668  34.083  13.975   6.617
 6245POPC   C3B78669  34.233  13.811   6.998
 6245POPC   C4B78670  34.358  13.967   7.387
 6246W        W78671  39.099   0.542   0.973
 6247W        W78672   6.250  17.610  11.361
 6248W        W78673   5.215  28.941   4.648
 6249W        W78674  41.421  39.421  13.884
 6250W        W78675  19.039  17.955   4.558
 6251W        W78676  28.605  40.030  14.838
 6252W        W78677  38.276  35.856   1.799
 6253W        W78678  23.764  27.597   0.279
 6254W        W78679   4.871  30.993  13.461
 6255W        W78680  19.428  16.281  11.619
 6256W        W78681  34.363  13.638  13.403
 6257W        W78682  31.138  18.756  14.413
 6258W        W78683   4.282  33.700   2.856
 6259W        W78684  34.892  21.661   1.460
 6260W        W78685  11.145   4.417  11.965
 6261W        W78686  15.243   9.544  12.962
 6262W        W78687  36.577  41.058   3.513
 6263W        W78688  43.842  20.660  12.150
 6264W        W78689   5.708  32.303   2.901
 6265W        W78690   3.908  35.946   4.227
 6266W        W78691  27.970  15.492  11.351
 6267W        W78692   9.370  19.444   4.173
 6268W        W78693  22.406  12.238  11.589
 6269W        W78694  38.774  14.399   0.004
 6270W        W78695  24.031  27.395  13.921
 6271W        W78696  44.948   1.258  11.933
 6272W        W78697  18.075   9.784   2.552
 6273W        W78698  27.741  32.618   2.869
 6274W        W78699   4.477  39.995   3.266
 6275W        W78700  35.683  22.324  14.361
 6276W        W78701  25.051  42.856   2.637
 6277W        W78702   7.734   9.912   1.354
 6278W        W78703   3.785  42.522  10.981
 6279W        W78704  38.317  23.212   4.788
 6280W        W78705   8.585  13.660  13.062
 6281W        W78706  20.033  39.963   1.213
 6282W        W78707  35.585  24.223  13.540
 6283W        W78708   6.948  16.081  12.043
 6284W        W78709  41.946  14.557   1.362
 6285W        W78710  24.507  44.253   5.208
 6286W        W78711  35.237  31.582  11.604
 6287W        W78712   8.819   9.089  11.496
 6288W        W78713  34.542  23.237  10.919
 6289W        W78714   3.771  33.921  14.799
 6290W        W78715  35.173   7.771  10.784
 6291W        W78716   9.907  18.568   0.509
 6292W        W78717  33.171  32.632   1.823
 6293W        W78718  21.327  17.674  11.501
 6294W        W78719  32.365  33.319   2.245
 6295W        W78720  15.650  33.701   0.703
 6296W        W78721  12.550  31.662  14.078
 6297W        W78722  40.841  25.659   4.965
 6298W        W78723   0.290  31.219   2.269
 6299W        W78724  35.963   4.607   2.559
 6300W        W78725  21.613  12.388  10.929
 6301W        W78726  10.480  23.359  10.232
 6302W        W78727   1.263   8.483   1.334
 6303W        W78728  12.384   1.389   5.420
 6304W        W78729   2.794   0.534  14.394
 6305W        W78730  29.014  29.195   3.105
 6306W        W78731  24.830  10.278  11.082
 6307W        W78732  44.320  16.557   3.112
 6308W        W78733  26.563  18.121  14.795
 6309W        W78734   3.655  35.577  11.481
 6310W        W78735  28.036   5.861  14.977
 6311W        W78736  29.479  17.726  13.846
 6312W        W78737  44.399  30.627   4.315
 6313W        W78738  33.726  24.898  11.124
 6314W        W78739  23.381  17.799  14.564
 6315W        W78740   8.866  38.835  13.432
 6316W        W78741  44.901  37.068  11.545
 6317W        W78742  44.235  31.455   4.707
 6318W        W78743  43.421   8.688   1.407
 6319W        W78744  18.682  32.069   4.061
 6320W        W78745  22.296  19.196  10.455
 6321W        W78746  30.477  25.524   3.103
 6322W        W78747   0.317  35.064  10.408
 6323W        W78748  10.695  41.633   4.556
 6324W        W78749  43.293  10.774   0.267
 6325W        W78750  34.630  38.129   3.229
 6326W        W78751   9.270  42.931  12.767
 6327W        W78752  38.737  30.483  11.686
 6328W        W78753  19.676  25.428   2.775
 6329W        W78754  24.486  36.412  14.467
 6330W        W78755   6.653   8.830   2.757
 6331W        W78756  10.377  37.801  12.670
 6332W        W78757  15.821  33.936   1.176
 6333W        W78758  34.710  25.793   2.553
 6334W        W78759  29.201  30.131  14.480
 6335W        W78760  43.253  16.720  10.774
 6336W        W78761  38.551   6.678  12.403
 6337W        W78762   9.830  20.050  11.596
 6338W        W78763   6.938  32.333   4.547
 6339W        W78764   8.311  24.545   2.196
 6340W        W78765  16.733  26.680   1.853
 6341W        W78766  31.957  21.446  11.046
 6342W        W78767  34.087   8.184   2.775
 6343W        W78768  35.396  42.766   4.543
 6344W        W78769   5.104  39.285  10.685
 6345W        W78770  34.007  43.839   3.006
 6346W        W78771  39.941  21.128  13.265
 6347W        W78772   2.239  11.339   0.013
 6348W        W78773   2.751  31.567  11.881
 6349W        W78774  33.185  28.592   1.894
 6350W        W78775  23.062  44.543   2.510
 6351W        W78776  18.153  27.243  13.975
 6352W        W78777  42.933  36.497   4.060
 6353W        W78778  37.356  23.933  10.634
 6354W        W78779   6.916   4.170  14.376
 6355W        W78780   7.090  28.067  14.001
 6356W        W78781  23.511  40.791  11.228
 6357W        W78782  10.769  20.623  14.033
 6358W        W78783  16.611  37.314   2.658
 6359W        W78784  12.922  11.067  13.540
 6360W        W78785  34.376  34.169  11.235
 6361W        W78786  18.760  16.573   2.313
 6362W        W78787  20.150  31.872  12.056
 6363W        W78788  18.515   8.360   4.320
 6364W        W78789  21.565  42.077   4.561
 6365W        W78790  15.297   6.431  12.072
 6366W        W78791  20.837  30.590   2.185
 6367W        W78792  20.529  33.434   3.629
 6368W        W78793  23.224  14.250   2.691
 6369W        W78794  17.830  36.561  12.201
 6370W        W78795   1.895  26.428   1.314
 6371W        W78796  28.421  20.643  11.682
 6372W        W78797   3.383   8.012  10.449
 6373W        W78798  37.899  29.730  11.275
 6374W        W78799  11.956   1.016  10.614
 6375W        W78800   1.723  39.970  13.865
 6376W        W78801  17.299   9.308   9.972
 6377W        W78802  40.942   5.899  11.724
 6378W        W78803  16.303  30.322   3.811
 6379W        W78804   6.680  14.082   4.929
 6380W        W78805  44.379  37.998   4.270
 6381W        W78806   9.924   5.385   3.188
 6382W        W78807  39.644   6.282   2.792
 6383W        W78808  30.181  42.583   0.041
 6384W        W78809  10.654  37.414  11.140
 6385W        W78810  38.641  21.602  11.365
 6386W        W78811  34.178  30.928   4.568
 6387W        W78812   2.658  26.656  13.339
 6388W        W78813  44.070  28.692   3.100
 6389W        W78814  32.202  36.876  12.021
 6390W        W78815  34.037   3.736   2.133
 6391W        W78816   8.183  32.870   3.646
 6392W        W78817   2.055  29.369  11.068
 6393W        W78818  10.663  28.394   1.567
 6394W        W78819   9.890  40.952  14.078
 6395W        W78820  12.850   4.645   2.842
 6396W        W78821  33.857  34.047  11.515
 6397W        W78822  17.482   7.269  14.494
 6398W        W78823  16.683  36.083  12.892
 6399W        W78824  39.901   9.377   4.114
 6400W        W78825  29.400  20.823  12.044
 6401W        W78826  26.243  30.642  11.437
 6402W        W78827  26.492  22.550  10.700
 6403W        W78828   9.503  33.795  12.879
 6404W        W78829   9.855  41.092   0.706
 6405W        W78830  41.730   6.175  11.054
 6406W        W78831  17.712  30.324  12.129
 6407W        W78832   0.769  26.880   2.280
 6408W        W78833  16.739  21.189  13.144
 6409W        W78834   5.983   2.860   0.249
 6410W        W78835   2.003  24.645  12.346
 6411W        W78836   7.977  18.793  10.664
 6412W        W78837  43.954  13.806  13.921
 6413W        W78838   0.412   0.376   2.741
 6414W        W78839  28.323   0.792  14.056
 6415W        W78840  35.092  20.768   2.713
 6416W        W78841  11.172  16.270   4.205
 6417W        W78842   4.435  22.097   4.559
 6418W        W78843   6.167  43.247   4.674
 6419W        W78844   0.993  11.341  13.681
 6420W        W78845  27.893  19.628  12.325
 6421W        W78846  44.461  43.520   4.533
 6422W        W78847  20.602  36.115  14.108
 6423W        W78848  35.479   6.135   2.160
 6424W        W78849  14.731  20.249   4.619
 6425W        W78850  10.091  16.786   5.046
 6426W        W78851  35.993   9.799   3.202
 6427W        W78852  10.689  32.679  13.299
 6428W        W78853  37.786  26.271   4.824
 6429W        W78854  18.772  40.045   0.729
 6430W        W78855  16.629  40.605   4.381
 6431W        W78856  33.277  40.403  10.117
 6432W        W78857  41.820   3.982   4.217
 6433W        W78858   7.419  16.122   2.796
 6434W        W78859  17.888  17.673   2.207
 6435W        W78860  33.624  44.899  10.288
 6436W        W78861  35.982  38.819  12.173
 6437W        W78862   2.310  28.256  10.867
 6438W        W78863   1.028  27.080   0.318
 6439W        W78864  12.245   9.401   2.632
 6440W        W78865  37.751  41.233  13.377
 6441W        W78866  30.658  25.999  13.926
 6442W        W78867  37.550  19.358  13.475
 6443W        W78868  15.864  24.675   0.935
 6444W        W78869  43.418  25.326  11.565
 6445W        W78870  35.648  42.525   0.843
 6446W        W78871   5.067  29.663   0.384
 6447W        W78872   2.134   9.066   4.413
 6448W        W78873   9.159  15.264   0.196
 6449W        W78874   6.122   2.061   0.774
 6450W        W78875  42.794  12.260   3.745
 6451W        W78876   4.534  32.064  12.288
 6452W        W78877   6.228  38.009   3.469
 6453W        W78878   9.433   3.832   0.315
 6454W        W78879   8.284  42.118  12.424
 6455W        W78880   4.970  27.193   3.777
 6456W        W78881  41.831   1.917   3.061
 6457W        W78882  31.787  14.728   4.524
 6458W        W78883   2.804  18.848  13.727
 6459W        W78884  39.299   1.033   3.153
 6460W        W78885  17.186  22.480  12.488
 6461W        W78886  40.766  19.753   0.361
 6462W        W78887   7.377  30.868   4.141
 6463W        W78888  11.466  28.030   4.108
 6464W        W78889  23.794  28.971   4.027
 6465W        W78890  29.123  22.191  13.518
 6466W        W78891  38.901  14.380   2.214
 6467W        W78892  27.760  15.326  12.081
 6468W        W78893  20.692  24.782  11.662
 6469W        W78894  20.145   3.674  14.379
 6470W        W78895  20.139  15.796   4.201
 6471W        W78896  43.376   2.451   0.011
 6472W        W78897  43.388  30.143  14.706
 6473W        W78898   2.030  21.090   2.334
 6474W        W78899  30.161  33.688   0.348
 6475W        W78900   4.904   3.174  14.570
 6476W        W78901  26.284  31.871   3.775
 6477W        W78902  23.254  35.057   1.309
 6478W        W78903  33.564  36.331   1.389
 6479W        W78904  18.345  28.384  13.239
 6480W        W78905   4.624   3.755  10.585
 6481W        W78906  21.960  34.658   2.163
 6482W        W78907  13.293   8.313   0.221
 6483W        W78908   1.097  30.312   2.681
 6484W        W78909   6.748  12.891   3.785
 6485W        W78910  23.472  35.867   4.602
 6486W        W78911  43.350  38.245  14.854
 6487W        W78912  19.430   4.728   4.713
 6488W        W78913  30.550  27.849   4.113
 6489W        W78914  14.866  11.290   3.088
 6490W        W78915  15.737   1.918   4.814
 6491W        W78916  41.255  23.114  14.321
 6492W        W78917  27.026  10.879  11.478
 6493W        W78918  36.937   5.857  13.047
 6494W        W78919   6.663  42.003   4.362
 6495W        W78920   1.382   6.257   4.676
 6496W        W78921   5.392  44.329   1.810
 6497W        W78922  42.542   1.775  12.583
 6498W        W78923   8.184   9.804   4.633
 6499W        W78924  10.285   6.276  14.973
 6500W        W78925  23.122  37.330   1.389
 6501W        W78926  35.876  18.525   3.786
 6502W        W78927  29.545  39.687  14.760
 6503W        W78928  30.466  11.990   2.211
 6504W        W78929  11.611  38.020   3.998
 6505W        W78930  43.267  32.709   1.534
 6506W        W78931  11.165  13.652  13.730
 6507W        W78932  21.732  34.016  10.688
 6508W        W78933  38.739  29.320  10.933
 6509W        W78934   9.205   2.873   2.702
 6510W        W78935  11.298   7.224   3.930
 6511W        W78936   0.436  14.078   4.652
 6512W        W78937  26.034  21.042  14.321
 6513W        W78938  29.357   4.613  10.499
 6514W        W78939   5.602  35.586   2.444
 6515W        W78940  33.333  18.455   0.895
 6516W        W78941  43.384   3.073  11.720
 6517W        W78942  26.461  31.525  14.370
 6518W        W78943   5.449  11.888   4.779
 6519W        W78944   3.146  22.055   0.751
 6520W        W78945   2.166  40.495  13.844
 6521W        W78946  24.175  22.201   0.709
 6522W        W78947  33.067   1.061   0.472
 6523W        W78948  18.705  41.548  12.078
 6524W        W78949   9.712  43.041   1.393
 6525W        W78950  43.133  10.262   2.357
 6526W        W78951  41.050  12.537  14.511
 6527W        W78952  17.346  42.981   2.973
 6528W        W78953  37.463  42.516  10.736
 6529W        W78954  34.083   2.207   1.073
 6530W        W78955  34.446  27.090  10.627
 6531W        W78956  37.972   5.450   4.123
 6532W        W78957  38.889  17.297  14.879
 6533W        W78958   2.794   2.909   2.108
 6534W        W78959   4.693  34.220  13.382
 6535W        W78960  33.903  30.899   1.455
 6536W        W78961  17.024  38.583   1.869
 6537W        W78962  25.088  42.960   0.708
 6538W        W78963  21.258  21.709   0.320
 6539W        W78964  37.909  33.575  14.340
 6540W        W78965   3.880  38.396   4.632
 6541W        W78966  39.940  10.286  12.451
 6542W        W78967  13.514  18.855   1.144
 6543W        W78968   6.483   6.816  12.579
 6544W        W78969  10.954  31.720   1.460
 6545W        W78970  32.184  15.195  11.055
 6546W        W78971   7.894   6.476  11.763
 6547W        W78972  12.330   6.715  14.886
 6548W        W78973  22.230  23.878   0.651
 6549W        W78974  26.934  17.212   2.401
 6550W        W78975  41.365  14.149  12.031
 6551W        W78976   0.455  17.537   3.590
 6552W        W78977  29.943  21.719   1.770
 6553W        W78978  13.510  38.674  12.869
 6554W        W78979  24.473   8.221   4.669
 6555W        W78980   1.850   7.682  13.794
 6556W        W78981  13.154  16.388   4.095
 6557W        W78982  21.312   5.185  13.890
 6558W        W78983  13.687  44.096  14.206
 6559W        W78984  18.394  37.031  11.570
 6560W        W78985  42.800  37.885   4.483
 6561W        W78986  32.117  10.878   2.291
 6562W        W78987   5.181  14.077  13.113
 6563W        W78988  11.091  37.239  11.485
 6564W        W78989  24.608  21.322  11.839
 6565W        W78990  32.735   3.336  10.654
 6566W        W78991   5.160  44.347   3.290
 6567W        W78992   2.244  41.548   1.244
 6568W        W78993  19.253  15.557  11.916
 6569W        W78994  27.486  30.629  12.118
 6570W        W78995   5.780   7.211  13.389
 6571W        W78996  23.775   3.696  13.024
 6572W        W78997  37.314  34.512   3.864
 6573W        W78998   5.308  25.546  13.411
 6574W        W78999  30.029  24.566  10.920
 6575W        W79000  22.882   4.254  10.732
 6576W        W79001  23.464  14.846   1.862
 6577W        W79002   1.399  19.374  11.162
 6578W        W79003  16.933  20.008  11.500
 6579W        W79004  26.135  26.913  14.572
 6580W        W79005  35.478   7.969   0.421
 6581W        W79006  25.176  31.654  11.578
 6582W        W79007   7.851  31.083   2.646
 6583W        W79008  10.683  39.477   3.657
 6584W        W79009   0.923  18.732   2.308
 6585W        W79010  32.067  27.983   3.383
 6586W        W79011  31.501  10.910  12.127
 6587W        W79012  11.872  32.478   4.696
 6588W        W79013  14.955   1.256  14.958
 6589W        W79014  22.834  17.185  10.731
 6590W        W79015  33.027   3.362  11.131
 6591W        W79016  25.552  30.424  11.949
 6592W        W79017   0.747   1.054   1.237
 6593W        W79018   1.495  20.064  11.908
 6594W        W79019  17.219  16.865  12.104
 6595W        W79020  44.521  32.477   3.274
 6596W        W79021  38.473   2.504   4.383
 6597W        W79022  22.128  38.888   0.375
 6598W        W79023  31.829  36.698  11.239
 6599W        W79024  28.094  21.760   4.880
 6600W        W79025  22.363  30.351   0.310
 6601W        W79026   5.295  36.771   0.366
 6602W        W79027  32.668   7.244  12.955
 6603W        W79028  32.864   1.579   1.735
 6604W        W79029  19.474  38.374   0.404
 6605W        W79030  26.603  17.248   4.685
 6606W        W79031   3.036  17.267  14.768
 6607W        W79032  20.173  34.431  11.488
 6608W        W79033  22.288   9.371   5.436
 6609W        W79034  35.960   3.488   0.302
 6610W        W79035  26.370   8.876   4.096
 6611W        W79036  39.983  24.938   3.153
 6612W        W79037   1.437  22.765  14.570
 6613W        W79038  34.294   1.830  11.155
 6614W        W79039   1.872  42.950   1.769
 6615W        W79040  20.997  30.842  13.908
 6616W        W79041  35.355   7.902   2.383
 6617W        W79042  29.548  24.496   4.678
 6618W        W79043  23.690  38.074  14.022
 6619W        W79044  42.383  29.955  13.542
 6620W        W79045  35.991  33.594  10.856
 6621W        W79046  16.253  40.825   3.187
 6622W        W79047  15.282   5.478  10.952
 6623W        W79048  16.775  12.205   2.482
 6624W        W79049  17.334  22.451  14.065
 6625W        W79050  19.617  20.492   3.097
 6626W        W79051  43.072  38.552  12.489
 6627W        W79052  21.377  13.350  10.648
 6628W        W79053  42.782  33.282   2.254
 6629W        W79054   7.658   5.966  13.539
 6630W        W79055  19.021  25.155  14.059
 6631W        W79056  43.366  39.673  12.996
 6632W        W79057  32.808  31.592  12.654
 6633W        W79058  32.294  15.919  10.177
 6634W        W79059  20.202   6.963   2.251
 6635W        W79060  28.991  10.750  12.754
 6636W        W79061   5.952   6.150  12.628
 6637W        W79062   8.882  37.671  11.176
 6638W        W79063   2.390  28.942  14.380
 6639W        W79064  41.482  18.209  14.363
 6640W        W79065  17.215   8.827  13.279
 6641W        W79066  10.856  11.991  10.733
 6642W        W79067   2.935  19.247  14.539
 6643W        W79068  30.150  42.157  12.313
 6644W        W79069   5.434  43.056   3.605
 6645W        W79070   4.018  13.118  13.493
 6646W        W79071  34.579  10.734  12.805
 6647W        W79072  33.668  41.878   3.748
 6648W        W79073  27.145  26.050  12.030
 6649W        W79074  38.831  25.524  13.640
 6650W        W79075   2.985  44.110  14.561
 6651W        W79076  26.975  21.845   0.489
 6652W        W79077  33.917  36.289  14.701
 6653W        W79078  35.543  31.996  12.680
 6654W        W79079   4.623   2.990   0.342
 6655W        W79080  21.745  37.038  11.741
 6656W        W79081   5.729  25.155  11.234
 6657W        W79082  20.328  32.841   1.402
 6658W        W79083  22.750   4.770  13.919
 6659W        W79084  11.161  31.437   3.383
 6660W        W79085  20.635  43.996  12.992
 6661W        W79086  26.947  25.599   3.665
 6662W        W79087  44.365  43.903  12.954
 6663W        W79088  38.790  42.278  11.069
 6664W        W79089   0.860  36.013  11.550
 6665W        W79090   8.951  34.229   2.302
 6666W        W79091   5.342   6.351   0.370
 6667W        W79092  43.082  36.892   2.668
 6668W        W79093  18.412  39.604   2.667
 6669W        W79094  34.240   1.960   4.735
 6670W        W79095   1.641  17.957   3.798
 6671W        W79096  43.277  40.890   0.746
 6672W        W79097   6.927  39.991  12.018
 6673W        W79098   2.066  12.511   2.386
 6674W        W79099  36.610  44.437   4.548
 6675W        W79100  26.968  25.620  13.966
 6676W        W79101   5.853  18.382  12.485
 6677W        W79102  44.445   4.131   0.933
 6678W        W79103  31.682  11.321  13.067
 6679W        W79104  40.255  42.003  12.569
 6680W        W79105  26.468  17.496  11.467
 6681W        W79106   6.428  26.566  12.982
 6682W        W79107  23.102  18.334   3.629
 6683W        W79108  28.393  10.727   3.756
 6684W        W79109  35.383  26.527   4.601
 6685W        W79110  14.912  27.044   1.274
 6686W        W79111   6.890   9.827  13.052
 6687W        W79112   6.862   8.960   1.275
 6688W        W79113   4.946   0.039  10.542
 6689W        W79114  16.968  36.075   4.724
 6690W        W79115  40.811  44.811  11.500
 6691W        W79116  14.532  22.977   3.106
 6692W        W79117   9.425   6.453   0.728
 6693W        W79118  11.660   3.741  12.757
 6694W        W79119  28.701  41.818   2.306
 6695W        W79120  29.194   0.977  14.752
 6696W        W79121  21.193  44.330  12.180
 6697W        W79122  22.980  26.056  11.309
 6698W        W79123  17.966  40.540   0.933
 6699W        W79124  35.832  34.635   1.336
 6700W        W79125   2.767   2.779   3.640
 6701W        W79126  11.612  21.653   3.690
 6702W        W79127  30.604   2.750   3.070
 6703W        W79128  29.532  17.947  13.390
 6704W        W79129   8.558  44.000   2.211
 6705W        W79130  43.562  28.222  14.732
 6706W        W79131   0.955  25.978   4.085
 6707W        W79132  28.765  27.988   4.485
 6708W        W79133  41.384  39.421   0.175
 6709W        W79134  17.225  41.001  11.073
 6710W        W79135  11.434  35.803   2.084
 6711W        W79136   9.069  13.250  11.136
 6712W        W79137   1.750  22.057   4.551
 6713W        W79138  23.465  38.989   1.342
 6714W        W79139  26.026  33.075  14.009
 6715W        W79140  33.913  27.413   4.519
 6716W        W79141  10.195  35.863  14.117
 6717W        W79142  33.714  11.287  13.950
 6718W        W79143   9.321  21.426  10.716
 6719W        W79144  40.098  43.762  12.470
 6720W        W79145  35.386  21.466   3.287
 6721W        W79146  21.522  15.691   0.509
 6722W        W79147  22.698  11.641  14.420
 6723W        W79148   3.472  44.709   3.197
 6724W        W79149  40.793   4.825  10.869
 6725W        W79150  29.146  31.959  12.130
 6726W        W79151  30.531  17.769   1.425
 6727W        W79152  25.432  31.198  14.926
 6728W        W79153   3.238  32.403   1.345
 6729W        W79154  16.749  16.650  10.490
 6730W        W79155  26.558  16.082   2.165
 6731W        W79156  41.863  20.107  14.075
 6732W        W79157  40.303   4.859  14.380
 6733W        W79158  20.547  36.009  11.089
 6734W        W79159  35.317  12.326   3.706
 6735W        W79160   5.898  44.938  11.870
 6736W        W79161  44.295  34.110   1.221
 6737W        W79162  24.236  16.770   2.833
 6738W        W79163  29.830  19.052  10.728
 6739W        W79164  17.966  15.987   2.872
 6740W        W79165  10.772   1.321  12.063
 6741W        W79166  23.754  30.496   4.074
 6742W        W79167   1.201   9.721   2.420
 6743W        W79168  35.830  32.235   3.428
 6744W        W79169  37.322  17.609   2.289
 6745W        W79170   9.122  23.133  14.501
 6746W        W79171  10.094  10.772   2.332
 6747W        W79172  40.908   3.886  11.256
 6748W        W79173  13.538  39.976   3.627
 6749W        W79174  23.157  31.913   2.904
 6750W        W79175  15.887  24.406   4.295
 6751W        W79176  43.755  36.563   3.824
 6752W        W79177   0.112  24.016   3.714
 6753W        W79178   0.917   4.781   2.448
 6754W        W79179  17.348  36.029  11.666
 6755W        W79180  37.057  29.924   1.442
 6756W        W79181  31.055  35.524   2.158
 6757W        W79182   2.990  21.940  10.739
 6758W        W79183  27.663  18.111   4.626
 6759W        W79184  34.522  20.395   0.242
 6760W        W79185  11.406  42.065   4.190
 6761W        W79186  21.638  34.506   1.330
 6762W        W79187  26.172  32.461  14.475
 6763W        W79188   9.307  36.801   4.425
 6764W        W79189  18.646   7.890   1.141
 6765W        W79190  31.997  12.318   3.138
 6766W        W79191  32.842  23.522   2.835
 6767W        W79192  28.590   6.988  14.792
 6768W        W79193   9.835  24.421   2.371
 6769W        W79194   5.951  21.108  13.046
 6770W        W79195  31.018  19.959   5.131
 6771W        W79196  33.987  25.806  14.924
 6772W        W79197  11.257  42.325   2.968
 6773W        W79198  17.342  11.965   2.062
 6774W        W79199  28.175   4.187   1.266
 6775W        W79200  19.247   6.568  14.725
 6776W        W79201  24.631   9.151  11.913
 6777W        W79202   0.071  35.713   1.382
 6778W        W79203  10.110  34.780  10.131
 6779W        W79204   8.590  36.581  13.434
 6780W        W79205  26.620  36.210   4.069
 6781W        W79206  11.402  38.792   0.445
 6782W        W79207  13.599  38.012   0.839
 6783W        W79208  37.083  41.713   5.040
 6784W        W79209  16.650  17.598   3.553
 6785W        W79210  22.077  41.764  13.564
 6786W        W79211  25.145  42.522  13.869
 6787W        W79212  26.740  37.982  13.393
 6788W        W79213  42.257  43.611  14.812
 6789W        W79214  16.081  40.582  14.927
 6790W        W79215  10.941  39.761   0.918
 6791W        W79216  22.200   2.217  11.477
 6792W        W79217  35.066  34.293   4.557
 6793W        W79218  15.892  40.436   2.229
 6794W        W79219  15.518  16.747   0.446
 6795W        W79220  30.712  33.019   0.905
 6796W        W79221  12.724  43.864   1.006
 6797W        W79222   5.373  21.859  11.111
 6798W        W79223   4.726  12.352   0.875
 6799W        W79224  37.916  30.774  14.338
 6800W        W79225   5.362  35.439  11.146
 6801W        W79226  24.746  14.146   1.351
 6802W        W79227   1.484  42.006  13.540
 6803W        W79228  39.597  36.398  11.646
 6804W        W79229  15.222  33.594  12.445
 6805W        W79230   5.327  17.823   0.776
 6806W        W79231   0.966  33.012   1.754
 6807W        W79232  30.054  35.153   0.875
 6808W        W79233  19.430  32.195   1.813
 6809W        W79234   1.144  12.310   0.996
 6810W        W79235  38.829  19.198   4.117
 6811W        W79236  31.225  31.181  13.157
 6812W        W79237  15.318  32.363  14.912
 6813W        W79238  36.508   8.393  11.180
 6814W        W79239  14.731  44.967  12.309
 6815W        W79240  20.615  38.809  13.555
 6816W        W79241  31.647   3.770   4.168
 6817W        W79242   1.428  29.187   2.412
 6818W        W79243   0.084  18.219  12.073
 6819W        W79244  30.347   3.885  12.434
 6820W        W79245  26.237  44.485  14.467
 6821W        W79246  17.622   9.888  14.064
 6822W        W79247  21.291  14.697  10.564
 6823W        W79248   2.783  13.644  12.506
 6824W        W79249  16.787  42.528   1.284
 6825W        W79250  32.430  10.266   4.647
 6826W        W79251  31.211   2.901   0.371
 6827W        W79252  42.070  17.289  11.836
 6828W        W79253   7.018  28.114  12.688
 6829W        W79254  19.575   4.240   1.295
 6830W        W79255  31.844  43.965   3.531
 6831W        W79256  44.302  43.873  13.895
 6832W        W79257  21.621  23.384  14.931
 6833W        W79258  15.687  12.480  10.262
 6834W        W79259  12.719  30.120   4.609
 6835W        W79260  27.506  23.950  12.512
 6836W        W79261  36.434   9.665  10.796
 6837W        W79262   4.143   2.247  14.435
 6838W        W79263  40.465   0.393  13.292
 6839W        W79264  13.981  43.030  11.230
 6840W        W79265   9.411   6.946   2.780
 6841W        W79266  20.676  27.896   4.563
 6842W        W79267  32.855  37.833  11.248
 6843W        W79268  42.507  18.738  15.000
 6844W        W79269  39.533  12.357   3.379
 6845W        W79270  31.159   5.891   1.227
 6846W        W79271  43.349  27.938  13.356
 6847W        W79272   9.281   9.307   4.742
 6848W        W79273  11.077  16.330   0.736
 6849W        W79274  20.167   4.946  13.912
 6850W        W79275  25.157   0.624  10.776
 6851W        W79276  32.618   7.395   3.378
 6852W        W79277  11.545  42.349  14.786
 6853W        W79278  43.373  34.091  13.820
 6854W        W79279  38.518  28.099  12.927
 6855W        W79280  34.429  15.357   4.273
 6856W        W79281  28.411  11.909   3.323
 6857W        W79282  37.077  37.976  11.073
 6858W        W79283  40.913  28.564   4.004
 6859W        W79284  33.458  12.582   4.562
 6860W        W79285  15.748  31.754   2.391
 6861W        W79286  40.464  33.060   4.041
 6862W        W79287  12.578  36.847   4.028
 6863W        W79288  29.971  43.793   2.284
 6864W        W79289  14.023  30.114  13.738
 6865W        W79290  29.933  37.110   1.768
 6866W        W79291  38.266  15.722   0.959
 6867W        W79292  27.491   4.944   1.896
 6868W        W79293  37.787  39.860   4.630
 6869W        W79294   9.077   1.348  13.492
 6870W        W79295  37.168  29.143  10.597
 6871W        W79296  14.641   9.057   4.321
 6872W        W79297  36.005   6.090   2.266
 6873W        W79298  34.525  23.106   3.167
 6874W        W79299  42.480  13.572   4.357
 6875W        W79300  17.232  28.969  12.187
 6876W        W79301  16.082  30.477   3.381
 6877W        W79302  43.014  34.665   2.329
 6878W        W79303   9.660  39.635   3.690
 6879W        W79304   4.889   3.907   2.233
 6880W        W79305  29.557   4.774  12.072
 6881W        W79306   2.310  37.447   3.860
 6882W        W79307  43.631  17.193   3.264
 6883W        W79308  12.561   2.410   2.724
 6884W        W79309  23.053  29.654  12.433
 6885W        W79310   3.836  42.784  13.748
 6886W        W79311  33.642  13.955   0.423
 6887W        W79312   4.463  18.054  11.281
 6888W        W79313  40.809   7.184   3.517
 6889W        W79314  23.695  20.439  13.798
 6890W        W79315  43.951  16.642  14.843
 6891W        W79316  18.141  34.677  12.914
 6892W        W79317  34.898  20.236  13.464
 6893W        W79318  22.798  13.968  11.781
 6894W        W79319  24.174  29.852  11.048
 6895W        W79320  31.864  35.556   0.486
 6896W        W79321   9.667  34.962   3.403
 6897W        W79322  39.483  19.343  13.551
 6898W        W79323   5.810  29.709   4.784
 6899W        W79324  16.495   2.864   0.264
 6900W        W79325  26.050  16.574   4.598
 6901W        W79326  12.996  37.369   1.273
 6902W        W79327  24.317  18.449   2.213
 6903W        W79328  42.286  26.830  11.995
 6904W        W79329  19.721   1.470  11.937
 6905W        W79330  26.804  27.594   1.564
 6906W        W79331   2.872  12.270   1.738
 6907W        W79332  15.994  23.094   4.406
 6908W        W79333   2.936  22.104  11.602
 6909W        W79334  42.915  36.063  13.507
 6910W        W79335  23.271  34.569   0.979
 6911W        W79336  14.107  40.262  13.121
 6912W        W79337  42.224  41.836   1.993
 6913W        W79338  18.677  43.141   1.826
 6914W        W79339  20.042  31.365   3.114
 6915W        W79340  15.297  37.637  13.985
 6916W        W79341  25.633   4.528  14.476
 6917W        W79342   7.379  16.905   4.829
 6918W        W79343   8.887  20.228  14.845
 6919W        W79344  33.415  21.969  12.253
 6920W        W79345   5.908  17.370   0.366
 6921W        W79346   3.420   3.698   2.314
 6922W        W79347  33.081  27.227   2.319
 6923W        W79348   4.322  30.780   1.459
 6924W        W79349  44.380  17.595  14.775
 6925W        W79350  14.291  10.865   4.541
 6926W        W79351  30.952  25.193  11.176
 6927W        W79352  26.248  12.798  13.911
 6928W        W79353  20.932  31.419   4.360
 6929W        W79354  28.393  37.942   0.530
 6930W        W79355   5.662  20.491  14.002
 6931W        W79356   9.692  21.597  11.944
 6932W        W79357  17.017  13.778  12.372
 6933W        W79358   0.590  13.741  11.068
 6934W        W79359   5.297  15.007  13.551
 6935W        W79360  43.074  41.329  11.554
 6936W        W79361  32.885   0.380   4.855
 6937W        W79362  29.521  38.254   0.799
 6938W        W79363   2.895  26.935  12.631
 6939W        W79364  34.661  27.464   2.759
 6940W        W79365  35.277  13.351  14.609
 6941W        W79366  34.599  32.721  14.453
 6942W        W79367  12.160  25.973   1.694
 6943W        W79368  24.008  36.790  11.591
 6944W        W79369  38.004   0.024   4.568
 6945W        W79370  22.563  41.982   1.266
 6946W        W79371  39.156  20.256   0.432
 6947W        W79372   5.867  27.728   4.654
 6948W        W79373  22.723  36.458   4.476
 6949W        W79374  43.838   1.597  14.115
 6950W        W79375   0.843   6.073   1.862
 6951W        W79376  26.499   2.868   0.745
 6952W        W79377   8.662   3.283   0.768
 6953W        W79378  33.615  12.633  11.627
 6954W        W79379  25.189  20.324   3.949
 6955W        W79380  20.036   5.851   4.151
 6956W        W79381  31.571  10.121   0.908
 6957W        W79382   1.529  17.989   0.966
 6958W        W79383  31.129  38.851  10.646
 6959W        W79384  13.826   1.402  13.356
 6960W        W79385   5.555   1.445  13.014
 6961W        W79386  31.507  11.777   1.333
 6962W        W79387  44.331  17.495  11.111
 6963W        W79388  41.344  34.007  10.778
 6964W        W79389   0.739  42.360   2.743
 6965W        W79390  32.503  39.759  10.719
 6966W        W79391  43.827  12.264  13.017
 6967W        W79392  36.430  26.660   9.990
 6968W        W79393  37.928  23.734   4.062
 6969W        W79394  25.777   2.429  13.967
 6970W        W79395  24.388  26.984  12.119
 6971W        W79396  22.079  44.697  14.352
 6972W        W79397  35.329  37.437  10.522
 6973W        W79398   1.466  10.904   1.014
 6974W        W79399  11.206  35.527   1.336
 6975W        W79400  35.903   4.485   1.701
 6976W        W79401  18.368  35.070  13.960
 6977W        W79402  37.839  19.085   3.728
 6978W        W79403  15.012  21.313  14.317
 6979W        W79404  41.970  13.744  10.656
 6980W        W79405  22.401  12.275   4.642
 6981W        W79406   5.371  23.259  14.523
 6982W        W79407  30.684  37.462   2.754
 6983W        W79408  20.663  16.223  13.550
 6984W        W79409  11.648  17.524   2.057
 6985W        W79410  15.675   1.178  11.440
 6986W        W79411  16.650  13.613   3.649
 6987W        W79412  38.659  40.014  14.027
 6988W        W79413   7.767  30.481  13.996
 6989W        W79414  42.152  15.330  13.363
 6990W        W79415  12.880  14.071   3.262
 6991W        W79416   0.208  35.334  11.682
 6992W        W79417   1.380  21.797  10.976
 6993W        W79418  43.075  19.986  12.400
 6994W        W79419  38.364  13.459   1.765
 6995W        W79420  28.581  44.366  10.603
 6996W        W79421  37.363  18.879   3.861
 6997W        W79422  14.782  35.604  13.206
 6998W        W79423  22.167  39.858  14.074
 6999W        W79424  23.680  16.543   0.893
 7000W        W79425  32.321  43.942  14.960
 7001W        W79426  26.228  35.997   4.335
 7002W        W79427  41.687  17.274   3.641
 7003W        W79428  43.837  31.219   3.044
 7004W        W79429  40.016   0.005  10.872
 7005W        W79430   9.178  42.918   1.316
 7006W        W79431  21.003   1.522   4.421
 7007W        W79432  18.699  23.463   5.100
 7008W        W79433   3.437  29.449  13.069
 7009W        W79434  20.105   5.132   0.483
 7010W        W79435  18.308   8.252  14.597
 7011W        W79436   9.742   6.749  10.396
 7012W        W79437   7.889  41.532   3.205
 7013W        W79438  24.315  40.228  11.373
 7014W        W79439  43.831  34.417   2.678
 7015W        W79440  13.815  15.764  14.072
 7016W        W79441  22.026  12.983  13.333
 7017W        W79442  44.242  24.536   1.894
 7018W        W79443  11.164  40.365  13.490
 7019W        W79444  25.671  17.772   4.060
 7020W        W79445  14.548  16.122  11.491
 7021W        W79446  37.208   1.173  12.602
 7022W        W79447  44.738  15.152   0.330
 7023W        W79448  37.052  15.351  11.420
 7024W        W79449   0.581  42.403  11.551
 7025W        W79450  36.952  37.653  13.220
 7026W        W79451  31.963  24.092   1.330
 7027W        W79452  21.734   7.962   1.404
 7028W        W79453   5.909   7.889   4.264
 7029W        W79454  18.322   1.838   3.449
 7030W        W79455  30.880  31.989  14.940
 7031W        W79456  41.415  18.156   0.240
 7032W        W79457   8.628   1.952  12.572
 7033W        W79458   3.839   7.425  11.983
 7034W        W79459  16.171  29.112  14.873
 7035W        W79460  42.979  12.858   3.197
 7036W        W79461  12.845  32.173  10.304
 7037W        W79462  27.281  17.594   2.376
 7038W        W79463  44.810   3.424   1.361
 7039W        W79464  26.316  26.960   0.429
 7040W        W79465  35.691  35.119   1.280
 7041W        W79466  30.992  10.136  11.961
 7042W        W79467  36.216   9.770   4.741
 7043W        W79468   0.347   6.885  10.209
 7044W        W79469  19.285  24.334   2.125
 7045W        W79470  23.743  14.103   0.885
 7046W        W79471  20.166  35.651   0.495
 7047W        W79472  36.620   1.883   4.221
 7048W        W79473  44.518  29.222  13.455
 7049W        W79474   2.373  10.184  10.214
 7050W        W79475  44.257   6.860  14.457
 7051W        W79476  12.853  31.357   1.072
 7052W        W79477  11.188  19.720   3.630
 7053W        W79478   7.763  43.783   0.572
 7054W        W79479  15.633  39.273   5.023
 7055W        W79480  36.557  27.575   1.784
 7056W        W79481  19.057   8.417  11.077
 7057W        W79482  32.922  42.729   0.399
 7058W        W79483   7.742  32.562  13.816
 7059W        W79484  22.805  29.862   3.830
 7060W        W79485  44.903  16.179  14.226
 7061W        W79486   0.371  21.646  13.398
 7062W        W79487  18.397  44.186   1.255
 7063W        W79488  32.971  29.183   4.145
 7064W        W79489  29.234  32.282  10.321
 7065W        W79490  13.630  11.588  13.052
 7066W        W79491  41.475  33.211   4.124
 7067W        W79492  16.213   7.156  14.217
 7068W        W79493   6.402  12.107  12.487
 7069W        W79494   8.971  17.975   2.730
 7070W        W79495   7.991   3.984  11.260
 7071W        W79496  21.463  18.961   0.401
 7072W        W79497   4.356  19.347  12.377
 7073W        W79498  27.411  11.723  14.040
 7074W        W79499   6.420  23.188  13.054
 7075W        W79500  32.680  15.098  11.320
 7076W        W79501   6.224  24.065   1.744
 7077W        W79502   5.658  41.488  12.403
 7078W        W79503  37.251  26.662  13.835
 7079W        W79504  34.216  22.621   4.747
 7080W        W79505  21.762  11.684   4.820
 7081W        W79506   8.948  36.474   2.729
 7082W        W79507  21.699  30.669  14.852
 7083W        W79508  34.624   4.013   4.690
 7084W        W79509  43.388   8.699  12.616
 7085W        W79510  19.585  10.247  10.961
 7086W        W79511  44.744  25.904  12.777
 7087W        W79512  18.721  38.527  12.510
 7088W        W79513  32.028  43.770   2.317
 7089W        W79514  40.535  19.796   0.833
 7090W        W79515   4.940  34.350   4.552
 7091W        W79516  28.665  19.558   4.142
 7092W        W79517  21.749  23.791   2.137
 7093W        W79518  19.286  20.267   0.852
 7094W        W79519  34.800  17.307   0.725
 7095W        W79520  35.151  12.188  12.411
 7096W        W79521  14.468  19.221   3.830
 7097W        W79522   1.520  12.111   1.314
 7098W        W79523   9.160  15.867  14.551
 7099W        W79524   4.600  19.221  14.501
 7100W        W79525  28.859  15.681  13.902
 7101W        W79526   5.293  22.991   4.321
 7102W        W79527  16.035  42.954   0.963
 7103W        W79528  43.478   4.228   0.655
 7104W        W79529  21.118  22.776   4.534
 7105W        W79530  13.287  21.566   2.881
 7106W        W79531  33.173   0.360   2.931
 7107W        W79532  35.536  44.392  12.912
 7108W        W79533  17.468  16.025  13.990
 7109W        W79534  11.121  38.986  13.531
 7110W        W79535  37.544  12.901  13.495
 7111W        W79536  39.618  14.917   2.321
 7112W        W79537  14.914  21.625  13.784
 7113W        W79538   7.680  27.252  11.144
 7114W        W79539  16.089  22.622  12.972
 7115W        W79540   6.694  41.511  11.673
 7116W        W79541  31.493  12.818   1.343
 7117W        W79542   9.275  12.203  12.418
 7118W        W79543  31.968   5.471   1.323
 7119W        W79544  11.123  29.152  12.255
 7120W        W79545  41.569  44.817   1.915
 7121W        W79546   0.655  44.518   1.045
 7122W        W79547   5.513  37.602  13.878
 7123W        W79548   7.250  11.565  13.896
 7124W        W79549  13.603  20.983  10.196
 7125W        W79550  37.852  44.710   4.134
 7126W        W79551  10.021   6.632  11.671
 7127W        W79552   3.885   8.998  11.599
 7128W        W79553   9.455  11.617   1.450
 7129W        W79554  22.229  18.991  14.767
 7130W        W79555  10.848   4.972   3.768
 7131W        W79556  18.724  15.058  11.126
 7132W        W79557  29.019   8.011   3.797
 7133W        W79558  19.802  21.713   4.156
 7134W        W79559  22.761  11.563   1.388
 7135W        W79560  13.431  18.538   1.872
 7136W        W79561  31.117  21.995  11.537
 7137W        W79562  16.161   4.139  13.058
 7138W        W79563  33.768  15.840  13.621
 7139W        W79564  15.521   0.320  11.402
 7140W        W79565  14.681  24.989   1.385
 7141W        W79566  43.070  40.364   0.703
 7142W        W79567  11.035  20.565  12.918
 7143W        W79568  12.607  28.436  11.189
 7144W        W79569  18.194  35.884  11.146
 7145W        W79570  16.398  18.278   4.195
 7146W        W79571  34.599  21.053  11.063
 7147W        W79572  29.011  38.844   3.166
 7148W        W79573   7.701  29.182  13.309
 7149W        W79574  42.911   6.161  11.858
 7150W        W79575  27.692  31.569  11.072
 7151W        W79576  39.357  10.410  14.946
 7152W        W79577   7.852  17.557   0.239
 7153W        W79578  10.699  21.729  12.479
 7154W        W79579  21.659  21.551  14.269
 7155W        W79580  36.203   5.633   2.395
 7156W        W79581  14.229  16.246   2.405
 7157W        W79582  14.859  18.841   0.384
 7158W        W79583  33.554   5.227   3.804
 7159W        W79584  37.297  37.897  12.923
 7160W        W79585  31.121   0.231   0.422
 7161W        W79586  34.007   5.995  10.701
 7162W        W79587  18.971  26.669   5.039
 7163W        W79588  16.414  21.025   0.943
 7164W        W79589   3.103  15.126  11.675
 7165W        W79590  10.851  15.922  14.881
 7166W        W79591  23.569  33.457  13.309
 7167W        W79592  33.373   2.180   1.324
 7168W        W79593  20.275  15.777  14.768
 7169W        W79594   5.399  11.091  14.390
 7170W        W79595  26.758  31.052   3.219
 7171W        W79596  40.556   9.404  13.452
 7172W        W79597  11.662  15.684   2.494
 7173W        W79598   0.821  26.014  13.988
 7174W        W79599  16.233  30.647  13.343
 7175W        W79600   4.649  22.191   0.692
 7176W        W79601  19.242  30.867   4.627
 7177W        W79602   2.315  17.064   2.666
 7178W        W79603  16.276  25.972   4.569
 7179W        W79604  40.025  35.547  12.334
 7180W        W79605  28.017  35.957   3.633
 7181W        W79606   9.883  44.418   0.897
 7182W        W79607  14.062  35.371  11.504
 7183W        W79608  24.884  15.759   4.551
 7184W        W79609  26.479   1.170   3.666
 7185W        W79610  25.171  36.492   3.929
 7186W        W79611   3.789   4.242   4.618
 7187W        W79612  39.404  12.457  14.026
 7188W        W79613  37.334  36.859   3.809
 7189W        W79614   7.663   8.644  14.343
 7190W        W79615  14.741  30.448   1.360
 7191W        W79616  42.466  18.993   5.086
 7192W        W79617  43.226   9.176  12.505
 7193W        W79618  17.315  29.426   3.415
 7194W        W79619   9.010  36.451  13.172
 7195W        W79620   0.257  12.100  13.582
 7196W        W79621  43.557  12.143   4.182
 7197W        W79622  36.326  24.226   0.463
 7198W        W79623  14.867  12.449   4.575
 7199W        W79624  29.425  10.542   1.264
 7200W        W79625  44.739  25.676   2.857
 7201W        W79626   1.331  25.992   2.440
 7202W        W79627  40.531  15.303  13.078
 7203W        W79628   5.814  33.424  11.657
 7204W        W79629  15.402  33.754   4.145
 7205W        W79630  32.601  27.410   3.249
 7206W        W79631  18.212   3.935   3.850
 7207W        W79632  38.925   6.122  10.980
 7208W        W79633  10.424  31.463   2.249
 7209W        W79634   3.883  18.556   2.443
 7210W        W79635  30.116   0.785   2.054
 7211W        W79636  35.674  23.177  14.384
 7212W        W79637  17.316  21.592   3.226
 7213W        W79638  39.272  18.265   2.902
 7214W        W79639  34.187  19.062   4.065
 7215W        W79640  31.702  39.258   0.362
 7216W        W79641  42.457   9.205  13.583
 7217W        W79642  36.254  36.082  13.363
 7218W        W79643  12.805   8.440   3.248
 7219W        W79644  11.776  13.561  13.314
 7220W        W79645   0.747  12.981   0.691
 7221W        W79646  18.015  17.602   4.106
 7222W        W79647  12.382   4.857   5.071
 7223W        W79648  32.039  15.553   2.463
 7224W        W79649  18.578   2.277   1.718
 7225W        W79650   6.529  25.087   4.153
 7226W        W79651  21.651  42.468  13.258
 7227W        W79652   5.346  20.008   4.384
 7228W        W79653  20.570  26.210   1.236
 7229W        W79654  27.049  20.792   3.879
 7230W        W79655  15.913   4.808   4.516
 7231W        W79656  21.691  40.957   1.251
 7232W        W79657  15.648   5.628   1.594
 7233W        W79658  22.189  39.849   1.918
 7234W        W79659   6.577  28.193  12.389
 7235W        W79660  29.124  40.420  14.200
 7236W        W79661  40.399  44.017   4.075
 7237W        W79662   5.728   6.730   2.300
 7238W        W79663   0.516  14.441  10.826
 7239W        W79664   4.658  12.029   4.708
 7240W        W79665  30.646  33.973   2.634
 7241W        W79666  30.547   7.777   2.735
 7242W        W79667  18.378  18.755   1.227
 7243W        W79668  11.598  32.973   4.750
 7244W        W79669   5.797  36.459   3.543
 7245W        W79670  22.232  39.387  14.310
 7246W        W79671  32.081  20.960   1.895
 7247W        W79672  24.456  16.768   1.400
 7248W        W79673  37.468  39.792   1.042
 7249W        W79674   8.623  22.428  11.036
 7250W        W79675   9.092  43.338  14.837
 7251W        W79676  12.268   5.337  11.890
 7252W        W79677  31.668   7.231   2.885
 7253W        W79678  15.759  40.850   4.668
 7254W        W79679  43.278  40.489   2.028
 7255W        W79680  27.918   8.086  13.779
 7256W        W79681  15.876  35.943  12.407
 7257W        W79682  20.585  15.687  13.450
 7258W        W79683  28.126   5.833   0.480
 7259W        W79684  31.459   7.139   1.471
 7260W        W79685  29.405  13.383  11.506
 7261W        W79686   4.318   9.358   2.822
 7262W        W79687  44.646  36.483  12.118
 7263W        W79688  20.968  24.169   2.162
 7264W        W79689  42.216  19.018   3.062
 7265W        W79690  23.623   8.197  12.231
 7266W        W79691  27.542   2.441   0.387
 7267W        W79692  43.328  30.619   4.916
 7268W        W79693   2.989   6.804   0.342
 7269W        W79694  33.574  25.993   2.268
 7270W        W79695  26.283  20.010  12.812
 7271W        W79696  29.148  15.950   2.775
 7272W        W79697  20.048  40.056   3.703
 7273W        W79698  34.595   9.240   0.338
 7274W        W79699  11.440   5.646  13.813
 7275W        W79700  10.656   8.429   3.999
 7276W        W79701  43.659  11.226   3.083
 7277W        W79702  35.635  23.597   4.376
 7278W        W79703   9.865  29.492   1.897
 7279W        W79704  37.920   8.346  14.086
 7280W        W79705  19.713   6.848   2.433
 7281W        W79706   3.709  19.579   2.164
 7282W        W79707  39.074  28.171  12.061
 7283W        W79708  16.802  37.428   1.686
 7284W        W79709  13.562   0.739  11.640
 7285W        W79710  25.736   8.290  14.938
 7286W        W79711  37.276  21.493   4.607
 7287W        W79712  10.903  40.124   1.332
 7288W        W79713   2.679   9.692  11.176
 7289W        W79714  23.508  42.235   0.905
 7290W        W79715  28.338  36.548  12.019
 7291W        W79716   6.808  10.123   4.169
 7292W        W79717  19.691  27.413  14.496
 7293W        W79718  22.133  36.084  12.782
 7294W        W79719  27.437  10.857   1.244
 7295W        W79720  12.463  16.035  12.035
 7296W        W79721   7.773   4.275  12.866
 7297W        W79722  19.325  18.237  13.370
 7298W        W79723  15.640  39.851   2.841
 7299W        W79724  32.399   6.714  14.566
 7300W        W79725  34.068  22.961  14.040
 7301W        W79726  24.061   0.830   3.139
 7302W        W79727  33.430  21.165   4.080
 7303W        W79728  11.353  20.977  11.587
 7304W        W79729   5.461   9.141  10.988
 7305W        W79730  34.600  33.377   2.681
 7306W        W79731  21.522  37.481  11.941
 7307W        W79732   3.157   2.951   1.746
 7308W        W79733  11.039   5.485   2.386
 7309W        W79734   8.198  12.780  14.866
 7310W        W79735   4.977  20.660  10.758
 7311W        W79736  27.049  37.449   4.571
 7312W        W79737  20.372  13.082   5.312
 7313W        W79738   8.096  42.186  13.998
 7314W        W79739  30.393  28.035   1.389
 7315W        W79740   1.017  14.789   0.947
 7316W        W79741  24.579  22.172  11.984
 7317W        W79742  30.157   9.842   2.361
 7318W        W79743   2.922  41.957   2.264
 7319W        W79744  34.946  44.326   0.805
 7320W        W79745  35.437  37.271   3.542
 7321W        W79746  14.648  29.662  11.734
 7322W        W79747  25.315  18.589  14.927
 7323W        W79748   6.324  34.895   0.302
 7324W        W79749  34.303  19.171  13.014
 7325W        W79750  12.269   6.179   3.332
 7326W        W79751  27.192   8.626  14.906
 7327W        W79752  15.727  10.141  13.551
 7328W        W79753  18.107  36.551  14.764
 7329W        W79754  34.904  19.520  14.268
 7330W        W79755  42.250  36.058  12.453
 7331W        W79756  12.249  35.346   1.651
 7332W        W79757  40.010  40.732   3.170
 7333W        W79758  30.621  41.040  13.556
 7334W        W79759  44.310  22.743   3.624
 7335W        W79760  12.656  21.430  13.506
 7336W        W79761  21.578   4.597  14.370
 7337W        W79762   7.360  29.663   2.172
 7338W        W79763  41.605  44.588   4.609
 7339W        W79764  11.657  27.423  13.836
 7340W        W79765  35.826  14.329  12.585
 7341W        W79766  14.964  10.249   4.501
 7342W        W79767   4.388   8.826   2.659
 7343W        W79768  40.252  23.110   3.057
 7344W        W79769  36.420  16.234  10.366
 7345W        W79770  33.139  12.405  12.487
 7346W        W79771  24.306  19.214   1.782
 7347W        W79772   6.869   4.912  10.666
 7348W        W79773   2.738  12.965  13.812
 7349W        W79774   6.643  18.557   4.526
 7350W        W79775  11.760  22.136  11.017
 7351W        W79776  28.055   2.804   1.143
 7352W        W79777  42.926  19.187   3.232
 7353W        W79778  18.439  19.768   4.692
 7354W        W79779  17.838   5.650  11.377
 7355W        W79780  31.060  26.995   2.805
 7356W        W79781   2.455  15.051   2.732
 7357W        W79782  29.700   2.780  11.872
 7358W        W79783   7.681  28.509   0.812
 7359W        W79784   9.271  18.420  13.377
 7360W        W79785  13.114  42.993  13.030
 7361W        W79786  43.520  21.199  14.749
 7362W        W79787  23.389  18.616   4.414
 7363W        W79788  26.985  36.246   3.666
 7364W        W79789  19.676   3.742  14.102
 7365W        W79790   4.644  32.266   4.195
 7366W        W79791  14.508   1.293  14.054
 7367W        W79792  34.075  39.662   1.430
 7368W        W79793  43.230  41.923  13.517
 7369W        W79794  38.392   6.745   1.942
 7370W        W79795   6.656  44.393   1.309
 7371W        W79796  41.482   2.827   1.742
 7372W        W79797  18.822  25.702  12.028
 7373W        W79798  34.360  27.785  13.959
 7374W        W79799  28.732  35.208   2.072
 7375W        W79800  20.023  29.220  12.417
 7376W        W79801   9.552   4.885   4.342
 7377W        W79802  33.446  37.925  14.301
 7378W        W79803  27.536  44.372  10.613
 7379W        W79804  35.066   4.366   0.345
 7380W        W79805  12.392  34.459  12.467
 7381W        W79806  32.560  23.332  13.094
 7382W        W79807  39.453  17.543   0.789
 7383W        W79808  21.718  37.466  13.777
 7384W        W79809  21.542   2.338   3.674
 7385W        W79810  26.520  38.903   4.314
 7386W        W79811  35.119  17.757  12.450
 7387W        W79812  43.913  14.629   4.042
 7388W        W79813  25.837  38.072  11.581
 7389W        W79814  35.095  20.512  12.637
 7390W        W79815   2.340  23.191  14.803
 7391W        W79816  29.687  37.324  12.524
 7392W        W79817   6.773   7.119   2.242
 7393W        W79818  21.704  39.425   3.517
 7394W        W79819  11.328  24.392  11.499
 7395W        W79820  20.970  19.438  10.725
 7396W        W79821  15.543   2.849  13.799
 7397W        W79822  24.612  31.638  14.848
 7398W        W79823  12.098  17.058  12.953
 7399W        W79824  14.942  37.846  12.543
 7400W        W79825  31.620  13.062   4.134
 7401W        W79826  29.134  37.420  11.348
 7402W        W79827  19.996   0.408  12.426
 7403W        W79828   9.733  15.596  13.896
 7404W        W79829   8.741   3.091  13.551
 7405W        W79830  17.146  27.526   3.956
 7406W        W79831  40.495  42.693   2.826
 7407W        W79832  34.397  26.655   4.560
 7408W        W79833  44.354  36.625  12.537
 7409W        W79834   2.492  10.798  11.612
 7410W        W79835  29.414  22.163   0.311
 7411W        W79836  29.847  15.705   0.735
 7412W        W79837   7.239   6.288  13.426
 7413W        W79838   4.478  25.665   3.729
 7414W        W79839  37.922  15.332  13.532
 7415W        W79840  41.181  39.992   0.377
 7416W        W79841   2.683  11.302  13.357
 7417W        W79842  42.941  10.109   4.403
 7418W        W79843  18.078  19.280  10.708
 7419W        W79844  27.601  38.444   0.722
 7420W        W79845   2.884  24.499   3.668
 7421W        W79846  23.524   4.929  13.506
 7422W        W79847  14.708  13.434   2.455
 7423W        W79848  18.065   7.908   2.015
 7424W        W79849  39.027  30.268  11.116
 7425W        W79850  10.736   5.535   1.932
 7426W        W79851  19.739  19.084   4.299
 7427W        W79852  19.658  39.329   0.798
 7428W        W79853  13.709   8.166   0.507
 7429W        W79854  26.654  29.200  14.510
 7430W        W79855  29.078  18.378   3.516
 7431W        W79856  41.210  37.634  11.137
 7432W        W79857  40.497   4.403  14.294
 7433W        W79858  26.923  11.814   4.358
 7434W        W79859  32.034  12.166   1.590
 7435W        W79860  14.489  42.516  13.572
 7436W        W79861   1.410  31.990   4.649
 7437W        W79862   0.360  14.671   1.416
 7438W        W79863  12.865   3.868   5.063
 7439W        W79864  13.130  16.722   4.659
 7440W        W79865  18.218  39.817  10.480
 7441W        W79866  28.552  28.734   2.155
 7442W        W79867   1.952  14.347  11.597
 7443W        W79868  39.583   9.258   3.176
 7444W        W79869   6.224  29.369  12.033
 7445W        W79870  13.172  39.959  11.629
 7446W        W79871   7.473   4.058  11.302
 7447W        W79872  22.743   7.125  11.380
 7448W        W79873  44.071  27.120   1.339
 7449W        W79874  38.520  42.810   4.524
 7450W        W79875  30.489   3.313   3.209
 7451W        W79876  35.394   6.968   4.560
 7452W        W79877  44.304   4.208  13.854
 7453W        W79878   0.420   2.874  13.696
 7454W        W79879  42.791  23.014   4.039
 7455W        W79880  31.241   4.218   1.246
 7456W        W79881   7.661   3.719   1.777
 7457W        W79882  22.448  11.717  12.425
 7458W        W79883  30.956  40.495   0.713
 7459W        W79884   6.200  20.185   3.773
 7460W        W79885  35.133  29.416   3.201
 7461W        W79886  27.181   7.877   0.428
 7462W        W79887   2.221  42.897   3.075
 7463W        W79888  26.971  22.967   4.188
 7464W        W79889  27.992  17.229   3.220
 7465W        W79890   7.846  29.575   1.775
 7466W        W79891   1.304  36.571   3.668
 7467W        W79892  10.274  21.220   0.991
 7468W        W79893  39.947  43.693   4.296
 7469W        W79894  44.504  11.102   0.423
 7470W        W79895  12.708  27.679  10.676
 7471W        W79896  36.453   6.659   0.379
 7472W        W79897  37.031   8.950  13.971
 7473W        W79898   9.397  43.680   1.841
 7474W        W79899  17.173  35.453   0.484
 7475W        W79900  19.111  43.445   3.945
 7476W        W79901  44.026   0.797   3.780
 7477W        W79902  38.641  30.412  13.404
 7478W        W79903  42.316  20.961  11.504
 7479W        W79904  23.215  17.752   4.479
 7480W        W79905  37.199  30.104   4.748
 7481W        W79906  42.249  36.937  12.701
 7482W        W79907   0.326  26.166  14.677
 7483W        W79908  42.460  25.214  14.144
 7484W        W79909  36.823  44.746  12.354
 7485W        W79910  41.345  36.145  11.173
 7486W        W79911  24.110  21.583  13.550
 7487W        W79912  34.169  28.999   4.473
 7488W        W79913  35.076  32.907   4.109
 7489W        W79914  19.730  31.215   1.828
 7490W        W79915  21.091   9.473  10.848
 7491W        W79916  43.068  20.304  12.809
 7492W        W79917  17.710  31.389   3.261
 7493W        W79918  36.595  33.778   5.186
 7494W        W79919  27.195  41.508  11.577
 7495W        W79920  27.325   6.550  13.466
 7496W        W79921  16.534   7.181   4.830
 7497W        W79922   8.699  20.204   4.127
 7498W        W79923  22.782  37.447   3.904
 7499W        W79924  35.398   5.879  11.271
 7500W        W79925  12.159  18.877   3.677
 7501W        W79926  20.682  41.607   4.224
 7502W        W79927  23.980  36.367  14.489
 7503W        W79928   9.296  14.417  11.999
 7504W        W79929   6.847  15.050  12.061
 7505W        W79930  42.060  21.298   1.857
 7506W        W79931  44.212  16.068   0.527
 7507W        W79932   5.166  14.697   2.283
 7508W        W79933  15.749   9.372  12.984
 7509W        W79934   2.601  42.329  14.232
 7510W        W79935  14.203  16.588   1.661
 7511W        W79936  39.347  42.786   3.406
 7512W        W79937  40.492   6.644  10.887
 7513W        W79938  33.479  38.806  14.418
 7514W        W79939  37.923  34.703   1.343
 7515W        W79940  16.355   9.507   3.877
 7516W        W79941  40.753   8.229   1.800
 7517W        W79942  25.001  39.123   4.641
 7518W        W79943   0.301  40.331  13.885
 7519W        W79944  10.790  35.023  11.536
 7520W        W79945  32.199  34.533  13.589
 7521W        W79946   4.930   0.249  11.920
 7522W        W79947  35.588  35.076   0.452
 7523W        W79948  28.085  35.764   5.028
 7524W        W79949  41.851  41.193  13.413
 7525W        W79950  38.521  20.533   0.761
 7526W        W79951  28.449   8.521   3.228
 7527W        W79952  30.940  24.568  12.622
 7528W        W79953  40.752  10.283  11.579
 7529W        W79954   9.229  18.932  13.329
 7530W        W79955  13.193  32.409  11.881
 7531W        W79956   4.513  13.769  14.945
 7532W        W79957  36.377  43.458  13.902
 7533W        W79958  25.008   5.235  11.579
 7534W        W79959  27.939  20.773  10.413
 7535W        W79960  29.990  39.011   5.034
 7536W        W79961  15.714  38.374  14.664
 7537W        W79962  43.768  17.317   1.218
 7538W        W79963   5.745  12.861   2.156
 7539W        W79964   6.970  43.062   5.159
 7540W        W79965  19.199  17.717  11.737
 7541W        W79966  17.871  42.493   4.555
 7542W        W79967   7.849  34.483   3.052
 7543W        W79968  31.687  24.169  11.048
 7544W        W79969   8.400  44.317   4.409
 7545W        W79970   3.142  22.954  11.678
 7546W        W79971  10.689   6.808  13.155
 7547W        W79972   3.197  27.149  13.930
 7548W        W79973  44.015  15.607   0.662
 7549W        W79974  11.812   6.017  11.186
 7550W        W79975  26.569  33.837   4.685
 7551W        W79976  27.479   2.221  10.738
 7552W        W79977   2.762  14.712  13.219
 7553W        W79978  12.150  27.115   0.772
 7554W        W79979  28.753  39.435  14.452
 7555W        W79980  41.795  10.803  10.918
 7556W        W79981  20.727   8.062  11.320
 7557W        W79982   3.950  37.304   3.728
 7558W        W79983  25.628  35.835  13.010
 7559W        W79984  23.211  40.522   4.541
 7560W        W79985   7.866  34.728   1.987
 7561W        W79986   7.327  16.636   2.913
 7562W        W79987  42.715  44.134  10.876
 7563W        W79988  30.003  20.438   0.336
 7564W        W79989  31.955   7.956  13.897
 7565W        W79990  34.459  12.455   1.810
 7566W        W79991   7.914  33.988   0.604
 7567W        W79992   1.887  14.869   3.913
 7568W        W79993  35.475  24.449  13.071
 7569W        W79994  12.150   3.555   1.414
 7570W        W79995   5.996   5.891   0.327
 7571W        W79996   3.922   4.811   4.220
 7572W        W79997   4.808   9.181  11.807
 7573W        W79998  39.039   9.882   2.900
 7574W        W79999  11.562  44.036   1.107
 7575W        W80000  10.430  43.661   3.304
 7576W        W80001  24.910  29.929  11.477
 7577W        W80002   6.889   5.777  11.920
 7578W        W80003  24.092  19.708  10.818
 7579W        W80004  24.980   6.772  14.804
 7580W        W80005   2.921  35.864   2.597
 7581W        W80006  21.454  11.159  14.740
 7582W        W80007  14.290  13.063  12.029
 7583W        W80008  27.429  33.751  13.081
 7584W        W80009  39.373  13.569   1.607
 7585W        W80010  29.579  10.179  10.306
 7586W        W80011  20.249   9.132   3.665
 7587W        W80012   2.838  34.153  13.321
 7588W        W80013  13.301  16.531   2.683
 7589W        W80014  23.796   0.228   0.183
 7590W        W80015   7.809  30.073   1.944
 7591W        W80016   9.344  25.619  14.504
 7592W        W80017   8.883  20.760   4.105
 7593W        W80018  31.573  14.383   2.661
 7594W        W80019  10.270  19.219   1.763
 7595W        W80020  22.270  29.889  11.064
 7596W        W80021   4.287  40.880  10.767
 7597W        W80022   4.628  18.771   2.789
 7598W        W80023  34.327  18.273  13.377
 7599W        W80024  18.927  40.490  14.344
 7600W        W80025   3.767  13.582  13.437
 7601W        W80026  35.490  39.712   0.992
 7602W        W80027  21.083  40.678   1.774
 7603W        W80028  29.077  44.510   4.816
 7604W        W80029   1.949  10.700   1.331
 7605W        W80030  32.174  32.514  13.299
 7606W        W80031  29.168  23.060   4.777
 7607W        W80032   8.363  31.659  13.990
 7608W        W80033  29.510  38.536   5.819
 7609W        W80034   9.084  27.001  14.790
 7610W        W80035   9.332  12.263  11.905
 7611W        W80036  26.550  20.660   0.060
 7612W        W80037  18.191  26.439  13.321
 7613W        W80038   0.328  16.665  11.557
 7614W        W80039   3.262  15.150  11.183
 7615W        W80040  41.908   9.073  11.297
 7616W        W80041  34.583   1.361   2.439
 7617W        W80042   0.735  15.013   1.300
 7618W        W80043  34.893  35.034   0.767
 7619W        W80044  21.488  29.407   4.572
 7620W        W80045  24.640  15.835   5.027
 7621W        W80046  35.454  17.687   1.078
 7622W        W80047  38.498  44.479  11.706
 7623W        W80048  11.654   2.198   9.775
 7624W        W80049   9.094   2.068   0.423
 7625W        W80050  20.524  16.767  11.853
 7626W        W80051  37.630  14.095   0.328
 7627W        W80052  21.931   6.212  11.401
 7628W        W80053  31.960  30.373  14.009
 7629W        W80054  35.255  14.165  14.428
 7630W        W80055   1.142  12.123  11.248
 7631W        W80056  38.053  19.318   1.710
 7632W        W80057  23.204  38.051  13.610
 7633W        W80058  29.111  32.114   3.712
 7634W        W80059  12.880  28.985   1.352
 7635W        W80060   8.431  10.990  13.499
 7636W        W80061  38.174  24.539   1.406
 7637W        W80062  28.404   4.337  14.396
 7638W        W80063  36.499  29.288   2.340
 7639W        W80064   2.314  38.515  14.271
 7640W        W80065  40.462  43.699   4.471
 7641W        W80066  41.975  35.733   4.659
 7642W        W80067  36.894   6.100   4.591
 7643W        W80068  29.656  22.673   0.254
 7644W        W80069  33.439  11.409  12.626
 7645W        W80070  31.534  32.285   3.314
 7646W        W80071  41.224  44.604   0.962
 7647W        W80072  19.041  21.838  12.565
 7648W        W80073  36.516  21.074   1.862
 7649W        W80074  41.953   4.965   1.244
 7650W        W80075   7.647  14.858  14.256
 7651W        W80076  34.017   0.424   1.770
 7652W        W80077   1.462   6.754   4.596
 7653W        W80078  14.538   7.365   4.610
 7654W        W80079  30.388   6.807   3.396
 7655W        W80080  31.566  38.628  14.102
 7656W        W80081  27.636  44.983  13.614
 7657W        W80082   7.926  17.826   3.171
 7658W        W80083   0.222  25.205   0.291
 7659W        W80084  36.829  20.518  11.494
 7660W        W80085  22.993  35.702   0.992
 7661W        W80086  38.911  33.541  13.997
 7662W        W80087  23.619   8.503   2.667
 7663W        W80088  18.014   1.378   1.706
 7664W        W80089  41.990  15.338   0.567
 7665W        W80090   0.555  18.266   3.982
 7666W        W80091   9.624  34.115   3.712
 7667W        W80092   8.046  28.967   2.389
 7668W        W80093  42.029  30.045  11.378
 7669W        W80094   9.204  33.991  10.584
 7670W        W80095  35.740  39.150   2.249
 7671W        W80096  25.566  12.163   3.118
 7672W        W80097  28.419  41.989  11.653
 7673W        W80098  38.007  29.203   1.706
 7674W        W80099   1.193  36.143  12.388
 7675W        W80100  26.295  27.883   2.348
 7676W        W80101  13.651  37.544   3.166
 7677W        W80102  21.115  44.348  14.796
 7678W        W80103  32.654   6.480   4.036
 7679W        W80104   8.272  39.104  11.514
 7680W        W80105  23.586  23.958   4.654
 7681W        W80106  36.306  21.302  12.507
 7682W        W80107   6.876   4.376   3.796
 7683W        W80108   2.418  25.552  11.337
 7684W        W80109  14.828  16.218   4.646
 7685W        W80110  11.819  27.217   2.322
 7686W        W80111  12.593  32.215   1.252
 7687W        W80112   0.909  27.133   2.713
 7688W        W80113  15.066  35.116   2.139
 7689W        W80114  12.641   6.379  11.148
 7690W        W80115  34.799  15.552  11.651
 7691W        W80116   0.152  27.436   3.105
 7692W        W80117   2.223  23.059  10.705
 7693W        W80118  11.090  40.264   0.857
 7694W        W80119   0.170  29.472  11.588
 7695W        W80120  27.336  10.615   4.487
 7696W        W80121  23.849  10.574  10.939
 7697W        W80122  14.291  22.854   3.552
 7698W        W80123  40.935  23.460   2.959
 7699W        W80124   8.096  25.432   2.261
 7700W        W80125  10.883  25.677   1.738
 7701W        W80126  10.108   4.160   0.698
 7702W        W80127  15.574  35.600   1.949
 7703W        W80128   6.061  32.334   4.238
 7704W        W80129  42.344  41.247  13.799
 7705W        W80130  31.542   8.758   0.777
 7706W        W80131  39.602  35.979   1.417
 7707W        W80132  11.828  37.988  11.180
 7708W        W80133  24.119   7.159   2.727
 7709W        W80134  26.224  14.844   0.782
 7710W        W80135  20.820  31.808   2.092
 7711W        W80136  28.032  22.027  11.821
 7712W        W80137  13.823  14.901  11.820
 7713W        W80138  30.992  42.892   1.817
 7714W        W80139   3.169   8.632   1.733
 7715W        W80140   4.599  31.382   1.996
 7716W        W80141  27.012  11.896  13.111
 7717W        W80142  13.112  32.491  13.346
 7718W        W80143   6.970  37.972  10.415
 7719W        W80144  22.630  30.953   0.702
 7720W        W80145   9.878  21.884   1.322
 7721W        W80146  26.689   2.145  12.316
 7722W        W80147  43.424   8.332  14.702
 7723W        W80148  12.005   4.131   3.616
 7724W        W80149  15.661  16.421  11.641
 7725W        W80150   2.686  41.527  14.576
 7726W        W80151   5.968  26.223   0.419
 7727W        W80152  10.286   8.979   2.451
 7728W        W80153   1.683   0.239   2.153
 7729W        W80154  18.719   7.803  12.587
 7730W        W80155   9.946   0.692   5.029
 7731W        W80156   9.314  34.440   2.677
 7732W        W80157  37.964   5.825   0.749
 7733W        W80158  18.530  10.992  14.555
 7734W        W80159   8.567  10.336  10.510
 7735W        W80160  16.209  37.874   0.789
 7736W        W80161  12.344   7.400  11.489
 7737W        W80162  25.356  34.989   0.148
 7738W        W80163   2.865  18.704   0.252
 7739W        W80164  23.509  10.614   2.850
 7740W        W80165  18.293   8.076   3.707
 7741W        W80166  25.411  15.555  14.043
 7742W        W80167  35.929  22.743   4.514
 7743W        W80168   2.384   3.872   1.275
 7744W        W80169  27.190  13.350   2.174
 7745W        W80170  24.987  19.045  12.561
 7746W        W80171  16.635  13.378   0.796
 7747W        W80172  24.844   9.147   0.685
 7748W        W80173  31.349  34.390   2.705
 7749W        W80174   3.208  44.860   4.117
 7750W        W80175  20.730  18.859   2.648
 7751W        W80176   6.533  35.677  13.816
 7752W        W80177   3.874  34.242  10.774
 7753W        W80178   2.474  27.148   3.271
 7754W        W80179  38.534   9.924  12.383
 7755W        W80180   0.176  35.998  13.196
 7756W        W80181  35.451  30.800  13.742
 7757W        W80182  40.893  27.525   0.070
 7758W        W80183  24.871   2.856  14.330
 7759W        W80184  20.264  33.580  13.143
 7760W        W80185  34.523   4.022   3.282
 7761W        W80186  12.356  21.167   1.694
 7762W        W80187  23.770  36.007  10.486
 7763W        W80188  18.238  37.986  12.029
 7764W        W80189  12.199  30.049   1.736
 7765W        W80190  22.496  24.226   2.380
 7766W        W80191  40.148  32.641   0.915
 7767W        W80192  14.343   7.428  12.929
 7768W        W80193  13.650  29.064   1.743
 7769W        W80194  17.267  35.106   1.807
 7770W        W80195  41.986  33.106   2.651
 7771W        W80196   5.878  16.070   0.029
 7772W        W80197  15.863   0.190   9.868
 7773W        W80198  10.797  23.969  12.025
 7774W        W80199  37.793  15.760   0.780
 7775W        W80200  23.794  31.597  12.338
 7776W        W80201  30.603  13.420   5.052
 7777W        W80202   8.736  19.308  10.571
 7778W        W80203  30.749  39.840  14.449
 7779W        W80204  27.956  42.440  11.021
 7780W        W80205  17.314   0.946   2.290
 7781W        W80206  33.439  39.479  11.819
 7782W        W80207   4.733  12.868  11.599
 7783W        W80208  20.167  10.722   9.769
 7784W        W80209  16.256  42.894   4.706
 7785W        W80210  12.932   8.750   2.394
 7786W        W80211  23.533  37.560   2.217
 7787W        W80212   7.963  33.179   2.332
 7788W        W80213  12.529  19.048  12.593
 7789W        W80214  30.111  25.523   0.468
 7790W        W80215  38.002   8.639   5.011
 7791W        W80216  36.837   2.047   3.778
 7792W        W80217  30.827  21.361   5.590
 7793W        W80218  16.088   9.038  11.655
 7794W        W80219   6.459   0.168   4.571
 7795W        W80220  21.748  43.969  11.527
 7796W        W80221  16.602  20.993   2.297
 7797W        W80222   8.265  17.701  13.467
 7798W        W80223  16.343  31.951   0.751
 7799W        W80224  19.165   4.289  11.229
 7800W        W80225  34.700  39.888  11.646
 7801W        W80226  16.040  24.540  13.565
 7802W        W80227  13.132  25.026   0.775
 7803W        W80228  38.218  39.970  12.181
 7804W        W80229  25.848  43.235   0.826
 7805W        W80230  13.227  30.905   4.277
 7806W        W80231   5.910   4.444  11.485
 7807W        W80232  34.288  10.548  10.998
 7808W        W80233  30.976  26.337  13.078
 7809W        W80234  22.581  11.164  12.061
 7810W        W80235  13.624  20.922   3.605
 7811W        W80236  10.148   0.855   3.305
 7812W        W80237   0.499  15.112  12.503
 7813W        W80238  16.703   5.994  14.422
 7814W        W80239  25.063  15.702  13.645
 7815W        W80240   9.780   5.715  14.976
 7816W        W80241   2.988  29.913   0.824
 7817W        W80242  26.107  11.228  10.364
 7818W        W80243  30.193   0.834  14.546
 7819W        W80244  29.865  30.153  10.643
 7820W        W80245  40.949  18.106  11.929
 7821W        W80246   8.851   0.279   0.284
 7822W        W80247  44.220   8.579   2.869
 7823W        W80248  24.484   7.256   3.587
 7824W        W80249  38.526  16.338  14.931
 7825W        W80250  24.139  32.304   1.897
 7826W        W80251  37.522  28.403  13.012
 7827W        W80252  40.857  28.460   0.281
 7828W        W80253  21.286  35.416  12.964
 7829W        W80254  35.808  43.398  12.959
 7830W        W80255  33.578   3.945  14.922
 7831W        W80256  21.776  10.290   2.807
 7832W        W80257  22.281   8.871   1.404
 7833W        W80258  37.502  16.232   0.817
 7834W        W80259  28.702   5.823  11.103
 7835W        W80260   6.505  37.912  11.486
 7836W        W80261  24.691   3.942   4.885
 7837W        W80262  14.613  13.870   4.587
 7838W        W80263  25.524   0.712  11.121
 7839W        W80264  40.844  40.454   4.355
 7840W        W80265  16.945  28.679   2.916
 7841W        W80266  30.512  25.084   3.381
 7842W        W80267  10.247   6.937  12.903
 7843W        W80268  41.755  24.702   4.158
 7844W        W80269  23.659  13.053  11.896
 7845W        W80270  12.584  19.183   2.663
 7846W        W80271   4.715  32.043   3.662
 7847W        W80272  13.035   0.518   1.782
 7848W        W80273  33.519  21.634  13.974
 7849W        W80274  27.955  16.887  12.990
 7850W        W80275  32.669  36.702  14.891
 7851W        W80276  35.500  34.895  13.337
 7852W        W80277  21.855  22.439  14.702
 7853W        W80278  17.228  37.076  12.086
 7854W        W80279  13.952  18.420   1.916
 7855W        W80280  26.598  35.856  14.197
 7856W        W80281  21.697  36.613   3.291
 7857W        W80282  31.613  11.313  13.935
 7858W        W80283  37.496   4.418  10.637
 7859W        W80284  25.487   0.268  14.926
 7860W        W80285  35.987  26.512   2.253
 7861W        W80286  17.107  32.923  11.487
 7862W        W80287  38.628  23.126  12.212
 7863W        W80288  23.697   5.650   0.915
 7864W        W80289  11.317  23.937  10.717
 7865W        W80290  40.116  21.357   2.710
 7866W        W80291   2.326  29.100   4.599
 7867W        W80292   4.686  18.990   3.250
 7868W        W80293  31.375   8.741   1.306
 7869W        W80294  34.941  22.996   2.813
 7870W        W80295  11.551   3.725   3.658
 7871W        W80296  20.737  28.428  13.895
 7872W        W80297  14.139   7.046   1.771
 7873W        W80298  38.516  35.398   4.548
 7874W        W80299  22.603  10.866   2.148
 7875W        W80300   3.007  26.743  14.385
 7876W        W80301  17.040  39.414   0.881
 7877W        W80302  33.093  21.701   2.783
 7878W        W80303  12.674  34.560  12.889
 7879W        W80304  28.443  10.011  10.752
 7880W        W80305  14.233  36.057   0.040
 7881W        W80306  10.333  30.851  13.500
 7882W        W80307  25.160  25.013   3.121
 7883W        W80308   6.917   9.601   4.122
 7884W        W80309  21.781   4.570   4.135
 7885W        W80310  13.111  17.214   2.169
 7886W        W80311   6.301  16.534   2.698
 7887W        W80312  20.849  25.165   0.519
 7888W        W80313  18.727  24.163   1.244
 7889W        W80314   8.914  43.867   1.867
 7890W        W80315  16.524   0.050   3.848
 7891W        W80316  15.169   9.395  14.886
 7892W        W80317   4.425  43.181   3.224
 7893W        W80318  21.808  15.074  12.282
 7894W        W80319  21.117  18.990   0.808
 7895W        W80320  33.608  12.154   0.942
 7896W        W80321  27.370   6.326  11.385
 7897W        W80322  25.545  22.526  12.068
 7898W        W80323  30.927   7.795  13.647
 7899W        W80324  20.762  18.199  13.654
 7900W        W80325  15.484  10.669   2.619
 7901W        W80326  17.262   3.358   2.950
 7902W        W80327  17.339  16.084  12.568
 7903W        W80328  26.074  27.041   4.870
 7904W        W80329  23.303  28.970   3.848
 7905W        W80330  22.881  17.516  12.947
 7906W        W80331  13.847  17.946   1.771
 7907W        W80332  19.268  36.500   0.741
 7908W        W80333  30.613   0.690   2.173
 7909W        W80334  19.224  22.483  11.189
 7910W        W80335  32.494  32.449   1.250
 7911W        W80336   5.640  37.420  11.191
 7912W        W80337  14.165  26.877   4.528
 7913W        W80338  12.118   4.744   0.713
 7914W        W80339  27.576  18.719   1.734
 7915W        W80340  27.052  22.063   2.859
 7916W        W80341  34.085  12.816  13.948
 7917W        W80342   7.966   0.482  12.424
 7918W        W80343   3.757  18.662  13.549
 7919W        W80344  15.205   2.014  11.487
 7920W        W80345  33.553  33.083  13.374
 7921W        W80346   9.811  23.590   4.338
 7922W        W80347   8.312  37.576  11.780
 7923W        W80348  30.254  21.971  10.549
 7924W        W80349  42.305  38.818   2.314
 7925W        W80350  31.712  26.587   4.425
 7926W        W80351  29.723  16.025   0.292
 7927W        W80352   9.366  26.585  14.941
 7928W        W80353  32.757  36.860  12.240
 7929W        W80354   9.847  42.388  11.454
 7930W        W80355  44.140  15.579   3.070
 7931W        W80356  33.929  15.891  14.122
 7932W        W80357  34.488  39.383   4.105
 7933W        W80358   1.878  40.602  12.461
 7934W        W80359  20.972  27.504   4.358
 7935W        W80360  28.147   7.224   3.330
 7936W        W80361  41.287   9.614   1.704
 7937W        W80362  33.114  36.349  13.615
 7938W        W80363  14.231   2.275  12.573
 7939W        W80364  13.198  29.197  10.088
 7940W        W80365   0.202  36.401  14.770
 7941W        W80366  42.890  18.558  12.454
 7942W        W80367   2.325   6.364  10.478
 7943W        W80368  27.041  12.627  10.601
 7944W        W80369   1.413  10.173   1.309
 7945W        W80370   5.716  43.366  10.779
 7946W        W80371  31.987   8.824   2.219
 7947W        W80372  35.895   7.698   4.225
 7948W        W80373   9.636  30.524   4.922
 7949W        W80374  41.176  30.579  11.649
 7950W        W80375  22.286  38.359   0.937
 7951W        W80376  23.139  37.270   4.725
 7952W        W80377  25.243  28.903   1.679
 7953W        W80378  13.817  25.124   1.375
 7954W        W80379  41.971  41.316  10.749
 7955W        W80380  36.892  17.876  10.726
 7956W        W80381  14.783  18.411   2.806
 7957W        W80382  41.773  25.211   4.104
 7958W        W80383  25.505  26.015   1.283
 7959W        W80384  44.285  23.151   0.361
 7960W        W80385   0.438   3.781   4.156
 7961W        W80386   7.384  17.586   2.571
 7962W        W80387   2.472  20.660  13.379
 7963W        W80388  40.975   3.151   4.433
 7964W        W80389  17.160  16.495  10.779
 7965W        W80390  17.765  33.834   1.425
 7966W        W80391  27.607  31.585   1.729
 7967W        W80392  42.525   6.995  12.883
 7968W        W80393  37.525  25.397  11.045
 7969W        W80394   1.863  27.640   2.860
 7970W        W80395  39.115  20.695  12.723
 7971W        W80396  39.260  17.090   4.319
 7972W        W80397  35.689  26.331  13.514
 7973W        W80398  23.283  37.570   2.702
 7974W        W80399  12.621   7.407   0.774
 7975W        W80400  41.025  25.948   0.892
 7976W        W80401   2.985  43.772   0.494
 7977W        W80402  43.416  28.689   2.011
 7978W        W80403  23.424  39.781  14.867
 7979W        W80404  31.791  26.527  11.945
 7980W        W80405  18.190  14.557  10.708
 7981W        W80406   6.375   7.934  11.254
 7982W        W80407  33.906  14.178   1.230
 7983W        W80408  10.001  31.875   4.148
 7984W        W80409  19.636  28.093  13.926
 7985W        W80410   1.706  19.607   3.762
 7986W        W80411   8.647  22.238   3.278
 7987W        W80412  19.276   9.160  12.981
 7988W        W80413   4.376   8.793  12.490
 7989W        W80414  28.476  37.799   2.892
 7990W        W80415  30.930  32.457  14.748
 7991W        W80416  18.540   7.605   3.774
 7992W        W80417  13.242   1.623   5.024
 7993W        W80418   7.043  44.734  14.013
 7994W        W80419  32.363  41.952  14.968
 7995W        W80420  33.097  36.974  14.976
 7996W        W80421   3.217  41.165   2.703
 7997W        W80422  14.079   5.804  11.761
 7998W        W80423  14.341  25.479  12.466
 7999W        W80424  15.886  22.588   0.214
 8000W        W80425  34.917  43.195  11.151
 8001W        W80426  13.550  25.065   1.788
 8002W        W80427  28.251  31.961  13.270
 8003W        W80428  22.934  22.380  13.805
 8004W        W80429  19.889  30.878  11.700
 8005W        W80430  34.890   7.442   3.618
 8006W        W80431  25.278  24.736   1.236
 8007W        W80432  30.718  28.629  12.769
 8008W        W80433   5.638  16.492  13.149
 8009W        W80434   7.922   7.514   0.957
 8010W        W80435  41.254  43.458  11.156
 8011W        W80436  36.440   5.069  10.876
 8012W        W80437  20.728  11.260  10.982
 8013W        W80438  31.891   6.688   0.823
 8014W        W80439  27.972  19.330  12.722
 8015W        W80440  34.843  37.167  14.021
 8016W        W80441  10.121  31.026   1.758
 8017W        W80442  40.504  39.748  14.813
 8018W        W80443   5.912  37.780   1.708
 8019W        W80444  26.432  21.625  10.477
 8020W        W80445  31.695   3.418  10.800
 8021W        W80446   3.058  19.068  12.427
 8022W        W80447   9.122  24.586  11.974
 8023W        W80448  34.545  13.664   2.159
 8024W        W80449  17.222  33.940  11.579
 8025W        W80450  39.014  44.861  10.099
 8026W        W80451  43.267  40.549   1.514
 8027W        W80452  34.056  37.090   2.015
 8028W        W80453  17.611  36.016  12.964
 8029W        W80454  39.420  23.473   3.835
 8030W        W80455  27.582  29.855   0.810
 8031W        W80456  14.684  42.502  14.433
 8032W        W80457  39.607  38.453  14.769
 8033W        W80458  19.699  24.994   2.219
 8034W        W80459  36.432  41.290   2.731
 8035W        W80460  42.018  34.610   4.274
 8036W        W80461  14.127  27.410   4.581
 8037W        W80462   7.297  44.509  13.078
 8038W        W80463  12.731   7.843  11.933
 8039W        W80464  44.967  32.165  10.665
 8040W        W80465  28.071  42.884  11.719
 8041W        W80466   8.996  27.216  13.505
 8042W        W80467  39.111  39.585  12.102
 8043W        W80468  22.689  15.380  11.230
 8044W        W80469  33.518  21.519  12.566
 8045W        W80470  16.183  18.988   4.718
 8046W        W80471  11.644   9.084   0.052
 8047W        W80472   7.612  38.411  12.940
 8048W        W80473  32.427   6.791  11.730
 8049W        W80474  43.256  29.446   2.406
 8050W        W80475  25.826  30.085  14.966
 8051W        W80476  21.034  29.346  10.666
 8052W        W80477  40.429  37.426  12.936
 8053W        W80478  42.417   1.742  14.372
 8054W        W80479  33.819  27.395   3.634
 8055W        W80480  22.533  27.147  11.989
 8056W        W80481  15.018  39.406   1.004
 8057W        W80482  43.457   3.187  14.310
 8058W        W80483  14.538  30.503  11.206
 8059W        W80484  19.648  21.003   3.169
 8060W        W80485  37.991  41.702  13.355
 8061W        W80486   8.204  24.835  13.933
 8062W        W80487   5.051  29.268   0.818
 8063W        W80488  16.744  32.107   0.460
 8064W        W80489  33.206  26.172  12.159
 8065W        W80490   5.355  22.182   1.349
 8066W        W80491   7.443   9.273  12.123
 8067W        W80492   5.261  17.157  13.618
 8068W        W80493  39.916  37.483  13.059
 8069W        W80494  17.563   6.905   1.381
 8070W        W80495  15.864   1.836   1.683
 8071W        W80496  44.370  44.725   1.446
 8072W        W80497  12.082  16.379   1.636
 8073W        W80498  42.795  31.996  13.352
 8074W        W80499  22.587  21.103  11.859
 8075W        W80500   4.705  15.253  14.321
 8076W        W80501  36.262   1.487  11.619
 8077W        W80502  36.378  22.987   4.594
 8078W        W80503  33.517   2.819  14.824
 8079W        W80504  16.536   8.955   2.763
 8080W        W80505  16.329  30.909   0.177
 8081W        W80506   7.680  31.335   3.349
 8082W        W80507  25.339  12.100  14.692
 8083W        W80508  42.322   8.757   1.275
 8084W        W80509  24.178   9.861  13.105
 8085W        W80510  39.260  16.183   4.301
 8086W        W80511  25.931  31.728  10.236
 8087W        W80512  38.369  32.651   3.583
 8088W        W80513  37.333  21.052  12.593
 8089W        W80514  24.057  24.203   3.766
 8090W        W80515   0.453  27.096   4.022
 8091W        W80516  11.829  20.540  13.874
 8092W        W80517  15.786  37.623   4.168
 8093W        W80518  26.874  44.479  10.742
 8094W        W80519  39.304  12.064   3.752
 8095W        W80520  40.973  42.586   0.425
 8096W        W80521  15.995  43.596  12.993
 8097W        W80522  36.792  33.600   2.231
 8098W        W80523  33.683  20.243  13.092
 8099W        W80524   8.194  20.755   1.509
 8100W        W80525  19.815   4.995  14.534
 8101W        W80526   1.022  21.584   2.924
 8102W        W80527  16.854   1.957  12.306
 8103W        W80528  37.639  24.531   3.576
 8104W        W80529   4.864  23.178   4.081
 8105W        W80530  31.065  41.261   1.291
 8106W        W80531  38.086  22.680   4.147
 8107W        W80532  25.628  10.321   4.639
 8108W        W80533  22.242  33.501   2.297
 8109W        W80534  27.953  18.832   0.273
 8110W        W80535  26.047  37.556   4.525
 8111W        W80536   8.827  26.935  11.191
 8112W        W80537  14.603  14.717   2.715
 8113W        W80538  20.958  27.079   0.959
 8114W        W80539  31.049  34.371   1.417
 8115W        W80540   7.124  14.624  13.375
 8116W        W80541  11.404  19.202   5.107
 8117W        W80542  38.470   1.602   0.895
 8118W        W80543  31.350  31.895  11.556
 8119W        W80544  18.159   5.356  10.881
 8120W        W80545  23.357  11.222   3.801
 8121W        W80546  35.440  28.332  12.583
 8122W        W80547  31.861  11.885   3.361
 8123W        W80548  26.663  15.643  11.068
 8124W        W80549  21.785   9.678   1.876
 8125W        W80550  28.474  24.501  11.623
 8126W        W80551  20.552   4.955   3.562
 8127W        W80552   0.389  15.589  12.447
 8128W        W80553  12.328  25.552   3.607
 8129W        W80554  22.772  42.919  11.642
 8130W        W80555  14.248   9.956  14.191
 8131W        W80556   7.291  34.938   3.561
 8132W        W80557   6.822  26.634   4.528
 8133W        W80558   4.966  41.298  12.105
 8134W        W80559  44.551   5.332  12.506
 8135W        W80560  37.412  27.435   0.348
 8136W        W80561  22.175  43.039   2.338
 8137W        W80562   1.847  31.230   3.685
 8138W        W80563  41.335   3.504  13.894
 8139W        W80564  42.870  39.940  14.980
 8140W        W80565  31.072  11.370   1.717
 8141W        W80566   8.169  17.733  11.505
 8142W        W80567  32.442   8.194  13.928
 8143W        W80568  40.127  26.928   1.148
 8144W        W80569   3.451   8.136   4.527
 8145W        W80570  43.091  28.745   0.829
 8146W        W80571   0.170  27.331   0.445
 8147W        W80572  20.045   7.434  11.147
 8148W        W80573  41.303  11.189  12.902
 8149W        W80574  10.349   4.259  12.323
 8150W        W80575  32.076  36.160  13.047
 8151W        W80576   3.223   5.838  12.312
 8152W        W80577  25.491  40.427  12.409
 8153W        W80578  43.985   0.111  14.756
 8154W        W80579   4.082  25.055  13.379
 8155W        W80580   7.555  31.526  14.500
 8156W        W80581  26.568  32.202   2.216
 8157W        W80582   2.879   0.533  11.584
 8158W        W80583  10.110  31.110   4.014
 8159W        W80584  15.157  36.118  12.946
 8160W        W80585  28.488   9.269   4.726
 8161W        W80586  43.024  32.258   1.994
 8162W        W80587  17.292  30.693   9.868
 8163W        W80588  28.114  29.453  12.131
 8164W        W80589  23.877  26.505  10.186
 8165W        W80590  12.035  14.349  11.606
 8166W        W80591  10.765  16.039  11.074
 8167W        W80592  18.064  22.963   2.669
 8168W        W80593  28.242   7.312  13.765
 8169W        W80594  28.047  36.017   1.221
 8170W        W80595  40.877  32.899  13.090
 8171W        W80596  43.762  19.826   3.133
 8172W        W80597  18.444  27.668   1.584
 8173W        W80598  25.980  14.322   2.211
 8174W        W80599  32.682  11.320  13.974
 8175W        W80600  18.555  32.148  12.883
 8176W        W80601  35.105  10.960  12.053
 8177W        W80602   4.889  31.823   4.092
 8178W        W80603  31.212  39.348  11.422
 8179W        W80604   5.090   9.179  10.031
 8180W        W80605  41.054  13.099  11.212
 8181W        W80606  39.929   6.072  10.666
 8182W        W80607  22.655  40.468  14.817
 8183W        W80608  24.753  25.185   3.384
 8184W        W80609   9.273  41.759   2.145
 8185W        W80610   4.271   8.793  12.998
 8186W        W80611  44.795  17.237   1.965
 8187W        W80612  22.222   3.136   0.489
 8188W        W80613   1.808  12.918  10.562
 8189W        W80614   3.314  29.987  14.369
 8190W        W80615  16.339  16.386   0.509
 8191W        W80616  24.090   3.236  14.270
 8192W        W80617  13.741  11.598   3.138
 8193W        W80618   5.229   5.203   4.112
 8194W        W80619  12.864  40.975  14.015
 8195W        W80620   3.382  17.287   4.243
 8196W        W80621  12.701  42.101  10.684
 8197W        W80622  27.396   3.454  13.731
 8198W        W80623  14.091  21.560   0.415
 8199W        W80624  33.493  16.893   5.100
 8200W        W80625  16.743  38.052  11.894
 8201W        W80626   2.572  40.099   2.204
 8202W        W80627   8.432  23.170  12.041
 8203W        W80628   0.056  42.441   4.317
 8204W        W80629  39.410  28.867   1.630
 8205W        W80630  12.446  43.139   0.740
 8206W        W80631  39.543  13.150  14.593
 8207W        W80632  42.235  19.543   0.371
 8208W        W80633  21.912   0.720   3.629
 8209W        W80634  11.138  28.037   3.714
 8210W        W80635  25.487  30.105   9.846
 8211W        W80636   9.179   4.953   3.365
 8212W        W80637  13.542   5.566   2.453
 8213W        W80638  38.858  26.462   0.924
 8214W        W80639  44.085  13.663   2.290
 8215W        W80640  29.890   5.414   1.414
 8216W        W80641  38.525   9.368  14.975
 8217W        W80642  42.332   8.271   1.976
 8218W        W80643  29.132   0.034  11.554
 8219W        W80644  21.954  11.648   0.954
 8220W        W80645   5.855  40.949  14.028
 8221W        W80646  21.713  44.795  13.008
 8222W        W80647   6.564  28.974  13.084
 8223W        W80648  37.562  30.931   1.682
 8224W        W80649  18.795  22.616   4.546
 8225W        W80650  22.742  39.427  14.405
 8226W        W80651  22.502  13.900   5.242
 8227W        W80652  32.986   7.845  10.436
 8228W        W80653  17.590  41.744   2.484
 8229W        W80654  11.605   3.217  14.562
 8230W        W80655   7.440  11.095  12.050
 8231W        W80656  29.412  17.580  12.415
 8232W        W80657   7.730  43.270   3.761
 8233W        W80658  14.222  23.243  10.691
 8234W        W80659  33.505  36.499   0.415
 8235W        W80660   1.205  23.210   1.837
 8236W        W80661  36.624  33.828   2.680
 8237W        W80662   8.839  23.083  11.605
 8238W        W80663   3.165  14.394   0.903
 8239W        W80664  10.131  14.571  10.470
 8240W        W80665  11.913   3.861  11.293
 8241W        W80666  17.815   4.716  12.952
 8242W        W80667  14.899  35.510   3.698
 8243W        W80668  38.102  20.553  12.635
 8244W        W80669  24.720   8.673   1.426
 8245W        W80670  10.196  16.005   4.535
 8246W        W80671  28.089   6.880  12.477
 8247W        W80672  33.248  11.126   4.723
 8248W        W80673  20.498  15.754   4.589
 8249W        W80674  18.853  16.927   1.949
 8250W        W80675   1.543   2.291  13.092
 8251W        W80676   6.193  10.544   0.867
 8252W        W80677   9.712  24.190  13.001
 8253W        W80678  12.224   4.434  12.358
 8254W        W80679  31.127  10.375   0.869
 8255W        W80680   6.218   7.975  14.800
 8256W        W80681  41.462  12.562   4.559
 8257W        W80682  41.192  41.431   3.961
 8258W        W80683  42.520  17.783   2.735
 8259W        W80684  10.174  24.856   1.880
 8260W        W80685  12.048  40.176  13.759
 8261W        W80686  37.892  31.262  12.996
 8262W        W80687   6.904  34.840  12.399
 8263W        W80688  25.213  12.813  11.566
 8264W        W80689  19.203   5.880   4.670
 8265W        W80690   9.694  29.484  13.877
 8266W        W80691  29.283  18.514  14.600
 8267W        W80692  18.731  17.546  12.624
 8268W        W80693  11.395  40.443  14.918
 8269W        W80694  11.668   4.233   0.442
 8270W        W80695  25.682  39.196  12.865
 8271W        W80696  27.099  39.597  14.893
 8272W        W80697  18.658   1.685  10.638
 8273W        W80698  23.117  32.920   4.120
 8274W        W80699  27.999   2.293   3.714
 8275W        W80700   2.388  42.733  11.145
 8276W        W80701   2.017   3.757   0.612
 8277W        W80702  15.746  23.620  12.656
 8278W        W80703  29.429  37.618   4.207
 8279W        W80704  10.141   2.026   1.276
 8280W        W80705  23.760  22.529  11.963
 8281W        W80706  24.140   4.158   1.888
 8282W        W80707  43.909   5.213  10.391
 8283W        W80708  27.809  23.110   5.010
 8284W        W80709  21.103  43.321  10.680
 8285W        W80710  33.334  30.898  12.179
 8286W        W80711  23.504  42.796  11.051
 8287W        W80712  44.446  27.583  10.037
 8288W        W80713  35.944  44.552   4.084
 8289W        W80714  32.398  33.413  13.856
 8290W        W80715   3.795  34.366  13.444
 8291W        W80716  32.061  42.988  13.868
 8292W        W80717  23.549  17.093   2.402
 8293W        W80718  29.829  33.547  11.682
 8294W        W80719   1.036  15.690  14.543
 8295W        W80720  37.809  27.647   3.180
 8296W        W80721  23.723  39.445   1.394
 8297W        W80722  33.303  30.354   1.305
 8298W        W80723   1.694  34.763   4.647
 8299W        W80724  14.333   5.536  14.096
 8300W        W80725  26.648  32.428  13.021
 8301W        W80726  31.520  12.809   3.675
 8302W        W80727  36.021  42.059  11.588
 8303W        W80728  37.009  11.684   4.029
 8304W        W80729  41.647   3.690  12.894
 8305W        W80730  34.675  42.457  11.570
 8306W        W80731  31.862  14.589  11.208
 8307W        W80732  25.523  30.065  10.351
 8308W        W80733  38.476   3.895  13.849
 8309W        W80734  11.397  44.810   2.917
 8310W        W80735  41.148   9.581  11.036
 8311W        W80736  30.199  40.518  11.032
 8312W        W80737  40.007   3.936  13.816
 8313W        W80738  30.658  23.731  12.077
 8314W        W80739  44.934  14.680  14.109
 8315W        W80740  30.175   7.782   1.499
 8316W        W80741   3.893  17.319   3.727
 8317W        W80742  24.867  16.367   1.322
 8318W        W80743  30.053  41.594   3.302
 8319W        W80744  41.494  42.260   2.753
 8320W        W80745  21.525  18.347  13.423
 8321W        W80746   5.798   3.745  10.586
 8322W        W80747  20.624   8.246   4.651
 8323W        W80748   3.680  35.059  12.987
 8324W        W80749  30.258  13.369   3.483
 8325W        W80750  21.192  38.836  10.422
 8326W        W80751  42.453  24.039  10.476
 8327W        W80752   2.668  20.591  14.337
 8328W        W80753  13.000  24.720   5.484
 8329W        W80754   7.415  17.428   1.203
 8330W        W80755  40.793   2.229  14.533
 8331W        W80756  30.693   3.150  12.105
 8332W        W80757  26.077  24.209  12.364
 8333W        W80758  18.609  23.941  11.960
 8334W        W80759   4.293   1.044  10.977
 8335W        W80760  22.012  32.947   0.921
 8336W        W80761  11.822  25.654  14.265
 8337W        W80762  21.964   6.475  12.220
 8338W        W80763  42.239  35.847  11.946
 8339W        W80764  32.962   2.893  11.354
 8340W        W80765  13.630   8.586  13.650
 8341W        W80766  17.892  18.466   4.164
 8342W        W80767   5.243  10.303  11.282
 8343W        W80768  39.488  12.419  12.172
 8344W        W80769  25.814  13.587  13.374
 8345W        W80770  23.103  42.001  12.914
 8346W        W80771  16.675  17.206   4.449
 8347W        W80772  40.461  12.525   4.458
 8348W        W80773  16.238  21.212  13.301
 8349W        W80774  39.598  41.482  13.915
 8350W        W80775  18.201  44.762  11.144
 8351W        W80776  40.749  32.836   0.539
 8352W        W80777  38.934  18.688   9.990
 8353W        W80778  25.167  26.043   2.767
 8354W        W80779  10.685  21.816   4.519
 8355W        W80780  38.791  15.549  11.248
 8356W        W80781  21.149  29.012  10.248
 8357W        W80782  15.734   6.209   4.705
 8358W        W80783   4.331  22.577  12.391
 8359W        W80784   9.024  39.871  11.767
 8360W        W80785  37.709   0.356  12.944
 8361W        W80786  11.291   8.962  11.895
 8362W        W80787  13.182  22.569   0.495
 8363W        W80788   0.355  41.868   2.492
 8364W        W80789   8.189   4.481   0.765
 8365W        W80790  42.000  29.321  14.056
 8366W        W80791  23.775  12.311  10.637
 8367W        W80792   3.218  22.756  12.884
 8368W        W80793  43.221  22.128  12.843
 8369W        W80794  25.548   4.237  14.899
 8370W        W80795   8.876  44.538   3.284
 8371W        W80796  23.943   0.789  13.569
 8372W        W80797   9.411  35.505   1.823
 8373W        W80798  34.904   6.889   2.712
 8374W        W80799  25.493  38.361   3.132
 8375W        W80800   4.251   1.972   2.255
 8376W        W80801  43.258  43.865   2.432
 8377W        W80802  24.049  35.631   0.347
 8378W        W80803  20.504  25.504  12.480
 8379W        W80804  22.245  12.797   9.901
 8380W        W80805  38.000  24.671  14.579
 8381W        W80806  42.834  10.373  11.530
 8382W        W80807   0.456  42.881  12.401
 8383W        W80808  43.432  22.577  12.634
 8384W        W80809  33.962  26.124  12.436
 8385W        W80810  27.207  43.947   1.326
 8386W        W80811  40.928  19.758  10.002
 8387W        W80812  39.174  18.883  13.464
 8388W        W80813  17.828  10.297   3.921
 8389W        W80814  16.303   8.864   4.156
 8390W        W80815  14.778  29.193   3.687
 8391W        W80816  10.554  35.082  12.997
 8392W        W80817  19.449  32.923   3.251
 8393W        W80818   7.615  16.116   0.839
 8394W        W80819  26.237   5.345   4.731
 8395W        W80820   4.382  12.526   0.503
 8396W        W80821  21.706  27.963  11.606
 8397W        W80822  31.643  42.290   1.102
 8398W        W80823  32.866  33.571   3.837
 8399W        W80824  24.901   0.199  14.941
 8400W        W80825   8.266  30.653  13.651
 8401W        W80826  12.035   5.916  12.992
 8402W        W80827   4.370  22.160   1.702
 8403W        W80828   0.770   3.966  11.593
 8404W        W80829   2.486  33.972  11.068
 8405W        W80830   7.470  37.841  14.025
 8406W        W80831  20.050  42.335  11.526
 8407W        W80832  14.167  20.258  10.686
 8408W        W80833  11.810  32.630  11.562
 8409W        W80834  15.636  42.492  11.428
 8410W        W80835   9.532   9.955  11.367
 8411W        W80836   3.373  18.377   0.811
 8412W        W80837   4.341  28.002   1.985
 8413W        W80838  36.649  40.838   2.547
 8414W        W80839  37.698  16.938   4.764
 8415W        W80840  24.879   2.314  12.646
 8416W        W80841  11.286  33.922   2.181
 8417W        W80842   5.251  21.472   1.722
 8418W        W80843  39.935  26.185  14.340
 8419W        W80844  26.196  34.525  14.036
 8420W        W80845  14.058  21.330  12.505
 8421W        W80846  32.806  35.283  13.957
 8422W        W80847  41.195   6.957   2.746
 8423W        W80848  40.068   7.483  12.964
 8424W        W80849  21.092  24.168   3.213
 8425W        W80850  21.050  30.442  12.098
 8426W        W80851  20.632  42.393   0.326
 8427W        W80852  27.133  41.791   3.097
 8428W        W80853  24.440  39.768   0.076
 8429W        W80854  14.199  28.160   2.859
 8430W        W80855  42.096  44.793   4.651
 8431W        W80856  30.603  19.143   2.779
 8432W        W80857  17.993  43.450   3.230
 8433W        W80858  31.425  28.303   1.448
 8434W        W80859  26.904  31.925   1.347
 8435W        W80860   8.875  33.504  11.873
 8436W        W80861  39.799  13.219  10.803
 8437W        W80862  20.563  43.000   4.933
 8438W        W80863  11.121  39.445   3.427
 8439W        W80864   2.759   6.596  14.487
 8440W        W80865  19.727   7.815   4.728
 8441W        W80866  36.082  40.192   4.093
 8442W        W80867  36.810  12.354   2.696
 8443W        W80868  30.674  37.884  14.755
 8444W        W80869  43.788   3.870   4.823
 8445W        W80870   2.598  31.568   2.417
 8446W        W80871   3.262  30.362   0.841
 8447W        W80872  38.437  14.253   1.499
 8448W        W80873   3.227  28.092  11.451
 8449W        W80874  27.820   8.150  14.734
 8450W        W80875  40.614  17.334   2.077
 8451W        W80876  16.315  34.017  12.082
 8452W        W80877  43.920  43.669  14.470
 8453W        W80878  10.361   5.547  12.581
 8454W        W80879  28.657  38.422   0.504
 8455W        W80880  42.033  37.063   2.717
 8456W        W80881  27.722  16.628  14.851
 8457W        W80882   9.592  15.300   2.350
 8458W        W80883   6.455  21.127   0.764
 8459W        W80884  20.734  41.329   1.342
 8460W        W80885  33.622  31.830  10.632
 8461W        W80886   2.188   1.380  12.614
 8462W        W80887  16.787  12.379  12.427
 8463W        W80888  20.703  21.604  11.414
 8464W        W80889  22.441  34.515   3.962
 8465W        W80890  13.093  23.502   1.386
 8466W        W80891   1.892   3.810   1.096
 8467W        W80892  24.668  30.081   0.349
 8468W        W80893   4.261  25.149  12.386
 8469W        W80894   6.403   0.863   3.708
 8470W        W80895  10.169  29.964   3.290
 8471W        W80896  38.067  43.977  13.476
 8472W        W80897  20.269  39.093   0.281
 8473W        W80898  15.316  10.234   1.754
 8474W        W80899   9.201  21.829  13.865
 8475W        W80900  18.587  38.471   4.582
 8476W        W80901   2.660  32.583  14.338
 8477W        W80902  17.690  29.432   4.630
 8478W        W80903  44.754  30.104   3.924
 8479W        W80904  41.880  39.085   0.883
 8480W        W80905  26.935   6.737   1.793
 8481W        W80906  44.570  14.646  14.821
 8482W        W80907  20.233  15.879   2.812
 8483W        W80908  19.960  16.651  13.925
 8484W        W80909  16.924   7.118  13.684
 8485W        W80910  41.067  19.238  10.620
 8486W        W80911   3.418  33.126   2.827
 8487W        W80912   2.168  20.063  13.808
 8488W        W80913   5.276  37.258   0.475
 8489W        W80914   8.237  16.582   3.158
 8490W        W80915  24.780  18.620  14.948
 8491W        W80916  32.484  10.630  14.378
 8492W        W80917  32.611  36.387   0.284
 8493W        W80918   9.648   1.542   1.838
 8494W        W80919  28.624  18.789   0.850
 8495W        W80920  32.696  29.443  12.675
 8496W        W80921  34.924  29.673  11.322
 8497W        W80922   9.462   2.295   0.730
 8498W        W80923  29.949  15.882   3.599
 8499W        W80924  18.185  36.515   3.858
 8500W        W80925  25.555  18.138   0.706
 8501W        W80926  34.935  30.012   0.340
 8502W        W80927   8.946   5.836  13.509
 8503W        W80928  41.044   7.811   1.873
 8504W        W80929  35.326  23.290   3.013
 8505W        W80930  21.281  15.877   3.279
 8506W        W80931  31.660   4.508   1.253
 8507W        W80932  34.083  29.173  12.559
 8508W        W80933   0.295  33.909  11.889
 8509W        W80934   8.550   8.309   1.340
 8510W        W80935   1.802  41.452   0.960
 8511W        W80936  10.140  24.556  12.012
 8512W        W80937  10.362  26.533  14.879
 8513W        W80938  33.636   9.916  12.507
 8514W        W80939   9.724  32.618   2.596
 8515W        W80940  20.177  30.937   4.621
 8516W        W80941  34.611  27.944   0.278
 8517W        W80942  11.149  29.919  12.918
 8518W        W80943  30.217  31.598  12.565
 8519W        W80944  24.677   5.765   0.328
 8520W        W80945  27.579  14.025   0.811
 8521W        W80946  41.737  29.527   1.377
 8522W        W80947   5.877  10.946   1.849
 8523W        W80948   8.961  36.962  13.551
 8524W        W80949  36.101  33.408   1.809
 8525W        W80950   9.840   3.479  10.521
 8526W        W80951  26.204  27.918  12.380
 8527W        W80952   3.767   3.592   1.941
 8528W        W80953  41.017  16.177  10.680
 8529W        W80954   0.653  35.034   1.721
 8530W        W80955  18.336  40.944  14.919
 8531W        W80956   6.893  39.935   4.049
 8532W        W80957  17.716  26.561   1.027
 8533W        W80958  23.588   3.950  12.637
 8534W        W80959  34.550  25.648   4.450
 8535W        W80960  29.514  14.741  12.555
 8536W        W80961   5.166   7.608   0.487
 8537W        W80962   5.179  25.038   3.850
 8538W        W80963   6.154   6.278  10.758
 8539W        W80964  28.996  40.953  10.038
 8540W        W80965  41.309   9.997   0.776
 8541W        W80966  24.935  29.966   1.130
 8542W        W80967  26.538  23.559   1.676
 8543W        W80968   7.216  32.324  12.221
 8544W        W80969   4.669   2.974   1.949
 8545W        W80970   7.906  15.252   1.965
 8546W        W80971   0.483  20.945  12.403
 8547W        W80972  42.809  33.877   0.286
 8548W        W80973  14.387  31.388   2.897
 8549W        W80974   7.602  23.951  12.489
 8550W        W80975  14.503   1.659   4.628
 8551W        W80976  26.520  20.099   1.230
 8552W        W80977  44.367  29.909   3.637
 8553W        W80978  11.231   8.716  10.661
 8554W        W80979  28.019   3.167   0.321
 8555W        W80980  39.570  10.316  14.066
 8556W        W80981  43.614  31.990  13.948
 8557W        W80982   8.269  30.710  14.987
 8558W        W80983  12.784  44.302   2.336
 8559W        W80984  42.404  25.027  13.158
 8560W        W80985   0.412  21.650  11.626
 8561W        W80986  36.889  40.529  12.584
 8562W        W80987  19.094  21.941  11.040
 8563W        W80988  26.069  34.868  11.060
 8564W        W80989  31.125   1.366   1.258
 8565W        W80990  20.568  11.351   0.297
 8566W        W80991   7.225  12.671   2.204
 8567W        W80992  25.452   7.840   2.758
 8568W        W80993  23.699  44.353   0.201
 8569W        W80994  44.535  41.510  10.717
 8570W        W80995   4.894  38.897   0.837
 8571W        W80996  16.333   9.672   4.726
 8572W        W80997  17.648  33.636   4.152
 8573W        W80998  33.665  36.096   1.867
 8574W        W80999  27.638  29.426   4.153
 8575W        W81000  30.534  37.410   1.100
 8576W        W81001   7.275   6.921   2.251
 8577W        W81002  26.029   1.461  11.949
 8578W        W81003  39.526   8.330   2.383
 8579W        W81004  15.859  12.542  13.874
 8580W        W81005  22.757   2.500  13.071
 8581W        W81006  27.106   7.994  12.627
 8582W        W81007  44.393  30.888  10.595
 8583W        W81008  33.012  41.496  10.974
 8584W        W81009  22.161  41.462  12.974
 8585W        W81010   4.519   3.777   3.865
 8586W        W81011   9.835  25.192   1.689
 8587W        W81012  13.253   3.369   0.246
 8588W        W81013   9.807   9.259   3.317
 8589W        W81014  15.258  23.572  12.537
 8590W        W81015  20.646  40.952   1.719
 8591W        W81016  18.081  22.442   0.827
 8592W        W81017  41.386  21.683   1.871
 8593W        W81018  17.730  34.321  12.872
 8594W        W81019  29.946  44.443  11.691
 8595W        W81020  11.363  38.265  11.583
 8596W        W81021  25.468  12.326  13.669
 8597W        W81022  17.619  33.136  10.317
 8598W        W81023  27.364  15.294  12.400
 8599W        W81024  20.523   5.792   1.484
 8600W        W81025   2.176  34.393  11.171
 8601W        W81026  32.255  24.671  14.353
 8602W        W81027  20.776  18.007   4.248
 8603W        W81028  38.234  18.004   3.549
 8604W        W81029  32.602  24.727   0.180
 8605W        W81030  44.686   0.358  13.620
 8606W        W81031   7.999  24.385   0.447
 8607W        W81032   8.415  28.960  13.826
 8608W        W81033  20.020  16.746   0.721
 8609W        W81034  42.302  20.566  11.885
 8610W        W81035  19.312  28.045   4.482
 8611W        W81036   9.738  39.882  10.702
 8612W        W81037  19.256  25.633   3.698
 8613W        W81038   7.668  28.755  12.993
 8614W        W81039  44.605  21.057  11.901
 8615W        W81040  44.978  13.506   3.156
 8616W        W81041  16.311   1.591   2.479
 8617W        W81042  24.341   3.500   5.058
 8618W        W81043  42.582  41.553   4.181
 8619W        W81044  34.707  21.608   4.043
 8620W        W81045  26.769  41.907   2.168
 8621W        W81046  18.947  24.562  11.180
 8622W        W81047   1.999  44.904  10.753
 8623W        W81048  43.896  17.750  10.523
 8624W        W81049  35.931  22.014   3.742
 8625W        W81050   7.830  30.646   5.042
 8626W        W81051  12.551  27.662  13.838
 8627W        W81052   5.846  14.403   3.094
 8628W        W81053  15.176  25.510  13.330
 8629W        W81054  17.564   1.287  13.462
 8630W        W81055   8.627   1.208  14.428
 8631W        W81056  11.455  35.087  11.968
 8632W        W81057  16.216  14.318   4.631
 8633W        W81058   5.706  23.587  14.706
 8634W        W81059  38.799  17.772  13.988
 8635W        W81060  40.853  32.920  13.604
 8636W        W81061  18.045  11.655   2.792
 8637W        W81062  29.259  26.194   4.536
 8638W        W81063  25.725  15.033   0.378
 8639W        W81064  29.580  33.540   0.429
 8640W        W81065  26.850  44.082   2.270
 8641W        W81066  29.099   3.753   3.677
 8642W        W81067  17.144   0.880  14.450
 8643W        W81068  41.289  31.733  12.812
 8644W        W81069   3.658  15.632   3.708
 8645W        W81070  38.475   0.512   2.821
 8646W        W81071  16.417  28.935   1.198
 8647W        W81072  32.325  37.407   1.776
 8648W        W81073   0.247  11.580   4.208
 8649W        W81074  36.202   0.762   3.783
 8650W        W81075  33.196   4.837   0.349
 8651W        W81076  18.774  11.801  14.822
 8652W        W81077  22.593  12.467  12.036
 8653W        W81078  36.147   6.771  11.573
 8654W        W81079  10.272  44.473   3.475
 8655W        W81080  31.798  38.943   0.999
 8656W        W81081  43.514  25.221  12.553
 8657W        W81082  37.620  31.953   3.692
 8658W        W81083   4.180  41.881   3.245
 8659W        W81084  14.123  26.317  13.528
 8660W        W81085   4.209  27.043   3.821
 8661W        W81086  37.751  10.900   3.249
 8662W        W81087  42.066  37.486   1.764
 8663W        W81088  35.731  17.037   1.080
 8664W        W81089  29.195  43.997   2.712
 8665W        W81090  22.146  21.738   3.713
 8666W        W81091   9.714  31.475   1.722
 8667W        W81092  30.553  13.800   3.357
 8668W        W81093  28.504  13.843   4.495
 8669W        W81094   9.566  18.283   3.592
 8670W        W81095  12.292  29.657  13.493
 8671W        W81096   5.691  17.502   3.333
 8672W        W81097  25.631  35.700  14.313
 8673W        W81098  33.097   2.876   4.627
 8674W        W81099   1.398  13.065   2.320
 8675W        W81100  39.798  15.019   1.440
 8676W        W81101  30.659  40.950   1.913
 8677W        W81102  15.559  33.073   4.657
 8678W        W81103   8.909  19.107   3.864
 8679W        W81104  30.076  25.935  13.997
 8680W        W81105   2.174  11.243  14.501
 8681W        W81106  38.585  17.251   2.222
 8682W        W81107  38.030   3.736   1.680
 8683W        W81108   2.217  25.690   0.825
 8684W        W81109  35.148  26.847   1.147
 8685W        W81110  35.408  27.818  12.602
 8686W        W81111  34.055  44.440  12.933
 8687W        W81112  40.529   8.746  11.053
 8688W        W81113  39.552  23.354   0.727
 8689W        W81114   3.306  40.759  10.746
 8690W        W81115  31.945  22.488   0.184
 8691W        W81116  21.758   9.647   4.066
 8692W        W81117  27.743   8.863  11.497
 8693W        W81118  14.134  31.185   1.186
 8694W        W81119  39.360   4.797  12.174
 8695W        W81120  10.044  19.997   0.450
 8696W        W81121  29.956  27.868  12.942
 8697W        W81122   1.871  22.052  11.590
 8698W        W81123  34.817  13.154   3.734
 8699W        W81124  19.130   5.453   4.094
 8700W        W81125  37.808  30.961   3.715
 8701W        W81126  26.113   8.636   1.728
 8702W        W81127  36.343  29.642   2.701
 8703W        W81128  41.771  43.818   4.877
 8704W        W81129   2.624  34.904   0.715
 8705W        W81130  30.351  31.091   3.189
 8706W        W81131  13.629  30.406   4.656
 8707W        W81132  11.095  42.404  10.817
 8708W        W81133  42.095   5.572   3.908
 8709W        W81134  35.639   0.519   1.338
 8710W        W81135  43.514  30.455  11.135
 8711W        W81136  29.994  38.713  11.993
 8712W        W81137  21.567  22.888   1.930
 8713W        W81138  43.299  29.994  13.357
 8714W        W81139  34.779  17.800  12.049
 8715W        W81140  33.106  32.396  12.454
 8716W        W81141   3.715  16.223   3.267
 8717W        W81142  26.664  34.119  12.473
 8718W        W81143  16.038   9.476   1.663
 8719W        W81144   3.618  34.664  11.485
 8720W        W81145  27.195  12.681  14.056
 8721W        W81146  40.285  30.142  14.788
 8722W        W81147   2.301  27.194  11.888
 8723W        W81148  22.566  27.459   2.652
 8724W        W81149   5.294   7.035   4.823
 8725W        W81150   1.831   9.614  12.915
 8726W        W81151  33.572   8.369   1.278
 8727W        W81152  26.607  18.066   4.385
 8728W        W81153  11.220   0.340  14.542
 8729W        W81154  23.008  20.847  11.708
 8730W        W81155  20.113  13.837   2.185
 8731W        W81156  20.593   4.654   3.967
 8732W        W81157  19.796   3.419   0.061
 8733W        W81158  39.919  24.287  13.361
 8734W        W81159  10.890  14.682   1.828
 8735W        W81160  20.251  10.252  14.050
 8736W        W81161   8.211  15.407   3.898
 8737W        W81162  38.863  33.666   2.265
 8738W        W81163  41.019   1.380  13.963
 8739W        W81164   2.903  39.282   0.342
 8740W        W81165  25.068  10.684  14.353
 8741W        W81166  23.592   9.276  14.465
 8742W        W81167  30.038  36.576  13.518
 8743W        W81168  29.070  41.678   2.886
 8744W        W81169  27.857  33.831  11.034
 8745W        W81170  18.217  18.986   4.185
 8746W        W81171  33.083  43.790   4.629
 8747W        W81172  22.226  13.138  14.805
 8748W        W81173  25.274  32.104  10.297
 8749W        W81174  21.405  35.609  11.269
 8750W        W81175  26.072  43.503   1.252
 8751W        W81176  43.548  39.170  14.718
 8752W        W81177  35.696  34.917  11.349
 8753W        W81178  30.540  37.831   1.420
 8754W        W81179  20.721  15.808  12.929
 8755W        W81180   4.250  34.142  12.413
 8756W        W81181  29.668  19.480   1.298
 8757W        W81182  21.412  17.198   3.102
 8758W        W81183  27.638  20.228   1.913
 8759W        W81184  20.679   4.780  10.495
 8760W        W81185  25.592  32.495  12.626
 8761W        W81186  30.589  21.352  13.862
 8762W        W81187  28.663   3.915   4.275
 8763W        W81188  28.951  19.145  12.383
 8764W        W81189   4.723  25.907  12.680
 8765W        W81190   6.028   1.102   3.365
 8766W        W81191  30.646  38.648  12.389
 8767W        W81192  29.230  43.918  14.440
 8768W        W81193  41.010  44.998  12.483
 8769W        W81194  16.724  40.545  13.541
 8770W        W81195  44.831  17.052   3.932
 8771W        W81196  20.111  16.705   5.051
 8772W        W81197  36.960  41.399   0.740
 8773W        W81198  11.607   9.859  11.082
 8774W        W81199  28.271  16.032   2.826
 8775W        W81200  43.073  26.088   4.162
 8776W        W81201  23.553  15.794   1.450
 8777W        W81202  32.984  39.465   0.864
 8778W        W81203   2.544  19.531   4.136
 8779W        W81204  39.588  27.986   1.308
 8780W        W81205  11.923  13.222  12.526
 8781W        W81206   0.966  40.545   0.326
 8782W        W81207  29.694  28.741   3.682
 8783W        W81208  35.278  35.556   2.398
 8784W        W81209  18.324  39.246   0.434
 8785W        W81210  14.411   9.624  13.338
 8786W        W81211   9.249  23.834  11.060
 8787W        W81212  26.081   1.312  10.979
 8788W        W81213  39.821  28.088  10.696
 8789W        W81214  19.748  19.656  10.362
 8790W        W81215  32.030  35.191   1.577
 8791W        W81216   0.951  41.420   3.647
 8792W        W81217  44.546  35.360   2.225
 8793W        W81218  28.429  21.224   3.619
 8794W        W81219  44.457  30.512  11.529
 8795W        W81220  26.072  31.044   4.711
 8796W        W81221  22.733  40.376  12.054
 8797W        W81222  40.114  33.961  14.487
 8798W        W81223  31.646   7.054   3.741
 8799W        W81224  37.457   9.864  12.161
 8800W        W81225   6.347  23.561   1.842
 8801W        W81226   5.281  32.103  10.649
 8802W        W81227   6.830  42.467   0.299
 8803W        W81228  38.672   9.892  13.488
 8804W        W81229  37.564  28.364   1.795
 8805W        W81230  24.565   3.961  14.445
 8806W        W81231   1.236   8.528   4.260
 8807W        W81232  35.419  30.199   2.167
 8808W        W81233  38.633   2.424  14.916
 8809W        W81234  16.330  10.518   1.803
 8810W        W81235   2.064  39.747  13.530
 8811W        W81236   0.287   7.216   3.612
 8812W        W81237  34.578   6.439  14.499
 8813W        W81238   6.855  33.440   4.495
 8814W        W81239  18.171  26.425   1.304
 8815W        W81240   5.715  27.499  11.495
 8816W        W81241  22.745  27.209   1.303
 8817W        W81242  14.147   7.115   2.277
 8818W        W81243  34.478  43.480  11.173
 8819W        W81244  25.568  27.547  13.941
 8820W        W81245  41.512  24.983  10.642
 8821W        W81246  23.677   4.288  10.347
 8822W        W81247  19.399  31.189  13.784
 8823W        W81248   8.068  40.785  13.170
 8824W        W81249  18.304  41.037   1.735
 8825W        W81250   1.268  22.110   1.742
 8826W        W81251  12.443  20.048   0.813
 8827W        W81252  41.493   1.481   2.896
 8828W        W81253  31.937  35.647  13.143
 8829W        W81254  13.515  21.077  13.370
 8830W        W81255   7.842   2.476   2.330
 8831W        W81256  14.453  11.877   4.692
 8832W        W81257  37.794   3.772  13.033
 8833W        W81258   0.552  18.092  12.892
 8834W        W81259   7.440  35.804  11.209
 8835W        W81260  26.305  10.607   3.521
 8836W        W81261  22.286  41.701   0.291
 8837W        W81262  28.084  19.723   2.417
 8838W        W81263  19.801  29.464  13.837
 8839W        W81264  41.984  43.025  10.641
 8840W        W81265  10.188  44.872  14.617
 8841W        W81266  29.011  40.967   9.525
 8842W        W81267  36.174  19.338  10.688
 8843W        W81268  21.583  16.747  13.599
 8844W        W81269  13.746   8.717  12.686
 8845W        W81270  34.541  29.020  14.367
 8846W        W81271  39.602   4.207   4.067
 8847W        W81272   1.012  42.040  14.332
 8848W        W81273   2.363  41.031   0.435
 8849W        W81274  44.126   9.641  10.227
 8850W        W81275   9.681   8.379   0.032
 8851W        W81276  30.673  30.375  13.007
 8852W        W81277  24.988   5.845  14.768
 8853W        W81278   2.430  24.885   0.724
 8854W        W81279  22.050   9.300   0.147
 8855W        W81280  20.303  20.553  12.037
 8856W        W81281  27.901  42.101  13.439
 8857W        W81282  39.017  32.351  12.999
 8858W        W81283  19.732  24.125  10.427
 8859W        W81284  25.042  18.605  14.474
 8860W        W81285  40.563  40.479  13.038
 8861W        W81286  26.511  40.536  14.781
 8862W        W81287  17.063  18.584  13.223
 8863W        W81288  37.368   9.606  11.218
 8864W        W81289  17.720   5.680   0.874
 8865W        W81290  31.632  36.470   2.282
 8866W        W81291   8.081  10.314   4.642
 8867W        W81292   3.229   1.868   2.957
 8868W        W81293  23.040  20.182   1.377
 8869W        W81294  24.173  28.713  12.897
 8870W        W81295   7.741  41.050   3.106
 8871W        W81296  14.792  23.515  14.215
 8872W        W81297   6.469  26.988   0.170
 8873W        W81298  26.596  37.176   0.245
 8874W        W81299  32.169  44.295   9.857
 8875W        W81300   6.005  20.910   2.227
 8876W        W81301  28.414  20.191  11.954
 8877W        W81302   8.749  29.748   0.783
 8878W        W81303  13.131  25.620  13.469
 8879W        W81304   3.716  36.555   0.013
 8880W        W81305   1.935  13.990  12.626
 8881W        W81306  11.331  17.035  13.925
 8882W        W81307  33.545  15.019  11.450
 8883W        W81308  11.352  13.403  14.346
 8884W        W81309  15.175  40.480  12.025
 8885W        W81310  33.995  15.032   0.713
 8886W        W81311  42.218  25.261  11.093
 8887W        W81312   8.457  10.515  13.744
 8888W        W81313  24.777  39.968  10.644
 8889W        W81314  19.584  40.967  13.195
 8890W        W81315  41.281  32.643   2.712
 8891W        W81316  14.276  33.516   4.795
 8892W        W81317   4.973  24.019  11.660
 8893W        W81318  34.975  10.273  10.617
 8894W        W81319  16.644  26.977   0.198
 8895W        W81320  36.288   1.587   0.951
 8896W        W81321  14.138  10.727  10.719
 8897W        W81322  10.236  41.570  11.088
 8898W        W81323  27.231  34.310   0.201
 8899W        W81324  10.414  27.892   4.269
 8900W        W81325  22.090  18.530   3.257
 8901W        W81326   6.194  39.919  12.544
 8902W        W81327  28.554   8.148   0.462
 8903W        W81328  41.770  14.633  14.528
 8904W        W81329  20.254  21.041   5.007
 8905W        W81330   4.577  18.790  11.143
 8906W        W81331   4.691  26.040  11.476
 8907W        W81332  14.242  12.266  10.515
 8908W        W81333  19.299  43.345  12.467
 8909W        W81334  13.780  33.506   4.657
 8910W        W81335  22.621  31.187  10.734
 8911W        W81336  32.392  11.854   1.795
 8912W        W81337  24.188   6.734   3.764
 8913W        W81338  30.480  39.419  10.795
 8914W        W81339   1.953  27.249  13.014
 8915W        W81340  13.178   5.846  12.554
 8916W        W81341  18.783  27.903  12.435
 8917W        W81342  31.037  19.662   4.602
 8918W        W81343  38.175  23.464  13.084
 8919W        W81344  28.100  13.340  12.178
 8920W        W81345  22.540  37.433  14.362
 8921W        W81346  20.719  32.621  14.836
 8922W        W81347  22.737  12.670  11.590
 8923W        W81348  43.978   8.724  12.003
 8924W        W81349  21.279  33.799   4.995
 8925W        W81350  32.796   0.281  11.298
 8926W        W81351  31.482  15.190  14.892
 8927W        W81352  30.836  38.068  12.048
 8928W        W81353  33.250  32.146   3.664
 8929W        W81354  28.128  31.467   1.720
 8930W        W81355  27.623   4.001   1.605
 8931W        W81356  28.707   5.163  14.986
 8932W        W81357  17.988  31.664   3.709
 8933W        W81358  31.068   7.726   4.678
 8934W        W81359  10.080  34.400   0.851
 8935W        W81360   3.901   2.002  11.721
 8936W        W81361  26.890  24.757   2.467
 8937W        W81362  18.752   5.156   0.633
 8938W        W81363  35.182   0.244   0.709
 8939W        W81364  19.235   7.897   1.270
 8940W        W81365  23.280  10.627  12.119
 8941W        W81366  11.735  20.955   0.846
 8942W        W81367   6.722   3.461  13.769
 8943W        W81368  28.566  17.989  14.015
 8944W        W81369  42.757  25.506   1.316
 8945W        W81370  28.582  44.626   4.086
 8946W        W81371  24.210  13.280   4.541
 8947W        W81372  22.528   5.364   1.098
 8948W        W81373  29.185  25.762   4.235
 8949W        W81374  42.570  14.211  12.612
 8950W        W81375   4.688  13.346   1.171
 8951W        W81376   1.329  27.372   1.875
 8952W        W81377  18.299  16.304   4.256
 8953W        W81378  12.362  17.218  11.920
 8954W        W81379   1.932   1.250  10.997
 8955W        W81380   1.417  35.436  13.481
 8956W        W81381  44.512  18.690   0.377
 8957W        W81382  27.931  24.252  14.283
 8958W        W81383  35.709  34.613   2.220
 8959W        W81384  22.144  10.308  12.442
 8960W        W81385  20.689   8.868   3.793
 8961W        W81386   9.581  15.195  14.201
 8962W        W81387  14.929   8.688  12.134
 8963W        W81388  27.783  44.809  10.699
 8964W        W81389  16.654  29.110  14.417
 8965W        W81390  38.828   0.765  10.653
 8966W        W81391  22.782  21.188  11.393
 8967W        W81392  11.555  25.093   2.002
 8968W        W81393   5.915  14.187  12.585
 8969W        W81394  18.101   2.802  14.842
 8970W        W81395  36.099  12.810   2.826
 8971W        W81396   6.138  16.672  13.227
 8972W        W81397   4.302   1.321  13.337
 8973W        W81398  40.087  12.791   0.381
 8974W        W81399  17.619  42.823   0.659
 8975W        W81400  28.097   1.805   0.616
 8976W        W81401   1.998  41.675  11.056
 8977W        W81402  17.831   8.661   4.855
 8978W        W81403  11.517  30.558  13.058
 8979W        W81404  28.711  20.091   4.173
 8980W        W81405   9.848  22.167   4.806
 8981W        W81406  25.388  32.114  13.953
 8982W        W81407  10.194   9.150   0.982
 8983W        W81408  35.052  40.853   4.375
 8984W        W81409   2.453  43.671  14.124
 8985W        W81410  28.382  29.063   0.965
 8986W        W81411  41.531  23.645  10.563
 8987W        W81412   2.039  25.941  12.255
 8988W        W81413  26.897   2.835   3.260
 8989W        W81414  13.620   5.008  14.364
 8990W        W81415  41.124  21.509  13.435
 8991W        W81416  26.019  38.799   2.722
 8992W        W81417  31.178  30.542  11.591
 8993W        W81418  22.595   5.944  13.156
 8994W        W81419  31.001  40.341   3.707
 8995W        W81420  36.147  39.543  12.521
 8996W        W81421  23.547  24.263   0.256
 8997W        W81422  28.463  32.521   1.504
 8998W        W81423  24.544  27.640  12.947
 8999W        W81424  29.360  33.967  11.161
 9000W        W81425  37.197  27.069   0.867
 9001W        W81426  28.360  35.362  13.207
 9002W        W81427  41.074  39.364   4.753
 9003W        W81428  39.293  32.456  13.793
 9004W        W81429  14.163  28.547  13.760
 9005W        W81430  15.268  11.572   3.296
 9006W        W81431   8.285   4.156  13.509
 9007W        W81432  34.003  15.085  14.730
 9008W        W81433  36.755  10.713   4.777
 9009W        W81434  33.034   1.956  10.540
 9010W        W81435  31.372  12.278  11.067
 9011W        W81436  22.098  23.615   0.154
 9012W        W81437   0.170  11.759  13.208
 9013W        W81438  28.638  27.249  12.658
 9014W        W81439  17.218  16.049  13.446
 9015W        W81440  33.883  32.985  12.052
 9016W        W81441  35.069   2.115   5.348
 9017W        W81442  12.966  12.880   0.967
 9018W        W81443  39.515  16.080   0.926
 9019W        W81444  10.811  30.498   2.764
 9020W        W81445   9.768  44.246   3.601
 9021W        W81446  37.063  24.985  14.802
 9022W        W81447  32.676  25.974  14.499
 9023W        W81448  28.642  25.632   4.218
 9024W        W81449  38.976   8.622  12.577
 9025W        W81450   3.678   4.122   0.678
 9026W        W81451  13.379  38.790  14.319
 9027W        W81452  39.665  41.663  14.743
 9028W        W81453   9.079  19.651  13.769
 9029W        W81454  14.619   2.982  11.993
 9030W        W81455  26.745  18.946  11.496
 9031W        W81456   8.907  16.094   1.298
 9032W        W81457  10.909  16.807   3.603
 9033W        W81458   8.178  21.077  12.014
 9034W        W81459  30.846  33.691  11.458
 9035W        W81460  21.978  24.227   2.308
 9036W        W81461  16.332  43.683  14.950
 9037W        W81462   9.849  24.669  14.389
 9038W        W81463   5.878  23.660  13.377
 9039W        W81464  42.009  42.777   4.867
 9040W        W81465   5.167  17.337   0.793
 9041W        W81466  21.047  16.659  13.881
 9042W        W81467   1.479  33.062   4.190
 9043W        W81468  27.155   7.833  13.117
 9044W        W81469   8.077  20.139  11.123
 9045W        W81470  27.387  16.892   4.370
 9046W        W81471  24.750  41.293   4.384
 9047W        W81472  12.335   3.860   3.305
 9048W        W81473  33.981  31.035  10.668
 9049W        W81474  21.506  36.866  14.986
 9050W        W81475   3.322  10.200   1.457
 9051W        W81476  26.313  28.951  14.157
 9052W        W81477  30.931  41.842  10.509
 9053W        W81478   1.970  39.103   4.488
 9054W        W81479  10.807  44.527   4.442
 9055W        W81480  29.227   0.256   1.049
 9056W        W81481  14.587  24.998   9.992
 9057W        W81482   5.894  31.519  11.060
 9058W        W81483  25.219   8.985   3.294
 9059W        W81484   0.768  44.915  14.784
 9060W        W81485  26.042  28.708   1.938
 9061W        W81486  36.536   3.672  12.621
 9062W        W81487  24.306  31.149   4.237
 9063W        W81488  16.054  19.064  10.888
 9064W        W81489  29.105  42.447  14.272
 9065W        W81490  21.733  16.810   1.754
 9066W        W81491  29.592   4.222  12.061
 9067W        W81492  13.572   6.122  12.419
 9068W        W81493   1.283  33.843   4.787
 9069W        W81494  15.338   6.266  13.445
 9070W        W81495  19.323  17.486   0.916
 9071W        W81496  28.025  11.884   3.665
 9072W        W81497  37.426  37.555   0.296
 9073W        W81498  44.516   5.092   0.764
 9074W        W81499  31.871  15.228   3.296
 9075W        W81500  18.081  32.178   0.534
 9076W        W81501   4.741   1.706   1.064
 9077W        W81502   7.420  43.860   2.727
 9078W        W81503  28.153  11.179   1.678
 9079W        W81504  25.379  15.397  12.926
 9080W        W81505  25.564  14.525  14.961
 9081W        W81506   6.840  25.794   4.883
 9082W        W81507   3.755  30.076   0.238
 9083W        W81508   9.784  20.064   4.729
 9084W        W81509   6.888  29.648  14.928
 9085W        W81510  21.384  39.760  12.156
 9086W        W81511  34.441   9.244   3.529
 9087W        W81512   6.121  17.923  10.371
 9088W        W81513  33.389  44.151  10.744
 9089W        W81514  39.567  38.337   2.122
 9090W        W81515   3.691  19.073  14.576
 9091W        W81516  28.085  19.103  12.284
 9092W        W81517  30.204   8.068   3.949
 9093W        W81518  22.651   2.622  14.438
 9094W        W81519  44.030  14.344   0.652
 9095W        W81520  18.063  32.051  12.872
 9096W        W81521  42.762   4.736  10.628
 9097W        W81522  43.781  32.907   2.299
 9098W        W81523  18.931  31.619  12.072
 9099W        W81524  43.483   8.210   3.169
 9100W        W81525  21.618  40.818   0.184
 9101W        W81526  35.438  42.536   0.349
 9102W        W81527  41.299   7.354  11.682
 9103W        W81528  18.813  21.509  11.861
 9104W        W81529  42.417  24.537   1.840
 9105W        W81530  21.017  18.776   4.659
 9106W        W81531   7.223  16.465  13.979
 9107W        W81532  33.633  17.604   1.044
 9108W        W81533   4.467   1.116  14.764
 9109W        W81534  27.930   7.332  12.842
 9110W        W81535  18.646  37.514  12.580
 9111W        W81536  39.330  35.316  14.356
 9112W        W81537  24.444   7.961   2.699
 9113W        W81538  26.651  30.079   2.279
 9114W        W81539  14.640  27.990  10.712
 9115W        W81540   3.345  38.915   5.116
 9116W        W81541  30.016  32.355  13.139
 9117W        W81542  20.686  22.560   2.307
 9118W        W81543  37.951   7.704   2.367
 9119W        W81544   5.922  28.632  10.855
 9120W        W81545  19.932   3.845  12.495
 9121W        W81546   5.166   5.513  12.880
 9122W        W81547  41.271  12.932   1.769
 9123W        W81548  43.328  17.071   4.638
 9124W        W81549  36.867  15.249   3.931
 9125W        W81550  40.856  44.924   4.637
 9126W        W81551  30.909  22.072  12.873
 9127W        W81552  43.352  16.162   0.418
 9128W        W81553  23.070  23.437  13.854
 9129W        W81554  16.647  30.588  11.967
 9130W        W81555  38.818  36.205   2.609
 9131W        W81556   7.205   1.208  14.994
 9132W        W81557  39.855  37.753  14.819
 9133W        W81558  19.226   4.062   0.307
 9134W        W81559  38.029  26.074   3.372
 9135W        W81560  13.167  11.878   2.712
 9136W        W81561   1.480   4.353   3.674
 9137W        W81562   0.021  34.069   1.842
 9138W        W81563  25.490  10.545  11.600
 9139W        W81564   8.266   8.230   2.660
 9140W        W81565   7.896  17.112   0.493
 9141W        W81566  31.917  27.563  13.930
 9142W        W81567  38.096  12.894  12.046
 9143W        W81568  38.102  21.515  14.362
 9144W        W81569  37.066   8.853  12.338
 9145W        W81570  21.255  41.536  14.038
 9146W        W81571  29.532  43.173  11.336
 9147W        W81572   7.220   4.620   2.909
 9148W        W81573   4.814  13.234   4.369
 9149W        W81574  44.410  41.399   4.143
 9150W        W81575  32.022  28.477  11.466
 9151W        W81576  27.111  34.045   2.941
 9152W        W81577  15.160  34.083  12.667
 9153W        W81578  12.208  12.257  10.762
 9154W        W81579  27.825  27.662  13.092
 9155W        W81580  30.626  18.372   4.684
 9156W        W81581  26.439  12.088   2.335
 9157W        W81582  22.763  30.066   0.537
 9158W        W81583   7.656  35.512   2.320
 9159W        W81584  33.527  41.275   4.057
 9160W        W81585  42.169   6.977  13.769
 9161W        W81586  43.043   0.778   1.700
 9162W        W81587  22.751   4.354  10.232
 9163W        W81588  14.210  23.145  12.410
 9164W        W81589  20.343  30.851  11.957
 9165W        W81590  18.262  12.783  13.479
 9166W        W81591  22.116  11.910  10.657
 9167W        W81592  27.564  43.591   3.766
 9168W        W81593  18.002  35.461   2.849
 9169W        W81594  39.012   0.040   3.625
 9170W        W81595  32.893  10.190  11.196
 9171W        W81596   6.124  17.082  13.595
 9172W        W81597  28.022  28.198  12.466
 9173W        W81598  35.348   4.163  13.996
 9174W        W81599  36.634  37.925   3.299
 9175W        W81600  41.966  32.690  12.546
 9176W        W81601  20.784  14.710  11.634
 9177W        W81602   4.688  43.858   1.871
 9178W        W81603  35.546  24.608   0.290
 9179W        W81604  31.796  27.085  14.682
 9180W        W81605  25.196  16.620   4.214
 9181W        W81606  23.749  13.120   1.444
 9182W        W81607  21.607  40.851   3.265
 9183W        W81608  22.548  18.068  10.571
 9184W        W81609  22.366  24.360  11.684
 9185W        W81610   3.416  20.161  14.540
 9186W        W81611  11.638  26.243  12.334
 9187W        W81612  30.063  15.574  14.882
 9188W        W81613  36.930  24.947  11.622
 9189W        W81614   3.203  38.078   1.740
 9190W        W81615  42.785  40.752   3.259
 9191W        W81616  43.869   6.420   2.359
 9192W        W81617  42.432  31.206   4.900
 9193W        W81618  37.527  32.150   0.810
 9194W        W81619  23.170  13.735   2.789
 9195W        W81620  32.520   2.999   0.205
 9196W        W81621   4.766  29.682  10.463
 9197W        W81622   1.275  33.254  12.397
 9198W        W81623  39.524  34.148  13.589
 9199W        W81624  43.544  24.400  11.976
 9200W        W81625  31.798  20.752  12.649
 9201W        W81626  26.663   4.393   4.131
 9202W        W81627   4.117  34.236   2.166
 9203W        W81628   4.125  25.635  14.376
 9204W        W81629  20.210   3.004   4.616
 9205W        W81630  44.682  28.698   4.113
 9206W        W81631  14.227  34.037  13.105
 9207W        W81632   6.969  33.861   1.683
 9208W        W81633  15.358  43.566   1.085
 9209W        W81634   8.184  14.169   3.055
 9210W        W81635   6.785  20.124   0.725
 9211W        W81636  44.808   5.229  10.646
 9212W        W81637  30.257  12.721   4.139
 9213W        W81638  43.121   4.767   3.735
 9214W        W81639  17.136  29.518   0.710
 9215W        W81640   3.482  30.543   4.507
 9216W        W81641  10.932   1.989  11.863
 9217W        W81642  18.659  44.595   4.619
 9218W        W81643  41.728  13.865  12.498
 9219W        W81644   0.964  27.453  12.218
 9220W        W81645  21.601  32.833  12.422
 9221W        W81646  23.123  43.078  14.915
 9222W        W81647  33.035  26.684   1.991
 9223W        W81648  12.578  34.968   3.156
 9224W        W81649  39.621  20.140   4.864
 9225W        W81650  40.487   3.349  11.268
 9226W        W81651  44.038  19.663   1.762
 9227W        W81652   5.423  24.575  12.145
 9228W        W81653  28.528  13.072   3.489
 9229W        W81654  35.688  16.396   2.710
 9230W        W81655  30.239  25.178   4.516
 9231W        W81656   6.635  14.769  14.279
 9232W        W81657  34.140  17.953  14.960
 9233W        W81658  11.150  35.080   3.306
 9234W        W81659  41.633  20.636   3.325
 9235W        W81660  15.052  25.143  12.997
 9236W        W81661  44.042   1.216  11.842
 9237W        W81662   9.821  30.825   0.865
 9238W        W81663  43.912  18.787  12.905
 9239W        W81664   9.802  41.939   4.426
 9240W        W81665  20.014  29.726  12.516
 9241W        W81666   0.396   3.513   3.698
 9242W        W81667  32.349  22.613  11.095
 9243W        W81668  39.422  27.050   1.253
 9244W        W81669  21.316  42.400   2.391
 9245W        W81670   8.694  14.606  13.764
 9246W        W81671  30.646  12.806  12.024
 9247W        W81672  44.990   1.832   1.685
 9248W        W81673  10.269  31.875  14.361
 9249W        W81674  28.545   3.730  13.747
 9250W        W81675  18.216  15.976   0.515
 9251W        W81676   2.037  15.863   2.365
 9252W        W81677   6.935   2.457  14.974
 9253W        W81678   3.468  22.565  13.358
 9254W        W81679  13.325  40.988   2.231
 9255W        W81680   8.566   4.977   4.147
 9256W        W81681   9.010  28.264   0.356
 9257W        W81682  18.836   7.967   4.392
 9258W        W81683  10.704  31.502  11.022
 9259W        W81684  31.653  22.666   1.360
 9260W        W81685  41.512  41.259   1.865
 9261W        W81686  38.470   4.679   4.844
 9262W        W81687   2.333  43.320  14.502
 9263W        W81688  38.508  23.078  14.339
 9264W        W81689   7.046  12.189  10.636
 9265W        W81690  26.974  29.008  11.957
 9266W        W81691   7.225   8.738  10.555
 9267W        W81692  33.388  37.412   0.011
 9268W        W81693  36.545  33.686   1.770
 9269W        W81694  37.755  44.341   1.801
 9270W        W81695  25.236  33.021  13.172
 9271W        W81696  19.240  29.795   1.471
 9272W        W81697  41.848  34.416   0.828
 9273W        W81698  25.001   4.502  10.212
 9274W        W81699  30.651  21.167   4.462
 9275W        W81700  14.195  36.488  14.084
 9276W        W81701   0.220   3.376  14.516
 9277W        W81702  30.394  15.437   1.414
 9278W        W81703  41.110   2.820  12.845
 9279W        W81704  20.561   1.801   4.273
 9280W        W81705  14.366  20.818   3.818
 9281W        W81706  28.859  42.249   4.101
 9282W        W81707   4.725  26.161   3.825
 9283W        W81708  41.787  19.417   1.205
 9284W        W81709   2.200  32.035  13.943
 9285W        W81710  30.639  33.339  11.158
 9286W        W81711  28.698  33.933   0.344
 9287W        W81712   5.598   4.969   4.858
 9288W        W81713   9.456  31.971  10.659
 9289W        W81714  10.792  12.426  13.934
 9290W        W81715  21.059   9.748   1.311
 9291W        W81716  38.089  15.627   0.354
 9292W        W81717   3.792   0.020  11.702
 9293W        W81718  24.503   0.398  11.514
 9294W        W81719  10.276  38.397   4.927
 9295W        W81720   4.478  15.031   0.587
 9296W        W81721  18.248  20.278   3.239
 9297W        W81722  31.369  31.405   1.796
 9298W        W81723   9.863  37.637  12.661
 9299W        W81724  21.485  19.585  11.916
 9300W        W81725   7.904   4.436  10.476
 9301W        W81726   4.814  39.325  13.789
 9302W        W81727  25.780   3.895   1.912
 9303W        W81728  16.803  34.051  13.922
 9304W        W81729  20.637  20.233   4.631
 9305W        W81730  38.767   6.442   3.210
 9306W        W81731   5.515  10.903   4.090
 9307W        W81732   9.906   6.905  12.078
 9308W        W81733   8.617  19.666   2.792
 9309W        W81734   7.299  28.375  11.424
 9310W        W81735  17.768   6.666   4.430
 9311W        W81736  40.823   6.271  10.783
 9312W        W81737  33.955   9.998  14.235
 9313W        W81738  26.620  34.229  13.876
 9314W        W81739  44.827   9.537  12.899
 9315W        W81740  37.754  39.375   1.286
 9316W        W81741  24.003  30.269  10.154
 9317W        W81742  10.837  40.138  12.865
 9318W        W81743  34.531  31.189  12.992
 9319W        W81744  28.471  19.401  12.491
 9320W        W81745  16.047  33.921  13.498
 9321W        W81746  14.353   8.196   3.176
 9322W        W81747  33.455  24.911  12.445
 9323W        W81748   9.165  11.810   0.004
 9324W        W81749  18.923  37.891   3.715
 9325W        W81750  11.925  14.108   0.326
 9326W        W81751  39.921  19.165  11.898
 9327W        W81752  40.746  42.750   2.345
 9328W        W81753   8.924  36.725   4.081
 9329W        W81754  29.119  36.686   1.329
 9330W        W81755   1.024  32.997  14.486
 9331W        W81756  31.577  30.479   4.288
 9332W        W81757  38.625  20.575  12.635
 9333W        W81758  22.280  16.704  10.915
 9334W        W81759  41.009   4.626   3.853
 9335W        W81760   9.971  22.106  14.162
 9336W        W81761   8.815  10.720  14.348
 9337W        W81762  12.237  10.320   4.222
 9338W        W81763  34.351   6.999  12.992
 9339W        W81764  44.424  27.209   2.001
 9340W        W81765  27.176  40.856  13.683
 9341W        W81766  12.311  18.452  12.503
 9342W        W81767  19.938   4.207   1.660
 9343W        W81768  14.530  25.279   3.468
 9344W        W81769  19.280  27.974  10.778
 9345W        W81770  32.101  37.898  11.527
 9346W        W81771   4.774  31.387   4.877
 9347W        W81772  34.297  32.675  10.675
 9348W        W81773   8.248   7.486  13.906
 9349W        W81774  19.143  40.920  14.525
 9350W        W81775  22.942  17.337   4.755
 9351W        W81776  42.813  24.113  12.292
 9352W        W81777   6.761  13.790  12.438
 9353W        W81778  27.444  41.522   3.606
 9354W        W81779   5.734   4.841   4.382
 9355W        W81780  37.775   2.359   1.800
 9356W        W81781   5.258  23.541   2.920
 9357W        W81782  15.067  36.472   3.279
 9358W        W81783  26.962  31.480   1.620
 9359W        W81784  37.017  17.667   4.391
 9360W        W81785  15.148   2.544   0.779
 9361W        W81786  25.467  29.035  12.908
 9362W        W81787  39.517  16.654   0.266
 9363W        W81788  22.154  39.059   1.299
 9364W        W81789  18.764  15.204  12.051
 9365W        W81790  33.524  35.605  12.061
 9366W        W81791   4.693  34.594   0.335
 9367W        W81792   3.742  14.620  14.330
 9368W        W81793  22.655   7.459  12.176
 9369W        W81794  40.622  36.130   1.281
 9370W        W81795   1.306   9.933   3.766
 9371W        W81796  17.845  14.121   2.090
 9372W        W81797  12.641  38.439  13.934
 9373W        W81798  39.270  18.319   3.815
 9374W        W81799  24.791  15.129   4.273
 9375W        W81800  32.889  40.911  12.456
 9376W        W81801  28.005  44.767  13.886
 9377W        W81802   6.700   2.805   4.705
 9378W        W81803   9.614  34.291  12.894
 9379W        W81804  25.423  39.032   0.850
 9380W        W81805  40.730  38.000  11.685
 9381W        W81806  22.064   9.298   1.655
 9382W        W81807  40.312  13.067  10.819
 9383W        W81808  30.686  11.319  12.399
 9384W        W81809  31.489  19.767   0.768
 9385W        W81810  17.557  31.010  14.963
 9386W        W81811   3.470  17.201  13.575
 9387W        W81812  23.813  42.912  12.067
 9388W        W81813  15.079   2.332   1.252
 9389W        W81814  19.315   9.725   1.911
 9390W        W81815  10.928  11.204   2.280
 9391W        W81816  40.137  34.999   9.874
 9392W        W81817  32.627   1.901  12.445
 9393W        W81818  15.985   7.448  13.827
 9394W        W81819  17.021  26.397  13.902
 9395W        W81820  20.819  25.581  11.953
 9396W        W81821   7.429   5.342  11.586
 9397W        W81822  39.813  41.930  14.060
 9398W        W81823   3.259  16.234  13.268
 9399W        W81824  20.618   0.747   3.417
 9400W        W81825  36.836  12.995  12.981
 9401W        W81826   3.257  34.936  14.825
 9402W        W81827  42.060  39.761   3.188
 9403W        W81828  25.523  43.787   3.166
 9404W        W81829  15.347  16.154   4.461
 9405W        W81830   0.889   6.188  13.837
 9406W        W81831  18.500  14.849  14.463
 9407W        W81832  10.053   3.239   4.534
 9408W        W81833  21.509  43.810   3.235
 9409W        W81834   6.675  17.803   3.220
 9410W        W81835  42.649  38.221  11.571
 9411W        W81836  13.309  28.746   1.148
 9412W        W81837   9.113  39.253   3.174
 9413W        W81838   4.475  16.839  14.913
 9414W        W81839   6.078   5.332  14.400
 9415W        W81840  42.381  20.056   0.317
 9416W        W81841   9.734  18.379   3.135
 9417W        W81842  36.652  31.370  14.309
 9418W        W81843  22.789   5.863  10.236
 9419W        W81844  22.921  17.646  14.312
 9420W        W81845  15.319  10.115  11.497
 9421W        W81846  27.146  21.760   1.484
 9422W        W81847  14.472  17.764   0.728
 9423W        W81848  27.107  19.831   0.214
 9424W        W81849  14.554  33.511   2.279
 9425W        W81850  17.174   0.064  12.987
 9426W        W81851  32.459   1.829  11.476
 9427W        W81852  44.000  32.677   1.844
 9428W        W81853  19.285  41.376  13.285
 9429W        W81854  38.934  14.131  11.470
 9430W        W81855  41.899  44.573   3.729
 9431W        W81856   2.783  16.333  11.119
 9432W        W81857  12.216  15.183  13.376
 9433W        W81858  36.655  22.578   2.387
 9434W        W81859  17.175   8.543   4.460
 9435W        W81860  41.406  16.250   2.190
 9436W        W81861  27.506  42.669   4.487
 9437W        W81862   8.663  26.117   2.793
 9438W        W81863  41.433  19.578  14.481
 9439W        W81864  37.540   5.122   9.925
 9440W        W81865  33.550  11.188   0.713
 9441W        W81866  39.632  36.926   4.106
 9442W        W81867  43.931  29.526  10.702
 9443W        W81868  41.883  36.957   4.447
 9444W        W81869  33.095  29.188   3.290
 9445W        W81870  19.999  43.810   0.967
 9446W        W81871  41.699   4.472  11.124
 9447W        W81872  14.803  39.779   3.140
 9448W        W81873   6.444  20.551  12.497
 9449W        W81874  11.453  17.739   4.429
 9450W        W81875  33.019  30.905  13.355
 9451W        W81876  13.835   9.923  11.970
 9452W        W81877  18.655   2.591   0.105
 9453W        W81878   4.821  40.466   2.564
 9454W        W81879  30.247  23.116  12.476
 9455W        W81880   1.672  31.540  14.781
 9456W        W81881  33.521  25.046   0.024
 9457W        W81882  40.905  24.139  10.650
 9458W        W81883  28.417  21.486   3.176
 9459W        W81884  33.787   4.222   0.894
 9460W        W81885  28.812  14.620  14.734
 9461W        W81886   6.398  25.969   0.253
 9462W        W81887  14.342  27.383  11.504
 9463W        W81888  17.121  19.209  12.448
 9464W        W81889  22.073  12.768   1.360
 9465W        W81890  37.534  39.531   2.672
 9466W        W81891  42.689  17.864  11.494
 9467W        W81892  19.686   4.441  13.357
 9468W        W81893   5.227  20.466   2.416
 9469W        W81894  36.848  17.027   2.686
 9470W        W81895  31.542  26.423  10.604
 9471W        W81896  36.115   4.761   3.048
 9472W        W81897   3.226  17.797  10.689
 9473W        W81898  23.240  39.663   4.159
 9474W        W81899  36.365  18.761   3.796
 9475W        W81900  44.552  31.684   0.968
 9476W        W81901  17.104  11.378  11.133
 9477W        W81902  42.516  19.336   1.480
 9478W        W81903  43.914   3.431  14.673
 9479W        W81904  14.146  27.541   3.687
 9480W        W81905  24.162  38.606  12.716
 9481W        W81906  26.711  17.206   3.772
 9482W        W81907   7.438  26.496   3.264
 9483W        W81908   1.050  34.127  10.517
 9484W        W81909  32.061   5.068   3.264
 9485W        W81910   6.687  22.771  12.322
 9486W        W81911  14.461  12.292  14.294
 9487W        W81912  18.175  41.019  10.774
 9488W        W81913   4.833  36.528   3.105
 9489W        W81914  17.277  26.699   0.336
 9490W        W81915  21.693  40.904  10.586
 9491W        W81916  30.723  18.102   2.340
 9492W        W81917  12.346  17.683   4.176
 9493W        W81918  28.742  34.851  10.531
 9494W        W81919   7.699  10.289  14.778
 9495W        W81920  11.340  19.204   1.772
 9496W        W81921  31.534  33.523   3.730
 9497W        W81922  36.250  15.601  10.984
 9498W        W81923  29.415  26.660  13.606
 9499W        W81924   2.888  18.399   3.820
 9500W        W81925  27.513  44.844  14.112
 9501W        W81926  27.613  38.088  11.166
 9502W        W81927  11.202  13.188   3.671
 9503W        W81928  26.525   5.782   4.641
 9504W        W81929   6.757   4.906  13.290
 9505W        W81930   2.769  31.113  12.608
 9506W        W81931   0.519  32.983   2.441
 9507W        W81932  25.509  38.695  12.120
 9508W        W81933  23.116   9.321   1.801
 9509W        W81934   6.915   3.928  13.904
 9510W        W81935  36.085  15.243   0.739
 9511W        W81936   8.998  41.578  12.058
 9512W        W81937  25.933  31.493  14.396
 9513W        W81938  41.006  31.218  14.157
 9514W        W81939  26.924  17.407   1.480
 9515W        W81940   3.744  17.568  11.518
 9516W        W81941  37.269  21.964   4.333
 9517W        W81942   2.757   0.908  11.107
 9518W        W81943  24.698  17.760  14.980
 9519W        W81944  23.409   7.343   4.427
 9520W        W81945  37.915  35.817   0.418
 9521W        W81946  43.989  17.255   2.590
 9522W        W81947  13.770  39.498  12.564
 9523W        W81948  42.921   7.294   3.284
 9524W        W81949   3.191  31.911  12.960
 9525W        W81950  43.384  37.467  14.324
 9526W        W81951  11.848  23.142  13.890
 9527W        W81952  20.746  30.658  11.672
 9528W        W81953  31.663  10.122   2.243
 9529W        W81954  25.448  36.903   2.301
 9530W        W81955   3.709  38.870   2.702
 9531W        W81956  36.350  39.341  13.776
 9532W        W81957  14.784  39.491   3.767
 9533W        W81958   3.644  44.034  12.220
 9534W        W81959   2.929  19.012   4.505
 9535W        W81960  19.735  14.762  12.118
 9536W        W81961  13.640   9.782  10.944
 9537W        W81962  42.849   2.445  13.792
 9538W        W81963  12.726   0.041  14.293
 9539W        W81964  13.560  32.346   0.901
 9540W        W81965  38.305  17.167   0.201
 9541W        W81966  31.124  14.108   2.833
 9542W        W81967   5.760  38.803  14.528
 9543W        W81968  37.139  31.823   0.869
 9544W        W81969   4.350  35.306   0.297
 9545W        W81970  39.498  24.640   1.942
 9546W        W81971  17.133   1.951   2.429
 9547W        W81972  29.468  14.083   2.854
 9548W        W81973  32.032  22.716  13.351
 9549W        W81974  35.554  37.574   3.142
 9550W        W81975  41.303   8.672   0.356
 9551W        W81976  33.754  33.179   0.926
 9552W        W81977   0.982  12.766   2.182
 9553W        W81978   7.846  15.002   4.816
 9554W        W81979   9.845   6.611  13.046
 9555W        W81980  27.227  31.055   5.360
 9556W        W81981  18.548   6.314  10.595
 9557W        W81982  14.678  34.728   2.886
 9558W        W81983  14.157  32.183   2.499
 9559W        W81984  30.900  43.412   4.113
 9560W        W81985  12.128  17.353   1.974
 9561W        W81986  22.273   4.346  11.443
 9562W        W81987  33.603  44.753   0.446
 9563W        W81988   5.737  16.774  12.334
 9564W        W81989   2.466  36.935   4.066
 9565W        W81990  26.075  44.798  14.085
 9566W        W81991  21.047  35.927  11.075
 9567W        W81992  21.444  41.001   2.736
 9568W        W81993   0.035  41.060  12.374
 9569W        W81994  18.585  11.429  12.496
 9570W        W81995   3.194  19.564  12.383
 9571W        W81996  40.564  19.036  11.310
 9572W        W81997  29.996  40.925  13.537
 9573W        W81998  37.414  13.250   0.947
 9574W        W81999  38.640  17.066  14.315
 9575W        W82000  18.189  20.687  10.584
 9576W        W82001  11.610  29.687   4.614
 9577W        W82002  43.315  18.102  12.076
 9578W        W82003   3.522  43.044   1.006
 9579W        W82004  17.777  20.462   3.212
 9580W        W82005  41.849  39.701   3.661
 9581W        W82006  43.440   5.110  11.002
 9582W        W82007   9.475  30.503   4.139
 9583W        W82008  25.117  32.011   0.756
 9584W        W82009  21.271  29.342  14.824
 9585W        W82010   4.466  12.116  11.104
 9586W        W82011  31.302  37.960   4.115
 9587W        W82012  35.979  19.549   3.819
 9588W        W82013   2.188   5.472  12.961
 9589W        W82014  39.929   8.780   0.457
 9590W        W82015  33.310  15.556   1.741
 9591W        W82016  38.811  27.995  10.680
 9592W        W82017  43.775  42.765  13.768
 9593W        W82018  40.120  17.713   0.172
 9594W        W82019   7.836  32.415   2.659
 9595W        W82020  42.547  22.783  12.852
 9596W        W82021  40.542  42.215  14.323
 9597W        W82022  19.933   2.334  12.025
 9598W        W82023   3.282  12.415   1.450
 9599W        W82024  27.739  41.407  12.953
 9600W        W82025  12.425  23.157  10.263
 9601W        W82026  21.857  35.425   1.994
 9602W        W82027  26.574  42.894   4.544
 9603W        W82028  15.267  27.116   3.689
 9604W        W82029  31.895  17.152  11.704
 9605W        W82030  28.336  28.090  14.987
 9606W        W82031   6.826  42.558  12.481
 9607W        W82032  22.094   8.559  11.647
 9608W        W82033  33.959  32.378   0.425
 9609W        W82034  27.709  30.501  14.811
 9610W        W82035  37.124   3.805   2.827
 9611W        W82036  26.196  27.436  14.639
 9612W        W82037  38.536  39.872   1.434
 9613W        W82038  24.300  18.979   2.250
 9614W        W82039  23.173  12.793   2.707
 9615W        W82040   4.690  11.629   2.686
 9616W        W82041   4.329  40.596   0.416
 9617W        W82042  14.107  41.569  10.972
 9618W        W82043  23.886  19.721  12.153
 9619W        W82044  31.826  25.019  11.411
 9620W        W82045  24.567  39.025  10.909
 9621W        W82046  14.769  22.550  12.002
 9622W        W82047  13.642  39.427  11.173
 9623W        W82048  29.465   9.690  12.521
 9624W        W82049  10.814  29.885   0.718
 9625W        W82050  38.898   7.884   9.998
 9626W        W82051  39.315  17.196  10.770
 9627W        W82052   4.631  33.387   9.864
 9628W        W82053  37.084  17.320   1.507
 9629W        W82054   5.337  16.650  13.636
 9630W        W82055  10.845  10.881  14.003
 9631W        W82056  40.707  29.976  12.856
 9632W        W82057  21.218   6.270   4.614
 9633W        W82058  33.362  12.635  12.892
 9634W        W82059  41.222  38.889   2.334
 9635W        W82060  19.247  37.865   3.301
 9636W        W82061  20.030  39.858  11.604
 9637W        W82062  44.127  42.595   1.888
 9638W        W82063  29.547  28.514   2.787
 9639W        W82064  21.191  14.052   1.677
 9640W        W82065  10.807  21.537  13.508
 9641W        W82066  23.091  36.750   2.452
 9642W        W82067  24.037   1.033  11.114
 9643W        W82068   3.290  15.835  11.948
 9644W        W82069  16.553  39.969   2.820
 9645W        W82070  12.860  37.916   0.320
 9646W        W82071   7.720  18.460  10.223
 9647W        W82072  14.115   8.094   0.177
 9648W        W82073   5.121  40.412   1.127
 9649W        W82074  18.517  25.572  13.368
 9650W        W82075   3.769  32.561   1.389
 9651W        W82076  44.747  16.210   3.419
 9652W        W82077  35.672  27.653  11.429
 9653W        W82078   1.313   2.325  12.334
 9654W        W82079  16.709  16.357   1.728
 9655W        W82080  35.403  32.080   4.354
 9656W        W82081  13.988  18.878   3.032
 9657W        W82082  25.876   1.429   4.845
 9658W        W82083   2.491  14.677   1.760
 9659W        W82084  32.675  42.979   3.717
 9660W        W82085  38.139  11.975   2.609
 9661W        W82086  22.202  33.006   3.221
 9662W        W82087  34.976   0.215  13.889
 9663W        W82088  29.657  22.723   3.318
 9664W        W82089  29.523   9.118  13.406
 9665W        W82090  24.117  38.938   4.586
 9666W        W82091  39.388  25.112   2.385
 9667W        W82092  17.712  21.018  11.816
 9668W        W82093  37.372   1.238  10.810
 9669W        W82094  21.243  21.459   0.798
 9670W        W82095  12.825  39.272   1.860
 9671W        W82096  38.893  14.767  12.096
 9672W        W82097  40.733  30.193   3.247
 9673W        W82098  35.461  33.023   3.453
 9674W        W82099  29.221  29.898  14.981
 9675W        W82100  35.864   8.656  10.127
 9676W        W82101  37.992   3.860   4.753
 9677W        W82102  16.745  23.762   3.236
 9678W        W82103  30.441  33.828  11.174
 9679W        W82104  24.840  16.649  11.687
 9680W        W82105  12.783   5.268   4.778
 9681W        W82106  15.206  25.042  13.513
 9682W        W82107  37.581  14.619  11.605
 9683W        W82108  11.874  29.857   3.834
 9684W        W82109  25.850   2.380  12.461
 9685W        W82110  17.505  14.001  12.574
 9686W        W82111  44.901  15.107   2.005
 9687W        W82112  18.302  25.286   2.811
 9688W        W82113  36.948  22.818   0.167
 9689W        W82114  38.403  14.537  11.780
 9690W        W82115  28.036  17.572  10.596
 9691W        W82116   1.218  22.125  12.344
 9692W        W82117  26.233   1.633   3.076
 9693W        W82118  19.895   8.417   2.488
 9694W        W82119   8.412  41.885   2.436
 9695W        W82120  19.023  25.683   4.164
 9696W        W82121  38.052   6.088   2.406
 9697W        W82122  11.352  23.007   4.215
 9698W        W82123  29.072  21.176  11.828
 9699W        W82124  25.855  15.204   0.870
 9700W        W82125   5.643  32.894  11.626
 9701W        W82126  23.974  30.516   3.597
 9702W        W82127  24.159   7.673   3.454
 9703W        W82128  21.124  27.656   3.877
 9704W        W82129  16.244   9.321   2.963
 9705W        W82130   3.836  38.499   0.402
 9706W        W82131  32.679   6.291   0.764
 9707W        W82132  25.269  18.815   2.388
 9708W        W82133  32.974  26.316   3.703
 9709W        W82134  34.056  44.991  11.672
 9710W        W82135  32.997  42.368  13.538
 9711W        W82136   1.831   4.782   2.144
 9712W        W82137  44.406  34.345  13.527
 9713W        W82138  14.629  41.532  10.253
 9714W        W82139  38.392  41.952  13.601
 9715W        W82140  13.619  26.147  12.547
 9716W        W82141  27.911  30.996  10.329
 9717W        W82142  28.287  23.851   1.768
 9718W        W82143  23.291  31.446   5.052
 9719W        W82144   8.838   5.015  12.757
 9720W        W82145   9.468  34.403  13.380
 9721W        W82146  15.569  30.324   3.329
 9722W        W82147  28.077   5.366  12.201
 9723W        W82148  36.829  27.476   3.178
 9724W        W82149  18.145  41.097  13.577
 9725W        W82150  23.069  27.921   0.140
 9726W        W82151   7.907  19.867   2.304
 9727W        W82152   1.937  41.852  13.772
 9728W        W82153  40.253   0.231  12.845
 9729W        W82154  26.988  16.459   0.358
 9730W        W82155  12.758   4.871   1.854
 9731W        W82156  20.878  29.862  11.314
 9732W        W82157  39.017  42.970  10.069
 9733W        W82158  32.615   5.880  11.197
 9734W        W82159  18.721  34.813   1.883
 9735W        W82160  27.694  39.733   5.450
 9736W        W82161  20.717  18.439  14.529
 9737W        W82162  20.909  14.689  12.622
 9738W        W82163  33.937  17.970  11.061
 9739W        W82164  11.585  12.221   4.180
 9740W        W82165  12.429   7.895  11.494
 9741W        W82166  44.978  37.788  13.441
 9742W        W82167  20.208  39.334   2.020
 9743W        W82168  24.021   7.929   2.368
 9744W        W82169  39.365   3.350   2.863
 9745W        W82170  30.563   2.763   1.048
 9746W        W82171  34.614  37.822   1.736
 9747W        W82172  19.780  33.008  12.511
 9748W        W82173  40.083  36.493  13.334
 9749W        W82174  41.615   5.616   0.557
 9750W        W82175  12.726   3.997   1.870
 9751W        W82176  26.677  42.101  14.962
 9752W        W82177  29.939  29.013  13.061
 9753W        W82178   4.460   9.724  14.441
 9754W        W82179   6.895  30.100   3.872
 9755W        W82180   2.416  20.769   2.433
 9756W        W82181  13.141  39.375  10.953
 9757W        W82182   9.311  35.948  12.593
 9758W        W82183   6.423   2.328   4.719
 9759W        W82184   2.248  27.701  12.040
 9760W        W82185  39.078  30.960  12.557
 9761W        W82186  19.814  19.445   3.175
 9762W        W82187  27.208   8.170   0.861
 9763W        W82188  28.175  23.084  11.468
 9764W        W82189  13.798   4.437  12.484
 9765W        W82190  34.502  30.916  13.440
 9766W        W82191  29.453   8.884   1.770
 9767W        W82192  42.309   6.844   0.693
 9768W        W82193  13.593   0.951  13.590
 9769W        W82194  25.679  12.184   4.568
 9770W        W82195  15.022  41.946   4.355
 9771W        W82196  28.176   5.148  14.922
 9772W        W82197  13.404  27.183  12.884
 9773W        W82198  31.042   9.904   2.617
 9774W        W82199  13.600  44.496  14.508
 9775W        W82200  25.126  41.998   2.282
 9776W        W82201  31.519  32.712   1.364
 9777W        W82202  21.868  16.814   0.910
 9778W        W82203   7.316  31.101  14.996
 9779W        W82204  40.608  39.160   4.111
 9780W        W82205  36.501  30.088   2.890
 9781W        W82206  34.449  41.379   3.883
 9782W        W82207  44.188   0.274   2.171
 9783W        W82208   1.100   0.368  11.533
 9784W        W82209  44.741  34.669  12.636
 9785W        W82210  33.316  32.089  11.212
 9786W        W82211  15.508   1.132  14.023
 9787W        W82212  34.799   1.888  13.888
 9788W        W82213  19.593  29.410  14.313
 9789W        W82214  11.363  16.266   0.298
 9790W        W82215  34.991  18.076  11.675
 9791W        W82216  31.607   1.556   4.437
 9792W        W82217  32.699  24.653  12.011
 9793W        W82218  38.260  21.057   4.747
 9794W        W82219  25.025  14.662   4.234
 9795W        W82220  39.203  15.720   1.871
 9796W        W82221  37.870  30.981   4.466
 9797W        W82222  27.609  30.611   1.643
 9798W        W82223  12.276  31.862   2.680
 9799W        W82224   3.650  31.394   4.245
 9800W        W82225  37.454  34.964  13.380
 9801W        W82226   5.319  32.107  11.574
 9802W        W82227  11.352  20.188   4.705
 9803W        W82228  38.356   4.980  11.963
 9804W        W82229  29.167  16.537   4.199
 9805W        W82230  12.546  38.134   0.951
 9806W        W82231  29.166  17.633   4.069
 9807W        W82232  32.380  15.017   0.460
 9808W        W82233   4.782  42.088   4.700
 9809W        W82234  33.932  33.540  10.599
 9810W        W82235   7.297   1.032   1.858
 9811W        W82236  27.537  31.377  10.626
 9812W        W82237   5.748  24.176  13.421
 9813W        W82238   6.384   4.237   4.735
 9814W        W82239  13.229  20.569  13.085
 9815W        W82240  43.817  34.300  14.912
 9816W        W82241  29.196   9.904   1.757
 9817W        W82242  25.997  10.781   3.136
 9818W        W82243  16.716  16.056  13.536
 9819W        W82244  32.385  10.356   1.348
 9820W        W82245  35.007  26.875  10.642
 9821W        W82246  39.565  21.773   4.510
 9822W        W82247  17.004  25.243  12.403
 9823W        W82248  28.633   4.868   2.303
 9824W        W82249  41.517  32.388   1.377
 9825W        W82250   4.084   8.395  10.590
 9826W        W82251   1.258   7.116   0.491
 9827W        W82252  10.267  27.026  12.164
 9828W        W82253   8.390  28.658  12.457
 9829W        W82254  39.482   5.527  11.838
 9830W        W82255   0.941  27.166  10.337
 9831W        W82256   4.133  19.760   2.852
 9832W        W82257  14.152  42.554  11.184
 9833W        W82258  22.771  35.915  11.675
 9834W        W82259  42.202  34.568   2.591
 9835W        W82260  30.627  29.207   0.381
 9836W        W82261  25.233   0.281  14.035
 9837W        W82262  42.403  42.968   0.894
 9838W        W82263  11.004   4.810  13.949
 9839W        W82264  23.248  35.933   3.619
 9840W        W82265   4.691  34.413   3.757
 9841W        W82266  40.078  28.582  11.474
 9842W        W82267  30.145  40.940   2.022
 9843W        W82268  15.377  40.001   4.459
 9844W        W82269  39.789  41.500   2.670
 9845W        W82270  14.158  31.176  14.765
 9846W        W82271   8.086  11.288   9.897
 9847W        W82272  41.948  31.594  14.236
 9848W        W82273  13.563  32.869  12.475
 9849W        W82274  34.856  32.321   0.444
 9850W        W82275  20.079  14.131  11.671
 9851W        W82276   2.672   0.942   3.665
 9852W        W82277  17.972  36.506   3.404
 9853W        W82278  29.180  34.915   2.086
 9854W        W82279  20.580  43.319   0.474
 9855W        W82280   1.631  11.116   1.632
 9856W        W82281  39.311  28.155  12.551
 9857W        W82282  12.743  33.979  11.217
 9858W        W82283   7.436  28.095  11.847
 9859W        W82284  23.326  18.651  11.489
 9860W        W82285  17.430  38.036   4.128
 9861W        W82286  28.164  38.867  12.367
 9862W        W82287  37.998  20.430  11.705
 9863W        W82288  36.398  31.125   2.741
 9864W        W82289  43.199   5.218  13.083
 9865W        W82290  32.515  36.383  12.901
 9866W        W82291  27.183  11.375  11.394
 9867W        W82292  41.844  30.592  14.659
 9868W        W82293  15.319  19.413   0.729
 9869W        W82294  36.312  17.646  14.515
 9870W        W82295  26.172  35.097  14.891
 9871W        W82296  28.533  14.769   4.418
 9872W        W82297   0.844   3.516   0.343
 9873W        W82298   0.273  42.591  11.915
 9874W        W82299  37.596   1.380  13.478
 9875W        W82300  23.927  15.778   2.682
 9876W        W82301  28.619  14.329   4.709
 9877W        W82302  38.018   7.478  14.454
 9878W        W82303  13.327  23.115  12.659
 9879W        W82304  41.257  26.596   3.210
 9880W        W82305   5.949   2.348  14.100
 9881W        W82306  14.360  25.827  13.501
 9882W        W82307  23.976  32.087   4.092
 9883W        W82308  25.120  15.282  11.942
 9884W        W82309  12.891  23.139  12.393
 9885W        W82310  10.824   1.627   3.350
 9886W        W82311  38.865  10.170   2.303
 9887W        W82312  17.301   5.391  12.163
 9888W        W82313   2.123  17.731   3.747
 9889W        W82314   1.381   4.397  11.897
 9890W        W82315  11.193  38.578   3.512
 9891W        W82316  41.058  40.347  11.560
 9892W        W82317  31.884   2.247   2.200
 9893W        W82318  26.046  19.059  11.157
 9894W        W82319  24.868  32.065  14.761
 9895W        W82320  24.768  40.315  11.144
 9896W        W82321  20.584   1.081  13.478
 9897W        W82322   9.843  23.288   1.369
 9898W        W82323  26.211  42.147   2.176
 9899W        W82324  31.540   6.656  12.597
 9900W        W82325  15.699  26.095  12.298
 9901W        W82326  27.081   9.530  13.266
 9902W        W82327  14.617  33.542   5.197
 9903W        W82328  23.233  34.568   1.492
 9904W        W82329  44.476  36.059   2.869
 9905W        W82330   7.586  17.515   1.695
 9906W        W82331  30.705   3.326   0.008
 9907W        W82332   7.017  19.189  12.084
 9908W        W82333  16.062  17.530   1.452
 9909W        W82334  26.120  44.718  11.331
 9910W        W82335  12.196  17.805   0.742
 9911W        W82336  12.419   0.830   3.710
 9912W        W82337  38.621  28.175   4.607
 9913W        W82338  33.383  40.076  13.854
 9914W        W82339  35.513  42.612   3.314
 9915W        W82340   2.696  29.728  11.503
 9916W        W82341  15.534  25.565  10.634
 9917W        W82342   7.456  10.683  11.191
 9918W        W82343  21.698  32.196  11.073
 9919W        W82344  22.789  19.616   4.710
 9920W        W82345  40.851  11.869   0.584
 9921W        W82346  17.055   0.355  14.929
 9922W        W82347  35.337  43.674  13.089
 9923W        W82348  34.458  15.531  10.855
 9924W        W82349   6.584  43.915   0.146
 9925W        W82350   9.960  35.530   1.781
 9926W        W82351  33.442  42.919  11.538
 9927W        W82352   7.359  29.041   4.225
 9928W        W82353  15.342  42.255  12.519
 9929W        W82354   1.963  17.384  13.903
 9930W        W82355  30.687  42.925   4.155
 9931W        W82356   3.461  43.096  12.691
 9932W        W82357  35.708  13.180   0.881
 9933W        W82358  29.468  17.995  10.040
 9934W        W82359   9.222  15.582   4.145
 9935W        W82360  21.802   4.933   1.920
 9936W        W82361  31.561  13.888   0.253
 9937W        W82362  40.077   9.698   0.939
 9938W        W82363  31.819  11.917   0.932
 9939W        W82364  37.933  23.653   0.931
 9940W        W82365  44.246  30.909   4.714
 9941W        W82366   9.650  28.222   2.390
 9942W        W82367  33.038  10.091  14.826
 9943W        W82368  32.053  39.767   0.440
 9944W        W82369  15.389  15.233   3.175
 9945W        W82370  23.386   4.285  14.954
 9946W        W82371  30.410   6.668   2.801
 9947W        W82372  10.830  10.422   1.914
 9948W        W82373  15.774   6.341   3.822
 9949W        W82374  25.042  23.780   1.492
 9950W        W82375   3.747  22.748   4.516
 9951W        W82376  21.351  29.145   2.350
 9952W        W82377  25.370  16.687   3.097
 9953W        W82378  39.583  20.503  11.582
 9954W        W82379  12.321  16.111   3.961
 9955W        W82380   9.130  12.642  11.642
 9956W        W82381   2.748  31.641  12.402
 9957W        W82382  21.891   0.186   4.576
 9958W        W82383  22.740  24.111   1.278
 9959W        W82384  13.007  36.770   4.724
 9960W        W82385  21.655  42.029   2.733
 9961W        W82386   7.232   3.981  10.791
 9962W        W82387  38.051  15.652   3.308
 9963W        W82388   7.952  17.280   4.654
 9964W        W82389  44.048   9.221  12.937
 9965W        W82390  40.238  33.318  14.085
 9966W        W82391   2.051  18.739   3.297
 9967W        W82392  29.789  44.841  13.457
 9968W        W82393   3.689   2.664  14.132
 9969W        W82394  36.965   4.574  12.840
 9970W        W82395  19.829  36.472   1.334
 9971W        W82396  34.853  39.936  13.002
 9972W        W82397   0.177  33.567  11.368
 9973W        W82398  18.318  28.245   4.646
 9974W        W82399  37.363  30.274   4.279
 9975W        W82400  43.411  19.787   2.359
 9976W        W82401  12.831   0.774   3.387
 9977W        W82402  11.212   4.776  12.992
 9978W        W82403  39.129  32.906   2.849
 9979W        W82404  13.051  36.923   4.239
 9980W        W82405  25.161  28.718  13.989
 9981W        W82406  32.264  22.595   4.715
 9982W        W82407  26.105  19.614   4.088
 9983W        W82408  32.873  31.291  14.549
 9984W        W82409  31.514  37.011  12.988
 9985W        W82410   0.220  19.234   0.288
 9986W        W82411  25.414  29.191   1.232
 9987W        W82412  32.162  31.827   4.274
 9988W        W82413   2.701  12.180   4.170
 9989W        W82414  34.230  22.621  11.042
 9990W        W82415  30.039  25.441  13.095
 9991W        W82416  28.122  35.898   4.132
 9992W        W82417   6.419   5.950  14.984
 9993W        W82418  10.806  17.550   4.163
 9994W        W82419   9.800  20.979   0.928
 9995W        W82420  29.587  34.583   1.977
 9996W        W82421  37.648   1.444  14.500
 9997W        W82422   8.363  16.943  10.379
 9998W        W82423  25.914   2.333   3.803
 9999W        W82424   5.119  34.682   3.243
10000W        W82425  26.434  19.488  12.508
10001W        W82426  40.866  39.386  11.604
10002W        W82427  11.811   2.004  13.422
10003W        W82428  42.296  34.521   1.809
10004W        W82429  42.912   6.623   3.657
10005W        W82430  12.398  37.614  13.381
10006W        W82431  44.303  25.692   2.172
10007W        W82432  10.851  17.668  14.559
10008W        W82433   7.965  25.354  14.053
10009W        W82434  14.926   2.850  14.449
10010W        W82435  19.066  33.935  11.912
10011W        W82436  26.128   7.227  12.648
10012W        W82437  24.788   2.581  13.095
10013W        W82438  17.561   8.183  12.216
10014W        W82439   7.774  35.444   0.944
10015W        W82440   7.116  32.870  11.476
10016W        W82441  18.228  24.661  10.722
10017W        W82442  39.427  33.472  14.723
10018W        W82443  44.435  25.579   0.163
10019W        W82444  30.076  38.789   3.634
10020W        W82445  34.565  20.095  12.090
10021W        W82446  22.193   9.030  14.348
10022W        W82447   7.136  39.166  13.506
10023W        W82448  32.296   8.258   0.862
10024W        W82449  27.292  23.719  10.300
10025W        W82450  13.273  20.085  12.867
10026W        W82451  24.681  18.326   3.679
10027W        W82452  18.693  44.857  14.694
10028W        W82453  43.613   8.422   4.406
10029W        W82454  13.597  21.959  14.868
10030W        W82455  44.490   3.413  10.652
10031W        W82456  29.819  15.703  10.354
10032W        W82457  40.348   3.236   2.599
10033W        W82458  33.539  24.597   0.285
10034W        W82459   5.001  22.737   2.141
10035W        W82460  11.278  19.331   4.607
10036W        W82461  32.987  44.215  12.007
10037W        W82462  44.082   8.211  12.020
10038W        W82463  14.600   3.514  14.944
10039W        W82464  43.390  23.271   1.481
10040W        W82465   4.910   7.849  10.611
10041W        W82466  43.344  35.710   3.191
10042W        W82467  20.056  41.699   1.746
10043W        W82468  42.711  33.355   0.110
10044W        W82469  27.594  38.325  13.541
10045W        W82470  18.397  24.132  12.382
10046W        W82471   2.759  26.295  14.337
10047W        W82472  17.536  43.297  10.582
10048W        W82473   4.413  33.058  14.807
10049W        W82474  14.181   7.724  13.788
10050W        W82475  27.068  39.529   2.197
10051W        W82476  37.105  17.415  12.469
10052W        W82477   3.437  12.637   0.473
10053W        W82478  34.949  14.338   3.609
10054W        W82479  12.752  21.195  10.510
10055W        W82480  43.311  41.034  14.718
10056W        W82481  17.206  44.990  14.201
10057W        W82482   3.961  18.606  14.404
10058W        W82483   7.111  29.130   4.685
10059W        W82484  36.946  37.528   3.213
10060W        W82485  42.497   4.365   1.000
10061W        W82486  39.028  24.416   0.307
10062W        W82487   2.371  18.190  12.943
10063W        W82488  30.656  28.927  12.083
10064W        W82489  32.645  42.230   3.090
10065W        W82490  10.097  21.104   2.953
10066W        W82491  33.549  36.912   0.726
10067W        W82492   3.980  38.565  11.171
10068W        W82493   1.983  14.782   1.824
10069W        W82494  20.690  11.679   5.393
10070W        W82495  18.771   6.847  12.407
10071W        W82496   8.282  12.552  13.379
10072W        W82497  14.603  25.431  13.275
10073W        W82498  11.716  34.997   4.455
10074W        W82499   3.646  14.570   4.501
10075W        W82500  37.519  41.542   3.317
10076W        W82501  34.101  31.553  12.367
10077W        W82502  30.003  33.663  12.561
10078W        W82503  12.298  24.574  11.054
10079W        W82504   1.589  30.862  12.044
10080W        W82505  31.193  38.597  14.453
10081W        W82506  12.780  26.148  11.324
10082W        W82507   2.999   3.227  11.525
10083W        W82508  34.482   7.840  11.516
10084W        W82509  11.412  33.927  11.340
10085W        W82510  17.389   5.110   1.711
10086W        W82511   6.409  32.204  14.415
10087W        W82512  23.398   0.011   4.094
10088W        W82513  34.566  29.695   1.466
10089W        W82514  18.843  14.577  13.635
10090W        W82515  25.514  33.901  13.811
10091W        W82516  17.325  34.211   5.028
10092W        W82517  24.931  16.417   0.800
10093W        W82518  17.035  16.350  13.851
10094W        W82519  24.143   0.023  10.266
10095W        W82520  16.521  18.024  11.188
10096W        W82521   4.695  32.678  10.525
10097W        W82522  28.941  42.875  13.070
10098W        W82523   0.958  16.327  12.850
10099W        W82524  20.462  28.619  10.658
10100W        W82525   4.916  16.264   0.321
10101W        W82526   0.486  31.957   9.777
10102W        W82527   7.637  17.036   0.942
10103W        W82528   6.411  14.341  13.529
10104W        W82529  30.578  23.459   1.651
10105W        W82530  44.467   2.021   2.183
10106W        W82531  11.325   6.957  11.978
10107W        W82532  11.885   7.196  14.888
10108W        W82533  19.107  31.268  12.979
10109W        W82534  25.806  38.232   0.185
10110W        W82535  26.681  10.309   1.497
10111W        W82536  26.449  38.889  10.689
10112W        W82537  21.621  31.165  11.951
10113W        W82538  39.011  12.143   0.938
10114W        W82539  29.632  36.843  12.313
10115W        W82540  26.000  11.635   0.872
10116W        W82541  26.227   0.906   2.169
10117W        W82542   6.646  14.773  13.364
10118W        W82543  30.935  43.448  12.492
10119W        W82544  33.108  36.905  10.951
10120W        W82545  12.612  35.562  13.160
10121W        W82546  26.387  32.808   3.824
10122W        W82547   9.742   0.509   1.876
10123W        W82548   4.954  30.676  10.706
10124W        W82549   0.797   8.198  14.937
10125W        W82550  35.524  21.312   0.331
10126W        W82551   2.866  16.560  13.280
10127W        W82552  24.974  21.068  13.437
10128W        W82553  42.146   4.347  14.993
10129W        W82554  35.495  16.145  10.691
10130W        W82555   7.928  24.155   5.335
10131W        W82556   7.338  22.406   3.780
10132W        W82557  28.829  34.567  12.441
10133W        W82558  35.836  21.158   0.707
10134W        W82559  15.912  44.827  14.347
10135W        W82560   3.021  25.113  13.901
10136W        W82561   6.281  12.692  10.368
10137W        W82562  11.578  44.989  14.694
10138W        W82563  21.070  41.957   4.518
10139W        W82564  19.987   1.846  12.455
10140W        W82565  10.862  21.016   1.669
10141W        W82566  16.290  33.626  12.425
10142W        W82567  36.759  18.544   2.478
10143W        W82568  25.986   6.323  10.434
10144W        W82569   7.129  15.959  13.939
10145W        W82570  15.201  40.524   3.238
10146W        W82571   1.890  27.202  11.577
10147W        W82572   5.174  37.976  13.734
10148W        W82573  36.905  40.494   4.598
10149W        W82574  29.848  42.082   5.068
10150W        W82575  34.525  16.703  14.986
10151W        W82576  17.987  43.877  11.632
10152W        W82577  42.707   8.614  11.159
10153W        W82578   0.354  27.640  11.115
10154W        W82579  18.038   6.887   2.055
10155W        W82580  13.948   0.519   1.377
10156W        W82581  22.634  44.185   3.122
10157W        W82582   3.708  34.665   3.309
10158W        W82583  15.788  18.599  14.643
10159W        W82584  10.223  31.489  14.894
10160W        W82585  10.338   3.416  10.351
10161W        W82586  29.441  44.494   4.138
10162W        W82587  30.932  15.030  12.286
10163W        W82588   6.331  12.281   1.772
10164W        W82589  30.194  22.204   1.847
10165W        W82590  21.100  36.993  13.642
10166W        W82591  29.726  26.606   3.702
10167W        W82592  11.314  10.676  14.063
10168W        W82593  25.024  18.618   1.480
10169W        W82594  25.513  43.495  14.834
10170W        W82595   6.358  13.827   3.627
10171W        W82596  36.936   2.912  10.989
10172W        W82597   3.596  11.616   4.188
10173W        W82598  43.993  13.171  13.078
10174W        W82599  12.660   7.923   0.695
10175W        W82600  28.390  19.426  11.599
10176W        W82601  22.240  41.993   2.251
10177W        W82602  30.027  10.343   3.302
10178W        W82603  17.701   4.572   2.419
10179W        W82604  17.146  26.981  11.717
10180W        W82605  20.774  18.239   1.355
10181W        W82606  40.354   0.556   4.051
10182W        W82607  14.877  36.238   2.203
10183W        W82608  38.596  10.626   2.395
10184W        W82609   3.708   3.931   4.201
10185W        W82610  37.984   6.614   2.294
10186W        W82611  28.174   3.209   4.160
10187W        W82612  39.433  17.582  11.126
10188W        W82613  40.407  26.912  14.449
10189W        W82614  33.346  30.172   1.810
10190W        W82615  13.215  44.837  14.383
10191W        W82616  35.951  16.405  12.470
10192W        W82617  37.779  35.875   1.878
10193W        W82618  41.946  20.980   1.467
10194W        W82619  19.236   9.191   1.322
10195W        W82620  43.417  21.333   1.765
10196W        W82621  42.383  25.879  14.974
10197W        W82622  40.544  14.695  14.822
10198W        W82623   6.176  12.613  11.421
10199W        W82624  33.459  14.353  14.492
10200W        W82625  44.974  41.633  13.925
10201W        W82626  17.138  14.472  10.677
10202W        W82627  29.433   0.412  10.423
10203W        W82628   1.361  31.156   4.490
10204W        W82629  13.481  23.147   1.388
10205W        W82630  25.517  11.780  12.991
10206W        W82631  28.838  16.391  10.831
10207W        W82632  18.255  40.425   0.059
10208W        W82633  22.067  15.471   3.870
10209W        W82634  44.524  32.447  13.768
10210W        W82635  24.066  20.454   1.438
10211W        W82636   8.797  10.956   1.963
10212W        W82637  28.880  28.226   1.313
10213W        W82638  32.692  12.319  13.780
10214W        W82639  25.474   6.103   3.220
10215W        W82640  44.898  25.100  12.834
10216W        W82641  44.553  10.234  12.302
10217W        W82642  12.125  27.550   3.866
10218W        W82643  21.827   3.790  10.747
10219W        W82644  19.313  37.391   1.285
10220W        W82645   0.896  28.487   0.270
10221W        W82646  41.044   2.678  14.827
10222W        W82647  19.055  30.598  14.386
10223W        W82648  19.240  40.082   1.682
10224W        W82649  24.088  36.819  14.261
10225W        W82650  34.033  14.724   1.877
10226W        W82651   7.080  29.510   4.316
10227W        W82652  18.225  18.047   4.278
10228W        W82653  21.137  18.734  14.402
10229W        W82654  16.050  25.228   1.898
10230W        W82655  11.348   2.531  11.066
10231W        W82656  42.342  25.891   4.253
10232W        W82657  20.103  41.495  12.623
10233W        W82658  30.884   7.445   3.774
10234W        W82659   7.424  43.516  13.035
10235W        W82660  10.188   9.753  10.788
10236W        W82661  30.167  32.337   0.830
10237W        W82662  34.143  26.564  11.999
10238W        W82663  24.673  16.993  12.895
10239W        W82664   0.570  28.442  14.320
10240W        W82665  38.869  12.736  10.695
10241W        W82666   6.672  43.975   1.606
10242W        W82667  22.088  22.517  12.689
10243W        W82668  28.573  33.929  13.500
10244W        W82669  38.496  15.600   4.101
10245W        W82670  11.010   1.706   0.280
10246W        W82671  18.553  10.673  11.979
10247W        W82672  31.021  18.574   0.362
10248W        W82673  31.417   1.127   0.857
10249W        W82674  42.407  44.213   1.393
10250W        W82675   3.841  38.209  13.591
10251W        W82676  23.262   4.280   3.419
10252W        W82677  19.182  40.932   2.319
10253W        W82678  22.603  39.614  12.631
10254W        W82679  29.634   0.069   3.232
10255W        W82680   7.090  33.912  11.524
10256W        W82681  41.066  27.966   3.201
10257W        W82682  17.835   1.564  12.128
10258W        W82683  34.880  41.365  12.078
10259W        W82684  18.596   5.536  13.808
10260W        W82685  18.533  19.915  12.890
10261W        W82686  25.782   7.407   4.589
10262W        W82687  43.955  24.732  11.579
10263W        W82688  40.300  22.529  12.205
10264W        W82689  42.118  14.442  11.125
10265W        W82690   0.049  17.772   1.438
10266W        W82691  30.945  29.713  12.307
10267W        W82692  27.075  17.327  12.143
10268W        W82693  13.671   8.793  11.695
10269W        W82694  26.648  21.199   2.300
10270W        W82695  42.149  28.147  12.120
10271W        W82696  33.197  22.155  11.425
10272W        W82697  31.427  41.428  13.425
10273W        W82698  34.228   4.647   2.695
10274W        W82699   6.690  24.257   0.080
10275W        W82700  23.235  15.202  14.445
10276W        W82701   3.601  37.296   3.311
10277W        W82702  43.547  27.709   2.702
10278W        W82703  13.442  30.547   0.866
10279W        W82704  23.428   1.503  13.472
10280W        W82705   2.514   6.498  13.097
10281W        W82706  15.175   3.306  14.332
10282W        W82707   4.338  29.153  12.138
10283W        W82708  33.505  42.186  11.014
10284W        W82709  27.637  12.776   1.638
10285W        W82710  44.888   2.342   1.880
10286W        W82711  23.835  40.236   4.087
10287W        W82712  19.746   1.985   2.431
10288W        W82713  17.131  44.093   2.699
10289W        W82714  28.422  31.023   1.697
10290W        W82715   5.751  16.888   2.735
10291W        W82716  33.943  23.490   1.692
10292W        W82717  37.982  39.992  13.482
10293W        W82718  42.438  20.852   2.662
10294W        W82719  34.953  18.655  12.450
10295W        W82720  40.953  27.104   2.336
10296W        W82721  36.992  28.210  11.001
10297W        W82722   7.573  36.089  12.061
10298W        W82723  27.749  16.237   1.239
10299W        W82724  43.564  18.428  13.072
10300W        W82725  44.403   1.808  11.429
10301W        W82726  25.147  10.002   3.235
10302W        W82727   9.607   9.804   2.987
10303W        W82728  20.600   0.036   2.188
10304W        W82729  11.743  35.875  11.468
10305W        W82730  32.320  11.839  12.760
10306W        W82731   2.539  30.618   3.678
10307W        W82732   5.950  25.206  13.442
10308W        W82733   9.500   7.740   2.283
10309W        W82734  28.674  43.941  13.587
10310W        W82735  44.409  17.015  14.569
10311W        W82736  19.035   6.292  14.336
10312W        W82737  28.917  24.765   4.285
10313W        W82738  28.884   2.509  14.455
10314W        W82739  41.849  27.340   2.909
10315W        W82740   0.669  19.660   3.715
10316W        W82741   2.062  10.895  11.925
10317W        W82742  31.390  40.047   4.268
10318W        W82743  27.091  37.369  10.883
10319W        W82744   4.981  31.829   1.807
10320W        W82745   7.872   5.457   4.161
10321W        W82746  31.433  33.211  11.643
10322W        W82747  25.495  18.998  12.580
10323W        W82748  35.177  42.723   3.707
10324W        W82749   1.752   8.722   0.798
10325W        W82750  23.252  38.823  12.532
10326W        W82751  38.925  34.539   1.374
10327W        W82752  24.767   3.034  13.356
10328W        W82753   7.886  14.930   2.534
10329W        W82754  26.487  10.843  11.530
10330W        W82755  42.541   9.118  11.249
10331W        W82756   4.962   0.530  10.348
10332W        W82757  30.148  17.715  12.856
10333W        W82758  41.418  26.115  13.373
10334W        W82759  29.087  28.014   3.570
10335W        W82760   9.238  19.544  10.698
10336W        W82761  11.360  37.325  14.598
10337W        W82762  35.614  32.590   3.724
10338W        W82763  23.718  25.073   1.869
10339W        W82764  30.145  28.529   0.330
10340W        W82765  15.794  11.211   4.622
10341W        W82766  23.045  28.365   4.400
10342W        W82767  38.101  15.275  10.492
10343W        W82768   6.889  17.613  14.749
10344W        W82769   1.353  35.436   2.874
10345W        W82770  24.628   7.930  14.322
10346W        W82771  27.376  29.295  11.749
10347W        W82772  21.903  37.183  14.955
10348W        W82773  31.887  15.639  14.367
10349W        W82774   6.284  40.918  12.357
10350W        W82775  21.101   5.065   3.600
10351W        W82776  36.625  19.168   4.703
10352W        W82777  23.462  28.987   3.067
10353W        W82778  12.698  30.910   2.564
10354W        W82779   2.252  44.667  11.658
10355W        W82780  41.543   5.188  11.192
10356W        W82781   7.865  37.987  10.931
10357W        W82782  25.031  34.792   0.523
10358W        W82783  23.673  27.419   2.623
10359W        W82784  26.023  39.999  14.303
10360W        W82785  17.709  35.441  10.636
10361W        W82786  41.833  22.093  14.271
10362W        W82787  10.368  36.611  11.400
10363W        W82788   4.212  16.093  13.977
10364W        W82789  14.736  21.344   1.232
10365W        W82790  16.633  33.829   2.215
10366W        W82791  16.370  39.805   3.470
10367W        W82792  43.919  17.652   0.810
10368W        W82793  35.029  24.928   1.358
10369W        W82794  35.431   9.449  14.041
10370W        W82795   5.287  10.396   1.843
10371W        W82796  33.232  26.618   3.341
10372W        W82797  26.202  10.188  12.112
10373W        W82798   6.963  27.901  11.691
10374W        W82799  17.568  13.174  13.924
10375W        W82800  40.322  28.332   1.807
10376W        W82801  32.426  23.291   2.535
10377W        W82802  25.050  27.369   2.315
10378W        W82803   8.870  23.215   2.281
10379W        W82804  32.702   3.826   4.096
10380W        W82805   1.305  13.103  14.374
10381W        W82806  26.631  14.467   4.602
10382W        W82807  40.826  35.877   2.603
10383W        W82808  43.035  36.371   4.539
10384W        W82809  13.840  43.431   4.945
10385W        W82810   8.410   6.158   2.363
10386W        W82811  36.189  36.333   3.236
10387W        W82812  19.397   0.217  11.160
10388W        W82813   6.472  10.128   4.565
10389W        W82814  20.563  19.669  10.935
10390W        W82815  25.775   1.689   4.237
10391W        W82816  19.678  31.148   2.738
10392W        W82817   6.438  31.791  12.079
10393W        W82818   9.105  38.369  13.576
10394W        W82819  36.548  27.735  11.675
10395W        W82820   2.423  41.600   3.252
10396W        W82821  24.332  35.570  13.135
10397W        W82822  13.101   1.747   4.544
10398W        W82823  19.287  13.068  14.793
10399W        W82824  42.936  22.030  14.788
10400W        W82825  39.919   0.877  10.573
10401W        W82826  39.544  34.460   2.048
10402W        W82827  10.904  41.923   4.200
10403W        W82828  14.871  13.792   1.877
10404W        W82829  20.344  12.881  12.592
10405W        W82830  35.168  40.029   3.295
10406W        W82831   1.175  22.626  13.738
10407W        W82832  12.160  17.310   2.477
10408W        W82833  21.786   3.417  11.552
10409W        W82834   1.912   5.385  11.019
10410W        W82835  22.767  20.119  12.443
10411W        W82836   7.299  38.943  14.307
10412W        W82837  38.016  21.376  12.770
10413W        W82838  30.956   1.496  10.666
10414W        W82839  26.680   1.448   3.266
10415W        W82840  40.072  26.172   4.124
10416W        W82841   4.732  37.302  13.411
10417W        W82842   5.175  19.126   2.290
10418W        W82843   2.961  40.071  13.901
10419W        W82844  43.491  23.418  10.667
10420W        W82845  14.568  15.431  12.858
10421W        W82846  31.670  24.740  11.861
10422W        W82847  15.796  30.085  14.231
10423W        W82848  10.967  39.605   0.392
10424W        W82849   2.683  11.886   2.729
10425W        W82850  29.133   9.058   4.522
10426W        W82851   2.348  32.754  12.899
10427W        W82852  11.372  38.305   0.649
10428W        W82853  33.633  21.242  12.996
10429W        W82854  15.206  31.120  13.480
10430W        W82855  17.723  34.535  11.968
10431W        W82856  32.667  21.742   3.597
10432W        W82857  15.617   2.805   1.755
10433W        W82858  38.310  42.333   3.677
10434W        W82859  29.000   1.904  11.577
10435W        W82860   4.512  15.039  11.089
10436W        W82861   6.676  37.645   0.258
10437W        W82862  30.037  12.249  11.802
10438W        W82863  23.426  31.309   3.344
10439W        W82864  16.342  43.527  13.986
10440W        W82865  10.155  29.460   3.238
10441W        W82866  43.410  16.083  12.505
10442W        W82867   1.769  21.755   0.959
10443W        W82868  39.918  37.433  14.421
10444W        W82869   0.571  31.505   0.899
10445W        W82870  26.007  28.559   1.416
10446W        W82871  42.703  38.934  13.746
10447W        W82872   8.288  23.733  11.182
10448W        W82873  28.738  30.471  13.966
10449W        W82874  10.039   9.888  11.282
10450W        W82875  38.988  38.818   0.447
10451W        W82876  31.519   6.123  10.502
10452W        W82877  44.565   2.972   1.312
10453W        W82878  27.213  21.321   1.212
10454W        W82879  38.062  39.288   0.295
10455W        W82880   3.821  38.109   3.372
10456W        W82881  38.403  34.209  11.597
10457W        W82882  20.979  10.175   1.830
10458W        W82883  39.877  42.223   2.155
10459W        W82884  14.807  41.980  13.547
10460W        W82885  10.788   0.881   0.362
10461W        W82886  24.525  33.901  12.911
10462W        W82887  13.602   9.431   2.706
10463W        W82888   4.296   6.638  12.648
10464W        W82889   6.846   7.247   3.915
10465W        W82890  33.593  12.898   1.395
10466W        W82891  13.296  14.108  10.369
10467W        W82892  38.297  16.302  12.069
10468W        W82893   0.240  24.493   3.241
10469W        W82894  32.722   0.293   3.883
10470W        W82895   4.703  22.686  14.064
10471W        W82896  15.875  12.174   4.874
10472W        W82897  17.050  13.985   3.094
10473W        W82898  29.658  16.331   4.274
10474W        W82899  37.509  40.461  12.024
10475W        W82900  42.743  17.019   3.573
10476W        W82901  35.813  12.757   4.660
10477W        W82902  33.477  27.730   1.802
10478W        W82903  15.898  43.796  14.092
10479W        W82904   7.393  43.001   0.761
10480W        W82905  21.495  21.139  12.603
10481W        W82906   0.569  34.032  11.414
10482W        W82907  43.544  21.242  13.504
10483W        W82908  30.319  21.515  13.435
10484W        W82909  15.063  32.901   5.009
10485W        W82910  22.087  32.155   1.846
10486W        W82911  30.102  29.048  10.484
10487W        W82912  20.585  13.688  12.573
10488W        W82913  10.323  20.602  12.433
10489W        W82914  32.603   9.363  12.546
10490W        W82915   6.478  39.286   0.968
10491W        W82916  17.754  12.668  12.550
10492W        W82917  32.466  21.177   1.621
10493W        W82918  21.153  16.439  13.423
10494W        W82919   4.244  27.254  11.571
10495W        W82920  39.020   3.788  11.009
10496W        W82921   5.324  28.250   3.051
10497W        W82922   6.424   5.972  13.042
10498W        W82923  28.635  25.159  13.866
10499W        W82924  22.056  38.768  12.632
10500W        W82925  30.584  17.521  10.707
10501W        W82926   4.161  35.184  14.826
10502W        W82927   3.382  42.467  12.411
10503W        W82928  39.810  32.614  12.048
10504W        W82929  26.737  24.033  14.827
10505W        W82930  16.169  32.543  11.421
10506W        W82931  27.253  22.015  13.949
10507W        W82932  36.027  26.718  13.304
10508W        W82933   4.251   7.202  14.788
10509W        W82934   3.710  19.207  13.620
10510W        W82935   1.175  20.516   1.510
10511W        W82936  24.752  16.010   3.154
10512W        W82937  33.581  14.342   0.038
10513W        W82938   6.275   5.752   2.351
10514W        W82939  18.171  37.027  14.460
10515W        W82940  33.388  23.670   2.909
10516W        W82941  44.531   3.319   0.288
10517W        W82942  32.103   4.556  10.416
10518W        W82943  33.164  24.198  14.044
10519W        W82944  25.465  40.643   1.348
10520W        W82945  14.831  24.445  14.448
10521W        W82946  16.118  17.844  12.033
10522W        W82947  10.657  24.575  12.059
10523W        W82948  40.016  42.091  11.683
10524W        W82949  24.507  12.860   1.538
10525W        W82950  15.492  12.340   2.892
10526W        W82951  13.047  39.480   3.282
10527W        W82952  22.926  39.961  12.923
10528W        W82953  26.203   0.050   0.365
10529W        W82954   2.638  15.255   4.616
10530W        W82955   6.084  35.990  14.176
10531W        W82956  44.541  22.644   4.105
10532W        W82957   7.791  36.618  14.504
10533W        W82958  18.532  14.346   3.606
10534W        W82959   4.885  17.336   1.271
10535W        W82960  13.075  10.580  13.354
10536W        W82961   1.986  15.343  10.941
10537W        W82962  19.678  28.700  12.189
10538W        W82963  12.223  27.293  12.171
10539W        W82964   1.782  33.134  13.478
10540W        W82965   2.266  16.161   4.623
10541W        W82966  43.370  44.604   2.924
10542W        W82967  26.078  12.917  11.686
10543W        W82968  18.017  12.388   1.372
10544W        W82969   2.495  43.326   2.266
10545W        W82970   0.914   9.908  13.848
10546W        W82971  32.993   5.785   1.378
10547W        W82972  11.241  43.960   0.261
10548W        W82973  24.586  37.090   2.471
10549W        W82974  18.519  32.414  11.606
10550W        W82975  27.124  30.692   4.992
10551W        W82976   5.417  35.108  10.205
10552W        W82977  17.958  17.525  11.084
10553W        W82978  18.134  42.934   4.562
10554W        W82979   8.664  20.538  14.472
10555W        W82980  15.566  15.578  13.694
10556W        W82981   6.669  10.582  11.571
10557W        W82982  28.814   3.866   2.085
10558W        W82983  32.407  33.142  14.359
10559W        W82984  19.434  32.406   1.289
10560W        W82985  21.542   1.006   3.392
10561W        W82986   6.796  32.575  13.832
10562W        W82987  19.304   9.370  13.899
10563W        W82988  38.050  41.117   4.046
10564W        W82989  16.775  44.289  12.507
10565W        W82990  35.587   1.539   0.478
10566W        W82991  28.028  16.685  13.808
10567W        W82992  41.803  33.940  11.038
10568W        W82993  26.474   5.960   2.631
10569W        W82994   7.697  38.478  11.073
10570W        W82995   5.410  25.207   0.401
10571W        W82996  10.645  13.777  11.564
10572W        W82997  26.186  34.382  11.137
10573W        W82998  18.297  21.192   2.150
10574W        W82999   8.180  15.010  14.309
10575W        W83000  33.632   4.990  11.303
10576W        W83001  43.446  39.349   0.738
10577W        W83002  44.307  17.075   4.287
10578W        W83003  13.222  18.763   2.323
10579W        W83004  27.475   3.591   1.313
10580W        W83005  11.588  11.662   0.519
10581W        W83006  35.951  20.096   3.835
10582W        W83007  35.954  11.883   3.215
10583W        W83008  25.364  31.676  13.643
10584W        W83009  21.027  19.342   3.550
10585W        W83010   4.459   5.196  11.585
10586W        W83011  43.691  20.474  13.558
10587W        W83012  20.029  28.623  14.515
10588W        W83013  10.349  29.718   1.864
10589W        W83014   9.988  24.232  10.411
10590W        W83015  36.610  31.108   4.927
10591W        W83016   2.357  22.770  13.514
10592W        W83017  42.803  19.649   2.728
10593W        W83018  34.051  39.261   4.408
10594W        W83019  32.354   6.903   3.287
10595W        W83020  15.228  21.622  12.712
10596W        W83021  26.454  22.998   1.953
10597W        W83022  38.798  26.829  11.905
10598W        W83023  15.056  44.676  12.569
10599W        W83024   6.786  33.825  14.794
10600W        W83025  34.860  41.821   2.715
10601W        W83026  35.655  41.140   0.969
10602W        W83027  29.548  39.163  14.325
10603W        W83028  27.746  17.039   3.637
10604W        W83029  30.024  11.683   1.291
10605W        W83030  42.961  21.612   2.897
10606W        W83031  40.844  38.945  12.848
10607W        W83032   0.621  39.949   0.363
10608W        W83033  16.595  19.763  13.764
10609W        W83034   2.750  14.692   2.958
10610W        W83035  44.238   6.696   4.115
10611W        W83036   6.933  18.566   1.039
10612W        W83037  33.154  28.194   2.363
10613W        W83038  42.083   1.880   1.321
10614W        W83039  18.307  41.230  12.959
10615W        W83040  12.797   8.853   0.945
10616W        W83041  14.098  35.345   3.374
10617W        W83042   0.933  38.383   4.094
10618W        W83043  28.896  34.088  13.045
10619W        W83044  20.073  29.818   0.663
10620W        W83045  20.201  38.935  12.055
10621W        W83046  16.091  33.062  14.708
10622W        W83047  25.185   4.724   2.403
10623W        W83048  25.719  21.613  14.572
10624W        W83049  16.325  12.197  14.858
10625W        W83050  41.244  29.645   1.468
10626W        W83051  29.696   4.889  11.272
10627W        W83052   5.125  26.794  13.630
10628W        W83053  11.346   7.245   3.411
10629W        W83054  40.989  36.134   1.647
10630W        W83055  22.063  11.716  13.306
10631W        W83056  32.246  28.218  12.307
10632W        W83057  43.050   8.759   4.950
10633W        W83058  27.353  23.007   1.669
10634W        W83059  19.633  31.947   4.239
10635W        W83060  18.538  15.190  11.590
10636W        W83061  16.034  13.206   4.745
10637W        W83062  26.614  14.553   9.969
10638W        W83063  25.046   9.670  12.495
10639W        W83064  15.537  23.028  11.951
10640W        W83065  12.653  23.270   4.773
10641W        W83066  12.253   5.233   2.924
10642W        W83067   8.974  27.764   3.472
10643W        W83068  10.263  40.767   1.896
10644W        W83069  40.116  26.166  13.828
10645W        W83070  17.079  42.906  14.326
10646W        W83071  10.816  39.380  13.341
10647W        W83072  33.882   0.399  11.985
10648W        W83073  20.037  27.022  12.559
10649W        W83074  43.007  29.924   2.256
10650W        W83075  15.636  29.205   1.709
10651W        W83076  27.629  42.470  10.620
10652W        W83077   3.826  31.031  11.826
10653W        W83078  41.055  44.716   1.896
10654W        W83079  11.772  43.261   0.130
10655W        W83080  25.096   4.363  11.979
10656W        W83081  42.920  27.789  14.952
10657W        W83082   1.515  32.718   1.639
10658W        W83083  24.185   6.680  11.933
10659W        W83084   3.407  34.100  10.628
10660W        W83085  35.853  34.326  12.100
10661W        W83086   1.957   3.348   1.885
10662W        W83087  14.784  13.812   2.823
10663W        W83088  27.647  33.074   4.075
10664W        W83089  22.651  33.854   0.477
10665W        W83090   5.873   7.108  14.876
10666W        W83091   3.445   5.636   0.308
10667W        W83092   4.231  40.094   0.474
10668W        W83093  40.439   8.109  14.382
10669W        W83094  24.221  15.529  12.961
10670W        W83095  23.637  20.967  13.849
10671W        W83096  31.587  34.842   2.350
10672W        W83097  12.293  10.357   4.732
10673W        W83098  20.597   7.860   3.814
10674W        W83099   5.755  13.192  12.971
10675W        W83100  18.757  32.894  12.430
10676W        W83101  13.789   6.351  14.271
10677W        W83102   0.356  42.138  12.187
10678W        W83103  19.107  11.218  14.500
10679W        W83104  41.135   0.749  11.505
10680W        W83105  37.589  44.974  13.384
10681W        W83106  25.945  37.561  14.315
10682W        W83107  39.409   1.501   1.767
10683W        W83108  39.158  29.179   0.795
10684W        W83109  40.840  16.627   0.923
10685W        W83110   1.665  36.326  13.835
10686W        W83111  39.053  32.951  14.218
10687W        W83112  41.986  23.161  12.952
10688W        W83113  36.897  30.789   4.084
10689W        W83114  28.191  42.026  10.163
10690W        W83115  40.776  11.766   3.251
10691W        W83116  22.464   7.883  11.252
10692W        W83117   1.841  25.552  13.532
10693W        W83118  26.390   6.171   0.778
10694W        W83119  18.533   1.166  10.673
10695W        W83120  27.996  11.802  11.908
10696W        W83121  32.583   2.685  12.072
10697W        W83122  23.185   2.400  13.865
10698W        W83123  37.823  43.812   2.667
10699W        W83124  10.590  14.674  14.464
10700W        W83125  16.332  34.196   4.137
10701W        W83126   2.357   2.157  10.988
10702W        W83127  17.854  44.280   5.000
10703W        W83128  41.335  30.460   4.613
10704W        W83129   0.369  40.115  11.175
10705W        W83130  39.745  22.942   2.862
10706W        W83131  16.081   5.939   1.667
10707W        W83132  17.656  26.416  13.324
10708W        W83133  35.304  25.942   0.460
10709W        W83134  22.167  28.667   4.390
10710W        W83135  41.566   6.273  12.446
10711W        W83136  31.191  21.814   2.680
10712W        W83137  12.184  18.559  14.409
10713W        W83138  40.798  29.013  10.594
10714W        W83139  25.907  28.114   1.764
10715W        W83140  14.170  41.224  12.990
10716W        W83141  32.774  18.485   1.751
10717W        W83142   0.402  39.674   4.676
10718W        W83143  15.963  32.785   2.238
10719W        W83144  18.013  32.781   5.048
10720W        W83145  27.647  40.203   1.638
10721W        W83146  24.565  40.437  10.672
10722W        W83147   2.825  44.409   3.309
10723W        W83148  36.641  37.331  13.992
10724W        W83149   6.407   2.291  13.835
10725W        W83150  13.134  34.315  12.843
10726W        W83151  23.772  25.464  11.183
10727W        W83152  29.012   1.726   2.294
10728W        W83153  13.886   6.800   4.057
10729W        W83154  10.914  15.450  12.046
10730W        W83155  14.834  10.384   3.461
10731W        W83156  17.602   9.393   0.926
10732W        W83157  15.727   3.522   0.239
10733W        W83158  19.585  12.447   3.510
10734W        W83159  15.075   0.366  11.133
10735W        W83160   0.209   7.631   2.270
10736W        W83161  10.622   0.370   3.820
10737W        W83162  25.982  44.739   0.721
10738W        W83163  21.520  30.493  10.756
10739W        W83164  11.754   6.909  11.695
10740W        W83165  37.950  17.171  12.936
10741W        W83166   8.696  40.590   3.075
10742W        W83167  22.228  15.499  14.506
10743W        W83168  24.227  21.531  12.098
10744W        W83169  14.310  35.388   0.307
10745W        W83170  18.989  12.654  14.847
10746W        W83171   0.353   5.721   0.856
10747W        W83172  32.621  34.597   4.543
10748W        W83173  10.528  32.867   4.591
10749W        W83174  34.381   0.040  10.654
10750W        W83175  30.187  38.635   5.551
10751W        W83176  24.736  34.533  12.578
10752W        W83177  23.984  42.750   2.459
10753W        W83178  15.172  21.301  11.932
10754W        W83179  40.471  35.763  12.134
10755W        W83180  20.788  11.590  13.876
10756W        W83181  44.844  31.552  10.203
10757W        W83182  29.173  12.886   1.672
10758W        W83183  34.012   2.347  14.981
10759W        W83184   5.361  22.887   3.777
10760W        W83185  23.521  28.249  14.743
10761W        W83186  40.955  40.908   2.800
10762W        W83187   3.145  44.449  10.493
10763W        W83188   5.405  28.198   2.205
10764W        W83189  26.081   5.839   3.554
10765W        W83190  18.200  19.137   3.290
10766W        W83191  38.829  24.035   4.005
10767W        W83192  27.996   7.566   1.723
10768W        W83193  31.113  44.329   5.037
10769W        W83194  43.032  24.690  13.122
10770W        W83195  30.224  34.969  12.927
10771W        W83196  36.861  33.837  12.118
10772W        W83197  15.762  22.559  11.878
10773W        W83198  15.260  17.144   0.144
10774W        W83199  31.629   7.547  10.759
10775W        W83200  42.257  32.170   4.892
10776W        W83201  16.996   3.958   2.189
10777W        W83202  43.389  22.828  11.132
10778W        W83203  27.981  20.653   4.075
10779W        W83204  41.463  29.997   1.105
10780W        W83205   8.538  16.833   3.889
10781W        W83206  14.383  14.402   2.342
10782W        W83207   9.636   4.239   0.939
10783W        W83208  44.447  18.649  12.816
10784W        W83209  34.153  31.518  13.803
10785W        W83210  30.097  13.884   2.390
10786W        W83211  22.168  17.220   2.422
10787W        W83212  44.026  31.634   1.867
10788W        W83213  27.016  27.876  14.538
10789W        W83214   6.725   9.838   1.101
10790W        W83215  20.447   2.841  14.783
10791W        W83216  33.987  30.068   1.895
10792W        W83217  35.441  16.757   2.402
10793W        W83218  39.183  16.970   2.704
10794W        W83219  15.578   8.872  13.114
10795W        W83220   7.213  15.639  13.391
10796W        W83221  18.498  38.133   0.474
10797W        W83222  26.396  21.419   4.295
10798W        W83223  37.073  18.741   0.464
10799W        W83224   3.285  39.368   4.879
10800W        W83225  35.966  28.738   0.243
10801W        W83226   5.751  15.321  14.455
10802W        W83227   2.638   9.777  14.328
10803W        W83228   3.824  27.615   0.827
10804W        W83229  20.522  10.657  14.834
10805W        W83230  19.466   7.431   1.310
10806W        W83231  13.692  28.092  11.154
10807W        W83232  37.228  15.021   1.653
10808W        W83233  29.136  24.098   4.832
10809W        W83234   5.883  26.116  14.443
10810W        W83235   0.896  14.281  13.921
10811W        W83236  18.140   9.126   4.592
10812W        W83237   8.843   9.569   0.122
10813W        W83238  38.884   4.950   4.108
10814W        W83239  13.671  13.904   1.258
10815W        W83240  43.165   0.805   0.927
10816W        W83241  15.715  27.529  10.408
10817W        W83242  26.975  42.444   1.442
10818W        W83243  11.657  12.663   4.815
10819W        W83244   2.889  22.016   3.849
10820W        W83245  33.327   3.082   4.216
10821W        W83246  11.796  36.027  10.578
10822W        W83247  32.862   9.923   0.308
10823W        W83248   3.239  14.682  11.427
10824W        W83249  24.724  42.316   4.578
10825W        W83250  42.872  11.828  11.957
10826W        W83251  28.599  23.610   9.956
10827W        W83252  26.331  16.890   4.946
10828W        W83253  20.709  35.363   0.803
10829W        W83254  11.909  26.681  12.387
10830W        W83255   0.727  10.305  13.571
10831W        W83256  11.123   9.274  14.988
10832W        W83257  18.281  34.562   3.482
10833W        W83258  37.788  25.088  11.612
10834W        W83259  12.122  41.323  12.067
10835W        W83260  15.403  17.076   3.663
10836W        W83261  12.687  15.324   2.919
10837W        W83262   0.036  20.481  14.844
10838W        W83263  28.137  14.541   4.690
10839W        W83264  44.742  13.807  14.490
10840W        W83265   9.876  16.600   0.829
10841W        W83266  21.600  11.379  11.039
10842W        W83267  38.935   7.930   4.144
10843W        W83268  34.036  12.611  12.385
10844W        W83269  15.636  42.849  13.000
10845W        W83270  44.015  11.286  11.611
10846W        W83271  26.476  36.680   2.793
10847W        W83272  32.198  16.305  14.496
10848W        W83273  41.017  37.910  10.751
10849W        W83274  33.134  29.598  11.581
10850W        W83275   2.821   8.814  12.901
10851W        W83276   3.107  30.624  12.785
10852W        W83277  15.062  37.158  14.009
10853W        W83278  31.235  35.175  13.910
10854W        W83279  27.616  35.240  11.269
10855W        W83280   8.165  44.956   2.339
10856W        W83281  22.836  15.740  13.565
10857W        W83282  22.503  43.561   0.365
10858W        W83283  14.537  20.669  13.916
10859W        W83284  42.462  17.693   3.643
10860W        W83285  20.280  35.413  12.880
10861W        W83286  34.842   6.919   5.421
10862W        W83287  24.021  13.145   0.036
10863W        W83288   5.777  35.352   4.158
10864W        W83289  25.643  20.487  10.844
10865W        W83290   5.858   8.327   0.827
10866W        W83291  40.963  23.285   0.123
10867W        W83292  11.290  25.978  13.840
10868W        W83293   6.140   9.168   0.645
10869W        W83294  24.590   5.876   4.718
10870W        W83295  28.853   0.769  14.159
10871W        W83296  18.805   3.808  10.555
10872W        W83297  30.098  39.282   3.696
10873W        W83298  33.008  40.013   1.377
10874W        W83299  39.906  23.226   3.890
10875W        W83300   7.711   6.748   2.459
10876W        W83301  22.111  15.635   1.809
10877W        W83302   4.805  35.559  12.838
10878W        W83303  36.961  17.552  13.915
10879W        W83304   0.609   8.204   0.717
10880W        W83305  10.938  42.042  13.316
10881W        W83306  17.711  40.743   2.294
10882W        W83307  10.815  21.774   2.181
10883W        W83308  14.813  11.358   2.573
10884W        W83309  14.621  22.040  13.905
10885W        W83310   8.739  34.089   4.751
10886W        W83311  31.165   2.276   4.798
10887W        W83312  21.225  32.344   1.387
10888W        W83313  12.305   5.845  12.558
10889W        W83314   4.390   5.377  14.892
10890W        W83315  32.563   9.152  11.413
10891W        W83316  25.680  16.117  10.427
10892W        W83317   7.820  27.018   4.611
10893W        W83318  37.832  36.528  13.354
10894W        W83319   3.449  15.230   1.434
10895W        W83320  37.621  41.944   0.419
10896W        W83321  34.154   8.967   0.277
10897W        W83322  27.933  40.399  13.965
10898W        W83323  15.714  22.761   2.117
10899W        W83324  25.103   9.409  12.049
10900W        W83325   2.152   1.678  13.016
10901W        W83326  43.364  38.311  10.659
10902W        W83327  43.506  12.386   0.982
10903W        W83328  30.946  32.122   3.704
10904W        W83329  16.426  44.282   4.749
10905W        W83330  15.330  31.464   1.952
10906W        W83331  14.839  30.643   0.883
10907W        W83332  11.925  39.357  12.623
10908W        W83333  26.656   3.194  14.806
10909W        W83334  24.742  16.169  11.067
10910W        W83335  16.790  23.342   4.993
10911W        W83336  16.054  28.175  12.093
10912W        W83337  33.648  21.106   4.532
10913W        W83338   6.331  14.860   0.254
10914W        W83339   1.976  27.278   3.280
10915W        W83340  34.848   5.144   3.172
10916W        W83341  38.522  38.146  12.346
10917W        W83342  13.226  18.055  11.598
10918W        W83343  17.374   4.925   2.218
10919W        W83344  29.852  29.493   2.997
10920W        W83345   5.603  30.187  13.326
10921W        W83346  19.514  11.171  10.689
10922W        W83347  37.599  10.656  11.579
10923W        W83348  44.373   9.307  11.214
10924W        W83349  34.453  37.384   3.554
10925W        W83350   3.445  11.994   1.164
10926W        W83351  40.492  19.944   3.800
10927W        W83352   4.049  23.608  11.581
10928W        W83353  28.819   1.742  12.333
10929W        W83354  33.543  27.495   0.909
10930W        W83355   1.466  14.996   1.083
10931W        W83356   6.926  41.982  11.584
10932W        W83357   5.121  35.349   0.019
10933W        W83358  34.871  13.356  10.767
10934W        W83359  16.351   9.064  14.282
10935W        W83360   3.556  39.554   1.068
10936W        W83361   6.344  25.771   2.742
10937W        W83362  25.284  30.028  11.134
10938W        W83363  34.977  39.415  11.982
10939W        W83364  14.103  21.486   3.206
10940W        W83365   8.963  25.275   0.270
10941W        W83366  43.024  11.215   0.484
10942W        W83367  38.232  40.871   2.391
10943W        W83368  34.970  31.055  13.732
10944W        W83369  21.066  13.815   4.639
10945W        W83370  34.510  17.361  11.989
10946W        W83371  30.596  30.864  14.314
10947W        W83372   5.317   6.412  14.844
10948W        W83373  30.654   8.254   1.319
10949W        W83374   5.367  41.807   1.319
10950W        W83375  20.583  23.887   0.930
10951W        W83376  39.968  11.295   4.619
10952W        W83377  41.350  28.395  13.902
10953W        W83378  27.711  17.194  10.742
10954W        W83379   5.725  44.802   2.267
10955W        W83380  42.753  13.754  13.297
10956W        W83381   0.801  19.531  12.996
10957W        W83382  43.104  17.727  13.501
10958W        W83383  18.040  15.986  10.736
10959W        W83384  36.555  15.442   3.580
10960W        W83385  34.385   0.283  11.954
10961W        W83386   2.479  21.575  12.091
10962W        W83387  32.212   9.712  12.452
10963W        W83388  38.329  43.070  11.515
10964W        W83389  43.544   7.704  12.089
10965W        W83390   5.467  35.074  14.787
10966W        W83391  16.251   1.057   0.278
10967W        W83392  27.496  34.370  12.944
10968W        W83393  26.931  15.844   1.220
10969W        W83394   1.841   8.006  14.800
10970W        W83395  27.758  26.216   4.083
10971W        W83396   2.719  44.999  11.029
10972W        W83397  12.853   0.064   4.117
10973W        W83398   2.828   2.855   4.528
10974W        W83399  14.949   7.660   4.752
10975W        W83400  28.669  41.362   9.464
10976W        W83401   3.813  28.939   2.674
10977W        W83402  35.871  11.690   2.403
10978W        W83403   2.375   4.954   2.148
10979W        W83404  19.098  13.001   1.757
10980W        W83405  17.685  24.318  12.134
10981W        W83406  34.423  13.410   1.197
10982W        W83407   4.419  42.333   3.311
10983W        W83408  26.624  42.276   2.972
10984W        W83409   8.882  18.550   2.177
10985W        W83410   1.435  23.459   0.357
10986W        W83411  40.808   3.588  12.211
10987W        W83412  38.471  13.312  14.734
10988W        W83413  37.459  11.533  11.297
10989W        W83414  31.959  38.294  11.852
10990W        W83415  10.618  25.079  13.439
10991W        W83416  25.557   7.280  10.567
10992W        W83417  19.499   9.826  13.472
10993W        W83418  26.419  19.784   4.453
10994W        W83419  23.260   2.894   0.194
10995W        W83420  34.990  44.095   2.298
10996W        W83421  37.464  23.759   1.969
10997W        W83422  43.493  43.220  13.780
10998W        W83423  11.075  29.605   1.115
10999W        W83424  34.027  11.870  13.114
11000W        W83425  17.128  33.509   3.371
11001W        W83426  25.139  14.564  12.883
11002W        W83427  14.374   3.870  13.340
11003W        W83428  26.885  19.843   3.598
11004W        W83429   7.437  27.802  12.633
11005W        W83430  11.629  20.593  14.340
11006W        W83431  42.404  24.161   3.531
11007W        W83432  29.388  15.528  14.283
11008W        W83433  20.610  32.054  11.781
11009W        W83434   6.842  14.452   1.737
11010W        W83435  13.376  39.763  14.349
11011W        W83436  19.996   7.084   3.721
11012W        W83437  35.413  43.900  11.175
11013W        W83438  44.288   8.193   1.303
11014W        W83439  26.928   4.340   1.903
11015W        W83440  28.614  39.581  11.140
11016W        W83441  43.781  37.137   0.466
11017W        W83442  36.084  32.474   2.452
11018W        W83443   4.364  43.981  12.541
11019W        W83444  42.475  15.244   0.394
11020W        W83445   7.337  25.959   4.158
11021W        W83446  16.369  26.137  10.567
11022W        W83447  40.329  12.587   3.627
11023W        W83448  18.641  13.709  14.830
11024W        W83449  20.243   4.998  12.297
11025W        W83450  32.902  11.114   2.581
11026W        W83451  38.299  36.418   4.415
11027W        W83452  35.593   0.115  11.614
11028W        W83453  44.820  26.629  10.397
11029W        W83454   4.827  11.269  11.100
11030W        W83455  37.085  37.059   2.322
11031W        W83456  14.766   2.315   4.163
11032W        W83457  38.556  37.712   0.617
11033W        W83458  42.724  10.174   1.205
11034W        W83459   5.545  12.742   1.195
11035W        W83460  18.312  38.374   1.367
11036W        W83461   2.407   0.331  12.078
11037W        W83462  28.961  41.919  14.416
11038W        W83463  11.112  25.212  11.643
11039W        W83464  28.923  28.419  13.379
11040W        W83465  27.764  37.879   4.920
11041W        W83466  44.903  34.749   0.773
11042W        W83467   9.637  38.284  11.000
11043W        W83468  19.468  36.005   1.229
11044W        W83469   3.394  22.811   1.375
11045W        W83470  30.860   4.304  11.172
11046W        W83471  40.898  25.290   4.137
11047W        W83472  25.444  42.466  12.598
11048W        W83473  38.842  13.782  11.084
11049W        W83474  12.366   3.286  10.118
11050W        W83475  39.043  21.590  12.503
11051W        W83476  14.254  19.285   0.256
11052W        W83477  13.591   2.500  12.536
11053W        W83478  41.428  18.030  12.099
11054W        W83479  18.880   4.295  14.975
11055W        W83480   4.310  12.222   4.377
11056W        W83481  12.630   4.051   5.480
11057W        W83482  33.488   9.229   2.263
11058W        W83483  26.803  10.866   2.734
11059W        W83484  20.105  36.567   4.886
11060W        W83485  33.503  12.120   1.849
11061W        W83486  23.534  35.490  11.588
11062W        W83487  16.198  16.817  10.518
11063W        W83488  15.805  20.336  12.684
11064W        W83489  18.044  30.436  10.413
11065W        W83490  30.116  31.880  13.295
11066W        W83491   3.675  15.844  14.898
11067W        W83492  44.504   8.195   3.289
11068W        W83493  16.330   4.357  14.449
11069W        W83494   2.341   5.281  14.320
11070W        W83495  28.429  40.590  12.042
11071W        W83496  36.123   7.762   1.175
11072W        W83497  25.014  41.356  13.538
11073W        W83498  13.535   1.214   0.003
11074W        W83499  13.175  33.687   0.929
11075W        W83500   3.405  15.558  12.423
11076W        W83501  20.846  29.906   2.822
11077W        W83502  29.603  41.330   4.173
11078W        W83503  16.155  10.114  10.522
11079W        W83504  10.190  11.041  14.776
11080W        W83505  32.916  13.969  12.489
11081W        W83506  40.032  34.824  13.035
11082W        W83507  42.372  38.916  11.234
11083W        W83508  28.135  20.230  12.395
11084W        W83509   1.867  23.004  13.412
11085W        W83510  38.862  44.421  13.674
11086W        W83511  33.506  14.039  13.862
11087W        W83512  38.067  22.803   1.746
11088W        W83513  15.947  39.881   1.023
11089W        W83514  23.435  12.675  14.019
11090W        W83515  19.723  40.328  13.842
11091W        W83516  41.400  12.817  14.789
11092W        W83517  13.228   7.170  12.012
11093W        W83518  32.023  26.188  13.946
11094W        W83519  14.020  15.740  12.914
11095W        W83520  42.979  13.528   4.145
11096W        W83521  19.799  34.009  10.736
11097W        W83522   4.888  30.874   3.199
11098W        W83523  18.514  17.280   4.625
11099W        W83524  42.306  21.161   0.100
11100W        W83525   2.506  42.726  13.843
11101W        W83526  31.625   4.194   3.468
11102W        W83527  16.077   7.673  14.276
11103W        W83528   1.428  19.592   2.364
11104W        W83529  26.659  20.181  10.558
11105W        W83530   2.376   2.463   3.288
11106W        W83531  35.040   0.829   5.199
11107W        W83532  33.585   7.300  13.801
11108W        W83533   3.246  35.940  13.380
11109W        W83534  22.756  44.451  13.547
11110W        W83535  32.641   0.438   1.404
11111W        W83536  44.007  33.763   1.986
11112W        W83537   3.962   4.493   1.698
11113W        W83538  13.736  25.535   3.609
11114W        W83539  22.067  16.353  12.452
11115W        W83540   7.802   6.929   1.501
11116W        W83541  25.208  25.158  12.011
11117W        W83542  16.553  11.810   3.685
11118W        W83543  25.989  10.802   3.907
11119W        W83544  41.923  17.164   2.487
11120W        W83545  31.583  33.903   2.624
11121W        W83546  40.970   9.876   0.108
11122W        W83547  32.531   0.741   1.834
11123W        W83548  24.510  33.840   3.834
11124W        W83549  11.632  17.704   4.919
11125W        W83550   2.486  14.750  12.501
11126W        W83551   2.863  21.752  13.761
11127W        W83552  35.974  11.786   4.697
11128W        W83553   6.892  32.417   1.898
11129W        W83554  32.123  38.945  11.203
11130W        W83555  12.603   9.162  10.680
11131W        W83556  29.588  42.415   2.316
11132W        W83557  32.937  15.582   1.328
11133W        W83558  39.297  18.061   0.222
11134W        W83559  43.473  24.682  14.445
11135W        W83560  40.007  23.116   4.379
11136W        W83561  38.121   9.316  11.006
11137W        W83562  42.846  33.937  13.544
11138W        W83563   5.063  10.073  12.681
11139W        W83564   4.284  33.012  10.718
11140W        W83565  20.078  10.722   1.372
11141W        W83566   1.769   5.486   2.750
11142W        W83567  14.785  40.877   4.627
11143W        W83568  27.239  22.571  12.789
11144W        W83569  41.935  30.123  11.906
11145W        W83570  22.036  34.170  13.814
11146W        W83571  40.914  35.111   0.866
11147W        W83572  43.192  28.124  14.359
11148W        W83573  42.421  38.087   3.440
11149W        W83574  14.257  17.567  10.886
11150W        W83575  36.226   4.728  11.179
11151W        W83576  10.473  43.455  14.472
11152W        W83577  16.357  44.043  14.132
11153W        W83578  35.071  24.676  13.588
11154W        W83579   4.957  29.021   3.388
11155W        W83580   3.883  43.463   1.834
11156W        W83581  31.074  31.484  11.462
11157W        W83582  13.452   1.672   2.199
11158W        W83583  42.063  29.159   4.093
11159W        W83584  16.718  11.271  11.503
11160W        W83585   1.397   4.563   2.418
11161W        W83586  24.847  37.341  14.177
11162W        W83587   3.238  41.325   4.498
11163W        W83588  40.628  20.240   9.883
11164W        W83589  13.416  21.570  11.106
11165W        W83590  33.362   5.154   2.392
11166W        W83591  33.469   1.975   2.190
11167W        W83592  23.588   0.191  13.869
11168W        W83593  37.556  15.203   4.225
11169W        W83594  13.121  25.729  10.595
11170W        W83595  33.382  24.965   3.696
11171W        W83596  44.197   5.277  12.869
11172W        W83597  44.495  36.093  10.724
11173W        W83598   9.277  33.011  10.716
11174W        W83599  38.924  28.322   0.975
11175W        W83600  36.492  34.894  14.301
11176W        W83601  41.370   0.032   4.615
11177W        W83602  27.732  38.991  12.062
11178W        W83603   3.308  10.399  11.242
11179W        W83604  24.246  16.073   3.180
11180W        W83605  27.503  44.860   0.934
11181W        W83606   3.711   1.849  13.918
11182W        W83607  44.259  41.067   1.898
11183W        W83608  13.666  38.133  11.515
11184W        W83609  19.226  19.033  13.676
11185W        W83610  20.102   3.598   3.718
11186W        W83611  44.689  40.782   1.674
11187W        W83612  29.003  39.951  10.960
11188W        W83613   0.335   0.414   0.805
11189W        W83614  25.442  12.997   3.841
11190W        W83615  39.567  24.952   2.840
11191W        W83616  25.540  40.569  10.774
11192W        W83617  19.931  42.167   3.789
11193W        W83618  15.331  21.226  13.044
11194W        W83619  12.623   1.184   1.320
11195W        W83620  37.755  35.500  14.437
11196W        W83621  44.536  18.905   0.858
11197W        W83622  25.187   6.855  12.051
11198W        W83623  11.806  35.456   2.259
11199W        W83624   7.776  38.855   4.583
11200W        W83625   2.779  42.527   0.074
11201W        W83626  30.517   4.139  12.979
11202W        W83627  35.068  32.443  11.108
11203W        W83628   0.899   9.335  10.986
11204W        W83629  28.887  32.157   3.178
11205W        W83630   2.393  33.566  10.717
11206W        W83631  34.368  44.974  13.311
11207W        W83632  31.666  25.522   3.893
11208W        W83633  22.274  32.511   0.833
11209W        W83634  36.831  30.119  10.670
11210W        W83635  33.877  24.600  12.511
11211W        W83636  39.689  20.523   5.308
11212W        W83637  36.811  31.691   2.204
11213W        W83638   8.177  13.618  11.728
11214W        W83639  42.799  25.947  12.818
11215W        W83640   9.843  16.149   2.753
11216W        W83641  24.848  41.053  11.418
11217W        W83642  23.644   1.642   0.462
11218W        W83643  39.342  43.226  13.006
11219W        W83644  28.172  34.418  10.199
11220W        W83645  16.415  32.746  10.171
11221W        W83646  30.034   7.328  13.658
11222W        W83647   6.748  11.177   2.371
11223W        W83648  25.174  28.404   1.471
11224W        W83649  26.950   4.151  13.392
11225W        W83650  28.975  25.584   2.420
11226W        W83651  16.139  22.594   3.437
11227W        W83652  10.780  33.172   2.205
11228W        W83653  43.258  34.856  12.831
11229W        W83654   5.510  42.347  13.281
11230W        W83655   5.283   7.251  13.258
11231W        W83656  23.763  24.515   3.504
11232W        W83657  28.172  19.728   0.899
11233W        W83658   9.278  19.190   2.684
11234W        W83659  35.533  21.277  13.527
11235W        W83660  26.599  41.760   0.365
11236W        W83661  20.402  43.829   2.353
11237W        W83662  36.504  14.281  14.003
11238W        W83663  13.613  29.655   0.804
11239W        W83664  35.555  26.991  12.973
11240W        W83665  34.516  39.661   3.668
11241W        W83666  40.719  41.366  10.650
11242W        W83667  30.077  11.069  14.764
11243W        W83668  37.041  23.492  14.310
11244W        W83669   8.695  29.952  11.973
11245W        W83670  10.189  42.278   0.934
11246W        W83671   2.739  23.378  11.156
11247W        W83672  24.505  38.051   0.021
11248W        W83673  29.097   3.635   4.192
11249W        W83674  14.074  38.054  12.423
11250W        W83675  15.451   9.211   4.683
11251W        W83676   5.939  10.956   4.692
11252W        W83677  41.777  24.911  10.172
11253W        W83678   3.957  10.375   2.081
11254W        W83679   7.781  22.706  13.403
11255W        W83680  17.822  13.216  11.167
11256W        W83681  38.437  25.276  12.471
11257W        W83682  29.648  30.393  11.644
11258W        W83683  10.157  32.269   3.841
11259W        W83684  28.269  11.411   3.526
11260W        W83685  23.572  13.311   0.221
11261W        W83686   8.330   3.233   4.518
11262W        W83687  19.317  27.099   2.612
11263W        W83688  34.907  25.896   4.155
11264W        W83689  30.195  20.798   0.637
11265W        W83690  26.203  12.577  13.127
11266W        W83691  31.702  39.517  11.311
11267W        W83692  22.586  43.031   1.252
11268W        W83693  18.607  22.668   0.851
11269W        W83694  10.292  23.029   1.273
11270W        W83695  36.362  18.997  12.131
11271W        W83696  37.087  30.010   2.307
11272W        W83697  15.887  21.141   5.075
11273W        W83698  13.021   1.978   3.550
11274W        W83699  37.821  43.089  11.587
11275W        W83700  11.909  22.592  10.538
11276W        W83701  31.640  30.549  10.581
11277W        W83702  28.138  23.563  13.032
11278W        W83703  40.317  15.391   5.020
11279W        W83704  28.943   0.248  11.142
11280W        W83705  21.579  22.704   9.859
11281W        W83706  35.247   6.650   0.252
11282W        W83707  13.579  19.804   0.376
11283W        W83708   3.319   2.898   3.263
11284W        W83709  10.635  31.483   4.675
11285W        W83710  29.612  29.248  10.357
11286W        W83711  12.380  13.036  10.432
11287W        W83712  42.090  20.828   4.719
11288W        W83713  25.965  12.726   2.501
11289W        W83714  20.452  36.595  14.286
11290W        W83715  39.110   1.825  14.457
11291W        W83716  26.695  24.836  13.896
11292W        W83717  13.179  11.356  14.759
11293W        W83718   1.816  30.255  12.974
11294W        W83719  16.996  31.478  13.441
11295W        W83720  28.684  24.130   9.943
11296W        W83721  43.842  27.412   0.839
11297W        W83722  40.317   2.395   3.532
11298W        W83723  28.901   7.637  11.897
11299W        W83724  21.907  17.193   4.558
11300W        W83725  31.586  22.979   0.804
11301W        W83726  33.935  38.682  13.491
11302W        W83727   9.432  23.945  13.772
11303W        W83728  22.729  33.925  11.561
11304W        W83729   4.663  33.428   0.083
11305W        W83730   0.488   8.974  12.148
11306W        W83731  24.245  11.493  10.443
11307W        W83732  36.524  26.914   1.285
11308W        W83733   0.682  28.425  13.414
11309W        W83734   3.118   2.281  12.096
11310W        W83735  41.551  11.200   2.233
11311W        W83736  11.320  30.565   2.742
11312W        W83737  18.747  37.065  12.880
11313W        W83738  44.289  38.560  14.993
11314W        W83739  43.263  20.622   2.162
11315W        W83740  17.109  29.417  12.893
11316W        W83741  44.382  28.350   3.823
11317W        W83742  24.300  34.229  11.623
11318W        W83743  29.501  43.914  12.421
11319W        W83744  18.128  18.201   0.065
11320W        W83745  34.496  14.871  14.568
11321W        W83746  37.151  22.521  11.944
11322W        W83747   3.922  17.090  14.398
11323W        W83748  28.488  43.033  12.541
11324W        W83749  18.537  41.350  13.910
11325W        W83750  10.963   1.353  11.584
11326W        W83751   2.242  10.866   4.146
11327W        W83752  13.813  28.486   3.662
11328W        W83753   8.848   3.768  11.875
11329W        W83754  16.619  37.381  14.744
11330W        W83755  38.830  23.027   4.601
11331W        W83756  10.905  21.422   3.127
11332W        W83757  37.410  42.284  12.936
11333W        W83758  13.605  44.013   0.476
11334W        W83759   8.770  23.545  13.338
11335W        W83760  10.113  33.679  14.722
11336W        W83761  20.679   5.294   0.679
11337W        W83762  44.314  14.071   3.138
11338W        W83763   3.292  28.601  11.659
11339W        W83764  15.065  38.122   2.278
11340W        W83765  16.550  39.316   4.625
11341W        W83766  30.893  12.907   2.342
11342W        W83767  21.446  14.292   3.736
11343W        W83768   1.444  38.970  13.368
11344W        W83769  24.797  16.694  13.817
11345W        W83770  34.823  15.209   3.103
11346W        W83771  41.980  42.046   3.749
11347W        W83772  22.599  26.076  13.052
11348W        W83773  25.481  13.386  11.115
11349W        W83774  24.084  11.241  13.129
11350W        W83775   7.195  31.987   3.754
11351W        W83776  17.007  16.931   3.153
11352W        W83777  20.567  39.969   0.927
11353W        W83778  36.923  39.559  12.473
11354W        W83779   4.512  37.704  12.506
11355W        W83780  29.564  31.962  12.451
11356W        W83781  26.523  26.188   3.288
11357W        W83782  26.189  42.079   4.527
11358W        W83783  17.738  42.222  11.263
11359W        W83784  38.558  17.837   2.691
11360W        W83785  44.388   0.224   2.674
11361W        W83786  11.135   0.046  11.956
11362W        W83787   1.759  10.855   3.884
11363W        W83788  21.683   0.216   3.700
11364W        W83789  29.373  17.067  11.519
11365W        W83790   4.835  29.581  14.935
11366W        W83791   4.830  13.174  10.425
11367W        W83792  24.852  32.895  14.619
11368W        W83793  11.701  41.274  10.392
11369W        W83794  25.752   5.677   3.143
11370W        W83795  25.977  27.568   3.817
11371W        W83796  41.287  11.713   0.346
11372W        W83797  10.550  15.615   4.594
11373W        W83798  24.762  22.213  12.926
11374W        W83799   4.400  17.033  14.210
11375W        W83800  39.883  22.083  13.696
11376W        W83801  19.033   4.841   2.606
11377W        W83802  36.241  15.703   3.261
11378W        W83803  23.297  13.709  13.229
11379W        W83804   8.737  21.028  13.097
11380W        W83805  21.249  34.580   2.714
11381W        W83806  18.608  41.546  11.224
11382W        W83807   2.244   2.008   1.963
11383W        W83808  42.556  43.571  12.870
11384W        W83809  14.306  21.422   2.340
11385W        W83810  34.337   9.165   1.778
11386W        W83811  25.490  27.712  10.720
11387W        W83812  42.568   8.578   2.938
11388W        W83813  32.268  43.772  14.465
11389W        W83814   2.959  13.431   0.400
11390W        W83815  40.829  15.214   4.977
11391W        W83816  23.432  44.879   2.354
11392W        W83817  23.250  39.315  14.643
11393W        W83818   6.440  16.766   1.155
11394W        W83819   1.115  35.439   3.324
11395W        W83820  23.268  44.720  13.019
11396W        W83821  11.248   0.484  11.048
11397W        W83822   9.903  33.575  12.122
11398W        W83823  26.890  10.939   4.418
11399W        W83824  19.714  43.666  13.855
11400W        W83825  34.493  35.073   1.739
11401W        W83826  20.120  35.428   1.503
11402W        W83827  11.501  27.881  11.550
11403W        W83828  23.229   4.022  10.430
11404W        W83829  43.020   4.758  14.960
11405W        W83830  26.402   8.332   4.169
11406W        W83831  15.079  30.135   3.463
11407W        W83832   3.608  19.274   3.336
11408W        W83833  10.932  13.614  11.178
11409W        W83834   4.774  30.439   5.058
11410W        W83835  43.691  27.847  12.902
11411W        W83836  32.104   7.163   4.595
11412W        W83837  23.323  28.639  11.576
11413W        W83838  11.071   4.694   4.632
11414W        W83839  22.419  12.657  13.058
11415W        W83840   3.442  44.726  14.106
11416W        W83841   2.984   8.315   0.338
11417W        W83842  44.798  43.562  12.942
11418W        W83843  30.405  10.844   1.249
11419W        W83844  25.176  20.221  10.702
11420W        W83845  30.440  41.525  14.292
11421W        W83846  23.342  29.822   3.787
11422W        W83847  11.118  22.183  12.014
11423W        W83848  14.707   6.957   2.740
11424W        W83849   6.933  20.705  14.735
11425W        W83850  18.726  38.454   3.163
11426W        W83851  39.986  36.007   0.479
11427W        W83852  30.322   3.243   4.536
11428W        W83853  27.997  24.657  13.364
11429W        W83854  17.774   5.220  11.994
11430W        W83855  35.914   9.578  13.888
11431W        W83856  36.411  30.580   3.961
11432W        W83857  22.566  39.855  12.162
11433W        W83858  31.098  18.593  13.889
11434W        W83859  33.811   9.934   2.420
11435W        W83860  43.844  34.022  13.507
11436W        W83861  29.662  29.025   2.780
11437W        W83862   4.788  21.707   0.499
11438W        W83863  20.837   3.005   1.618
11439W        W83864  35.734  28.782   2.771
11440W        W83865  25.667   1.971  10.662
11441W        W83866   8.614   3.432  13.180
11442W        W83867  28.483  27.628  12.349
11443W        W83868  26.194   8.837   3.119
11444W        W83869   3.995  28.029   4.917
11445W        W83870  25.275  43.859   2.690
11446W        W83871  25.232  17.644   3.227
11447W        W83872   8.840  31.352   4.229
11448W        W83873  31.356  29.616  13.533
11449W        W83874  38.923  37.572  14.807
11450W        W83875  19.494   7.247  14.767
11451W        W83876  18.923  17.492  13.840
11452W        W83877  22.740   9.289  13.478
11453W        W83878  24.991  15.789   3.666
11454W        W83879  40.749  24.644  10.682
11455W        W83880  12.617  18.046   0.025
11456W        W83881  25.592  28.480   3.340
11457W        W83882  25.223  33.986   4.231
11458W        W83883   5.994   2.391   3.812
11459W        W83884  18.562  10.276   0.904
11460W        W83885  38.097   1.394   0.463
11461W        W83886  26.799  14.761   0.174
11462W        W83887  13.157  29.948  12.581
11463W        W83888   9.680  11.141   3.155
11464W        W83889  18.756  16.138   4.086
11465W        W83890  41.468  40.167  13.825
11466W        W83891  28.097  29.450  13.018
11467W        W83892   4.089  16.315   2.729
11468W        W83893  36.963  18.502  11.513
11469W        W83894  12.436  19.593  11.243
11470W        W83895  33.912   2.180   1.772
11471W        W83896  43.957   1.921   2.139
11472W        W83897  16.642   1.947   2.666
11473W        W83898  18.128  34.427   0.248
11474W        W83899  26.515  44.353  12.010
11475W        W83900   9.452  27.680  12.915
11476W        W83901  12.755  24.114  13.008
11477W        W83902  39.768  27.538  13.995
11478W        W83903   3.914  21.878   4.647
11479W        W83904   5.880  12.209  12.542
11480W        W83905  25.045  29.999  12.918
11481W        W83906  37.745  31.127   2.739
11482W        W83907  22.820  30.561   0.414
11483W        W83908  33.016  24.900  14.319
11484W        W83909  29.982  15.770   2.219
11485W        W83910   6.271  20.315  10.718
11486W        W83911  37.716  25.441   2.787
11487W        W83912   3.390  36.491   2.723
11488W        W83913  26.170  19.281  12.093
11489W        W83914  10.979   2.822  12.970
11490W        W83915   3.282  10.007  10.521
11491W        W83916  10.794  27.672   4.024
11492W        W83917  17.812  16.112   2.334
11493W        W83918   4.713   4.637   0.294
11494W        W83919   6.522  22.703  12.870
11495W        W83920  40.714  34.377  11.154
11496W        W83921  33.438  21.257   5.003
11497W        W83922   4.696  33.391   3.744
11498W        W83923  43.353   4.409  13.438
11499W        W83924  17.611  10.917   3.224
11500W        W83925  25.570  26.493   2.394
11501W        W83926  44.457  37.971   1.189
11502W        W83927  33.176  40.489   4.100
11503W        W83928   2.737  34.538  10.586
11504W        W83929   4.488  41.496  12.057
11505W        W83930  30.876  35.896  12.688
11506W        W83931  11.462  38.948   0.935
11507W        W83932  33.000  21.661  12.347
11508W        W83933  29.555   1.186   2.440
11509W        W83934  41.555   0.535  12.439
11510W        W83935   0.841  33.626   3.618
11511W        W83936  43.443  26.715   0.872
11512W        W83937  37.604  26.129  13.024
11513W        W83938  33.902   0.847   1.491
11514W        W83939  35.507  23.468   2.424
11515W        W83940  41.734   6.175  12.969
11516W        W83941  20.836  42.194   2.314
11517W        W83942  33.508  27.502  14.594
11518W        W83943  43.856  16.133   3.283
11519W        W83944  41.091   7.676   3.754
11520W        W83945  20.676  16.934   0.426
11521W        W83946  19.090  16.686   2.698
11522W        W83947  20.743   9.609   1.708
11523W        W83948  33.338  25.204  11.342
11524W        W83949  38.700  28.722  14.124
11525W        W83950  30.314   4.862  12.425
11526W        W83951   1.404  44.979  11.645
11527W        W83952  17.485  35.072  10.929
11528W        W83953   5.759   0.885   1.795
11529W        W83954  13.170  20.526  11.965
11530W        W83955  10.317  10.326  11.420
11531W        W83956   6.428  21.270   2.220
11532W        W83957  17.397  34.507   5.463
11533W        W83958   7.575   6.635   4.830
11534W        W83959  32.019  40.466   4.102
11535W        W83960  12.107   6.581   4.642
11536W        W83961  31.133   9.364  13.053
11537W        W83962  44.460   6.940   4.551
11538W        W83963  26.046  43.047   2.303
11539W        W83964  29.912   6.622  10.696
11540W        W83965  17.409   0.993   0.940
11541W        W83966  41.356   5.873  10.633
11542W        W83967  41.764  20.582   0.494
11543W        W83968  22.529  20.703   2.008
11544W        W83969  33.259  38.604   5.053
11545W        W83970  40.318   3.698  12.475
11546W        W83971  19.023   1.224   0.402
11547W        W83972  25.477  27.365  14.697
11548W        W83973  31.541  16.537   3.309
11549W        W83974  40.681   4.109  12.077
11550W        W83975   7.795   3.533   2.249
11551W        W83976  27.842  28.988  13.012
11552W        W83977  35.987   5.408   3.810
11553W        W83978  44.200  11.228  14.421
11554W        W83979  23.689   5.867  14.008
11555W        W83980  43.321  31.610   2.311
11556W        W83981   8.830  34.081   0.732
11557W        W83982  20.282  25.868   3.613
11558W        W83983   4.322  14.652   1.848
11559W        W83984  18.096   4.368  13.426
11560W        W83985  34.120  35.541   3.583
11561W        W83986   6.606   3.761   1.611
11562W        W83987  16.522  20.705   3.645
11563W        W83988  34.498  16.836  14.463
11564W        W83989   4.058  14.322   0.035
11565W        W83990  23.180  20.695   1.349
11566W        W83991  25.526   8.456  14.256
11567W        W83992   0.827  25.085   2.701
11568W        W83993  15.776  42.776   2.219
11569W        W83994  17.063  31.984  13.585
11570W        W83995  29.636  39.382   3.423
11571W        W83996  11.269   6.213   0.782
11572W        W83997  32.413  10.722  13.380
11573W        W83998  33.490  42.435   1.954
11574W        W83999  31.834  19.682   4.133
11575W        W84000  12.293  24.853  12.953
11576W        W84001  15.204  29.807  12.467
11577W        W84002  14.345  21.665   2.795
11578W        W84003   1.201   6.512  13.006
11579W        W84004   0.226   4.847   4.113
11580W        W84005  25.240  21.601   5.076
11581W        W84006  42.067   8.476   2.863
11582W        W84007   5.163  17.110  14.462
11583W        W84008  31.578  24.196  13.325
11584W        W84009  11.958   4.065   5.063
11585W        W84010  22.111  36.962   0.946
11586W        W84011  30.216   4.594  14.371
11587W        W84012  15.129  33.182   1.421
11588W        W84013   5.839  43.221   2.224
11589W        W84014   5.604  40.767  14.961
11590W        W84015  42.855  24.538   4.178
11591W        W84016  14.333  16.421  12.333
11592W        W84017  34.974  16.006   4.579
11593W        W84018   2.001  22.006   0.068
11594W        W84019  21.593  29.801   1.752
11595W        W84020  34.124  13.803   0.401
11596W        W84021   9.185  17.900   0.928
11597W        W84022  14.439  22.827   0.437
11598W        W84023   1.978  40.413  14.942
11599W        W84024  30.438   1.906   4.562
11600W        W84025  12.784  33.531  11.473
11601W        W84026  15.923  39.406   2.781
11602W        W84027  23.898   6.506   2.321
11603W        W84028  39.341   4.911  13.160
11604W        W84029  16.057  32.895   4.625
11605W        W84030   9.748   0.354  12.052
11606W        W84031  40.622  21.525   4.592
11607W        W84032  20.172  43.842   4.621
11608W        W84033  17.714  32.532   0.760
11609W        W84034   2.401  43.487  10.727
11610W        W84035  18.770  10.248  12.948
11611W        W84036  12.919  25.525   4.344
11612W        W84037   1.743   8.563  14.851
11613W        W84038   9.007  38.539  11.444
11614W        W84039  24.165  40.712   3.778
11615W        W84040  27.665  39.790   2.750
11616W        W84041  26.883   9.841   0.463
11617W        W84042  43.717  41.826  12.536
11618W        W84043  26.714  36.147  13.302
11619W        W84044  41.079   5.259  10.966
11620W        W84045  30.567  28.219  13.068
11621W        W84046  18.811  12.033  12.142
11622W        W84047  22.425  37.267  11.015
11623W        W84048   3.755  25.482  13.453
11624W        W84049  16.808  11.379   3.605
11625W        W84050   6.665  15.679  10.802
11626W        W84051  39.425  20.085  11.033
11627W        W84052  26.441   2.280   4.681
11628W        W84053   2.928  36.704  12.634
11629W        W84054  41.999  16.114  13.814
11630W        W84055  44.876  37.248  13.457
11631W        W84056  34.530  20.479  10.290
11632W        W84057  30.135  12.650  11.484
11633W        W84058  30.538  19.100   3.673
11634W        W84059  21.705  17.041   2.233
11635W        W84060  36.723  13.768  13.803
11636W        W84061  17.554  11.289   4.090
11637W        W84062  18.640  28.018  11.384
11638W        W84063  35.449  18.568  12.645
11639W        W84064  31.141  29.785  13.979
11640W        W84065  25.564  27.332   0.717
11641W        W84066  30.235  12.260   4.391
11642W        W84067  19.126  22.728  13.055
11643W        W84068  19.105  27.720  11.204
11644W        W84069  38.845  23.637   1.394
11645W        W84070  29.553  36.577  14.099
11646W        W84071  37.429  14.693  12.103
11647W        W84072  23.981  40.232  12.555
11648W        W84073  30.189   4.515  13.192
11649W        W84074  43.011  33.491  10.460
11650W        W84075   9.135   0.491  14.451
11651W        W84076  27.693  36.159  10.688
11652W        W84077  39.521  31.649  14.964
11653W        W84078   3.376  15.708   4.974
11654W        W84079   2.348  18.631   0.409
11655W        W84080   9.368  14.862   0.429
11656W        W84081  23.451  34.456   1.953
11657W        W84082  34.983  11.849   2.145
11658W        W84083  41.376  34.690   2.819
11659W        W84084   7.166  15.815  10.734
11660W        W84085   0.673  22.688   2.229
11661W        W84086  38.472  31.862   1.212
11662W        W84087  39.027   0.494  11.707
11663W        W84088  36.443  37.976  11.855
11664W        W84089  13.415  13.673  13.922
11665W        W84090   2.655  13.734   0.758
11666W        W84091  26.023  19.364  10.748
11667W        W84092  39.909  31.728  12.086
11668W        W84093  13.593  28.379  12.074
11669W        W84094  43.075  23.500   0.103
11670W        W84095  21.692   4.469   0.672
11671W        W84096   5.835  33.926  14.987
11672W        W84097  43.839  35.314  12.319
11673W        W84098   8.196  12.722  14.247
11674W        W84099   3.927  22.687  12.099
11675W        W84100   9.954  35.482  13.817
11676W        W84101  33.070  23.150  13.043
11677W        W84102  15.182  15.985   3.595
11678W        W84103  28.481  40.906  13.214
11679W        W84104   7.875   5.347  11.345
11680W        W84105  25.778  24.644   1.240
11681W        W84106   5.536  23.988   2.887
11682W        W84107  17.656  32.611  14.835
11683W        W84108  28.171  37.012  11.556
11684W        W84109  18.336  33.996   4.192
11685W        W84110  20.732  40.903   3.504
11686W        W84111   1.794  36.933   0.767
11687W        W84112  17.549  14.348   4.159
11688W        W84113  11.387   8.560   3.797
11689W        W84114  30.471  32.981   4.190
11690W        W84115   6.787  39.524  13.851
11691W        W84116  26.496  39.400  12.174
11692W        W84117   2.716  30.049   0.374
11693W        W84118  21.660  16.641  12.164
11694W        W84119   3.747  24.062  10.775
11695W        W84120  40.800  36.595   1.447
11696W        W84121  31.209  15.653   0.045
11697W        W84122  20.204   4.201  12.713
11698W        W84123  34.382   0.788   4.583
11699W        W84124  38.982  28.429  12.910
11700W        W84125  10.805  13.325   2.424
11701W        W84126   5.341  11.369  10.523
11702W        W84127  43.360  15.964  13.490
11703W        W84128   6.154   2.419  11.140
11704W        W84129   7.532  41.902  10.805
11705W        W84130  10.659   4.264  11.924
11706W        W84131  19.017  41.835   0.468
11707W        W84132  42.717   1.716   3.298
11708W        W84133  38.499  33.963   3.472
11709W        W84134  42.571  27.773  10.040
11710W        W84135  32.234  35.132  11.806
11711W        W84136  11.337  40.973   4.182
11712W        W84137  31.346  31.603  11.028
11713W        W84138  17.758  41.315  10.958
11714W        W84139   3.937   4.089   2.012
11715W        W84140  20.097   2.349  13.307
11716W        W84141   1.910  13.886  14.807
11717W        W84142   0.814  27.032  14.768
11718W        W84143   2.857  42.369  11.885
11719W        W84144  32.014  39.989  14.869
11720W        W84145  15.522   6.194   0.803
11721W        W84146  28.264  41.897  10.663
11722W        W84147  10.561  39.895  10.291
11723W        W84148  19.998   8.274   1.986
11724W        W84149   2.933  41.992  11.098
11725W        W84150  40.299  17.660   2.329
11726W        W84151  36.163  38.426  12.452
11727W        W84152  14.739  37.178  11.595
11728W        W84153   4.887  11.280  13.397
11729W        W84154  31.425  39.432   2.163
11730W        W84155  12.617  10.919  13.980
11731W        W84156   3.593  41.013   3.158
11732W        W84157   6.312  43.551  13.351
11733W        W84158  33.581  16.842   3.140
11734W        W84159  38.306   4.267   4.029
11735W        W84160  41.768  41.985   4.221
11736W        W84161  12.266  29.910   0.465
11737W        W84162  11.611   9.887  12.443
11738W        W84163  18.710  23.626   2.627
11739W        W84164  20.868  31.606  13.069
11740W        W84165  37.777   5.721  10.500
11741W        W84166  39.084   9.420  14.349
11742W        W84167  16.152  10.189   3.117
11743W        W84168  30.013  39.661   3.219
11744W        W84169  44.871  22.102   4.312
11745W        W84170  36.312  13.898  12.494
11746W        W84171  31.401  25.886   0.376
11747W        W84172   0.137  36.536  11.209
11748W        W84173   4.245  30.432   2.790
11749W        W84174  33.493   6.881  10.619
11750W        W84175   5.526  35.473  14.077
11751W        W84176  38.956   8.281  10.383
11752W        W84177  35.419   3.785   1.877
11753W        W84178  23.023  26.943   0.844
11754W        W84179  28.932  25.033  11.374
11755W        W84180  44.131   5.757   2.245
11756W        W84181  30.553  32.886  11.356
11757W        W84182  18.034   3.155  12.573
11758W        W84183   2.799  22.709  12.540
11759W        W84184  43.251  33.902   4.950
11760W        W84185  24.828  35.664   0.943
11761W        W84186  34.163  32.409  12.540
11762W        W84187   0.467  27.080  10.566
11763W        W84188  22.740   4.726  14.894
11764W        W84189  38.462  43.489   0.726
11765W        W84190  14.537   0.455  10.380
11766W        W84191   7.190  20.603   4.613
11767W        W84192   8.366  39.061   0.376
11768W        W84193   0.150  42.291  14.085
11769W        W84194   1.768  27.576  13.412
11770W        W84195   2.941  42.098   4.662
11771W        W84196  21.155   6.112  13.041
11772W        W84197  44.444  41.818   4.918
11773W        W84198  14.628  36.021   5.054
11774W        W84199  31.475  17.571  14.785
11775W        W84200  14.914  27.591   1.934
11776W        W84201   7.665  27.036   3.724
11777W        W84202   9.281   1.000   1.225
11778W        W84203  20.041  31.562   2.076
11779W        W84204  26.575  33.548  14.815
11780W        W84205  25.506  29.878   0.332
11781W        W84206  41.450  12.862  13.305
11782W        W84207  25.077   8.837   2.792
11783W        W84208  18.786  19.084  12.381
11784W        W84209  26.412  23.683   3.283
11785W        W84210  14.752   6.203  14.304
11786W        W84211  29.662   8.417   4.088
11787W        W84212  35.281  14.920   3.152
11788W        W84213   3.378  35.143  12.589
11789W        W84214  15.389   6.786  14.461
11790W        W84215  30.373   7.677   4.570
11791W        W84216  27.127   1.647   0.461
11792W        W84217  12.047  36.944  13.906
11793W        W84218  28.704  37.827   3.745
11794W        W84219   9.415  28.496   2.808
11795W        W84220  34.065  36.490   4.270
11796W        W84221  21.002  34.852  11.052
11797W        W84222  43.366  16.631   4.355
11798W        W84223  24.479  37.622  13.330
11799W        W84224  21.086  25.280   2.756
11800W        W84225   9.670   1.030   1.871
11801W        W84226  36.451   9.442   5.091
11802W        W84227  11.070  21.131   2.711
11803W        W84228  12.598  38.496   4.480
11804W        W84229  13.660  28.135   0.716
11805W        W84230  34.380  40.473  11.192
11806W        W84231  37.708  40.798   2.478
11807W        W84232   8.012   9.404  10.443
11808W        W84233   5.978  29.020  14.976
11809W        W84234  14.952  28.922   0.425
11810W        W84235  30.200  21.810  14.947
11811W        W84236  28.644  18.677   4.645
11812W        W84237  10.650  32.571  14.525
11813W        W84238   4.778   7.405  12.349
11814W        W84239  36.375  17.283   1.769
11815W        W84240  39.980  19.637  11.582
11816W        W84241  44.288  11.852   4.251
11817W        W84242  41.510  14.850   5.019
11818W        W84243  32.796  19.244   0.536
11819W        W84244  39.370  29.187  10.737
11820W        W84245  22.214  35.043  12.972
11821W        W84246   2.696   3.455   0.098
11822W        W84247  42.027  11.192   3.762
11823W        W84248  42.732   4.304  12.603
11824W        W84249  31.863  32.480  11.115
11825W        W84250  23.901   5.868  12.561
11826W        W84251  39.435  35.825   2.819
11827W        W84252  24.283  38.698  10.639
11828W        W84253   6.997  33.388   4.000
11829W        W84254   3.966  36.658   3.265
11830W        W84255   2.830  22.354  11.093
11831W        W84256  18.612  11.042   1.497
11832W        W84257  10.909   2.313  13.595
11833W        W84258   9.737  36.856   0.999
11834W        W84259   3.475  32.065   0.782
11835W        W84260  18.216   8.666  10.782
11836W        W84261  26.968  16.406  11.237
11837W        W84262  38.927   7.682   4.633
11838W        W84263  23.624  25.170  12.455
11839W        W84264  41.478  11.280   3.694
11840W        W84265  21.621   4.918   1.440
11841W        W84266  16.202  42.764   3.738
11842W        W84267  25.849  32.207   9.726
11843W        W84268  39.470   6.104  14.794
11844W        W84269  34.902  24.433   1.486
11845W        W84270  39.460  20.796   2.059
11846W        W84271  32.406  10.232  14.044
11847W        W84272  37.802  44.559   0.024
11848W        W84273  22.929  16.725   0.425
11849W        W84274  20.046  40.872   1.313
11850W        W84275  10.286  19.451   2.245
11851W        W84276  18.529  10.665  13.173
11852W        W84277   5.411   8.721  11.544
11853W        W84278  18.434  43.795   4.290
11854W        W84279  25.974  29.249  12.028
11855W        W84280  33.612  41.946  13.809
11856W        W84281  26.849   6.096  14.372
11857W        W84282  42.659  27.279  14.950
11858W        W84283  23.013   2.257   1.883
11859W        W84284  39.786   9.106  13.826
11860W        W84285  42.351  24.630   0.770
11861W        W84286  25.391   5.248   1.425
11862W        W84287  35.928   5.141  12.500
11863W        W84288  41.033  26.031   2.751
11864W        W84289  31.025   0.654  11.214
11865W        W84290  44.948  14.286  14.721
11866W        W84291   0.759   7.395   0.402
11867W        W84292   1.019  21.580  12.046
11868W        W84293  35.445  25.259   2.036
11869W        W84294   7.805  26.843  13.059
11870W        W84295  42.875  30.422  12.383
11871W        W84296  37.666  11.321   2.956
11872W        W84297  12.570   9.738  13.826
11873W        W84298  34.509  16.050  11.599
11874W        W84299   6.212  25.439  13.820
11875W        W84300  35.553  15.746   2.318
11876W        W84301  13.600  13.142  13.109
11877W        W84302  39.016  29.167   4.633
11878W        W84303  41.349  40.196  10.398
11879W        W84304  37.332  19.315   2.722
11880W        W84305  36.846   8.977   0.775
11881W        W84306  19.641  29.200  10.707
11882W        W84307  44.338  23.602  12.181
11883W        W84308  36.422  21.450   4.142
11884W        W84309  24.238  11.662  13.702
11885W        W84310   0.278   0.943  14.854
11886W        W84311  41.563  17.504   4.363
11887W        W84312  32.793  15.610   4.170
11888W        W84313  17.585  24.037  11.725
11889W        W84314  28.041   8.212   3.621
11890W        W84315  26.771   5.613   2.296
11891W        W84316  26.979  31.964   1.856
11892W        W84317  44.778  16.376   1.499
11893W        W84318   9.565  30.602   1.302
11894W        W84319  11.456  43.547  12.942
11895W        W84320   7.854  15.354  12.017
11896W        W84321  37.816  17.784  12.057
11897W        W84322   9.377  40.287   1.105
11898W        W84323  21.997  44.377   4.873
11899W        W84324  43.156   2.532  11.078
11900W        W84325  28.094  32.818   4.152
11901W        W84326  40.042  18.294   2.453
11902W        W84327  23.719  21.608   1.671
11903W        W84328  28.993  14.066   4.459
11904W        W84329  22.618  42.814   2.190
11905W        W84330  23.800  39.915   2.304
11906W        W84331  24.478  35.392   1.853
11907W        W84332  21.605  26.604   2.435
11908W        W84333  12.614  18.508  14.741
11909W        W84334  20.828  25.281  11.530
11910W        W84335  19.521  14.287  10.472
11911W        W84336  31.498  26.937  11.014
11912W        W84337   3.465  12.526   0.978
11913W        W84338  27.958  36.985   4.875
11914W        W84339  21.569  34.990   1.819
11915W        W84340  30.507  24.701   3.720
11916W        W84341  39.366  19.520   0.280
11917W        W84342  33.522  43.815   1.294
11918W        W84343  43.393   3.763  10.758
11919W        W84344   5.984  32.959  14.674
11920W        W84345  13.407  32.252   3.749
11921W        W84346  40.861  17.237   3.552
11922W        W84347  35.563   0.124   3.681
11923W        W84348  31.639  33.636  11.967
11924W        W84349  22.622  34.656   2.946
11925W        W84350  14.088  37.473  12.023
11926W        W84351  35.994  20.886  12.239
11927W        W84352  31.644   6.782  12.110
11928W        W84353  41.013   1.446  11.625
11929W        W84354  15.154  42.579  12.973
11930W        W84355  42.273  27.806   1.161
11931W        W84356  26.544  40.923   1.987
11932W        W84357  15.846   9.041   4.413
11933W        W84358  24.487  37.908  11.159
11934W        W84359  42.564  40.381  11.562
11935W        W84360  21.807  40.334  13.038
11936W        W84361  40.996  10.912  14.205
11937W        W84362   5.132  14.643  11.507
11938W        W84363  15.598  35.530  10.564
11939W        W84364   9.668  27.388  12.200
11940W        W84365  15.225  17.709  11.646
11941W        W84366  19.269  36.626   2.752
11942W        W84367   5.136  28.507   4.307
11943W        W84368  19.681  40.189   0.388
11944W        W84369  30.138  16.492  11.451
11945W        W84370  19.732  38.454  14.508
11946W        W84371   6.887  31.630  11.895
11947W        W84372   5.653  39.482   0.768
11948W        W84373   2.157  14.093   2.586
11949W        W84374  17.752   7.433  13.601
11950W        W84375   5.818  27.935   3.761
11951W        W84376  20.668  31.887   2.600
11952W        W84377  29.382  12.893   2.327
11953W        W84378  43.350  35.177   3.203
11954W        W84379  39.224  32.023   0.215
11955W        W84380  37.584   5.532  13.447
11956W        W84381  16.314  11.626  11.200
11957W        W84382   4.754  18.262   2.085
11958W        W84383   9.462  19.204  11.038
11959W        W84384   6.936  31.415   2.344
11960W        W84385   7.870  20.535  11.583
11961W        W84386  43.717   5.342   1.380
11962W        W84387   7.522  24.892   4.134
11963W        W84388   7.168  31.597  10.703
11964W        W84389  10.149  10.713  10.074
11965W        W84390  10.066   4.260  10.201
11966W        W84391  25.492  20.161   2.927
11967W        W84392  30.165  29.386  10.948
11968W        W84393   7.656  22.724  11.896
11969W        W84394   5.851   2.892  14.716
11970W        W84395   1.392  25.550   0.501
11971W        W84396  13.567  10.112   2.151
11972W        W84397  40.277  19.606   2.197
11973W        W84398  37.352  33.942  11.329
11974W        W84399   5.422  10.590  10.888
11975W        W84400   5.894  38.504   2.348
11976W        W84401  33.462  20.595   3.182
11977W        W84402  43.774  22.316   0.159
11978W        W84403  12.830  23.016   4.303
11979W        W84404  39.559   6.896  14.917
11980W        W84405  28.887  25.271  12.468
11981W        W84406  33.813   4.861   2.369
11982W        W84407   4.764  26.448   4.260
11983W        W84408  13.371   4.330   4.737
11984W        W84409   0.924  38.841   2.218
11985W        W84410  29.448  22.568   4.288
11986W        W84411  17.602  38.333  10.591
11987W        W84412   1.230  17.083  12.472
11988W        W84413  44.659  15.292   4.935
11989W        W84414  17.547  15.205  10.409
11990W        W84415  26.439  21.975   4.947
11991W        W84416  18.639  26.955   3.822
11992W        W84417  29.567  15.437   3.959
11993W        W84418   8.816  34.723   2.421
11994W        W84419  29.846  11.514  13.917
11995W        W84420  39.035  37.550   5.080
11996W        W84421  23.981  21.208  14.792
11997W        W84422  17.581   9.858  11.998
11998W        W84423   7.186  28.620   0.679
11999W        W84424  37.079  10.324  13.785
12000W        W84425  41.897  39.970  12.100
12001W        W84426  23.272  20.315  12.378
12002W        W84427  17.960  25.007   4.479
12003W        W84428   7.158  18.269   0.578
12004W        W84429  24.723   5.376  11.087
12005W        W84430   9.422   0.670  12.325
12006W        W84431  34.963  43.488  14.795
12007W        W84432  28.045  16.850  11.118
12008W        W84433  42.042  28.033   3.368
12009W        W84434  32.638  43.167   0.289
12010W        W84435   7.867  23.109  12.181
12011W        W84436  12.299  16.368   3.518
12012W        W84437  27.555  36.612  10.951
12013W        W84438  15.782  11.335   3.211
12014W        W84439   6.475  34.917   2.869
12015W        W84440  16.004  25.017   3.725
12016W        W84441  12.249  26.412  13.204
12017W        W84442  12.798   8.786  13.825
12018W        W84443  12.841  37.525  11.491
12019W        W84444   0.043   9.009   2.257
12020W        W84445  41.729   4.342   3.297
12021W        W84446  22.346  40.880   4.609
12022W        W84447   3.037  12.810   1.748
12023W        W84448  13.323   6.911   1.161
12024W        W84449  23.708  13.317  10.658
12025W        W84450  12.535  39.413   3.257
12026W        W84451   7.640  41.381  12.563
12027W        W84452  23.670  38.801   3.484
12028W        W84453   0.004  40.768   4.538
12029W        W84454  18.568  21.469  14.024
12030W        W84455   0.053   0.481  14.928
12031W        W84456   5.549  29.405   0.901
12032W        W84457  12.751  34.970   0.492
12033W        W84458  35.432  13.490   0.091
12034W        W84459  12.986   2.947   0.401
12035W        W84460   1.429  32.937  12.938
12036W        W84461  43.251  13.727  12.212
12037W        W84462  23.040  33.612  11.100
12038W        W84463  23.275   4.724  13.945
12039W        W84464  38.300   6.302  12.118
12040W        W84465  24.161  43.890  13.610
12041W        W84466  20.463  15.785  10.383
12042W        W84467  43.687  39.295   1.198
12043W        W84468  21.645   7.642   0.088
12044W        W84469  32.837  15.430  13.300
12045W        W84470  12.397  18.205   0.487
12046W        W84471   3.062   4.969   1.040
12047W        W84472  21.121  28.887   0.994
12048W        W84473  40.069   3.720   1.659
12049W        W84474   8.256  38.020   2.128
12050W        W84475   4.221   3.892  11.527
12051W        W84476  13.093  43.893  10.984
12052W        W84477   5.472  21.696   2.694
12053W        W84478  14.711  36.823   3.204
12054W        W84479   0.160  29.055   0.506
12055W        W84480   1.889  30.888   1.605
12056W        W84481   7.095  38.504  14.663
12057W        W84482  42.955   7.395   4.221
12058W        W84483   6.990  17.157  14.980
12059W        W84484  27.681  29.042   4.498
12060W        W84485  30.570  20.310   4.011
12061W        W84486  37.511  41.034   4.018
12062W        W84487  43.848  37.119  13.392
12063W        W84488   9.317  25.054   2.977
12064W        W84489   4.718  38.376   4.625
12065W        W84490  42.414  30.049   1.559
12066W        W84491  27.965  20.753  11.445
12067W        W84492  39.288  23.753   2.369
12068W        W84493   0.240  29.679  13.551
12069W        W84494   8.763  26.726   2.653
12070W        W84495  28.524  10.071   0.222
12071W        W84496  40.336   4.446   4.564
12072W        W84497  26.283  14.735   2.209
12073W        W84498  26.594  39.912  13.803
12074W        W84499  28.668  38.787  11.632
12075W        W84500  29.566  25.130   3.707
12076W        W84501  29.057  12.183  14.594
12077W        W84502   0.698  19.615  13.534
12078W        W84503  27.556   1.803   4.398
12079W        W84504   1.003  34.491   4.089
12080W        W84505   8.823  11.139   4.314
12081W        W84506  15.311  43.435   4.660
12082W        W84507  18.022  31.944   0.051
12083W        W84508  25.536  27.157   2.249
12084W        W84509  23.675  22.184  14.405
12085W        W84510  26.373  34.847   0.286
12086W        W84511  30.416  11.049   1.844
12087W        W84512   1.516   4.630  10.924
12088W        W84513  29.020  17.343  10.487
12089W        W84514  39.961  26.812   0.076
12090W        W84515  18.100  43.807   2.858
12091W        W84516  23.248  15.090  12.040
12092W        W84517  32.984  26.125   1.348
12093W        W84518  25.357  41.956   1.831
12094W        W84519  16.531  42.404  12.597
12095W        W84520  31.746  44.547  14.891
12096W        W84521  42.842   5.456   1.277
12097W        W84522  32.711  25.793   3.734
12098W        W84523  25.085  19.071  14.896
12099W        W84524  21.700  24.780  13.558
12100W        W84525  41.838  39.713  11.635
12101W        W84526  15.241  27.988   2.643
12102W        W84527  29.404  40.468  12.080
12103W        W84528  10.665  44.783   1.306
12104W        W84529  17.161  10.135   3.204
12105W        W84530  34.914   0.813  14.848
12106W        W84531  20.093   5.917  11.421
12107W        W84532  31.582  17.452   0.723
12108W        W84533  29.522  36.565  13.597
12109W        W84534  38.597  24.209  13.238
12110W        W84535  11.556   3.901   2.747
12111W        W84536  30.016  24.183  14.468
12112W        W84537   3.928  33.165   0.369
12113W        W84538  11.188  21.168  13.534
12114W        W84539   3.819  42.297  13.988
12115W        W84540  43.016  19.142   1.389
12116W        W84541   8.676  18.002  13.767
12117W        W84542  35.168  27.466   2.095
12118W        W84543  22.194  43.229  11.021
12119W        W84544  21.289  10.771  14.392
12120W        W84545  27.890  21.420   9.795
12121W        W84546  38.319   2.171  11.870
12122W        W84547  28.042  24.031   2.205
12123W        W84548  30.583  34.347   2.231
12124W        W84549  26.696  19.687   2.998
12125W        W84550  11.073  42.685   4.656
12126W        W84551   7.782  14.524   5.139
12127W        W84552  15.767   4.054   5.114
12128W        W84553  24.186  24.724   1.862
12129W        W84554  31.938  33.178  12.550
12130W        W84555   1.943   0.930  12.617
12131W        W84556   0.409  17.129  12.960
12132W        W84557  25.922  29.169   2.846
12133W        W84558  39.490  31.203   1.424
12134W        W84559  30.187  41.556   0.841
12135W        W84560  13.438   7.698  13.065
12136W        W84561  32.081  15.318   0.816
12137W        W84562   7.683  18.250  14.493
12138W        W84563  16.783   4.413  10.552
12139W        W84564  13.533  24.040   0.761
12140W        W84565   5.462  44.957  13.148
12141W        W84566  19.071  20.312  13.835
12142W        W84567  10.927  14.497  13.478
12143W        W84568   8.695  44.370   2.539
12144W        W84569  32.504  41.610  14.478
12145W        W84570  37.930  31.666   3.990
12146W        W84571  32.616   3.144   4.726
12147W        W84572  36.571  19.794   0.793
12148W        W84573  44.464  40.488  14.007
12149W        W84574   9.419   7.308   3.216
12150W        W84575  42.336   2.582   2.287
12151W        W84576  17.103  30.884  13.528
12152W        W84577  29.968  24.585   1.901
12153W        W84578   5.050  34.837   0.042
12154W        W84579  39.818  40.252  11.842
12155W        W84580  38.818  30.011  11.508
12156W        W84581  44.862  33.169  12.792
12157W        W84582  25.349  38.132   1.486
12158W        W84583  42.961  14.685   4.819
12159W        W84584   3.474  13.573   2.764
12160W        W84585   6.302  18.124  12.637
12161W        W84586  22.428  34.867   2.373
12162W        W84587  34.152  39.667  13.372
12163W        W84588   4.460  35.911   3.171
12164W        W84589  36.416  25.057   3.779
12165W        W84590  18.112  20.159  12.113
12166W        W84591   4.767  14.292  13.426
12167W        W84592  10.106  33.300   3.713
12168W        W84593  38.976  17.803  11.160
12169W        W84594  43.872  17.517  12.832
12170W        W84595  35.871  43.546  11.258
12171W        W84596  42.812  25.228   0.882
12172W        W84597  29.598  27.555  12.750
12173W        W84598  11.817  20.903   1.730
12174W        W84599  35.783  14.770  10.516
12175W        W84600  19.448  40.252  12.953
12176W        W84601  42.712   1.986  14.000
12177W        W84602  20.320  23.689   4.175
12178W        W84603  27.204   1.442  14.398
12179W        W84604  11.421  43.350   1.361
12180W        W84605  12.125  11.436   3.778
12181W        W84606  17.015   6.897  11.028
12182W        W84607  16.616  31.721   0.162
12183W        W84608  22.970  37.733  11.753
12184W        W84609  17.952  14.712  13.340
12185W        W84610   1.230   8.990   2.739
12186W        W84611  35.462  14.205  12.167
12187W        W84612  40.344  24.543   3.183
12188W        W84613  41.054   2.407   1.677
12189W        W84614  28.261  42.090   2.329
12190W        W84615  13.231  19.530  11.698
12191W        W84616  18.610   8.316   3.395
12192W        W84617  32.024  26.588  10.520
12193W        W84618   8.886  15.358  12.098
12194W        W84619  11.940   6.539  12.399
12195W        W84620  12.663  38.832   4.095
12196W        W84621  35.499  33.094  13.309
12197W        W84622  17.007  13.157   4.238
12198W        W84623   5.895  27.021   3.994
12199W        W84624  42.818  41.031   0.521
12200W        W84625   0.436  43.931   4.605
12201W        W84626  31.478  31.614  11.956
12202W        W84627  27.009   4.411  11.085
12203W        W84628  21.159  23.186  10.711
12204W        W84629  38.515  38.663  13.950
12205W        W84630   1.709  36.147  11.590
12206W        W84631  43.013  14.277   3.335
12207W        W84632  26.075  32.754   4.286
12208W        W84633  40.876  35.327  12.872
12209W        W84634  17.218  20.913  14.009
12210W        W84635  26.445  10.053  10.195
12211W        W84636  10.356   1.047  11.962
12212W        W84637  20.616  36.530  12.036
12213W        W84638   0.323  40.747   3.585
12214W        W84639  44.975  28.954   2.425
12215W        W84640   7.060  30.521   2.826
12216W        W84641  34.598  41.318   4.387
12217W        W84642  32.406   5.248   2.318
12218W        W84643  44.697  14.188   4.219
12219W        W84644   0.740   8.090  10.553
12220W        W84645  33.525   9.867  11.560
12221W        W84646  44.710  15.156  12.945
12222W        W84647   3.828   0.652   3.234
12223W        W84648  35.888  39.098   3.209
12224W        W84649   0.251  41.598  13.479
12225W        W84650  16.853  13.830   4.678
12226W        W84651  34.923  31.171   4.143
12227W        W84652  13.385   0.337   3.346
12228W        W84653  17.875  34.859   0.576
12229W        W84654  30.245  38.600  11.563
12230W        W84655  40.713  42.889  11.036
12231W        W84656  35.935  29.903  10.840
12232W        W84657  26.407  44.189  13.028
12233W        W84658  43.232  41.002  10.639
12234W        W84659  41.947  33.857   3.511
12235W        W84660  44.461   7.699  12.013
12236W        W84661  35.262  14.392  13.250
12237W        W84662   7.672   1.299   4.887
12238W        W84663  16.981  38.030  11.085
12239W        W84664  21.748  14.351  14.261
12240W        W84665   0.778  35.987   4.966
12241W        W84666  23.669   3.063  10.671
12242W        W84667  40.487   3.046   1.600
12243W        W84668  22.977  23.874   1.875
12244W        W84669  29.866   5.839   2.273
12245W        W84670  27.687   4.758   1.430
12246W        W84671  18.075  13.886   0.315
12247W        W84672  21.212  22.620   1.622
12248W        W84673  16.023  22.092  11.859
12249W        W84674   1.404   8.920   2.231
12250W        W84675  22.447  30.954  12.515
12251W        W84676   1.800  29.624   4.087
12252W        W84677   4.436  17.102  13.471
12253W        W84678  10.000  23.997   0.805
12254W        W84679   4.866  20.021   4.628
12255W        W84680   6.373   8.464  11.471
12256W        W84681  30.221   0.312  13.893
12257W        W84682   3.785  20.172   3.045
12258W        W84683  21.533  28.952  13.867
12259W        W84684   8.397  40.487   0.893
12260W        W84685  27.696   6.183  12.255
12261W        W84686  36.821  22.162   4.541
12262W        W84687  24.515  16.641  10.813
12263W        W84688   1.954   3.936  14.373
12264W        W84689  14.815  25.538   3.839
12265W        W84690  11.582  33.697   5.023
12266W        W84691  13.230  24.119   1.191
12267W        W84692  25.377  29.882   1.845
12268W        W84693  17.900  44.476  13.890
12269W        W84694  16.754  18.626  14.530
12270W        W84695  17.781  25.935  10.591
12271W        W84696  10.971  35.304  14.035
12272W        W84697   9.912   7.676   1.859
12273W        W84698   9.256   7.965   2.716
12274W        W84699  44.861   7.168  10.571
12275W        W84700  12.317   3.360   4.548
12276W        W84701  36.352  10.159   0.747
12277W        W84702   6.377  31.664  13.899
12278W        W84703  43.081  38.324  11.210
12279W        W84704  19.799   8.455  12.970
12280W        W84705  41.280  28.163   2.755
12281W        W84706  35.438  20.820  14.427
12282W        W84707  35.494  38.818  12.375
12283W        W84708  43.967  21.524  13.450
12284W        W84709  32.496   5.583   1.351
12285W        W84710  41.246  22.888   0.337
12286W        W84711  32.431  41.233   3.240
12287W        W84712  31.437  37.628   1.220
12288W        W84713  17.908  41.457   0.844
12289W        W84714  36.427   5.669   5.265
12290W        W84715  24.747  28.268   2.460
12291W        W84716  21.914  37.412  10.960
12292W        W84717  19.177  15.981   3.186
12293W        W84718  44.201   8.084   2.687
12294W        W84719  17.789  40.283   1.389
12295W        W84720  42.759  21.707   0.778
12296W        W84721  34.794  35.334   2.344
12297W        W84722  42.374  11.640   4.456
12298W        W84723  44.726  27.563  10.479
12299W        W84724  30.884  15.176  13.997
12300W        W84725  33.043  29.667   1.866
12301W        W84726  22.783  21.277  10.872
12302W        W84727  31.252  25.526  13.384
12303W        W84728  24.075  36.508   4.305
12304W        W84729  27.203  36.401  14.330
12305W        W84730  33.152  14.035   2.692
12306W        W84731  35.090  38.081   4.053
12307W        W84732  42.286  11.684   0.485
12308W        W84733   6.934  29.633   1.852
12309W        W84734   9.373  10.842   0.057
12310W        W84735   3.848  31.408  14.841
12311W        W84736  43.174   0.287  14.925
12312W        W84737  23.479   9.172   2.136
12313W        W84738   2.338  10.831   0.020
12314W        W84739  24.667  40.886  12.563
12315W        W84740  26.107  18.401  12.328
12316W        W84741  44.530  27.420  11.817
12317W        W84742  21.526   2.472   2.774
12318W        W84743  32.232   3.401  10.764
12319W        W84744  39.506  35.632  13.009
12320W        W84745  19.766  32.555   1.939
12321W        W84746  41.635  40.686   3.621
12322W        W84747  32.574  29.653  13.125
12323W        W84748   2.769  15.165  11.288
12324W        W84749  25.063  23.321  12.025
12325W        W84750   4.691   0.807   2.290
12326W        W84751  30.804  40.500   5.048
12327W        W84752  38.320  21.681  13.900
12328W        W84753   8.392  17.433   1.362
12329W        W84754  21.542  24.208   0.592
12330W        W84755  12.766  34.952  14.437
12331W        W84756   9.108  12.093   4.553
12332W        W84757  44.490  30.660   5.100
12333W        W84758  13.383  16.750  14.431
12334W        W84759  20.533  26.197  11.644
12335W        W84760  22.278  28.411   0.850
12336W        W84761  18.567  23.485   4.614
12337W        W84762  42.444  41.333  10.964
12338W        W84763   4.897  10.866  13.046
12339W        W84764   4.316  26.881  12.881
12340W        W84765  33.586  36.291   4.182
12341W        W84766  30.436  42.880   4.640
12342W        W84767  41.188   6.106  11.116
12343W        W84768  22.216  13.249   1.124
12344W        W84769   8.346  35.634  13.754
12345W        W84770   3.378   0.039   2.782
12346W        W84771   2.807  44.855   4.647
12347W        W84772  28.230   0.857   4.152
12348W        W84773   9.690  44.224   1.372
12349W        W84774  35.477  26.245  14.271
12350W        W84775  20.154  38.127  14.490
12351W        W84776  10.735   9.352  10.433
12352W        W84777   6.243  37.740   4.998
12353W        W84778  41.817  28.594  12.152
12354W        W84779  36.087   1.397   0.521
12355W        W84780  44.806  36.268   4.132
12356W        W84781  42.813  27.594  11.840
12357W        W84782  29.573  24.366  11.030
12358W        W84783   1.654   4.278  14.780
12359W        W84784  18.235   3.801   1.485
12360W        W84785  43.041  11.616   0.840
12361W        W84786  28.405   3.919  11.164
12362W        W84787  36.981   9.886   0.323
12363W        W84788   7.176  12.453  12.940
12364W        W84789   3.295  43.550  12.855
12365W        W84790  26.149   7.279   4.252
12366W        W84791   4.524  43.532   2.374
12367W        W84792  15.379  16.065  13.435
12368W        W84793  27.559  20.818  14.337
12369W        W84794  30.800  26.635  12.214
12370W        W84795   3.513  20.647  11.141
12371W        W84796  17.242  27.125  13.106
12372W        W84797  10.090   9.921   2.817
12373W        W84798   3.609   1.253   2.408
12374W        W84799  19.570  34.373   4.867
12375W        W84800   4.219  11.380   3.842
12376W        W84801  22.555  15.902   1.662
12377W        W84802   3.274   9.406   0.008
12378W        W84803  36.369  14.354   4.431
12379W        W84804  17.527  40.553  14.013
12380W        W84805  33.466  19.864   0.815
12381W        W84806  42.971  28.137   4.174
12382W        W84807   6.601  38.208   4.264
12383W        W84808  32.650  32.170  11.076
12384W        W84809  20.648  35.162  12.603
12385W        W84810  42.111  28.627   0.045
12386W        W84811  20.162   8.410  12.481
12387W        W84812   8.419  21.172  12.456
12388W        W84813  13.860  20.963  10.651
12389W        W84814   3.224   5.360   4.499
12390W        W84815   8.043  41.344   4.287
12391W        W84816  30.196   9.791   1.239
12392W        W84817  25.182  16.248  12.437
12393W        W84818   3.014  21.533   0.841
12394W        W84819  12.476  20.965  13.525
12395W        W84820   7.907  22.060   1.872
12396W        W84821  17.660  16.767   0.305
12397W        W84822  25.581  17.041   2.755
12398W        W84823  19.759  14.704   3.320
12399W        W84824  29.783  12.994  12.289
12400W        W84825   3.860  26.857  14.093
12401W        W84826  44.501   1.015  12.020
12402W        W84827  19.570   0.008  11.832
12403W        W84828   8.351  26.997   3.134
12404W        W84829  20.636  12.991  13.952
12405W        W84830  21.062  10.729   1.241
12406W        W84831  35.850  28.494   4.636
12407W        W84832  22.332  15.140  12.289
12408W        W84833  17.588  10.710   2.737
12409W        W84834   9.170  13.787   4.358
12410W        W84835  11.620   1.481   1.711
12411W        W84836  22.699  22.787  12.914
12412W        W84837  16.155  25.872  12.418
12413W        W84838  18.578  43.598  12.072
12414W        W84839  43.799   4.573   0.366
12415W        W84840  14.294  24.010  10.149
12416W        W84841  43.915  22.568   4.879
12417W        W84842   2.390  36.613  12.125
12418W        W84843  22.320  27.510  14.952
12419W        W84844  41.568  10.285  11.163
12420W        W84845  12.065  44.784  13.762
12421W        W84846  28.543  20.228  14.133
12422W        W84847  22.115  32.036  10.783
12423W        W84848  37.972  31.529  11.850
12424W        W84849  33.228  32.082  14.837
12425W        W84850   7.665  39.818  12.905
12426W        W84851  13.289  26.431  13.923
12427W        W84852   1.527  27.600  12.949
12428W        W84853   3.908   6.099   3.173
12429W        W84854  12.828  42.787   4.103
12430W        W84855  40.841   3.314  13.901
12431W        W84856  30.046  14.588   1.775
12432W        W84857  32.587  40.219   0.053
12433W        W84858   2.641  21.533  12.911
12434W        W84859   8.705  24.870   4.536
12435W        W84860  15.732  16.593  10.594
12436W        W84861  19.313  40.842   4.125
12437W        W84862   7.558  16.801   0.206
12438W        W84863   1.267  35.838   4.183
12439W        W84864  21.808  19.768  12.786
12440W        W84865  39.667   8.515  13.021
12441W        W84866  30.526  20.963  11.458
12442W        W84867  16.233  13.326   0.422
12443W        W84868  42.734  17.371  13.470
12444W        W84869  38.974  19.372  13.434
12445W        W84870  20.267   3.281   0.239
12446W        W84871  40.492  24.126   5.066
12447W        W84872   2.828  23.862   4.776
12448W        W84873  31.421   7.529   3.774
12449W        W84874  21.241  36.917   3.649
12450W        W84875  27.148  38.439   3.444
12451W        W84876  21.919  32.139  14.144
12452W        W84877  40.447  41.747  13.532
12453W        W84878  32.320  22.196  10.753
12454W        W84879   9.186  15.053  11.541
12455W        W84880  10.425  22.488   4.230
12456W        W84881   3.671  32.510  14.539
12457W        W84882  37.399  40.502  13.759
12458W        W84883  19.602  31.712   1.858
12459W        W84884  21.227   6.875   1.801
12460W        W84885  23.544  40.236   2.741
12461W        W84886  29.181   7.451  13.979
12462W        W84887  29.462   5.439  13.773
12463W        W84888  29.418  18.280   1.850
12464W        W84889   3.312   5.899   2.392
12465W        W84890  43.962  23.457  13.523
12466W        W84891  15.879  43.601   1.191
12467W        W84892  13.614  14.224   2.738
12468W        W84893  30.390  36.348  12.041
12469W        W84894  11.571  34.460   1.648
12470W        W84895  41.978   8.313  13.504
12471W        W84896  37.049  32.378   0.896
12472W        W84897  14.031  19.914   2.181
12473W        W84898  42.899  32.719   4.618
12474W        W84899   4.382   8.798   0.307
12475W        W84900  30.478  44.917  12.902
12476W        W84901  23.056  20.353  11.900
12477W        W84902  25.056  28.027   0.809
12478W        W84903  16.613   2.371  14.502
12479W        W84904  16.793  32.567   0.167
12480W        W84905  19.175   8.008  12.433
12481W        W84906   8.190  26.431  12.119
12482W        W84907   6.113  15.574  14.935
12483W        W84908  38.336  12.676  13.052
12484W        W84909  31.665  20.398  13.456
12485W        W84910  35.279   4.512  12.579
12486W        W84911  22.947   6.200  12.481
12487W        W84912  36.299  19.817  14.298
12488W        W84913  41.231  27.679   4.657
12489W        W84914  19.127  43.120  14.835
12490W        W84915  14.096  25.514  13.977
12491W        W84916  11.276  28.024  14.471
12492W        W84917   9.198  27.409   2.368
12493W        W84918   7.232   7.998  12.076
12494W        W84919  31.182  25.501   3.620
12495W        W84920  18.057  12.235   4.685
12496W        W84921  12.147  25.166   5.221
12497W        W84922  43.516  28.716   3.738
12498W        W84923  44.896  11.317   3.895
12499W        W84924   0.125   3.007   1.308
12500W        W84925   5.390   5.420  13.825
12501W        W84926  42.063  18.796  14.091
12502W        W84927  33.721  21.084   3.211
12503W        W84928  27.931  38.848   5.054
12504W        W84929   7.738  44.603   0.358
12505W        W84930   2.833  15.169  14.917
12506W        W84931   9.345  37.578  11.614
12507W        W84932  21.962  16.289   3.722
12508W        W84933  11.563  38.249  12.056
12509W        W84934  34.079  26.987   0.918
12510W        W84935   8.632  11.865   3.744
12511W        W84936  34.210  22.488  14.899
12512W        W84937  14.131  39.899   1.555
12513W        W84938  11.656   4.718  11.660
12514W        W84939  24.661  30.220   4.515
12515W        W84940  11.320  22.490   2.331
12516W        W84941   4.158  20.458   2.186
12517W        W84942   7.565  12.852  12.240
12518W        W84943  42.388  26.004   1.534
12519W        W84944  16.643  14.263   4.905
12520W        W84945  25.013   5.962   2.529
12521W        W84946  36.305  35.118   1.737
12522W        W84947  28.075  35.933  12.897
12523W        W84948  37.940  28.365   3.723
12524W        W84949  16.251   2.313  13.068
12525W        W84950  28.422  29.108  11.436
12526W        W84951  10.820  17.138   0.049
12527W        W84952  10.300  20.038  12.517
12528W        W84953  15.403  15.251   1.282
12529W        W84954  27.006  27.628   3.170
12530W        W84955  28.946  24.507   2.430
12531W        W84956  16.740  10.123  13.793
12532W        W84957   6.809  40.828  14.121
12533W        W84958  13.052   3.419  13.409
12534W        W84959  18.434  28.643  10.748
12535W        W84960  36.403  42.625   1.250
12536W        W84961  16.392  25.116   4.655
12537W        W84962  36.211  24.296   3.365
12538W        W84963  27.207  21.524  13.790
12539W        W84964  19.783  10.595  12.998
12540W        W84965  20.705   2.796  11.750
12541W        W84966  34.571  20.772   4.625
12542W        W84967  11.086  10.219   4.366
12543W        W84968  41.929  31.148  12.058
12544W        W84969  21.933  19.501  11.670
12545W        W84970   7.221  19.402   1.227
12546W        W84971  16.095   8.779   3.699
12547W        W84972  26.692  12.213  11.644
12548W        W84973   9.563  23.256   1.819
12549W        W84974  13.112  27.924   2.380
12550W        W84975  16.562   5.249   1.919
12551W        W84976  36.074  44.352   4.541
12552W        W84977  28.182  25.000   3.821
12553W        W84978  39.798  39.008   4.576
12554W        W84979  43.326   4.333   1.747
12555W        W84980  11.203  39.380  13.001
12556W        W84981  27.428  34.132  14.764
12557W        W84982  34.360  31.961  12.471
12558W        W84983  38.876  22.925   4.080
12559W        W84984  27.151  13.576   3.242
12560W        W84985  38.455  39.250   4.563
12561W        W84986  11.591  38.316   4.432
12562W        W84987   5.459   5.312   2.236
12563W        W84988  31.130  29.058  14.492
12564W        W84989  25.193  42.009  14.008
12565W        W84990  35.954   7.298  10.883
12566W        W84991   6.709  29.041   2.523
12567W        W84992   4.136  20.224  12.037
12568W        W84993  33.837  21.800  11.937
12569W        W84994   5.211  11.531   0.035
12570W        W84995  40.440  18.776  10.514
12571W        W84996  19.087  13.495   1.526
12572W        W84997   2.479  23.055   1.387
12573W        W84998  25.126  23.483   3.324
12574W        W84999  34.823  35.849   2.385
12575W        W85000   3.997  32.227  14.243
12576W        W85001  41.331  22.693   4.641
12577W        W85002  17.579  19.205  10.602
12578W        W85003  39.595  26.195  13.839
12579W        W85004  21.529  15.676  10.293
12580W        W85005  31.409  13.363  13.735
12581W        W85006  29.209  21.617   4.574
12582W        W85007  35.874  41.585   3.159
12583W        W85008  34.432  19.629  11.920
12584W        W85009  29.535  14.912   4.067
12585W        W85010  28.646   4.851   3.781
12586W        W85011  10.353  27.608  12.849
12587W        W85012  26.682  35.315  13.894
12588W        W85013  44.714  22.775  10.611
12589W        W85014  19.505  14.883   1.503
12590W        W85015   7.842  24.698  14.852
12591W        W85016  31.911  41.273   3.117
12592W        W85017   7.480   3.684   4.661
12593W        W85018  34.974  23.067  14.757
12594W        W85019  13.192  26.980   2.783
12595W        W85020   4.890  17.759   3.630
12596W        W85021  22.127  24.661  13.848
12597W        W85022   1.968   7.072  12.030
12598W        W85023  40.828  27.742  12.570
12599W        W85024   2.568  16.397  12.886
12600W        W85025  30.869  11.262  10.796
12601W        W85026  11.770  39.769  11.435
12602W        W85027  43.313  19.188  12.475
12603W        W85028  25.606  39.174  10.243
12604W        W85029  39.537  29.382   3.663
12605W        W85030   1.324  15.305   1.965
12606W        W85031  19.755  39.482   3.085
12607W        W85032  30.006  39.439  14.806
12608W        W85033  43.155  21.468  12.306
12609W        W85034  33.841  26.948   4.791
12610W        W85035  39.123   2.385   0.106
12611W        W85036  10.003  30.049  12.232
12612W        W85037  20.173  19.766  12.700
12613W        W85038   8.696  24.620   2.538
12614W        W85039  18.173  36.433   4.383
12615W        W85040   2.598   6.850   1.724
12616W        W85041  18.158   0.860  14.144
12617W        W85042  26.537  11.729  12.967
12618W        W85043  17.143   0.678  10.455
12619W        W85044  12.337  31.433   2.393
12620W        W85045  27.446   3.417  10.630
12621W        W85046   4.383  27.740  11.532
12622W        W85047  27.073  24.495   3.330
12623W        W85048  18.146  10.743  12.819
12624W        W85049  12.812  25.131   2.208
12625W        W85050   3.165   1.725  12.917
12626W        W85051  16.334  14.237   3.103
12627W        W85052  42.806   7.828   3.337
12628W        W85053  29.336  38.490   0.375
12629W        W85054  11.227   7.397   2.392
12630W        W85055   9.192  39.075  12.492
12631W        W85056   1.245  29.500   4.165
12632W        W85057  27.511   7.363  12.457
12633W        W85058   7.451  42.757  14.216
12634W        W85059  26.430  37.989  10.684
12635W        W85060  39.004  29.118  12.322
12636W        W85061   3.910  34.525  14.074
12637W        W85062  41.007   3.015  10.682
12638W        W85063  18.080  13.170  14.035
12639W        W85064  42.315  25.510   0.800
12640W        W85065  25.226   5.792  13.778
12641W        W85066  19.758  41.681   3.331
12642W        W85067   4.439   9.435   2.188
12643W        W85068  37.506  11.850  14.939
12644W        W85069  26.183  30.314   1.301
12645W        W85070  17.560  14.749  14.240
12646W        W85071  14.650   7.324   2.247
12647W        W85072  36.023  38.543  14.209
12648W        W85073  44.795  37.519   1.520
12649W        W85074  37.366   1.743  10.714
12650W        W85075  27.711   1.589  12.976
12651W        W85076  22.544  30.836   3.650
12652W        W85077   7.489  11.397  13.408
12653W        W85078  13.630   9.334  10.655
12654W        W85079   3.146  17.435   3.801
12655W        W85080   1.962  29.161  14.958
12656W        W85081  32.551  22.022   2.648
12657W        W85082  36.309  31.999   4.650
12658W        W85083   7.175  44.651  14.802
12659W        W85084  11.894  25.470   4.511
12660W        W85085  34.107  10.648  12.545
12661W        W85086   4.799  24.706   3.764
12662W        W85087  18.367  36.716  13.526
12663W        W85088  24.972  15.813  14.130
12664W        W85089  34.372   1.050  12.463
12665W        W85090  16.132  22.498   2.917
12666W        W85091  18.107   2.686  13.810
12667W        W85092  28.616  13.108  13.894
12668W        W85093  14.179   2.065  13.847
12669W        W85094   3.065   9.646   3.517
12670W        W85095  24.238   2.695  11.634
12671W        W85096  38.584   8.308   2.366
12672W        W85097  32.474  37.180   4.462
12673W        W85098  35.596  27.000   0.855
12674W        W85099  23.800  39.342  13.418
12675W        W85100  34.819  27.221   1.808
12676W        W85101  38.537  29.968  11.085
12677W        W85102  22.899   8.600  12.401
12678W        W85103  17.905  14.720   4.810
12679W        W85104   9.036  23.643  12.845
12680W        W85105   2.496  28.954   0.887
12681W        W85106  27.484  20.209  13.053
12682W        W85107  14.837  41.315  11.996
12683W        W85108  19.577  23.012  11.483
12684W        W85109  27.603  19.237  13.080
12685W        W85110  20.799  10.879  12.982
12686W        W85111   4.519   7.866  13.003
12687W        W85112   8.631   9.740  13.567
12688W        W85113   1.163  14.394  10.827
12689W        W85114  22.766  13.773  13.371
12690W        W85115   1.136  23.963  10.713
12691W        W85116  25.064  29.175   4.263
12692W        W85117   5.385   0.560  12.106
12693W        W85118   9.805  13.516   2.322
12694W        W85119  23.614   0.478  11.947
12695W        W85120  26.091   8.130  13.414
12696W        W85121  12.226   2.476  10.551
12697W        W85122  32.348  28.685   4.542
12698W        W85123  41.521  40.538  11.442
12699W        W85124   8.679   4.307   2.188
12700W        W85125  25.380  32.407   2.378
12701W        W85126  21.706  14.878   1.594
12702W        W85127  40.078   5.403  12.394
12703W        W85128   8.392  37.616   4.192
12704W        W85129  21.099  28.941   1.945
12705W        W85130  34.378  31.591  11.140
12706W        W85131  23.236  19.180  10.516
12707W        W85132  27.528  22.933   9.773
12708W        W85133  36.885  38.998  14.351
12709W        W85134   4.917  44.925  14.029
12710W        W85135   6.889  37.461   0.709
12711W        W85136  15.268  36.613   2.431
12712W        W85137  17.732  32.363  11.939
12713W        W85138  40.344  28.244  13.487
12714W        W85139  32.596  10.429   0.830
12715W        W85140  33.511   1.710   0.629
12716W        W85141  35.430  21.064   2.338
12717W        W85142  37.414  22.982   4.603
12718W        W85143  34.304  17.141  14.862
12719W        W85144  15.003   2.047   5.487
12720W        W85145  15.466   9.356   1.663
12721W        W85146  10.828  44.369  11.561
12722W        W85147  22.701  15.145   2.270
12723W        W85148   4.368  26.812   3.347
12724W        W85149  12.740  20.782   0.811
12725W        W85150  30.712  33.364  12.137
12726W        W85151   2.530  34.734  11.005
12727W        W85152  13.617  18.289  11.821
12728W        W85153  43.737  16.026   0.729
12729W        W85154  32.258  20.053  12.904
12730W        W85155  19.937   4.530  10.913
12731W        W85156   9.760  22.803   1.236
12732W        W85157  43.583  12.433   9.943
12733W        W85158  43.870  43.938   3.733
12734W        W85159   4.472   2.643  11.488
12735W        W85160  10.816   9.742  14.423
12736W        W85161  29.490   1.436   3.696
12737W        W85162   0.847  36.886   4.053
12738W        W85163  24.187  33.540   0.951
12739W        W85164  12.121  30.146  13.465
12740W        W85165  38.750   1.790  12.879
12741W        W85166  34.595  12.054  14.000
12742W        W85167  34.096  16.902   1.295
12743W        W85168  33.696  41.866  13.295
12744W        W85169   3.981  43.339  10.576
12745W        W85170  12.661   2.436  13.580
12746W        W85171   6.758   5.999  12.349
12747W        W85172  28.260  17.480  14.908
12748W        W85173  19.418   0.262   0.357
12749W        W85174  33.021  37.895   4.706
12750W        W85175  41.766  37.104  12.675
12751W        W85176   0.356  43.405   3.845
12752W        W85177  23.138  18.044   2.210
12753W        W85178  44.435   6.769  11.146
12754W        W85179  26.502  32.646  14.874
12755W        W85180  28.018  18.243  11.861
12756W        W85181  28.943  23.056  11.937
12757W        W85182  28.042  14.862  10.142
12758W        W85183  28.581  27.267  14.863
12759W        W85184  25.890  39.419  13.979
12760W        W85185   0.439  32.385  13.152
12761W        W85186  28.147  18.278  13.915
12762W        W85187  21.061  16.248   4.363
12763W        W85188  23.593  44.567   1.225
12764W        W85189   1.379  10.394  13.371
12765W        W85190  22.610  21.237   2.002
12766W        W85191   7.588  14.180   1.447
12767W        W85192  15.736  19.768   1.894
12768W        W85193  39.958   2.398   0.040
12769W        W85194  30.662  41.304   0.922
12770W        W85195   1.986  14.032  11.186
12771W        W85196  41.770   4.924   4.141
12772W        W85197  15.251  38.075   4.112
12773W        W85198  36.020  19.832   3.384
12774W        W85199  31.919   3.949  11.146
12775W        W85200  17.512  11.648   2.727
12776W        W85201  11.332  15.271  14.442
12777W        W85202  32.911  20.520   3.204
12778W        W85203  24.034   4.194  12.731
12779W        W85204  12.965  14.000   4.146
12780W        W85205   9.170  32.196  14.904
12781W        W85206  43.761  31.356  11.093
12782W        W85207   7.206  22.344   1.357
12783W        W85208  27.062  39.288   1.267
12784W        W85209  18.979  43.488  14.509
12785W        W85210  10.821  44.549   2.801
12786W        W85211  27.017  40.057  11.911
12787W        W85212  35.791  32.659  13.371
12788W        W85213  31.378  19.819  12.571
12789W        W85214  18.152   8.347   2.314
12790W        W85215  23.237  21.266  10.667
12791W        W85216  20.741  44.373   1.016
12792W        W85217  21.214  36.974  11.702
12793W        W85218  21.855  23.873   4.206
12794W        W85219  29.888  28.123   2.695
12795W        W85220  31.705  24.563   1.375
12796W        W85221  37.983  22.204  14.883
12797W        W85222   3.832  23.166  11.407
12798W        W85223  44.446  32.423   4.574
12799W        W85224  10.439  23.367  11.863
12800W        W85225  32.099   8.711  12.436
12801W        W85226  33.785   7.340  10.542
12802W        W85227  32.749   1.546   2.239
12803W        W85228  29.408  42.761   3.640
12804W        W85229  34.621  33.629  14.043
12805W        W85230   4.644   9.300  11.335
12806W        W85231  24.149  20.525  12.006
12807W        W85232  13.339  34.388  11.405
12808W        W85233  34.057  17.546  14.660
12809W        W85234  33.832   6.194   1.802
12810W        W85235   6.667  38.690   4.142
12811W        W85236  38.893  24.907   0.215
12812W        W85237   9.663  41.984   2.888
12813W        W85238   2.391  42.847   3.593
12814W        W85239   8.198  18.437   1.454
12815W        W85240  27.607  32.755  14.019
12816W        W85241  20.056  44.299  12.347
12817W        W85242  31.848   8.098   4.940
12818W        W85243  29.482  24.759   1.769
12819W        W85244  27.629  23.785   0.566
12820W        W85245   3.376  18.024   3.651
12821W        W85246  26.254   6.298   1.959
12822W        W85247  11.401  14.689   2.410
12823W        W85248   8.846  32.508   2.653
12824W        W85249  37.797   9.495   2.720
12825W        W85250   7.969   1.314   3.701
12826W        W85251  23.812  28.114   1.492
12827W        W85252  37.410  36.821  14.444
12828W        W85253  15.192  30.877  11.237
12829W        W85254  25.216  36.029  12.030
12830W        W85255   0.433  37.866   2.616
12831W        W85256  40.964   5.699   4.628
12832W        W85257  14.282  41.613   3.887
12833W        W85258   4.646  23.571  14.366
12834W        W85259   7.324  20.085   3.859
12835W        W85260  43.360   5.306   4.769
12836W        W85261   9.785  40.744   2.885
12837W        W85262  19.302  33.976  10.605
12838W        W85263  23.190  33.383  12.950
12839W        W85264   2.782  16.883  12.885
12840W        W85265  21.641  31.814   1.703
12841W        W85266  41.203  28.795   0.717
12842W        W85267  32.604   4.391  14.439
12843W        W85268  25.719  28.149  11.480
12844W        W85269   5.176  18.658   5.192
12845W        W85270   4.265  28.441   2.246
12846W        W85271  23.557  26.243  11.860
12847W        W85272  41.837  40.840   1.802
12848W        W85273  32.133  29.216  14.516
12849W        W85274  10.335  21.290  13.553
12850W        W85275   0.715  12.605   4.784
12851W        W85276  12.336   1.788  10.113
12852W        W85277   0.538  27.021  14.318
12853W        W85278  15.717   9.882  13.090
12854W        W85279  44.915  19.098  13.405
12855W        W85280  22.753  14.430  14.212
12856W        W85281  38.478  34.957   0.503
12857W        W85282  33.342   9.824   0.457
12858W        W85283   2.252  34.903  11.379
12859W        W85284   9.725  34.486   1.962
12860W        W85285  10.575  30.624  10.109
12861W        W85286   2.612  19.202   1.692
12862W        W85287  22.412  25.119   0.318
12863W        W85288  35.134  31.613  10.577
12864W        W85289  14.215  35.639   4.606
12865W        W85290  43.828  38.635   0.284
12866W        W85291  25.129  12.785   0.972
12867W        W85292  27.531  28.532   2.941
12868W        W85293   9.916  25.060   0.674
12869W        W85294  39.758  34.511  13.319
12870W        W85295  21.612  39.345   1.215
12871W        W85296  26.422  13.807   4.511
12872W        W85297   4.501  35.003   4.599
12873W        W85298   6.042   6.142  12.099
12874W        W85299  42.511  12.603   3.203
12875W        W85300  40.835  41.925  13.828
12876W        W85301  44.234  31.124   1.179
12877W        W85302  11.453   7.788   2.730
12878W        W85303  36.537  14.267  14.956
12879W        W85304   5.932  40.534  13.718
12880W        W85305  27.198   2.260  11.577
12881W        W85306  30.615  25.572   3.607
12882W        W85307   3.716  40.950   2.658
12883W        W85308  20.156  21.301  14.832
12884W        W85309  44.224  39.489   2.310
12885W        W85310   1.506  30.555  14.508
12886W        W85311  11.096   0.510  13.214
12887W        W85312  14.192  12.374  14.728
12888W        W85313  39.298  32.947   0.574
12889W        W85314   9.775  23.254   0.394
12890W        W85315   7.746   5.738   3.431
12891W        W85316  17.595  14.093   3.169
12892W        W85317   7.775   7.360  14.843
12893W        W85318  24.895  43.906  13.854
12894W        W85319  22.811  16.347   1.708
12895W        W85320  13.965  11.795   1.858
12896W        W85321  20.913  31.398   2.568
12897W        W85322  12.162  10.956   1.136
12898W        W85323  24.549   3.487   3.194
12899W        W85324   8.297  32.489   3.235
12900W        W85325  19.673  18.246   0.346
12901W        W85326  27.512  35.583  13.404
12902W        W85327  30.427  21.625   3.179
12903W        W85328  31.154   5.328   0.973
12904W        W85329  34.426  33.928   3.788
12905W        W85330  28.938  38.322   4.488
12906W        W85331  25.575   7.644   1.320
12907W        W85332  19.932   2.818  14.577
12908W        W85333  32.458  23.572  12.457
12909W        W85334  33.658  38.495   4.103
12910W        W85335  38.756   4.346  14.897
12911W        W85336  12.752  26.981   1.339
12912W        W85337  41.977  23.232  14.433
12913W        W85338  35.562  42.029   0.434
12914W        W85339  25.599  37.979  12.961
12915W        W85340  34.214  11.156  13.117
12916W        W85341  16.293  28.049  13.962
12917W        W85342  24.394  20.888  14.966
12918W        W85343  41.104  41.484   0.891
12919W        W85344   2.510  21.572   4.594
12920W        W85345  20.631  11.763   4.018
12921W        W85346   4.871  38.598   2.275
12922W        W85347  25.639  10.712   4.302
12923W        W85348  15.633   5.460  11.865
12924W        W85349  12.768  11.634  14.578
12925W        W85350  12.678  35.365  10.653
12926W        W85351  31.206  40.367   2.542
12927W        W85352  28.194  18.273   1.259
12928W        W85353   1.244  37.349   4.081
12929W        W85354  37.800  32.729  14.493
12930W        W85355  25.240  16.707  13.531
12931W        W85356   1.399   9.004  13.842
12932W        W85357   7.705  16.656  11.077
12933W        W85358  43.514  35.535  10.977
12934W        W85359   0.364  15.616  14.875
12935W        W85360  23.900  29.387  11.754
12936W        W85361  37.344  39.266  11.248
12937W        W85362  14.133   4.368  14.669
12938W        W85363  41.609  29.453   4.538
12939W        W85364  34.508   8.730  14.939
12940W        W85365  14.591  37.157  13.798
12941W        W85366  18.797   2.541   3.374
12942W        W85367  28.548  38.944  14.463
12943W        W85368  27.204   4.368   1.224
12944W        W85369  18.379   2.785  12.533
12945W        W85370  43.383  34.406   1.874
12946W        W85371  19.816  10.947   4.978
12947W        W85372  28.020   1.730  12.589
12948W        W85373  29.249  14.253   1.946
12949W        W85374  34.304  26.630   1.292
12950W        W85375  27.487  32.485   0.742
12951W        W85376  40.473  34.874  13.938
12952W        W85377  20.998  23.959   3.703
12953W        W85378   8.111  23.228  11.246
12954W        W85379  44.345  18.602   1.337
12955W        W85380   9.769  31.496   3.898
12956W        W85381  21.687  29.466   3.114
12957W        W85382   6.457   5.867   3.202
12958W        W85383  21.514  22.017  13.063
12959W        W85384  12.005  18.360   2.868
12960W        W85385  22.976  33.655  14.439
12961W        W85386  11.243  11.733  13.742
12962W        W85387  34.099  29.645  10.785
12963W        W85388  19.180  22.304   4.685
12964W        W85389  39.088  39.811   2.261
12965W        W85390   1.428  18.101   4.250
12966W        W85391  36.618   9.188  13.051
12967W        W85392  25.654  22.544   1.462
12968W        W85393  32.402  17.798   0.164
12969W        W85394   6.706  38.407  10.537
12970W        W85395   9.705  42.095  10.577
12971W        W85396  41.550   5.325  14.353
12972W        W85397  41.593  21.893  12.323
12973W        W85398   5.422  24.069  11.952
12974W        W85399  21.723  42.363   0.287
12975W        W85400  36.647  33.038   3.601
12976W        W85401   0.480  12.167  14.977
12977W        W85402  28.113  17.224   0.358
12978W        W85403   6.973  39.387   4.669
12979W        W85404  37.979   2.952   3.751
12980W        W85405   9.626  11.937  13.961
12981W        W85406  13.580  12.032   2.147
12982W        W85407   4.459  40.424   4.306
12983W        W85408  42.568  12.026  14.997
12984W        W85409  20.748  34.119  10.429
12985W        W85410   0.842  15.234   0.267
12986W        W85411   3.026  13.089   3.194
12987W        W85412   5.248  37.274  14.172
12988W        W85413   6.690  39.809  10.618
12989W        W85414   8.863  13.097  13.799
12990W        W85415   3.503  17.152  13.059
12991W        W85416  35.832  44.566  10.737
12992W        W85417  19.257  16.684   4.100
12993W        W85418  17.769  20.166   0.981
12994W        W85419   2.656   4.363  14.538
12995W        W85420  31.952  30.529   3.114
12996W        W85421  11.333   0.273   3.240
12997W        W85422  17.777   3.037  10.958
12998W        W85423   8.904  32.353   1.013
12999W        W85424   2.648  32.476   3.992
13000W        W85425  38.751  19.207   3.619
13001W        W85426  36.982  34.123   4.134
13002W        W85427  40.891  23.958   2.840
13003W        W85428  26.320  17.652   4.538
13004W        W85429  20.202  26.378   3.714
13005W        W85430  38.853  29.428   4.215
13006W        W85431   4.943  38.373  11.929
13007W        W85432   5.112   7.795  13.629
13008W        W85433  28.764  36.307  12.965
13009W        W85434  38.776  16.255   2.201
13010W        W85435  14.875  16.963  13.531
13011W        W85436  22.033  26.994   1.809
13012W        W85437  28.124  39.287  11.171
13013W        W85438  11.052  33.791  14.386
13014W        W85439  19.520   9.307  13.423
13015W        W85440  17.347  33.954   3.240
13016W        W85441  25.179  37.343  14.803
13017W        W85442  18.335  42.289  13.638
13018W        W85443  12.368  23.530   1.894
13019W        W85444  10.051  42.505   1.397
13020W        W85445   1.179  31.013  13.513
13021W        W85446  18.174   4.996  10.505
13022W        W85447   7.136  13.182   1.381
13023W        W85448  23.681  41.365   3.436
13024W        W85449  24.781  43.520  12.608
13025W        W85450  41.642  10.540  12.830
13026W        W85451  11.921  36.362  11.490
13027W        W85452  21.232  21.932  10.619
13028W        W85453  10.409  41.492  14.305
13029W        W85454  21.656  44.959  10.683
13030W        W85455  42.533  21.597   1.225
13031W        W85456  39.422  25.641  11.419
13032W        W85457   5.875  32.107  12.830
13033W        W85458  36.811  15.034   0.243
13034W        W85459  12.670  29.571  12.202
13035W        W85460  30.772   8.454   3.509
13036W        W85461   2.437  10.265  12.934
13037W        W85462  42.277  20.044  10.634
13038W        W85463  13.367  44.468  14.017
13039W        W85464  14.206  24.236   4.685
13040W        W85465   1.304  30.104   1.321
13041W        W85466  36.953  18.009   3.717
13042W        W85467  44.254  37.333   0.445
13043W        W85468   7.913  21.462  14.668
13044W        W85469  12.341  14.776  13.667
13045W        W85470  25.458  11.198  13.264
13046W        W85471  10.457   8.742  12.822
13047W        W85472   8.331  43.872   0.731
13048W        W85473  39.400  13.164   0.116
13049W        W85474  36.844  42.408  12.415
13050W        W85475  41.315  25.480  10.711
13051W        W85476  34.543  13.635  12.922
13052W        W85477  10.960  28.877  14.050
13053W        W85478  15.464   1.866   2.030
13054W        W85479   3.185  28.580   2.793
13055W        W85480   9.990  13.832  14.393
13056W        W85481  33.930  30.694  12.691
13057W        W85482  25.455   5.171   2.292
13058W        W85483  13.773  44.929  13.444
13059W        W85484  22.506  12.564  10.681
13060W        W85485  30.670  20.573   2.659
13061W        W85486  27.464  26.498  14.699
13062W        W85487  26.588   1.105  11.134
13063W        W85488  11.191  24.788  14.401
13064W        W85489  31.054  38.513   0.079
13065W        W85490  20.977  17.780  11.952
13066W        W85491  44.517  25.169   4.597
13067W        W85492  28.644  21.697   3.643
13068W        W85493  34.549  22.659  12.368
13069W        W85494  26.596  32.155  10.790
13070W        W85495  36.346  39.558  11.064
13071W        W85496  30.130  24.396   1.428
13072W        W85497  18.341  37.872   3.869
13073W        W85498  34.984  21.286   2.548
13074W        W85499  34.365  31.333  11.591
13075W        W85500  25.020  36.713   4.646
13076W        W85501  44.226  22.301  13.018
13077W        W85502   4.949  10.412   3.222
13078W        W85503  12.509   5.684   0.030
13079W        W85504  21.506  26.028   0.864
13080W        W85505   8.927  23.058  13.994
13081W        W85506  11.801  34.379   0.332
13082W        W85507  30.058  39.847  12.151
13083W        W85508  44.616  40.875  14.319
13084W        W85509  40.891  14.403  14.028
13085W        W85510  18.900  10.432   3.300
13086W        W85511  35.971  27.987   2.229
13087W        W85512  11.331  21.182   1.806
13088W        W85513  20.677  29.611   4.075
13089W        W85514  25.934   8.325   5.136
13090W        W85515  35.873  25.162   2.907
13091W        W85516  32.546  40.810  12.041
13092W        W85517  17.541  27.531  13.422
13093W        W85518  25.473  33.300   2.302
13094W        W85519  40.448  42.774  11.522
13095W        W85520   6.634  27.468  11.597
13096W        W85521  28.464  10.358   4.126
13097W        W85522   2.709  16.086  13.260
13098W        W85523  30.078  43.429  11.263
13099W        W85524  30.554  16.231  11.251
13100W        W85525  27.150  37.633  12.116
13101W        W85526  16.308  44.012   2.128
13102W        W85527   6.628  17.286   0.958
13103W        W85528  41.237  35.956  14.377
13104W        W85529   4.819  25.460   0.307
13105W        W85530  41.905  14.745   1.839
13106W        W85531   3.246  42.429   0.288
13107W        W85532  13.162  24.174   3.739
13108W        W85533  31.421  16.780  10.608
13109W        W85534   3.743   5.588   3.122
13110W        W85535  14.391  44.321   0.931
13111W        W85536  41.031   9.328  10.592
13112W        W85537   1.868  12.790   3.229
13113W        W85538  21.823  14.300   4.601
13114W        W85539  24.080  42.041  11.104
13115W        W85540  20.495  39.910  14.946
13116W        W85541  42.515  38.724  11.699
13117W        W85542  19.231   2.167  10.700
13118W        W85543  39.323  26.205  12.582
13119W        W85544  28.388   9.739   3.051
13120W        W85545  23.294  11.436  12.523
13121W        W85546  21.214  15.052   0.778
13122W        W85547  28.096  40.313   1.399
13123W        W85548  28.127  13.701   1.237
13124W        W85549  39.041  37.860  10.970
13125W        W85550  44.255  34.545  10.705
13126W        W85551  21.269  30.368  13.901
13127W        W85552   2.435  39.314   1.333
13128W        W85553  29.721  40.414  12.472
13129W        W85554   0.198  34.431  10.677
13130W        W85555   3.281   0.944   4.528
13131W        W85556  15.616  22.237  13.920
13132W        W85557  11.884  18.450  11.917
13133W        W85558   3.682  35.726  14.325
13134W        W85559  18.028  21.687   3.680
13135W        W85560  29.202  24.895   1.305
13136W        W85561  36.592   8.257   2.670
13137W        W85562  39.263  18.313   4.436
13138W        W85563  38.954   9.337  13.478
13139W        W85564  22.967   2.486   2.767
13140W        W85565  21.524  14.133  12.876
13141W        W85566  38.590  23.228   2.650
13142W        W85567   0.692  26.143  12.289
13143W        W85568  36.959  23.422  12.559
13144W        W85569   9.192   2.914  12.074
13145W        W85570  26.669   6.954   1.395
13146W        W85571  16.793  32.349   4.127
13147W        W85572   7.299   8.813  12.372
13148W        W85573   7.291  19.982   0.205
13149W        W85574   8.978  40.971  13.238
13150W        W85575  27.765  13.158   3.830
13151W        W85576  16.251  11.829   4.808
13152W        W85577   2.433  25.610  14.417
13153W        W85578  21.188   6.973  14.338
13154W        W85579  44.832   4.115  14.504
13155W        W85580  35.196  28.508   0.619
13156W        W85581  10.205   5.370   0.223
13157W        W85582  11.227  18.531   2.787
13158W        W85583   0.250  22.910  13.871
13159W        W85584  21.083  21.483  12.531
13160W        W85585  22.800  34.933   0.370
13161W        W85586  30.555  11.256   3.811
13162W        W85587   0.454  22.832  11.073
13163W        W85588  37.905  18.811  12.118
13164W        W85589  38.790  18.795  12.148
13165W        W85590  21.383   2.103  12.112
13166W        W85591   0.098  21.568   3.342
13167W        W85592  33.016  30.871   2.793
13168W        W85593  34.384  39.016  10.932
13169W        W85594  38.975  18.304  12.052
13170W        W85595   1.697   3.180   3.219
13171W        W85596  44.454  40.455   4.005
13172W        W85597   2.505  40.580  14.740
13173W        W85598  20.662  30.145   2.400
13174W        W85599  31.701  23.660   4.886
13175W        W85600  18.607  12.302  14.860
13176W        W85601  16.096  15.415   3.648
13177W        W85602  20.532   6.308   5.073
13178W        W85603  38.498  40.505   2.797
13179W        W85604  29.018   2.254   2.096
13180W        W85605  19.277  14.599   1.896
13181W        W85606  42.274  34.088   0.255
13182W        W85607  31.820  22.566  12.447
13183W        W85608  17.194  32.072  12.130
13184W        W85609  31.160  15.907  10.248
13185W        W85610  42.396  30.958  14.841
13186W        W85611  13.618  42.094   4.379
13187W        W85612  17.914  18.996  12.366
13188W        W85613  22.639  39.865   2.814
13189W        W85614  23.239  29.519  13.477
13190W        W85615  17.537   6.289   3.145
13191W        W85616  34.832  28.569  14.242
13192W        W85617   6.770  37.984   4.757
13193W        W85618   1.515  16.653   4.663
13194W        W85619  32.234  44.839  11.686
13195W        W85620  31.845  43.240  12.438
13196W        W85621  16.099  21.693  13.127
13197W        W85622  19.712  16.588   4.745
13198W        W85623  31.645  12.333   4.725
13199W        W85624  10.171  37.002   2.861
13200W        W85625  32.872  10.500  11.991
13201W        W85626   0.418  42.488   1.368
13202W        W85627  17.908  12.433   0.343
13203W        W85628   0.791  26.402   1.351
13204W        W85629  39.957   6.027   4.709
13205W        W85630  13.478  13.734   2.634
13206W        W85631   2.020  42.492  11.630
13207W        W85632  26.506  25.829  13.831
13208W        W85633   9.180  37.616   3.747
13209W        W85634   3.331  11.771   2.132
13210W        W85635  41.669  38.380  11.282
13211W        W85636  12.990  13.668   0.751
13212W        W85637  29.593  37.450  13.563
13213W        W85638  36.412  12.569   0.411
13214W        W85639   8.773   6.813  12.882
13215W        W85640  12.496  19.310  13.784
13216W        W85641   8.693  33.137   1.217
13217W        W85642  13.769  24.470  14.492
13218W        W85643   4.693  20.097   0.051
13219W        W85644  29.156   1.290   5.068
13220W        W85645  23.728  21.242  14.301
13221W        W85646   7.263  14.884   1.190
13222W        W85647  16.094   3.354   1.514
13223W        W85648   9.278  26.321  10.204
13224W        W85649  32.922  42.331   0.747
13225W        W85650  13.671  35.401  14.774
13226W        W85651  10.349  39.705  13.942
13227W        W85652  10.682  19.475   0.016
13228W        W85653  12.112  34.895   1.402
13229W        W85654   9.238  31.416  14.500
13230W        W85655  14.070  21.002   0.954
13231W        W85656   5.511  43.918   2.714
13232W        W85657   1.433  35.870  13.827
13233W        W85658  28.926   3.274  10.736
13234W        W85659  24.468  26.315  11.355
13235W        W85660  44.906  38.592   2.854
13236W        W85661  11.374   6.344   3.895
13237W        W85662  28.906  30.224   0.891
13238W        W85663  32.549  39.050   2.287
13239W        W85664  43.292  37.692  14.842
13240W        W85665  18.388  33.606  13.268
13241W        W85666  38.160   6.823  10.093
13242W        W85667   6.932   0.735   1.669
13243W        W85668  25.968  32.908  10.821
13244W        W85669  11.817  39.325  13.615
13245W        W85670   9.118   6.337  13.428
13246W        W85671   6.728  17.345   1.903
13247W        W85672  29.758  35.611   0.895
13248W        W85673  25.562  21.967   0.777
13249W        W85674  17.257  11.546  10.662
13250W        W85675  34.419  36.376  14.860
13251W        W85676  41.262  11.593  14.852
13252W        W85677  19.714   0.508   2.064
13253W        W85678  38.277  21.748  12.993
13254W        W85679  38.028   3.425  12.726
13255W        W85680   4.952  24.872   4.288
13256W        W85681  33.929  16.681  12.780
13257W        W85682  28.189   2.730  12.449
13258W        W85683  19.949   4.751   4.708
13259W        W85684  38.003   7.892   5.505
13260W        W85685  21.137   7.789  11.471
13261W        W85686  30.684  17.690  12.949
13262W        W85687   5.915  14.178   3.907
13263W        W85688  42.434  30.883  14.320
13264W        W85689  17.059  28.272   1.238
13265W        W85690  32.580  12.333   1.825
13266W        W85691  31.863  33.394  13.132
13267W        W85692  40.698  23.704  12.859
13268W        W85693  18.023  29.136   4.158
13269W        W85694  32.870  18.627  14.951
13270W        W85695  42.830  33.521   1.731
13271W        W85696  32.333  44.015   2.762
13272W        W85697  16.088  31.272   3.763
13273W        W85698   3.259  38.985  12.621
13274W        W85699  42.436  32.572   3.343
13275W        W85700  39.843  15.463  13.337
13276W        W85701   2.466   7.831   0.863
13277W        W85702  38.822   8.070  13.987
13278W        W85703   7.258  21.880  10.694
13279W        W85704   2.024  14.381  14.880
13280W        W85705   2.238  31.475   4.430
13281W        W85706  33.647  19.127  10.921
13282W        W85707  11.648  32.506   2.321
13283W        W85708  16.308  27.528  13.996
13284W        W85709  40.533  30.040   2.287
13285W        W85710  33.444   8.629  14.937
13286W        W85711   8.727  37.400  13.959
13287W        W85712  18.055  29.887  12.214
13288W        W85713  13.851  39.189   4.118
13289W        W85714  13.656  30.143   0.635
13290W        W85715   4.821   3.916   1.704
13291W        W85716  39.099  10.633   2.361
13292W        W85717  36.343   9.365   9.937
13293W        W85718  20.803  10.388   2.696
13294W        W85719   9.790   8.309  13.859
13295W        W85720  32.496  32.015  10.601
13296W        W85721  19.641   4.391   3.845
13297W        W85722  25.478  20.548  13.076
13298W        W85723  41.418  27.542  13.729
13299W        W85724   1.940  12.055   3.597
13300W        W85725  32.905  23.634   2.276
13301W        W85726  21.591  35.300   0.882
13302W        W85727   5.870  42.838  11.650
13303W        W85728   7.832  13.722   1.350
13304W        W85729   2.694  11.000   0.789
13305W        W85730  15.117  10.930   4.069
13306W        W85731  40.440  10.117  12.539
13307W        W85732  15.617  25.344   4.898
13308W        W85733  39.923   7.932  11.977
13309W        W85734  44.874   1.026  14.056
13310W        W85735  41.334  44.416  11.207
13311W        W85736  36.810   0.325  14.054
13312W        W85737  22.569  13.436   5.019
13313W        W85738  18.080  20.670   3.596
13314W        W85739  29.579  22.017  13.792
13315W        W85740  12.700   8.703  11.417
13316W        W85741   1.285  30.807   3.555
13317W        W85742  16.033  15.325  11.046
13318W        W85743  28.599  40.706  10.289
13319W        W85744  30.929  28.639  13.594
13320W        W85745  24.264  21.251  10.551
13321W        W85746  16.499  18.092   2.358
13322W        W85747  25.144  43.747   4.055
13323W        W85748   9.860  29.012   0.910
13324W        W85749  27.408  22.786   4.565
13325W        W85750  33.172  31.036   1.846
13326W        W85751  12.661  27.542  11.538
13327W        W85752  19.246  26.619   2.787
13328W        W85753  37.554  26.664   1.699
13329W        W85754  39.832  43.099  14.335
13330W        W85755  39.624  28.901   3.837
13331W        W85756  42.555   5.673  14.898
13332W        W85757  32.546  13.974   2.753
13333W        W85758  35.441   8.274  14.996
13334W        W85759  31.780  44.093   0.760
13335W        W85760   6.740  14.365  11.245
13336W        W85761  27.168  15.563   4.075
13337W        W85762  10.730  20.137  14.310
13338W        W85763  31.313  17.264   3.511
13339W        W85764   3.607  44.711  12.150
13340W        W85765  25.947  35.320  14.478
13341W        W85766   0.471  36.505   4.103
13342W        W85767  23.110   0.445   3.159
13343W        W85768  42.607  36.770  13.047
13344W        W85769  15.019  43.750   1.462
13345W        W85770  41.247  20.322   2.346
13346W        W85771   4.475   6.754   2.765
13347W        W85772  16.093   5.914   0.342
13348W        W85773   2.933   6.613   3.552
13349W        W85774  21.254   9.274   1.327
13350W        W85775  17.977  16.198  13.991
13351W        W85776  35.627  13.696   3.618
13352W        W85777  32.737  13.072  14.287
13353W        W85778   9.453  16.638   0.540
13354W        W85779  21.243   5.929   0.431
13355W        W85780  34.382  33.538  14.532
13356W        W85781  28.711  19.736   0.911
13357W        W85782  26.646  26.855   4.254
13358W        W85783  13.268  15.107  11.410
13359W        W85784  20.777  18.075   3.454
13360W        W85785  12.081   1.265   1.218
13361W        W85786  27.137  17.238  10.412
13362W        W85787  41.090  27.937  13.871
13363W        W85788  10.866  22.793   3.208
13364W        W85789  19.655  19.717   4.454
13365W        W85790  26.108   9.037  14.572
13366W        W85791  44.334   7.259   3.161
13367W        W85792  40.879  31.357   2.807
13368W        W85793  36.556  38.568   1.790
13369W        W85794  21.715  15.847   2.747
13370W        W85795   7.742  28.937   0.486
13371W        W85796  27.481   8.312   3.111
13372W        W85797  23.567  40.787   2.241
13373W        W85798  22.512  43.457  11.959
13374W        W85799  23.096  41.750  12.460
13375W        W85800  20.560  37.528  12.940
13376W        W85801  22.736  26.475  13.843
13377W        W85802  21.114   0.333  11.775
13378W        W85803   0.937  39.150  11.723
13379W        W85804  27.434  13.601  13.900
13380W        W85805  38.219   8.306   3.680
13381W        W85806   1.943  44.968  14.873
13382W        W85807  42.416   3.372  10.814
13383W        W85808  18.051   3.377  14.255
13384W        W85809   7.674  23.186   2.714
13385W        W85810  38.172  26.466  14.292
13386W        W85811   8.829  34.378   2.839
13387W        W85812  32.820   3.398   2.278
13388W        W85813  23.175   8.610   3.171
13389W        W85814  37.684  25.167   1.855
13390W        W85815  21.061  13.342   2.993
13391W        W85816  36.051   1.443  13.945
13392W        W85817  11.716  26.559   4.210
13393W        W85818  43.552  19.817   1.845
13394W        W85819  32.448  27.070   1.412
13395W        W85820  22.717  20.191  13.859
13396W        W85821  22.192  32.707   3.644
13397W        W85822   8.840   0.855   2.811
13398W        W85823  37.236   6.389  13.776
13399W        W85824  27.792  19.699  13.533
13400W        W85825   6.454  14.231  12.585
13401W        W85826  30.891  23.699   2.290
13402W        W85827  35.319  12.590  13.489
13403W        W85828  31.785   2.783  13.756
13404W        W85829  20.003   9.175   1.867
13405W        W85830   9.913  27.677  13.128
13406W        W85831  18.114  36.376  11.472
13407W        W85832  25.403  32.925  11.595
13408W        W85833  24.387  10.843   1.139
13409W        W85834   1.351   8.676   4.745
13410W        W85835  40.785  40.336   0.382
13411W        W85836  13.170   5.760  14.541
13412W        W85837  40.954  25.110  10.775
13413W        W85838  29.619  44.462  10.500
13414W        W85839   5.265  34.205  13.934
13415W        W85840  10.823  43.529   2.729
13416W        W85841   7.778  34.410  11.588
13417W        W85842  39.331   3.422  10.759
13418W        W85843  32.522   6.240   0.266
13419W        W85844   8.592  28.019  10.899
13420W        W85845  14.768  38.195   4.824
13421W        W85846   3.899  12.788   3.146
13422W        W85847  36.003  12.762   4.189
13423W        W85848  27.313   6.627  10.577
13424W        W85849  18.523   1.322   4.700
13425W        W85850  44.439  16.508  14.770
13426W        W85851  37.857  31.751  12.852
13427W        W85852  30.757  24.007  13.314
13428W        W85853  18.598   6.661  12.857
13429W        W85854  23.905   5.222  14.235
13430W        W85855  14.122  37.932  11.509
13431W        W85856   2.601  30.930   4.183
13432W        W85857  34.986  22.810   2.329
13433W        W85858  28.913  43.851  14.044
13434W        W85859  43.004  12.393  14.104
13435W        W85860  30.663  41.938  14.055
13436W        W85861  26.715  15.151  13.106
13437W        W85862  23.338  25.611  12.567
13438W        W85863  35.126  10.441   2.934
13439W        W85864  17.415  16.491   4.423
13440W        W85865  23.545  12.775  10.571
13441W        W85866  20.685  32.823   1.778
13442W        W85867  19.359  32.063  12.523
13443W        W85868  34.933   8.252  11.441
13444W        W85869   0.392   3.824   0.302
13445W        W85870  10.275  30.110   4.633
13446W        W85871  25.009  43.902   3.116
13447W        W85872   2.521  36.673   3.220
13448W        W85873  12.280  28.675  12.440
13449W        W85874   2.756  14.432  12.203
13450W        W85875   9.713  37.449  12.157
13451W        W85876  24.542  18.291  12.398
13452W        W85877  21.775  30.984   1.286
13453W        W85878   0.734  17.039  11.494
13454W        W85879  31.972   4.347  12.806
13455W        W85880  17.554  21.742  11.533
13456W        W85881  25.555  18.648   1.529
13457W        W85882  14.824  32.712   2.842
13458W        W85883  14.216  20.697   2.919
13459W        W85884   5.828  23.285   2.563
13460W        W85885  13.021   9.188  12.187
13461W        W85886   6.628  20.824   2.434
13462W        W85887  33.444  33.113   0.477
13463W        W85888  19.620  34.882   3.231
13464W        W85889  17.285  10.577   4.574
13465W        W85890  28.464  15.859  12.082
13466W        W85891  43.972  12.760  10.821
13467W        W85892  11.178   3.384   1.733
13468W        W85893  20.629  30.382   1.738
13469W        W85894   4.710  25.268  12.214
13470W        W85895  24.121  44.567   0.985
13471W        W85896   0.853   1.452  12.353
13472W        W85897  24.541  21.686   2.819
13473W        W85898  11.357   4.679  12.384
13474W        W85899  29.216  16.625  11.694
13475W        W85900  11.575  30.570   3.223
13476W        W85901  43.496  23.141   2.952
13477W        W85902  23.443  12.504  10.995
13478W        W85903  24.979  35.052   3.346
13479W        W85904  20.291  38.158   0.437
13480W        W85905  10.662   8.581   0.420
13481W        W85906  37.625  27.213   2.728
13482W        W85907  18.751   1.328   2.244
13483W        W85908  30.784  18.151  11.733
13484W        W85909  18.584   0.874   4.449
13485W        W85910  14.787   8.208  14.426
13486W        W85911   4.017  12.643  14.351
13487W        W85912  38.417  14.877  13.605
13488W        W85913  15.512  43.544  14.344
13489W        W85914  35.234  20.244   1.264
13490W        W85915  13.605  35.085   4.141
13491W        W85916  38.982   5.983   3.300
13492W        W85917  22.874  23.047  13.358
13493W        W85918  42.490  44.780   2.978
13494W        W85919  14.636   9.558   4.160
13495W        W85920  16.157  26.615  10.537
13496W        W85921   9.704  31.557  11.709
13497W        W85922   1.693  19.128   2.041
13498W        W85923   9.508   2.375   1.686
13499W        W85924   3.405   8.321  13.599
13500W        W85925   2.454  15.152   1.340
13501W        W85926  22.780  43.835  10.555
13502W        W85927  35.292  27.003   1.840
13503W        W85928  20.062   4.398   0.847
13504W        W85929   3.956  28.976  14.622
13505W        W85930  29.996   4.869  13.983
13506W        W85931  44.007  11.329   4.591
13507W        W85932  10.194  38.332   3.168
13508W        W85933  38.445   9.900   0.700
13509W        W85934  13.174  35.394   2.597
13510W        W85935   6.630   9.541  11.530
13511W        W85936  36.095   0.759   1.361
13512W        W85937  27.157  38.008   3.739
13513W        W85938   7.624  37.045  14.139
13514W        W85939   6.455  16.032  14.262
13515W        W85940   3.383  18.610   3.636
13516W        W85941  14.134   8.497  14.221
13517W        W85942  23.713  30.178  11.246
13518W        W85943   3.809  26.659  10.668
13519W        W85944  31.131  25.618   0.776
13520W        W85945  42.615   0.048   0.366
13521W        W85946  21.272  35.906  10.609
13522W        W85947  28.275  27.595  12.841
13523W        W85948  39.469  16.566   0.785
13524W        W85949  18.890  24.450   3.130
13525W        W85950  41.953  15.046  14.235
13526W        W85951   0.140  36.422   4.489
13527W        W85952  35.956  22.714   0.446
13528W        W85953  13.268  32.496   1.890
13529W        W85954  12.158  25.913   4.584
13530W        W85955  21.759   7.341  11.896
13531W        W85956  20.579  37.061  11.135
13532W        W85957  33.534   8.406  11.886
13533W        W85958  15.509  34.299   9.886
13534W        W85959  17.744  34.121   5.359
13535W        W85960  22.570  24.983   1.878
13536W        W85961   7.317  17.882   1.428
13537W        W85962  34.178  16.598   1.727
13538W        W85963  34.075  41.227  11.594
13539W        W85964   1.089  38.340  10.655
13540W        W85965  43.716  31.992  12.006
13541W        W85966   6.714  34.620   1.137
13542W        W85967  32.926  39.011  14.923
13543W        W85968  44.708   6.956   0.888
13544W        W85969  26.896  11.565   0.214
13545W        W85970   8.922  25.407  14.793
13546W        W85971  32.588   0.196  11.792
13547W        W85972  24.029  41.301   1.617
13548W        W85973   9.890  17.541  13.358
13549W        W85974  10.807  14.158  13.040
13550W        W85975  23.753   8.233  14.500
13551W        W85976  27.714  36.436   4.846
13552W        W85977  36.371   2.397   2.249
13553W        W85978   9.174   2.703  11.110
13554W        W85979  42.082  23.144   2.383
13555W        W85980  22.787  31.371   2.516
13556W        W85981  37.114  34.886  11.278
13557W        W85982  35.464  40.500   3.243
13558W        W85983  19.898  21.195   4.531
13559W        W85984  44.829   5.455  14.432
13560W        W85985  28.647   7.985   4.149
13561W        W85986  30.007  21.465  10.917
13562W        W85987   8.155  14.249  10.722
13563W        W85988  31.585  31.271   2.288
13564W        W85989  38.662  15.716   1.895
13565W        W85990  14.802  17.246  13.975
13566W        W85991   7.697   2.323   3.879
13567W        W85992  19.007  15.733   1.416
13568W        W85993   8.667  31.477  12.575
13569W        W85994   9.002   0.558  13.943
13570W        W85995   6.715  44.351  13.904
13571W        W85996  19.512  30.230  12.065
13572W        W85997  37.214   0.479   1.728
13573W        W85998  33.498  19.484   2.228
13574W        W85999  34.026  16.579  10.848
13575W        W86000  18.498   0.446  14.093
13576W        W86001   3.489   9.366  11.657
13577W        W86002  31.768  13.207  14.033
13578W        W86003  14.297  28.214  11.845
13579W        W86004  34.146  35.445  14.801
13580W        W86005  41.772   0.032   1.467
13581W        W86006  16.773  39.468   0.435
13582W        W86007  34.840   4.365  11.496
13583W        W86008  10.779   8.168  10.927
13584W        W86009  39.849  33.537   2.733
13585W        W86010  27.008  23.739  12.553
13586W        W86011  27.548  34.782  13.820
13587W        W86012  24.500  42.337  14.735
13588W        W86013  12.764  24.227  12.509
13589W        W86014  20.362  10.310   1.296
13590W        W86015  33.753   1.419  12.203
13591W        W86016  19.240  13.633   4.069
13592W        W86017  15.048   9.926   0.794
13593W        W86018  19.515  21.322   2.730
13594W        W86019  13.828  24.644   1.891
13595W        W86020  32.341  21.157   0.305
13596W        W86021  18.968  20.181  12.834
13597W        W86022   2.862   3.206  14.051
13598W        W86023  11.150  44.256   1.377
13599W        W86024  28.451  17.694   4.569
13600W        W86025  21.744  12.886  13.950
13601W        W86026  37.465  39.759   1.568
13602W        W86027  13.883  26.171  12.100
13603W        W86028  38.575  16.230  13.955
13604W        W86029  43.682   8.844  13.002
13605W        W86030  16.690   5.879   4.159
13606W        W86031   7.415   3.967   0.819
13607W        W86032  34.520  29.688  14.391
13608W        W86033  10.687  37.153   0.824
13609W        W86034  44.725  42.562   1.035
13610W        W86035  43.328  14.434   1.650
13611W        W86036  40.314  19.885   4.287
13612W        W86037  43.546  15.014   2.274
13613W        W86038  21.193  25.204  13.040
13614W        W86039  11.135  31.471  14.835
13615W        W86040   3.681  12.246   0.240
13616W        W86041   1.360  14.949   2.949
13617W        W86042  29.568  30.899  12.462
13618W        W86043  19.114  18.629  14.775
13619W        W86044  31.157   4.853  13.407
13620W        W86045  29.483  25.506  14.771
13621W        W86046  10.058  19.566  13.932
13622W        W86047  19.636   0.325  14.860
13623W        W86048  18.696  15.817  14.286
13624W        W86049  18.524  24.530  14.511
13625W        W86050   9.958  36.704  13.966
13626W        W86051  19.737  38.827  13.009
13627W        W86052   0.492  44.235  10.425
13628W        W86053  24.996  29.000   0.745
13629W        W86054  13.665  12.144   4.072
13630W        W86055   0.680  33.394  14.327
13631W        W86056   8.861  37.496   0.795
13632W        W86057  30.051  32.644  10.660
13633W        W86058  40.118  29.654  14.944
13634W        W86059  20.078  23.990  11.634
13635W        W86060  19.136   0.226  12.050
13636W        W86061  11.627   7.506  12.112
13637W        W86062  26.818  30.593   9.896
13638W        W86063  16.759  42.851  14.762
13639W        W86064  29.090  31.075  12.264
13640W        W86065   0.902  30.541  10.376
13641W        W86066  23.995  41.885  12.052
13642W        W86067  28.286   7.806  14.015
13643W        W86068  18.141  37.608   0.972
13644W        W86069  37.801  33.076   4.598
13645W        W86070  31.729   5.710   1.733
13646W        W86071   1.763  29.823   1.205
13647W        W86072  22.466  27.119   3.623
13648W        W86073  13.157  25.392  12.993
13649W        W86074  19.743  36.540  10.839
13650W        W86075  28.367  38.902  10.560
13651W        W86076   1.322  35.597   4.641
13652W        W86077  12.200  22.943   4.943
13653W        W86078   8.948  18.801   2.618
13654W        W86079  37.787   5.213   3.729
13655W        W86080  36.584   7.930  13.325
13656W        W86081  36.151  30.049  14.869
13657W        W86082  26.977  24.249   2.781
13658W        W86083  26.937  37.897  10.650
13659W        W86084  12.054  34.952   2.319
13660W        W86085  11.878  25.486   1.911
13661W        W86086  43.231  14.238   4.174
13662W        W86087  29.517   6.395  14.255
13663W        W86088   8.293   8.670   3.835
13664W        W86089  29.151  42.557   2.095
13665W        W86090  33.609  35.105  12.210
13666W        W86091  30.660  16.048  10.368
13667W        W86092   8.808  18.711   4.212
13668W        W86093  19.652  10.038  11.440
13669W        W86094  27.409  17.633  11.117
13670W        W86095   7.156  34.536   2.287
13671W        W86096  10.629  38.187   2.911
13672W        W86097  25.787  18.778  14.819
13673W        W86098  28.483  16.520   3.649
13674W        W86099  29.221  27.708  14.565
13675W        W86100  36.403   5.419   4.203
13676W        W86101  42.296  43.711   1.238
13677W        W86102  22.972  24.466  14.855
13678W        W86103  33.549   5.898   3.050
13679W        W86104   7.197  44.018  12.152
13680W        W86105  22.936  11.090   1.274
13681W        W86106  24.732  40.411  14.306
13682W        W86107  18.577  44.334  10.454
13683W        W86108  37.898  16.282  12.437
13684W        W86109   6.436  24.610  14.266
13685W        W86110  19.218   6.521  11.743
13686W        W86111  38.076   6.451   3.908
13687W        W86112  30.658  32.903   4.762
13688W        W86113  26.287  18.052   1.168
13689W        W86114  36.539  17.546  14.961
13690W        W86115  24.036   4.754  12.624
13691W        W86116  30.268  26.127  14.877
13692W        W86117  43.382  37.467   0.419
13693W        W86118  17.050  10.494  11.419
13694W        W86119  10.806  16.738  12.887
13695W        W86120  15.195  18.119   2.666
13696W        W86121   1.363   9.139   4.948
13697W        W86122  17.060   7.648  12.921
13698W        W86123  40.474  10.943  13.444
13699W        W86124  20.044   9.346   2.360
13700W        W86125   7.830  18.294   4.551
13701W        W86126   3.165  21.554  11.057
13702W        W86127  22.917  19.614   3.234
13703W        W86128  37.782  38.882   3.596
13704W        W86129   9.329  10.826   3.883
13705W        W86130   1.546   3.716  13.048
13706W        W86131  39.379   2.041  14.835
13707W        W86132  41.599  11.410   0.838
13708W        W86133  37.024  41.348  12.037
13709W        W86134  42.347  13.140  11.684
13710W        W86135  40.897  10.299   0.743
13711W        W86136  15.391  27.195  13.456
13712W        W86137  32.486  34.497   0.958
13713W        W86138   5.503  21.144  10.675
13714W        W86139  32.867   9.057  12.155
13715W        W86140  35.295  23.488  14.741
13716W        W86141   3.423   4.032   1.922
13717W        W86142  11.231  22.756  13.249
13718W        W86143  12.533  42.643   5.081
13719W        W86144  29.938  27.672   0.583
13720W        W86145  14.356  20.058  12.997
13721W        W86146   9.385  24.116  12.006
13722W        W86147   7.591  21.834  10.292
13723W        W86148   3.756  15.018   1.871
13724W        W86149  13.501  15.702  12.906
13725W        W86150  13.630  43.558  14.058
13726W        W86151  26.899  35.460   0.912
13727W        W86152  42.896  40.443   0.221
13728W        W86153  38.734   9.758  11.244
13729W        W86154   5.776  12.425  11.127
13730W        W86155  40.462  38.525   4.895
13731W        W86156  21.165   8.119  10.564
13732W        W86157  10.298  16.872  11.364
13733W        W86158  20.072  40.019  10.143
13734W        W86159   7.570   9.781   0.862
13735W        W86160  28.031  26.545  12.876
13736W        W86161  26.708   5.348   1.825
13737W        W86162  17.801   7.231  12.057
13738W        W86163  32.540  36.924   0.370
13739W        W86164  19.521  41.762  11.107
13740W        W86165  14.219  19.590  14.766
13741W        W86166  42.567  38.001   0.473
13742W        W86167  21.668  23.644   3.788
13743W        W86168  28.275  17.949   1.690
13744W        W86169  33.282  27.190  14.218
13745W        W86170   7.700  13.103   4.615
13746W        W86171  28.451  10.855   1.273
13747W        W86172  13.572  38.407  11.953
13748W        W86173   8.901   5.161   0.694
13749W        W86174  33.046   5.885   3.261
13750W        W86175   1.939  34.750   3.755
13751W        W86176   2.750  28.855  13.653
13752W        W86177  39.186  24.649  11.228
13753W        W86178   1.412  37.155   1.010
13754W        W86179  44.920   4.252  11.650
13755W        W86180  40.348  40.790   4.754
13756W        W86181   2.026  13.573   3.806
13757W        W86182  15.110  20.653  11.287
13758W        W86183  32.095  19.695   3.678
13759W        W86184  41.481  23.640  11.098
13760W        W86185  35.340  37.529   0.344
13761W        W86186  20.783   4.933  14.649
13762W        W86187  40.223  15.622   4.562
13763W        W86188   4.295  31.181  14.915
13764W        W86189  38.485  30.727   4.965
13765W        W86190   1.375  30.519   0.024
13766W        W86191  26.976  36.907  13.816
13767W        W86192  40.074   6.671   2.892
13768W        W86193   4.339  31.286   1.524
13769W        W86194   8.906  21.113   1.852
13770W        W86195   4.085   0.554  10.880
13771W        W86196   4.252  29.352   1.204
13772W        W86197  38.625  19.640  12.979
13773W        W86198  42.330   4.645   1.406
13774W        W86199  29.058  26.234   4.060
13775W        W86200   1.453  17.851   2.298
13776W        W86201  30.400   6.884   4.976
13777W        W86202  13.226  37.208  13.550
13778W        W86203  11.313  34.875   2.823
13779W        W86204   0.287  38.075   4.147
13780W        W86205  31.074  44.300  12.046
13781W        W86206   5.962  28.513  14.268
13782W        W86207  41.611   6.813   3.892
13783W        W86208  13.182  14.795  14.564
13784W        W86209  23.984  27.489  10.529
13785W        W86210  25.139  37.898  14.615
13786W        W86211  28.747  23.614  11.491
13787W        W86212  17.182  32.512   9.755
13788W        W86213  34.565  12.574  13.971
13789W        W86214  30.798  34.449   0.362
13790W        W86215  24.720  23.953  11.615
13791W        W86216  32.103  14.603  13.801
13792W        W86217  17.072   7.729  14.361
13793W        W86218  38.038   1.348   4.575
13794W        W86219  31.487  29.147  12.643
13795W        W86220  34.154  39.967   3.303
13796W        W86221   3.019  27.260  14.416
13797W        W86222  35.042  11.310  13.957
13798W        W86223   1.151  34.987   1.847
13799W        W86224  31.891   0.247   4.649
13800W        W86225  18.658  40.920   2.833
13801W        W86226  11.844   4.017  13.524
13802W        W86227  42.838  36.593  11.184
13803W        W86228  28.823  36.037   2.379
13804W        W86229  31.141   1.825  12.063
13805W        W86230  10.616  44.278   1.445
13806W        W86231  17.043  22.808  11.485
13807W        W86232  37.884  17.314  14.796
13808W        W86233   9.452  37.512   4.223
13809W        W86234  17.667  29.634   0.658
13810W        W86235   0.547   7.736  13.363
13811W        W86236  31.203  28.464  13.992
13812W        W86237  38.531  41.815   3.455
13813W        W86238  20.661  10.918   2.001
13814W        W86239  22.632  12.879   1.864
13815W        W86240  43.993  21.993   2.578
13816W        W86241  37.504  29.413   2.181
13817W        W86242  28.179  34.024  14.365
13818W        W86243  34.141  24.581  13.410
13819W        W86244  18.574  13.328   0.182
13820W        W86245   9.694   9.881  10.888
13821W        W86246  15.236  33.049  11.673
13822W        W86247  18.999  15.750   4.311
13823W        W86248   5.647  33.544   0.284
13824W        W86249  30.511  17.708   3.353
13825W        W86250  39.319  25.600   2.211
13826W        W86251  13.497  13.719   0.798
13827W        W86252  42.963   7.770  14.086
13828W        W86253  35.589  26.434  11.932
13829W        W86254  19.302  40.501  10.711
13830W        W86255  37.039   4.920  12.056
13831W        W86256  44.420  13.830   0.349
13832W        W86257  21.982   8.875   9.901
13833W        W86258  27.929   0.025  14.399
13834W        W86259  17.745  11.144  11.457
13835W        W86260   6.304  40.608  10.597
13836W        W86261   0.967  18.493   0.362
13837W        W86262  38.364   8.323  13.752
13838W        W86263  25.526  31.399   1.739
13839W        W86264   4.965  24.139  12.914
13840W        W86265  27.483  21.921  13.451
13841W        W86266  31.127  24.699   2.349
13842W        W86267  29.549  25.957  14.322
13843W        W86268  36.103  20.468  13.541
13844W        W86269  31.649  10.591  12.498
13845W        W86270   6.109  32.886   4.243
13846W        W86271  13.861  23.737   3.803
13847W        W86272  35.362   9.695   1.487
13848W        W86273  28.597   7.653  10.726
13849W        W86274  29.388  18.395   4.309
13850W        W86275   2.414   7.325  14.966
13851W        W86276  44.695  21.755  14.346
13852W        W86277  40.290  30.910  11.487
13853W        W86278  29.279  33.096  14.451
13854W        W86279  36.358  41.270  12.759
13855W        W86280   9.607   5.728  13.005
13856W        W86281  42.354   5.657   1.360
13857W        W86282  31.791  39.986   3.948
13858W        W86283  20.441  10.360   4.191
13859W        W86284  42.671   7.342   0.346
13860W        W86285  44.288  37.594  14.039
13861W        W86286   3.704   3.009   2.904
13862W        W86287  25.569  23.097  11.984
13863W        W86288  23.096  25.177   4.053
13864W        W86289  39.486  29.397   4.574
13865W        W86290  18.024   6.293   4.113
13866W        W86291   3.669  35.144  12.164
13867W        W86292   3.364  30.932  14.974
13868W        W86293  12.835   7.370  11.715
13869W        W86294  10.719  19.264  13.023
13870W        W86295  11.536   6.352  13.788
13871W        W86296  16.425  25.747   2.782
13872W        W86297  29.118   6.248  12.828
13873W        W86298  28.656   9.243   1.412
13874W        W86299  28.992  28.666  11.975
13875W        W86300  32.340  27.341  10.038
13876W        W86301  19.662  23.173  12.499
13877W        W86302  25.548  15.821   1.262
13878W        W86303  26.038  10.729  12.654
13879W        W86304  12.672   7.693  10.427
13880W        W86305   2.752  23.098  10.727
13881W        W86306  27.198  20.683   0.750
13882W        W86307   5.293   4.913  12.701
13883W        W86308  10.227  37.308  12.854
13884W        W86309  16.054   2.361   4.814
13885W        W86310  22.928  39.684  14.809
13886W        W86311   4.894   9.039  13.938
13887W        W86312  29.318   4.148  13.332
13888W        W86313   3.891   5.917  11.540
13889W        W86314  11.258  11.847  13.245
13890W        W86315  26.266  25.435  11.657
13891W        W86316  44.574  29.262   2.387
13892W        W86317  39.566  28.102   2.310
13893W        W86318  11.848   1.660   4.274
13894W        W86319  32.529  34.067  14.478
13895W        W86320  12.298   3.458  11.979
13896W        W86321   8.933  26.225   1.330
13897W        W86322  36.315  37.921   3.743
13898W        W86323  17.741  40.402  14.495
13899W        W86324   7.982   1.824   4.598
13900W        W86325   5.207  27.381  13.047
13901W        W86326  11.718  35.594  12.965
13902W        W86327  42.067  36.749  10.842
13903W        W86328  40.775  30.344   2.761
13904W        W86329  21.291  44.464  13.675
13905W        W86330   0.946  42.428   2.261
13906W        W86331  11.499  13.844  14.122
13907W        W86332  43.232   8.265  12.854
13908W        W86333   8.233  39.268   3.149
13909W        W86334  29.776   8.948  12.965
13910W        W86335  19.762  33.054   3.634
13911W        W86336   3.327  27.251  11.532
13912W        W86337  20.411  20.577  14.489
13913W        W86338  16.066  19.439  10.541
13914W        W86339  31.097  31.926   1.332
13915W        W86340  40.534  38.152  10.626
13916W        W86341  35.118  25.065  11.956
13917W        W86342  42.732   4.294   1.471
13918W        W86343  38.378  36.212  14.541
13919W        W86344  22.308  31.154   4.011
13920W        W86345  39.484  22.554   1.951
13921W        W86346  32.728  42.931  12.106
13922W        W86347   1.919  13.472  12.769
13923W        W86348   8.356  18.118  12.607
13924W        W86349   2.217  13.130   0.148
13925W        W86350  16.681   3.941   3.393
13926W        W86351  22.629  14.876  11.929
13927W        W86352  39.322  21.462  10.757
13928W        W86353  37.089  34.397  11.444
13929W        W86354  27.172  43.483   4.610
13930W        W86355  16.167   5.595   1.298
13931W        W86356  31.078  32.007  11.146
13932W        W86357  28.148   1.883   1.632
13933W        W86358  28.017  31.877  13.745
13934W        W86359  41.119  18.602   2.828
13935W        W86360   7.861  39.998  14.826
13936W        W86361  20.020  34.048   3.641
13937W        W86362  11.751  10.442  12.080
13938W        W86363  24.784  40.629   4.918
13939W        W86364  22.969  18.211   0.877
13940W        W86365   6.786  25.714  11.582
13941W        W86366  19.317  19.205   4.036
13942W        W86367   6.017   3.195  12.484
13943W        W86368  36.030  42.044  13.863
13944W        W86369  27.008  11.503  10.736
13945W        W86370   8.157   0.872   2.467
13946W        W86371  42.380  41.230   1.291
13947W        W86372  40.890  32.445  13.757
13948W        W86373   7.897  29.061   4.192
13949W        W86374  38.046  36.828  14.882
13950W        W86375  40.491   4.515   1.805
13951W        W86376  28.574  36.408   0.652
13952W        W86377   4.823  39.454   0.432
13953W        W86378   8.769  19.015   3.379
13954W        W86379   4.304  10.387   1.257
13955W        W86380  13.852  10.167  13.043
13956W        W86381   6.737  30.017  14.558
13957W        W86382  25.184   1.513  14.378
13958W        W86383  11.664  31.431  11.558
13959W        W86384  11.710  34.141   2.437
13960W        W86385   1.265  36.202  11.299
13961W        W86386  22.577  27.570   4.164
13962W        W86387  16.391  36.093   4.175
13963W        W86388  27.181   1.364  10.728
13964W        W86389  24.105  11.536   2.249
13965W        W86390  41.181  18.142   3.078
13966W        W86391  24.980  29.371   1.515
13967W        W86392  21.385  15.262  11.105
13968W        W86393  33.898  15.002   4.284
13969W        W86394   5.548  13.501  14.964
13970W        W86395  37.385   7.609  13.804
13971W        W86396  21.708  12.398   0.494
13972W        W86397  21.317  19.166   4.508
13973W        W86398  33.518   9.867  14.870
13974W        W86399  35.553   9.311  12.088
13975W        W86400  25.197  38.815  14.506
13976W        W86401  12.189  20.890   2.102
13977W        W86402  19.007  33.088  12.865
13978W        W86403  30.425   2.256   2.472
13979W        W86404  28.991  31.210   0.322
13980W        W86405  42.819  15.855   4.210
13981W        W86406  25.635  35.595  13.504
13982W        W86407  40.990  15.742   4.098
13983W        W86408   5.681  21.857  12.164
13984W        W86409  41.984  43.088  13.957
13985W        W86410   0.775  40.513   3.665
13986W        W86411  23.640  22.619  11.460
13987W        W86412  41.904   2.359   1.188
13988W        W86413  44.283  14.549   1.364
13989W        W86414  21.465  10.157   3.233
13990W        W86415   2.109   2.122  13.909
13991W        W86416  24.528  19.266   4.292
13992W        W86417  12.169  24.970  10.110
13993W        W86418  43.507   5.059  14.508
13994W        W86419  20.438  43.302  14.606
13995W        W86420  22.843  40.548  14.349
13996W        W86421   2.212  31.364   2.728
13997W        W86422   1.439  33.342   4.734
13998W        W86423  20.462  31.576   1.270
13999W        W86424  34.160  40.589  12.103
14000W        W86425   2.430  31.528   1.910
14001W        W86426  13.117  17.752   2.738
14002W        W86427  41.829  21.759   9.759
14003W        W86428  15.772  20.033  13.402
14004W        W86429  18.590  32.612   2.420
14005W        W86430  23.320   3.772  13.914
14006W        W86431  26.636  35.558  11.089
14007W        W86432  21.073  35.518  12.507
14008W        W86433  31.608   3.182   4.916
14009W        W86434  20.123  30.495   3.078
14010W        W86435  23.731  19.555   0.786
14011W        W86436  29.048   6.151  14.242
14012W        W86437   0.833  12.655   3.171
14013W        W86438   6.557   1.976   2.201
14014W        W86439  33.989  33.614  11.948
14015W        W86440  31.496  21.181  12.556
14016W        W86441  26.059   3.184  13.484
14017W        W86442  20.557  39.612  11.623
14018W        W86443  42.792  35.087   4.078
14019W        W86444  41.954   4.110  14.245
14020W        W86445  36.465  22.859   0.710
14021W        W86446  36.525  41.515   3.250
14022W        W86447  20.877  14.627   2.722
14023W        W86448  20.011   5.715   3.146
14024W        W86449  18.738  20.218   0.877
14025W        W86450  11.400   5.260   1.461
14026W        W86451  26.979  43.011  11.562
14027W        W86452  37.323  20.262   4.027
14028W        W86453   3.597  17.552   1.981
14029W        W86454  39.271  34.032   4.400
14030W        W86455  17.721  14.382  12.892
14031W        W86456   7.908   2.027  11.492
14032W        W86457  26.352  37.620  12.633
14033W        W86458  24.573  36.095  11.575
14034W        W86459  41.896  44.024  13.825
14035W        W86460  11.184   7.891   0.778
14036W        W86461  39.123  33.131  11.931
14037W        W86462  40.642  18.791   2.738
14038W        W86463  43.404  27.358   0.022
14039W        W86464   7.520  29.404   0.237
14040W        W86465  30.046  13.660  14.275
14041W        W86466  17.226  43.466  13.925
14042W        W86467  12.066   9.413   0.997
14043W        W86468  33.068  19.801  11.882
14044W        W86469   5.398  14.643   1.382
14045W        W86470   6.264   9.002  14.744
14046W        W86471  24.704   7.718   2.309
14047W        W86472   1.472  36.528  14.262
14048W        W86473  22.977  31.866   4.206
14049W        W86474  19.292  41.094   1.808
14050W        W86475   5.120  43.197  14.874
14051W        W86476  31.944  34.853   4.549
14052W        W86477  27.895  38.021   0.669
14053W        W86478  27.227  17.076  14.563
14054W        W86479   3.896  32.018  10.275
14055W        W86480   0.678  42.800  13.129
14056W        W86481  24.316   8.626  11.053
14057W        W86482  18.335  25.086   4.135
14058W        W86483  10.831  37.429  13.503
14059W        W86484   3.676   8.193   5.027
14060W        W86485  28.259  43.988  12.704
14061W        W86486  35.088  36.900   3.539
14062W        W86487   3.951  25.919  12.248
14063W        W86488  29.189   3.893  14.564
14064W        W86489  15.652  31.398  13.374
14065W        W86490  44.332  31.694  10.226
14066W        W86491   1.614  23.182   2.668
14067W        W86492  21.485  16.827  10.605
14068W        W86493   2.264   1.905   0.529
14069W        W86494  28.011  35.703  13.381
14070W        W86495  14.660  24.103   0.949
14071W        W86496  31.063   7.194   0.226
14072W        W86497  37.080   8.724  11.464
14073W        W86498  35.752  12.787  13.213
14074W        W86499   8.842  23.045  12.999
14075W        W86500  22.221   8.706  10.919
14076W        W86501  31.717   9.200   4.297
14077W        W86502  15.443   6.229  14.816
14078W        W86503  29.007  29.146  14.321
14079W        W86504  25.201   0.882   2.438
14080W        W86505  28.886   7.133  11.943
14081W        W86506   4.334  20.657   4.991
14082W        W86507  25.706  32.525  14.016
14083W        W86508   6.545  21.271  10.435
14084W        W86509  33.406  16.043   3.592
14085W        W86510  29.654  20.075   1.896
14086W        W86511  40.317  38.912  12.982
14087W        W86512  37.461  32.629   2.613
14088W        W86513  39.296   7.479   2.743
14089W        W86514   6.731  12.783   0.923
14090W        W86515  39.415   8.272   4.082
14091W        W86516  19.233  13.085   3.398
14092W        W86517  31.479   7.912   1.713
14093W        W86518  14.133  18.458  12.637
14094W        W86519  39.511  11.895  11.208
14095W        W86520  16.163  20.556   2.563
14096W        W86521  24.477   8.602  14.924
14097W        W86522  23.016  42.360  14.191
14098W        W86523  40.542  28.265   4.941
14099W        W86524  22.423  23.197  11.182
14100W        W86525  18.882  36.533   3.125
14101W        W86526  18.316  15.611   2.921
14102W        W86527  38.479  19.968   1.571
14103W        W86528  32.796  14.433  12.365
14104W        W86529  25.845   4.449  12.650
14105W        W86530  39.001   6.130   2.399
14106W        W86531  19.851  10.603   2.213
14107W        W86532  12.652   6.999   3.972
14108W        W86533  31.561  13.292   4.637
14109W        W86534  38.272  36.293  11.300
14110W        W86535  10.806  41.090  10.699
14111W        W86536  11.241  26.048   1.776
14112W        W86537  11.211  41.497   2.372
14113W        W86538  35.088   8.671  12.747
14114W        W86539  27.544  15.704  12.652
14115W        W86540  13.339   9.133   1.751
14116W        W86541   4.832  43.456  13.614
14117W        W86542  44.040   2.930   1.348
14118W        W86543  22.242   8.774   4.300
14119W        W86544   6.839  15.135  10.673
14120W        W86545  24.103  18.768  10.884
14121W        W86546  40.215  41.248  10.739
14122W        W86547  35.944  12.605  12.003
14123W        W86548   0.693   6.866  14.724
14124W        W86549  19.505  43.345   2.349
14125W        W86550  30.009  24.788   4.259
14126W        W86551  25.461   0.796  13.466
14127W        W86552  26.247  12.192  11.915
14128W        W86553  41.275  41.946   4.048
14129W        W86554  10.945  37.362   4.530
14130W        W86555  37.627  38.060   3.113
14131W        W86556  22.172   4.740   4.539
14132W        W86557   8.860   0.367   2.131
14133W        W86558  25.706  10.259  11.239
14134W        W86559   4.417  27.125   1.416
14135W        W86560  43.377  25.223  10.717
14136W        W86561  41.465  20.291  10.259
14137W        W86562  16.795  19.958  12.397
14138W        W86563   0.980  36.102  10.793
14139W        W86564  14.556  10.689   0.929
14140W        W86565   2.803   2.172   3.283
14141W        W86566  41.117  21.206   2.829
14142W        W86567  41.418  35.014  14.059
14143W        W86568  19.311  17.308   0.416
14144W        W86569  19.126  21.285   4.006
14145W        W86570   9.746  15.723   1.076
14146W        W86571   3.647  31.654   0.459
14147W        W86572  26.627   8.778   3.372
14148W        W86573   6.701  26.885   3.507
14149W        W86574  27.159  38.383   2.913
14150W        W86575  35.977  33.034   4.802
14151W        W86576  29.832  22.498   2.132
14152W        W86577   1.891   6.050   4.734
14153W        W86578   3.827  18.093   2.163
14154W        W86579   1.181  12.631  14.897
14155W        W86580  33.455  39.043   1.279
14156W        W86581  27.064   7.154   4.512
14157W        W86582   2.548   1.886   1.544
14158W        W86583  18.664   2.967  11.084
14159W        W86584   8.862  11.592   0.360
14160W        W86585  27.379   2.513  14.450
14161W        W86586  14.638  28.405   1.350
14162W        W86587  12.319  15.111  12.903
14163W        W86588  26.047  30.702  13.452
14164W        W86589  27.531  41.171   1.964
14165W        W86590  16.796   7.119  11.800
14166W        W86591  20.652  40.484  11.386
14167W        W86592  16.271  15.557  12.853
14168W        W86593  20.832  40.406   1.322
14169W        W86594  18.247  43.301   1.437
14170W        W86595   7.698   3.637  11.453
14171W        W86596  18.104  18.118  12.840
14172W        W86597   9.500  27.940  14.894
14173W        W86598  23.492  43.829  12.939
14174W        W86599  29.529  35.949   4.584
14175W        W86600  13.273   6.675  12.926
14176W        W86601  35.249  34.319  13.971
14177W        W86602   2.689  25.223   5.095
14178W        W86603  19.715  38.596  13.591
14179W        W86604   5.038  10.736  14.492
14180W        W86605  14.295  15.641  10.105
14181W        W86606   7.813  12.412   1.272
14182W        W86607   5.478  19.195   0.737
14183W        W86608  22.241   0.356   3.780
14184W        W86609  19.932   3.087   3.708
14185W        W86610   1.918  36.937   3.324
14186W        W86611   3.344  42.214  11.954
14187W        W86612   2.834  11.790  14.373
14188W        W86613  17.240  35.463  12.566
14189W        W86614  38.071   8.411  13.298
14190W        W86615  17.067  21.483   1.444
14191W        W86616  41.630  16.395  14.048
14192W        W86617   0.473  29.451   0.411
14193W        W86618  25.579   8.912   0.916
14194W        W86619  18.074   6.723  14.535
14195W        W86620   6.874  27.401  14.315
14196W        W86621  11.374  22.069  14.540
14197W        W86622  41.987  19.548   3.646
14198W        W86623  37.854  44.496  12.543
14199W        W86624  35.001  43.039   2.007
14200W        W86625  39.419  38.099   0.987
14201W        W86626  30.040   4.519  12.703
14202W        W86627   3.713  35.149   3.100
14203W        W86628  40.844  36.973  11.703
14204W        W86629  16.090  12.812   1.303
14205W        W86630  43.285  15.745   2.843
14206W        W86631  14.340  10.798  14.521
14207W        W86632  42.090  41.066   3.526
14208W        W86633  19.506   2.382  14.420
14209W        W86634  26.647  37.574   1.009
14210W        W86635  28.250  39.494   3.377
14211W        W86636  38.947  34.900  12.352
14212W        W86637  25.982  42.419  14.472
14213W        W86638   0.974  13.253  14.003
14214W        W86639  33.066   2.752   1.448
14215W        W86640  37.802  13.107   0.238
14216W        W86641  17.599  17.954  12.825
14217W        W86642  23.535  16.264  13.054
14218W        W86643  36.822  20.766   2.153
14219W        W86644  20.538  21.961   2.987
14220W        W86645   7.604  19.116  14.541
14221W        W86646   4.228   1.217   3.110
14222W        W86647  42.913   7.667   2.375
14223W        W86648  43.555  25.585   0.377
14224W        W86649  32.356   6.357   1.632
14225W        W86650  15.956  27.119  10.664
14226W        W86651   2.233  33.020  12.458
14227W        W86652  41.890  10.197   4.940
14228W        W86653   2.333  18.039  11.962
14229W        W86654  34.738   4.824   4.829
14230W        W86655  40.106  13.627   1.200
14231W        W86656  40.475   9.927   4.506
14232W        W86657  38.836   9.923   3.922
14233W        W86658  22.208  15.205   2.143
14234W        W86659  17.033  40.263   1.240
14235W        W86660  12.213  23.059   3.497
14236W        W86661  33.161  20.110   1.518
14237W        W86662  24.171  18.085   4.541
14238W        W86663  32.932   5.145  11.105
14239W        W86664   0.275  16.239   2.358
14240W        W86665  14.770  19.778  13.957
14241W        W86666  39.613   3.655   0.506
14242W        W86667  11.742   1.040  12.563
14243W        W86668  38.333   1.376   2.719
14244W        W86669   6.855  15.266  11.173
14245W        W86670  34.831  42.190  11.132
14246W        W86671  12.151   1.085   0.742
14247W        W86672  30.528  36.420  13.368
14248W        W86673  27.945  39.759  14.294
14249W        W86674  20.012  40.497   2.374
14250W        W86675  32.340  31.643   1.918
14251W        W86676   1.770  40.226  10.799
14252W        W86677  35.675  36.332   3.232
14253W        W86678  28.909  22.691  13.646
14254W        W86679  13.700   5.382   3.924
14255W        W86680  42.699  21.209  13.795
14256W        W86681   2.474  37.081  11.896
14257W        W86682   4.681   5.793   5.191
14258W        W86683  37.381  11.900  12.612
14259W        W86684  21.181  14.403  11.533
14260W        W86685   9.336  43.756  12.436
14261W        W86686   9.284  40.698  13.560
14262W        W86687  42.046  37.434  12.008
14263W        W86688  34.593  32.463   1.302
14264W        W86689  40.785  14.574  11.466
14265W        W86690  43.387  39.014  10.040
14266W        W86691  34.320  20.787   1.358
14267W        W86692  21.771  15.290  13.319
14268W        W86693  13.782  17.041   0.886
14269W        W86694  12.123  14.714  10.788
14270W        W86695  18.625  14.375  12.876
14271W        W86696  28.683  40.254   3.764
14272W        W86697  29.613  17.401   4.146
14273W        W86698  39.496  44.452   4.509
14274W        W86699   5.197  15.670  10.734
14275W        W86700  28.983  41.632  13.573
14276W        W86701  29.951  42.259  10.474
14277W        W86702  31.231  29.589  12.755
14278W        W86703  26.339   9.103  12.973
14279W        W86704  23.995  41.072   0.746
14280W        W86705  39.218   1.161  10.653
14281W        W86706  34.647  15.749  14.816
14282W        W86707   5.495  13.543   2.652
14283W        W86708  41.356  23.404   2.663
14284W        W86709  42.417  32.211  12.436
14285W        W86710  30.589   5.764  14.294
14286W        W86711  25.019  23.267   1.602
14287W        W86712  24.068  32.470  11.989
14288W        W86713  14.657   6.150   3.254
14289W        W86714  27.426   4.771  11.890
14290W        W86715  24.726  43.802   1.857
14291W        W86716  29.376   1.908   3.985
14292W        W86717  31.323  25.008  11.557
14293W        W86718  21.649   4.065   4.193
14294W        W86719  38.943  41.816  11.890
14295W        W86720  21.281   2.089   2.131
14296W        W86721  38.649   8.359  14.743
14297W        W86722  20.548  12.765   2.083
14298W        W86723  26.258  39.630   1.003
14299W        W86724  34.159   0.983   2.314
14300W        W86725  10.223  24.208  11.312
14301W        W86726   9.659  38.600   2.150
14302W        W86727  16.186  42.075  10.561
14303W        W86728  40.568  37.486   2.196
14304W        W86729  39.970  22.211  13.194
14305W        W86730  39.870  25.362   0.826
14306W        W86731  36.221  41.027  13.454
14307W        W86732  30.646  17.524   4.358
14308W        W86733  21.722  41.416   1.548
14309W        W86734   4.354   3.849   3.383
14310W        W86735  38.469  37.584  10.178
14311W        W86736  16.776  10.383  13.352
14312W        W86737  41.989  20.481  10.643
14313W        W86738  24.702  41.806   3.667
14314W        W86739   8.903  28.481   1.386
14315W        W86740  19.598   9.127  14.261
14316W        W86741  25.609  20.271  12.309
14317W        W86742  43.520   0.296  12.497
14318W        W86743   3.829  13.099  11.677
14319W        W86744  41.428   4.976   1.035
14320W        W86745  15.615  15.720   1.385
14321W        W86746  23.251  22.422  14.203
14322W        W86747   4.928   0.457  11.440
14323W        W86748  44.360  29.879  14.236
14324W        W86749  37.625   3.363  12.431
14325W        W86750  43.394  10.052  10.236
14326W        W86751   5.726  43.884   1.768
14327W        W86752  36.559  26.050   4.083
14328W        W86753  42.769  10.516  13.746
14329W        W86754  14.112   6.993  14.423
14330W        W86755   2.394  10.682  11.125
14331W        W86756  27.964  18.967   4.848
14332W        W86757   6.401  39.991   4.835
14333W        W86758  10.182  21.800  11.870
14334W        W86759  43.860   2.196   3.392
14335W        W86760  14.176  34.622   4.671
14336W        W86761   9.669   4.889  10.704
14337W        W86762  11.694   2.711   4.097
14338W        W86763  43.917  36.077  13.322
14339W        W86764  35.245  42.802  11.019
14340W        W86765  29.467  23.995   0.732
14341W        W86766   2.196  15.336   0.671
14342W        W86767  15.813  30.941  11.552
14343W        W86768   0.980  41.261   2.240
14344W        W86769   2.668  11.194   1.873
14345W        W86770  31.549  18.588  13.598
14346W        W86771  39.826  35.612   2.587
14347W        W86772  42.126  30.839   0.815
14348W        W86773  10.184  21.654   2.273
14349W        W86774  32.491   9.445  11.866
14350W        W86775   9.343   3.370  12.911
14351W        W86776  39.301  23.115   0.352
14352W        W86777  23.912  30.502  10.586
14353W        W86778   9.123  36.953   2.725
14354W        W86779  11.910  13.055  13.319
14355W        W86780   0.816   0.319  12.493
14356W        W86781  43.713   0.095   2.212
14357W        W86782   1.619  10.450   2.725
14358W        W86783   6.301  29.600   3.660
14359W        W86784  39.116  35.478   0.752
14360W        W86785  17.586   8.185   1.784
14361W        W86786  23.704  19.860   2.208
14362W        W86787  18.830   6.731   4.588
14363W        W86788   2.706  15.223   2.292
14364W        W86789  15.312  28.035   4.581
14365W        W86790   8.177  19.732   0.306
14366W        W86791  31.882  14.228  11.612
14367W        W86792  19.602  22.010  13.671
14368W        W86793  14.290   9.611   0.165
14369W        W86794  10.335  16.040  13.554
14370W        W86795  44.106   6.079  10.147
14371W        W86796  27.098  25.819   1.791
14372W        W86797  20.309   3.329   0.753
14373W        W86798  31.473  24.696  13.354
14374W        W86799   1.331   9.604  12.968
14375W        W86800   8.777  18.090  12.293
14376W        W86801  43.683  22.237  14.088
14377W        W86802  30.115  14.266  13.360
14378W        W86803  14.948   0.954  12.214
14379W        W86804  17.094  42.790   0.951
14380W        W86805  28.122  32.161   1.340
14381W        W86806   3.292   2.708   2.778
14382W        W86807  15.705  40.527  13.321
14383W        W86808  19.710  32.141  14.468
14384W        W86809  39.373  19.643   1.293
14385W        W86810   9.156  38.371   2.191
14386W        W86811  27.353  23.732  12.945
14387W        W86812  35.184  22.188  14.348
14388W        W86813  13.777  35.482   1.195
14389W        W86814   7.469  19.352   3.103
14390W        W86815   5.327  28.680   3.317
14391W        W86816  38.003  17.705  13.015
14392W        W86817  16.553   1.762   4.342
14393W        W86818   6.448   9.224   1.445
14394W        W86819  18.882  12.331   4.055
14395W        W86820  14.247   2.423   2.875
14396W        W86821  15.041   9.206  13.796
14397W        W86822  22.553  22.318   0.794
14398W        W86823  39.266  43.057  14.264
14399W        W86824   0.308  10.839  12.646
14400W        W86825  32.426  15.338  13.594
14401W        W86826  21.785  26.190   2.209
14402W        W86827  36.705  31.963  14.914
14403W        W86828  10.931  44.960   0.348
14404W        W86829  14.959  20.941   3.157
14405W        W86830  24.209  41.218  12.385
14406W        W86831   8.687  26.668  12.913
14407W        W86832   3.712  11.224   0.917
14408W        W86833  34.582  34.376   4.355
14409W        W86834  25.506   5.218   3.335
14410W        W86835  34.062  11.304   4.582
14411W        W86836  30.215  14.246   3.385
14412W        W86837  12.373  44.841  12.476
14413W        W86838  40.414  26.042  11.632
14414W        W86839  22.461   3.536  11.101
14415W        W86840  42.333  43.899  13.510
14416W        W86841  27.645  16.991   0.439
14417W        W86842   8.160  23.846   1.762
14418W        W86843  39.861   1.042   1.201
14419W        W86844  36.913  27.623   0.408
14420W        W86845  43.562  11.710  12.308
14421W        W86846  26.007  33.014   1.784
14422W        W86847  24.592  10.784   2.155
14423W        W86848  27.653  21.286   2.003
14424W        W86849  36.003  43.074   2.236
14425W        W86850  31.006  36.020   3.519
14426W        W86851  37.526  16.839  13.078
14427W        W86852  27.854  17.063   1.437
14428W        W86853  12.690  16.205  12.981
14429W        W86854  25.841   9.914   1.263
14430W        W86855   6.417   1.804   4.384
14431W        W86856  14.607   8.834   1.681
14432W        W86857  39.248   6.010  11.876
14433W        W86858   7.867  13.602   4.688
14434W        W86859   6.386  22.175   2.478
14435W        W86860  30.395  33.395  13.874
14436W        W86861   6.878  42.248   4.766
14437W        W86862  19.823  44.331  14.508
14438W        W86863  28.083  37.935  11.359
14439W        W86864  25.245  39.360  11.909
14440W        W86865  13.574   5.517  14.369
14441W        W86866  33.871  16.787  11.821
14442W        W86867  43.415  33.170   1.363
14443W        W86868  36.521  40.143  11.835
14444W        W86869  17.559   4.147  14.866
14445W        W86870  14.146  40.915  12.567
14446W        W86871   2.450   1.252  10.826
14447W        W86872  20.251  16.235  10.549
14448W        W86873   3.563  30.035  13.868
14449W        W86874  35.534   7.251   0.256
14450W        W86875  38.609  37.030   1.411
14451W        W86876   9.111  16.962   5.378
14452W        W86877   3.017  35.800   1.762
14453W        W86878  22.608  40.366  11.061
14454W        W86879  26.138   5.365   2.454
14455W        W86880   0.149   3.182   2.250
14456W        W86881  31.988  16.295   4.233
14457W        W86882   7.258  16.661   1.864
14458W        W86883  27.664  31.237   4.423
14459W        W86884   8.201   0.885   3.856
14460W        W86885  41.804  11.073   1.294
14461W        W86886   0.889  13.229   1.438
14462W        W86887  17.223  26.450  13.029
14463W        W86888  38.385  11.633   2.285
14464W        W86889  28.226  38.452   4.237
14465W        W86890  15.738  35.185  12.017
14466W        W86891   3.635  14.717  10.601
14467W        W86892  33.390  29.192   0.583
14468W        W86893  38.828  13.844  14.944
14469W        W86894   3.986  15.249   0.520
14470W        W86895  22.219   4.362  14.263
14471W        W86896  15.167  16.913  14.143
14472W        W86897  11.237   2.384  10.005
14473W        W86898  13.911  11.059  11.115
14474W        W86899   8.999  14.326   1.997
14475W        W86900  16.747  32.401   2.170
14476W        W86901  29.908  22.320   2.874
14477W        W86902  18.721  38.156   4.130
14478W        W86903  11.847  41.312  11.634
14479W        W86904  27.730   9.837  13.763
14480W        W86905  10.333  41.291   2.810
14481W        W86906  26.207  19.713   0.344
14482W        W86907   3.966  21.640  13.506
14483W        W86908  39.423   9.885  14.958
14484W        W86909  13.887  38.439   4.369
14485W        W86910  44.991  34.104  14.884
14486W        W86911  27.824  37.127  12.545
14487W        W86912   2.692  29.491   2.745
14488W        W86913  43.270  15.008  12.550
14489W        W86914  21.354  33.456  14.727
14490W        W86915  10.675  38.925  13.839
14491W        W86916  41.974   4.835  14.954
14492W        W86917  38.799  28.165  12.498
14493W        W86918  34.934  21.648   3.410
14494W        W86919  44.785  41.315  13.539
14495W        W86920  43.383  41.009   1.265
14496W        W86921  22.571  14.111   3.291
14497W        W86922  28.179  13.737   0.181
14498W        W86923   1.433  29.128  14.251
14499W        W86924  13.070  33.894   2.320
14500W        W86925  14.665   7.130  13.873
14501W        W86926  19.725  24.490   4.686
14502W        W86927  24.117  19.229  10.637
14503W        W86928   6.851   8.788   4.727
14504W        W86929  13.747  26.545   1.187
14505W        W86930  18.654  27.281   2.364
14506W        W86931  14.646   0.371  13.990
14507W        W86932  12.673  40.902   0.002
14508W        W86933  31.436   1.831   4.827
14509W        W86934  40.280  34.951  11.527
14510W        W86935  16.448  32.988   3.292
14511W        W86936  19.232  24.318   4.038
14512W        W86937  42.730   2.421  11.345
14513W        W86938   9.915   6.956   3.287
14514W        W86939  30.919  13.440  14.580
14515W        W86940  29.768  19.560  11.577
14516W        W86941   0.799  19.026  11.563
14517W        W86942   9.974  40.518  14.907
14518W        W86943   5.484   6.428   3.561
14519W        W86944  11.272   4.957   4.209
14520W        W86945  14.825  10.157   1.735
14521W        W86946  37.460  24.072   2.827
14522W        W86947  44.947   4.069   2.234
14523W        W86948  27.001  12.666   4.780
14524W        W86949   0.295  27.135   2.241
14525W        W86950  19.698  29.788   0.293
14526W        W86951   8.961  44.536  11.175
14527W        W86952  33.105  39.328  13.466
14528W        W86953   7.724   9.635   0.279
14529W        W86954   2.816   5.278   3.638
14530W        W86955  29.947  38.625  11.139
14531W        W86956  32.100  31.833  14.501
14532W        W86957   7.316   4.713   1.414
14533W        W86958  23.100  40.486  11.171
14534W        W86959   6.311  26.685   3.806
14535W        W86960  37.551   8.259   2.187
14536W        W86961  21.292  13.041   3.363
14537W        W86962  12.845   6.985  12.825
14538W        W86963  21.790   2.733  10.737
14539W        W86964  14.080  19.136  13.915
14540W        W86965   5.414  32.969   3.486
14541W        W86966  31.629   4.664  12.212
14542W        W86967  20.398   2.172   2.720
14543W        W86968  31.880  14.082   1.348
14544W        W86969  30.196   3.712   1.657
14545W        W86970  26.446  22.279  14.378
14546W        W86971  10.592   6.297   2.850
14547W        W86972  32.467  39.311  11.980
14548W        W86973  11.355  26.509   1.004
14549W        W86974  19.474  24.515  11.191
14550W        W86975   6.761  10.497  10.573
14551W        W86976  36.083  33.936  13.097
14552W        W86977  43.968  33.088   3.603
14553W        W86978  20.846  44.860   3.208
14554W        W86979  39.363   6.478   0.161
14555W        W86980  21.960  38.967  14.497
14556W        W86981  32.870  41.248  14.363
14557W        W86982  34.564  37.627   3.122
14558W        W86983  14.650   7.640  10.748
14559W        W86984  32.354  39.425  13.833
14560W        W86985  22.710  33.307   1.391
14561W        W86986  20.661  28.022   2.822
14562W        W86987  23.067   8.096   1.422
14563W        W86988  18.810  25.240   3.966
14564W        W86989   5.354  38.791  13.925
14565W        W86990  36.645   1.030   3.791
14566W        W86991  25.199  19.279  12.970
14567W        W86992   2.566   8.457  10.603
14568W        W86993  36.572  17.047   0.119
14569W        W86994  22.927  44.954   4.298
14570W        W86995   5.813  19.011  10.613
14571W        W86996  16.357  12.823  12.367
14572W        W86997  30.763   3.634  12.271
14573W        W86998  21.074  34.956  12.907
14574W        W86999  42.499  19.097   4.579
14575W        W87000  26.262  34.710   3.768
14576W        W87001  44.710  15.128  10.827
14577W        W87002  11.116  42.036  14.855
14578W        W87003   8.715  14.616   2.853
14579W        W87004  23.704   6.476  13.149
14580W        W87005  17.667   9.425  13.788
14581W        W87006  36.361  39.443   1.916
14582W        W87007  28.932  20.245  11.914
14583W        W87008   5.236  27.672   2.228
14584W        W87009  15.643  37.696  13.455
14585W        W87010  32.894  43.738   2.418
14586W        W87011  12.984  20.012   0.791
14587W        W87012  32.303   3.349  11.633
14588W        W87013   4.250  42.452   3.788
14589W        W87014  11.455  31.873  14.745
14590W        W87015   0.339  31.053  10.155
14591W        W87016  32.545  19.521   0.905
14592W        W87017   5.381  14.166   3.213
14593W        W87018  26.026  40.234   4.625
14594W        W87019  13.226  35.860   2.824
14595W        W87020   3.775  31.978  13.309
14596W        W87021   4.879  32.914  12.939
14597W        W87022  43.091   6.922   1.431
14598W        W87023  40.271  16.502  11.969
14599W        W87024  44.791  17.967  14.943
14600W        W87025   5.301  27.136  11.072
14601W        W87026  10.759  28.920  11.969
14602W        W87027  36.365   4.899   4.183
14603W        W87028  28.478   2.138   0.307
14604W        W87029  35.916   9.169  10.137
14605W        W87030  16.826  26.576  11.657
14606W        W87031  29.675  39.604  10.482
14607W        W87032  12.649  14.847  11.522
14608W        W87033  31.176  41.368   9.803
14609W        W87034  34.440   2.042  10.709
14610W        W87035  34.677  24.006   1.304
14611W        W87036  13.760  14.835   3.756
14612W        W87037  29.116  16.829   1.870
14613W        W87038  40.350  15.516  13.523
14614W        W87039   5.033  41.431  13.522
14615W        W87040  15.571  14.229  13.118
14616W        W87041   3.836   4.398  10.575
14617W        W87042  42.898  18.132  13.804
14618W        W87043  21.267  30.603   3.167
14619W        W87044  28.632  41.404   4.099
14620W        W87045   5.146  28.296  11.973
14621W        W87046   6.385  23.038   0.206
14622W        W87047  42.754  35.810  11.992
14623W        W87048   8.632  35.786   3.160
14624W        W87049  23.219  41.808  11.528
14625W        W87050  23.015  30.192   2.714
14626W        W87051  42.355  13.306  14.314
14627W        W87052  34.893   3.770   1.856
14628W        W87053  31.979   1.136  11.387
14629W        W87054  42.966   7.845  10.754
14630W        W87055   3.154  44.261   1.278
14631W        W87056  25.043  29.459   3.838
14632W        W87057  13.833  20.245   0.311
14633W        W87058  17.080  21.894  11.586
14634W        W87059   6.069  37.440   4.595
14635W        W87060  26.669  33.650  10.530
14636W        W87061  19.199  36.601   3.520
14637W        W87062  42.831  14.661  14.348
14638W        W87063  43.106   8.403   4.513
14639W        W87064  30.710  16.165  12.942
14640W        W87065  27.414  30.556  11.057
14641W        W87066  11.073  41.435   4.896
14642W        W87067  38.678  33.514   0.915
14643W        W87068  33.848   9.588  13.908
14644W        W87069  17.344  23.109  10.264
14645W        W87070  11.331  25.016  13.837
14646W        W87071  26.467  44.803   3.718
14647W        W87072   9.728  39.016  12.473
14648W        W87073  21.642  32.708  10.984
14649W        W87074  29.208   9.631   2.220
14650W        W87075   2.380  18.548   4.011
14651W        W87076   3.889  26.737   3.584
14652W        W87077  40.770  19.856  11.190
14653W        W87078   9.406  31.484   0.378
14654W        W87079   7.824  13.767  12.719
14655W        W87080  13.834  26.649  11.405
14656W        W87081  22.688   7.846  13.031
14657W        W87082  27.680  27.323   0.611
14658W        W87083   8.602  19.020  14.405
14659W        W87084  43.687   0.199  11.112
14660W        W87085  16.876   2.365   2.891
14661W        W87086  26.940   5.500   1.232
14662W        W87087  27.715  21.940   2.647
14663W        W87088  20.306  35.674  11.895
14664W        W87089  28.099  42.828  14.266
14665W        W87090  31.008  28.204  10.256
14666W        W87091  19.157  18.124  10.766
14667W        W87092   7.437  33.572   3.808
14668W        W87093  19.029   0.921   2.888
14669W        W87094  44.904  24.472   0.753
14670W        W87095   2.174  37.579  11.409
14671W        W87096  34.098   7.309   4.924
14672W        W87097   9.884   4.663  11.104
14673W        W87098  19.120   3.386  13.515
14674W        W87099  44.851  22.472  11.927
14675W        W87100  27.179  21.265   2.209
14676W        W87101  21.116   7.438   1.941
14677W        W87102  20.381  35.525   3.668
14678W        W87103  43.961  30.539  11.613
14679W        W87104   0.417  10.277  11.855
14680W        W87105  32.684   8.734  14.265
14681W        W87106  11.592  38.500  10.259
14682W        W87107  15.021  26.759   0.851
14683W        W87108   4.022  17.820  12.541
14684W        W87109   3.794  39.717  13.440
14685W        W87110   3.274  25.107   1.674
14686W        W87111  34.791  30.915  12.030
14687W        W87112  42.950  28.194  13.545
14688W        W87113  31.923   7.423  14.683
14689W        W87114  13.266  28.818  10.463
14690W        W87115  17.090   7.199   4.017
14691W        W87116  31.875  24.313  14.566
14692W        W87117   1.208   7.875  10.683
14693W        W87118  36.252   1.413   3.563
14694W        W87119  40.823  19.248  14.054
14695W        W87120  35.490  30.318  13.974
14696W        W87121  36.605  31.005  13.083
14697W        W87122  37.878  33.999   4.771
14698W        W87123  17.652  10.658   0.245
14699W        W87124  11.850  34.772  11.940
14700W        W87125  26.332  15.354   0.739
14701W        W87126  27.948  34.441  13.828
14702W        W87127   7.435  27.071  14.215
14703W        W87128  31.518  24.058  14.238
14704W        W87129  34.628   3.183   4.122
14705W        W87130  39.962   0.508  12.520
14706W        W87131  11.094   7.316   0.434
14707W        W87132  31.657  22.781   1.891
14708W        W87133  18.695   5.319  14.274
14709W        W87134  12.023  17.655  11.920
14710W        W87135   8.991  24.059  10.590
14711W        W87136  15.221   2.360   5.148
14712W        W87137  32.412   2.697   4.531
14713W        W87138  36.301  40.855  10.580
14714W        W87139  13.123  33.606   1.893
14715W        W87140  24.531  10.563  10.716
14716W        W87141  32.703  18.172   2.266
14717W        W87142  44.806   5.873  11.869
14718W        W87143  19.798  38.367   2.053
14719W        W87144  18.956  15.344   0.769
14720W        W87145  40.456  10.857   1.487
14721W        W87146  39.322  17.747   3.152
14722W        W87147  15.801  44.032  11.563
14723W        W87148  22.291   4.286  13.389
14724W        W87149   7.996  30.186  11.017
14725W        W87150  25.573  25.721   2.861
14726W        W87151  31.825  35.385   2.887
14727W        W87152  26.118  42.455  10.909
14728W        W87153  29.322   3.381   1.281
14729W        W87154  39.399  32.234  10.242
14730W        W87155  37.206   9.886  13.522
14731W        W87156   2.270  24.482   0.404
14732W        W87157  15.589  15.919  11.670
14733W        W87158  16.787   8.570  10.452
14734W        W87159   7.395  15.603   2.923
14735W        W87160  26.263   4.852  10.521
14736W        W87161  28.775  16.140   1.383
14737W        W87162  18.602  23.082   0.512
14738W        W87163  30.624  34.109   4.505
14739W        W87164   9.203  44.506   2.423
14740W        W87165  13.384  26.603  10.724
14741W        W87166  21.448  19.628  10.864
14742W        W87167  25.620   6.352   2.761
14743W        W87168  36.925   9.244   4.975
14744W        W87169   5.262  26.070  10.670
14745W        W87170  22.532  25.274   3.667
14746W        W87171  20.563  11.680  14.913
14747W        W87172   8.217  39.108   1.251
14748W        W87173  35.992  43.552  12.504
14749W        W87174  40.425   8.259   2.226
14750W        W87175   5.355  30.060  12.825
14751W        W87176  32.606  14.280  14.616
14752W        W87177  28.014  44.962  11.118
14753W        W87178  40.084  21.596  12.522
14754W        W87179  15.904   7.205   3.267
14755W        W87180   2.489  25.584   3.743
14756W        W87181  36.072  20.905   5.130
14757W        W87182  31.382   1.820   0.280
14758W        W87183  17.740   0.771   0.013
14759W        W87184   2.329   2.347   2.386
14760W        W87185  16.867  38.933  11.004
14761W        W87186  17.959  19.227  13.931
14762W        W87187  18.204  16.821   0.438
14763W        W87188  40.489   3.318   3.092
14764W        W87189   4.147  44.362  14.731
14765W        W87190  38.111  13.179  13.022
14766W        W87191  14.655  16.613  11.535
14767W        W87192  30.461  33.998   1.690
14768W        W87193  29.029  18.816  11.672
14769W        W87194  22.780  33.034  12.915
14770W        W87195  40.828  25.629  10.654
14771W        W87196  31.961  32.300  12.894
14772W        W87197  22.192  11.711   5.085
14773W        W87198  21.698  10.370  13.022
14774W        W87199   3.018   9.379  14.322
14775W        W87200  16.847  40.217  11.209
14776W        W87201   4.284   1.776   0.705
14777W        W87202  42.366  15.629   0.777
14778W        W87203  28.389  28.701  11.125
14779W        W87204  29.984  43.469  14.237
14780W        W87205  28.830   1.031  11.317
14781W        W87206   3.177  31.602  10.696
14782W        W87207  22.547  42.321   4.915
14783W        W87208  41.790  41.739  13.361
14784W        W87209  33.115   2.497  14.745
14785W        W87210  25.391  12.254  14.184
14786W        W87211  34.854  29.101   1.310
14787W        W87212  28.301  37.801   4.837
14788W        W87213  16.241  36.820  13.478
14789W        W87214   4.722  39.934  14.450
14790W        W87215  22.284  29.024   4.733
14791W        W87216  18.326   7.842   4.406
14792W        W87217  26.281  24.676  14.879
14793W        W87218  43.479  27.756   0.985
14794W        W87219  12.309  25.599  11.039
14795W        W87220  43.131   6.558   0.240
14796W        W87221  22.027   5.046   4.139
14797W        W87222  30.616  17.570   0.441
14798W        W87223  36.098  33.196  12.445
14799W        W87224   3.844   0.278   3.704
14800W        W87225   6.222  18.997  14.069
14801W        W87226  12.277  11.932   3.813
14802W        W87227  44.861  16.356  11.897
14803W        W87228  17.326   9.742  11.019
14804W        W87229   0.962  12.543   3.660
14805W        W87230  21.208  11.298   1.797
14806W        W87231  15.873  36.464   1.746
14807W        W87232  16.311  27.963   2.599
14808W        W87233  28.227  39.423   3.910
14809W        W87234  27.456  25.112  11.174
14810W        W87235  23.010  12.376   3.751
14811W        W87236  21.968  42.737  12.927
14812W        W87237  33.064  24.535   2.747
14813W        W87238  18.284  28.563   2.562
14814W        W87239  27.473  38.970  10.749
14815W        W87240   1.684  21.197   4.486
14816W        W87241  44.343  26.638  13.106
14817W        W87242  32.734  38.577   1.255
14818W        W87243  11.921  26.346   4.669
14819W        W87244   9.652  41.914  13.902
14820W        W87245  11.788  13.349   2.276
14821W        W87246  30.615  20.819   4.054
14822W        W87247  29.450  15.049  11.237
14823W        W87248  43.693  41.534   2.931
14824W        W87249  12.906  15.810  11.904
14825W        W87250  40.193  34.503  11.147
14826W        W87251   4.661  23.740   9.889
14827W        W87252  43.374   3.349  10.473
14828W        W87253  20.185  19.106  10.904
14829W        W87254  21.283   3.819  14.474
14830W        W87255  38.096  13.507   4.920
14831W        W87256  39.542   6.212   1.715
14832W        W87257  28.185  34.818   4.204
14833W        W87258   7.278   3.336  11.440
14834W        W87259  23.708  25.507  13.780
14835W        W87260  20.825  37.326   5.106
14836W        W87261  36.137  27.149   0.995
14837W        W87262   7.262  39.587   4.301
14838W        W87263  35.812  38.084   1.457
14839W        W87264  24.116  28.712  13.412
14840W        W87265  40.408  15.177  14.449
14841W        W87266  42.353  19.786   1.252
14842W        W87267   3.552   3.270   1.266
14843W        W87268  35.386   1.378  11.663
14844W        W87269  37.007  28.997  13.447
14845W        W87270  34.720   4.948   0.274
14846W        W87271  30.667  43.324   0.476
14847W        W87272   6.919   9.902   1.965
14848W        W87273  37.566  31.326   0.185
14849W        W87274  19.612  13.873  14.560
14850W        W87275  33.731  32.887  14.364
14851W        W87276  19.247  27.108  10.620
14852W        W87277  11.100  24.508  14.928
14853W        W87278  20.610   2.463   2.232
14854W        W87279   4.929  31.531  13.729
14855W        W87280  11.608  36.999   2.181
14856W        W87281  39.372  12.604   4.592
14857W        W87282  39.560  19.956  11.528
14858W        W87283  28.729  11.482   3.240
14859W        W87284  20.599   3.967   1.243
14860W        W87285  20.240  19.264   2.311
14861W        W87286  26.883  23.688   1.312
14862W        W87287  26.803  19.786   4.912
14863W        W87288  30.078  37.629  13.474
14864W        W87289  23.107   4.661  12.562
14865W        W87290  10.399  26.563   4.574
14866W        W87291  18.280  31.211   3.668
14867W        W87292   6.624  31.494   2.766
14868W        W87293  20.718   0.192  13.864
14869W        W87294   3.372  15.158  10.690
14870W        W87295  17.365  44.116   5.065
14871W        W87296  37.440  38.381  11.037
14872W        W87297  38.086  11.822   3.573
14873W        W87298  40.265   5.449  12.913
14874W        W87299  42.795  11.158   3.332
14875W        W87300  26.767  20.761   3.458
14876W        W87301  33.963   0.546   2.569
14877W        W87302  25.340  44.710   2.185
14878W        W87303   1.153  35.074  12.636
14879W        W87304  41.078  21.315   1.114
14880W        W87305  20.296   1.423  14.250
14881W        W87306  28.147   2.734  11.668
14882W        W87307  41.633  36.958   3.592
14883W        W87308  43.873  25.107   1.760
14884W        W87309  30.543  27.352   4.217
14885W        W87310  38.387  28.886   0.479
14886W        W87311  42.379  41.743  13.908
14887W        W87312  22.498  42.742   1.696
14888W        W87313   0.824   4.014   4.793
14889W        W87314  23.430  29.278  13.036
14890W        W87315   0.421  16.854  13.978
14891W        W87316   4.163  24.753  11.217
14892W        W87317  34.036  19.479  12.256
14893W        W87318  30.114   1.354   3.248
14894W        W87319  15.887  38.060  12.338
14895W        W87320   1.701   3.185  13.061
14896W        W87321   8.142  19.123  12.407
14897W        W87322  36.611  41.570  11.049
14898W        W87323  26.173  25.179  14.702
14899W        W87324   2.279  39.692   2.316
14900W        W87325  17.297  28.332   2.756
14901W        W87326  36.100  19.838  10.532
14902W        W87327  19.812  41.835  10.686
14903W        W87328  12.369  23.683   4.972
14904W        W87329  11.412  21.278   3.080
14905W        W87330  16.096  21.052   3.622
14906W        W87331  40.267  27.822   1.863
14907W        W87332  38.391  21.245  13.109
14908W        W87333   1.761   1.298   1.802
14909W        W87334  10.766   4.220   2.878
14910W        W87335  28.161   8.918   0.101
14911W        W87336  19.850   4.933   0.906
14912W        W87337   0.682   3.425   3.285
14913W        W87338  26.236   5.824   2.210
14914W        W87339  33.379  30.872   1.310
14915W        W87340  37.330  12.286   1.436
14916W        W87341  44.081  22.072  13.626
14917W        W87342  25.360  23.443   1.249
14918W        W87343  15.286   7.912   3.214
14919W        W87344  11.805   8.432  11.414
14920W        W87345  16.334  16.570   0.040
14921W        W87346  33.734  10.755   1.312
14922W        W87347   9.134  35.000  14.103
14923W        W87348  23.500   7.653   2.502
14924W        W87349  14.197   6.753   4.555
14925W        W87350  40.414  15.150   1.482
14926W        W87351  33.786  43.408  14.057
14927W        W87352  22.241  37.800   0.407
14928W        W87353  37.051  21.577  10.908
14929W        W87354  35.965  20.529  12.644
14930W        W87355  38.049  13.888  13.835
14931W        W87356   6.222  18.104   2.361
14932W        W87357   5.432   9.235   1.284
14933W        W87358  36.404   8.713  12.939
14934W        W87359  18.139   2.773  11.179
14935W        W87360  10.125  42.582   4.441
14936W        W87361   5.875  30.851  14.505
14937W        W87362  16.037  12.480  13.392
14938W        W87363  42.517  43.086   4.056
14939W        W87364   8.710  25.915  13.832
14940W        W87365  41.524  18.667   1.664
14941W        W87366  11.566  21.528   4.626
14942W        W87367   0.281  38.141   0.218
14943W        W87368  38.177  38.505  13.515
14944W        W87369  21.778  43.335  14.653
14945W        W87370  24.833  25.875  12.562
14946W        W87371  31.571  15.079  13.489
14947W        W87372  40.652  39.750   1.254
14948W        W87373  12.176  10.204  11.383
14949W        W87374  43.451  33.682   3.165
14950W        W87375   9.692  44.301  14.098
14951W        W87376  38.523  12.579   3.508
14952W        W87377  22.786  21.129   4.955
14953W        W87378  24.046  16.137  11.616
14954W        W87379   2.057  23.247  12.607
14955W        W87380  36.975  15.547  13.106
14956W        W87381  11.200  25.699   0.014
14957W        W87382  28.953  43.539   2.747
14958W        W87383   4.765  22.051  11.879
14959W        W87384  34.092  18.409  11.317
14960W        W87385   6.014  10.650   0.040
14961W        W87386  29.046   6.595   1.857
14962W        W87387  17.103  16.208  14.801
14963W        W87388  37.317  34.433  12.086
14964W        W87389  21.766   9.189   0.841
14965W        W87390  41.546  38.485  13.334
14966W        W87391  43.969  18.570  14.475
14967W        W87392  38.915  37.302  10.184
14968W        W87393  30.294   6.637   0.251
14969W        W87394  15.374  44.082   3.334
14970W        W87395  30.636   0.726   3.104
14971W        W87396   5.709  11.163  12.577
14972W        W87397   0.831  18.492   4.942
14973W        W87398   0.986   4.678   1.050
14974W        W87399   4.038  35.975  10.757
14975W        W87400   7.897   8.173  14.401
14976W        W87401  14.549  43.979  14.336
14977W        W87402   2.038  22.405  12.279
14978W        W87403   5.881  37.531   2.591
14979W        W87404   3.315  42.608   0.773
14980W        W87405   1.443  21.523   0.155
14981W        W87406  10.279   0.107  13.186
14982W        W87407   9.822  21.381  13.496
14983W        W87408  24.740  17.486   3.253
14984W        W87409  25.245  43.064  13.852
14985W        W87410  14.402  23.739   4.506
14986W        W87411   6.363  12.309  10.002
14987W        W87412   2.901  34.935  12.609
14988W        W87413  34.584  41.243  14.761
14989W        W87414   5.829  39.430   0.233
14990W        W87415   3.918  44.937   2.730
14991W        W87416  19.859  42.758  11.317
14992W        W87417   6.881  31.856  12.369
14993W        W87418   7.270  43.077   4.729
14994W        W87419  44.573  32.618  12.862
14995W        W87420  29.479  36.810  14.987
14996W        W87421  15.762  19.637   2.790
14997W        W87422  11.757  10.903  13.973
14998W        W87423  19.608   3.996   2.304
14999W        W87424  29.084  28.139  14.310
15000W        W87425  36.608  14.729  13.427
15001W        W87426  41.555   8.711   1.724
15002W        W87427  40.836  20.651   2.248
15003W        W87428   8.876   5.969  14.416
15004W        W87429   6.159  36.985   3.628
15005W        W87430   4.823  13.131  14.217
15006W        W87431  21.970  31.965  10.288
15007W        W87432   5.288  39.983   3.292
15008W        W87433  21.003   3.245  10.039
15009W        W87434  38.829  19.554   0.327
15010W        W87435   5.499  15.995  13.496
15011W        W87436  26.939  14.047   3.239
15012W        W87437  38.950  22.063  13.845
15013W        W87438  30.072  11.821   0.277
15014W        W87439  18.232   4.244   0.660
15015W        W87440  37.142  36.529   4.574
15016W        W87441   7.717  28.266  11.140
15017W        W87442  16.226  39.348  10.714
15018W        W87443  21.037  39.325  14.896
15019W        W87444  13.389  28.630   1.658
15020W        W87445  40.929  23.311  13.127
15021W        W87446  28.560  24.950  14.939
15022W        W87447  36.036  16.064   2.957
15023W        W87448  33.784  25.184   0.542
15024W        W87449  26.162  40.818  11.313
15025W        W87450   4.848  37.081   0.231
15026W        W87451  33.362  16.623  10.183
15027W        W87452   9.245  18.510  10.635
15028W        W87453   1.821  31.978   3.320
15029W        W87454  17.831  10.253   2.678
15030W        W87455  12.296  29.694  11.457
15031W        W87456  16.266  44.281  12.530
15032W        W87457   1.385   1.787  12.573
15033W        W87458  32.383   8.929   5.169
15034W        W87459  32.188   8.603  11.942
15035W        W87460  34.431   5.160   1.509
15036W        W87461   6.959  35.643   2.774
15037W        W87462  39.946  10.149  10.505
15038W        W87463  10.938  21.989  13.784
15039W        W87464  27.065  10.893  14.531
15040W        W87465  22.783  34.100   4.626
15041W        W87466  31.096  38.555  13.901
15042W        W87467   7.304  41.683  14.804
15043W        W87468  19.573   8.302   1.680
15044W        W87469  14.296  40.900   4.862
15045W        W87470   6.452  13.194  13.285
15046W        W87471   6.366  24.984   0.483
15047W        W87472  23.775   3.215   0.952
15048W        W87473   3.321  18.313   4.095
15049W        W87474  44.864   9.174   3.301
15050W        W87475  10.558   8.748   2.841
15051W        W87476  18.694   0.488  10.534
15052W        W87477  24.034  27.791  13.056
15053W        W87478  26.833  44.810  12.676
15054W        W87479  24.673  20.031  10.701
15055W        W87480  26.739  33.093   4.108
15056W        W87481   8.256  29.877   3.604
15057W        W87482  23.168  22.099  10.873
15058W        W87483  12.332  34.902   1.889
15059W        W87484  24.167  19.965  14.477
15060W        W87485  31.316  29.046   0.981
15061W        W87486  15.170  44.400  12.120
15062W        W87487  22.699  11.741  11.564
15063W        W87488  20.679  35.861   0.563
15064W        W87489  30.599  27.983  10.525
15065W        W87490  39.453  33.643   4.736
15066W        W87491  33.368  40.368   3.616
15067W        W87492  10.723  18.302  12.119
15068W        W87493   4.024  37.628   0.296
15069W        W87494  44.037   4.744  13.530
15070W        W87495  41.096   5.245  13.400
15071W        W87496  36.507  33.378   4.486
15072W        W87497  21.914  14.537   5.044
15073W        W87498  24.559  37.901   2.796
15074W        W87499  25.294   1.281  11.545
15075W        W87500  13.570  44.801  11.627
15076W        W87501  30.378  36.802  11.125
15077W        W87502   7.238  19.599  12.492
15078W        W87503  23.029  40.065   3.713
15079W        W87504  17.282   2.488   3.192
15080W        W87505  11.754  42.948   1.403
15081W        W87506  13.922  11.283   1.504
15082W        W87507  11.969  12.733  12.155
15083W        W87508  16.463  36.426   1.029
15084W        W87509   6.823  22.537  13.915
15085W        W87510  28.526  21.740  10.301
15086W        W87511   8.915  23.278  10.885
15087W        W87512  16.773  36.450   3.803
15088W        W87513  42.010   5.287   0.841
15089W        W87514  26.024   6.744   2.194
15090W        W87515  14.643  30.349   3.253
15091W        W87516  27.900  12.744   4.116
15092W        W87517  17.126  25.988   4.213
15093W        W87518  44.099  22.908   4.054
15094W        W87519  15.576  24.039   4.054
15095W        W87520  16.657   5.349  11.406
15096W        W87521  42.287  18.542  14.560
15097W        W87522  17.013   7.698   0.285
15098W        W87523  25.054  28.621  14.943
15099W        W87524   2.637  42.521  12.327
15100W        W87525  14.532  18.134  12.450
15101W        W87526  41.675  25.378  14.450
15102W        W87527  36.227  14.372   0.394
15103W        W87528   4.835  36.176   3.851
15104W        W87529  31.167  10.892   0.908
15105W        W87530  21.003  33.798  14.542
15106W        W87531  41.822  17.059   1.416
15107W        W87532   1.092  43.858   3.292
15108W        W87533  38.626  38.359   4.889
15109W        W87534  29.996  43.083   0.011
15110W        W87535  19.763  44.917   0.201
15111W        W87536  27.549   4.238   4.102
15112W        W87537   3.265  22.176   4.148
15113W        W87538   7.412  13.120  14.921
15114W        W87539  40.729  34.088   4.070
15115W        W87540  19.528  30.905  12.537
15116W        W87541  21.037  14.565   0.739
15117W        W87542  43.950   1.995  14.415
15118W        W87543  28.554  36.556   3.036
15119W        W87544  30.186  34.627  14.240
15120W        W87545  11.256  24.848  11.252
15121W        W87546  16.198  25.713   4.113
15122W        W87547  24.289  20.459   4.544
15123W        W87548  35.416  34.275   1.981
15124W        W87549  44.736  35.226  10.845
15125W        W87550  21.256  20.842  11.788
15126W        W87551  23.612  42.467  14.375
15127W        W87552  12.054   2.312   4.971
15128W        W87553   3.765  33.090  11.946
15129W        W87554  25.525  18.101  14.768
15130W        W87555  18.787  37.997  11.569
15131W        W87556  42.982   3.823  10.427
15132W        W87557  44.287  34.625  11.257
15133W        W87558  27.861  35.691  10.530
15134W        W87559  35.303  24.404   0.712
15135W        W87560  35.020  40.836  12.139
15136W        W87561  40.602   3.302  11.774
15137W        W87562  26.621  43.709   2.547
15138W        W87563  23.554  25.612  14.410
15139W        W87564  12.800  23.737   4.640
15140W        W87565   4.870  41.387   2.117
15141W        W87566   2.865  35.094   1.278
15142W        W87567  19.988  29.265  12.945
15143W        W87568  44.214  22.738  10.777
15144W        W87569   0.781  27.946   0.343
15145W        W87570  34.480  22.449   0.670
15146W        W87571  25.934  27.709  13.591
15147W        W87572   5.792  21.874   1.389
15148W        W87573  17.309   9.227  10.503
15149W        W87574  40.832   8.366   0.378
15150W        W87575   3.934  13.264  12.152
15151W        W87576  31.607  37.912   2.258
15152W        W87577   3.789  43.910  11.709
15153W        W87578  37.571   2.389  12.518
15154W        W87579  28.594  43.876   3.218
15155W        W87580  35.823  13.814  12.602
15156W        W87581  40.456  11.487   4.623
15157W        W87582  42.332  41.318   0.433
15158W        W87583  38.370  14.233  12.219
15159W        W87584  23.571  44.219   1.689
15160W        W87585   4.628  22.473  10.233
15161W        W87586   0.332  13.616   4.429
15162W        W87587  22.731  27.570   0.336
15163W        W87588  32.666  30.987  14.970
15164W        W87589  28.660  29.491   3.366
15165W        W87590  31.290  39.864   2.431
15166W        W87591   7.732  17.503  13.313
15167W        W87592  16.112  27.559   3.655
15168W        W87593   7.943  38.840   5.124
15169W        W87594   6.825  13.290   0.927
15170W        W87595  20.042   5.218   3.809
15171W        W87596  30.209   0.809   0.065
15172W        W87597  40.618  35.563   0.915
15173W        W87598   2.333  31.153   2.288
15174W        W87599  11.203  36.125   4.731
15175W        W87600  39.992  19.181  12.403
15176W        W87601  27.424   0.806   0.846
15177W        W87602  34.892   1.313  12.984
15178W        W87603   8.344  33.166  14.585
15179W        W87604  11.652  18.835  12.189
15180W        W87605  37.565  14.437   4.687
15181W        W87606  33.958  18.433  10.308
15182W        W87607  10.729  21.586   3.585
15183W        W87608  33.515   8.456   2.715
15184W        W87609   4.209  22.552   3.604
15185W        W87610   0.852   7.998  11.049
15186W        W87611  16.032  19.798   5.154
15187W        W87612   0.718  35.857  12.494
15188W        W87613   4.510   2.621   0.709
15189W        W87614  35.474   9.679  11.737
15190W        W87615  18.512  28.557  14.411
15191W        W87616  24.646   4.501   3.132
15192W        W87617   9.486  17.853  14.258
15193W        W87618  15.056  43.899  14.393
15194W        W87619  31.779  27.869   1.490
15195W        W87620  42.028  18.117  14.401
15196W        W87621   9.697  39.534  11.486
15197W        W87622  19.767  44.249   3.672
15198W        W87623   6.592  37.461   4.735
15199W        W87624  10.182  23.767   5.192
15200W        W87625  27.748  38.950  14.813
15201W        W87626  19.612  28.090   2.709
15202W        W87627  43.411  24.002  12.951
15203W        W87628  25.225  28.922  11.542
15204W        W87629   5.591  19.836  11.076
15205W        W87630  43.252  18.718  14.372
15206W        W87631  10.990  22.876   0.706
15207W        W87632  33.354   4.820  14.490
15208W        W87633  26.193  18.135   0.332
15209W        W87634  40.335  24.933  10.660
15210W        W87635  10.302  35.946  13.086
15211W        W87636  41.733  27.586  11.087
15212W        W87637  32.006   9.454   0.431
15213W        W87638  22.232   3.462  10.638
15214W        W87639  19.626  36.637   3.222
15215W        W87640   2.750  42.626  10.401
15216W        W87641  15.573   5.151   4.323
15217W        W87642   0.409  17.278  10.667
15218W        W87643   2.135   6.071   1.649
15219W        W87644  10.736  41.365  13.898
15220W        W87645   3.985  14.818   0.811
15221W        W87646   7.698   5.887   3.922
15222W        W87647  33.143   4.391  14.257
15223W        W87648  13.096  40.004   0.735
15224W        W87649  24.263  27.555   0.399
15225W        W87650  35.381  13.726   4.079
15226W        W87651  41.014  37.051  10.806
15227W        W87652  41.479   3.482   0.972
15228W        W87653  32.430  14.514  14.198
15229W        W87654  20.010  12.179  13.866
15230W        W87655  12.650   3.307  11.493
15231W        W87656  43.151  18.740  10.263
15232W        W87657  10.469  17.814   1.228
15233W        W87658   6.127  40.127   1.236
15234W        W87659  28.908  12.826   2.128
15235W        W87660   4.597  15.139   1.451
15236W        W87661  44.765  40.091  13.785
15237W        W87662  15.071  11.132  12.963
15238W        W87663  25.891   3.382   4.599
15239W        W87664  34.838  23.633  12.659
15240W        W87665   3.502   7.905   2.426
15241W        W87666  39.762  42.201   1.509
15242W        W87667  32.412  38.834   2.772
15243W        W87668   3.231  20.201  10.949
15244W        W87669  34.486  32.558  13.969
15245W        W87670  29.498  31.150  11.134
15246W        W87671  33.035   0.803  14.282
15247W        W87672  36.571  31.767   5.087
15248W        W87673   6.359  37.484  13.550
15249W        W87674  41.571  17.146  11.289
15250W        W87675  30.090  28.226  13.275
15251W        W87676  36.100  30.991   4.734
15252W        W87677  20.805  23.618  10.650
15253W        W87678  25.109  31.436  14.035
15254W        W87679  18.260  42.505  12.096
15255W        W87680  20.381   5.902  10.990
15256W        W87681  12.197  32.329   2.505
15257W        W87682   9.785  12.116   0.395
15258W        W87683  30.205  22.321  14.937
15259W        W87684  27.900   5.786  11.946
15260W        W87685  28.428  11.770   4.919
15261W        W87686  13.995  14.600  11.024
15262W        W87687  15.211   0.001   0.864
15263W        W87688  36.387  33.419   0.368
15264W        W87689  21.241  13.712   4.018
15265W        W87690  44.246  31.626  14.420
15266W        W87691   8.916  41.912  10.739
15267W        W87692  28.946  17.256  14.121
15268W        W87693  24.263   7.786  13.917
15269W        W87694  13.745   3.178  12.909
15270W        W87695  22.095   0.433  14.848
15271W        W87696   4.889  21.012  14.025
15272W        W87697  44.648   8.306  13.999
15273W        W87698  31.609  34.905   2.867
15274W        W87699  31.574  35.151   0.288
15275W        W87700   6.971  43.256  13.042
15276W        W87701  18.827  38.334   1.365
15277W        W87702   3.672   6.945  14.194
15278W        W87703  28.093  25.442   0.947
15279W        W87704   6.300  19.485  13.933
15280W        W87705  32.908   7.206   3.787
15281W        W87706   1.980  22.091   4.080
15282W        W87707  24.235  35.566   2.276
15283W        W87708  14.624   6.197   0.930
15284W        W87709  25.264  41.923  14.537
15285W        W87710  35.056  38.831  13.095
15286W        W87711  27.800  23.976  10.450
15287W        W87712  15.704  24.258  11.919
15288W        W87713  28.197   6.705   3.305
15289W        W87714   5.125  27.085  10.599
15290W        W87715  24.112  21.241   0.297
15291W        W87716  22.595  19.600  13.365
15292W        W87717  32.037  20.173  11.894
15293W        W87718  18.342   5.809  10.699
15294W        W87719  22.203  37.281   0.404
15295W        W87720  32.818  23.474  14.368
15296W        W87721  35.135  39.845  12.596
15297W        W87722  17.619   6.726  11.939
15298W        W87723  24.984  40.941   2.805
15299W        W87724  10.581  40.702   2.318
15300W        W87725  29.181  29.507  11.633
15301W        W87726  27.184  23.241   4.568
15302W        W87727  13.867  20.208  14.391
15303W        W87728  32.003  29.161   4.318
15304W        W87729  11.481  32.966   3.426
15305W        W87730   5.957  40.369   0.793
15306W        W87731   0.590   7.391  12.987
15307W        W87732  33.529  24.523  14.221
15308W        W87733  21.235   8.563   2.944
15309W        W87734  19.771  20.060   2.180
15310W        W87735  21.626  23.490  12.209
15311W        W87736   3.268  28.125  11.954
15312W        W87737  35.838   7.844   1.618
15313W        W87738   7.248  31.673   3.327
15314W        W87739  12.750  20.294  11.608
15315W        W87740  38.302  37.912  14.259
15316W        W87741  38.648  11.903   2.658
15317W        W87742  14.441  44.930   3.429
15318W        W87743   3.805   4.150  13.823
15319W        W87744  29.580  23.290   2.444
15320W        W87745  28.087  17.573   2.841
15321W        W87746   9.100   3.037  11.528
15322W        W87747  39.951   9.931  14.353
15323W        W87748  28.102  22.240  12.473
15324W        W87749  17.763  43.296   4.577
15325W        W87750  16.247  28.783  13.377
15326W        W87751   2.665  38.584  12.883
15327W        W87752  25.687  36.283   1.771
15328W        W87753  17.088   2.478   4.696
15329W        W87754  28.867  32.206   4.161
15330W        W87755  14.207   4.430   0.147
15331W        W87756  19.310  11.177  12.015
15332W        W87757  43.440   0.469  13.552
15333W        W87758  29.457  20.116   3.949
15334W        W87759  13.260  24.909   4.284
15335W        W87760  29.179  43.522   3.758
15336W        W87761  42.315  29.003  14.335
15337W        W87762  28.937   6.303  13.767
15338W        W87763  26.190  26.060   4.688
15339W        W87764  39.893  43.157   4.529
15340W        W87765  17.631  40.863  10.771
15341W        W87766  18.332  29.440  12.308
15342W        W87767  14.802  42.062   0.489
15343W        W87768   1.045  18.954  14.421
15344W        W87769  23.472  18.338   3.215
15345W        W87770  40.588  17.787   2.828
15346W        W87771  40.969   0.046   0.816
15347W        W87772   2.764  28.479  14.955
15348W        W87773  44.753  33.059   9.870
15349W        W87774  27.161   5.163  12.098
15350W        W87775  34.639  14.538   2.450
15351W        W87776  39.527  37.546  12.574
15352W        W87777  37.800  29.683   0.831
15353W        W87778  27.207   4.314  12.088
15354W        W87779   2.496  31.149  14.855
15355W        W87780  17.698  29.946   1.383
15356W        W87781  27.548  23.262  12.046
15357W        W87782  35.826  37.580   1.240
15358W        W87783  21.901  27.732   3.698
15359W        W87784  13.272  23.136   1.866
15360W        W87785  21.299  43.162   3.909
15361W        W87786  15.715  24.943  13.471
15362W        W87787  12.732  28.008   1.685
15363W        W87788   3.488  33.047   4.813
15364W        W87789  33.084  34.474  11.724
15365W        W87790   3.781  23.445  12.360
15366W        W87791   8.675  28.522  13.603
15367W        W87792   8.644  19.807   1.515
15368W        W87793  31.566  36.548   1.379
15369W        W87794  38.539  22.665  13.516
15370W        W87795  22.087   8.399   3.997
15371W        W87796   6.598   3.106   4.295
15372W        W87797  11.237  33.419   2.285
15373W        W87798   5.884  43.060   4.295
15374W        W87799  26.337   2.134  11.253
15375W        W87800  38.368  30.307  10.732
15376W        W87801  32.025  40.306  13.962
15377W        W87802  44.980  27.173   2.700
15378W        W87803  10.558  12.368   1.998
15379W        W87804  16.238  35.932   2.764
15380W        W87805  32.608  25.680  12.831
15381W        W87806  24.061  24.562  13.456
15382W        W87807  40.775  15.631   2.457
15383W        W87808  28.878  43.623  10.963
15384W        W87809  17.893  20.272  14.499
15385W        W87810   1.717   0.869   1.490
15386W        W87811  33.497  43.110  12.010
15387W        W87812  23.258  26.591  12.547
15388W        W87813  31.189   2.547   1.364
15389W        W87814  32.115  22.159   2.951
15390W        W87815  32.490  12.123   3.230
15391W        W87816   4.655  42.268  10.762
15392W        W87817  22.423  11.766  13.987
15393W        W87818  17.715  34.129  11.569
15394W        W87819  25.903  11.150  12.359
15395W        W87820  32.880  34.784   0.804
15396W        W87821  31.110  33.601  14.398
15397W        W87822   4.808   2.862   3.815
15398W        W87823  19.754  18.562   2.326
15399W        W87824  10.234  37.869   4.311
15400W        W87825  31.520  31.011   2.722
15401W        W87826  37.850  35.573  11.442
15402W        W87827   3.680  19.786  12.425
15403W        W87828  18.358  10.366  14.496
15404W        W87829  20.136   9.752  13.970
15405W        W87830  24.687  23.782  13.529
15406W        W87831  37.471  22.638  13.537
15407W        W87832  43.073  37.306  10.626
15408W        W87833  35.590  35.455  12.445
15409W        W87834  43.632  14.906   1.695
15410W        W87835  14.881   1.609  13.431
15411W        W87836  29.987  23.622   4.596
15412W        W87837  10.722  42.771  11.443
15413W        W87838  25.453  14.125   9.830
15414W        W87839  31.909  22.865   5.010
15415W        W87840   4.099  32.161  12.019
15416W        W87841  34.339  32.020   1.310
15417W        W87842  27.314  18.149  13.446
15418W        W87843  22.946  24.156  11.049
15419W        W87844  15.373  43.783   0.310
15420W        W87845   8.237  38.790  14.938
15421W        W87846  24.058  44.074   4.871
15422W        W87847  34.468  14.138   3.716
15423W        W87848  37.049   2.441   4.618
15424W        W87849   2.423   8.167  13.556
15425W        W87850  32.097  16.663  11.704
15426W        W87851  16.690  30.961  11.597
15427W        W87852  43.860   5.306   2.248
15428W        W87853  31.089  18.082  13.953
15429W        W87854  20.698   5.243   3.148
15430W        W87855  33.014  30.119  11.573
15431W        W87856  33.169  39.772  14.252
15432W        W87857  17.333  25.990   4.893
15433W        W87858  27.994  37.971  10.858
15434W        W87859  42.124  20.468   3.258
15435W        W87860  25.196  17.115   4.510
15436W        W87861  14.242   4.909   0.842
15437W        W87862  43.444   3.313   4.623
15438W        W87863  10.840  27.509   1.779
15439W        W87864   4.440   5.176   3.649
15440W        W87865  37.856  34.381   3.133
15441W        W87866  24.127  23.762  10.785
15442W        W87867  36.065   8.836  10.565
15443W        W87868  31.392  44.958  12.355
15444W        W87869  19.317  31.707   0.046
15445W        W87870  15.081  40.463   4.623
15446W        W87871   6.055   9.804   3.779
15447W        W87872  26.722   3.668  13.089
15448W        W87873   0.491  22.024   0.915
15449W        W87874  42.935  13.610  11.825
15450W        W87875   2.264  34.841   0.350
15451W        W87876  38.029  32.675   1.382
15452W        W87877  40.465  21.372   3.707
15453W        W87878  25.249  20.928   2.333
15454W        W87879   3.781   0.284  14.302
15455W        W87880  28.606  14.787   1.585
15456W        W87881  21.483  39.122  14.617
15457W        W87882  27.457  11.768  11.600
15458W        W87883  26.549  39.260   1.849
15459W        W87884  21.733  32.317  12.323
15460W        W87885  21.480  32.135  10.228
15461W        W87886  26.938   4.138  14.430
15462W        W87887  43.432  18.011  11.086
15463W        W87888  26.110   3.465  10.884
15464W        W87889   2.966  38.525  12.451
15465W        W87890  27.447  42.718   1.476
15466W        W87891  27.784  44.440   2.469
15467W        W87892  34.121  29.974  11.636
15468W        W87893  39.552  40.824  14.498
15469W        W87894  25.223  13.941  14.308
15470W        W87895  33.422  39.467  12.325
15471W        W87896  29.031  39.802  11.967
15472W        W87897  34.347   7.442  10.529
15473W        W87898  41.441  27.965  11.565
15474W        W87899  39.763  35.889  12.607
15475W        W87900  37.586  24.286   0.347
15476W        W87901  29.240  31.274   1.022
15477W        W87902  22.682  41.881  11.520
15478W        W87903  31.930  26.148   2.129
15479W        W87904   5.768   5.684   0.764
15480W        W87905  42.585  37.442  11.365
15481W        W87906   2.890  32.123   4.797
15482W        W87907   5.818   6.711  11.579
15483W        W87908  34.165  34.319   3.541
15484W        W87909  29.471  44.716   2.371
15485W        W87910   4.572  14.445  11.954
15486W        W87911   3.246  38.829  11.537
15487W        W87912   0.790  30.695   2.918
15488W        W87913  10.250   6.691   4.409
15489W        W87914   5.996  13.017  11.133
15490W        W87915  39.988  31.890  12.877
15491W        W87916  11.401  36.951   2.685
15492W        W87917  32.594  13.146   3.360
15493W        W87918   8.424  31.157   1.396
15494W        W87919  41.627  27.204   1.497
15495W        W87920  29.597  34.961  11.796
15496W        W87921  44.396   0.044   4.568
15497W        W87922  29.035   8.890  14.547
15498W        W87923  29.503  10.156  13.861
15499W        W87924  25.721  33.874  14.313
15500W        W87925  35.097  33.094  10.704
15501W        W87926   5.184   0.162   0.417
15502W        W87927  16.706  30.538   3.249
15503W        W87928   8.402  12.154   0.512
15504W        W87929  23.234   3.799   0.391
15505W        W87930   9.686  34.644   3.817
15506W        W87931  22.527  17.097  12.471
15507W        W87932  25.533  13.593   2.162
15508W        W87933  16.215  36.450   2.604
15509W        W87934  42.237  32.153   3.559
15510W        W87935  33.080  19.095   0.109
15511W        W87936  39.229  34.364   2.840
15512W        W87937  32.539   3.979  12.862
15513W        W87938  39.829  43.273   4.027
15514W        W87939  35.112  25.921  14.943
15515W        W87940  20.442  36.485   3.142
15516W        W87941  33.684  40.416   2.630
15517W        W87942  35.914  37.711  13.622
15518W        W87943  43.221  25.607  13.863
15519W        W87944  32.331  25.164   0.038
15520W        W87945   1.292  44.299  12.836
15521W        W87946  15.918  32.052  10.157
15522W        W87947  25.121  22.820  11.985
15523W        W87948  34.596   0.247   3.890
15524W        W87949  42.043  38.071   4.102
15525W        W87950   6.902  20.005  12.519
15526W        W87951  14.779   7.425  12.613
15527W        W87952  21.903  34.841  12.554
15528W        W87953  36.320  36.115   0.700
15529W        W87954  36.431  43.286  12.566
15530W        W87955  38.014   4.599   1.156
15531W        W87956  24.254  35.027   2.166
15532W        W87957   1.363  33.455  14.966
15533W        W87958  26.982  37.591  12.597
15534W        W87959  44.981  35.903   2.863
15535W        W87960  32.961  39.344  14.463
15536W        W87961   1.843  10.901   2.893
15537W        W87962  22.461  39.347  13.816
15538W        W87963  11.399  27.464  14.846
15539W        W87964   1.626  44.337   1.362
15540W        W87965  12.244  41.412   2.738
15541W        W87966  31.879  11.293  14.384
15542W        W87967  12.774   8.344  12.135
15543W        W87968  10.284  30.382  10.929
15544W        W87969  44.360   4.412   4.341
15545W        W87970  17.381  34.005  14.613
15546W        W87971  19.166   9.298  11.629
15547W        W87972  43.554  41.637   2.443
15548W        W87973  21.347  17.116  13.879
15549W        W87974   7.023   1.296  11.084
15550W        W87975  26.681  28.161  10.536
15551W        W87976  10.636  34.845   9.653
15552W        W87977  14.839  44.022   3.131
15553W        W87978  41.733  33.504  13.832
15554W        W87979  24.125  16.023  10.616
15555W        W87980  34.672  12.922   1.781
15556W        W87981  30.449  44.237   4.380
15557W        W87982   7.131  16.205   3.230
15558W        W87983  27.580  22.590   5.012
15559W        W87984  39.185  31.613   2.350
15560W        W87985  35.022  43.253   3.820
15561W        W87986  23.164  39.081   2.655
15562W        W87987  41.365  15.040  13.069
15563W        W87988  21.244   5.244   4.514
15564W        W87989  36.361  21.364  14.203
15565W        W87990   1.613  31.421  14.261
15566W        W87991  43.420  15.323  14.437
15567W        W87992  35.893  22.610  13.579
15568W        W87993   2.299  18.775  14.466
15569W        W87994  22.035  14.235  11.982
15570W        W87995  10.969  11.904  12.017
15571W        W87996   7.409  31.648  11.159
15572W        W87997  40.938  20.287   5.418
15573W        W87998  41.415  30.392  12.073
15574W        W87999  12.345  14.050   2.350
15575W        W88000  31.575  29.677   0.309
15576W        W88001  20.086  20.061   3.709
15577W        W88002  28.015  29.081   4.065
15578W        W88003  15.775  16.034   3.185
15579W        W88004  19.616  27.118   1.278
15580W        W88005   0.506  41.991   2.010
15581W        W88006  18.728  32.404   3.228
15582W        W88007  15.105   7.459  13.428
15583W        W88008  24.169  41.450  13.838
15584W        W88009  16.214  13.923  13.534
15585W        W88010  37.622  25.485   5.164
15586W        W88011  37.605  43.403   0.307
15587W        W88012   3.783  39.862   0.358
15588W        W88013  36.566  20.760   0.877
15589W        W88014  31.617  24.597  14.960
15590W        W88015  20.969  29.692   2.298
15591W        W88016  11.034  38.827  10.514
15592W        W88017   7.670  23.661  13.797
15593W        W88018  21.265  16.230  14.088
15594W        W88019  30.986  35.878   0.427
15595W        W88020  43.998  27.956  13.795
15596W        W88021  38.876  44.456   3.254
15597W        W88022  10.423  27.961  13.789
15598W        W88023  29.736   0.569   3.132
15599W        W88024  12.671   0.201  11.614
15600W        W88025  17.918  28.841   3.721
15601W        W88026  44.608  43.546   1.343
15602W        W88027  18.498  44.354   3.265
15603W        W88028   7.923  12.237  14.124
15604W        W88029   8.607  28.005   0.681
15605W        W88030  35.987  39.279  12.927
15606W        W88031   5.108  14.146   4.540
15607W        W88032   3.980  44.655   3.151
15608W        W88033   4.815  28.503  14.746
15609W        W88034   4.850  38.477   0.513
15610W        W88035  28.950   8.052   2.148
15611W        W88036  39.271  14.116  14.910
15612W        W88037   0.954   2.001  10.279
15613W        W88038  33.960  39.806   3.756
15614W        W88039  21.558   6.427  12.995
15615W        W88040  24.029  35.500  14.465
15616W        W88041  26.682  34.525  12.152
15617W        W88042  11.315  28.900  11.435
15618W        W88043   6.336  16.008   2.607
15619W        W88044  13.360   0.504   3.819
15620W        W88045  23.978  22.484  14.108
15621W        W88046  31.417   2.302   2.434
15622W        W88047  15.708  36.824  13.500
15623W        W88048   1.302  44.062  11.187
15624W        W88049  23.376   9.462   5.496
15625W        W88050  31.507  15.386  11.676
15626W        W88051  21.949  29.176   1.072
15627W        W88052  15.359  28.356  11.561
15628W        W88053  30.088  25.681   4.391
15629W        W88054   7.847  44.672   2.678
15630W        W88055  21.984  18.559   4.173
15631W        W88056   4.240  42.785   4.210
15632W        W88057  33.655  24.996   1.539
15633W        W88058  27.580  14.278   2.685
15634W        W88059  18.396  24.619  12.113
15635W        W88060   5.368  31.011  12.177
15636W        W88061  37.262  43.461  11.238
15637W        W88062   5.493   9.728  13.970
15638W        W88063  35.852  24.594   3.099
15639W        W88064  18.177  30.885   4.081
15640W        W88065  21.254   4.757  12.461
15641W        W88066  26.614  10.280   0.486
15642W        W88067   2.944  16.274  14.206
15643W        W88068  40.763  41.855   4.014
15644W        W88069  41.945  20.727  12.989
15645W        W88070  16.172  16.044   1.842
15646W        W88071  34.490   7.169   3.812
15647W        W88072  23.453   5.434  12.416
15648W        W88073  42.502   6.799  10.861
15649W        W88074   8.162  35.676   2.305
15650W        W88075  19.516  29.609  13.426
15651W        W88076  34.515  35.365   4.121
15652W        W88077  18.714  16.355   4.691
15653W        W88078   6.636  22.602   2.692
15654W        W88079  32.642  42.371   2.534
15655W        W88080  19.845  22.629  11.673
15656W        W88081  30.505  17.144   4.047
15657W        W88082  44.778   6.858   2.493
15658W        W88083  41.802   7.465  10.751
15659W        W88084  29.105   9.335  12.436
15660W        W88085  16.272  20.145   2.270
15661W        W88086   8.687  36.034   3.617
15662W        W88087  29.466  21.188   4.422
15663W        W88088   5.714   2.839   3.651
15664W        W88089  38.752   7.662  11.536
15665W        W88090  39.795  38.988   0.783
15666W        W88091  26.422   3.309  11.400
15667W        W88092  38.486  22.410   1.725
15668W        W88093  33.544   5.324   1.832
15669W        W88094  27.677   5.770  10.887
15670W        W88095  10.243  16.183   1.790
15671W        W88096  36.046  24.093  10.776
15672W        W88097   4.962   2.011  12.606
15673W        W88098  20.604  38.035   2.191
15674W        W88099  20.475  12.408  12.808
15675W        W88100  11.105  31.716  14.355
15676W        W88101  13.696  39.966   1.207
15677W        W88102  12.101  20.452   2.371
15678W        W88103  27.884  25.177  13.351
15679W        W88104  44.281  21.132   0.236
15680W        W88105  31.031   9.816   1.616
15681W        W88106  42.749  34.161   2.335
15682W        W88107  29.466  41.824  14.464
15683W        W88108  35.871  30.896  11.547
15684W        W88109  23.335  42.245  14.753
15685W        W88110  35.628   8.867   4.086
15686W        W88111  33.511  28.160   4.306
15687W        W88112  20.762  11.171   5.370
15688W        W88113  38.916  23.504  11.176
15689W        W88114  38.501  34.039   3.989
15690W        W88115  32.032   1.278   2.235
15691W        W88116  15.308  38.929  13.011
15692W        W88117  39.257   7.349   1.368
15693W        W88118  26.220   1.682   0.373
15694W        W88119  17.370  23.002  13.287
15695W        W88120  40.827  21.059  10.640
15696W        W88121  16.733  37.014  14.377
15697W        W88122  17.762  37.391  12.977
15698W        W88123   8.897  40.870  12.502
15699W        W88124  29.640  33.985   0.179
15700W        W88125  21.586  44.449  14.403
15701W        W88126  12.801   8.252  11.615
15702W        W88127   2.265  28.501   1.045
15703W        W88128  41.962  15.697   4.554
15704W        W88129   6.472  38.869   2.779
15705W        W88130  16.312   6.222  12.975
15706W        W88131  27.528  32.586   3.355
15707W        W88132  23.919  12.655  11.027
15708W        W88133  31.198   7.063   2.762
15709W        W88134  13.920   7.867   3.212
15710W        W88135  39.244   6.955   2.671
15711W        W88136   4.670   8.156  14.840
15712W        W88137   9.693  37.455   2.206
15713W        W88138  23.547  25.416   3.600
15714W        W88139  10.162  43.507   2.320
15715W        W88140  44.458  28.440  14.229
15716W        W88141  32.291   6.257  14.807
15717W        W88142  35.008  35.511  13.270
15718W        W88143  31.745  15.334  10.627
15719W        W88144   1.686  40.715  11.977
15720W        W88145  42.344  13.122   4.615
15721W        W88146  44.583  33.926   4.490
15722W        W88147  33.966  10.207   4.581
15723W        W88148  10.708   2.779   4.855
15724W        W88149  18.454  26.595   5.050
15725W        W88150  28.408  35.298  11.723
15726W        W88151  30.902  33.849   1.480
15727W        W88152  28.962  25.137   0.270
15728W        W88153  17.771  32.482  13.424
15729W        W88154  26.995   7.320  11.857
15730W        W88155  22.111   6.720   3.225
15731W        W88156  30.111   0.711   4.250
15732W        W88157  30.625   8.576   1.783
15733W        W88158  33.855  14.726   2.705
15734W        W88159  26.466  25.262   4.529
15735W        W88160   7.222  36.456  13.280
15736W        W88161   8.397  11.878  11.987
15737W        W88162  36.887  30.931  14.586
15738W        W88163  43.015   7.524  14.973
15739W        W88164  24.584  10.355   1.309
15740W        W88165  21.923  18.231   0.852
15741W        W88166   3.009  26.558  12.990
15742W        W88167   5.264  40.077  12.456
15743W        W88168  42.406  21.685  14.293
15744W        W88169  23.130  37.786   3.161
15745W        W88170  33.073  29.913  10.775
15746W        W88171   0.719   7.809  11.503
15747W        W88172   0.891   9.883   4.633
15748W        W88173  15.174  14.772   1.298
15749W        W88174  42.166  44.538   4.208
15750W        W88175  37.855  22.244   2.641
15751W        W88176   1.867  28.138   4.054
15752W        W88177  37.579   3.741  14.886
15753W        W88178  24.484  41.962   0.951
15754W        W88179   0.070  25.871   4.229
15755W        W88180  39.838   4.701   1.883
15756W        W88181   2.365  34.096  13.054
15757W        W88182   2.178  43.414   4.417
15758W        W88183  26.632  12.152  14.338
15759W        W88184   9.598   5.946  12.100
15760W        W88185  41.931  25.185  14.010
15761W        W88186  39.477  34.990   4.842
15762W        W88187  31.149  15.182  14.468
15763W        W88188  35.439  30.655   1.942
15764W        W88189  10.774  44.730  11.000
15765W        W88190  25.099  39.776   1.410
15766W        W88191   3.088  17.337   2.864
15767W        W88192   4.748  30.466  11.111
15768W        W88193  31.873  24.598   4.097
15769W        W88194  22.766  30.528   3.297
15770W        W88195  18.040  26.628  11.024
15771W        W88196  35.342  23.924   4.114
15772W        W88197  20.107  43.362  10.543
15773W        W88198  20.698  33.844   1.912
15774W        W88199   2.441  44.446  12.445
15775W        W88200  14.276  31.966   1.302
15776W        W88201  24.407  14.409   5.255
15777W        W88202  31.277  41.729   3.771
15778W        W88203   8.909  11.409   2.220
15779W        W88204  28.682  14.211   3.173
15780W        W88205  16.394  43.395   4.618
15781W        W88206  31.961  42.288  14.925
15782W        W88207  30.861  19.819   3.737
15783W        W88208  17.487   7.659  12.082
15784W        W88209  41.065  12.882   0.483
15785W        W88210  33.012  43.905   1.941
15786W        W88211   6.924  13.162   2.234
15787W        W88212  10.770  13.755  13.375
15788W        W88213   1.390  31.327  12.002
15789W        W88214  36.501   8.609  14.468
15790W        W88215  10.923  29.691  10.631
15791W        W88216   1.383  27.540   0.975
15792W        W88217   9.549  28.954  12.796
15793W        W88218  31.713  40.145   2.637
15794W        W88219  28.917   1.768  10.719
15795W        W88220   4.725  41.506   3.590
15796W        W88221   5.054  38.603   3.657
15797W        W88222  22.102  18.009   3.370
15798W        W88223  18.731  24.476  12.547
15799W        W88224  42.856  15.714  12.925
15800W        W88225  21.597  16.314  11.320
15801W        W88226  11.281  43.276   2.700
15802W        W88227   8.242  27.836   1.899
15803W        W88228  13.284   7.833   3.735
15804W        W88229  28.892  15.832  13.034
15805W        W88230  27.460  44.866  11.212
15806W        W88231  12.605  34.425  10.480
15807W        W88232  41.554   5.349  10.693
15808W        W88233  15.709  29.270   2.620
15809W        W88234  22.957  40.448  10.675
15810W        W88235  36.349  36.033  12.434
15811W        W88236   7.021  13.326  12.472
15812W        W88237  12.417  33.229   3.226
15813W        W88238  15.120  25.103   1.136
15814W        W88239  25.352  26.650  11.397
15815W        W88240  38.040   7.302   1.717
15816W        W88241  18.831  42.671   4.546
15817W        W88242  13.162  43.821   4.563
15818W        W88243  28.527  24.166   0.435
15819W        W88244  15.901  14.278   0.363
15820W        W88245  27.232   4.228   4.876
15821W        W88246  26.927   7.182  11.044
15822W        W88247   4.397  13.193   0.491
15823W        W88248  43.894  22.480   3.861
15824W        W88249  44.917  21.607   2.834
15825W        W88250  20.991  17.730   1.380
15826W        W88251  40.113  12.270   2.275
15827W        W88252  36.379  13.657   1.317
15828W        W88253   9.906  42.971   2.754
15829W        W88254  23.712   4.013   3.366
15830W        W88255  12.887  15.293  11.724
15831W        W88256  34.299   9.855   2.288
15832W        W88257   9.644  29.866   1.033
15833W        W88258  31.974  43.975   4.043
15834W        W88259  14.157  32.321   0.362
15835W        W88260  21.817   6.767   0.921
15836W        W88261  18.553  23.863   1.626
15837W        W88262  15.524  36.140  12.089
15838W        W88263   3.688  20.779   0.816
15839W        W88264  12.330   6.156   2.356
15840W        W88265  29.762  12.382  12.208
15841W        W88266  13.925  15.132   4.457
15842W        W88267  26.505  19.539  10.700
15843W        W88268  40.165  17.865   1.852
15844W        W88269  44.899  28.893  14.751
15845W        W88270  38.966   0.886  10.162
15846W        W88271  11.638  37.344  13.825
15847W        W88272  35.257  38.258  13.571
15848W        W88273  35.185  32.822   2.609
15849W        W88274   6.362   7.183  11.962
15850W        W88275  36.532  18.203  10.439
15851W        W88276  16.145  35.321  13.004
15852W        W88277  31.888   4.411  11.340
15853W        W88278  13.341  36.620   0.925
15854W        W88279  41.055  40.645   4.766
15855W        W88280  25.586   1.212  11.132
15856W        W88281  23.295   0.257   0.369
15857W        W88282   2.991   1.311   4.745
15858W        W88283   4.840  29.515  10.935
15859W        W88284   3.535  12.975  13.423
15860W        W88285  12.586  12.746  13.516
15861W        W88286  33.373   1.806  11.478
15862W        W88287  41.492  33.515  12.332
15863W        W88288   4.722  15.849   4.610
15864W        W88289   0.184  18.612   1.647
15865W        W88290   0.458  40.819  13.878
15866W        W88291  37.871  31.307   1.851
15867W        W88292   2.231  36.616   0.850
15868W        W88293   7.880  16.177   1.860
15869W        W88294  42.842  15.578  10.588
15870W        W88295   2.463  39.989  11.131
15871W        W88296   8.719  14.199   0.567
15872W        W88297   2.504  34.355  14.025
15873W        W88298   7.190  23.500  11.904
15874W        W88299  32.360  32.483  14.812
15875W        W88300  36.328  28.423  10.550
15876W        W88301  16.541  38.280  12.296
15877W        W88302  24.077   5.097   4.643
15878W        W88303  30.211  15.526  14.040
15879W        W88304  43.689  10.322   0.952
15880W        W88305   2.288  17.445  11.793
15881W        W88306  41.995  16.372  12.501
15882W        W88307   5.107  28.698   3.797
15883W        W88308  23.773  31.224   1.876
15884W        W88309  35.456  36.348   2.767
15885W        W88310  23.597  44.797   0.550
15886W        W88311  33.856  41.536  11.971
15887W        W88312   6.546  22.031   0.699
15888W        W88313  24.238  20.228  11.565
15889W        W88314   5.777  19.524  10.697
15890W        W88315  28.092   5.870  12.469
15891W        W88316  25.021   1.165  11.974
15892W        W88317  27.396  14.735   3.387
15893W        W88318  37.568  44.050  12.570
15894W        W88319  21.383  13.049  11.714
15895W        W88320  40.409  29.426  11.452
15896W        W88321  41.353  18.538  12.049
15897W        W88322  25.184   0.396  14.531
15898W        W88323  14.711  40.976  14.720
15899W        W88324   9.948  42.828   0.969
15900W        W88325  30.245   0.855   1.307
15901W        W88326  15.156   9.643   1.227
15902W        W88327  23.920   9.433  10.438
15903W        W88328   0.236   6.253  11.859
15904W        W88329  23.859  26.029  14.440
15905W        W88330  16.496   4.961   0.753
15906W        W88331  31.032   6.963  13.992
15907W        W88332  38.879  29.906  12.762
15908W        W88333   6.252  36.108  12.503
15909W        W88334  30.188  25.970   4.817
15910W        W88335   6.998  16.440  12.974
15911W        W88336  36.254   8.472   0.354
15912W        W88337  30.553  12.812   1.370
15913W        W88338  32.192  31.640  13.931
15914W        W88339  18.081  27.477   0.686
15915W        W88340  35.441  23.052  10.635
15916W        W88341  28.467  38.797   1.025
15917W        W88342  43.376  23.749  11.477
15918W        W88343   6.229  13.777  12.471
15919W        W88344  29.603  18.511   0.211
15920W        W88345   4.171  44.492   1.331
15921W        W88346  33.896   6.515  10.705
15922W        W88347  29.696  28.529  13.004
15923W        W88348  18.727   1.742  11.766
15924W        W88349  15.047   8.885   4.601
15925W        W88350  42.880  20.137   2.847
15926W        W88351  21.220  26.865  11.866
15927W        W88352  26.184  42.555   0.331
15928W        W88353  32.469  30.131  11.408
15929W        W88354   5.551  20.783  13.238
15930W        W88355   9.122  41.341  14.167
15931W        W88356  10.294   2.146   0.212
15932W        W88357  10.340  16.576   2.133
15933W        W88358  27.768   8.086  11.083
15934W        W88359  17.210   4.993  14.974
15935W        W88360   5.502  41.747   2.199
15936W        W88361  24.459  10.278  13.364
15937W        W88362  33.712  12.287  13.097
15938W        W88363  25.448  36.433  12.512
15939W        W88364  36.086   2.870  14.613
15940W        W88365  24.162  12.906  13.054
15941W        W88366  32.537   7.713  12.260
15942W        W88367  44.899  15.585  13.661
15943W        W88368  12.678  25.214  13.783
15944W        W88369  30.871  11.747   3.059
15945W        W88370  26.209  28.100  14.825
15946W        W88371  44.720  25.444   4.177
15947W        W88372  14.705  16.174  14.019
15948W        W88373  35.233  25.571  12.524
15949W        W88374  16.842  21.225   1.867
15950W        W88375   8.231  30.566   2.841
15951W        W88376  28.671  39.052  13.120
15952W        W88377   4.400  12.770  13.333
15953W        W88378  17.646   1.383   2.728
15954W        W88379   3.869   6.867  14.653
15955W        W88380  42.593   4.155   0.145
15956W        W88381  12.615  17.370  11.060
15957W        W88382  32.484  17.079  12.417
15958W        W88383  24.267   8.145  14.761
15959W        W88384   7.890  16.202  10.587
15960W        W88385  16.137   2.435   2.061
15961W        W88386  25.225   5.378  11.110
15962W        W88387  18.358  40.764   3.268
15963W        W88388  11.250  35.031   4.736
15964W        W88389  28.404  27.385   2.420
15965W        W88390   4.740  27.727  13.037
15966W        W88391  27.687   7.901   0.424
15967W        W88392  18.547  10.973   4.257
15968W        W88393  17.454  21.253   3.609
15969W        W88394  19.330  29.304   3.772
15970W        W88395  12.808  11.386   0.834
15971W        W88396  30.420  38.081  13.376
15972W        W88397  14.157  22.349   3.583
15973W        W88398  24.345  24.040   4.174
15974W        W88399  11.369  39.462   0.991
15975W        W88400  26.590  18.068   3.884
15976W        W88401   9.278  11.731  10.557
15977W        W88402   9.726  13.180   4.516
15978W        W88403  19.703   1.318   4.138
15979W        W88404  30.659  14.247   3.639
15980W        W88405  19.222  44.839   2.705
15981W        W88406  23.745   2.580  11.182
15982W        W88407  23.186  26.891   2.516
15983W        W88408   2.358  14.865   4.171
15984W        W88409  34.944  25.732  12.937
15985W        W88410  21.869  17.944   1.282
15986W        W88411  34.068   4.415  14.344
15987W        W88412  25.239  34.076  11.102
15988W        W88413  25.941  16.816   0.831
15989W        W88414  22.004  14.341  12.907
15990W        W88415  10.893  41.998   2.756
15991W        W88416  13.195  35.594  14.826
15992W        W88417  15.575  28.395   2.639
15993W        W88418  12.585  13.317   4.849
15994W        W88419  40.215  39.348   3.811
15995W        W88420  31.931  36.470  10.780
15996W        W88421   6.492  42.303  12.872
15997W        W88422  36.216  35.124   4.947
15998W        W88423   7.279  22.763  14.500
15999W        W88424  22.025  14.262   2.192
16000W        W88425  13.400  18.143  14.706
16001W        W88426   6.391   5.772  12.045
16002W        W88427  25.033  26.251   1.375
16003W        W88428  11.224  18.519  14.618
16004W        W88429  32.035  25.185  12.924
16005W        W88430  12.270  32.514  10.703
16006W        W88431  25.581  37.536  10.726
16007W        W88432  12.350   1.750   4.177
16008W        W88433  18.502  15.627   2.138
16009W        W88434  10.943   5.238  11.578
16010W        W88435  36.076   3.964   0.493
16011W        W88436  16.070  22.408   0.705
16012W        W88437  17.501  10.270   0.936
16013W        W88438  22.935  44.281   4.760
16014W        W88439  26.132  35.856  14.460
16015W        W88440  32.495   2.372  13.958
16016W        W88441  13.763   5.432   4.435
16017W        W88442   1.515   3.284   2.745
16018W        W88443  33.349  34.074   0.555
16019W        W88444  17.236  38.058  12.023
16020W        W88445  32.114   4.061   3.286
16021W        W88446   5.113  43.711  14.967
16022W        W88447  23.799  29.494   4.201
16023W        W88448  40.316  11.372  14.631
16024W        W88449  35.892  31.878   3.045
16025W        W88450   5.904  36.352   3.052
16026W        W88451  37.524   2.880   0.736
16027W        W88452  44.420  30.131   4.333
16028W        W88453  11.851  11.101   2.317
16029W        W88454  20.069  29.990  11.980
16030W        W88455  44.701  22.023   1.294
16031W        W88456   3.586  12.028  13.403
16032W        W88457  37.798  37.416   1.259
16033W        W88458  17.169  17.563   1.841
16034W        W88459  31.184   8.559  14.803
16035W        W88460  15.350  19.545  11.206
16036W        W88461  10.611  44.941   4.714
16037W        W88462  35.435  28.900  11.452
16038W        W88463  14.643  27.157  12.712
16039W        W88464   0.722  12.129   0.530
16040W        W88465  19.487  22.807  14.324
16041W        W88466   9.320  28.201  10.848
16042W        W88467   1.992  21.567  11.642
16043W        W88468  26.237   0.526  12.398
16044W        W88469  37.913  17.233   1.023
16045W        W88470  35.860  43.011  14.863
16046W        W88471  11.788   8.641   4.575
16047W        W88472  17.181  11.588   3.199
16048W        W88473  42.396  44.420  12.249
16049W        W88474  44.331   0.270   1.427
16050W        W88475  17.571   3.964  14.302
16051W        W88476  32.104  16.508  13.128
16052W        W88477  38.696  35.058  13.178
16053W        W88478   5.727  16.505   3.688
16054W        W88479  13.134  37.403   0.386
16055W        W88480  20.317  30.628   1.384
16056W        W88481  34.143  17.255   3.657
16057W        W88482   7.136  40.450   1.462
16058W        W88483  19.093  27.183  11.664
16059W        W88484  20.741   2.265  11.564
16060W        W88485  19.266  33.465  13.169
16061W        W88486   5.352  18.750  13.559
16062W        W88487  25.819  26.214  11.500
16063W        W88488  10.175   2.948   1.450
16064W        W88489  32.918  30.122   4.153
16065W        W88490  38.766   6.952   4.237
16066W        W88491  35.667  25.707   2.991
16067W        W88492  42.614   3.805   1.808
16068W        W88493  25.277  28.426   3.804
16069W        W88494  16.945  23.845   0.283
16070W        W88495   7.868  40.798   4.515
16071W        W88496  35.631  28.361   0.397
16072W        W88497  16.072  18.180   3.731
16073W        W88498  43.683  15.069  10.633
16074W        W88499   9.871  44.417  11.613
16075W        W88500  29.917  17.637  12.386
16076W        W88501  17.288  34.841   5.076
16077W        W88502  36.377  39.300   3.332
16078W        W88503  19.077   6.233   1.905
16079W        W88504  12.926  20.261  13.830
16080W        W88505  12.706   0.389   2.638
16081W        W88506  26.458  23.597   4.750
16082W        W88507  28.181   6.238  12.097
16083W        W88508   7.850  17.342  12.077
16084W        W88509  17.283  39.966   3.944
16085W        W88510  41.228  22.196  12.779
16086W        W88511  17.109  23.327   1.186
16087W        W88512  16.971  21.173   0.239
16088W        W88513  23.174  37.946  10.806
16089W        W88514   1.366  13.056   1.380
16090W        W88515  44.497  35.107   9.930
16091W        W88516  13.342   8.048  14.270
16092W        W88517   0.538   1.558  11.282
16093W        W88518  39.082  36.805  12.350
16094W        W88519  40.891  13.064  12.923
16095W        W88520  34.621  18.826  12.088
16096W        W88521  27.585  14.665   1.935
16097W        W88522  32.744   9.716  13.423
16098W        W88523   3.012   5.492   2.586
16099W        W88524  41.869  36.166  14.984
16100W        W88525  39.045   5.742  12.277
16101W        W88526  39.362  38.302  14.342
16102W        W88527  38.018  33.875   2.856
16103W        W88528  23.238  11.773  11.436
16104W        W88529   9.775  33.349  14.300
16105W        W88530  43.510  10.619  14.323
16106W        W88531  11.064  25.604   1.062
16107W        W88532  16.415   2.753   3.752
16108W        W88533  12.822  20.228   4.552
16109W        W88534  37.522   7.685   4.486
16110W        W88535  23.629  27.721  14.787
16111W        W88536  42.996  12.694  13.418
16112W        W88537   2.087  10.640  12.863
16113W        W88538  34.723  23.504   1.384
16114W        W88539  40.038  16.456  11.163
16115W        W88540  30.901  15.774   4.069
16116W        W88541  41.385  13.172  12.899
16117W        W88542  32.093   4.799   2.840
16118W        W88543  22.808  26.092   1.291
16119W        W88544  15.701  17.997   4.043
16120W        W88545  18.847  17.134   0.247
16121W        W88546  16.605  38.038   0.445
16122W        W88547  19.128   2.853   4.588
16123W        W88548  31.472   6.645  10.739
16124W        W88549  26.727   3.848   0.768
16125W        W88550  44.829   0.535   1.403
16126W        W88551  23.169  26.490  11.594
16127W        W88552  38.619  28.555   3.223
16128W        W88553  22.758  34.329  12.525
16129W        W88554  25.402   6.147   0.992
16130W        W88555  12.460  11.810  12.101
16131W        W88556  21.576   9.615  14.074
16132W        W88557  27.234  27.300  10.763
16133W        W88558  21.781  35.025  14.477
16134W        W88559  30.849  21.157  14.942
16135W        W88560   4.901  39.519  11.110
16136W        W88561  19.053   3.920  12.839
16137W        W88562  22.498  34.061  13.990
16138W        W88563   3.513   4.352  14.807
16139W        W88564   1.993  13.293  12.294
16140W        W88565  33.696  25.443  10.715
16141W        W88566  21.474   2.025  13.515
16142W        W88567  39.746  16.002  10.907
16143W        W88568  40.735  43.807  10.724
16144W        W88569  40.344  17.524  11.943
16145W        W88570  27.217   3.897   1.891
16146W        W88571  20.070  40.611   3.693
16147W        W88572  42.773  33.514  11.607
16148W        W88573  14.273  17.050   1.467
16149W        W88574  14.206  26.553   1.938
16150W        W88575  12.590  38.872   0.717
16151W        W88576  13.173  11.684  11.596
16152W        W88577  42.156  20.159   2.349
16153W        W88578  35.622   2.932   4.318
16154W        W88579   3.227  21.388   1.362
16155W        W88580  23.372  23.031   4.895
16156W        W88581  24.102  13.626   4.098
16157W        W88582   4.964  39.098   2.429
16158W        W88583  41.142  33.434   0.238
16159W        W88584  10.197   9.203  12.898
16160W        W88585  16.106  37.402   2.600
16161W        W88586  18.103  15.501  11.603
16162W        W88587  15.406  31.893  10.274
16163W        W88588  20.046  14.184  13.060
16164W        W88589  22.307   0.216   4.280
16165W        W88590  12.755   4.169   3.109
16166W        W88591  20.927  31.094  12.558
16167W        W88592  39.258  15.770  12.691
16168W        W88593  14.844   7.187  13.059
16169W        W88594  10.588  28.864  14.837
16170W        W88595   9.384  20.197  12.518
16171W        W88596  35.075  33.799   2.774
16172W        W88597   2.488  44.335  12.946
16173W        W88598  28.453  40.549   3.420
16174W        W88599  39.085  27.409   2.786
16175W        W88600   7.791   1.890  11.017
16176W        W88601  44.705  40.052   3.791
16177W        W88602   4.377  36.859   1.331
16178W        W88603   9.395  44.544  10.895
16179W        W88604  22.145  39.878   2.901
16180W        W88605   6.366  37.311   2.696
16181W        W88606  34.954  28.939   0.418
16182W        W88607   4.716  27.276  10.853
16183W        W88608  42.890  25.161  13.345
16184W        W88609  16.670  17.503  12.583
16185W        W88610  20.551  33.100   3.161
16186W        W88611   2.436  44.406   0.807
16187W        W88612  27.168  25.132  13.845
16188W        W88613   1.059  11.346   3.002
16189W        W88614  29.721  28.681  11.510
16190W        W88615  44.870   5.813   1.041
16191W        W88616  13.886  21.824  13.065
16192W        W88617  38.984  27.309   3.629
16193W        W88618   0.735  16.426  10.682
16194W        W88619  10.600  21.066   2.901
16195W        W88620  28.687  31.679  12.163
16196W        W88621  37.126  13.124   1.374
16197W        W88622  25.479   0.061  12.605
16198W        W88623   0.386   5.228  11.906
16199W        W88624  30.282  18.023  11.579
16200W        W88625   6.952  33.411  11.603
16201W        W88626  40.413  23.944   3.220
16202W        W88627  44.520  41.982   0.403
16203W        W88628  40.972   8.085   2.306
16204W        W88629   0.597  27.164   3.124
16205W        W88630  11.906  32.108  10.732
16206W        W88631  29.178   6.896   3.252
16207W        W88632  34.635  34.175   3.361
16208W        W88633   3.810  35.588  12.451
16209W        W88634  36.910  26.777  12.971
16210W        W88635  21.556   4.887  11.559
16211W        W88636   6.803  10.430   0.528
16212W        W88637  26.305  27.258   1.814
16213W        W88638   6.697  21.685   2.960
16214W        W88639   0.209  16.313   3.224
16215W        W88640  26.457  22.532  11.222
16216W        W88641  14.230   5.862   0.989
16217W        W88642   0.843  29.674  12.369
16218W        W88643  37.956   2.769  10.470
16219W        W88644  11.083  22.625  10.419
16220W        W88645  33.216  33.838   4.086
16221W        W88646  36.746  15.710   3.182
16222W        W88647  39.398  14.600   3.818
16223W        W88648  42.644   6.579  14.977
16224W        W88649  36.903  25.142   3.632
16225W        W88650  35.499  30.402   4.455
16226W        W88651  26.288  32.516   3.349
16227W        W88652  42.088  32.928  11.187
16228W        W88653  34.393   3.729   1.753
16229W        W88654  19.578  14.738  10.735
16230W        W88655  22.313  30.236   2.152
16231W        W88656   8.917   6.325  12.952
16232W        W88657  36.623  33.852  13.870
16233W        W88658   1.276  14.742  12.860
16234W        W88659  10.662   5.873  14.428
16235W        W88660   9.588  44.049   3.162
16236W        W88661  13.184  15.346   3.296
16237W        W88662  11.425  27.073   4.050
16238W        W88663   2.959  38.099   2.691
16239W        W88664  32.838  16.098  12.544
16240W        W88665  40.071  14.699  11.025
16241W        W88666  16.461  27.950   3.527
16242W        W88667  17.569  30.707  11.719
16243W        W88668  21.748  40.395  13.858
16244W        W88669  33.218  17.060  14.252
16245W        W88670   8.046  17.126  13.400
16246W        W88671  42.888   6.625   1.879
16247W        W88672   1.687   0.481  12.609
16248W        W88673   5.622  36.905   2.261
16249W        W88674  33.565  31.484   3.246
16250W        W88675  35.889  10.863  14.851
16251W        W88676  37.455   9.893   3.308
16252W        W88677   2.230   3.797  13.931
16253W        W88678   0.345  14.392  14.412
16254W        W88679  28.017  25.399   1.948
16255W        W88680   7.013  38.616  12.117
16256W        W88681  15.864  40.814  12.877
16257W        W88682   6.092  19.130  11.590
16258W        W88683  25.082  20.845  10.194
16259W        W88684  23.898  15.269   4.720
16260W        W88685  22.627   3.266  12.710
16261W        W88686  29.553  42.887  10.220
16262W        W88687   3.945  31.811  11.615
16263W        W88688  40.917  35.565  14.218
16264W        W88689  26.828  28.001  14.043
16265W        W88690  34.446  37.952   2.724
16266W        W88691  34.292  34.690  13.982
16267W        W88692  16.011  14.945  11.398
16268W        W88693  36.910  25.589   1.033
16269W        W88694  40.002   5.404  14.178
16270W        W88695   1.868   7.320  11.585
16271W        W88696  38.769  16.259   4.374
16272W        W88697  38.028  31.040   2.302
16273W        W88698  11.623  19.037   4.273
16274W        W88699  24.210  15.245   3.424
16275W        W88700  28.549   1.185  13.408
16276W        W88701   3.801  32.736   2.690
16277W        W88702   4.174  36.520   4.891
16278W        W88703  33.875  12.620   3.780
16279W        W88704  15.663  44.479   2.931
16280W        W88705  28.638   1.278   3.389
16281W        W88706  13.123  12.815   3.698
16282W        W88707  15.755  20.298   3.189
16283W        W88708   6.733  41.576   1.971
16284W        W88709  38.041  11.385   3.912
16285W        W88710  11.231   3.053  14.894
16286W        W88711  40.436  37.516   4.640
16287W        W88712   8.191   1.505  11.659
16288W        W88713  38.817  42.436   3.702
16289W        W88714  32.849   1.498  11.717
16290W        W88715  13.697  23.205   5.463
16291W        W88716   6.740   3.729   3.625
16292W        W88717  44.967  30.917  12.629
16293W        W88718   6.725  20.973  12.497
16294W        W88719   2.902  18.273   1.644
16295W        W88720   9.995  14.850   3.576
16296W        W88721   8.840   6.403   1.622
16297W        W88722  19.407  15.313   0.485
16298W        W88723  10.435  33.547   2.650
16299W        W88724  40.399  20.790   0.972
16300W        W88725  15.045  21.227  13.474
16301W        W88726  11.392  42.210  11.789
16302W        W88727  30.783  13.894  13.835
16303W        W88728  24.685  17.246   4.494
16304W        W88729  38.376  38.066  13.291
16305W        W88730   5.723  13.821   3.004
16306W        W88731  29.938  38.073  13.245
16307W        W88732   9.588  36.794   1.489
16308W        W88733  33.060  34.125  13.021
16309W        W88734  10.394  38.811   3.224
16310W        W88735  11.144   0.331   0.046
16311W        W88736  11.778   2.521  13.579
16312W        W88737  13.781   1.436   0.448
16313W        W88738  43.262   5.162   1.174
16314W        W88739  10.967  29.629  12.446
16315W        W88740  16.829  26.564  14.372
16316W        W88741  18.096  22.560   1.776
16317W        W88742   9.105   2.940   1.820
16318W        W88743  26.619   0.335   2.528
16319W        W88744  29.437  44.360  11.844
16320W        W88745  43.510  20.570  12.951
16321W        W88746   8.156   4.275  14.759
16322W        W88747  12.694  43.986  14.090
16323W        W88748  17.620  18.822  13.862
16324W        W88749   1.376  20.242  13.155
16325W        W88750   8.321  31.135   4.871
16326W        W88751   5.775  30.164  12.036
16327W        W88752  26.484   6.749  11.667
16328W        W88753  17.357  21.101   4.488
16329W        W88754  29.025  26.187   0.728
16330W        W88755  21.599  22.118   0.968
16331W        W88756  40.423  30.925  12.869
16332W        W88757  11.706  19.035  11.200
16333W        W88758  40.823  12.073  13.773
16334W        W88759  10.705   0.166  13.851
16335W        W88760  44.785   9.640   4.112
16336W        W88761  26.970  23.681   4.719
16337W        W88762  38.846  17.034  13.809
16338W        W88763  44.587  31.329   3.647
16339W        W88764  43.432  18.779   2.556
16340W        W88765   1.792   5.831  11.537
16341W        W88766  26.268   7.801   4.154
16342W        W88767  15.526  37.486  12.973
16343W        W88768  20.023  11.423  12.523
16344W        W88769   7.243   7.421   2.181
16345W        W88770  20.278  26.607  14.846
16346W        W88771  24.741  12.407   4.326
16347W        W88772  20.189  44.320   0.397
16348W        W88773  35.184   3.854   0.421
16349W        W88774  40.486  43.485   2.315
16350W        W88775  22.708  10.325  10.575
16351W        W88776   8.190  23.021  13.449
16352W        W88777   2.852  38.988   4.192
16353W        W88778  30.528  43.435   3.705
16354W        W88779  22.301  29.810  13.509
16355W        W88780  12.740   8.849  11.927
16356W        W88781  12.126  22.124   0.896
16357W        W88782  34.050  32.402  11.454
16358W        W88783   4.662  34.980   0.974
16359W        W88784  14.107  41.921  14.862
16360W        W88785  44.694  33.579   4.122
16361W        W88786   0.028  11.107   0.501
16362W        W88787  43.442   5.425  10.572
16363W        W88788   7.463  40.954   1.345
16364W        W88789  38.801   5.039  13.015
16365W        W88790   8.006   5.778  13.876
16366W        W88791  10.630  32.444  12.308
16367W        W88792  31.008  33.468   3.588
16368W        W88793  32.675   1.898   0.843
16369W        W88794  10.839  15.953  13.453
16370W        W88795   0.196  28.031  14.309
16371W        W88796  39.895  10.925   1.840
16372W        W88797  25.739  29.557  14.854
16373W        W88798  33.346  13.579   0.214
16374W        W88799  39.352  23.486  11.428
16375W        W88800  44.795   2.577  11.497
16376W        W88801  34.931   4.913  12.430
16377W        W88802  22.223  38.064  11.039
16378W        W88803  42.890   4.401   2.438
16379W        W88804  15.301  29.873  14.222
16380W        W88805  33.535  10.340  13.900
16381W        W88806  19.701  15.092   2.369
16382W        W88807  33.477  34.996   4.597
16383W        W88808   4.364  35.626  14.467
16384W        W88809  16.955  33.606   0.764
16385W        W88810  43.559  43.844   4.139
16386W        W88811   4.802  11.510  12.454
16387W        W88812   1.218  39.335  14.468
16388W        W88813  12.331   3.356   3.095
16389W        W88814  16.659  18.168   4.636
16390W        W88815  20.021  20.250  11.544
16391W        W88816  42.035  15.306   4.207
16392W        W88817  38.751  10.248   4.509
16393W        W88818  30.928   8.169   0.709
16394W        W88819  19.993  25.003  12.480
16395W        W88820  15.774  43.488  11.523
16396W        W88821  38.551  43.491  11.246
16397W        W88822  41.891  35.774   3.682
16398W        W88823  24.048   7.238   3.227
16399W        W88824  37.927  22.553  11.583
16400W        W88825  33.437  43.223   3.363
16401W        W88826   0.296   2.980   3.872
16402W        W88827  32.092  30.470   3.615
16403W        W88828  25.492  40.858   0.889
16404W        W88829  42.702   9.776  14.960
16405W        W88830  43.672  23.642   1.688
16406W        W88831  30.471  15.571   2.959
16407W        W88832  25.633   8.963  12.483
16408W        W88833  36.494  37.579   2.947
16409W        W88834  10.416  42.018  13.312
16410W        W88835  43.090  22.934   1.243
16411W        W88836  44.558  20.665  14.954
16412W        W88837  23.715   5.862  10.741
16413W        W88838  35.520  22.525  10.715
16414W        W88839  36.913  32.615   4.740
16415W        W88840   8.143   5.709  10.929
16416W        W88841  24.911  43.937  12.930
16417W        W88842  35.900  25.231  13.870
16418W        W88843  27.949   2.281   1.882
16419W        W88844  13.517  11.500  11.224
16420W        W88845  19.565   1.304  10.672
16421W        W88846  42.052   9.367  11.921
16422W        W88847   4.518  23.009   3.623
16423W        W88848  21.487  13.346   0.349
16424W        W88849   5.250   9.285   2.785
16425W        W88850  32.573  27.566  14.191
16426W        W88851  26.866  11.125  11.059
16427W        W88852   4.035  16.844  12.402
16428W        W88853  42.467  33.137  12.832
16429W        W88854   4.723  25.505   1.675
16430W        W88855   3.658  33.439   3.695
16431W        W88856   8.355   4.844  10.872
16432W        W88857  15.089   8.313  13.981
16433W        W88858  16.109   2.582   3.350
16434W        W88859  36.771   4.103  10.747
16435W        W88860  24.692   6.383   4.619
16436W        W88861   0.879  44.458  10.679
16437W        W88862   9.749  15.527   4.125
16438W        W88863  33.575   7.055  10.126
16439W        W88864  44.680  42.060  13.975
16440W        W88865  23.490  29.919  14.310
16441W        W88866  40.394  24.288  10.782
16442W        W88867  13.104  28.749  12.867
16443W        W88868   2.236   5.242   1.320
16444W        W88869  31.213  15.207   1.972
16445W        W88870  28.024  20.261   1.337
16446W        W88871  36.216  44.739  14.299
16447W        W88872  35.539   2.690  10.568
16448W        W88873  16.976  42.468  11.696
16449W        W88874  24.702   5.318  13.155
16450W        W88875  43.438  28.105  10.701
16451W        W88876   1.940   2.703   3.193
16452W        W88877  31.176   6.503  12.120
16453W        W88878   7.124   6.854  11.669
16454W        W88879  13.905   4.960   5.186
16455W        W88880  39.926  14.426   4.591
16456W        W88881  31.031  16.321   0.799
16457W        W88882  39.128  30.775   4.341
16458W        W88883  35.405  44.068  12.454
16459W        W88884   9.823  13.258  12.473
16460W        W88885   7.250  21.935  11.616
16461W        W88886  20.753  21.634   0.755
16462W        W88887  14.391  32.368  11.545
16463W        W88888  43.472   8.682  11.651
16464W        W88889  24.013   3.232  12.965
16465W        W88890  33.019  41.762  14.342
16466W        W88891  17.234  37.500   1.422
16467W        W88892  36.017   8.016   0.280
16468W        W88893  15.413   2.019  14.209
16469W        W88894  24.634  32.021  10.727
16470W        W88895   4.338  10.081  13.455
16471W        W88896  35.502  13.620   3.102
16472W        W88897  41.210  13.829  12.451
16473W        W88898  13.560  11.220   4.274
16474W        W88899  12.715   7.160  11.247
16475W        W88900  20.623  26.094  13.864
16476W        W88901  26.973  40.580   3.017
16477W        W88902  28.707  16.647   3.200
16478W        W88903  29.457   1.182  12.561
16479W        W88904  29.482  33.098  13.467
16480W        W88905  29.678  13.378  14.041
16481W        W88906   3.712  10.634  12.498
16482W        W88907  41.892  17.305  12.351
16483W        W88908  38.939   3.576   5.053
16484W        W88909  21.175   7.031   9.998
16485W        W88910  16.722  26.545   1.262
16486W        W88911  20.030  20.257   3.235
16487W        W88912   9.894   4.696   0.933
16488W        W88913   2.369  41.646   4.224
16489W        W88914  16.828   8.873  13.954
16490W        W88915  14.792  27.837   3.465
16491W        W88916  12.812  11.178  12.658
16492W        W88917  43.943  18.595  12.419
16493W        W88918   0.495  27.117  12.013
16494W        W88919  35.506  16.128   0.943
16495W        W88920  38.076   3.842  11.170
16496W        W88921   4.292  26.930  10.962
16497W        W88922  30.885  36.830  13.501
16498W        W88923  33.224  18.480   4.557
16499W        W88924  34.631   4.790   3.517
16500W        W88925  29.813  40.871   1.628
16501W        W88926   6.166  26.757  14.785
16502W        W88927  28.996  35.137   1.151
16503W        W88928   4.267  15.552   3.755
16504W        W88929  12.804   0.510   4.410
16505W        W88930   5.882   0.052   0.699
16506W        W88931  32.042  11.308   4.172
16507W        W88932  14.115   2.134   0.312
16508W        W88933  20.011  29.825  10.268
16509W        W88934  42.602  28.328  12.794
16510W        W88935  15.010  35.145  11.472
16511W        W88936  41.048  42.046   1.412
16512W        W88937  30.920  35.001  14.282
16513W        W88938  35.059  15.447   4.687
16514W        W88939  18.213   4.312  12.060
16515W        W88940  30.594  35.868   0.786
16516W        W88941   3.285  19.208   4.830
16517W        W88942   0.013  19.277  11.773
16518W        W88943  37.855  20.103  13.881
16519W        W88944  36.284  35.625   0.545
16520W        W88945  11.519   0.854   2.321
16521W        W88946   8.866  16.135  13.958
16522W        W88947  36.553  26.592  12.533
16523W        W88948  15.055  42.222   0.915
16524W        W88949  39.228  20.065  14.554
16525W        W88950   7.938  18.281   2.330
16526W        W88951   4.742  39.964   0.437
16527W        W88952   8.867  12.973  10.747
16528W        W88953  11.174   9.789  14.028
16529W        W88954  40.385  35.779   5.055
16530W        W88955   4.134  40.075   4.084
16531W        W88956  28.068   8.573   1.803
16532W        W88957  31.860  25.575  14.458
16533W        W88958  40.200  12.772  13.401
16534W        W88959  43.493  12.617   1.443
16535W        W88960   9.542  32.394   0.279
16536W        W88961  35.137  25.725   2.833
16537W        W88962  19.109  27.575   4.318
16538W        W88963  43.215  30.056   0.178
16539W        W88964   9.875  11.254  10.754
16540W        W88965   1.893  26.073  14.102
16541W        W88966   2.430  19.573   0.100
16542W        W88967   9.342  37.710   0.726
16543W        W88968  23.607  26.467  10.899
16544W        W88969  20.194  25.033  14.774
16545W        W88970  41.861   0.499  10.787
16546W        W88971  33.100  38.789   0.386
16547W        W88972  43.043   6.194   4.381
16548W        W88973  29.040  33.855   2.602
16549W        W88974   4.190  15.864   1.946
16550W        W88975   2.260  26.047   4.670
16551W        W88976   8.232  25.511   3.871
16552W        W88977   3.429  16.426  14.025
16553W        W88978   1.372  25.159   3.864
16554W        W88979   5.837   8.163  13.479
16555W        W88980  10.736   0.625  11.143
16556W        W88981  13.769  37.104   4.101
16557W        W88982   8.708  39.098  12.210
16558W        W88983  38.843  42.380  10.565
16559W        W88984  19.066  20.181  11.826
16560W        W88985  34.908  18.763   3.695
16561W        W88986  24.893  18.231  13.890
16562W        W88987   9.834  40.159   2.384
16563W        W88988  33.081   3.789  14.922
16564W        W88989  20.724  41.341  13.274
16565W        W88990  13.801   3.572   4.995
16566W        W88991  29.035  11.593   0.253
16567W        W88992  30.714   7.057   2.568
16568W        W88993  41.260   6.942  13.476
16569W        W88994  17.968  29.978   0.950
16570W        W88995  14.403   7.290  11.602
16571W        W88996   1.821  36.062  14.766
16572W        W88997   9.822  28.949   1.919
16573W        W88998   1.020  42.420   3.297
16574W        W88999  12.091  37.731   1.003
16575W        W89000  11.852  40.850  12.003
16576W        W89001  30.937   2.970  12.524
16577W        W89002  41.878  34.469  11.985
16578W        W89003  33.371  43.923  14.943
16579W        W89004   8.127   6.310   2.777
16580W        W89005  44.984  28.501  11.990
16581W        W89006  43.307  28.552   0.301
16582W        W89007  28.077   0.218  10.575
16583W        W89008  42.802  11.246  11.235
16584W        W89009   2.191   5.405   0.477
16585W        W89010  14.730  31.650   4.596
16586W        W89011  18.038  19.609  12.030
16587W        W89012  10.699  33.053   0.638
16588W        W89013  22.605  40.669  12.459
16589W        W89014  24.196  34.343  11.144
16590W        W89015  10.214  42.468  14.491
16591W        W89016  18.258  33.215   3.741
16592W        W89017  32.355   9.846   1.333
16593W        W89018  42.329  13.819  14.315
16594W        W89019  32.108  32.662  12.559
16595W        W89020  26.714  32.551   4.148
16596W        W89021  37.928   6.551  13.276
16597W        W89022  30.172   5.776  13.968
16598W        W89023  18.591   2.777   1.927
16599W        W89024  14.772  12.094  12.537
16600W        W89025  22.661  17.244   2.647
16601W        W89026  44.946  43.576   3.322
16602W        W89027   2.943  44.483   0.852
16603W        W89028   4.265  37.031  13.452
16604W        W89029  42.657  36.744  12.003
16605W        W89030   2.932  23.610  10.729
16606W        W89031  29.382  42.914   2.382
16607W        W89032  27.982  15.865  12.854
16608W        W89033  26.866  36.096   3.178
16609W        W89034  33.447  26.124  13.104
16610W        W89035  42.231  23.534   3.879
16611W        W89036  26.562  13.194   1.999
16612W        W89037  19.948  18.481  13.844
16613W        W89038   4.706  30.128  13.542
16614W        W89039  29.680  32.254   1.561
16615W        W89040  36.031  31.241   4.253
16616W        W89041   0.985  43.056  14.561
16617W        W89042  32.660  39.796  14.312
16618W        W89043  28.613  18.539   1.395
16619W        W89044  43.441  26.811  11.421
16620W        W89045  17.125  14.642   4.200
16621W        W89046  38.012  27.018  13.563
16622W        W89047  26.618   2.224   2.367
16623W        W89048  44.645  21.997  12.845
16624W        W89049  40.407  36.795   0.386
16625W        W89050  40.516   4.432  13.038
16626W        W89051  23.124  16.045  12.769
16627W        W89052   4.905  44.102   0.247
16628W        W89053  25.201  22.055  11.441
16629W        W89054  22.750   7.390   3.473
16630W        W89055   3.505   9.447   3.172
16631W        W89056   0.491  36.858   3.662
16632W        W89057  27.236  30.434   2.974
16633W        W89058  37.075  28.072   4.595
16634W        W89059  28.958  20.566   0.471
16635W        W89060  34.851  20.610   4.221
16636W        W89061  41.904  14.535   3.174
16637W        W89062  42.140   3.200   4.606
16638W        W89063  13.212  24.232   5.537
16639W        W89064  12.670   5.383  13.382
16640W        W89065   4.537  35.625   1.334
16641W        W89066  35.002  24.205   3.847
16642W        W89067  14.700   0.855   3.355
16643W        W89068  29.022  41.370  10.739
16644W        W89069  38.012  23.061  11.424
16645W        W89070  42.226  31.430   2.908
16646W        W89071  34.008   3.245  11.975
16647W        W89072  43.410  20.308   1.687
16648W        W89073   5.878  13.738  12.034
16649W        W89074   8.423  33.037   0.581
16650W        W89075  33.393  40.898   1.339
16651W        W89076  36.770  35.352  14.301
16652W        W89077  28.480  14.638   2.959
16653W        W89078  39.899  36.952   0.437
16654W        W89079  21.392   3.264  11.229
16655W        W89080  17.490  32.004   1.690
16656W        W89081   5.320  26.206  12.062
16657W        W89082  38.749  42.924  14.038
16658W        W89083   4.894  21.878   1.009
16659W        W89084  43.005  14.184   4.656
16660W        W89085  26.420  42.548   3.838
16661W        W89086  26.917   0.758  12.470
16662W        W89087  38.749   2.481   0.439
16663W        W89088   0.027   0.773   0.534
16664W        W89089  40.569  36.599   4.166
16665W        W89090  31.129  20.719  12.044
16666W        W89091  16.174   8.037   3.720
16667W        W89092  19.002  25.147   0.760
16668W        W89093  17.736  12.923   0.392
16669W        W89094   6.883  24.081  12.873
16670W        W89095  37.537   2.186   0.502
16671W        W89096  30.089  44.938  11.626
16672W        W89097  22.572  16.062  12.632
16673W        W89098   8.356  23.101   2.385
16674W        W89099  14.037   8.247  13.777
16675W        W89100   4.239  16.601  13.480
16676W        W89101  41.762   8.166  13.953
16677W        W89102  31.189  30.797   0.787
16678W        W89103  44.217  37.286  11.110
16679W        W89104  43.939  13.985  11.644
16680W        W89105   4.626  23.553   4.329
16681W        W89106  42.201  19.722  12.910
16682W        W89107  37.251  11.844  13.129
16683W        W89108  20.007  24.025  12.564
16684W        W89109  35.145   3.920  11.613
16685W        W89110   3.593  28.269   1.356
16686W        W89111  20.787  33.745  13.938
16687W        W89112  10.674  39.469  11.549
16688W        W89113  14.285  40.492  13.531
16689W        W89114  33.162  24.982   4.155
16690W        W89115   9.173  24.221  11.553
16691W        W89116  32.876  22.784  11.118
16692W        W89117  13.353  29.391   2.282
16693W        W89118   3.244  38.453   3.417
16694W        W89119  18.606  10.332  11.145
16695W        W89120  32.459  28.115  13.027
16696W        W89121   2.019   4.176   3.668
16697W        W89122  34.524  44.856   0.188
16698W        W89123  11.043  41.309   3.893
16699W        W89124  25.802   9.968  10.833
16700W        W89125  19.637  30.029  11.011
16701W        W89126  13.758  26.733  13.904
16702W        W89127  15.722   8.928   2.376
16703W        W89128  39.481  38.974   0.296
16704W        W89129  22.847  11.887   1.791
16705W        W89130  32.347   9.336   0.072
16706W        W89131   7.140   7.693  14.451
16707W        W89132   0.531  35.634  12.994
16708W        W89133   0.670  28.967   0.471
16709W        W89134   8.114   0.996  14.638
16710W        W89135  43.636  11.619  11.502
16711W        W89136  40.980   4.333  13.562
16712W        W89137   1.911  37.821  12.031
16713W        W89138  23.180  19.448   4.069
16714W        W89139   5.326  44.898   2.608
16715W        W89140  39.339  10.986  12.661
16716W        W89141  34.365  13.916   1.147
16717W        W89142  38.463  44.141   3.219
16718W        W89143  39.497  31.374  11.660
16719W        W89144   2.320  25.005   4.828
16720W        W89145  11.155  24.916  10.747
16721W        W89146  26.180   9.257   3.426
16722W        W89147  32.900   1.092   1.878
16723W        W89148  14.862  17.492  13.515
16724W        W89149  27.736  22.737   3.291
16725W        W89150  11.176  21.476   1.392
16726W        W89151   9.659  35.009   4.683
16727W        W89152  42.514  16.472   0.058
16728W        W89153  15.637   0.264   1.897
16729W        W89154   1.932  17.271  10.683
16730W        W89155  32.151  30.960  12.810
16731W        W89156  10.251  10.853  12.132
16732W        W89157  23.871   0.311   2.404
16733W        W89158  20.664  24.591  12.155
16734W        W89159   0.497  40.079  13.475
16735W        W89160  33.046  40.975   4.241
16736W        W89161   8.737  18.682   5.099
16737W        W89162   3.713  19.942   2.559
16738W        W89163  21.968  10.381   4.345
16739W        W89164  32.100   8.402  14.792
16740W        W89165   7.289   0.275   4.202
16741W        W89166   8.402   4.409  10.571
16742W        W89167  35.005  22.929   3.323
16743W        W89168  18.115   3.549   4.763
16744W        W89169  43.026  43.547  13.094
16745W        W89170  41.927  18.212  13.366
16746W        W89171  19.062   9.230   4.557
16747W        W89172  41.312  38.435   1.670
16748W        W89173  27.625  14.108  13.001
16749W        W89174   1.875  37.433   4.717
16750W        W89175  30.388  34.490   0.739
16751W        W89176  10.048   9.752   3.306
16752W        W89177  19.642  18.558  14.907
16753W        W89178  18.831  31.502  14.988
16754W        W89179  33.335   5.443   2.872
16755W        W89180  36.881   3.404   4.983
16756W        W89181   6.367  42.859   4.408
16757W        W89182  28.514  14.342  13.932
16758W        W89183  11.793   7.337   4.064
16759W        W89184  12.837  21.712  14.827
16760W        W89185  18.151  23.122   1.306
16761W        W89186  29.388  25.249  12.562
16762W        W89187  18.981   7.058  13.526
16763W        W89188   5.999  19.549   3.256
16764W        W89189   8.934  40.443  14.799
16765W        W89190  10.738   8.892  14.975
16766W        W89191  11.298   4.892  13.519
16767W        W89192   4.867  15.564   1.313
16768W        W89193  16.094  16.479  12.809
16769W        W89194   5.156  35.804  11.468
16770W        W89195  33.336   8.323  12.821
16771W        W89196  22.698  37.287  13.411
16772W        W89197   7.309  32.444  11.226
16773W        W89198  40.040  38.535   4.582
16774W        W89199  43.094   8.662  11.986
16775W        W89200  24.674  26.588   2.336
16776W        W89201  42.785  32.446   3.702
16777W        W89202  11.711   5.220   0.125
16778W        W89203  34.605  13.949   2.645
16779W        W89204  26.748  34.489   0.223
16780W        W89205  22.496  12.339   2.290
16781W        W89206  12.255  22.026   4.900
16782W        W89207  25.689   2.743  14.858
16783W        W89208  36.057  12.351  14.291
16784W        W89209  26.672  40.463  14.273
16785W        W89210  23.657   2.430  12.500
16786W        W89211  22.698  28.746  13.628
16787W        W89212  31.950   6.955  14.435
16788W        W89213  43.479   9.504   3.097
16789W        W89214  20.111  18.115   3.592
16790W        W89215   2.471  13.768  13.410
16791W        W89216  42.319  22.286   5.562
16792W        W89217  31.650  14.616   2.184
16793W        W89218   8.451  16.855  11.593
16794W        W89219   0.484  41.828   0.243
16795W        W89220  14.705   5.961   2.727
16796W        W89221  29.296  40.651   1.265
16797W        W89222  26.600   5.951  11.009
16798W        W89223  36.506   9.665  14.423
16799W        W89224  32.418  22.820   2.270
16800W        W89225   3.862  28.660   1.559
16801W        W89226  15.503  36.933   1.153
16802W        W89227  17.553  12.938  11.991
16803W        W89228  28.696  39.286   4.625
16804W        W89229   5.006  40.896   2.340
16805W        W89230  15.117   6.719   4.134
16806W        W89231   3.281  42.126  13.048
16807W        W89232  40.103  24.055   2.051
16808W        W89233   4.327   5.484   4.685
16809W        W89234  42.408  30.946   2.003
16810W        W89235   4.889  37.867   2.766
16811W        W89236  17.461  25.374  13.382
16812W        W89237  37.000  27.244  11.159
16813W        W89238  27.433  23.446  12.510
16814W        W89239  13.690  33.339  14.021
16815W        W89240   1.496  15.562  13.414
16816W        W89241  17.841  30.979  12.082
16817W        W89242  21.126   2.883   1.006
16818W        W89243  18.542  21.484  13.102
16819W        W89244   9.783   9.157   2.317
16820W        W89245   8.781  12.173   2.736
16821W        W89246  35.241  15.297   4.037
16822W        W89247  18.125   4.442   4.568
16823W        W89248  14.317   9.518   1.509
16824W        W89249   4.913  20.474  11.245
16825W        W89250   1.918  27.466   0.991
16826W        W89251  20.950  37.150   1.061
16827W        W89252  42.898  34.475  12.675
16828W        W89253  25.642  22.165   2.299
16829W        W89254  13.346  38.557  13.474
16830W        W89255  36.403  43.038   0.893
16831W        W89256  25.115  17.865   2.745
16832W        W89257  36.452  25.893   2.642
16833W        W89258  12.872  30.536  10.114
16834W        W89259  20.653   7.804   4.333
16835W        W89260   2.407  13.852   2.213
16836W        W89261  32.503  17.653  13.985
16837W        W89262  25.615  12.352   5.124
16838W        W89263   1.808  18.704   3.753
16839W        W89264   7.270   1.848   2.744
16840W        W89265  16.819  23.578   4.160
16841W        W89266  13.115  19.594   5.043
16842W        W89267  34.205  30.388   2.858
16843W        W89268  27.001  35.778  14.965
16844W        W89269   3.437  30.687   3.192
16845W        W89270   5.839   5.983   2.657
16846W        W89271  11.138   6.936   2.130
16847W        W89272  21.161  41.801  13.538
16848W        W89273  38.428  41.175   0.382
16849W        W89274  15.836  38.260   1.411
16850W        W89275  11.633  34.571  11.075
16851W        W89276  41.300   5.905   0.920
16852W        W89277   7.261  10.705   4.622
16853W        W89278  18.227  15.811  11.213
16854W        W89279  35.054  14.642  12.149
16855W        W89280  12.251  20.307   1.240
16856W        W89281  35.491  29.639   1.467
16857W        W89282  27.617   2.438  13.961
16858W        W89283  21.856  12.540  10.134
16859W        W89284  31.156  22.860  12.931
16860W        W89285   1.289  31.571   0.434
16861W        W89286  44.291  29.004  10.906
16862W        W89287  25.697  20.209   3.900
16863W        W89288  25.537  42.345  14.195
16864W        W89289  39.184   9.793  13.598
16865W        W89290  39.239   3.265  12.943
16866W        W89291  30.603  22.986   2.998
16867W        W89292  29.941  40.013   2.816
16868W        W89293  40.796  33.600  14.890
16869W        W89294   4.445  30.215  13.995
16870W        W89295   9.899  33.145   2.442
16871W        W89296  19.301  40.587   1.715
16872W        W89297  44.405   9.852   2.689
16873W        W89298   2.039  38.882  14.528
16874W        W89299  39.769   5.043  10.828
16875W        W89300  39.627  44.358  14.147
16876W        W89301  23.145  22.555  14.679
16877W        W89302  34.387  17.265   3.215
16878W        W89303   9.009  21.251  13.491
16879W        W89304  21.480  27.184   1.016
16880W        W89305  41.077   1.420   1.557
16881W        W89306  32.275  10.328   5.227
16882W        W89307  11.195  31.115  13.868
16883W        W89308   9.321  11.906   0.525
16884W        W89309   8.897  40.073   1.078
16885W        W89310  18.668   8.578  14.383
16886W        W89311   9.312  23.250  11.685
16887W        W89312  25.742   3.673  12.966
16888W        W89313  28.392  36.872   0.774
16889W        W89314  27.913   8.310   4.529
16890W        W89315  11.206   4.441   3.077
16891W        W89316  22.990  15.040   3.680
16892W        W89317  19.535   6.244   4.224
16893W        W89318  16.372  28.565  10.396
16894W        W89319  24.223  24.704   3.712
16895W        W89320  36.375  39.853   4.330
16896W        W89321  36.957  31.268   3.534
16897W        W89322  22.763   0.715   0.790
16898W        W89323  11.453  30.903  10.448
16899W        W89324  40.408  20.835  13.852
16900W        W89325  18.217  10.131   5.375
16901W        W89326  14.987  31.995   2.725
16902W        W89327  20.088   3.090  12.075
16903W        W89328  37.074   3.837  14.847
16904W        W89329  28.499  22.601   0.344
16905W        W89330  27.153  19.266  11.464
16906W        W89331   4.901  10.851   0.779
16907W        W89332  38.406   9.741   4.575
16908W        W89333   6.681  42.730  12.026
16909W        W89334  40.776  18.111  14.846
16910W        W89335  26.608  41.255   0.220
16911W        W89336  13.686  33.467  10.698
16912W        W89337  13.367  30.606  13.328
16913W        W89338  36.551   5.272   2.571
16914W        W89339  35.426  37.331  14.501
16915W        W89340   7.207  19.587   3.741
16916W        W89341  15.641  36.453  10.717
16917W        W89342  32.511  24.568  12.456
16918W        W89343  10.299  31.553  11.546
16919W        W89344  14.254   1.675   1.707
16920W        W89345  37.124   4.908  11.542
16921W        W89346  44.977  29.542   0.277
16922W        W89347  26.061   2.289   2.214
16923W        W89348   8.829  42.357   0.276
16924W        W89349  44.508  27.993  13.969
16925W        W89350   4.312  23.632   1.141
16926W        W89351   8.854  35.837  10.620
16927W        W89352  34.959  40.315   0.469
16928W        W89353  15.816  31.094  12.966
16929W        W89354   9.999  16.251  13.205
16930W        W89355  18.323  14.700   2.705
16931W        W89356  12.779  15.040   3.359
16932W        W89357   1.526  39.916   0.194
16933W        W89358  44.460  11.580   4.680
16934W        W89359  41.067  21.122   4.313
16935W        W89360   1.946  25.529  11.941
16936W        W89361  40.774  36.314   2.867
16937W        W89362   3.374  26.894  12.950
16938W        W89363  10.414   6.271   3.340
16939W        W89364  26.631  37.101  11.122
16940W        W89365  34.670   6.291   4.045
16941W        W89366   7.706  39.412   3.888
16942W        W89367  24.279  44.948  11.336
16943W        W89368  18.767  35.910   3.106
16944W        W89369  31.408  32.093   2.811
16945W        W89370  35.082  35.747   1.953
16946W        W89371  31.955  37.333  12.179
16947W        W89372   6.517  38.846   3.670
16948W        W89373   9.605  33.001   3.710
16949W        W89374  29.488  16.477   1.687
16950W        W89375  18.521   4.733   4.391
16951W        W89376  43.441  36.546  10.401
16952W        W89377   7.157  27.617   1.745
16953W        W89378  28.509  26.325   3.219
16954W        W89379  14.751  33.244  11.595
16955W        W89380  28.049   1.361   0.901
16956W        W89381  42.273   3.099   2.233
16957W        W89382  36.436  18.735   1.653
16958W        W89383  31.651  13.674   2.302
16959W        W89384  11.196  22.658   0.289
16960W        W89385  20.499  41.049  14.026
16961W        W89386  26.666   1.932   0.418
16962W        W89387  24.971  35.031  12.575
16963W        W89388  40.346  32.045   4.765
16964W        W89389  18.345  29.390   0.360
16965W        W89390   4.717  37.262   4.619
16966W        W89391  37.634  33.091  13.331
16967W        W89392  28.875  43.259   4.130
16968W        W89393  32.057  29.497  13.055
16969W        W89394  21.209  44.839  12.863
16970W        W89395  35.641  27.589   2.272
16971W        W89396  12.889   8.955   3.245
16972W        W89397  19.564  14.018  12.969
16973W        W89398  14.744  14.317  14.221
16974W        W89399  36.055  34.473   4.518
16975W        W89400   4.705  17.157  10.951
16976W        W89401  40.823  38.284   0.752
16977W        W89402  27.013  26.082   4.476
16978W        W89403  16.311  22.021   1.621
16979W        W89404  11.791  33.127  10.805
16980W        W89405   1.502  31.049   1.887
16981W        W89406  26.743  39.321   3.307
16982W        W89407  28.435   3.016   3.025
16983W        W89408  30.493  28.350   3.938
16984W        W89409  19.018  36.181   2.745
16985W        W89410  20.180  38.257   1.253
16986W        W89411  18.160  28.975  12.126
16987W        W89412  31.182   4.821   2.840
16988W        W89413  13.168  12.183   3.920
16989W        W89414  42.041  38.874  10.391
16990W        W89415  20.720  32.072   1.265
16991W        W89416  24.747  19.646   3.509
16992W        W89417  22.147   9.924  14.443
16993W        W89418  35.325   1.863  11.549
16994W        W89419  16.373  18.759   2.701
16995W        W89420  17.136   4.817   2.688
16996W        W89421  16.070  32.139  13.474
16997W        W89422   4.976  35.077   2.898
16998W        W89423  14.083  34.415  13.412
16999W        W89424  18.439  36.778  11.123
17000W        W89425  30.365  33.802  12.910
17001W        W89426  15.951   2.129  12.083
17002W        W89427  18.587   7.264   2.800
17003W        W89428  26.792   6.590  14.420
17004W        W89429  35.475   9.839  11.265
17005W        W89430  27.872  39.215  11.632
17006W        W89431  14.771  14.562  12.911
17007W        W89432  32.948   5.627  10.899
17008W        W89433  32.004  11.446   0.823
17009W        W89434  14.174  18.941  12.438
17010W        W89435  12.031   1.787   3.794
17011W        W89436  16.704  10.851  14.555
17012W        W89437  26.590  22.832  12.986
17013W        W89438  25.075  10.682  13.801
17014W        W89439  14.346  10.231  10.707
17015W        W89440  33.095  37.359  11.196
17016W        W89441  32.317  37.104  12.627
17017W        W89442  23.304  15.517  13.450
17018W        W89443   9.052  13.830   2.701
17019W        W89444  12.300  27.276   2.126
17020W        W89445  39.813   4.995  14.449
17021W        W89446   4.266   8.330  12.753
17022W        W89447   1.383   2.945  14.725
17023W        W89448   0.824  42.563  14.803
17024W        W89449  38.137  26.072  12.129
17025W        W89450  16.255  23.412   1.778
17026W        W89451  25.603  39.214   0.388
17027W        W89452  28.169   4.346   4.819
17028W        W89453  34.896  18.184   0.939
17029W        W89454  37.924  37.986   0.898
17030W        W89455   4.595  28.876   0.027
17031W        W89456  36.586  34.779   1.434
17032W        W89457  28.733  26.721  10.734
17033W        W89458  22.111  12.307   9.753
17034W        W89459  30.915  41.748   1.326
17035W        W89460  36.431   4.954  10.374
17036W        W89461  13.681  15.602  14.550
17037W        W89462   1.415  15.421   9.826
17038W        W89463   1.621  30.009  10.626
17039W        W89464  18.958  25.256   3.488
17040W        W89465  44.033  24.191   4.682
17041W        W89466   1.680  31.156  11.615
17042W        W89467  44.481  44.016   1.663
17043W        W89468  38.325   2.913   2.686
17044W        W89469  28.987  24.542  11.983
17045W        W89470  19.052  17.291  13.344
17046W        W89471   9.263  14.773   1.871
17047W        W89472  37.735  31.161  12.134
17048W        W89473  29.516  11.886  12.526
17049W        W89474   8.050  17.219  11.570
17050W        W89475   7.149  25.133  13.033
17051W        W89476   4.154   9.771  12.071
17052W        W89477  30.151  35.882   4.052
17053W        W89478  11.019  13.781  14.265
17054W        W89479   5.088  30.297   2.327
17055W        W89480   3.977  10.242   0.898
17056W        W89481  23.689  26.359  14.833
17057W        W89482   0.313  10.183   0.943
17058W        W89483   1.815   0.459   3.769
17059W        W89484  10.758  11.751   1.387
17060W        W89485   9.472   5.975   4.103
17061W        W89486  34.015  13.112  12.524
17062W        W89487  12.221   3.219  13.808
17063W        W89488  27.511   3.702   2.274
17064W        W89489  15.989  39.509   1.766
17065W        W89490  16.399  42.430  14.773
17066W        W89491  43.206   8.306  12.340
17067W        W89492  18.310  39.804   0.833
17068W        W89493   8.705  41.425   3.649
17069W        W89494  26.718   1.931  14.491
17070W        W89495  27.340   9.899   0.223
17071W        W89496  17.747   9.408  14.344
17072W        W89497   2.847  44.328   4.713
17073W        W89498  42.938  38.554  14.946
17074W        W89499  40.621   1.231   4.695
17075W        W89500  40.623  29.435  12.903
17076W        W89501  29.855  14.640  10.722
17077W        W89502  37.234   3.121   0.354
17078W        W89503  22.636  43.526   1.428
17079W        W89504  18.749  18.876  13.792
17080W        W89505  35.992  36.781  12.118
17081W        W89506   5.963  12.931  13.402
17082W        W89507  37.469  21.027  10.821
17083W        W89508  12.263   6.607   1.446
17084W        W89509   4.881   4.225  11.578
17085W        W89510  36.528  28.347   0.516
17086W        W89511  29.006   8.401   0.469
17087W        W89512  34.977  33.581  10.565
17088W        W89513  25.463  33.087   4.989
17089W        W89514  33.714  37.928  11.024
17090W        W89515  36.121  36.491   4.611
17091W        W89516  34.368  17.037  13.438
17092W        W89517  36.024  32.742  14.533
17093W        W89518   2.945   8.668  13.814
17094W        W89519  23.618  39.634  11.500
17095W        W89520   2.385   2.686   2.805
17096W        W89521  12.811  21.909  13.428
17097W        W89522  22.519  38.815   4.257
17098W        W89523   4.620   6.285   4.569
17099W        W89524  30.713  39.688  11.555
17100W        W89525  17.685  23.469  10.459
17101W        W89526  41.518  31.413   4.611
17102W        W89527   2.697  31.923  13.889
17103W        W89528  29.505  19.746   4.747
17104W        W89529  22.115  13.037   1.799
17105W        W89530  37.001  27.533   0.953
17106W        W89531  27.745  15.372   1.572
17107W        W89532  16.269  28.133  12.569
17108W        W89533   6.153  40.869  11.106
17109W        W89534  25.933  22.904   4.600
17110W        W89535  38.447  40.657   0.522
17111W        W89536  35.464  30.201   2.693
17112W        W89537  14.031  30.303  11.221
17113W        W89538  31.879  11.172   2.709
17114W        W89539   5.923  35.080   0.023
17115W        W89540  27.526  41.339   4.179
17116W        W89541  44.470  41.376   4.647
17117W        W89542   0.779  38.454  13.848
17118W        W89543  29.466  13.987  11.255
17119W        W89544  30.193  40.743   1.297
17120W        W89545  28.506  36.595  13.300
17121W        W89546   7.647   9.967  10.628
17122W        W89547  18.101  14.134   1.555
17123W        W89548  44.401   3.309  12.448
17124W        W89549  42.916   9.293   2.338
17125W        W89550  15.995   5.345  11.482
17126W        W89551   9.434  24.120   2.744
17127W        W89552  18.325  13.176   4.723
17128W        W89553   8.617  27.163   1.293
17129W        W89554  35.134  37.609   0.834
17130W        W89555  25.956  34.046   0.243
17131W        W89556  38.066  26.385   3.823
17132W        W89557   8.848   2.796   2.318
17133W        W89558  41.494   1.438  13.749
17134W        W89559  18.724  18.389  10.681
17135W        W89560  25.015  32.086  12.048
17136W        W89561  24.680  32.871  12.541
17137W        W89562  19.415  29.499   4.661
17138W        W89563  13.756  42.155  12.219
17139W        W89564  28.342  39.043   9.717
17140W        W89565   6.175  18.302  11.631
17141W        W89566  36.840  10.059   3.103
17142W        W89567  39.750  42.721  10.653
17143W        W89568  16.633  11.682   4.177
17144W        W89569  32.898  38.512  14.809
17145W        W89570  25.602  10.215   4.079
17146W        W89571  30.630  28.665  11.064
17147W        W89572  13.343  43.283  14.450
17148W        W89573   6.319  31.335  11.287
17149W        W89574  36.531   9.843  11.750
17150W        W89575   3.514  39.392  10.713
17151W        W89576  12.204  13.533  11.188
17152W        W89577  33.977  35.063   4.721
17153W        W89578  19.340  40.290   3.319
17154W        W89579  18.718   2.860   2.942
17155W        W89580   7.329  27.256  12.430
17156W        W89581  42.016  16.573   3.824
17157W        W89582  34.916   3.297  13.421
17158W        W89583  12.378  21.197   4.571
17159W        W89584  16.080  10.303   9.799
17160W        W89585  20.650  33.167  12.584
17161W        W89586  22.678   1.565  11.145
17162W        W89587   0.444  21.102  13.480
17163W        W89588  38.414   5.419   1.438
17164W        W89589  11.919   4.816   3.247
17165W        W89590   0.025  18.775  14.478
17166W        W89591   7.690  32.481  10.636
17167W        W89592   5.306  19.154  12.588
17168W        W89593  44.288   9.977  10.604
17169W        W89594  39.005  14.162  13.842
17170W        W89595  14.583  18.244  13.927
17171W        W89596   3.549   1.389  14.826
17172W        W89597  41.492  25.775   0.715
17173W        W89598  34.562  20.542  13.808
17174W        W89599  22.033  15.527  12.158
17175W        W89600  21.690   8.318  14.337
17176W        W89601  38.984  39.453  11.645
17177W        W89602  18.621  22.052  11.713
17178W        W89603  34.190  16.432  14.315
17179W        W89604   6.429  23.227  11.660
17180W        W89605  21.640  17.557  13.045
17181W        W89606  36.428  13.298  12.892
17182W        W89607  42.248  11.539  11.148
17183W        W89608  23.319  13.712  14.224
17184W        W89609  37.928  31.897   0.029
17185W        W89610   2.253  15.992  13.460
17186W        W89611  37.655  43.907  13.779
17187W        W89612  26.028  36.628  10.812
17188W        W89613  10.323   6.713   3.058
17189W        W89614  11.733  39.613   1.393
17190W        W89615  38.012   6.420  10.593
17191W        W89616  11.632  19.795   3.881
17192W        W89617  24.057  24.169   0.273
17193W        W89618   6.921  28.824  14.697
17194W        W89619   4.421  37.854  11.649
17195W        W89620  31.362  14.614  11.122
17196W        W89621  13.570  13.914  13.461
17197W        W89622   4.897  31.763  12.517
17198W        W89623  34.752  29.688   3.425
17199W        W89624   0.778  36.450   2.819
17200W        W89625  25.171  27.097   1.842
17201W        W89626   9.167   5.229  11.226
17202W        W89627   1.363   1.907  14.867
17203W        W89628   9.164  28.622   3.281
17204W        W89629  41.805  28.316   2.796
17205W        W89630  17.079   3.232  14.402
17206W        W89631  15.725  17.061   4.085
17207W        W89632  25.056  43.441   4.657
17208W        W89633  30.664  25.063  13.899
17209W        W89634  10.801  42.510  13.082
17210W        W89635   0.293   4.735  10.639
17211W        W89636  42.007  28.131  13.425
17212W        W89637  32.172  14.549   1.358
17213W        W89638  16.677   5.409  14.020
17214W        W89639  24.130  20.341   3.242
17215W        W89640  32.204  26.950  13.439
17216W        W89641  31.042  27.096  12.159
17217W        W89642   0.893  44.833  11.615
17218W        W89643  43.988   4.356  11.095
17219W        W89644  36.309  19.253  14.081
17220W        W89645  30.235   6.445  11.926
17221W        W89646  24.076  19.132   4.085
17222W        W89647  33.431  38.317  12.141
17223W        W89648   2.253  11.358  10.573
17224W        W89649  24.632   2.575   1.326
17225W        W89650  36.589  31.368   0.411
17226W        W89651  23.060   6.116   3.809
17227W        W89652   2.430  28.888  14.908
17228W        W89653  17.846   6.680   1.014
17229W        W89654   2.800  35.192  14.833
17230W        W89655  21.519  31.425   1.359
17231W        W89656   6.185  25.041  12.154
17232W        W89657  30.219  12.311   4.913
17233W        W89658  40.065   2.794   2.846
17234W        W89659  44.323  16.150  11.963
17235W        W89660  16.884  20.049   3.691
17236W        W89661   5.287  14.281  12.575
17237W        W89662  24.350  39.742   4.138
17238W        W89663  35.016  22.091  11.315
17239W        W89664  34.885  32.835   3.604
17240W        W89665  32.371  35.716   3.209
17241W        W89666   8.069   7.344  12.063
17242W        W89667  12.219   8.370   1.529
17243W        W89668  39.931   7.775  14.968
17244W        W89669   0.524  15.684  14.378
17245W        W89670  29.623   5.880   1.372
17246W        W89671   3.220  34.933  12.008
17247W        W89672  19.205   2.713   3.108
17248W        W89673  11.047  23.176   2.786
17249W        W89674  23.794  10.318  11.395
17250W        W89675   5.880  25.785  12.535
17251W        W89676  13.777  41.357  13.311
17252W        W89677  32.467   5.343   0.461
17253W        W89678   8.230  16.552   1.733
17254W        W89679  19.988  29.446   3.225
17255W        W89680  17.675   5.261  11.047
17256W        W89681  16.616  27.095  14.283
17257W        W89682  23.473  28.558  10.767
17258W        W89683  42.292  21.305  12.308
17259W        W89684  33.852   1.114  12.609
17260W        W89685  42.876  27.945  12.553
17261W        W89686   7.940   9.123   3.200
17262W        W89687   6.288   9.080   3.740
17263W        W89688  28.493  28.160   0.981
17264W        W89689  10.683  40.323  13.316
17265W        W89690  16.302  30.608   2.484
17266W        W89691  38.506   8.431  12.391
17267W        W89692  42.830  20.576  11.882
17268W        W89693   1.930  35.071   2.366
17269W        W89694  17.175  29.567   4.841
17270W        W89695  25.224  37.131  11.230
17271W        W89696  28.476   4.772  14.112
17272W        W89697  20.722  38.853  10.716
17273W        W89698  38.812  11.141  13.948
17274W        W89699   4.965  34.199   2.554
17275W        W89700  17.100  28.424  11.527
17276W        W89701  34.105  17.158  14.301
17277W        W89702  42.743  21.156   2.939
17278W        W89703  32.679   0.224   0.384
17279W        W89704  10.303  24.656  14.666
17280W        W89705   8.252  34.982   4.689
17281W        W89706  11.713  14.807  14.826
17282W        W89707   7.420  22.769  13.026
17283W        W89708  22.001  39.296  10.556
17284W        W89709  17.316  17.716  14.303
17285W        W89710   3.718  43.335   0.458
17286W        W89711  21.853  31.314  12.822
17287W        W89712   8.941  19.595   1.104
17288W        W89713  27.008  39.762  11.470
17289W        W89714  27.527  28.605  14.469
17290W        W89715  22.931   1.143   2.863
17291W        W89716  38.565   8.316   3.279
17292W        W89717  36.558  36.569   0.728
17293W        W89718  14.307  17.498  14.293
17294W        W89719  21.866   2.761   2.462
17295W        W89720   2.337  27.890   2.826
17296W        W89721   3.844  22.136   1.724
17297W        W89722   9.683  20.535  13.203
17298W        W89723   3.036  44.902  14.994
17299W        W89724  39.378  42.974   4.561
17300W        W89725  28.312  27.629   1.171
17301W        W89726  40.008   6.384   2.183
17302W        W89727   4.618  34.584   3.274
17303W        W89728  25.853  44.031  10.585
17304W        W89729  36.250  41.723  12.448
17305W        W89730  34.203  40.623   3.841
17306W        W89731  28.782   2.331   4.201
17307W        W89732  36.868  44.337  13.753
17308W        W89733  11.139   6.991  13.342
17309W        W89734  27.865  29.651  14.409
17310W        W89735   1.690  43.428   4.621
17311W        W89736  43.918   2.411   2.917
17312W        W89737  16.853   1.060  14.032
17313W        W89738  43.189   2.317   4.659
17314W        W89739  17.166  30.194  11.230
17315W        W89740   0.215  13.383   0.160
17316W        W89741  42.752  37.901   2.114
17317W        W89742  41.473  44.299   2.779
17318W        W89743  41.893   1.597  14.479
17319W        W89744  34.357   5.826  11.130
17320W        W89745  27.825  40.343   4.196
17321W        W89746  19.030  15.992  13.797
17322W        W89747  29.105  24.188   5.328
17323W        W89748   8.251  25.236  11.465
17324W        W89749  12.599  39.097   2.330
17325W        W89750  32.108  37.005   0.699
17326W        W89751  29.938  44.016   3.266
17327W        W89752  41.812  19.199  13.873
17328W        W89753  19.570  27.144   4.915
17329W        W89754  39.856   4.584  11.082
17330W        W89755   4.981   3.899   4.067
17331W        W89756  26.518  33.035   1.728
17332W        W89757   3.491  40.308  11.543
17333W        W89758   2.899  20.171  14.567
17334W        W89759   4.585  30.394   2.417
17335W        W89760  23.199  36.389   1.677
17336W        W89761   4.152  12.769   4.702
17337W        W89762  16.685  43.836   1.821
17338W        W89763  22.020  35.654   2.458
17339W        W89764  15.006   4.653   9.966
17340W        W89765  24.253  11.062   2.440
17341W        W89766  14.589  21.558   0.302
17342W        W89767  14.844   4.167  11.354
17343W        W89768  11.904  36.594   1.165
17344W        W89769   2.390  20.113   3.072
17345W        W89770  22.578  19.492   2.837
17346W        W89771  42.514  23.403  14.919
17347W        W89772   5.474   3.010  12.578
17348W        W89773  26.592  39.614   0.207
17349W        W89774  17.162  22.052   4.535
17350W        W89775  35.603  21.764   4.086
17351W        W89776   1.877  34.267   4.577
17352W        W89777   7.236   3.662   2.633
17353W        W89778  22.256  23.014  12.670
17354W        W89779  20.063  37.551  13.052
17355W        W89780   5.940  34.685   4.718
17356W        W89781  38.879  29.178  11.802
17357W        W89782  12.421  32.544   3.779
17358W        W89783  36.082   1.303  11.000
17359W        W89784  27.499  11.392   1.916
17360W        W89785  13.789  37.923  12.833
17361W        W89786  37.565  44.235  12.094
17362W        W89787  12.246  39.933  11.637
17363W        W89788   9.959  32.605  13.803
17364W        W89789  33.015  25.358   3.823
17365W        W89790  41.793  15.657   2.853
17366W        W89791  16.360  15.789  10.677
17367W        W89792  14.301  11.029   1.242
17368W        W89793  13.788  28.979   1.254
17369W        W89794  32.011  41.153  14.244
17370W        W89795   6.124   9.464  14.970
17371W        W89796  35.018  21.954   4.791
17372W        W89797  18.488  42.548   3.156
17373W        W89798   1.297  36.008  11.885
17374W        W89799   4.029  29.953   2.848
17375W        W89800  42.791  32.168   0.513
17376W        W89801  24.892  44.473   2.323
17377W        W89802  16.225  19.256  12.556
17378W        W89803  26.423  34.712   2.370
17379W        W89804  23.983  27.531  11.613
17380W        W89805  39.526   9.864   2.364
17381W        W89806  15.683  31.253   5.067
17382W        W89807  15.119  13.743   4.427
17383W        W89808  25.928  12.581  13.563
17384W        W89809  11.835  25.256   0.969
17385W        W89810  33.901  19.767   4.858
17386W        W89811   0.341  20.156   2.793
17387W        W89812  27.379   2.837   4.570
17388W        W89813  34.438  33.099   3.602
17389W        W89814  25.587  19.983   2.228
17390W        W89815  24.797  39.529  11.707
17391W        W89816  23.280  35.898  11.776
17392W        W89817  10.381  18.703   3.149
17393W        W89818  42.966  28.748   1.714
17394W        W89819   1.293   5.499   0.793
17395W        W89820  20.943   0.757   1.114
17396W        W89821  13.179  28.460   3.817
17397W        W89822  38.318  41.487  14.360
17398W        W89823  35.226  10.221  14.852
17399W        W89824  43.384  17.453  14.942
17400W        W89825  36.513  14.825  12.380
17401W        W89826  32.981  21.717   1.077
17402W        W89827  30.995  16.481  11.144
17403W        W89828  13.556  37.162   2.356
17404W        W89829  30.212  19.614  11.895
17405W        W89830  18.421  23.517   0.245
17406W        W89831  27.009  33.475  11.997
17407W        W89832  21.413   1.306   4.658
17408W        W89833  30.962  30.407   0.516
17409W        W89834   2.154   6.124  13.981
17410W        W89835  32.922   4.244   1.284
17411W        W89836  43.788  31.686   5.507
17412W        W89837  20.067  32.460   0.053
17413W        W89838  16.179  38.760   0.352
17414W        W89839  16.520  16.680   1.325
17415W        W89840  33.672  20.107   1.632
17416W        W89841  13.142  20.913   3.442
17417W        W89842  44.823  25.779  10.912
17418W        W89843  42.556  32.915  10.356
17419W        W89844  44.465  42.467   3.686
17420W        W89845  31.118  36.387  14.459
17421W        W89846  36.350   0.394   4.549
17422W        W89847  16.137  18.222   2.726
17423W        W89848  23.259  22.921   1.554
17424W        W89849  22.868  12.343   2.777
17425W        W89850  39.253  29.505  13.618
17426W        W89851  11.445  22.545   4.048
17427W        W89852  20.098  23.129   3.406
17428W        W89853  21.724  21.153  13.085
17429W        W89854  26.190  22.634   1.678
17430W        W89855  29.558  33.020  12.953
17431W        W89856  25.701   2.911   0.353
17432W        W89857  43.462   2.924   4.065
17433W        W89858  26.108  35.370   2.713
17434W        W89859  13.219  25.211   4.702
17435W        W89860  34.702   7.361   2.640
17436W        W89861   8.125  39.286  14.781
17437W        W89862  34.467  39.217  14.125
17438W        W89863  32.336  26.068   2.979
17439W        W89864  25.248  14.681  12.008
17440W        W89865  42.648   5.734  11.970
17441W        W89866  26.946  23.660  10.748
17442W        W89867   7.638   9.354  12.999
17443W        W89868  42.015  38.874  11.615
17444W        W89869   3.390  33.854   2.497
17445W        W89870  13.150  41.444   1.702
17446W        W89871   0.360  11.027  14.846
17447W        W89872  18.140  14.885   2.249
17448W        W89873  29.413  41.438  14.826
17449W        W89874  32.054  13.670   2.721
17450W        W89875  11.621   6.809   3.877
17451W        W89876  26.054   1.971   0.783
17452W        W89877  17.922   8.430   3.641
17453W        W89878  17.182  17.191   1.461
17454W        W89879  36.769  10.772   3.632
17455W        W89880   6.753  10.883   2.817
17456W        W89881   3.085  11.283   3.289
17457W        W89882  23.947   9.825   4.689
17458W        W89883   3.425  12.578  13.120
17459W        W89884  37.513  40.720   0.511
17460W        W89885  21.055  36.908  11.209
17461W        W89886  18.679  44.385  11.348
17462W        W89887  21.187  43.952  13.781
17463W        W89888  21.158   1.777   1.727
17464W        W89889  16.424   2.845   2.194
17465W        W89890   8.108  28.948   3.712
17466W        W89891   8.884  41.277  12.832
17467W        W89892   7.628  14.614  13.340
17468W        W89893  36.189  26.626  11.888
17469W        W89894   0.526  27.957  10.739
17470W        W89895  33.617  22.687   3.660
17471W        W89896   2.188   0.480  12.554
17472W        W89897  25.180  34.634  12.842
17473W        W89898  38.404  28.407   0.200
17474W        W89899  11.654  29.147  13.005
17475W        W89900  13.200  20.340  10.948
17476W        W89901  12.700  42.520   1.429
17477W        W89902   0.906  22.677   3.464
17478W        W89903  29.843  15.399   0.319
17479W        W89904   5.244   0.821   1.720
17480W        W89905  18.053  34.162   3.756
17481W        W89906  16.210  29.936  14.515
17482W        W89907  11.863  39.987  14.268
17483W        W89908  33.887   8.598   1.611
17484W        W89909  27.221  18.728  11.485
17485W        W89910  25.633  23.575   4.115
17486W        W89911  16.242  24.023   2.867
17487W        W89912  32.909  23.109  14.762
17488W        W89913   4.911  34.923  12.516
17489W        W89914  25.407  26.112   1.923
17490W        W89915  37.100   7.250  14.320
17491W        W89916  11.920  33.496  11.196
17492W        W89917   6.960  18.083  12.127
17493W        W89918  38.430  35.026   1.949
17494W        W89919  20.090  32.583  10.700
17495W        W89920  44.414  37.485   1.884
17496W        W89921  14.832  23.627   9.542
17497W        W89922  16.212  40.000   2.010
17498W        W89923  38.484  38.350  11.119
17499W        W89924  27.341   4.739  12.400
17500W        W89925  16.493  21.449   4.467
17501W        W89926  26.318  27.222   4.056
17502W        W89927  38.524  33.239  14.863
17503W        W89928  19.168   6.018  11.667
17504W        W89929  31.586  17.006   0.986
17505W        W89930   9.714  10.104   4.223
17506W        W89931   2.990  22.548  12.054
17507W        W89932  21.491  42.568  12.438
17508W        W89933  42.597  38.565   4.180
17509W        W89934  37.471  40.351  10.741
17510W        W89935  21.258  36.437   4.166
17511W        W89936  36.139  16.121  12.885
17512W        W89937  11.790  37.743   3.587
17513W        W89938  22.234   4.243   1.938
17514W        W89939  14.866   1.334  10.518
17515W        W89940   2.809  14.208  14.439
17516W        W89941  31.522   4.922  13.024
17517W        W89942  39.942  27.268   0.308
17518W        W89943  15.199  10.784  10.710
17519W        W89944  28.008  32.801   3.290
17520W        W89945  34.485   8.807  11.529
17521W        W89946  39.839  21.025   2.406
17522W        W89947  14.590  12.359  12.981
17523W        W89948  29.351   2.828  13.759
17524W        W89949  39.479  43.440  14.558
17525W        W89950  32.518  35.701  14.102
17526W        W89951  13.680   5.142  13.493
17527W        W89952   2.433  33.010  14.523
17528W        W89953  20.971  30.072   0.980
17529W        W89954  35.445  30.955   0.554
17530W        W89955  32.957  44.462   1.338
17531W        W89956  26.292  24.468  13.933
17532W        W89957  40.936  29.891   3.644
17533W        W89958  24.413  21.159   2.691
17534W        W89959   4.679   5.701  14.409
17535W        W89960   6.838   5.191   3.190
17536W        W89961  39.276   0.741  11.345
17537W        W89962  29.198  27.002   2.737
17538W        W89963  15.330  29.632  13.756
17539W        W89964  41.326   0.357   3.776
17540W        W89965   3.022  29.930   2.645
17541W        W89966   8.310  12.158  12.435
17542W        W89967  41.737  33.644   2.629
17543W        W89968  13.093  27.401   1.618
17544W        W89969  41.843  10.203  12.470
17545W        W89970  43.277  23.231  14.432
17546W        W89971  26.854  11.149  13.879
17547W        W89972  34.552  28.037   2.089
17548W        W89973  42.806  14.280  12.171
17549W        W89974  11.439  12.584   1.488
17550W        W89975   0.410  35.183  14.539
17551W        W89976  42.843  17.325  14.944
17552W        W89977  10.777  20.498   0.760
17553W        W89978  15.576  32.723  10.529
17554W        W89979  26.535  29.197  10.189
17555W        W89980  25.001  44.345  13.612
17556W        W89981  42.871  17.692  14.485
17557W        W89982   4.407  34.462  11.151
17558W        W89983  19.759  39.779  10.551
17559W        W89984   0.484   8.388   3.244
17560W        W89985  34.520  40.785   1.779
17561W        W89986  26.450   3.754  11.155
17562W        W89987  22.764  19.088   1.686
17563W        W89988  39.793  33.323   4.495
17564W        W89989  43.838  25.373   2.653
17565W        W89990  27.883  10.623  13.368
17566W        W89991  28.011  40.789  12.999
17567W        W89992  11.212  31.403  12.962
17568W        W89993  27.714  35.025  12.070
17569W        W89994  14.883  31.020   2.717
17570W        W89995  10.370  13.915   1.409
17571W        W89996  21.550  15.163  12.858
17572W        W89997  32.644  31.675   2.363
17573W        W89998   5.289   2.778   3.982
17574W        W89999  42.769   3.737   4.255
17575W        W90000   2.257  21.676   4.163
17576W        W90001   9.573  20.292   0.539
17577W        W90002  43.211  31.166  13.662
17578W        W90003   4.343  21.393   0.415
17579W        W90004  30.672   7.178  10.776
17580W        W90005  33.302  22.427   3.297
17581W        W90006  12.487  41.355   0.803
17582W        W90007   0.272  39.524   0.478
17583W        W90008  18.790  44.495   1.434
17584W        W90009  40.872  39.407   0.028
17585W        W90010  10.811   6.030  12.566
17586W        W90011   4.972  30.871  12.460
17587W        W90012  10.685  19.006   4.626
17588W        W90013  30.049  21.144   5.189
17589W        W90014  20.472  40.876   3.954
17590W        W90015  22.528   2.103  11.074
17591W        W90016  18.984   0.979   4.771
17592W        W90017  20.122  11.118  14.194
17593W        W90018  35.091  35.096  14.864
17594W        W90019  24.322  10.254   5.021
17595W        W90020  40.321   9.869  10.721
17596W        W90021  28.499  26.765   2.372
17597W        W90022  14.351  23.130  14.529
17598W        W90023  10.730   4.282   2.373
17599W        W90024  14.207  29.102  12.872
17600W        W90025  32.059  11.798  11.401
17601W        W90026  43.265  12.255   2.848
17602W        W90027  25.702  41.498   2.809
17603W        W90028  22.994   1.316   0.402
17604W        W90029  33.074   9.284   3.666
17605W        W90030  26.705  15.667   2.526
17606W        W90031  34.148   7.953  13.364
17607W        W90032  14.280  14.130   0.460
17608W        W90033  38.395  24.698  13.109
17609W        W90034   8.214  39.607  11.461
17610W        W90035   3.716  28.667  12.006
17611W        W90036  43.772  10.324   3.069
17612W        W90037   9.598  41.331   1.827
17613W        W90038  37.939   4.111  14.899
17614W        W90039  10.932  27.186   4.128
17615W        W90040   4.322  36.300  11.617
17616W        W90041  36.044   1.248  13.466
17617W        W90042   8.255  11.867   2.791
17618W        W90043  36.982   5.181   1.303
17619W        W90044  15.848  23.184   3.416
17620W        W90045  38.249  24.501   2.786
17621W        W90046   5.877   0.352   3.623
17622W        W90047   6.503  20.844   4.472
17623W        W90048  27.734  31.569   4.815
17624W        W90049   1.824  15.237   2.065
17625W        W90050  12.901  26.933   4.160
17626W        W90051  31.162   1.428   2.233
17627W        W90052  42.440  43.791  11.159
17628W        W90053  12.984   5.890  14.998
17629W        W90054  21.005  12.165   1.320
17630W        W90055  35.728  22.600  14.807
17631W        W90056  18.792   6.459  14.947
17632W        W90057  15.592   3.204  10.103
17633W        W90058  27.683  10.217   3.327
17634W        W90059   1.247  21.339   3.536
17635W        W90060   4.908  28.866  14.253
17636W        W90061   7.478  44.166   0.337
17637W        W90062  14.291  17.537   0.259
17638W        W90063  28.608  25.819  11.098
17639W        W90064  36.313  27.643  12.848
17640W        W90065  25.419  38.438  13.169
17641W        W90066  35.035  42.886   1.323
17642W        W90067   3.051   0.469   4.397
17643W        W90068  19.691  37.457  14.436
17644W        W90069  15.606  16.825   2.783
17645W        W90070  21.554  30.307   1.632
17646W        W90071  15.133   7.696   3.668
17647W        W90072   2.980  17.689   1.243
17648W        W90073  32.423  39.979   1.393
17649W        W90074   9.693   5.211   0.074
17650W        W90075  25.506  14.724  13.456
17651W        W90076  12.290  42.261   1.614
17652W        W90077  27.372  21.534  11.512
17653W        W90078   7.700  33.946   4.824
17654W        W90079   4.380  18.408  14.881
17655W        W90080  11.281  30.181   1.848
17656W        W90081  27.084  16.592   4.005
17657W        W90082  44.417  13.611   1.888
17658W        W90083  31.070  11.495  11.637
17659W        W90084  41.924  22.981  10.494
17660W        W90085   4.607  31.885  13.461
17661W        W90086  28.988  26.621   3.265
17662W        W90087   2.909  31.638   1.751
17663W        W90088   8.243  21.680  13.871
17664W        W90089  18.638  35.982   1.414
17665W        W90090  42.966  43.348   4.768
17666W        W90091  42.006  38.951   2.836
17667W        W90092   1.307   2.878  13.878
17668W        W90093  30.055   6.545   1.860
17669W        W90094  15.219  15.068   1.749
17670W        W90095  15.818  22.138  12.916
17671W        W90096  29.509  24.479  11.909
17672W        W90097   5.731   8.790   1.020
17673W        W90098  12.801   0.944  14.545
17674W        W90099  28.263  35.641   3.287
17675W        W90100  33.107  11.173   4.253
17676W        W90101  35.243   9.659   3.833
17677W        W90102  18.782  13.811   2.859
17678W        W90103   6.359  25.710  12.309
17679W        W90104  32.568  25.550  12.340
17680W        W90105  15.458  42.053   4.050
17681W        W90106  22.193  16.095   1.981
17682W        W90107  35.844  39.739  13.160
17683W        W90108  15.026  16.232  14.823
17684W        W90109  27.360  22.542  10.100
17685W        W90110   8.190  31.572   2.596
17686W        W90111   6.630  37.046   1.651
17687W        W90112  19.642   5.576  10.621
17688W        W90113  12.582  32.871   2.343
17689W        W90114  41.219  18.623   0.390
17690W        W90115  19.628  13.938   4.208
17691W        W90116  33.457  20.488  12.129
17692W        W90117  42.332  37.097   3.124
17693W        W90118  29.984  31.333   1.828
17694W        W90119  26.735   6.829  13.022
17695W        W90120   3.243  30.907  13.589
17696W        W90121   1.172  27.586   0.466
17697W        W90122  38.142  41.528   0.664
17698W        W90123  39.908  40.726   2.185
17699W        W90124  32.100   8.170  11.267
17700W        W90125  34.350   9.007   2.290
17701W        W90126  37.722  30.352   0.329
17702W        W90127  21.516  11.702   1.669
17703W        W90128  18.700  34.246  12.322
17704W        W90129   7.886  25.412  13.506
17705W        W90130  39.176  42.337  14.544
17706W        W90131  28.879  28.927  13.306
17707W        W90132  13.159  15.720  12.515
17708W        W90133   3.270  44.629  13.392
17709W        W90134  35.267  24.505   2.439
17710W        W90135  27.322  43.391  11.714
17711W        W90136   0.012  33.945  10.560
17712W        W90137  12.635  14.132  14.807
17713W        W90138  15.716  33.529   4.908
17714W        W90139   9.292  34.605  11.467
17715W        W90140  29.217  33.982   0.500
17716W        W90141  14.598   2.343   0.762
17717W        W90142  10.498  25.505   4.141
17718W        W90143  20.375  41.816   0.947
17719W        W90144  26.036  16.716   2.358
17720W        W90145   0.330  16.110   4.685
17721W        W90146  29.720  36.404   2.269
17722W        W90147  21.779  33.032   1.439
17723W        W90148  31.164  27.093   1.912
17724W        W90149  11.073  29.662   4.555
17725W        W90150  44.224  10.821  11.501
17726W        W90151  28.486   6.532  12.396
17727W        W90152   3.489  43.438  11.477
17728W        W90153  27.544  29.731   0.317
17729W        W90154   5.336  23.593  11.727
17730W        W90155  26.776  20.980   1.286
17731W        W90156  24.775  23.069  11.556
17732W        W90157   8.181  15.812   1.496
17733W        W90158  16.507  20.630  11.282
17734W        W90159  25.464  44.464  14.893
17735W        W90160   5.879  16.122   2.324
17736W        W90161  22.550   4.293  13.838
17737W        W90162  26.131  20.659   2.888
17738W        W90163   5.705  23.756  12.618
17739W        W90164  17.908  39.578   2.702
17740W        W90165  11.703  18.792   2.861
17741W        W90166  43.950   6.813   4.561
17742W        W90167  11.778  23.109  11.922
17743W        W90168  35.895  17.657  10.690
17744W        W90169   9.684  21.060  11.087
17745W        W90170  34.468  22.769   1.665
17746W        W90171  20.278   3.525   4.562
17747W        W90172  30.904  28.708  14.887
17748W        W90173  26.215  24.138  13.389
17749W        W90174  11.780  30.398  12.569
17750W        W90175  35.479  36.938   1.362
17751W        W90176  22.373  30.645   4.098
17752W        W90177  34.943  11.371   1.344
17753W        W90178  16.437  42.583  11.937
17754W        W90179  39.774  13.227   0.458
17755W        W90180  31.976  43.463   4.141
17756W        W90181  41.958   8.237   4.347
17757W        W90182  42.973  22.080   1.987
17758W        W90183  21.903  27.301  12.517
17759W        W90184  24.978  27.975  12.122
17760W        W90185  25.974  21.196  10.887
17761W        W90186  38.477  18.284  11.171
17762W        W90187  28.543  13.311  11.472
17763W        W90188  27.509  16.518   0.318
17764W        W90189   4.626  21.574  12.996
17765W        W90190  42.565  20.717   3.168
17766W        W90191  41.439  42.439  11.266
17767W        W90192   5.297  29.574  12.507
17768W        W90193  41.369  33.366  11.451
17769W        W90194   3.295  11.679   4.602
17770W        W90195  35.354   4.956  14.995
17771W        W90196  42.491  35.555   2.181
17772W        W90197   4.932   3.725   3.565
17773W        W90198  26.132  18.243   2.664
17774W        W90199  22.061   0.422  11.062
17775W        W90200  28.434   0.757  13.162
17776W        W90201  27.255  13.608   0.821
17777W        W90202  16.172  19.055   1.735
17778W        W90203  32.686  27.996  14.485
17779W        W90204  39.782   5.991   0.795
17780W        W90205   8.910  38.033   0.821
17781W        W90206  36.334   0.958   2.829
17782W        W90207  43.463  29.662  14.904
17783W        W90208   2.169  30.941   4.488
17784W        W90209  11.554  33.603  10.850
17785W        W90210  21.197  39.988  14.421
17786W        W90211  28.662  22.307  12.934
17787W        W90212   7.778  28.208   2.726
17788W        W90213  20.932  10.434  13.512
17789W        W90214  40.478  31.182   2.540
17790W        W90215  43.983  30.908   4.238
17791W        W90216  31.452  16.245   4.242
17792W        W90217  15.839  38.502  10.978
17793W        W90218  25.088  11.119  12.467
17794W        W90219  41.636  30.522   1.452
17795W        W90220  40.901  13.897  10.737
17796W        W90221  15.229  35.599   1.110
17797W        W90222  22.676  18.768  12.113
17798W        W90223   8.667   1.735  13.064
17799W        W90224   9.337  14.788   4.534
17800W        W90225  12.012  15.300  10.736
17801W        W90226  17.822  27.606   2.171
17802W        W90227   9.044  16.847   2.646
17803W        W90228  21.701  44.583   1.675
17804W        W90229  41.980  22.018  10.753
17805W        W90230  44.990  15.649   3.671
17806W        W90231  44.924  37.601  12.960
17807W        W90232   8.928  23.515  11.360
17808W        W90233  14.131  15.806  12.352
17809W        W90234   1.823   9.165   0.522
17810W        W90235   9.697   2.967  10.564
17811W        W90236  43.863  21.655   4.854
17812W        W90237   4.033  12.960   1.646
17813W        W90238  21.170  12.118  11.644
17814W        W90239  15.374   2.300  10.664
17815W        W90240  24.536  39.027   0.707
17816W        W90241   5.662  15.644   2.371
17817W        W90242   6.404  34.669   4.490
17818W        W90243  15.613  21.645   0.473
17819W        W90244   1.931  39.892  14.876
17820W        W90245  30.258  17.239  13.095
17821W        W90246   3.135  38.328   3.920
17822W        W90247  41.410  32.154  10.748
17823W        W90248  11.883   6.097   2.675
17824W        W90249   5.255  22.523   4.601
17825W        W90250  29.486  37.535  14.572
17826W        W90251  19.217  15.594  12.871
17827W        W90252  23.478  30.789   1.950
17828W        W90253  30.448  22.137  13.590
17829W        W90254  44.525  17.315  13.569
17830W        W90255  27.348  40.491   2.039
17831W        W90256   9.702   4.935  12.048
17832W        W90257  15.906  14.684  11.916
17833W        W90258  39.452   7.810   2.286
17834W        W90259  40.709  14.746   1.662
17835W        W90260  34.507   2.267  14.809
17836W        W90261  20.672  36.776  14.775
17837W        W90262  22.401  38.491   0.097
17838W        W90263  34.894   6.921  12.910
17839W        W90264  22.773  33.440  10.674
17840W        W90265  32.391   3.357   1.371
17841W        W90266  39.791  37.290   0.050
17842W        W90267   7.266  18.213   0.067
17843W        W90268  31.444  31.024  12.561
17844W        W90269  15.620  24.772   2.430
17845W        W90270  44.825  29.685  10.630
17846W        W90271  35.650  19.194  14.942
17847W        W90272   3.587  40.618  12.812
17848W        W90273   7.377  26.500   1.331
17849W        W90274  41.759   5.145  12.934
17850W        W90275  37.652  13.549  13.968
17851W        W90276  21.740  39.981  14.507
17852W        W90277  14.161  36.184   1.954
17853W        W90278  11.184  13.704  10.466
17854W        W90279  31.899  11.675   2.434
17855W        W90280  15.170   4.041  12.691
17856W        W90281  44.671  22.520  12.853
17857W        W90282  39.951  42.752   4.202
17858W        W90283  38.534   2.180  14.474
17859W        W90284  10.539  27.405  12.370
17860W        W90285   0.959  31.663  13.681
17861W        W90286  33.496  37.895   2.322
17862W        W90287   3.355  12.831   2.179
17863W        W90288  20.328  25.162  11.553
17864W        W90289  29.735  38.946  14.777
17865W        W90290   1.194  18.305   2.198
17866W        W90291  27.009  22.878  13.742
17867W        W90292  38.919   4.183  10.669
17868W        W90293   4.177  18.116   4.785
17869W        W90294  17.641  25.675   0.665
17870W        W90295  24.714  38.395   2.758
17871W        W90296  35.597  25.047  10.782
17872W        W90297   4.887  25.776  12.187
17873W        W90298  24.427  14.757  11.658
17874W        W90299  36.875  28.884  14.399
17875W        W90300   8.863  16.266  10.695
17876W        W90301  34.847  19.740   4.815
17877W        W90302  44.659   2.319   3.732
17878W        W90303  44.319  24.173  10.441
17879W        W90304  35.168  29.930   3.251
17880W        W90305  33.022   5.789  12.369
17881W        W90306   4.208  13.865   2.280
17882W        W90307  32.327  18.085   4.158
17883W        W90308  33.575  36.094   3.660
17884W        W90309  43.392  17.554  13.089
17885W        W90310  13.649  19.674  10.747
17886W        W90311  28.888  33.545   4.474
17887W        W90312  10.974  26.420   2.896
17888W        W90313  31.111  34.036  11.151
17889W        W90314  15.984  28.161   3.385
17890W        W90315   4.612   7.671  13.513
17891W        W90316  34.547   4.666  10.518
17892W        W90317  35.492  23.134  13.509
17893W        W90318  21.162  37.765   4.959
17894W        W90319  40.936  13.612  13.008
17895W        W90320  40.775   5.706   3.186
17896W        W90321  20.118  10.074   2.205
17897W        W90322  37.572  31.400   1.424
17898W        W90323  30.630  42.896   0.842
17899W        W90324   3.424  37.638   1.975
17900W        W90325  28.536  22.002   3.241
17901W        W90326   5.183  44.801  13.576
17902W        W90327  19.534   4.836   2.652
17903W        W90328   4.039  10.716  11.118
17904W        W90329  31.389  41.917   1.354
17905W        W90330  12.855  39.001   3.179
17906W        W90331  17.080  11.845   3.630
17907W        W90332  15.697   0.751  14.346
17908W        W90333  22.622  35.580   1.706
17909W        W90334   7.222  25.587   2.194
17910W        W90335  21.018  29.873  10.814
17911W        W90336  33.938  37.795  11.472
17912W        W90337  38.891  11.154  14.855
17913W        W90338  17.982   5.598  14.052
17914W        W90339  18.495  11.868  13.598
17915W        W90340  42.240  32.915   0.682
17916W        W90341  18.945   6.721   3.627
17917W        W90342  26.278  21.970  12.028
17918W        W90343   1.734  16.831  12.873
17919W        W90344  18.789  44.060  12.982
17920W        W90345  29.570  12.844  11.625
17921W        W90346  44.476  10.512  11.825
17922W        W90347  13.604  44.974   0.723
17923W        W90348   2.477  37.861   1.330
17924W        W90349  31.257  24.177  12.547
17925W        W90350  23.654  38.196  13.347
17926W        W90351  28.742  28.212  14.681
17927W        W90352  44.978  15.134  13.400
17928W        W90353   8.683  14.190   1.597
17929W        W90354   2.376  37.144   3.087
17930W        W90355   1.250  21.121   2.792
17931W        W90356   0.894   8.385  11.384
17932W        W90357   4.463  25.664  13.954
17933W        W90358  14.684  40.309  12.036
17934W        W90359  17.826  28.078   4.651
17935W        W90360  42.259  40.455  11.967
17936W        W90361  15.355  14.146   2.162
17937W        W90362  17.118   3.554   3.942
17938W        W90363  16.334   4.341  12.623
17939W        W90364  33.187   5.683  14.549
17940W        W90365  42.268   1.700  11.572
17941W        W90366  14.069  18.933  12.938
17942W        W90367  18.928   7.683  10.470
17943W        W90368  18.497  19.051   3.705
17944W        W90369  23.743  39.854  13.519
17945W        W90370   2.469   4.720  10.749
17946W        W90371  38.650   3.687   9.973
17947W        W90372  15.131  13.570  14.538
17948W        W90373   1.827  27.948   0.675
17949W        W90374  14.173   8.943  12.845
17950W        W90375  16.068  34.370  14.344
17951W        W90376  37.924   1.991   2.245
17952W        W90377  44.614  35.531   3.693
17953W        W90378  35.727  38.370  13.404
17954W        W90379  14.523  22.090   4.523
17955W        W90380  43.459   3.859   3.456
17956W        W90381  25.119  27.009  14.102
17957W        W90382  10.436  18.087  14.532
17958W        W90383   9.382  34.895  11.908
17959W        W90384  42.023  42.588  12.691
17960W        W90385   9.829   7.935  13.493
17961W        W90386  10.389  15.232   3.780
17962W        W90387  14.367  37.924  11.962
17963W        W90388  33.572   3.322   0.720
17964W        W90389  41.465  38.344  14.441
17965W        W90390  39.418  13.122   4.595
17966W        W90391  28.975  30.483  10.991
17967W        W90392  25.246  44.669  12.848
17968W        W90393  41.756  15.208   3.736
17969W        W90394  41.458  40.854  13.298
17970W        W90395  34.840  13.073  14.604
17971W        W90396   4.123  38.972  13.811
17972W        W90397  41.336  12.849   3.195
17973W        W90398   5.705  40.347   4.510
17974W        W90399  24.673  16.568   2.384
17975W        W90400   8.955  34.441  13.392
17976W        W90401  37.871  15.116   0.332
17977W        W90402  42.231  27.375  13.093
17978W        W90403  29.505  12.008  10.264
17979W        W90404  44.103   1.337  11.329
17980W        W90405  11.398  39.890   4.113
17981W        W90406   0.489  33.364   5.522
17982W        W90407  19.282  21.647  11.622
17983W        W90408  44.636   3.658   0.940
17984W        W90409   1.922  39.948  11.207
17985W        W90410   9.452  23.144   0.975
17986W        W90411  17.527   1.821  13.665
17987W        W90412  31.114  26.663  10.791
17988W        W90413  26.735  34.749  12.615
17989W        W90414  36.029  34.461  12.939
17990W        W90415  44.901  43.614  10.910
17991W        W90416  27.135  21.728   1.984
17992W        W90417  30.540  10.236   5.085
17993W        W90418  16.235  29.483   4.348
17994W        W90419   0.970   4.878   2.936
17995W        W90420  27.445   1.728  12.075
17996W        W90421  44.709   1.856   5.118
17997W        W90422   0.765  12.593  13.120
17998W        W90423   3.960   2.948   4.331
17999W        W90424  33.603  23.177  13.119
18000W        W90425  27.837  23.121  12.471
18001W        W90426   9.700  42.729   0.313
18002W        W90427  14.187  20.906  11.965
18003W        W90428  41.985  40.895   1.310
18004W        W90429   2.470  13.105   4.496
18005W        W90430   5.886  41.765   0.950
18006W        W90431  30.860  43.523   2.797
18007W        W90432  43.604  25.003   5.093
18008W        W90433  42.464  10.106  13.857
18009W        W90434  22.593   5.157   2.650
18010W        W90435  17.125  12.653   4.347
18011W        W90436  44.102  43.868   3.288
18012W        W90437   4.973  26.279  12.460
18013W        W90438  21.810  43.501  12.484
18014W        W90439  13.181  27.209   0.731
18015W        W90440   2.481  24.803  11.883
18016W        W90441  41.543  13.190   0.824
18017W        W90442  10.664   7.412   0.874
18018W        W90443   5.434  33.956   1.899
18019W        W90444  39.791  37.409   4.255
18020W        W90445  34.535  37.962  10.743
18021W        W90446   7.302  11.900   1.128
18022W        W90447   8.384  37.017  13.199
18023W        W90448  11.128  11.885   0.445
18024W        W90449  11.615  20.612   1.300
18025W        W90450  36.606   9.381  13.541
18026W        W90451  15.530  33.788   1.606
18027W        W90452  20.468  31.489   2.328
18028W        W90453   7.722  30.926   2.174
18029W        W90454  10.643  26.544   0.733
18030W        W90455  35.720   7.712  14.434
18031W        W90456  20.156   6.290  10.737
18032W        W90457  36.768  21.495   3.771
18033W        W90458   7.658   7.429   1.410
18034W        W90459  23.010  29.766   1.824
18035W        W90460  15.737  21.495   1.421
18036W        W90461  26.999  19.761  10.653
18037W        W90462  34.159   7.303   3.041
18038W        W90463  29.690  31.018  13.368
18039W        W90464  15.666  20.791   3.698
18040W        W90465  22.935   5.194  11.549
18041W        W90466   0.892  41.691  10.451
18042W        W90467  36.534   7.895  11.788
18043W        W90468   6.948  34.343  14.879
18044W        W90469  43.640  33.218   3.239
18045W        W90470   7.230  34.513   0.399
18046W        W90471   9.364  31.476  10.868
18047W        W90472   5.048   3.375  12.487
18048W        W90473  18.665  24.946  12.391
18049W        W90474  43.784  31.143   4.667
18050W        W90475  29.118  29.519  13.940
18051W        W90476  34.082  21.262   1.400
18052W        W90477   5.277  40.378   4.238
18053W        W90478  10.745   1.338  11.119
18054W        W90479   6.359   0.883   4.249
18055W        W90480   5.145  27.189  13.986
18056W        W90481  11.133  10.743   2.197
18057W        W90482  14.323  21.277   4.563
18058W        W90483  13.736  22.197   3.800
18059W        W90484  38.930  35.735   4.553
18060W        W90485  39.991   9.713   4.517
18061W        W90486   8.793  22.795   0.473
18062W        W90487   3.555   5.920  11.934
18063W        W90488  39.323   1.152   4.229
18064W        W90489  11.694  13.014  14.280
18065W        W90490  29.396  21.725   0.920
18066W        W90491  10.312  21.610   1.314
18067W        W90492  16.760  40.206   2.036
18068W        W90493  27.434  29.785  10.601
18069W        W90494  34.886  21.794   2.345
18070W        W90495  36.189  23.021  14.270
18071W        W90496  10.356  18.114  11.493
18072W        W90497  20.212  34.124   4.201
18073W        W90498  37.823  41.964  12.944
18074W        W90499  40.621  44.903   2.801
18075W        W90500  27.264  26.066   2.799
18076W        W90501   8.228  43.505   2.351
18077W        W90502  22.097   5.215   1.389
18078W        W90503  44.155  12.038  10.219
18079W        W90504  14.155   6.456   3.430
18080W        W90505   3.940  12.197  13.912
18081W        W90506   1.031  27.185   0.844
18082W        W90507  25.906  40.408  13.567
18083W        W90508   2.391  44.832   2.350
18084W        W90509  36.065  26.948  11.497
18085W        W90510   2.240  19.199   1.339
18086W        W90511  13.594  20.311   2.825
18087W        W90512  26.960  26.627  10.880
18088W        W90513  32.634   6.482   3.408
18089W        W90514  13.145  42.446   2.892
18090W        W90515  33.869  17.552  10.701
18091W        W90516   6.313   7.705   3.306
18092W        W90517   5.051  11.443  13.863
18093W        W90518  35.856  32.250  14.554
18094W        W90519  26.141  18.645   1.799
18095W        W90520  15.046   9.369   4.408
18096W        W90521  44.236   6.662   3.187
18097W        W90522  24.978  20.204   0.509
18098W        W90523   0.268   9.155  11.076
18099W        W90524  43.972  20.719   4.417
18100W        W90525  11.706  21.928   1.710
18101W        W90526  34.062   2.373  10.515
18102W        W90527  17.670  28.642  12.886
18103W        W90528  40.255  23.193   1.773
18104W        W90529  25.758   6.240   0.043
18105W        W90530   0.632   3.684  13.989
18106W        W90531  36.439  16.156   1.051
18107W        W90532   3.978   0.161  14.816
18108W        W90533  20.890  29.177  14.517
18109W        W90534  38.620  29.901  13.242
18110W        W90535  12.775  37.014   0.415
18111W        W90536   4.638  31.115  13.917
18112W        W90537  27.485  31.238   0.386
18113W        W90538  37.580  31.233   4.118
18114W        W90539  29.152  40.428  13.267
18115W        W90540  33.048  32.098  12.929
18116W        W90541  37.988  36.758   3.348
18117W        W90542  12.373  31.055  14.260
18118W        W90543  25.816  43.480  14.419
18119W        W90544  21.951  22.437  11.453
18120W        W90545  23.096  21.294   4.505
18121W        W90546  44.541  44.941   3.645
18122W        W90547  37.394  26.567  12.882
18123W        W90548  12.838  42.798   2.671
18124W        W90549  44.568   0.393  12.799
18125W        W90550  18.714  40.462   0.371
18126W        W90551   1.290  29.166   1.205
18127W        W90552  11.027   9.749  11.179
18128W        W90553  19.680  42.267   1.122
18129W        W90554  22.957  25.096   0.375
18130W        W90555  32.904  11.583   4.014
18131W        W90556   3.734  42.057  10.767
18132W        W90557   7.626   9.665  13.437
18133W        W90558   0.920  26.524  12.630
18134W        W90559   1.437  18.701   1.362
18135W        W90560   3.445   8.735  13.942
18136W        W90561  23.123  21.616  12.656
18137W        W90562  44.272  24.543   5.003
18138W        W90563  24.732  11.480  14.312
18139W        W90564  28.534  41.446  10.869
18140W        W90565  22.138  44.685   0.217
18141W        W90566  40.791  12.077  12.002
18142W        W90567  12.820  18.577  13.648
18143W        W90568  21.801  20.373  11.110
18144W        W90569   7.696  27.636   1.017
18145W        W90570   6.411   0.199   0.375
18146W        W90571  36.771  14.178  12.508
18147W        W90572  19.539  33.163   0.283
18148W        W90573  24.046   5.686  14.421
18149W        W90574  38.638  40.963  11.529
18150W        W90575   8.172  34.686   1.585
18151W        W90576  18.696   5.001  13.861
18152W        W90577   2.097  12.044  12.916
18153W        W90578   2.755  34.445   4.103
18154W        W90579  30.756  41.848  14.573
18155W        W90580   6.871  28.624  13.828
18156W        W90581  36.604   9.234  11.179
18157W        W90582   4.437  11.098   0.939
18158W        W90583   6.275  25.789  14.268
18159W        W90584  11.271  10.897   0.379
18160W        W90585   9.194  44.079  11.053
18161W        W90586  36.606  38.460   4.570
18162W        W90587  12.741   6.099  12.425
18163W        W90588  32.918  11.426  13.515
18164W        W90589   8.726  30.567  11.981
18165W        W90590   2.705  27.029  14.092
18166W        W90591  31.656   7.859  14.740
18167W        W90592  28.980  31.820  10.791
18168W        W90593  10.088  19.793  12.930
18169W        W90594  26.523  16.449   0.607
18170W        W90595  12.152  30.690  11.639
18171W        W90596  21.976   6.139  10.462
18172W        W90597  18.482  43.427   2.383
18173W        W90598  35.338  20.818   0.400
18174W        W90599   9.680  13.189   2.764
18175W        W90600   2.244   4.862  10.307
18176W        W90601  28.673  36.264  11.557
18177W        W90602   2.719   8.925   2.267
18178W        W90603   3.380  15.678  10.996
18179W        W90604  21.157   1.774   3.048
18180W        W90605  34.057  16.585   0.160
18181W        W90606   2.813   0.023   2.619
18182W        W90607  27.686  28.940  10.792
18183W        W90608  17.807  16.791   2.398
18184W        W90609  20.026  44.894  12.584
18185W        W90610  23.247  38.542  14.277
18186W        W90611  10.352  40.554   3.273
18187W        W90612  38.865  13.920   2.586
18188W        W90613  42.358  23.347   0.833
18189W        W90614  31.683  34.642   1.288
18190W        W90615  32.777   3.772  10.913
18191W        W90616  34.137  21.726  12.335
18192W        W90617  38.965  31.256   4.245
18193W        W90618  34.992  35.226   1.838
18194W        W90619   8.238   8.819  12.159
18195W        W90620  44.739  29.972  13.886
18196W        W90621  37.545  36.620  12.450
18197W        W90622  13.154  39.495   0.660
18198W        W90623  37.960  37.791  12.423
18199W        W90624   5.898  33.524  13.912
18200W        W90625   7.784  19.341   4.378
18201W        W90626  37.823  14.156  12.445
18202W        W90627   3.873  32.407  12.465
18203W        W90628   9.806   1.366  10.741
18204W        W90629  43.663  39.490   2.152
18205W        W90630  34.632  31.521  14.468
18206W        W90631   5.548   8.254   2.305
18207W        W90632  26.202  44.074  12.326
18208W        W90633  33.830  11.012  13.426
18209W        W90634  26.193  25.508  12.509
18210W        W90635  23.051  37.969   3.635
18211W        W90636  40.021  32.484  10.671
18212W        W90637  19.125   1.403  12.504
18213W        W90638  30.500  20.349   0.222
18214W        W90639  41.777  27.139  11.338
18215W        W90640  21.370   3.959   1.832
18216W        W90641  24.047  33.084  10.737
18217W        W90642  28.291  42.100  12.621
18218W        W90643  20.332  26.162   2.270
18219W        W90644  21.734  17.275   2.710
18220W        W90645   9.950  32.943   3.335
18221W        W90646  26.439  10.566   2.960
18222W        W90647  14.179   8.657  12.416
18223W        W90648  37.958   2.437   3.750
18224W        W90649  18.898  38.913   1.792
18225W        W90650   7.488  28.703  13.470
18226W        W90651  34.462  25.680   0.959
18227W        W90652  19.376  11.103   1.677
18228W        W90653  14.621  31.169  13.028
18229W        W90654  39.762   9.565   3.660
18230W        W90655  29.630  21.276   0.962
18231W        W90656   9.723  22.631  10.964
18232W        W90657   1.505  21.027   3.226
18233W        W90658  31.494  20.273  14.293
18234W        W90659  42.982  35.412  11.712
18235W        W90660  16.597  32.742  11.672
18236W        W90661  27.880  41.284   3.799
18237W        W90662  29.576  24.167   5.079
18238W        W90663  39.099  27.084  11.016
18239W        W90664   8.199  22.073  12.422
18240W        W90665  41.682  16.923   0.924
18241W        W90666  28.486  24.693   1.670
18242W        W90667  33.915  11.926  11.044
18243W        W90668  40.373  27.776   0.927
18244W        W90669  17.544  27.478  10.917
18245W        W90670  25.048  31.693   4.154
18246W        W90671   3.779   3.175   3.389
18247W        W90672  15.046  41.693   0.844
18248W        W90673  24.002   4.786   0.498
18249W        W90674  39.061  18.557   0.864
18250W        W90675   9.408  24.458   4.185
18251W        W90676  18.827   2.501  12.985
18252W        W90677  21.663   5.618  13.422
18253W        W90678   0.473  15.544  11.914
18254W        W90679   5.935  22.892   1.451
18255W        W90680  32.148  37.735  12.984
18256W        W90681  30.873  19.058  12.088
18257W        W90682  31.948   4.558   3.272
18258W        W90683  12.330  20.122   1.748
18259W        W90684  17.621   9.801   4.007
18260W        W90685  13.806  24.167   2.111
18261W        W90686  30.375  20.094   3.570
18262W        W90687  34.330  20.251   0.700
18263W        W90688  39.480  37.796  12.131
18264W        W90689   1.642  37.489  13.351
18265W        W90690  32.169  24.031   3.245
18266W        W90691  43.944   3.935   1.367
18267W        W90692  38.418  39.030   2.182
18268W        W90693   0.298   6.904   4.349
18269W        W90694  42.284   5.232  14.914
18270W        W90695   4.029  26.415   2.573
18271W        W90696  31.164  31.573   0.161
18272W        W90697  11.360   0.850  14.691
18273W        W90698  40.381   9.640   1.892
18274W        W90699  22.296  22.183   2.263
18275W        W90700   5.803  42.989  14.757
18276W        W90701  26.775  11.769   1.109
18277W        W90702  43.584  13.247   4.093
18278W        W90703  24.520  23.939   1.862
18279W        W90704  43.794  43.081  11.130
18280W        W90705   5.873  21.282   0.519
18281W        W90706  39.756   7.199  13.875
18282W        W90707  25.696   4.736   4.129
18283W        W90708  32.432   5.757  10.698
18284W        W90709  30.141  33.147  10.585
18285W        W90710  44.479  14.019  14.863
18286W        W90711  31.316  26.676   4.743
18287W        W90712  16.093  39.056  11.172
18288W        W90713   5.376   8.629   3.148
18289W        W90714   3.509  42.868   0.347
18290W        W90715  11.366   9.321  13.373
18291W        W90716  17.006   8.929  14.831
18292W        W90717  30.426   2.931  14.791
18293W        W90718  37.914   8.197   0.002
18294W        W90719  13.688  10.744  14.755
18295W        W90720  24.179  21.717   0.504
18296W        W90721  34.982  28.234   4.286
18297W        W90722   2.623   7.045   2.329
18298W        W90723   1.344  39.785   4.147
18299W        W90724   6.482  27.650  12.448
18300W        W90725  25.219  34.471  11.426
18301W        W90726   9.651  27.668   2.369
18302W        W90727  12.247  36.021   3.818
18303W        W90728  34.345  20.514  11.899
18304W        W90729  15.779  11.722   0.844
18305W        W90730  39.072  38.430   4.626
18306W        W90731   4.420  38.775   1.728
18307W        W90732  42.314  14.459  13.480
18308W        W90733  31.047  15.561  11.563
18309W        W90734   0.865  28.863   4.889
18310W        W90735  30.674  23.426   2.707
18311W        W90736  18.591  24.632  13.562
18312W        W90737   2.007  11.490  11.010
18313W        W90738   3.443  37.486   3.766
18314W        W90739  16.062   5.655  14.500
18315W        W90740  24.699   2.558  14.886
18316W        W90741   5.345  29.574  13.554
18317W        W90742  16.292  32.704   0.026
18318W        W90743  33.653  10.742  12.991
18319W        W90744  36.402  37.904  13.580
18320W        W90745  12.793   8.720   4.162
18321W        W90746   6.905  12.550   0.481
18322W        W90747  31.440   1.436  12.206
18323W        W90748  37.066  38.873   2.980
18324W        W90749  18.513   1.939   2.418
18325W        W90750  13.734   3.261   3.180
18326W        W90751  39.215  37.593   1.788
18327W        W90752  11.798  37.146   0.412
18328W        W90753   6.972  22.522  13.052
18329W        W90754  24.266  29.353   0.595
18330W        W90755  20.867  15.137   4.183
18331W        W90756  11.955  42.799   0.906
18332W        W90757  44.205  40.893  14.788
18333W        W90758  10.373  41.522   1.395
18334W        W90759  13.290  20.853  14.089
18335W        W90760  23.992  20.331  11.117
18336W        W90761   5.730  37.909  11.218
18337W        W90762  32.946  25.167   3.207
18338W        W90763   0.506  39.763   2.679
18339W        W90764  32.180  12.280  12.491
18340W        W90765   8.748  30.091  13.364
18341W        W90766  24.968  29.103  12.918
18342W        W90767   1.117  31.443   0.925
18343W        W90768  17.246  37.625   1.951
18344W        W90769  29.003  18.139  14.795
18345W        W90770   9.335  17.510   2.249
18346W        W90771  14.098  20.203   3.072
18347W        W90772  16.341  34.848  13.057
18348W        W90773  29.027  21.760   2.216
18349W        W90774   2.795  39.012  11.219
18350W        W90775   8.899   6.671  12.405
18351W        W90776  12.098  41.670  13.893
18352W        W90777  17.566   1.199   3.665
18353W        W90778  13.775  39.598   2.834
18354W        W90779  16.846  21.640  13.546
18355W        W90780  34.363  44.767  12.037
18356W        W90781  20.954  39.846   3.265
18357W        W90782  24.688  31.435  11.459
18358W        W90783   1.056   7.486  12.791
18359W        W90784  33.136  43.761  11.034
18360W        W90785  26.123   0.821  13.418
18361W        W90786  27.708  15.168   3.349
18362W        W90787  22.642  37.606   1.600
18363W        W90788  33.715   4.424   2.774
18364W        W90789  11.115  25.203   1.771
18365W        W90790  17.414  32.584  10.214
18366W        W90791  12.197   4.275  14.731
18367W        W90792   0.376  22.276  14.536
18368W        W90793  11.751   8.887   3.576
18369W        W90794  15.285  32.915  14.022
18370W        W90795   9.507  31.901   2.684
18371W        W90796  21.893  27.484   0.956
18372W        W90797  43.384  23.724   4.450
18373W        W90798   2.350  11.853   5.035
18374W        W90799   8.731  12.279   3.269
18375W        W90800  29.653  27.608  13.294
18376W        W90801   7.361  12.717   1.713
18377W        W90802  25.790  39.706   3.193
18378W        W90803  15.680  39.807   0.522
18379W        W90804  36.339  43.836  14.302
18380W        W90805   9.037  39.286   1.668
18381W        W90806  11.108  42.464  12.134
18382W        W90807  21.104   1.025   3.696
18383W        W90808  10.538  16.197  11.515
18384W        W90809  43.799   3.236   3.321
18385W        W90810  44.057  42.221  12.482
18386W        W90811  16.080  28.154  13.048
18387W        W90812   4.344  23.454   3.836
18388W        W90813  11.709  39.292  14.126
18389W        W90814  23.005   9.290  12.091
18390W        W90815  15.804  12.233  14.989
18391W        W90816   4.376  17.584   3.632
18392W        W90817  27.015  20.657  13.740
18393W        W90818  43.786  39.746   4.112
18394W        W90819   7.231  14.143   3.388
18395W        W90820  34.456  19.843   1.034
18396W        W90821  35.186   7.139  13.556
18397W        W90822  32.483  43.376  14.241
18398W        W90823   0.749  25.848   4.554
18399W        W90824  36.929  16.823  11.511
18400W        W90825  37.826  39.064  11.160
18401W        W90826  20.433   0.968  14.884
18402W        W90827  16.635  36.079   0.248
18403W        W90828  19.245  44.961  10.343
18404W        W90829  23.555  40.285  14.982
18405W        W90830  40.529  19.331  13.640
18406W        W90831  11.692  43.641  11.042
18407W        W90832  29.107  18.898   4.432
18408W        W90833  13.552  11.721   1.539
18409W        W90834  17.478  15.716   2.186
18410W        W90835   2.287  38.479   4.919
18411W        W90836  21.446   3.756  14.994
18412W        W90837   5.701   1.375   1.976
18413W        W90838  26.678  30.563   1.277
18414W        W90839  12.356  18.715   2.697
18415W        W90840  44.839  25.957  13.959
18416W        W90841  15.703   3.835  13.856
18417W        W90842   8.383  26.858   1.646
18418W        W90843  18.144  33.690  13.976
18419W        W90844  40.260   1.657  13.910
18420W        W90845  33.493  21.733  13.047
18421W        W90846  39.004  44.028   5.152
18422W        W90847  44.797  42.410  11.899
18423W        W90848  34.865  30.329   2.005
18424W        W90849   5.727  29.004   2.146
18425W        W90850  39.848   7.390   1.610
18426W        W90851  21.052   0.178  10.270
18427W        W90852   6.411  33.236  13.036
18428W        W90853  14.989   8.123   1.349
18429W        W90854  38.865  34.784  10.653
18430W        W90855  17.689  41.776  10.737
18431W        W90856  29.170  19.310   1.246
18432W        W90857  33.770  22.339   4.624
18433W        W90858  18.034  40.260  13.118
18434W        W90859  13.007  31.012  13.437
18435W        W90860  29.437   3.321  10.666
18436W        W90861  40.367  10.891   3.299
18437W        W90862  42.259  25.396  13.507
18438W        W90863   7.295  10.701   1.868
18439W        W90864  32.948  10.333   1.292
18440W        W90865  38.032  34.438  13.769
18441W        W90866  17.946  15.766   1.938
18442W        W90867  33.550  40.767  13.111
18443W        W90868  24.913  44.532  14.095
18444W        W90869  11.688   6.781  14.044
18445W        W90870  17.744   7.268  13.057
18446W        W90871  44.831   9.323  14.538
18447W        W90872   6.371  35.382   0.475
18448W        W90873  16.151  41.302   4.036
18449W        W90874  14.368  10.386   3.722
18450W        W90875  18.073  44.028  14.382
18451W        W90876  41.269  11.247  11.029
18452W        W90877  40.990  43.603  12.533
18453W        W90878  37.330   2.659  12.168
18454W        W90879  13.300  20.244   0.297
18455W        W90880  41.615  19.229   3.858
18456W        W90881  30.420  29.781  14.251
18457W        W90882  12.177  11.155  13.804
18458W        W90883  18.233  24.634  11.632
18459W        W90884  19.689   7.793  14.502
18460W        W90885  28.932   2.293  10.775
18461W        W90886   9.402  19.990   3.652
18462W        W90887  24.438   6.456   0.238
18463W        W90888  13.332  15.924  13.373
18464W        W90889   6.800   5.718  12.809
18465W        W90890   0.338  12.107   2.194
18466W        W90891  42.506  36.160   3.111
18467W        W90892   2.856  35.437  13.809
18468W        W90893   0.197  35.162  13.846
18469W        W90894  28.212  19.227   2.418
18470W        W90895  12.772   0.648   1.323
18471W        W90896  22.883   4.241  14.968
18472W        W90897  20.206  22.318   2.185
18473W        W90898  40.446   8.808   2.291
18474W        W90899  30.708  44.289  12.405
18475W        W90900  17.772  16.033  11.201
18476W        W90901  37.810   0.847  10.669
18477W        W90902  38.513  13.128   3.630
18478W        W90903   7.449  33.256  14.299
18479W        W90904  31.038  38.941  12.506
18480W        W90905   2.361  23.479  12.959
18481W        W90906  36.826  18.536  13.645
18482W        W90907   4.657   8.786  11.093
18483W        W90908   2.260  39.035   0.863
18484W        W90909   7.330   7.610  11.119
18485W        W90910   9.862  38.833  14.428
18486W        W90911  12.358  22.298   0.467
18487W        W90912  26.556  41.608   3.709
18488W        W90913  19.498  12.569  13.031
18489W        W90914  38.167  38.407  10.723
18490W        W90915  15.342  15.185  12.195
18491W        W90916  18.442  10.748   3.346
18492W        W90917  26.482  44.859   0.805
18493W        W90918  25.707   2.879   4.612
18494W        W90919  22.526  25.790  14.561
18495W        W90920  20.637  29.583  14.297
18496W        W90921   7.368  31.475  13.054
18497W        W90922  22.648  16.205   1.251
18498W        W90923  37.035  32.052  13.062
18499W        W90924  11.331  38.372   1.150
18500W        W90925  19.982  23.991   0.736
18501W        W90926  31.091  10.100  11.053
18502W        W90927   8.822  14.190   3.748
18503W        W90928  33.827  13.377  10.661
18504W        W90929   4.657  12.095   0.410
18505W        W90930   4.282   6.402  10.914
18506W        W90931  35.866  26.708  14.983
18507W        W90932  15.541  42.089  11.128
18508W        W90933  41.500   1.343   1.282
18509W        W90934  19.938   5.452  14.324
18510W        W90935  10.213  29.698  10.876
18511W        W90936  35.622  15.235   2.324
18512W        W90937   0.200  18.011  11.201
18513W        W90938  24.253  39.081  12.907
18514W        W90939  43.885  32.160   1.760
18515W        W90940  27.612  22.293   2.272
18516W        W90941   5.173  41.973   4.091
18517W        W90942  39.800  20.134  10.688
18518W        W90943  22.203  36.875  14.390
18519W        W90944  40.894   3.383   2.147
18520W        W90945  21.313  37.413  13.386
18521W        W90946  12.132  24.336  12.788
18522W        W90947  31.465  14.190  12.063
18523W        W90948  15.767  30.402  13.364
18524W        W90949  13.081  11.054   0.503
18525W        W90950  31.568  32.774  12.512
18526W        W90951   2.807  15.367  14.014
18527W        W90952  41.582  43.621   0.935
18528W        W90953  41.347   9.970   4.147
18529W        W90954  40.865   9.266  13.888
18530W        W90955  31.006  15.588  13.150
18531W        W90956   8.329  41.716  13.267
18532W        W90957  27.146  19.005  11.923
18533W        W90958  30.052  17.591  10.706
18534W        W90959   0.731  18.665  13.926
18535W        W90960  24.470   8.638   4.170
18536W        W90961  16.690  23.345   1.470
18537W        W90962   2.933  24.410  14.924
18538W        W90963  17.640   5.611   1.758
18539W        W90964  44.520  22.050  14.762
18540W        W90965  25.025   2.242   1.342
18541W        W90966  34.397  36.797   3.339
18542W        W90967   3.363  42.162   5.076
18543W        W90968   3.258  41.962  11.518
18544W        W90969  36.896  29.166   3.575
18545W        W90970  13.359   7.209   2.721
18546W        W90971  12.627  23.838   0.553
18547W        W90972  17.725  32.494   1.730
18548W        W90973  10.348   4.302   0.201
18549W        W90974  37.245  15.487   1.881
18550W        W90975  30.480   3.838  11.853
18551W        W90976  15.840  23.501   1.262
18552W        W90977  25.346   5.868  11.185
18553W        W90978  32.010  44.704   3.325
18554W        W90979  21.399  40.181   3.272
18555W        W90980  43.549  21.695  12.079
18556W        W90981   0.916  20.039   4.526
18557W        W90982  37.040  11.642  11.030
18558W        W90983  33.980  25.204   3.346
18559W        W90984  12.588  10.693  12.630
18560W        W90985  27.579  25.069   1.828
18561W        W90986  11.773  43.595   2.507
18562W        W90987  18.108   3.302  11.284
18563W        W90988   4.381  23.915   3.570
18564W        W90989  11.099  44.981   1.986
18565W        W90990   8.192  36.410  14.232
18566W        W90991   7.825  18.003  13.386
18567W        W90992   2.968   8.557  11.528
18568W        W90993  21.142  35.317   0.402
18569W        W90994  11.917  10.966   3.770
18570W        W90995  28.911  26.921  12.387
18571W        W90996  27.481  21.019   3.703
18572W        W90997  15.024  32.301   5.473
18573W        W90998   6.680  35.376  14.896
18574W        W90999   5.984  42.207  13.089
18575W        W91000  13.655   5.826  13.067
18576W        W91001  18.079  17.199   2.233
18577W        W91002  29.484  28.053  12.948
18578W        W91003   7.397  40.966  10.638
18579W        W91004  33.452  16.869  12.752
18580W        W91005  14.419   2.738  14.531
18581W        W91006  35.170  31.032   1.696
18582W        W91007  35.575   9.932  14.017
18583W        W91008  27.104  20.683  12.323
18584W        W91009  44.709  30.112  10.908
18585W        W91010  26.505  38.811  13.973
18586W        W91011   5.803  13.328  10.747
18587W        W91012   8.818  38.878   1.345
18588W        W91013  28.624  25.712  13.221
18589W        W91014   5.730  35.964  10.638
18590W        W91015  27.688  43.695   1.233
18591W        W91016  31.213  20.538  10.981
18592W        W91017   3.859  37.818   4.609
18593W        W91018   4.836  24.510   4.668
18594W        W91019  26.765  36.603   3.260
18595W        W91020  43.410  33.314   4.233
18596W        W91021  44.220   2.620   4.604
18597W        W91022  35.199  42.796   5.037
18598W        W91023   9.593  13.325  12.990
18599W        W91024  24.556  13.882  11.141
18600W        W91025  33.032  23.980   0.868
18601W        W91026  14.636  33.931   3.117
18602W        W91027  38.815  38.011  11.396
18603W        W91028  18.750  26.697   4.562
18604W        W91029   1.779  30.091  12.484
18605W        W91030  16.130  12.424   4.061
18606W        W91031  21.293   8.764   1.948
18607W        W91032   8.342  41.017  14.443
18608W        W91033  13.104  21.913   5.472
18609W        W91034  25.503  41.472   1.785
18610W        W91035   5.832  39.368   3.233
18611W        W91036  37.104   5.810  14.543
18612W        W91037  27.528  33.606  14.897
18613W        W91038   6.293  39.305   3.711
18614W        W91039   5.350  41.260   2.211
18615W        W91040  30.917   4.236   1.687
18616W        W91041  43.225  19.790  12.869
18617W        W91042  27.976  34.951   5.057
18618W        W91043  24.749  26.947   3.291
18619W        W91044   1.457  42.252   2.228
18620W        W91045  27.319  40.362   4.243
18621W        W91046  37.415   4.239  14.997
18622W        W91047  10.074  11.322  14.354
18623W        W91048  21.217  37.997  11.017
18624W        W91049  33.094   7.517  13.008
18625W        W91050  34.020  39.818   2.309
18626W        W91051  23.451  13.503  13.721
18627W        W91052  14.067  23.803   4.901
18628W        W91053  14.297  43.573   4.686
18629W        W91054  15.507  18.762  12.955
18630W        W91055   6.309   6.837  11.584
18631W        W91056  11.105  31.485   2.862
18632W        W91057  14.367  31.584  14.494
18633W        W91058  40.980  24.992   1.915
18634W        W91059  10.661  41.898  13.764
18635W        W91060   3.474  42.560   2.728
18636W        W91061  31.362  44.911   1.300
18637W        W91062   2.499  39.184  14.542
18638W        W91063   0.964   4.281   3.721
18639W        W91064  14.170   1.403   3.786
18640W        W91065  40.317   5.932   2.132
18641W        W91066  35.671  30.146  11.207
18642W        W91067  15.895  29.633   0.408
18643W        W91068   8.290  25.476   1.230
18644W        W91069  21.757  18.776   0.003
18645W        W91070   8.114  30.585   0.880
18646W        W91071  34.886  44.781  12.003
18647W        W91072  44.465  38.335   3.813
18648W        W91073  34.489   0.992  10.802
18649W        W91074  33.683   4.828   0.945
18650W        W91075  32.079  19.870   1.541
18651W        W91076   6.839  26.005   2.831
18652W        W91077  21.836  44.448  11.380
18653W        W91078  44.009  15.886  12.707
18654W        W91079   1.404  22.665   2.695
18655W        W91080  29.479   2.293  13.587
18656W        W91081  37.771   5.558  13.964
18657W        W91082  43.160   2.895   1.775
18658W        W91083  19.354   7.815   1.772
18659W        W91084  18.294   3.257   4.365
18660W        W91085   2.491   1.655  11.168
18661W        W91086  42.923  11.349   1.967
18662W        W91087   4.388  10.559   1.837
18663W        W91088   1.882  26.839   3.709
18664W        W91089  31.612  23.103   3.169
18665W        W91090  26.317   4.224  12.579
18666W        W91091  14.501  14.594  11.107
18667W        W91092   1.569  24.386  12.405
18668W        W91093  20.102  20.049   4.666
18669W        W91094  20.454  40.639   0.321
18670W        W91095  19.830  12.379   3.969
18671W        W91096   9.584  25.779   4.013
18672W        W91097  17.622  43.596   0.268
18673W        W91098   4.781  14.322  12.887
18674W        W91099  20.404  24.007  11.212
18675W        W91100  16.674  19.784  11.883
18676W        W91101   7.276  43.424   0.468
18677W        W91102  27.705  14.572   0.401
18678W        W91103  10.116  12.698  10.592
18679W        W91104  24.964  41.589   1.833
18680W        W91105  31.099  12.158   2.262
18681W        W91106   6.248   8.188  12.671
18682W        W91107   7.151  34.652  14.491
18683W        W91108  12.345  15.999   1.265
18684W        W91109  19.567  26.550  10.067
18685W        W91110  22.287  38.856  10.495
18686W        W91111  19.253  10.194  11.714
18687W        W91112   3.443  26.119  12.300
18688W        W91113  36.451  11.183   0.130
18689W        W91114  41.338  21.598   0.761
18690W        W91115  35.669  19.857   2.572
18691W        W91116  11.151  27.641   0.420
18692W        W91117  42.323  34.230  14.406
18693W        W91118   8.860  17.136   4.197
18694W        W91119   0.024  32.489  10.263
18695W        W91120   3.361  41.935  13.978
18696W        W91121  14.118   6.969  13.055
18697W        W91122  34.566  12.245   4.168
18698W        W91123  33.596  16.817   4.122
18699W        W91124  30.416  19.182   1.730
18700W        W91125  36.870  22.496  11.454
18701W        W91126  17.083  15.147  13.053
18702W        W91127   3.639   3.924  11.910
18703W        W91128  29.859  39.970  11.586
18704W        W91129  20.998  18.817  12.052
18705W        W91130  38.888  27.551  14.010
18706W        W91131  39.673  35.437   3.103
18707W        W91132  28.746  33.117  11.132
18708W        W91133   3.373  32.938  14.862
18709W        W91134  11.638  22.962  13.015
18710W        W91135  27.480  14.389  12.574
18711W        W91136   2.285  42.419   0.216
18712W        W91137  31.293  19.741   2.986
18713W        W91138  33.044  43.183   0.667
18714W        W91139  42.856  29.728  13.515
18715W        W91140   6.311  36.171   4.656
18716W        W91141   8.165  20.252   0.210
18717W        W91142   6.205  35.861   5.048
18718W        W91143  34.103  15.296   4.662
18719W        W91144  17.277  20.075   1.770
18720W        W91145  14.835  15.446  12.086
18721W        W91146  43.170  15.805  14.599
18722W        W91147  44.944  23.498   2.160
18723W        W91148  40.926  21.233  11.579
18724W        W91149  34.228  25.648  14.079
18725W        W91150  18.040  22.456   2.611
18726W        W91151   6.862  20.075   3.609
18727W        W91152  10.660  17.174   2.644
18728W        W91153  19.764  21.966   0.929
18729W        W91154   2.411  11.114   3.702
18730W        W91155  27.595  21.377  12.056
18731W        W91156  30.930  21.808   1.204
18732W        W91157  36.488   1.472  13.656
18733W        W91158  24.454  36.002   4.479
18734W        W91159   1.659   1.641   4.349
18735W        W91160  31.475  33.884   0.734
18736W        W91161  39.579   2.499  14.700
18737W        W91162  17.241  41.350  10.223
18738W        W91163  21.018  38.093   1.377
18739W        W91164  20.096  15.986  12.281
18740W        W91165  16.588  22.454   1.647
18741W        W91166  18.842  13.243   4.803
18742W        W91167  32.586  40.736  14.976
18743W        W91168  23.732  28.156   2.377
18744W        W91169  41.211  39.224  11.218
18745W        W91170   9.452   1.389   3.395
18746W        W91171  26.721   1.541   1.770
18747W        W91172   4.463  15.588   2.891
18748W        W91173   2.746  16.818   1.397
18749W        W91174  13.117  20.102   2.686
18750W        W91175   2.041  17.629  14.505
18751W        W91176  37.902  30.407   3.055
18752W        W91177  24.485  15.825  14.267
18753W        W91178  37.478   7.960  14.766
18754W        W91179  29.572  37.388  10.904
18755W        W91180  28.046   0.319  12.034
18756W        W91181  35.984   9.218   4.997
18757W        W91182  38.336  14.047   3.680
18758W        W91183   8.083  31.437  13.608
18759W        W91184  39.290   1.896  13.350
18760W        W91185   3.742  14.080  13.617
18761W        W91186  34.032   2.133   3.050
18762W        W91187  11.685   1.899  13.902
18763W        W91188  28.266   6.591   5.038
18764W        W91189  22.098  31.111   1.988
18765W        W91190   3.435  28.038   3.190
18766W        W91191   3.376  28.777   1.327
18767W        W91192  41.403   0.209  13.318
18768W        W91193  35.394   8.039   1.502
18769W        W91194  31.974  35.338  14.919
18770W        W91195  18.656  35.221   3.702
18771W        W91196  38.601   8.631   3.713
18772W        W91197   3.717   6.162   4.837
18773W        W91198  17.763  12.906   3.298
18774W        W91199  13.109  37.335   3.637
18775W        W91200  34.046  31.202   1.028
18776W        W91201  42.281  12.418   1.796
18777W        W91202   3.714  17.942  10.788
18778W        W91203  34.869   4.821  10.126
18779W        W91204   7.284   2.381   2.676
18780W        W91205  25.502  20.821  14.113
18781W        W91206   2.257  41.535   0.383
18782W        W91207   3.233  37.520  14.889
18783W        W91208  39.840   0.041  14.833
18784W        W91209  12.021  20.221  13.017
18785W        W91210  18.518  38.042  11.143
18786W        W91211  11.337   0.531  11.926
18787W        W91212  43.397  31.783  10.234
18788W        W91213  12.528  25.024   1.776
18789W        W91214   6.920  23.749  14.671
18790W        W91215   9.722  10.625   4.255
18791W        W91216  26.883  26.749  11.369
18792W        W91217  28.997  27.604  11.214
18793W        W91218  36.554  40.826   3.054
18794W        W91219  34.874  33.492  13.599
18795W        W91220  28.112   6.387   2.376
18796W        W91221  10.181  29.339   5.129
18797W        W91222   4.493  33.534   1.002
18798W        W91223   1.084   4.673  13.982
18799W        W91224  30.560   4.619  12.804
18800W        W91225  21.156  42.804  10.019
18801W        W91226  41.864  23.358  11.414
18802W        W91227   5.312  36.418  14.423
18803W        W91228  24.219   0.400  12.568
18804W        W91229  19.319  39.686  12.020
18805W        W91230  26.482   0.470   2.034
18806W        W91231  35.792  40.355   4.488
18807W        W91232  43.973  44.733  14.042
18808W        W91233  35.600  24.892  12.128
18809W        W91234  44.774   7.826  12.908
18810W        W91235  38.061  14.090   1.178
18811W        W91236   6.779  31.081  14.947
18812W        W91237  37.280  13.312  11.967
18813W        W91238  16.396  41.908   4.196
18814W        W91239   6.138  29.734  14.033
18815W        W91240  17.641  23.776  13.979
18816W        W91241   5.536  16.339  11.205
18817W        W91242  15.204  27.178   2.068
18818W        W91243   2.747  38.690  14.503
18819W        W91244  30.831  24.194  12.255
18820W        W91245  27.987  36.326  11.068
18821W        W91246   9.463  41.158  13.414
18822W        W91247  44.423  40.956   2.709
18823W        W91248  11.413   9.315   1.792
18824W        W91249  24.949  33.525   4.507
18825W        W91250  23.165  16.827   2.826
18826W        W91251  11.251  28.988  10.918
18827W        W91252  10.148  33.130  10.481
18828W        W91253  15.195   1.528   3.284
18829W        W91254  27.763   6.237   4.925
18830W        W91255  14.431   4.711   1.712
18831W        W91256   5.817  36.413  14.277
18832W        W91257  34.480   3.753  13.779
18833W        W91258  27.285  26.167   1.414
18834W        W91259  22.111  30.944   0.449
18835W        W91260  41.851  43.865  11.853
18836W        W91261   4.186   6.191  13.605
18837W        W91262  37.639   8.445  14.594
18838W        W91263  21.404  20.648   1.634
18839W        W91264  11.839  35.926  12.560
18840W        W91265  42.275   3.415   1.806
18841W        W91266  14.368  18.745   3.997
18842W        W91267  37.923  16.630  12.814
18843W        W91268  43.786  35.850  11.266
18844W        W91269  22.101   6.595  10.675
18845W        W91270  22.428   4.858   3.211
18846W        W91271   1.991  32.482   3.226
18847W        W91272  21.276  13.240   4.284
18848W        W91273  10.133  24.083  14.823
18849W        W91274   8.021   3.277   1.863
18850W        W91275  19.287  28.145   0.079
18851W        W91276  19.141  35.576   4.337
18852W        W91277  32.659  33.545   1.767
18853W        W91278  15.126  30.982   1.756
18854W        W91279  10.659  16.776   0.430
18855W        W91280  19.906   8.881  11.875
18856W        W91281  26.165   1.383   4.426
18857W        W91282   9.266  40.321   3.236
18858W        W91283  23.718   9.902   4.235
18859W        W91284  10.112  14.016  11.258
18860W        W91285  43.901  22.673  12.879
18861W        W91286   8.177  30.692   4.627
18862W        W91287  32.031   8.449   1.294
18863W        W91288   8.131  19.773  14.439
18864W        W91289  15.079   6.237   1.248
18865W        W91290  44.491  14.652  10.746
18866W        W91291   3.785  34.570  12.969
18867W        W91292  24.403  37.780   1.379
18868W        W91293  16.139  20.035  13.844
18869W        W91294  39.835  27.608  11.002
18870W        W91295  12.795  19.030   2.213
18871W        W91296  29.905   1.934  10.592
18872W        W91297  21.834  23.927  12.343
18873W        W91298  22.210  28.117  10.732
18874W        W91299  17.291  10.582  10.585
18875W        W91300  10.178   7.775  14.505
18876W        W91301  38.311  10.078   1.406
18877W        W91302  30.451  25.903  12.278
18878W        W91303  32.185  38.438  10.827
18879W        W91304   6.428  44.368   0.313
18880W        W91305  29.044  43.355  13.903
18881W        W91306  12.213   0.299  11.405
18882W        W91307   7.196  23.606   2.944
18883W        W91308  11.638  34.905   3.258
18884W        W91309  14.652  26.268  13.756
18885W        W91310  19.657  17.280   4.338
18886W        W91311  27.203  28.989  10.945
18887W        W91312  12.082  37.546   0.229
18888W        W91313  19.918  38.028   3.698
18889W        W91314  14.245  27.042  14.067
18890W        W91315  36.472  18.191   3.577
18891W        W91316  20.659  35.879   4.702
18892W        W91317   2.639  44.082  11.154
18893W        W91318   2.705  40.324  12.031
18894W        W91319  28.664   3.340  13.364
18895W        W91320  14.974  10.080   2.219
18896W        W91321   8.602  29.063   3.579
18897W        W91322  10.230  42.986   1.395
18898W        W91323  20.101  15.403  10.375
18899W        W91324  32.974  26.625   1.496
18900W        W91325  34.185  20.458  11.375
18901W        W91326   3.383  17.795   0.966
18902W        W91327  39.775  32.715   1.681
18903W        W91328  38.937  14.777   3.185
18904W        W91329   4.262  43.279   1.394
18905W        W91330  39.950  17.205   0.881
18906W        W91331  34.913  44.344   1.810
18907W        W91332  31.848  15.871  12.012
18908W        W91333  19.428  23.915   5.408
18909W        W91334  35.963  12.333  10.728
18910W        W91335  24.157  23.331  12.656
18911W        W91336  39.454  20.500  12.397
18912W        W91337  20.292   8.712   9.946
18913W        W91338  17.156  32.941   4.960
18914W        W91339   4.053  29.671   0.249
18915W        W91340  19.593   3.042   4.114
18916W        W91341  18.094  20.621   1.244
18917W        W91342  44.916  36.082   0.429
18918W        W91343  19.162  34.892  13.283
18919W        W91344  13.271  26.715  11.395
18920W        W91345   9.783  23.008  13.152
18921W        W91346  16.735  11.274   4.497
18922W        W91347  10.175  14.376   3.353
18923W        W91348  31.021  20.522   0.261
18924W        W91349  33.118  19.761   4.490
18925W        W91350  34.276   9.860   3.724
18926W        W91351  27.382   3.093   1.472
18927W        W91352  22.649   3.957   4.160
18928W        W91353  42.568  24.057  13.108
18929W        W91354  35.127  31.416  14.526
18930W        W91355  10.904  44.348  10.654
18931W        W91356  38.450  42.051  10.748
18932W        W91357  38.055  33.512  10.696
18933W        W91358  41.449   4.341  14.376
18934W        W91359  24.930  16.770   1.626
18935W        W91360  39.526  12.940  12.174
18936W        W91361  44.070  22.003  10.656
18937W        W91362  15.743  35.103   9.951
18938W        W91363   2.311  25.089   1.282
18939W        W91364  26.056  33.548   1.452
18940W        W91365  25.589  25.469   3.795
18941W        W91366  31.061   8.088   4.280
18942W        W91367  11.246  13.551  14.824
18943W        W91368  19.083  18.269   3.715
18944W        W91369  20.810  29.409  13.840
18945W        W91370  22.106  28.608   3.421
18946W        W91371   4.841   9.629   2.834
18947W        W91372   0.746  26.643  13.500
18948W        W91373  40.252  14.167   2.357
18949W        W91374   4.356  17.366   0.795
18950W        W91375  42.340  38.551  12.176
18951W        W91376  33.189  21.751   3.812
18952W        W91377  38.793  19.551  14.302
18953W        W91378  10.007  41.545   9.941
18954W        W91379  41.116   1.746  12.027
18955W        W91380  41.386  17.764  11.654
18956W        W91381  38.885  41.678   5.102
18957W        W91382  29.504  20.531   0.480
18958W        W91383   4.677  30.072   2.030
18959W        W91384  33.237   4.815   5.221
18960W        W91385  39.359   7.120  14.469
18961W        W91386  31.501  26.210  11.684
18962W        W91387   8.231  28.046  13.075
18963W        W91388   2.024   7.865   3.992
18964W        W91389  44.148   0.184   4.050
18965W        W91390  38.302  38.826  13.126
18966W        W91391  43.337   7.735   0.785
18967W        W91392   7.797  33.175  12.974
18968W        W91393  32.929  33.967   0.250
18969W        W91394  39.302  28.480   0.448
18970W        W91395   4.416   5.406  13.896
18971W        W91396   9.247  43.458   2.275
18972W        W91397  29.073  42.465   1.601
18973W        W91398  33.739   7.582  13.376
18974W        W91399   0.282  38.915   1.609
18975W        W91400  18.966   0.930   0.827
18976W        W91401  14.856  10.251  10.921
18977W        W91402   8.157   3.396  11.453
18978W        W91403  12.217  16.061  12.881
18979W        W91404  40.470  13.905  13.032
18980W        W91405  35.657   4.428   1.254
18981W        W91406  19.660   3.298  11.884
18982W        W91407  14.685  19.656  12.977
18983W        W91408  13.712   6.187   3.282
18984W        W91409   0.693  37.410  10.423
18985W        W91410  14.879  17.242  11.948
18986W        W91411  20.617  42.754  13.914
18987W        W91412  24.052  15.017  10.453
18988W        W91413  43.069  32.955   4.151
18989W        W91414  44.426  10.316  13.615
18990W        W91415  22.478  29.826   1.902
18991W        W91416  30.352   4.191  11.230
18992W        W91417   3.400  43.206   1.718
18993W        W91418  19.471  25.536  12.540
18994W        W91419  30.645  18.556  13.504
18995W        W91420  21.566   9.208  11.892
18996W        W91421  37.108  43.901   2.351
18997W        W91422  25.917  17.115  14.907
18998W        W91423  10.070  18.067  12.347
18999W        W91424   2.774  38.983  14.941
19000W        W91425  31.160   2.010  10.732
19001W        W91426  12.029  24.395   4.621
19002W        W91427   1.375  14.395  13.563
19003W        W91428  39.722  14.087   2.403
19004W        W91429  38.789  24.479  12.813
19005W        W91430  13.004  10.858   1.295
19006W        W91431   6.208  21.827  11.552
19007W        W91432  25.626  26.050  10.632
19008W        W91433  43.774  18.817  13.454
19009W        W91434  38.998   8.388  14.352
19010W        W91435  10.611  12.276  12.086
19011W        W91436   6.820   1.031   4.509
19012W        W91437  41.976   3.807   3.356
19013W        W91438  17.512  33.938   4.562
19014W        W91439  16.866  35.112  12.604
19015W        W91440  19.495  40.174  12.017
19016W        W91441   5.704  12.387   1.909
19017W        W91442  41.396  10.494   0.693
19018W        W91443   5.214   1.773   3.181
19019W        W91444  34.138  26.072   0.776
19020W        W91445  39.280  39.342   1.250
19021W        W91446  40.787   6.218  14.355
19022W        W91447  33.292  23.240  14.433
19023W        W91448  19.693  15.363  13.587
19024W        W91449   7.308  28.425   2.790
19025W        W91450  11.148   3.518  10.746
19026W        W91451  41.358  37.674   1.026
19027W        W91452  43.634  36.727  12.133
19028W        W91453  21.208  12.413   2.716
19029W        W91454  34.170   2.820  13.443
19030W        W91455  33.149  18.252  14.694
19031W        W91456  23.066  29.486   4.699
19032W        W91457  26.663  29.390   1.797
19033W        W91458   3.341  29.911  12.873
19034W        W91459  23.737  25.236   0.745
19035W        W91460  34.523   6.637   1.148
19036W        W91461  25.038  37.993   1.045
19037W        W91462  22.138   6.678  14.058
19038W        W91463  36.934   4.913   2.441
19039W        W91464  10.362  43.833   0.085
19040W        W91465  13.090   4.283  13.444
19041W        W91466  38.442   2.652   3.881
19042W        W91467  30.007  39.764   4.753
19043W        W91468   0.868  28.655   3.586
19044W        W91469  25.025  24.566   4.714
19045W        W91470  36.065   5.389   1.960
19046W        W91471  31.597  44.370   4.113
19047W        W91472   2.360  17.200  12.559
19048W        W91473  11.620  12.893   2.625
19049W        W91474   8.335  20.610  11.342
19050W        W91475  10.423   4.707   3.659
19051W        W91476  29.968  37.569   4.174
19052W        W91477  10.631  12.610  13.348
19053W        W91478  37.846  27.020  12.178
19054W        W91479   8.175  11.304  14.808
19055W        W91480  41.828  25.956   0.177
19056W        W91481  38.127  13.974   0.333
19057W        W91482  11.562  28.862   1.711
19058W        W91483   1.464  29.045   3.254
19059W        W91484  11.178  34.662  11.961
19060W        W91485   3.200  24.784   1.247
19061W        W91486   2.966  25.065  11.243
19062W        W91487  25.204   8.624   1.159
19063W        W91488  12.230  27.922   1.861
19064W        W91489  14.309  23.733  10.974
19065W        W91490  15.453   4.980  11.016
19066W        W91491  11.345  22.164   9.711
19067W        W91492   9.702  42.422  10.974
19068W        W91493   0.459   7.877   3.132
19069W        W91494  27.573  35.861  13.857
19070W        W91495   3.909  25.287   2.315
19071W        W91496  10.640   2.522   0.268
19072W        W91497  27.047  22.683  13.242
19073W        W91498  22.156   9.503  14.134
19074W        W91499  34.864  35.909  11.136
19075W        W91500   2.167  16.343   2.245
19076W        W91501  42.983  44.895   3.211
19077W        W91502   1.148  43.305  13.710
19078W        W91503   4.393  34.155   4.278
19079W        W91504  11.714   9.724   3.226
19080W        W91505  37.369   9.149  11.500
19081W        W91506  16.272  42.806   2.313
19082W        W91507  34.498  24.710  11.578
19083W        W91508  26.456  37.966   3.173
19084W        W91509  35.925  11.383  14.528
19085W        W91510  30.872  38.207  11.127
19086W        W91511  34.055  38.965   3.529
19087W        W91512  20.710  37.848  14.707
19088W        W91513  10.275  18.400  13.265
19089W        W91514  29.043   4.282  10.782
19090W        W91515  30.553  43.545  10.690
19091W        W91516  39.587   6.386  12.029
19092W        W91517  17.271  24.510   3.583
19093W        W91518   5.954  15.402   0.890
19094W        W91519   1.741  13.984   3.953
19095W        W91520  36.780  41.523   3.720
19096W        W91521  22.270   3.034  10.939
19097W        W91522   2.834  44.333  13.361
19098W        W91523  29.932  36.962  11.594
19099W        W91524   9.746  41.827   1.880
19100W        W91525  39.054  15.700  10.372
19101W        W91526  22.460  33.510  11.503
19102W        W91527  36.947  24.073   2.878
19103W        W91528  40.227  25.819  12.416
19104W        W91529  43.318  30.673  14.761
19105W        W91530  21.959  36.897   1.457
19106W        W91531  32.680  20.769  14.453
19107W        W91532  14.010  39.795  11.164
19108W        W91533  14.842  32.588   0.859
19109W        W91534  18.153  35.970   3.558
19110W        W91535  10.102  44.956   3.211
19111W        W91536  24.991   5.932   0.731
19112W        W91537  16.691  28.929   1.660
19113W        W91538  18.190  20.390  11.621
19114W        W91539  30.443  36.098   2.651
19115W        W91540  32.883   5.237   1.410
19116W        W91541  15.239   1.448  11.414
19117W        W91542  10.100  34.342   3.692
19118W        W91543   7.231  33.115  12.436
19119W        W91544  11.790  30.380   1.824
19120W        W91545   0.817  38.125  13.062
19121W        W91546   7.318  31.851   2.371
19122W        W91547  41.492  10.719  14.210
19123W        W91548  44.415  32.873  11.564
19124W        W91549   2.416  35.174   2.145
19125W        W91550  28.625  27.232   0.952
19126W        W91551  23.449  40.715  13.346
19127W        W91552  20.134   1.298  13.273
19128W        W91553  20.320  43.719   3.670
19129W        W91554  36.346   1.473   0.081
19130W        W91555   6.195  13.926  10.809
19131W        W91556  17.106   2.439   1.119
19132W        W91557  43.845  35.386   4.277
19133W        W91558  23.616   0.629   1.652
19134W        W91559  33.066  12.352  14.760
19135W        W91560  43.559  16.605  12.201
19136W        W91561  17.753  11.607  11.690
19137W        W91562  44.960  13.430  11.682
19138W        W91563  14.182  41.781   2.498
19139W        W91564  13.129   8.711   2.848
19140W        W91565  36.497  17.057  11.840
19141W        W91566   3.939   0.788   3.731
19142W        W91567  19.138   9.919  10.387
19143W        W91568  32.114  28.969   3.322
19144W        W91569  25.887  32.906  14.497
19145W        W91570   7.163  38.489   0.882
19146W        W91571   1.896   8.420  14.395
19147W        W91572  33.755  15.138   1.640
19148W        W91573  44.089  33.275  12.436
19149W        W91574  37.485  12.063  10.547
19150W        W91575  20.972   6.125  10.314
19151W        W91576   2.688  27.736   2.452
19152W        W91577  33.417  41.272  12.109
19153W        W91578  33.678  28.882  12.503
19154W        W91579  22.502  30.704  10.608
19155W        W91580  39.080  23.135   0.847
19156W        W91581  11.516  42.859   1.868
19157W        W91582  34.536  17.383  14.482
19158W        W91583  40.067  14.036  14.403
19159W        W91584  28.868  16.150   3.155
19160W        W91585   3.823   1.012  13.614
19161W        W91586   1.871  32.121  14.972
19162W        W91587  40.358  40.505  11.174
19163W        W91588  44.604  11.739   3.803
19164W        W91589  33.444  15.834  11.154
19165W        W91590   4.164  41.386  12.467
19166W        W91591  19.785  22.945   1.939
19167W        W91592  19.692  39.652   0.320
19168W        W91593  12.333  26.334  12.216
19169W        W91594  19.750  13.313   1.407
19170W        W91595  12.921  13.181  12.700
19171W        W91596  40.451  31.141   3.055
19172W        W91597   5.076   7.391  11.372
19173W        W91598   9.948  12.389  11.281
19174W        W91599  39.422  27.800   2.733
19175W        W91600  24.141   5.846   3.068
19176W        W91601  35.063  31.530  13.513
19177W        W91602   7.809  11.105  12.414
19178W        W91603  41.603  41.514   0.879
19179W        W91604   9.164  43.242  13.757
19180W        W91605  11.099  40.583   2.379
19181W        W91606   3.578  38.846   4.583
19182W        W91607  44.493  20.154   5.469
19183W        W91608  42.758   5.976   1.275
19184W        W91609   6.440  26.824  14.332
19185W        W91610   9.330   0.548   0.299
19186W        W91611  31.817   0.111  11.536
19187W        W91612  20.181  10.442   3.291
19188W        W91613   6.853  20.827   4.088
19189W        W91614  28.195  29.611  14.795
19190W        W91615  42.597  35.649  10.899
19191W        W91616  11.906  33.419   0.344
19192W        W91617  30.426   4.283  12.106
19193W        W91618   7.365  40.970  14.275
19194W        W91619  27.737  18.864   0.810
19195W        W91620   8.116  40.643   3.510
19196W        W91621  24.954   8.687  14.718
19197W        W91622  34.071   4.947   4.550
19198W        W91623  16.576  44.868   1.804
19199W        W91624  15.799  32.618   4.991
19200W        W91625  28.094   0.996  10.995
19201W        W91626  26.918  18.426   4.145
19202W        W91627  20.771  24.128  13.952
19203W        W91628  21.518  13.564   4.648
19204W        W91629  27.476  13.720  14.486
19205W        W91630   0.560  35.539   4.808
19206W        W91631  33.589  43.661  13.498
19207W        W91632  12.451  15.517  12.143
19208W        W91633  35.607  24.990   3.337
19209W        W91634  34.711  11.142  11.820
19210W        W91635   9.267  34.626   2.174
19211W        W91636  25.974  11.761   3.846
19212W        W91637  23.667  12.768  11.452
19213W        W91638  20.993  23.668  14.369
19214W        W91639  20.626   6.722   2.419
19215W        W91640   3.777  23.061   1.758
19216W        W91641  16.609   0.403   1.680
19217W        W91642  34.554  38.096  13.056
19218W        W91643  10.292  18.940   2.192
19219W        W91644  32.674  38.558   4.168
19220W        W91645  43.273  22.602  12.118
19221W        W91646  14.331   3.989   2.167
19222W        W91647  17.210  39.281   2.215
19223W        W91648   3.541  34.143   0.455
19224W        W91649  27.507  26.647   3.158
19225W        W91650  17.829  43.826  10.701
19226W        W91651  29.183   8.240   4.210
19227W        W91652  21.648  42.312   4.123
19228W        W91653  31.025  32.356  10.751
19229W        W91654   5.383  16.128   2.090
19230W        W91655  41.987  32.472  14.683
19231W        W91656   7.372  14.083   3.872
19232W        W91657   9.424  23.018  10.767
19233W        W91658  12.248  43.934  14.856
19234W        W91659  22.830  14.840  14.548
19235W        W91660   2.301   8.641   2.060
19236W        W91661  25.088   7.385  10.802
19237W        W91662  11.012  20.961   0.312
19238W        W91663  12.339  41.290   1.308
19239W        W91664  28.206  26.492   4.077
19240W        W91665   2.032  40.949   2.388
19241W        W91666  28.403  25.613   1.664
19242W        W91667  25.223   2.492   0.408
19243W        W91668  34.301  42.868   0.880
19244W        W91669  11.206  44.761  11.514
19245W        W91670  34.934  29.548   4.590
19246W        W91671  26.041  11.565   4.318
19247W        W91672  19.015  22.613   3.559
19248W        W91673  20.999  36.360   4.611
19249W        W91674  28.337  38.479  14.602
19250W        W91675   5.693  14.837  14.260
19251W        W91676  44.468  23.228   0.866
19252W        W91677  22.730   1.827   0.384
19253W        W91678  12.225   6.955   2.787
19254W        W91679  37.908   6.766   1.787
19255W        W91680  39.810  34.891   4.425
19256W        W91681  18.658   7.851  10.884
19257W        W91682  13.281  42.399  11.443
19258W        W91683  16.171   4.384   5.083
19259W        W91684  38.653  37.505  11.489
19260W        W91685  34.316  19.223  10.662
19261W        W91686  33.368  12.060   4.605
19262W        W91687   7.755  15.571   3.731
19263W        W91688   2.365   1.978   1.042
19264W        W91689   1.550   8.331  12.486
19265W        W91690   6.880   1.996  13.923
19266W        W91691   9.250  42.151  13.458
19267W        W91692  30.057  31.650   2.251
19268W        W91693  33.470   5.294   0.426
19269W        W91694  12.667  26.543  14.432
19270W        W91695  19.564  43.816  12.505
19271W        W91696  20.378  28.068   3.283
19272W        W91697  39.245   0.248  13.823
19273W        W91698  12.297  16.640   4.190
19274W        W91699  27.561   1.479   0.210
19275W        W91700  33.894  42.052  12.872
19276W        W91701  25.467  10.964   2.266
19277W        W91702  12.553  17.083  11.475
19278W        W91703  28.479  32.004  10.853
19279W        W91704  31.410   6.253   4.235
19280W        W91705  37.627  26.121  12.017
19281W        W91706  41.321  31.901  11.252
19282W        W91707  11.416  33.788   2.672
19283W        W91708  32.039  13.719  12.432
19284W        W91709   7.166  10.790   0.395
19285W        W91710  14.782  12.419   4.065
19286W        W91711  20.307  24.390  13.938
19287W        W91712  29.096  44.500  10.535
19288W        W91713  20.050   6.858   1.222
19289W        W91714   4.765  39.554  12.936
19290W        W91715   1.834  30.219   3.260
19291W        W91716   0.402   5.247  10.631
19292W        W91717  30.605  26.267   1.862
19293W        W91718   5.990   4.699   1.967
19294W        W91719  12.131  39.438   4.069
19295W        W91720  16.962  17.268  14.363
19296W        W91721  12.703  12.210  12.406
19297W        W91722   0.650   2.054   0.983
19298W        W91723   6.819   5.461  10.628
19299W        W91724   6.352  18.701  14.476
19300W        W91725   4.683  13.900   4.249
19301W        W91726  30.050  24.173   2.760
19302W        W91727  23.965   9.690   3.823
19303W        W91728  19.524  26.234  11.983
19304W        W91729   4.568  39.414  11.548
19305W        W91730  25.553  27.183  11.532
19306W        W91731   0.768   3.729  12.474
19307W        W91732  27.742   1.981   2.289
19308W        W91733  36.152  12.413  13.298
19309W        W91734  38.505   7.967  13.377
19310W        W91735  33.064   7.265   4.694
19311W        W91736   7.163  29.938  12.083
19312W        W91737  28.632  21.571  12.165
19313W        W91738  16.309  15.240  12.456
19314W        W91739  38.547  28.061   2.584
19315W        W91740  26.978  30.098  10.048
19316W        W91741  39.936  27.539  12.450
19317W        W91742  22.585  15.356  11.720
19318W        W91743  18.645  29.899  12.461
19319W        W91744   4.368  22.996   4.121
19320W        W91745  20.091  30.717  14.338
19321W        W91746  41.334  44.730  13.491
19322W        W91747  15.238   8.803  10.340
19323W        W91748  43.929  43.399   3.164
19324W        W91749  39.770  35.115  12.163
19325W        W91750  28.915   1.825   4.219
19326W        W91751  38.624   6.935   3.347
19327W        W91752   2.459  23.848   2.597
19328W        W91753  35.467  11.367   3.730
19329W        W91754   6.891   8.220   3.396
19330W        W91755  40.500  24.214  12.938
19331W        W91756  29.007  15.763   0.162
19332W        W91757  15.644  32.649  12.057
19333W        W91758  13.329  33.440   2.888
19334W        W91759  36.583  32.590   2.341
19335W        W91760  29.003  42.883  12.551
19336W        W91761  23.006  27.050   3.535
19337W        W91762   6.259  10.303  12.720
19338W        W91763  27.517  14.621   1.424
19339W        W91764  24.848  43.083  12.997
19340W        W91765  10.199  43.175   3.238
19341W        W91766  34.472   3.050   0.349
19342W        W91767  30.925  33.672  12.538
19343W        W91768  39.568  43.389  12.086
19344W        W91769  24.086  10.464   4.082
19345W        W91770  33.441  29.513   4.497
19346W        W91771  10.115  28.408  11.550
19347W        W91772  33.426  40.370  11.853
19348W        W91773  36.146   1.007   4.258
19349W        W91774  30.374  41.374   1.786
19350W        W91775  33.825  11.235   1.473
19351W        W91776   2.689  32.805  11.409
19352W        W91777  31.716   5.015   1.363
19353W        W91778  21.569  17.713  10.660
19354W        W91779  11.944   3.195   4.244
19355W        W91780   2.463  40.441  11.590
19356W        W91781  15.818   5.345  13.600
19357W        W91782   4.411  11.117   3.012
19358W        W91783  16.940  31.885  14.326
19359W        W91784  21.040  32.474  11.109
19360W        W91785   2.112  22.562   0.195
19361W        W91786  40.988   8.103   3.386
19362W        W91787   5.591  30.426   4.502
19363W        W91788  44.024  15.428   2.408
19364W        W91789   5.510   2.370   3.715
19365W        W91790  24.967  43.756  12.042
19366W        W91791  21.737   5.825   1.336
19367W        W91792  29.201  27.671   2.150
19368W        W91793  37.299  21.176   3.361
19369W        W91794   7.230  36.968  11.648
19370W        W91795  40.813   2.294  14.016
19371W        W91796  36.177   2.232   0.360
19372W        W91797  14.230   4.812  11.576
19373W        W91798   4.138   2.452  11.121
19374W        W91799  30.024  23.205  10.609
19375W        W91800  21.601  29.488  11.548
19376W        W91801  15.441  35.547  10.061
19377W        W91802  18.710   4.222   3.898
19378W        W91803  39.152  29.309  11.284
19379W        W91804   0.778  19.980   0.306
19380W        W91805   6.008  16.886   4.572
19381W        W91806  27.191  44.531   4.502
19382W        W91807  44.911   9.988   0.381
19383W        W91808  32.640   0.419  13.463
19384W        W91809   8.645  18.401   2.761
19385W        W91810   3.936  25.825   0.755
19386W        W91811  40.856  36.105  12.121
19387W        W91812  43.782  33.681  11.505
19388W        W91813  35.094  38.822   1.356
19389W        W91814  28.061  16.665   1.167
19390W        W91815  14.043   6.849  13.580
19391W        W91816  12.071  22.036   3.115
19392W        W91817  25.239   3.935  12.953
19393W        W91818   9.723  22.936  11.741
19394W        W91819  42.542  15.577  12.080
19395W        W91820  19.446  39.922  14.897
19396W        W91821  38.575  37.568   3.249
19397W        W91822  23.154  15.047  14.967
19398W        W91823  44.765   7.781  14.553
19399W        W91824  21.332  37.507   1.171
19400W        W91825   9.856  31.222  10.625
19401W        W91826  11.352  19.108  11.883
19402W        W91827  40.920  33.105  11.484
19403W        W91828  29.147  32.516   2.873
19404W        W91829  18.224  29.647   4.357
19405W        W91830   4.662  35.347   2.108
19406W        W91831  17.619   0.262  14.906
19407W        W91832   6.329   8.279  13.465
19408W        W91833   2.805  31.414  13.908
19409W        W91834  35.036  16.024  11.546
19410W        W91835   5.920  16.663  10.603
19411W        W91836  23.628  16.331   0.040
19412W        W91837  16.683   6.261   3.794
19413W        W91838  36.429   9.847  13.029
19414W        W91839  20.253  44.452   4.199
19415W        W91840  15.573   9.730  12.617
19416W        W91841   4.230  26.264  11.503
19417W        W91842  11.715  38.577   1.437
19418W        W91843   9.413   4.295   1.825
19419W        W91844  23.117  18.965  13.600
19420W        W91845  21.038   8.357   1.695
19421W        W91846   2.509  38.371  13.330
19422W        W91847  35.604  36.813   3.388
19423W        W91848   2.319   1.004  13.447
19424W        W91849   4.410  12.092  14.895
19425W        W91850   9.211   7.170   2.269
19426W        W91851  15.959  21.335   3.174
19427W        W91852  31.500  44.768   3.220
19428W        W91853  10.051  15.161  13.992
19429W        W91854  25.151  32.967  13.683
19430W        W91855  38.021  33.550  13.838
19431W        W91856  27.703   3.012  12.509
19432W        W91857  21.405   0.363   4.634
19433W        W91858  21.255   5.293   2.489
19434W        W91859  32.439  38.195   3.879
19435W        W91860  16.313  15.914   0.712
19436W        W91861  21.706  29.230  11.123
19437W        W91862   8.054  21.960  11.642
19438W        W91863   7.497  12.848  13.656
19439W        W91864  13.798  21.318  13.003
19440W        W91865  23.130  34.049  11.873
19441W        W91866  15.179  25.795  12.352
19442W        W91867   4.330  35.811   0.502
19443W        W91868  25.784  40.392  14.065
19444W        W91869  10.084   7.741   5.013
19445W        W91870  13.189  16.788   9.633
19446W        W91871  27.927  11.775  11.410
19447W        W91872  34.137  19.150   0.868
19448W        W91873  15.822  35.529  13.355
19449W        W91874  40.029  10.595   0.544
19450W        W91875  14.318  16.094   3.840
19451W        W91876  13.777  18.312   2.783
19452W        W91877  44.264   3.421   2.243
19453W        W91878  31.620   0.559  11.805
19454W        W91879  18.156  42.182  13.093
19455W        W91880  37.600   2.410   0.999
19456W        W91881  44.774  42.894  12.604
19457W        W91882  17.410  27.203  12.586
19458W        W91883   3.640  36.079  12.641
19459W        W91884  34.642  19.135  14.970
19460W        W91885  31.413  21.119  14.063
19461W        W91886  25.753  43.344  10.799
19462W        W91887  39.380  16.296  11.605
19463W        W91888   3.914  32.967   2.235
19464W        W91889   6.665   2.356  12.125
19465W        W91890  42.814  39.364   2.854
19466W        W91891  18.788  42.610  12.052
19467W        W91892  37.532  34.414  10.617
19468W        W91893  44.488  13.622  10.971
19469W        W91894  10.830  18.739   0.535
19470W        W91895  34.256   6.985   1.410
19471W        W91896   2.390   1.535  13.455
19472W        W91897  32.114  28.736  12.184
19473W        W91898   9.478  14.278   1.833
19474W        W91899  25.529  12.350   0.394
19475W        W91900  11.051  23.628   0.569
19476W        W91901  27.965  13.773   3.290
19477W        W91902  16.586   2.222   3.390
19478W        W91903   8.249  42.553   0.278
19479W        W91904  36.751  18.011   1.152
19480W        W91905  38.403  39.148  14.107
19481W        W91906   6.292  17.097   1.954
19482W        W91907  39.585  19.804   3.194
19483W        W91908  30.797  38.666   3.220
19484W        W91909  11.164  17.185   2.772
19485W        W91910  31.229   7.711   2.114
19486W        W91911  32.153  38.451   4.249
19487W        W91912  42.870  12.515  10.744
19488W        W91913   8.243   6.704  13.479
19489W        W91914   1.089  34.612  10.699
19490W        W91915   2.873  32.967   4.164
19491W        W91916  17.333   5.637  10.716
19492W        W91917  16.191   0.752   3.826
19493W        W91918  11.839   6.234   5.159
19494W        W91919  21.651  35.327  13.791
19495W        W91920   0.818  40.030   2.972
19496W        W91921  17.950   3.860  12.142
19497W        W91922  23.579   2.535  10.683
19498W        W91923  44.376  29.147  11.385
19499W        W91924  27.163  43.100  13.909
19500W        W91925  37.788  31.551   4.458
19501W        W91926  38.622  16.783  11.181
19502W        W91927  20.273  42.995  10.126
19503W        W91928  13.094   0.184  11.045
19504W        W91929  37.094   5.782  12.113
19505W        W91930   2.700  39.872  10.682
19506W        W91931  20.603   7.296  13.728
19507W        W91932  31.951  30.049   2.381
19508W        W91933  14.826   0.815  11.136
19509W        W91934  38.775  23.663   2.322
19510W        W91935  38.066   8.662   1.369
19511W        W91936  33.428   7.296  10.905
19512W        W91937  35.442  35.840   4.082
19513W        W91938  15.181  41.063  14.945
19514W        W91939   4.920  14.256   0.441
19515W        W91940   7.980   8.443  13.071
19516W        W91941  27.081  32.245  10.577
19517W        W91942   1.174  20.522   4.647
19518W        W91943  32.635  44.210   1.737
19519W        W91944  24.725  41.812   1.385
19520W        W91945  13.621  40.877  12.544
19521W        W91946  25.172   1.343   4.948
19522W        W91947  35.826  44.726  11.961
19523W        W91948  42.910  17.179  14.436
19524W        W91949  24.129  44.528  10.451
19525W        W91950   1.011  23.351   4.629
19526W        W91951   2.878  28.341  13.636
19527W        W91952  15.034  38.527  10.591
19528W        W91953  36.095  22.785  12.544
19529W        W91954  10.150  19.625   2.722
19530W        W91955  28.504  17.603  14.391
19531W        W91956   7.725  13.693  14.196
19532W        W91957  16.022  30.595  12.873
19533W        W91958  28.844  37.130   0.934
19534W        W91959   0.978  24.401   0.800
19535W        W91960  27.398  17.093  14.070
19536W        W91961  29.579  25.443  14.263
19537W        W91962  28.686  42.344  11.365
19538W        W91963  14.081  42.834   3.316
19539W        W91964  17.043  39.435  12.045
19540W        W91965  25.057   3.406   0.061
19541W        W91966   8.217  28.648  14.960
19542W        W91967  31.667  42.700   0.087
19543W        W91968   2.725  17.051   4.535
19544W        W91969   6.678  31.114  11.004
19545W        W91970   6.239  25.256  13.029
19546W        W91971   6.901   5.952  14.439
19547W        W91972  41.421  26.211  11.117
19548W        W91973  24.725  29.950   4.075
19549W        W91974  34.641   8.010  14.784
19550W        W91975  10.735  21.526   2.638
19551W        W91976   3.743  43.004  11.712
19552W        W91977   9.331   5.721   0.239
19553W        W91978   9.902   7.980   0.307
19554W        W91979  34.257  37.999   4.474
19555W        W91980  32.092   6.741  13.506
19556W        W91981  30.901  44.431  10.688
19557W        W91982  39.263  40.003   0.431
19558W        W91983   7.035  44.384   4.356
19559W        W91984  19.867  19.299  14.550
19560W        W91985  39.363  15.637  10.796
19561W        W91986  25.422  34.741   1.665
19562W        W91987  32.235  41.724  11.094
19563W        W91988  22.487  19.957   2.253
19564W        W91989  44.072   3.436   0.499
19565W        W91990  36.002  37.414   4.655
19566W        W91991  14.865  23.126   2.709
19567W        W91992  23.090  14.303   3.187
19568W        W91993  35.539   9.641  14.514
19569W        W91994  40.436  41.883  13.042
19570W        W91995  17.349   2.003  11.917
19571W        W91996  37.509   0.409   1.326
19572W        W91997  18.909  11.203   0.012
19573W        W91998  26.714  44.496  13.398
19574W        W91999  32.066  17.904  13.421
19575W        W92000  30.580   7.192   0.003
19576W        W92001  18.052  41.787  12.063
19577W        W92002  41.848  12.336  11.226
19578W        W92003   0.873  14.847   3.144
19579W        W92004  24.610  24.433   1.957
19580W        W92005   0.400   6.363  12.348
19581W        W92006   2.000   4.859  11.020
19582W        W92007  25.925  42.972   4.637
19583W        W92008  23.948  17.088   1.279
19584W        W92009  20.235  19.115   3.305
19585W        W92010  43.856  11.653  14.439
19586W        W92011  35.005  26.626   3.124
19587W        W92012   5.950   4.877  11.051
19588W        W92013  16.526  32.743  12.671
19589W        W92014  14.557  33.037   0.773
19590W        W92015   9.957  43.804  11.479
19591W        W92016  13.734  35.479  12.253
19592W        W92017  34.458  30.822  11.579
19593W        W92018   6.970  11.990  12.887
19594W        W92019   4.877  30.255  12.964
19595W        W92020  21.058  11.086  11.749
19596W        W92021   5.698   4.864   9.988
19597W        W92022  15.356  40.054   0.145
19598W        W92023  13.059  11.534   1.282
19599W        W92024   3.948  43.852   0.422
19600W        W92025  33.039  11.907  13.537
19601W        W92026   4.412  30.931   0.915
19602W        W92027   7.834  18.403  11.895
19603W        W92028   0.555  37.537  12.257
19604W        W92029  10.429  16.344   1.317
19605W        W92030  21.710   8.462  10.925
19606W        W92031  44.435  34.860   4.631
19607W        W92032  27.612   0.776  11.079
19608W        W92033  22.212  29.723  14.376
19609W        W92034  12.615  41.471   4.655
19610W        W92035  19.115  40.350   2.133
19611W        W92036  30.699  19.822  11.194
19612W        W92037  40.069  13.066  11.265
19613W        W92038  37.126  25.376   2.557
19614W        W92039   4.366  36.380  12.834
19615W        W92040  35.310  39.465  13.812
19616W        W92041  14.524  18.071  11.915
19617W        W92042   8.998  10.508   3.537
19618W        W92043   8.323  29.588  12.148
19619W        W92044  17.249   8.497  11.500
19620W        W92045  12.157  22.146   9.724
19621W        W92046  37.025  14.832  14.382
19622W        W92047  40.065   7.317  14.278
19623W        W92048  33.543  37.074  13.701
19624W        W92049   1.214  40.699  13.444
19625W        W92050  37.626  21.199  13.514
19626W        W92051  38.369  27.416   0.773
19627W        W92052  42.765   7.334   1.357
19628W        W92053  34.552   4.278  11.929
19629W        W92054  41.809  33.505   1.714
19630W        W92055  42.346   3.932  13.369
19631W        W92056   3.287  34.422   3.881
19632W        W92057  41.356   8.196  13.090
19633W        W92058   1.887  33.664  14.909
19634W        W92059  11.168   4.268  11.037
19635W        W92060  44.022  27.958  12.484
19636W        W92061  32.380  20.745  14.042
19637W        W92062  38.500   0.274   1.326
19638W        W92063   5.368   3.297   1.730
19639W        W92064  12.354  18.197   1.922
19640W        W92065   1.757   2.822  10.679
19641W        W92066  22.569   7.938  12.034
19642W        W92067  42.949  23.128   1.722
19643W        W92068  42.035  25.738  11.196
19644W        W92069  11.222   9.886   3.297
19645W        W92070  35.203  34.519   2.373
19646W        W92071  25.288  36.121  14.449
19647W        W92072  29.674  40.993  11.641
19648W        W92073  17.503  33.111  12.823
19649W        W92074  18.721   5.721  13.320
19650W        W92075  33.439   0.451   3.362
19651W        W92076  32.893  15.580   2.801
19652W        W92077  31.226   3.270  14.990
19653W        W92078  25.393  42.972   4.666
19654W        W92079  13.413   4.774   5.090
19655W        W92080  35.012  43.933   1.415
19656W        W92081  24.686  28.683  12.878
19657W        W92082  15.639  11.208  11.612
19658W        W92083  34.568  24.039  12.519
19659W        W92084  35.015  32.800  12.499
19660W        W92085  13.142  23.852  10.246
19661W        W92086  39.373  42.407  11.847
19662W        W92087  12.212  23.782  10.645
19663W        W92088  26.274  26.044  14.879
19664W        W92089  14.072  31.655  14.038
19665W        W92090  34.273   1.797   1.815
19666W        W92091  15.596   6.962   1.262
19667W        W92092  41.496  33.063   1.846
19668W        W92093  44.372  36.145   4.412
19669W        W92094  12.720  39.570  14.420
19670W        W92095   9.071  22.222  14.160
19671W        W92096   5.654  12.258  13.002
19672W        W92097   2.326   6.714   4.735
19673W        W92098  10.984   1.123  14.446
19674W        W92099  20.659  16.774   3.799
19675W        W92100   0.313   4.011  12.494
19676W        W92101  42.451  28.207  10.990
19677W        W92102  31.855   3.602  11.681
19678W        W92103  36.356  20.531   2.252
19679W        W92104   8.207  33.935   4.593
19680W        W92105  27.672  22.578   1.847
19681W        W92106  30.321  34.581   0.235
19682W        W92107  29.640  24.754   0.337
19683W        W92108   4.683  12.868   0.911
19684W        W92109  37.259  26.081   0.474
19685W        W92110  14.709  15.717  13.662
19686W        W92111  13.689  26.725  12.851
19687W        W92112  41.907  36.521   3.634
19688W        W92113  21.097   2.283  12.529
19689W        W92114  15.323  26.045  14.642
19690W        W92115  13.668  32.695  12.003
19691W        W92116  35.383  24.205   1.957
19692W        W92117  17.546  20.244   2.794
19693W        W92118  13.937  15.335  12.076
19694W        W92119   8.176   7.322   2.226
19695W        W92120  36.685  16.467  11.202
19696W        W92121  42.038   0.832  11.140
19697W        W92122  14.490  21.150   3.083
19698W        W92123  26.928  26.189   0.486
19699W        W92124   4.846  28.589  11.651
19700W        W92125  30.591   3.703  13.259
19701W        W92126  32.293  24.644  10.711
19702W        W92127   1.387  12.778  13.023
19703W        W92128   9.725  30.900   4.436
19704W        W92129  40.815   6.310   0.949
19705W        W92130   7.256  10.257   3.354
19706W        W92131  41.744  25.641  13.454
19707W        W92132  39.960  17.859   3.648
19708W        W92133  18.632  17.280   5.111
19709W        W92134   4.603  36.579   4.040
19710W        W92135  19.278  37.053  11.996
19711W        W92136  24.606  10.707   0.020
19712W        W92137   1.492  39.254  10.694
19713W        W92138  13.066  35.321  13.276
19714W        W92139   1.999  24.057   3.419
19715W        W92140  20.286  23.856  13.886
19716W        W92141  18.767  10.190   1.424
19717W        W92142  35.705  31.669   4.269
19718W        W92143  44.991  26.933  12.570
19719W        W92144   7.254   6.454  12.912
19720W        W92145  39.809  26.721  12.954
19721W        W92146  41.504   8.976   0.867
19722W        W92147  26.055  23.073   2.361
19723W        W92148  14.176  31.114   1.699
19724W        W92149  27.408  20.034  11.077
19725W        W92150   4.240  43.390   0.440
19726W        W92151   9.220  42.870  11.900
19727W        W92152  34.202  18.201  14.000
19728W        W92153  20.712   8.171   0.243
19729W        W92154  13.533  12.096  13.031
19730W        W92155  10.216   8.623   0.914
19731W        W92156  28.538  30.921  11.565
19732W        W92157   8.023  35.942  12.398
19733W        W92158  37.677  30.643  13.458
19734W        W92159   9.111   0.995  14.292
19735W        W92160  39.510  29.921   4.582
19736W        W92161  41.117  40.328   0.834
19737W        W92162  28.275   2.981  13.302
19738W        W92163  44.720   2.801   3.542
19739W        W92164  19.736   7.372  10.748
19740W        W92165   5.702  11.117  14.851
19741W        W92166  39.640  25.087  14.853
19742W        W92167  43.007  31.011   3.266
19743W        W92168  16.738  14.771  10.853
19744W        W92169  35.978  27.578   0.373
19745W        W92170  25.470  13.799   0.445
19746W        W92171  40.112  30.999  12.469
19747W        W92172  39.906  41.481  14.321
19748W        W92173  29.469  24.141  11.465
19749W        W92174  43.144   6.855   2.830
19750W        W92175  21.935  25.961  11.304
19751W        W92176  37.695  13.199   5.067
19752W        W92177  21.299   5.951  14.343
19753W        W92178  38.556  26.213  11.587
19754W        W92179  14.056   6.573   1.611
19755W        W92180  34.703  20.245   4.866
19756W        W92181  19.153  13.664   1.032
19757W        W92182  17.743  35.159   2.067
19758W        W92183  31.128  28.390  11.700
19759W        W92184  41.529   7.787   2.812
19760W        W92185  10.415  12.602   3.600
19761W        W92186  24.616  16.675  12.134
19762W        W92187  42.286   0.399   3.684
19763W        W92188   9.447  37.622   3.293
19764W        W92189  17.634  11.966   4.557
19765W        W92190   1.639   6.868   4.100
19766W        W92191  20.300  43.299  12.436
19767W        W92192  18.055  38.326  14.691
19768W        W92193  25.966   2.734   2.476
19769W        W92194  28.485  25.172   1.936
19770W        W92195   0.308  38.872  11.546
19771W        W92196  44.919  28.452   2.338
19772W        W92197  16.213  10.605  10.665
19773W        W92198  21.049  14.849  13.965
19774W        W92199  44.230   9.834   1.228
19775W        W92200  21.754  14.987   4.030
19776W        W92201   3.258  11.108  11.706
19777W        W92202  37.566   9.732   4.847
19778W        W92203  43.494  32.060   1.262
19779W        W92204   8.511  42.520  12.201
19780W        W92205  28.541  37.097  13.896
19781W        W92206  34.507   9.297   4.570
19782W        W92207  13.250   4.023   3.333
19783W        W92208  33.111  22.925  12.036
19784W        W92209   9.330  35.143   1.005
19785W        W92210   8.877  17.274  12.178
19786W        W92211  38.535  18.105  14.332
19787W        W92212  16.684   8.945   0.295
19788W        W92213  27.371   3.282   3.793
19789W        W92214   3.260  35.889   0.369
19790W        W92215  16.728  23.273   3.392
19791W        W92216  36.149   8.317   2.350
19792W        W92217  17.588  21.215  13.775
19793W        W92218   3.398  24.314   3.627
19794W        W92219  17.275  36.514  12.431
19795W        W92220  30.326  30.992  11.617
19796W        W92221   7.235  39.378   2.938
19797W        W92222   0.852  28.181   2.663
19798W        W92223  44.953  39.306  11.571
19799W        W92224   3.150  34.486   0.441
19800W        W92225  37.952  31.881   0.940
19801W        W92226   6.730   3.373   4.774
19802W        W92227  39.280   9.816  11.476
19803W        W92228  40.303  14.999  13.476
19804W        W92229  26.596   4.085   2.268
19805W        W92230  31.072   0.508   1.945
19806W        W92231  11.655  15.590  12.582
19807W        W92232  21.502  25.562   2.419
19808W        W92233  26.049  23.308   4.286
19809W        W92234   1.215  30.223  11.540
19810W        W92235  36.309  10.250  13.331
19811W        W92236  34.809  13.312   0.372
19812W        W92237  30.418  12.208  10.535
19813W        W92238  36.132   4.474   4.364
19814W        W92239  35.855  13.890  11.227
19815W        W92240  36.775  21.551  11.886
19816W        W92241  22.476   9.170  13.901
19817W        W92242  44.457  29.676   0.922
19818W        W92243  44.843  27.421   2.244
19819W        W92244  30.011   8.703   3.280
19820W        W92245  13.393  27.091  10.551
19821W        W92246   4.346  28.144  12.475
19822W        W92247   7.680  32.084  14.980
19823W        W92248  33.435  11.814   3.637
19824W        W92249   3.492  16.396   1.174
19825W        W92250   8.616   4.204   0.833
19826W        W92251  12.752  40.370  14.878
19827W        W92252  23.686  33.520   1.135
19828W        W92253  12.809  28.385   0.437
19829W        W92254  41.746  39.083   1.489
19830W        W92255   0.797   8.664   0.838
19831W        W92256  16.254  44.251   4.257
19832W        W92257  16.349  23.581  12.282
19833W        W92258  14.573  23.339   0.345
19834W        W92259  39.573  18.614   4.172
19835W        W92260  30.595   3.916  10.871
19836W        W92261   8.226  11.799  10.650
19837W        W92262  21.342  26.614   4.896
19838W        W92263   1.949  38.870   4.935
19839W        W92264  23.135  13.762   3.910
19840W        W92265  36.607  27.443  12.496
19841W        W92266  38.057   1.871   0.696
19842W        W92267  13.217   3.068  11.822
19843W        W92268  11.167  44.913   4.308
19844W        W92269   7.185  24.304   0.330
19845W        W92270  29.621  22.538   3.793
19846W        W92271  32.828   3.327  11.600
19847W        W92272  40.416  32.593  13.591
19848W        W92273  25.730  12.837   0.341
19849W        W92274  32.272  38.470   0.833
19850W        W92275  42.485  26.888  10.576
19851W        W92276   6.274  29.254  13.915
19852W        W92277  27.453  22.111   1.792
19853W        W92278  29.107  43.784  12.065
19854W        W92279  17.189  27.551   0.125
19855W        W92280   5.254  24.109   1.755
19856W        W92281  38.338  35.460   1.179
19857W        W92282   0.254  15.715  10.487
19858W        W92283  40.573  17.504  13.824
19859W        W92284  24.630   6.714  10.549
19860W        W92285  10.905  21.587  14.991
19861W        W92286   5.359  19.615  14.908
19862W        W92287  37.343  37.119  13.999
19863W        W92288  14.211  42.418  14.642
19864W        W92289  16.301   1.863   1.402
19865W        W92290   1.326  35.623   1.928
19866W        W92291  25.624  24.201  10.645
19867W        W92292  27.177  37.837  11.087
19868W        W92293  44.124  20.774   0.887
19869W        W92294   1.802  44.243   2.193
19870W        W92295  34.751   6.736   0.435
19871W        W92296   9.400  13.006  10.825
19872W        W92297  16.646  19.221   4.691
19873W        W92298   7.541  30.864   0.411
19874W        W92299   8.252  20.636   0.565
19875W        W92300   6.320   5.810  12.545
19876W        W92301   2.322   2.537  11.399
19877W        W92302  20.697   8.589  14.897
19878W        W92303  43.780  13.338   4.602
19879W        W92304   5.379  41.087  13.821
19880W        W92305  28.856   2.182  12.011
19881W        W92306  12.871   4.980   4.264
19882W        W92307   9.520  33.914  12.361
19883W        W92308  32.943   3.950   0.859
19884W        W92309  12.017  16.676   0.028
19885W        W92310  40.924   7.047  11.463
19886W        W92311   7.662  26.552   0.869
19887W        W92312  41.367  30.661  10.807
19888W        W92313  24.140  11.678   1.171
19889W        W92314  14.061  30.671  13.970
19890W        W92315  17.610  33.607  11.580
19891W        W92316  44.948  12.075   2.503
19892W        W92317  29.707  27.167  10.776
19893W        W92318  20.642  41.329   2.474
19894W        W92319  43.201  28.636   3.049
19895W        W92320  33.566  31.622  13.300
19896W        W92321  29.188  15.266  13.879
19897W        W92322  42.278  44.020   4.183
19898W        W92323   1.433  38.372   1.999
19899W        W92324  10.431  31.617  10.604
19900W        W92325  26.093  16.902  12.071
19901W        W92326  42.771  23.663  11.680
19902W        W92327   6.407  35.314  10.392
19903W        W92328  31.970   3.030  13.341
19904W        W92329  43.797   9.877   3.827
19905W        W92330   1.289  40.916   4.030
19906W        W92331   0.131  16.656   4.142
19907W        W92332  24.175   1.664   5.000
19908W        W92333  19.058  37.840   1.323
19909W        W92334  40.440  25.230   3.848
19910W        W92335  24.767  29.496  14.258
19911W        W92336   0.853  12.170  14.593
19912W        W92337  38.312   6.219  13.148
19913W        W92338  23.112  22.877   4.101
19914W        W92339  21.150  12.411  10.651
19915W        W92340  44.492  15.480  11.154
19916W        W92341  26.956  12.669   4.264
19917W        W92342  19.030  32.465   2.776
19918W        W92343  34.062  34.161   1.773
19919W        W92344  24.642  13.299   3.244
19920W        W92345  25.961  30.629   1.660
19921W        W92346   4.486   1.239   3.578
19922W        W92347  23.162   9.517   2.393
19923W        W92348  19.041  22.739  10.785
19924W        W92349  26.506   9.274  10.671
19925W        W92350  11.292  14.367   4.566
19926W        W92351  38.592  13.767  12.069
19927W        W92352  36.021  37.439  11.587
19928W        W92353  17.200  33.887  13.550
19929W        W92354   9.706   6.646   3.652
19930W        W92355  43.241  40.840   0.205
19931W        W92356   7.319  26.232   2.834
19932W        W92357   0.032   4.868   2.798
19933W        W92358  43.536  13.294  10.676
19934W        W92359   1.317   8.380  10.678
19935W        W92360   9.907   4.002   0.240
19936W        W92361  25.888  44.891  14.563
19937W        W92362  26.241  28.757   2.903
19938W        W92363  34.432  43.430  12.205
19939W        W92364   4.976  23.189  12.932
19940W        W92365  28.874  19.516  14.479
19941W        W92366  20.603   1.969   3.236
19942W        W92367  34.227  28.248   0.457
19943W        W92368  34.484  36.884  14.269
19944W        W92369  40.281  44.483   9.909
19945W        W92370  19.679  24.164  13.440
19946W        W92371  44.038   7.727  13.405
19947W        W92372  12.391  26.598  14.887
19948W        W92373  17.171  25.462  11.314
19949W        W92374  38.795  29.585  14.475
19950W        W92375  42.029  11.200  10.594
19951W        W92376  17.870  17.588   1.035
19952W        W92377  18.983  16.145   2.722
19953W        W92378  20.799  24.545   1.843
19954W        W92379  33.128  28.669   4.089
19955W        W92380  31.066  39.098  10.200
19956W        W92381  26.402  14.453   0.330
19957W        W92382  22.367  29.396   0.820
19958W        W92383  26.269  23.033  10.555
19959W        W92384  19.176  14.834  11.125
19960W        W92385  32.407  28.454   0.737
19961W        W92386  40.063   9.096   3.228
19962W        W92387  26.196   9.386   4.071
19963W        W92388  41.334   0.419   0.756
19964W        W92389   5.920  37.387  11.694
19965W        W92390  41.551  29.499  14.568
19966W        W92391  38.510  17.548  12.570
19967W        W92392  26.502  31.618   1.343
19968W        W92393   9.369  43.865   2.728
19969W        W92394   9.296  22.475   3.677
19970W        W92395  16.674  19.594   3.868
19971W        W92396  42.108  24.935   2.342
19972W        W92397   4.952  19.684  13.775
19973W        W92398  37.947  39.330   4.641
19974W        W92399   4.252  38.472  10.720
19975W        W92400   9.873  39.972  14.010
19976W        W92401  24.176  15.952  13.317
19977W        W92402  43.798   4.366  12.415
19978W        W92403  32.484  36.317   4.050
19979W        W92404  31.492  11.203  11.708
19980W        W92405  25.215  29.082   2.180
19981W        W92406  19.017  37.625   2.696
19982W        W92407  20.248   7.205  12.059
19983W        W92408  20.293  28.936   0.286
19984W        W92409  21.183  25.390   3.261
19985W        W92410  12.347  13.771   4.968
19986W        W92411  33.402  42.038   2.300
19987W        W92412  22.623  44.270   2.609
19988W        W92413  43.715  32.021  12.921
19989W        W92414  21.503  21.878  13.898
19990W        W92415  26.469  43.062  11.489
19991W        W92416  17.839   0.588  10.675
19992W        W92417  35.360   3.367  11.927
19993W        W92418  40.833  37.035   2.117
19994W        W92419   9.261  34.110  14.812
19995W        W92420   1.842   6.782  11.598
19996W        W92421  35.038  30.592   3.771
19997W        W92422  24.594  26.076   2.245
19998W        W92423  14.281  23.426  11.444
19999W        W92424  25.342  31.868  12.886
20000W        W92425  10.451  29.576  14.997
20001W        W92426   2.817   7.067   2.813
20002W        W92427   9.699  12.300  13.554
20003W        W92428  37.609  21.733   1.268
20004W        W92429  37.862  23.557  11.203
20005W        W92430  11.596  16.690  10.931
20006W        W92431  32.931  38.985   2.676
20007W        W92432  40.480   8.417  10.649
20008W        W92433  28.403  22.156   1.431
20009W        W92434  13.618  35.084  11.436
20010W        W92435  11.444  35.417  12.535
20011W        W92436  20.460  16.264   3.735
20012W        W92437  16.667   8.215  10.832
20013W        W92438  15.583   3.496  13.426
20014W        W92439   3.412  33.907  12.064
20015W        W92440  39.182  18.071  13.787
20016W        W92441   0.550  13.535  14.796
20017W        W92442  10.100  30.831  14.425
20018W        W92443  13.240  39.717   1.129
20019W        W92444  27.142  17.842  12.118
20020W        W92445   7.907  31.924  12.482
20021W        W92446   6.550   8.459  13.027
20022W        W92447   2.841  25.621   1.622
20023W        W92448   0.867   5.373   2.766
20024W        W92449  35.049  44.498  12.801
20025W        W92450  40.850  12.656  12.611
20026W        W92451  10.720  38.266   4.685
20027W        W92452  26.716  34.994  11.900
20028W        W92453  30.863  22.561   0.685
20029W        W92454  20.972   7.800  10.961
20030W        W92455  44.441  32.443   0.025
20031W        W92456  37.251  31.564  10.660
20032W        W92457  28.849  19.698  13.554
20033W        W92458  16.060  37.767  14.402
20034W        W92459  42.274  22.107  14.002
20035W        W92460   4.950   7.212   0.847
20036W        W92461  21.960  19.320  12.993
20037W        W92462   1.951  20.157   4.520
20038W        W92463  11.146  33.062   3.822
20039W        W92464  33.976  19.549   1.161
20040W        W92465  19.290  22.111   1.811
20041W        W92466  33.380  19.484   0.448
20042W        W92467   5.727  10.163  11.552
20043W        W92468  15.575  23.995   1.789
20044W        W92469  20.086  30.149  11.214
20045W        W92470  12.703  15.629   0.989
20046W        W92471  24.993   9.483  12.985
20047W        W92472  27.657   5.371   0.755
20048W        W92473   1.522   8.661   0.334
20049W        W92474   7.890  17.950   4.946
20050W        W92475  44.136  21.282  13.882
20051W        W92476  15.693  42.909  10.286
20052W        W92477  20.095  38.872  11.528
20053W        W92478  34.943   8.160   2.217
20054W        W92479  10.349  23.157  12.411
20055W        W92480  32.534   2.898   2.180
20056W        W92481  12.804  35.812   2.532
20057W        W92482  21.330  24.061  14.819
20058W        W92483  36.829  19.625  13.074
20059W        W92484  19.894  14.826   2.810
20060W        W92485  19.050   4.924  12.372
20061W        W92486   1.884   9.916  11.971
20062W        W92487  30.832  42.941  12.589
20063W        W92488  11.767  40.293   0.298
20064W        W92489  25.042  28.720   3.349
20065W        W92490  33.174  38.670   4.105
20066W        W92491  12.227  23.535  13.388
20067W        W92492  30.459   8.796  14.119
20068W        W92493  20.548   0.934   4.922
20069W        W92494  17.443  39.356   0.036
20070W        W92495  27.106  43.728   4.146
20071W        W92496  22.140  23.418  12.357
20072W        W92497  16.089  28.520   3.768
20073W        W92498  10.795  27.163  11.495
20074W        W92499  37.884  18.221  13.117
20075W        W92500  40.391  36.785  11.998
20076W        W92501  24.465  33.883  11.121
20077W        W92502  24.195  25.460   0.797
20078W        W92503  38.402  37.255  11.105
20079W        W92504  41.787  32.382  12.997
20080W        W92505   5.244  16.797   0.766
20081W        W92506  28.483  35.660   3.774
20082W        W92507  38.991   2.153  14.078
20083W        W92508  11.281  41.002   2.110
20084W        W92509  30.014  11.918   1.840
20085W        W92510  11.330  24.011  10.223
20086W        W92511   9.393  29.643  14.279
20087W        W92512  37.697  21.008  10.033
20088W        W92513  30.520  20.141   0.802
20089W        W92514  37.565   9.943  13.147
20090W        W92515  27.710   8.186   0.895
20091W        W92516  18.000  26.202  12.189
20092W        W92517  35.938   2.475   1.870
20093W        W92518  42.844  43.257   2.080
20094W        W92519  11.412  43.318  14.487
20095W        W92520  43.444  12.578   3.253
20096W        W92521  10.089  25.081  12.630
20097W        W92522  15.638  40.878  10.368
20098W        W92523  38.850  15.844  10.832
20099W        W92524   3.747  35.186   1.224
20100W        W92525  10.715  42.787  11.967
20101W        W92526  17.495  23.635   1.313
20102W        W92527  41.802   1.538   3.931
20103W        W92528  13.191  31.173   1.916
20104W        W92529  20.804  15.019   3.252
20105W        W92530  41.288  42.938  13.019
20106W        W92531  13.147   4.184  10.101
20107W        W92532  17.560  17.247   3.163
20108W        W92533  21.008   8.609   4.685
20109W        W92534  26.509  36.417  10.800
20110W        W92535  23.278   3.360   2.860
20111W        W92536  43.835  41.550   3.439
20112W        W92537  40.954  28.564   1.182
20113W        W92538   4.038  39.371  11.597
20114W        W92539   5.820  39.990  14.282
20115W        W92540   9.663  36.480   0.643
20116W        W92541  34.599  34.423   3.834
20117W        W92542  30.993  23.377  10.985
20118W        W92543   1.645  20.223   0.170
20119W        W92544  23.616   0.684   0.305
20120W        W92545   5.948  32.632  11.966
20121W        W92546  40.841  29.569  11.257
20122W        W92547  14.353  34.930   0.866
20123W        W92548   0.110   5.641   4.548
20124W        W92549   3.231   3.254  11.998
20125W        W92550  15.538   0.848   0.788
20126W        W92551  36.579  15.398  10.636
20127W        W92552  11.353  41.735  11.961
20128W        W92553  44.591  23.178  12.339
20129W        W92554  39.762  11.363   4.112
20130W        W92555   7.358  25.456   3.289
20131W        W92556  25.967  41.715  11.140
20132W        W92557  43.781  27.558   0.327
20133W        W92558   7.933  41.816   4.592
20134W        W92559  18.966  28.911  13.870
20135W        W92560  42.494   6.914   3.614
20136W        W92561  10.469   6.982  14.938
20137W        W92562  34.568  11.311  14.370
20138W        W92563  33.992  23.071   3.348
20139W        W92564   4.871   6.956   4.148
20140W        W92565  35.280  37.559  12.555
20141W        W92566  21.143  32.976  12.069
20142W        W92567  23.754  21.793   3.667
20143W        W92568   5.822  26.390  14.916
20144W        W92569  20.482  25.686   1.334
20145W        W92570  21.229  30.061   2.519
20146W        W92571   8.256  20.956   4.954
20147W        W92572  27.675  30.583  11.502
20148W        W92573   3.203  37.123  12.526
20149W        W92574   2.876  30.622  10.631
20150W        W92575  28.625  42.233  10.420
20151W        W92576  26.419  32.768  12.546
20152W        W92577   7.836  25.552   0.791
20153W        W92578  43.866  41.453  12.192
20154W        W92579  37.868  43.379   2.284
20155W        W92580  33.031   2.919  11.878
20156W        W92581  16.071  16.081  11.562
20157W        W92582   2.790  12.740  11.531
20158W        W92583  23.543   0.759   3.203
20159W        W92584  16.650  25.294   3.301
20160W        W92585  34.478   6.323   2.124
20161W        W92586  39.979  15.085  10.689
20162W        W92587  28.700   1.990  11.146
20163W        W92588  34.965  30.504   4.622
20164W        W92589  32.881  32.131   3.281
20165W        W92590  14.164  13.803   4.303
20166W        W92591  12.941  40.491   4.685
20167W        W92592  31.042  44.447   1.237
20168W        W92593  26.469   1.733  12.087
20169W        W92594  30.080   0.323   3.416
20170W        W92595  33.205  21.590  11.162
20171W        W92596  31.129  22.898   3.899
20172W        W92597  37.006   1.510   2.370
20173W        W92598  33.002  27.552  10.835
20174W        W92599  13.492  20.188   0.768
20175W        W92600  14.720  16.336  11.974
20176W        W92601  44.533   4.611  13.580
20177W        W92602   5.324  16.628   2.803
20178W        W92603  33.685  34.196  13.290
20179W        W92604  34.483  42.550  13.367
20180W        W92605  36.937  10.560   3.192
20181W        W92606  11.198  19.396  14.420
20182W        W92607   4.496  10.087   0.887
20183W        W92608  12.986  38.107   2.245
20184W        W92609  13.840   3.972  14.515
20185W        W92610  41.745  23.621  12.807
20186W        W92611  35.176   9.744   1.972
20187W        W92612   6.752  22.086   4.448
20188W        W92613   1.863  34.132   2.861
20189W        W92614  28.989  11.027   2.541
20190W        W92615  18.748  33.146  10.983
20191W        W92616  38.033  38.757   2.383
20192W        W92617  28.062  18.084   4.277
20193W        W92618  32.259   7.280  10.162
20194W        W92619  18.730  20.630   3.691
20195W        W92620  22.671  36.938   4.680
20196W        W92621  25.120  14.627   0.723
20197W        W92622  36.998   3.036   3.691
20198W        W92623  40.989  21.641   3.080
20199W        W92624  21.490  14.804   3.622
20200W        W92625   5.969  35.056  11.624
20201W        W92626  25.692   2.982  12.455
20202W        W92627  41.271  10.146   1.839
20203W        W92628  42.999   5.321   4.394
20204W        W92629  27.170  37.086  14.748
20205W        W92630  36.613  36.227   1.129
20206W        W92631   8.952  43.795  13.241
20207W        W92632  12.571  25.338   5.458
20208W        W92633  20.269  12.175  11.515
20209W        W92634  30.112  12.735   3.651
20210W        W92635  22.541  29.085   4.277
20211W        W92636  15.409   9.117  12.680
20212W        W92637  31.094  15.085  11.232
20213W        W92638  25.261   2.356   4.187
20214W        W92639  10.905  24.798   1.393
20215W        W92640  24.454  31.573   2.576
20216W        W92641  33.779  20.828   1.357
20217W        W92642  37.509  15.062   2.102
20218W        W92643   8.279  40.309   3.135
20219W        W92644   4.862  39.747  10.638
20220W        W92645  23.442  11.258   5.217
20221W        W92646   8.192  20.609   4.549
20222W        W92647  19.298   1.233  11.127
20223W        W92648  21.031  42.407  11.442
20224W        W92649  11.358   6.229   4.406
20225W        W92650  36.387  32.900   1.200
20226W        W92651  20.664  23.052   4.506
20227W        W92652  11.492  13.851   2.883
20228W        W92653  20.226  19.247  13.546
20229W        W92654  20.410  26.370  10.803
20230W        W92655  20.026  41.693  11.959
20231W        W92656  33.019  24.788  11.200
20232W        W92657  41.849  41.448  12.955
20233W        W92658  22.781  21.836  10.121
20234W        W92659   4.910  18.693  12.943
20235W        W92660  39.947  32.146   0.782
20236W        W92661   3.624  32.132   4.008
20237W        W92662   1.369   1.862   2.293
20238W        W92663  10.448  23.004   4.168
20239W        W92664  37.812   3.921  12.544
20240W        W92665  25.928  29.433   4.364
20241W        W92666  39.052  12.297  10.946
20242W        W92667  25.855  15.145   3.904
20243W        W92668   4.562  33.934   0.237
20244W        W92669  32.929  37.883  14.362
20245W        W92670   3.084  29.691  12.466
20246W        W92671  25.528  39.039   3.950
20247W        W92672  12.832  28.685  10.704
20248W        W92673  16.740  44.938  14.898
20249W        W92674   6.366  17.159   0.466
20250W        W92675  23.894   3.352   4.054
20251W        W92676  39.275  34.655  10.367
20252W        W92677   0.550  20.671  10.779
20253W        W92678  26.127   6.872  11.307
20254W        W92679  44.941  37.564   2.890
20255W        W92680  11.346  18.733   0.462
20256W        W92681  39.105  37.101   1.651
20257W        W92682  29.927  31.388   4.083
20258W        W92683   6.372  27.344  14.190
20259W        W92684   6.859   6.089   1.329
20260W        W92685  42.484  40.654   2.196
20261W        W92686   1.104  33.417   5.130
20262W        W92687  39.447  29.008   3.290
20263W        W92688  32.593  16.523  14.819
20264W        W92689  44.948  14.172  14.201
20265W        W92690  30.684  43.228   3.218
20266W        W92691  25.836  22.131  12.990
20267W        W92692  29.095  34.975   4.039
20268W        W92693   0.189   6.713  11.602
20269W        W92694  17.280  28.490   3.290
20270W        W92695  44.868  33.515   1.225
20271W        W92696   6.857  29.214   3.426
20272W        W92697   0.602  12.327  12.548
20273W        W92698  36.996  29.002   1.374
20274W        W92699   1.438  26.626  14.536
20275W        W92700  38.460   2.712   2.195
20276W        W92701   3.427  31.767   1.758
20277W        W92702  22.534  12.907   5.092
20278W        W92703  23.160  42.883  12.427
20279W        W92704  38.324  27.348  14.334
20280W        W92705  15.288  15.085  14.521
20281W        W92706  15.873   3.705   0.788
20282W        W92707  38.950  20.327  13.597
20283W        W92708  24.898  28.227  12.998
20284W        W92709   8.221  32.072   2.411
20285W        W92710  40.931  27.438   1.108
20286W        W92711  39.849   1.887  12.512
20287W        W92712  41.241  12.926  12.442
20288W        W92713  33.051   9.402  10.699
20289W        W92714  18.369  42.386   4.395
20290W        W92715  16.753  21.494  11.493
20291W        W92716   5.321  16.238  13.927
20292W        W92717  36.944  23.637   1.137
20293W        W92718   5.290  38.584  14.495
20294W        W92719  36.841   5.884   0.051
20295W        W92720  12.322  13.265  13.525
20296W        W92721  38.903   4.118  10.157
20297W        W92722  15.823  26.955  13.367
20298W        W92723  18.954  43.947   4.074
20299W        W92724  20.956  20.540   3.238
20300W        W92725  32.221   0.810  11.055
20301W        W92726  24.722  22.107  10.623
20302W        W92727  25.274  36.010  13.376
20303W        W92728  14.152   7.935   3.681
20304W        W92729  22.307   3.213   3.308
20305W        W92730   6.304  24.347  14.706
20306W        W92731  17.362  42.580   4.687
20307W        W92732  34.141  12.711  14.827
20308W        W92733  41.199  30.022   4.214
20309W        W92734  38.575  26.498  14.660
20310W        W92735  22.074  23.533   4.604
20311W        W92736   6.282  19.341   2.819
20312W        W92737   7.149  36.851  14.053
20313W        W92738  42.548   3.220   0.424
20314W        W92739   7.737  14.797   3.367
20315W        W92740  28.316  44.858  12.032
20316W        W92741   0.260  33.831   1.416
20317W        W92742  24.009  40.008   2.776
20318W        W92743  20.664  14.110  14.823
20319W        W92744   2.818  34.445  12.419
20320W        W92745  29.552  15.584   4.876
20321W        W92746  27.921   6.595   2.839
20322W        W92747   4.163  13.326   2.266
20323W        W92748  22.568  38.982  10.053
20324W        W92749  11.697  19.406  11.562
20325W        W92750  31.861  10.759   1.842
20326W        W92751  21.376  35.365   3.593
20327W        W92752  19.297  22.792   3.149
20328W        W92753  33.776   8.639  10.200
20329W        W92754  44.568  44.829  11.066
20330W        W92755   5.375  23.554   1.958
20331W        W92756  40.305  23.543   1.353
20332W        W92757  44.072  21.867   5.411
20333W        W92758  12.984  35.959  14.550
20334W        W92759   0.403  41.557   1.662
20335W        W92760  44.675  15.714  14.110
20336W        W92761  35.900  38.861   1.452
20337W        W92762  26.596  36.579   0.725
20338W        W92763  26.593  16.678   2.462
20339W        W92764  36.818   0.151  12.919
20340W        W92765  19.996   4.845   2.866
20341W        W92766  39.985  15.314  14.752
20342W        W92767  38.682   6.273   2.747
20343W        W92768  13.121  38.306  13.062
20344W        W92769  28.607  11.757  13.447
20345W        W92770   2.979  26.087   1.780
20346W        W92771  36.387  39.874  10.673
20347W        W92772  13.212  35.062  14.125
20348W        W92773  26.094  13.145  14.230
20349W        W92774  39.200  38.427  13.462
20350W        W92775  24.355  28.560   2.632
20351W        W92776  12.318  32.650  11.569
20352W        W92777   5.895  13.640  11.134
20353W        W92778  38.810  10.284   1.380
20354W        W92779   0.203  22.030   0.442
20355W        W92780   1.695  28.848   1.215
20356W        W92781  15.421  14.071   0.260
20357W        W92782  14.840  32.590  13.447
20358W        W92783  30.144  30.189   2.004
20359W        W92784  14.081   9.003   3.669
20360W        W92785  36.621   1.787  10.271
20361W        W92786   9.274  24.099   0.261
20362W        W92787  15.997   8.312  12.655
20363W        W92788  18.249  10.809  10.461
20364W        W92789  14.534  38.520   3.510
20365W        W92790  26.832  23.991   4.201
20366W        W92791  29.842  16.059   1.776
20367W        W92792   4.915  36.360  12.317
20368W        W92793  11.147   5.842   0.235
20369W        W92794   8.027  22.159   2.388
20370W        W92795   6.335   2.190  10.708
20371W        W92796  15.264  37.548   4.092
20372W        W92797  12.721  19.449  14.290
20373W        W92798  27.617  31.822  10.392
20374W        W92799   7.429  25.666  13.438
20375W        W92800  30.975  22.274   1.423
20376W        W92801  30.488  26.889   4.439
20377W        W92802  29.622  42.209   2.778
20378W        W92803  10.681   9.399   2.257
20379W        W92804  34.037  11.673   1.280
20380W        W92805   2.169   1.219   3.229
20381W        W92806  27.417  11.890   3.574
20382W        W92807  12.469  41.952  12.417
20383W        W92808  41.898  16.317  14.488
20384W        W92809  38.464  19.453  13.428
20385W        W92810  12.446  20.833   0.359
20386W        W92811  12.643   8.922   2.796
20387W        W92812   7.337   9.769  14.433
20388W        W92813  23.475   6.348   4.018
20389W        W92814   4.377  44.355  11.881
20390W        W92815  19.572  26.013   1.753
20391W        W92816  32.551  10.811  12.839
20392W        W92817   1.181   5.749   1.666
20393W        W92818  43.806  14.289  12.040
20394W        W92819  21.158  11.416   2.902
20395W        W92820  20.048   0.411  10.342
20396W        W92821  24.140   1.661  12.424
20397W        W92822  20.153  16.150   1.454
20398W        W92823  37.314   3.752  12.521
20399W        W92824  42.860  11.895   1.298
20400W        W92825   0.387   6.050  13.834
20401W        W92826  15.114  23.870   3.344
20402W        W92827  31.875  11.423  10.674
20403W        W92828  34.926  32.428   4.299
20404W        W92829   3.943   7.942  12.893
20405W        W92830  29.910  27.627  10.972
20406W        W92831  41.929  22.435   3.804
20407W        W92832   4.834   0.576   2.735
20408W        W92833  13.132  14.349  14.883
20409W        W92834  25.992  42.022  12.196
20410W        W92835  17.616  24.835   4.143
20411W        W92836  19.316  35.959   0.681
20412W        W92837   9.879   4.754  14.901
20413W        W92838  11.871  19.248   1.843
20414W        W92839   5.792  33.339  13.425
20415W        W92840  11.269  18.915  13.348
20416W        W92841  43.025  34.166   4.580
20417W        W92842  19.566  18.148   2.614
20418W        W92843  20.349  18.745   2.964
20419W        W92844  43.761  25.030   0.471
20420W        W92845  42.283  42.344   4.585
20421W        W92846  21.983  29.133  14.112
20422W        W92847  17.098  41.050  14.951
20423W        W92848  32.309  31.716   3.758
20424W        W92849  18.187  33.524   3.264
20425W        W92850  11.623   5.825   0.471
20426W        W92851  20.369  39.770  13.747
20427W        W92852  27.045  31.797   4.961
20428W        W92853   5.329  29.215  14.396
20429W        W92854  17.566  15.805   3.161
20430W        W92855  19.211  20.714   3.300
20431W        W92856  19.593  20.773   4.523
20432W        W92857  34.055  20.782   4.503
20433W        W92858  37.720  36.798   0.294
20434W        W92859  32.634  22.996   4.830
20435W        W92860  44.442  29.524   0.182
20436W        W92861  15.719  34.674  12.076
20437W        W92862  21.545  36.390   4.595
20438W        W92863   5.701  38.863  13.542
20439W        W92864  17.853   8.409   2.771
20440W        W92865  23.177   9.452  11.155
20441W        W92866  41.801  43.340  14.987
20442W        W92867   3.627  38.334   3.799
20443W        W92868  14.372   4.352  12.453
20444W        W92869   6.367  40.420   3.455
20445W        W92870  19.141  20.965   0.001
20446W        W92871   6.302  27.078   3.227
20447W        W92872  37.625  21.214  12.041
20448W        W92873   1.350  38.843  11.870
20449W        W92874  33.842  40.359  13.860
20450W        W92875  14.703  24.598   0.346
20451W        W92876  36.755  37.664   1.362
20452W        W92877  32.865  44.930   3.062
20453W        W92878  44.802  19.231   2.656
20454W        W92879   9.767   1.224   4.653
20455W        W92880  13.067  27.185  14.376
20456W        W92881  21.085  20.178  11.735
20457W        W92882  14.736   8.473   2.902
20458W        W92883  12.181  16.672  13.876
20459W        W92884  13.361  40.289  14.418
20460W        W92885  35.166  28.976   2.044
20461W        W92886  21.330  10.350   1.462
20462W        W92887  43.771  26.402  14.887
20463W        W92888  34.575  41.956  11.548
20464W        W92889   4.601  39.306   4.233
20465W        W92890  39.917  15.656   0.137
20466W        W92891   8.244  40.618  11.495
20467W        W92892   6.294  42.428   3.633
20468W        W92893  26.589  18.583  14.540
20469W        W92894  36.033  18.730  11.894
20470W        W92895  40.080   1.400  13.489
20471W        W92896   0.496   1.694  14.421
20472W        W92897  43.503  10.318   3.768
20473W        W92898  34.702  28.446   0.503
20474W        W92899  38.561  31.924  12.942
20475W        W92900  20.288  28.186  14.362
20476W        W92901  23.078  32.939   0.880
20477W        W92902  19.040   9.764  11.941
20478W        W92903  28.940   0.863   2.761
20479W        W92904  20.121  23.752  12.974
20480W        W92905  17.644  44.256  11.599
20481W        W92906  15.045  42.763  14.892
20482W        W92907  19.720  29.079   4.554
20483W        W92908  14.545  32.144   0.875
20484W        W92909  13.202  39.941  10.806
20485W        W92910   9.672  14.501   3.246
20486W        W92911  21.178  38.457  10.751
20487W        W92912  34.746  25.554  14.050
20488W        W92913   9.798   4.072   4.130
20489W        W92914  18.605  27.956   5.006
20490W        W92915   4.743   0.717  12.044
20491W        W92916   7.732  15.760  13.283
20492W        W92917  10.717  31.113   4.015
20493W        W92918   8.143   6.632  14.903
20494W        W92919  26.956   0.530   4.361
20495W        W92920  12.086  16.150  13.888
20496W        W92921  19.076   8.932  11.008
20497W        W92922  23.043  28.713   2.380
20498W        W92923   2.403  27.261   0.971
20499W        W92924   5.205  41.378   3.748
20500W        W92925   6.973  19.390   2.177
20501W        W92926  28.468  35.320   4.591
20502W        W92927   4.777   2.975   5.161
20503W        W92928  15.989  10.083  14.724
20504W        W92929  39.691  43.490   1.691
20505W        W92930  37.444  24.155  14.286
20506W        W92931  35.417   9.305  13.546
20507W        W92932  15.701   3.733   5.510
20508W        W92933  27.544  28.090   1.232
20509W        W92934  16.226   0.221   2.725
20510W        W92935  23.149  35.518   4.373
20511W        W92936  24.030  33.627   4.704
20512W        W92937   8.884   8.554   1.699
20513W        W92938  12.287  20.150   3.168
20514W        W92939   2.315  42.452   1.800
20515W        W92940  14.651  34.022   1.350
20516W        W92941  24.218  21.500  14.443
20517W        W92942   8.239  15.175   0.819
20518W        W92943  23.778   2.628   0.187
20519W        W92944  37.585   7.607   1.749
20520W        W92945  28.112  12.544   5.086
20521W        W92946  16.861  35.506   4.692
20522W        W92947  18.028  12.459   4.166
20523W        W92948  30.406  23.608   0.758
20524W        W92949  10.637  30.910   1.652
20525W        W92950  13.101  33.950   1.438
20526W        W92951  21.679  13.331   1.311
20527W        W92952  27.164   3.352  14.735
20528W        W92953   1.457  13.132  11.503
20529W        W92954   9.055  12.560   2.454
20530W        W92955   7.897  41.917  11.728
20531W        W92956   6.755  43.473   0.363
20532W        W92957  30.837  41.969   3.576
20533W        W92958   4.895  12.745   0.371
20534W        W92959  26.524  31.814  12.212
20535W        W92960  20.854  10.171   5.370
20536W        W92961  11.886  24.608   9.775
20537W        W92962  37.368  36.000  10.255
20538W        W92963   5.145  15.873  14.860
20539W        W92964  20.778  13.161  12.469
20540W        W92965  17.991  10.759  13.855
20541W        W92966  25.557  34.620   2.672
20542W        W92967  38.931  16.849   2.265
20543W        W92968   9.872  29.398  11.169
20544W        W92969  26.784   8.204   2.831
20545W        W92970  36.972  18.321  12.360
20546W        W92971  43.495  12.742  10.583
20547W        W92972   6.304   9.326   3.303
20548W        W92973  14.056  24.824  11.541
20549W        W92974  16.629   4.297  13.861
20550W        W92975  19.656   0.062  13.336
20551W        W92976  23.812  21.759  12.253
20552W        W92977  16.603  34.650   3.616
20553W        W92978  14.755  13.062  10.944
20554W        W92979  44.387  20.783  12.856
20555W        W92980   0.069  40.570   3.177
20556W        W92981  20.495  19.349  13.972
20557W        W92982  21.508  21.102   0.150
20558W        W92983   6.254  40.338   1.729
20559W        W92984  27.255   8.464   4.121
20560W        W92985   1.208  27.208   3.681
20561W        W92986   3.882  15.360  14.981
20562W        W92987  18.088  21.212  11.137
20563W        W92988  36.365  24.196   4.314
20564W        W92989  14.688   4.273  13.930
20565W        W92990  11.865  33.424   2.703
20566W        W92991   2.801   7.118   3.665
20567W        W92992  12.736  39.515  13.484
20568W        W92993  42.974   2.192   4.183
20569W        W92994  38.835   9.611  13.931
20570W        W92995  18.195   1.446   0.782
20571W        W92996  13.048   5.377  11.414
20572W        W92997  31.562  38.097  12.415
20573W        W92998  35.165   4.221   1.287
20574W        W92999  30.501  39.973  13.048
20575W        W93000   6.770  26.668  11.088
20576W        W93001  40.028  10.712  12.187
20577W        W93002  20.391  28.408   1.948
20578W        W93003  41.962  27.658  12.103
20579W        W93004   5.247   2.221   4.142
20580W        W93005  11.256   0.255  10.594
20581W        W93006  28.983  27.194   3.160
20582W        W93007  22.487  24.383  12.543
20583W        W93008   8.204   1.951  10.716
20584W        W93009  14.651  29.481  13.105
20585W        W93010   7.716  44.709   3.536
20586W        W93011  25.208  41.601   0.484
20587W        W93012  24.229  35.981   2.628
20588W        W93013   3.947  34.005   3.118
20589W        W93014  31.691   5.811   0.352
20590W        W93015   3.277  33.651  11.612
20591W        W93016   0.740   8.146   3.875
20592W        W93017  23.609  41.763   2.275
20593W        W93018  26.733  20.164   1.690
20594W        W93019   7.920  15.754  14.176
20595W        W93020  37.139   6.265  14.850
20596W        W93021  27.763   6.225  11.735
20597W        W93022  22.644  42.230   0.800
20598W        W93023  17.072   8.139  10.505
20599W        W93024  31.515  41.656  12.332
20600W        W93025   5.133  25.549  14.852
20601W        W93026  10.237  25.576  12.565
20602W        W93027  16.287   3.791   1.290
20603W        W93028  30.893  29.055   1.295
20604W        W93029  28.402  26.885  11.091
20605W        W93030  36.164  32.967   2.296
20606W        W93031  29.747  26.182  14.955
20607W        W93032  40.849   4.871   1.982
20608W        W93033  35.730  38.783  10.927
20609W        W93034   1.719   0.848   2.046
20610W        W93035  18.812  18.619   2.195
20611W        W93036  32.894  15.198   0.298
20612W        W93037  25.065  24.300   2.187
20613W        W93038  33.788  27.987  12.872
20614W        W93039   9.162  30.663   3.729
20615W        W93040  23.047  19.815  13.523
20616W        W93041  38.881  29.182  14.825
20617W        W93042  44.994  33.959  12.901
20618W        W93043   0.255  19.959   3.651
20619W        W93044   5.377  20.006  12.840
20620W        W93045  16.818  19.548  10.616
20621W        W93046  40.996  13.244   3.035
20622W        W93047  28.142  34.478   1.409
20623W        W93048  30.200   2.459  14.797
20624W        W93049   4.912  38.762  14.178
20625W        W93050  42.543  11.213  10.781
20626W        W93051  10.352  44.303  12.854
20627W        W93052  40.309  32.619  12.017
20628W        W93053  19.010  44.441   3.227
20629W        W93054   3.964  43.290  13.852
20630W        W93055  23.722  17.300   0.262
20631W        W93056  29.448  38.645  14.432
20632W        W93057  26.296   6.856  10.771
20633W        W93058  29.483  44.099   0.465
20634W        W93059  43.222  23.690   3.958
20635W        W93060  31.156  34.437   3.646
20636W        W93061  28.462  41.531  11.370
20637W        W93062  19.630  39.335  13.044
20638W        W93063  43.501  15.521   2.311
20639W        W93064   6.497  30.909   0.373
20640W        W93065  28.043  33.588   4.615
20641W        W93066  20.734  12.143  13.489
20642W        W93067  33.173   9.765  12.614
20643W        W93068  34.626  36.647  12.527
20644W        W93069  13.362  27.697   0.702
20645W        W93070  17.319  24.198  10.848
20646W        W93071  19.605  35.739   4.573
20647W        W93072   3.440  44.536   0.884
20648W        W93073  35.677  31.294   4.638
20649W        W93074  36.153  17.276  12.839
20650W        W93075   1.261  18.808   3.792
20651W        W93076  23.238  44.038   4.408
20652W        W93077  31.130   3.955  14.492
20653W        W93078   5.834  31.466   2.284
20654W        W93079  28.450   6.649   4.558
20655W        W93080  41.510  42.409   4.090
20656W        W93081  12.330  44.452   2.108
20657W        W93082  30.074  35.875  12.790
20658W        W93083  44.547  36.921   3.815
20659W        W93084   0.943  31.434   4.321
20660W        W93085   7.291  39.000   2.138
20661W        W93086   7.301  18.156   1.871
20662W        W93087   8.813  20.218   1.808
20663W        W93088  29.664  31.346   1.413
20664W        W93089  14.664  28.923   1.341
20665W        W93090  28.435   5.322   3.250
20666W        W93091   2.842  23.209   0.537
20667W        W93092   0.972  19.197  13.395
20668W        W93093   2.253  13.070   4.981
20669W        W93094  44.339   6.940   1.772
20670W        W93095  23.072  10.323  14.703
20671W        W93096   5.487  31.800  11.027
20672W        W93097   0.380  33.535   4.583
20673W        W93098   2.459   1.979  14.273
20674W        W93099  34.036  32.889  12.546
20675W        W93100   5.736  16.783   0.956
20676W        W93101  20.800  43.997  12.044
20677W        W93102  37.392  12.358  14.854
20678W        W93103  34.904   5.447   0.234
20679W        W93104  43.471   3.888  13.492
20680W        W93105  39.775  35.841  10.669
20681W        W93106  42.277  16.566  12.931
20682W        W93107  36.635  27.622  11.184
20683W        W93108  11.678  37.307   1.743
20684W        W93109   3.792  25.621   0.292
20685W        W93110  24.568  15.765  11.365
20686W        W93111  35.564  14.194  13.752
20687W        W93112  14.695  19.115  13.128
20688W        W93113  15.070  24.942   4.614
20689W        W93114  26.633  28.911   3.562
20690W        W93115  19.089   7.430  14.479
20691W        W93116  22.983  32.519  12.966
20692W        W93117  16.133  35.153   4.189
20693W        W93118  13.048  39.143  12.211
20694W        W93119  14.777  36.843  12.553
20695W        W93120  22.742   5.228  14.887
20696W        W93121   7.943  44.112   1.551
20697W        W93122  27.260  20.793   1.237
20698W        W93123  24.604  25.555  10.833
20699W        W93124  18.491  29.923   0.963
20700W        W93125  13.692   8.012   4.519
20701W        W93126   2.711   0.963   2.812
20702W        W93127  29.631  36.973  13.324
20703W        W93128  22.763  40.365   1.476
20704W        W93129  43.926  36.800   0.847
20705W        W93130  29.847   0.321   2.021
20706W        W93131  25.078  38.263  13.806
20707W        W93132  17.657  18.369   3.703
20708W        W93133  13.189  29.964  14.853
20709W        W93134  25.830  22.741   2.956
20710W        W93135   7.775  36.845  14.993
20711W        W93136   3.761  11.148  12.529
20712W        W93137  18.724   8.901   2.958
20713W        W93138  26.046  14.297  14.931
20714W        W93139   1.382  11.212   0.217
20715W        W93140  12.380   2.199   0.440
20716W        W93141   2.880  40.319   1.854
20717W        W93142  22.716  20.701  12.126
20718W        W93143   5.438   9.449   1.745
20719W        W93144  25.956  18.882  12.389
20720W        W93145  15.053  13.808  14.970
20721W        W93146  40.203  12.227  14.524
20722W        W93147   4.182  27.199  12.466
20723W        W93148   1.786  27.014   4.559
20724W        W93149  26.520  33.480   3.280
20725W        W93150  18.622  20.035   1.502
20726W        W93151  15.426  30.511  14.772
20727W        W93152  23.230  16.600   3.742
20728W        W93153  34.344  41.991  12.007
20729W        W93154  15.434  21.136   3.180
20730W        W93155  20.221   4.621  11.916
20731W        W93156  32.077  30.032   3.305
20732W        W93157  19.110  43.414   4.824
20733W        W93158  42.486  19.325   4.028
20734W        W93159   6.669  18.994  10.842
20735W        W93160   5.725  11.909  13.410
20736W        W93161  36.859  42.091   2.009
20737W        W93162  35.914   0.849   3.342
20738W        W93163   8.831   9.704  14.604
20739W        W93164  11.611  27.853  10.685
20740W        W93165  34.595  11.197   0.292
20741W        W93166  39.649  15.042   0.928
20742W        W93167  41.374   0.699  10.668
20743W        W93168  13.176  29.342   4.802
20744W        W93169  35.351  24.634   1.661
20745W        W93170  16.690  19.467  12.468
20746W        W93171  32.740  11.824   3.594
20747W        W93172  41.037  41.077  13.486
20748W        W93173  36.627  41.593   2.290
20749W        W93174  25.407   7.901   1.936
20750W        W93175   3.465  35.091  10.610
20751W        W93176   0.305  27.161  12.919
20752W        W93177   6.515  39.693   0.633
20753W        W93178  42.764  16.017   0.824
20754W        W93179  10.935  42.933   4.178
20755W        W93180   8.703  16.256  11.187
20756W        W93181  15.029  24.034   3.853
20757W        W93182  13.398  39.113  14.763
20758W        W93183  10.783  34.061  12.534
20759W        W93184   0.456  28.684   0.914
20760W        W93185  14.495  28.003   0.342
20761W        W93186  14.255   6.134   1.912
20762W        W93187  34.120  27.621  13.076
20763W        W93188  20.224   7.351   0.872
20764W        W93189  17.021  12.679  13.434
20765W        W93190  33.090  20.625  10.806
20766W        W93191   6.155  22.975  12.620
20767W        W93192  33.607  25.476   1.350
20768W        W93193  42.298  27.106   0.881
20769W        W93194  13.112  43.073  14.958
20770W        W93195  32.004  39.100  12.113
20771W        W93196  42.263   9.889  13.016
20772W        W93197  28.083  17.182  13.963
20773W        W93198  38.875  22.727  14.485
20774W        W93199  32.533  15.785   0.716
20775W        W93200  10.128  32.069   1.197
20776W        W93201  24.402   4.115   2.770
20777W        W93202   2.758  32.019   2.197
20778W        W93203   8.679  23.669   3.049
20779W        W93204   0.368  33.855  13.428
20780W        W93205  23.336  15.597  12.937
20781W        W93206  37.381   9.614  11.725
20782W        W93207  35.839  34.961  10.816
20783W        W93208  27.646  38.090   3.564
20784W        W93209  32.863  20.134  11.535
20785W        W93210  21.158  23.319   2.284
20786W        W93211  32.938  27.718  13.865
20787W        W93212  13.617  17.293  14.484
20788W        W93213  12.305  11.793  14.444
20789W        W93214  38.863   4.887  13.538
20790W        W93215  41.644  44.501  13.888
20791W        W93216  16.324  34.537  11.426
20792W        W93217  36.400  16.991   5.175
20793W        W93218  17.364  36.635   1.266
20794W        W93219  40.313  17.789   3.270
20795W        W93220  17.501  44.250  10.725
20796W        W93221  42.987  23.671  14.608
20797W        W93222  37.748  20.081  12.002
20798W        W93223  23.680  44.484  14.707
20799W        W93224   4.749  37.496  14.312
20800W        W93225  42.448  44.103  14.968
20801W        W93226  28.631   2.769   0.411
20802W        W93227  37.028  31.318  13.211
20803W        W93228  12.201  30.963  12.103
20804W        W93229   3.629  42.467   2.248
20805W        W93230  32.857   0.555  12.935
20806W        W93231  19.484  26.464   0.281
20807W        W93232  10.289  27.420  10.370
20808W        W93233  43.841   7.129   1.747
20809W        W93234  12.669   3.314  10.530
20810W        W93235  40.447  36.012   1.764
20811W        W93236  29.539   7.295  14.936
20812W        W93237   5.956  35.941   4.324
20813W        W93238   5.230  12.816   2.168
20814W        W93239  10.794   7.045  10.924
20815W        W93240  15.751  11.612   2.767
20816W        W93241   2.135  37.921   0.924
20817W        W93242   5.722   3.756  12.160
20818W        W93243  27.208  24.099  10.647
20819W        W93244  14.571  32.993   2.249
20820W        W93245  25.769  35.791  10.130
20821W        W93246  30.399  36.399   5.258
20822W        W93247  16.359  43.775   3.637
20823W        W93248  29.587  17.932   4.177
20824W        W93249  19.353  14.853  13.395
20825W        W93250  37.551   4.984   3.357
20826W        W93251  35.516  43.998   2.330
20827W        W93252  28.234  10.855  11.439
20828W        W93253  42.443  10.252   0.363
20829W        W93254  11.965  18.199  13.390
20830W        W93255   9.972  22.509   2.025
20831W        W93256  35.595  26.788  14.286
20832W        W93257   2.274   0.346  10.774
20833W        W93258  40.315  41.350   1.324
20834W        W93259  19.585  31.119  12.995
20835W        W93260  28.839  20.345  14.967
20836W        W93261   4.827   2.458  12.397
20837W        W93262   2.836  18.818  14.247
20838W        W93263  18.030   1.115  10.723
20839W        W93264   3.483   1.343   3.816
20840W        W93265  31.298  26.110  12.669
20841W        W93266  30.735  26.793   1.807
20842W        W93267   2.153  19.661  13.036
20843W        W93268  21.678  22.611  12.392
20844W        W93269  16.558  26.024  11.957
20845W        W93270  26.604   9.949   0.910
20846W        W93271  22.209  13.092   0.630
20847W        W93272   2.313  16.704  14.598
20848W        W93273  20.817  44.453   2.876
20849W        W93274  17.021   2.531  12.032
20850W        W93275  29.948  13.762  13.310
20851W        W93276  44.424  43.809  11.057
20852W        W93277  20.496  11.903   4.952
20853W        W93278  14.732  32.181  13.104
20854W        W93279  14.716  31.337  10.732
20855W        W93280  10.381  27.630   2.677
20856W        W93281   7.716  21.063   5.019
20857W        W93282  25.148  36.990   3.645
20858W        W93283  36.097   3.611  11.010
20859W        W93284  43.716  14.163   4.050
20860W        W93285  29.606  10.170  14.856
20861W        W93286  18.337  27.630  14.299
20862W        W93287  35.603  20.721   2.720
20863W        W93288  26.851  16.887   4.979
20864W        W93289  34.245  17.383   0.750
20865W        W93290  21.115  29.610   1.791
20866W        W93291  10.277  33.442  11.179
20867W        W93292  44.275  22.828  11.292
20868W        W93293  31.097  41.793   4.567
20869W        W93294  36.354  31.754  12.495
20870W        W93295  20.792  13.840  11.631
20871W        W93296  17.011  10.356   0.053
20872W        W93297  11.912  25.526  11.696
20873W        W93298  21.596  22.505  12.904
20874W        W93299  24.244  30.055   3.384
20875W        W93300  38.619  42.293   3.254
20876W        W93301  33.577  26.650  12.979
20877W        W93302   7.215  11.565   0.750
20878W        W93303  24.630  27.867  12.477
20879W        W93304   4.282  17.049  11.235
20880W        W93305   4.968  15.075  11.311
20881W        W93306  29.953  26.993   0.109
20882W        W93307   6.972  29.981   0.969
20883W        W93308  43.752   2.733   0.922
20884W        W93309  22.979  11.859  10.122
20885W        W93310  40.299   2.175  13.870
20886W        W93311   0.971   7.002  11.210
20887W        W93312  26.657  18.868  14.978
20888W        W93313  35.659  15.750   4.161
20889W        W93314  11.332  18.690  11.250
20890W        W93315   4.362   3.792  14.521
20891W        W93316   2.435  20.665  11.934
20892W        W93317  10.225   5.617   0.854
20893W        W93318  26.413  31.637  13.452
20894W        W93319  19.044  32.948  14.999
20895W        W93320  10.919   1.312   1.453
20896W        W93321   0.766   2.655   4.600
20897W        W93322  17.012   3.061  12.104
20898W        W93323  29.617  34.106  13.393
20899W        W93324   7.168  21.105   5.004
20900W        W93325  32.568  42.510  11.250
20901W        W93326   2.346  27.316  13.836
20902W        W93327  35.847  44.325   3.157
20903W        W93328  35.516  10.762  13.534
20904W        W93329  16.341  26.750   0.572
20905W        W93330  12.669  10.415  13.066
20906W        W93331  24.747  27.401  13.376
20907W        W93332  44.202  30.709  12.569
20908W        W93333  17.563  42.537  12.577
20909W        W93334  14.209  23.993  14.832
20910W        W93335  26.250  27.982  13.222
20911W        W93336  14.722   6.606  12.102
20912W        W93337  39.037  23.812   1.879
20913W        W93338   1.166  40.877  14.958
20914W        W93339  44.924  18.761   3.904
20915W        W93340   1.322  41.531  13.730
20916W        W93341  14.802  26.596   3.116
20917W        W93342  35.579  31.565  14.268
20918W        W93343  10.380   1.899   3.571
20919W        W93344  25.755  30.451  12.785
20920W        W93345  19.512   1.833  12.636
20921W        W93346  44.980  14.064  12.393
20922W        W93347  40.378  16.280   3.131
20923W        W93348  17.730  17.750   2.683
20924W        W93349  42.526  32.887   0.267
20925W        W93350  17.303  40.967  13.081
20926W        W93351  43.360   1.393  13.457
20927W        W93352   5.778   1.926  13.806
20928W        W93353  34.603  40.053  14.604
20929W        W93354  27.473  25.490  13.429
20930W        W93355  20.541  14.226  11.925
20931W        W93356  18.549   2.364   2.916
20932W        W93357   9.285   2.042   2.976
20933W        W93358  41.158  20.479  12.415
20934W        W93359  33.964  41.730   4.829
20935W        W93360  29.064   2.728   4.016
20936W        W93361  24.611  42.523  10.583
20937W        W93362  38.971   1.522   0.248
20938W        W93363  44.455  27.193   4.345
20939W        W93364  31.853  16.533  12.144
20940W        W93365  42.556  18.937  14.254
20941W        W93366  29.428  18.047   0.389
20942W        W93367   4.934  17.074  14.959
20943W        W93368  30.689  34.758  13.097
20944W        W93369  21.975  24.067   3.266
20945W        W93370  39.615  39.559  12.094
20946W        W93371  15.460  29.719  12.915
20947W        W93372  39.572  34.401   3.674
20948W        W93373   4.400  32.556  12.946
20949W        W93374   1.283  43.668  11.994
20950W        W93375  36.043   5.761   4.194
20951W        W93376  21.223  17.454   0.982
20952W        W93377  13.046  39.974   3.476
20953W        W93378  29.733  15.377  13.899
20954W        W93379  43.890   7.372   2.941
20955W        W93380  41.745  33.418   4.669
20956W        W93381  14.124  29.476  13.908
20957W        W93382  40.921  43.598   0.496
20958W        W93383  18.702   2.245  13.845
20959W        W93384   6.266  20.472   2.402
20960W        W93385  19.000   2.020   1.903
20961W        W93386  43.367  33.196  12.552
20962W        W93387  15.027   6.536  14.745
20963W        W93388  36.507  20.755  13.361
20964W        W93389  13.082   8.126  11.180
20965W        W93390  36.938   4.645   1.448
20966W        W93391   7.079   3.712   1.156
20967W        W93392  41.812  34.839  13.150
20968W        W93393   1.039  15.762  13.566
20969W        W93394  14.842   4.025   2.381
20970W        W93395  20.522   5.816   2.385
20971W        W93396  39.421  28.985   0.385
20972W        W93397  13.028   2.256  14.222
20973W        W93398   0.800   9.266  14.469
20974W        W93399   4.955  33.740  14.178
20975W        W93400   3.277   2.731   2.240
20976W        W93401  30.379  36.108   1.210
20977W        W93402  29.666  40.991  14.805
20978W        W93403  38.053   2.266   2.719
20979W        W93404   2.463   8.634   4.529
20980W        W93405  16.548  29.049   3.190
20981W        W93406  10.355  29.112   4.713
20982W        W93407  37.438  23.927  11.953
20983W        W93408  12.709  41.762   4.242
20984W        W93409  36.436  19.125   3.155
20985W        W93410  34.960  27.753  14.948
20986W        W93411  18.046  14.618   0.929
20987W        W93412   0.466  22.566   1.001
20988W        W93413  10.382  18.552   0.283
20989W        W93414  34.447  16.580   2.162
20990W        W93415  30.166  16.429   1.157
20991W        W93416   2.874  24.055   2.868
20992W        W93417  10.425  10.790   4.713
20993W        W93418  38.432  17.049  13.493
20994W        W93419   8.308   6.192  11.650
20995W        W93420  21.677   1.748   2.295
20996W        W93421  39.985  17.664   0.661
20997W        W93422  15.775   1.819   0.691
20998W        W93423  11.155  25.119   3.292
20999W        W93424  16.088  23.244  12.571
21000W        W93425  13.409   5.450  10.502
21001W        W93426  38.839  11.166   0.743
21002W        W93427  14.803   0.853   1.808
21003W        W93428  40.508  32.052  14.350
21004W        W93429  18.213   7.221  10.640
21005W        W93430  21.538   2.456   0.357
21006W        W93431   3.433   0.927  12.417
21007W        W93432  17.219  32.964  12.400
21008W        W93433  19.341  11.527  12.891
21009W        W93434  17.766  28.952   1.219
21010W        W93435   8.387  30.713   3.339
21011W        W93436  32.365  12.241   0.301
21012W        W93437  23.745  34.033  12.454
21013W        W93438  10.210  24.004   4.353
21014W        W93439   9.632  42.118   1.465
21015W        W93440  22.920  42.070   2.833
21016W        W93441  32.321  35.309  13.107
21017W        W93442  10.243  40.846   4.606
21018W        W93443  27.412   9.680   4.574
21019W        W93444  40.978   3.348  11.462
21020W        W93445  15.319   4.829  13.944
21021W        W93446  13.117   2.462  14.683
21022W        W93447   9.202  23.585  10.594
21023W        W93448   4.215   9.741  12.587
21024W        W93449  22.385  35.898   5.197
21025W        W93450  25.192  36.539  12.063
21026W        W93451  38.288  11.266  14.047
21027W        W93452   6.105  10.162  14.743
21028W        W93453   2.440  42.526   2.772
21029W        W93454  34.933  34.602  14.870
21030W        W93455  26.396  20.723  13.461
21031W        W93456  35.577  35.286   4.071
21032W        W93457  33.160  31.467  14.132
21033W        W93458  25.142  43.775   1.004
21034W        W93459  44.275  28.991  13.889
21035W        W93460  14.985  17.801   0.754
21036W        W93461   4.123  31.494   0.296
21037W        W93462  15.783   6.922  11.438
21038W        W93463  40.421   5.928  12.983
21039W        W93464  36.473  21.831   0.817
21040W        W93465  41.968  29.426   0.894
21041W        W93466  17.834  44.363  12.477
21042W        W93467   8.081  43.007  10.274
21043W        W93468  35.087  30.482   2.426
21044W        W93469   6.183  14.621  12.411
21045W        W93470  27.986  42.829  10.214
21046W        W93471  19.352  26.572   0.781
21047W        W93472  27.767  35.104   2.156
21048W        W93473  41.339  24.988  14.425
21049W        W93474  39.276  38.627   1.681
21050W        W93475  41.013  31.598  10.737
21051W        W93476  28.070   5.174  13.084
21052W        W93477  35.377  22.639  13.452
21053W        W93478  12.241  14.030   1.298
21054W        W93479  28.102  29.570  11.554
21055W        W93480  29.352  43.461   4.261
21056W        W93481  42.252  39.675   2.204
21057W        W93482  27.404  10.257  10.346
21058W        W93483  26.436  22.149   1.576
21059W        W93484  16.038  10.925  13.706
21060W        W93485  38.019   8.158  11.145
21061W        W93486  23.903  15.668  12.477
21062W        W93487  32.601  35.906   2.765
21063W        W93488  34.511  38.131   1.321
21064W        W93489  36.439  33.441   2.956
21065W        W93490  17.211   1.746  14.633
21066W        W93491  31.537  42.187  13.646
21067W        W93492  41.006  44.541   2.821
21068W        W93493   7.216   7.633   1.202
21069W        W93494  14.043  28.520  11.087
21070W        W93495  20.042  16.113   0.059
21071W        W93496   9.476  38.865  12.908
21072W        W93497  30.153  30.334  13.038
21073W        W93498   9.329  12.582   1.185
21074W        W93499   0.918  44.970  10.739
21075W        W93500  21.162  39.478  13.483
21076W        W93501   5.854  18.500  10.423
21077W        W93502   9.321  32.375   2.825
21078W        W93503  42.088  30.749   1.648
21079W        W93504  17.893   7.207   0.999
21080W        W93505   8.798  29.659   2.954
21081W        W93506  44.840  27.952   2.286
21082W        W93507  41.633  21.674  13.291
21083W        W93508   6.817   9.739   4.617
21084W        W93509  27.623   3.514   2.927
21085W        W93510  39.133  10.627   4.561
21086W        W93511   5.802   0.558  14.823
21087W        W93512  24.646  30.376  13.974
21088W        W93513   5.155  22.834   3.213
21089W        W93514   8.302   1.025  11.746
21090W        W93515  31.642   5.841  12.193
21091W        W93516  15.797  25.545  14.817
21092W        W93517  42.794  15.604   2.853
21093W        W93518   0.987  19.778  11.124
21094W        W93519  25.228   6.870  13.024
21095W        W93520  37.158  43.474   3.707
21096W        W93521   6.234   5.459   0.796
21097W        W93522  20.263  17.182   5.005
21098W        W93523  19.400  37.440   3.044
21099W        W93524  14.801   5.014  14.930
21100W        W93525  32.479   6.995  10.552
21101W        W93526  31.425  13.172   3.209
21102W        W93527  42.359  40.171   2.344
21103W        W93528  27.799  39.026   2.240
21104W        W93529  36.280  14.279  13.507
21105W        W93530  25.397  23.003  14.724
21106W        W93531  31.060  39.117   3.212
21107W        W93532  37.941  41.754   4.553
21108W        W93533   4.149  42.272  14.391
21109W        W93534  26.667  33.392  11.357
21110W        W93535  30.597  18.664  14.412
21111W        W93536  11.811  11.119   4.588
21112W        W93537  33.672  12.104  14.071
21113W        W93538  26.583   5.134   2.283
21114W        W93539  21.277  42.562   0.477
21115W        W93540  40.398  13.069  11.656
21116W        W93541   7.504  31.706   4.579
21117W        W93542   4.043   7.415   3.058
21118W        W93543  23.973  19.494   5.034
21119W        W93544  36.318   2.313   4.125
21120W        W93545  25.017  25.247  11.536
21121W        W93546  27.635  26.717  12.078
21122W        W93547  30.637  38.942  14.858
21123W        W93548   5.330  25.336  13.903
21124W        W93549  29.341   8.826  11.637
21125W        W93550  24.859   3.397   4.941
21126W        W93551  18.598  34.849   2.369
21127W        W93552  11.422  24.446  10.533
21128W        W93553   6.337  39.294   1.460
21129W        W93554   1.276  17.073   2.752
21130W        W93555  35.105   3.297   1.730
21131W        W93556  43.518  44.774   1.854
21132W        W93557  23.569  14.553   0.640
21133W        W93558  20.193  38.581   4.355
21134W        W93559  36.478  41.339  14.220
21135W        W93560  19.465  15.720   4.548
21136W        W93561  14.595  35.384  10.710
21137W        W93562  18.154  43.311   4.214
21138W        W93563  38.472  10.469  11.564
21139W        W93564  21.484  28.519   0.433
21140W        W93565  39.083   4.079  12.933
21141W        W93566  25.578  16.352   0.349
21142W        W93567  18.331  18.318  12.401
21143W        W93568  14.661   0.471  13.460
21144W        W93569  29.079  32.841  11.565
21145W        W93570  15.208  41.591   4.029
21146W        W93571  20.556  36.424  10.413
21147W        W93572  24.946   1.728   2.696
21148W        W93573  34.961   8.748   1.275
21149W        W93574  28.385  10.591   0.252
21150W        W93575  20.952  28.105  12.057
21151W        W93576   6.355  17.676   2.698
21152W        W93577  18.732  29.934  10.637
21153W        W93578  21.265  29.132   3.220
21154W        W93579  11.089  34.747   3.696
21155W        W93580  23.741  32.011   0.537
21156W        W93581  15.660  34.173   3.751
21157W        W93582  34.397  38.307  14.369
21158W        W93583   6.051  37.885  10.808
21159W        W93584  33.474  19.729   4.112
21160W        W93585  35.324   2.181  12.076
21161W        W93586  40.492   7.208  11.657
21162W        W93587   7.871  37.566   0.746
21163W        W93588  18.617  18.286   4.562
21164W        W93589  23.800  29.746  14.746
21165W        W93590  39.615  21.451   2.742
21166W        W93591   5.752  34.596   2.387
21167W        W93592  19.201  26.887   4.181
21168W        W93593  34.125   6.977  10.708
21169W        W93594   4.506   8.173   0.707
21170W        W93595  42.865  35.059  11.352
21171W        W93596  42.990  39.046   0.211
21172W        W93597  12.032  24.649   0.355
21173W        W93598  21.460  24.131  11.350
21174W        W93599  17.467  32.824  11.971
21175W        W93600   7.564  22.594  14.913
21176W        W93601  11.387  14.194  10.552
21177W        W93602  42.535   0.726   4.939
21178W        W93603   1.683  25.626   1.746
21179W        W93604   7.931  13.059  13.482
21180W        W93605  17.791  41.443  14.366
21181W        W93606  13.551  40.489  13.974
21182W        W93607  10.675   3.807  11.642
21183W        W93608  23.526  28.610   2.217
21184W        W93609  23.949  25.754  10.781
21185W        W93610  42.963  22.548   4.609
21186W        W93611   6.229  43.532   0.263
21187W        W93612  34.122  27.340   4.046
21188W        W93613  23.099  28.602   4.857
21189W        W93614  41.793  32.951   4.452
21190W        W93615  20.640  27.176  11.314
21191W        W93616   0.739  14.881  10.699
21192W        W93617  34.527  26.854  13.278
21193W        W93618  21.230  15.693   1.440
21194W        W93619  43.778  24.660   4.665
21195W        W93620  22.954  24.763  14.413
21196W        W93621  21.077  30.920   4.366
21197W        W93622  40.217  11.349   3.152
21198W        W93623  29.672  17.986   2.255
21199W        W93624   5.664  31.413   1.316
21200W        W93625  13.277   9.584  13.104
21201W        W93626  23.233  34.378  13.479
21202W        W93627  39.026  19.718   2.765
21203W        W93628  16.970  39.039   4.124
21204W        W93629  20.921  33.630  10.353
21205W        W93630  23.103   0.793   0.380
21206W        W93631  20.210  38.601  14.320
21207W        W93632  26.223  15.322   1.750
21208W        W93633  41.418   1.464   1.945
21209W        W93634  10.245  33.556  14.197
21210W        W93635  18.899  33.784   4.647
21211W        W93636  13.758   0.744   3.593
21212W        W93637  26.439  23.602  12.633
21213W        W93638  19.784  41.871  11.526
21214W        W93639  18.048  30.371  14.323
21215W        W93640  18.649  28.051   1.314
21216W        W93641  17.270  22.617  14.964
21217W        W93642   1.231  23.950   2.373
21218W        W93643  41.496  25.681  11.154
21219W        W93644  42.101  22.731   4.177
21220W        W93645  20.481   7.300  12.535
21221W        W93646  29.729   8.131  11.106
21222W        W93647  42.039  20.080  11.606
21223W        W93648  38.168   7.710   5.047
21224W        W93649  19.205  14.637  13.989
21225W        W93650  33.186  39.096   4.416
21226W        W93651   1.758  33.887   2.411
21227W        W93652  28.167  12.030   2.842
21228W        W93653  17.601  41.239  14.844
21229W        W93654  18.508   2.672  11.525
21230W        W93655   9.869   9.220   4.866
21231W        W93656  16.826  24.925  14.490
21232W        W93657   2.663  27.693   3.882
21233W        W93658  24.714  36.278  12.052
21234W        W93659   4.701  22.540   3.418
21235W        W93660  27.632  13.852   4.314
21236W        W93661  10.892  17.807   3.734
21237W        W93662   9.820   2.301   0.347
21238W        W93663  17.267  23.442  12.383
21239W        W93664  36.341  28.183   0.976
21240W        W93665   3.023  10.063  10.983
21241W        W93666  24.559  37.017  12.499
21242W        W93667  30.507   6.144  13.828
21243W        W93668  16.610   2.370   1.322
21244W        W93669  29.698  36.445  10.685
21245W        W93670   7.321  14.569  13.857
21246W        W93671  42.582  36.669  10.746
21247W        W93672  38.377  35.213   2.444
21248W        W93673  32.378  12.858  12.895
21249W        W93674  22.139  24.773  12.338
21250W        W93675  29.527  39.948  12.019
21251W        W93676  22.680  42.825  14.923
21252W        W93677  32.750  16.353  12.118
21253W        W93678  37.981  38.066   2.748
21254W        W93679   4.023  28.848  11.038
21255W        W93680   8.866  28.266   3.599
21256W        W93681  12.377   6.825   0.441
21257W        W93682  18.329  39.494  10.871
21258W        W93683  28.525  30.519   2.556
21259W        W93684  26.078  35.831  11.245
21260W        W93685  40.825   6.553  13.551
21261W        W93686  38.730   7.395  13.992
21262W        W93687  24.724  40.440   2.795
21263W        W93688  10.665  42.036   2.233
21264W        W93689  35.893  10.203  10.692
21265W        W93690  29.066  38.055   0.564
21266W        W93691   6.193  43.291  11.665
21267W        W93692   5.854  28.939  13.993
21268W        W93693   5.077  13.019   1.294
21269W        W93694   1.752   6.853   1.865
21270W        W93695  41.388   3.505  12.163
21271W        W93696  37.399  20.076   4.500
21272W        W93697  10.787  43.626   3.715
21273W        W93698  31.752  41.713  13.756
21274W        W93699  33.022  34.888   1.725
21275W        W93700   5.210  30.258  11.164
21276W        W93701  40.738  27.099  12.060
21277W        W93702  27.062  15.705   1.707
21278W        W93703  42.375  12.178   2.245
21279W        W93704  22.753  34.850   3.712
21280W        W93705  44.356  43.025   4.574
21281W        W93706  21.010  39.739   0.758
21282W        W93707  31.337  24.212   0.246
21283W        W93708  31.239  43.080   0.039
21284W        W93709  13.165  43.771   0.372
21285W        W93710  19.355  11.799   2.252
21286W        W93711  22.707   6.991  12.488
21287W        W93712   6.534  41.831   3.363
21288W        W93713  19.203  17.756  13.478
21289W        W93714   1.266  26.437   2.133
21290W        W93715  26.526  38.721   2.757
21291W        W93716  23.952  11.175   5.127
21292W        W93717  28.371  29.743  14.287
21293W        W93718  35.042  32.930   2.121
21294W        W93719  16.797  14.595   1.358
21295W        W93720  30.929  24.204  11.218
21296W        W93721  35.008   5.426  11.543
21297W        W93722  15.866  30.476   4.694
21298W        W93723  17.670  44.730   2.613
21299W        W93724   7.907  16.196   4.072
21300W        W93725  10.165  27.029   3.378
21301W        W93726  19.567  16.281   0.004
21302W        W93727  33.428  42.775  13.002
21303W        W93728  28.036  31.555  11.508
21304W        W93729  18.795  41.387  13.070
21305W        W93730  44.742  35.399  14.015
21306W        W93731  12.812  15.274   4.871
21307W        W93732  18.599   5.125  12.503
21308W        W93733  42.855  24.778   1.743
21309W        W93734  41.815  26.423  14.977
21310W        W93735  17.974   7.249  11.122
21311W        W93736  36.478  12.266   4.286
21312W        W93737  25.760  20.495   3.229
21313W        W93738  17.309  37.496  13.954
21314W        W93739  36.942  27.762  10.763
21315W        W93740  21.683  36.935   4.604
21316W        W93741   5.835  14.011   3.443
21317W        W93742  40.002  19.110   4.221
21318W        W93743   1.028  32.615   0.424
21319W        W93744  44.255  25.108  14.688
21320W        W93745  34.553   0.236   1.837
21321W        W93746  24.169  44.892   3.086
21322W        W93747  15.349  24.655   1.008
21323W        W93748  26.683   2.662  12.438
21324W        W93749  32.402  13.841   4.748
21325W        W93750  20.162  38.001  11.010
21326W        W93751  23.230   0.051   2.827
21327W        W93752   5.457  25.033  13.485
21328W        W93753  42.356   0.773   2.861
21329W        W93754  15.008  43.246   1.351
21330W        W93755  18.100   4.881  13.377
21331W        W93756  30.348  23.000   3.461
21332W        W93757   9.463  23.095  12.166
21333W        W93758  37.963  24.689   1.857
21334W        W93759  27.042  12.184  13.937
21335W        W93760  32.222  34.143  12.562
21336W        W93761  29.579  41.990  10.724
21337W        W93762  14.374  16.581  11.063
21338W        W93763  18.137  21.654  12.339
21339W        W93764  15.589   0.825  12.922
21340W        W93765  33.834  40.346   1.599
21341W        W93766   3.443   6.251  11.448
21342W        W93767  29.404  32.150  11.187
21343W        W93768  44.950  17.167  10.868
21344W        W93769   5.400  24.521  13.565
21345W        W93770  15.991  39.009  13.945
21346W        W93771  32.560  15.646   1.697
21347W        W93772  20.618  38.553   1.380
21348W        W93773   4.909  26.201   2.412
21349W        W93774  17.241  42.603   2.645
21350W        W93775  34.060  25.509   4.280
21351W        W93776  10.384  19.711   3.167
21352W        W93777   2.294  22.165  13.479
21353W        W93778  27.490  29.725   1.313
21354W        W93779   2.056  20.660  14.052
21355W        W93780  24.601   8.940  14.376
21356W        W93781  40.099   6.354  13.797
21357W        W93782  35.362  29.542  14.499
21358W        W93783  11.214  44.108  13.450
21359W        W93784  42.443  16.407   3.585
21360W        W93785  38.027  21.676  14.870
21361W        W93786  16.583  22.706  11.795
21362W        W93787  40.034  20.102  13.603
21363W        W93788  10.725  43.983   0.472
21364W        W93789  26.967  24.097  11.976
21365W        W93790  28.513  24.427   4.341
21366W        W93791  37.507  32.225  13.906
21367W        W93792  22.463  39.111   3.398
21368W        W93793  23.714  10.058  13.120
21369W        W93794   3.702  20.563  14.379
21370W        W93795  26.552  16.166   2.730
21371W        W93796  29.570   6.758   1.701
21372W        W93797  19.368  22.524  13.484
21373W        W93798  17.638   1.965   1.808
21374W        W93799  43.879  44.020  14.927
21375W        W93800  30.217  23.762  11.686
21376W        W93801   3.538  29.031   3.565
21377W        W93802   1.561  10.826  14.371
21378W        W93803  24.277  29.018   1.933
21379W        W93804  38.794  25.939   4.681
21380W        W93805   5.338   7.155   4.305
21381W        W93806  19.283  37.350   0.388
21382W        W93807   9.910  15.550  12.121
21383W        W93808  42.309  44.964  14.820
21384W        W93809  26.583  42.817   0.543
21385W        W93810  27.219  37.913   2.725
21386W        W93811  12.568  30.426  12.924
21387W        W93812  23.507  42.708   4.541
21388W        W93813  20.174  35.311   0.083
21389W        W93814  24.981   6.943   0.660
21390W        W93815  16.797  27.249  11.420
21391W        W93816  37.781  40.040  11.946
21392W        W93817  33.579  44.138   2.894
21393W        W93818   5.880   4.680  14.906
21394W        W93819   1.426   7.479  11.812
21395W        W93820  24.608  41.194  13.861
21396W        W93821  15.810  31.583  10.333
21397W        W93822   2.859  10.438  13.935
21398W        W93823  29.915  43.721   1.765
21399W        W93824  39.913  36.641   3.722
21400W        W93825   6.392  34.146   4.404
21401W        W93826  10.212   8.115   0.822
21402W        W93827  39.878  27.677   0.007
21403W        W93828   8.414  39.614  10.989
21404W        W93829  19.810  23.576   4.170
21405W        W93830  31.448  11.346   3.572
21406W        W93831  44.046  44.501  11.503
21407W        W93832   8.707  39.129   0.789
21408W        W93833  10.689  20.018   4.805
21409W        W93834   6.765  31.326  10.547
21410W        W93835   5.755  22.257   0.290
21411W        W93836  19.712  22.120   3.802
21412W        W93837  13.239  40.548  14.939
21413W        W93838   3.308   6.846  11.236
21414W        W93839  23.429  34.553   3.366
21415W        W93840   7.433   9.654  11.243
21416W        W93841  26.380  14.216  11.689
21417W        W93842  11.791  15.938  13.395
21418W        W93843  39.953  14.792  13.848
21419W        W93844  33.838  12.064  11.819
21420W        W93845  32.379  30.730  12.414
21421W        W93846  32.413  16.814   0.783
21422W        W93847  12.911   0.417   0.291
21423W        W93848  12.119  29.861  13.947
21424W        W93849  12.762   4.677  12.802
21425W        W93850   1.838  20.088  11.535
21426W        W93851   8.431  35.385   0.870
21427W        W93852  16.832  43.064   3.739
21428W        W93853  26.954   6.809   0.022
21429W        W93854  11.793   2.913   0.777
21430W        W93855   8.476  12.388   0.051
21431W        W93856  36.019  14.049  13.971
21432W        W93857  13.392  12.821   4.521
21433W        W93858  23.937  16.884  14.091
21434W        W93859  36.599  28.000  12.566
21435W        W93860  36.426  27.854   0.384
21436W        W93861  37.536   7.688  10.420
21437W        W93862  44.054   2.913  12.524
21438W        W93863   5.396   3.910   3.455
21439W        W93864  38.774  20.721   2.691
21440W        W93865  27.727   7.856   1.316
21441W        W93866  18.876  28.868   4.231
21442W        W93867   9.644  19.487  11.442
21443W        W93868  35.606  11.534   1.431
21444W        W93869  10.663   5.378  14.264
21445W        W93870   1.904   1.251  12.206
21446W        W93871  21.990   8.172   0.752
21447W        W93872  32.560  33.166  12.023
21448W        W93873  19.268  19.721  10.512
21449W        W93874  31.730  20.186  12.971
21450W        W93875  26.806  39.188   0.027
21451W        W93876  13.680  24.182   3.962
21452W        W93877  42.098   6.396  12.401
21453W        W93878  10.639   9.164   1.295
21454W        W93879   7.189  43.823  13.372
21455W        W93880  39.790  19.720  13.364
21456W        W93881  27.013  19.365   0.412
21457W        W93882  13.924  11.698  12.134
21458W        W93883   8.846  12.149  13.820
21459W        W93884  13.190  16.306  14.602
21460W        W93885  23.170  29.197  11.185
21461W        W93886  32.046  29.876  13.880
21462W        W93887  23.060   2.916  13.798
21463W        W93888  16.075  28.105  10.461
21464W        W93889  26.716  25.937  14.516
21465W        W93890   1.581  43.432  11.648
21466W        W93891  20.106   6.631   2.676
21467W        W93892   6.576  28.533   2.707
21468W        W93893  29.905  29.869  12.923
21469W        W93894  31.196  43.275  12.015
21470W        W93895  26.586   8.675   2.849
21471W        W93896  33.901  41.995   2.401
21472W        W93897   9.858  29.984   0.580
21473W        W93898   2.410  21.549  14.417
21474W        W93899  26.695  30.764  11.184
21475W        W93900  44.183  38.481   4.368
21476W        W93901   8.320  27.349   1.760
21477W        W93902  33.427  38.624   4.566
21478W        W93903  40.026   0.449  13.988
21479W        W93904  31.056  15.456   5.057
21480W        W93905   8.327  32.623   2.733
21481W        W93906  18.070  25.227  11.102
21482W        W93907  26.129   4.879   2.244
21483W        W93908   7.416   0.145  13.930
21484W        W93909  21.394  12.758  10.040
21485W        W93910   2.483  41.173   2.520
21486W        W93911   1.441   2.321  11.455
21487W        W93912  15.857   4.439   0.351
21488W        W93913  10.204   2.062  11.059
21489W        W93914  28.409  39.050   4.981
21490W        W93915   1.866   4.952   2.657
21491W        W93916   7.941  29.993  12.694
21492W        W93917  18.221  34.522   0.807
21493W        W93918  21.951   0.750   3.106
21494W        W93919  20.029  16.545   1.768
21495W        W93920  43.969   0.016   0.267
21496W        W93921   1.276  17.593  12.579
21497W        W93922   5.934  30.448   2.087
21498W        W93923  32.922  15.039   2.653
21499W        W93924  24.082  25.681   3.691
21500W        W93925  19.713  41.289   1.446
21501W        W93926  29.507  19.109  11.546
21502W        W93927  39.500  38.534  13.894
21503W        W93928  26.621  16.642   1.584
21504W        W93929  31.438  24.564  12.821
21505W        W93930  32.719  13.073   0.769
21506W        W93931  35.228  18.782  11.468
21507W        W93932  39.823  15.205  12.054
21508W        W93933   5.582  39.550   4.157
21509W        W93934  14.803   9.086   2.473
21510W        W93935   7.502  42.517  14.989
21511W        W93936  26.689  35.800  13.690
21512W        W93937  28.681  28.597  12.954
21513W        W93938   5.759  20.311   4.608
21514W        W93939   0.056  33.816  12.350
21515W        W93940  17.735  18.692   2.934
21516W        W93941  34.854  28.727   0.935
21517W        W93942   1.317  34.157  14.258
21518W        W93943   5.747  40.946  13.473
21519W        W93944  33.654  23.664  13.288
21520W        W93945   6.817   4.427  13.481
21521W        W93946   2.818  15.737  12.860
21522W        W93947   5.206  32.607  11.536
21523W        W93948  43.210   1.830  13.957
21524W        W93949  38.054  44.104   0.022
21525W        W93950  16.781  21.585  12.471
21526W        W93951  36.992  31.476  11.410
21527W        W93952   6.883  38.993   2.466
21528W        W93953   6.888   7.791  11.329
21529W        W93954  17.078  43.950   4.577
21530W        W93955  17.076   0.869  11.456
21531W        W93956  27.682  13.657   3.851
21532W        W93957  30.880  28.448  12.189
21533W        W93958  33.863  13.610  12.609
21534W        W93959  41.916  42.298   1.933
21535W        W93960  27.993  43.300   1.435
21536W        W93961  42.069  11.192  12.230
21537W        W93962  39.769   7.772  11.458
21538W        W93963  19.483  29.125   2.801
21539W        W93964  27.441   4.248  14.313
21540W        W93965  35.367  38.758  13.490
21541W        W93966   0.998  29.132  14.531
21542W        W93967   1.373  17.130   0.451
21543W        W93968  21.379  32.266   2.782
21544W        W93969   5.142  26.444   0.519
21545W        W93970  10.381  17.716   3.854
21546W        W93971  35.970  38.255   2.230
21547W        W93972   6.657  13.810   0.878
21548W        W93973   4.060   4.792   1.291
21549W        W93974  26.068  20.679  11.085
21550W        W93975  37.166  29.527  12.388
21551W        W93976  34.921  25.014   2.862
21552W        W93977   0.736  23.966  10.368
21553W        W93978  28.476  15.373  12.971
21554W        W93979   5.939   9.832  13.759
21555W        W93980  14.254  11.099  13.300
21556W        W93981   7.213  42.317   3.127
21557W        W93982  19.635  32.612  10.439
21558W        W93983  38.004  40.209  10.691
21559W        W93984   4.275  30.934   3.694
21560W        W93985  42.374   9.309   2.308
21561W        W93986  32.886  32.319   3.985
21562W        W93987   0.720  37.724  10.014
21563W        W93988  41.436  22.699  14.572
21564W        W93989   1.139  38.014   1.739
21565W        W93990  19.216   3.879   2.735
21566W        W93991   6.970   6.913   0.555
21567W        W93992   8.136  29.654   2.208
21568W        W93993   8.693  33.391  14.870
21569W        W93994  44.515   5.896   4.556
21570W        W93995  24.236  31.740   5.407
21571W        W93996  35.438   0.308   1.773
21572W        W93997   4.778  15.867  11.547
21573W        W93998  11.404  16.128   3.734
21574W        W93999  23.471   5.226  10.667
21575W        W94000  11.687   1.613   1.211
21576W        W94001   4.684  38.263  11.512
21577W        W94002  17.080  39.792  12.426
21578W        W94003  35.975  13.212   4.482
21579W        W94004   1.572  10.837  10.377
21580W        W94005  42.885  11.363   9.952
21581W        W94006  13.128  30.020   0.764
21582W        W94007  35.146  12.157  13.259
21583W        W94008   2.396  14.501  14.539
21584W        W94009  29.755  27.798  10.521
21585W        W94010   5.970  16.293   4.105
21586W        W94011  17.035  31.877  14.845
21587W        W94012   8.893  14.459  14.753
21588W        W94013  13.080  28.857  11.969
21589W        W94014  31.587  22.085  12.612
21590W        W94015  12.348  29.496  14.458
21591W        W94016   6.428  43.794   2.478
21592W        W94017   3.920   8.876  14.145
21593W        W94018  13.382  39.905   1.609
21594W        W94019  44.485  35.930   0.062
21595W        W94020  32.392   9.741  13.849
21596W        W94021  29.713  23.506  11.929
21597W        W94022  35.942   2.722   0.906
21598W        W94023   4.104  14.051  14.168
21599W        W94024  34.193   0.748  12.881
21600W        W94025   3.434  36.864  11.575
21601W        W94026  27.223   3.397   2.614
21602W        W94027  10.918   4.308  12.973
21603W        W94028  12.354   2.916   2.668
21604W        W94029  37.014  21.204  12.971
21605W        W94030   3.714  37.507   4.200
21606W        W94031   1.352  10.191   0.438
21607W        W94032   4.373  23.212   1.491
21608W        W94033   4.173   8.920  12.032
21609W        W94034  34.136  35.829  10.555
21610W        W94035  41.337  44.919  13.982
21611W        W94036  19.041   6.398  10.764
21612W        W94037  22.540  28.123  12.993
21613W        W94038  27.535  33.522   2.341
21614W        W94039  15.849  23.708   3.180
21615W        W94040  34.649  38.983  11.885
21616W        W94041  36.989  43.751  11.604
21617W        W94042   3.823  37.474  11.475
21618W        W94043  34.496  35.578  14.422
21619W        W94044  14.291   0.860  14.272
21620W        W94045  40.121  22.165  11.220
21621W        W94046   2.035  27.441  14.264
21622W        W94047  31.930   7.601   3.898
21623W        W94048   9.184  20.274  14.405
21624W        W94049  11.437  18.619  11.740
21625W        W94050  23.514   7.836   1.527
21626W        W94051  13.888  23.453  11.082
21627W        W94052   9.244  37.226  13.907
21628W        W94053  13.837   3.491   1.795
21629W        W94054  20.755  30.383  13.901
21630W        W94055  25.035  39.296   0.006
21631W        W94056  21.625  20.194   2.271
21632W        W94057  10.335   3.206  11.710
21633W        W94058  29.052   3.641  12.484
21634W        W94059  28.384  41.422  14.959
21635W        W94060  21.142  35.613   2.589
21636W        W94061   3.777  33.810   0.752
21637W        W94062   5.453   1.774   0.363
21638W        W94063  11.726  43.010  14.048
21639W        W94064  17.529  30.168   4.171
21640W        W94065  15.119  24.289  13.846
21641W        W94066   6.742  10.001  10.700
21642W        W94067  14.555  32.266   2.811
21643W        W94068   0.085  11.563  14.822
21644W        W94069  25.291   4.673  13.960
21645W        W94070   7.641  26.032   4.594
21646W        W94071  35.019  22.093   1.788
21647W        W94072   9.903  19.481   0.659
21648W        W94073  33.437  15.786   4.053
21649W        W94074   3.172  11.263  13.540
21650W        W94075  29.274  27.085   1.121
21651W        W94076  40.583  26.152   4.259
21652W        W94077   0.710   3.387  12.941
21653W        W94078   1.009  12.626  14.406
21654W        W94079  28.958   9.823  12.504
21655W        W94080  20.765  43.987  10.678
21656W        W94081  43.107  25.102  14.440
21657W        W94082   6.996  21.153   0.841
21658W        W94083   6.792   1.657   4.709
21659W        W94084  43.866  23.609  14.006
21660W        W94085  33.885  22.156   2.777
21661W        W94086   3.879  21.094   3.229
21662W        W94087   1.719   9.852   0.330
21663W        W94088  20.691   5.700  13.597
21664W        W94089  23.086  17.052   1.309
21665W        W94090  22.513  41.634   5.037
21666W        W94091  30.105   7.184   4.656
21667W        W94092   7.858  38.754   2.771
21668W        W94093  25.428  17.230  14.846
21669W        W94094  18.326  20.587  14.461
21670W        W94095  18.449   5.403   3.479
21671W        W94096  37.272  40.909  12.139
21672W        W94097   0.743  25.588   0.767
21673W        W94098  23.619  16.692  11.968
21674W        W94099  33.498  39.775   2.398
21675W        W94100   0.441   0.771  13.746
21676W        W94101  24.740   1.114   4.806
21677W        W94102  11.314  27.156   2.647
21678W        W94103  29.530  13.800  14.277
21679W        W94104  10.228  10.203  10.026
21680W        W94105   2.516   3.250   3.733
21681W        W94106  43.552  40.818   3.919
21682W        W94107  34.123  13.730   3.700
21683W        W94108  35.426  22.242   4.901
21684W        W94109  13.235  35.122  10.788
21685W        W94110  17.942  33.325  14.462
21686W        W94111  10.245   5.111  12.895
21687W        W94112  25.905  20.985   3.318
21688W        W94113  31.063  11.280   3.187
21689W        W94114  36.490  24.686  12.568
21690W        W94115  38.372  25.539   2.211
21691W        W94116  16.245  13.063   0.873
21692W        W94117  30.614  35.543  14.305
21693W        W94118   0.775  23.668   1.148
21694W        W94119  36.333  12.690   4.583
21695W        W94120  17.734  20.059  11.216
21696W        W94121  32.602  14.056  12.085
21697W        W94122  27.437  20.135  13.556
21698W        W94123  18.665  42.850  13.142
21699W        W94124  22.951  21.654   1.120
21700W        W94125  40.323  33.771   0.477
21701W        W94126   3.713  27.226   0.066
21702W        W94127  34.361  42.227  12.977
21703W        W94128   5.793  21.134  11.111
21704W        W94129  11.193  19.985  14.518
21705W        W94130  23.454  15.701   2.448
21706W        W94131   9.486  19.790   0.535
21707W        W94132  42.057   1.137   3.680
21708W        W94133  34.686  44.623  12.478
21709W        W94134   8.339  33.101  10.614
21710W        W94135  10.411  42.380   3.460
21711W        W94136  26.990  27.764   2.379
21712W        W94137  33.586   9.335   3.596
21713W        W94138   2.746  25.087  13.033
21714W        W94139  13.841   1.729   3.396
21715W        W94140  24.273  34.523  13.941
21716W        W94141  35.972  22.564   1.475
21717W        W94142  12.328  44.140  13.085
21718W        W94143  38.330  25.035  14.356
21719W        W94144  34.593  20.840  14.262
21720W        W94145  21.072   4.630  12.939
21721W        W94146  24.163  17.577   0.234
21722W        W94147  38.779  36.337  11.260
21723W        W94148  19.733  26.691  11.838
21724W        W94149   0.327  25.459   1.223
21725W        W94150  25.928  25.960   0.270
21726W        W94151   5.282  28.953  10.281
21727W        W94152  36.570  17.167   4.722
21728W        W94153  25.714   5.684   2.274
21729W        W94154  42.803  29.490   2.105
21730W        W94155   3.935  40.502   3.827
21731W        W94156  20.463  37.563   2.311
21732W        W94157  42.075  16.531   1.357
21733W        W94158  33.994  31.084  13.585
21734W        W94159  13.240   1.531   3.676
21735W        W94160  12.166   4.433   4.025
21736W        W94161  36.482  29.101  13.377
21737W        W94162  10.135  41.962   2.289
21738W        W94163  13.298   2.215  10.162
21739W        W94164  33.097  13.827  10.570
21740W        W94165  16.608  25.787  14.441
21741W        W94166   3.960  13.345  11.263
21742W        W94167   5.253  37.467   0.941
21743W        W94168  22.175  12.912   5.462
21744W        W94169   0.922  24.827   4.573
21745W        W94170  30.345  29.053   1.406
21746W        W94171  12.408  26.954  13.946
21747W        W94172  24.112  25.695   2.792
21748W        W94173  12.219  35.209  11.544
21749W        W94174  33.906   1.322   4.115
21750W        W94175   8.757   5.213  10.906
21751W        W94176  10.389  11.828   1.718
21752W        W94177  42.285  23.662   4.375
21753W        W94178  28.435  36.042  11.141
21754W        W94179  36.725  24.119   3.367
21755W        W94180  36.524   1.557  14.143
21756W        W94181  19.601  31.562  11.120
21757W        W94182  13.100   2.947  13.891
21758W        W94183  29.997  22.811  14.275
21759W        W94184  40.097   6.721  11.223
21760W        W94185  24.141  18.729   1.819
21761W        W94186   1.213  13.269  11.088
21762W        W94187  34.997  10.492  13.608
21763W        W94188  32.079  24.257   3.742
21764W        W94189   0.481  44.367  12.477
21765W        W94190  23.996  34.127  12.908
21766W        W94191  40.900  14.390  10.946
21767W        W94192  35.880  43.111   1.728
21768W        W94193   6.521  21.589   0.174
21769W        W94194  18.612   0.470   0.948
21770W        W94195  26.200  20.176   1.638
21771W        W94196  29.208   5.874  13.823
21772W        W94197  42.963  26.209  12.396
21773W        W94198   8.827  38.919   4.604
21774W        W94199  39.742   6.320  11.141
21775W        W94200  39.928   5.815  11.120
21776W        W94201  39.896   0.481   3.862
21777W        W94202  15.111  25.278  10.698
21778W        W94203  43.078   9.312   4.299
21779W        W94204  28.982  10.358   4.133
21780W        W94205  19.640   2.518  14.910
21781W        W94206   7.448   2.151   2.206
21782W        W94207  11.335   9.761  14.553
21783W        W94208  32.058  11.808   4.183
21784W        W94209  10.206  43.906  14.585
21785W        W94210  44.669  23.419  14.807
21786W        W94211  34.099  40.352  10.727
21787W        W94212   9.122  44.717  14.892
21788W        W94213  38.923  28.102   3.348
21789W        W94214  44.738  24.097  12.505
21790W        W94215   1.415  36.303   4.076
21791W        W94216  16.334   5.758  11.483
21792W        W94217  43.803   8.075   2.336
21793W        W94218  33.486  24.254   0.863
21794W        W94219  30.571  40.150  12.556
21795W        W94220  44.935  25.929   2.442
21796W        W94221  41.529  13.666   4.366
21797W        W94222  37.112  30.702  11.035
21798W        W94223   7.795   3.329   1.398
21799W        W94224  26.138  29.589   9.856
21800W        W94225  26.239  19.782  11.663
21801W        W94226  12.171  20.733   4.296
21802W        W94227   8.339   1.862   1.673
21803W        W94228  24.778  13.136  11.811
21804W        W94229  15.964  23.096   0.362
21805W        W94230  37.058  32.525  12.850
21806W        W94231  26.806   0.101   1.878
21807W        W94232   4.754  16.331   3.350
21808W        W94233  21.226   7.673  14.799
21809W        W94234  23.642  43.699  10.683
21810W        W94235  39.731  11.140   3.240
21811W        W94236  37.802   6.827   0.249
21812W        W94237  10.160   4.416  11.887
21813W        W94238   4.290  37.696   1.206
21814W        W94239  34.836  13.703  12.494
21815W        W94240  33.039  12.761  13.539
21816W        W94241  35.082  27.587  12.281
21817W        W94242   9.523  22.587  13.357
21818W        W94243  44.413  24.942  12.926
21819W        W94244  44.338  32.912  14.886
21820W        W94245  12.060  18.305   4.106
21821W        W94246  30.471  31.386  12.988
21822W        W94247  17.705  27.076   2.862
21823W        W94248  42.554   8.946   3.504
21824W        W94249   8.159  32.980   4.489
21825W        W94250   1.445   6.506   2.433
21826W        W94251  37.449  38.394  14.270
21827W        W94252   4.959  39.607   2.195
21828W        W94253  41.481  28.422  11.751
21829W        W94254  18.481  12.705   4.110
21830W        W94255  42.058  15.659   1.542
21831W        W94256  36.044   0.982  12.469
21832W        W94257  24.277  10.239  13.971
21833W        W94258  30.238  22.462  10.722
21834W        W94259   1.360  38.527   0.849
21835W        W94260   7.916  35.431  12.453
21836W        W94261  42.467  27.571  12.205
21837W        W94262   2.695   0.370   2.244
21838W        W94263  19.086  32.921   3.863
21839W        W94264  37.809  20.506   0.355
21840W        W94265  39.932  26.015   0.479
21841W        W94266  25.589   0.086   2.450
21842W        W94267  24.600  42.098  14.174
21843W        W94268   9.806   1.927  14.357
21844W        W94269  37.072  31.787  13.512
21845W        W94270  42.596  35.357  13.470
21846W        W94271  13.691  35.920   2.016
21847W        W94272  16.127  19.587  11.616
21848W        W94273   5.887   7.286   3.628
21849W        W94274   7.686  25.839  12.807
21850W        W94275   0.441  44.840  13.778
21851W        W94276  13.722  28.519   4.538
21852W        W94277  44.031   6.809  14.979
21853W        W94278  27.961  43.346   0.904
21854W        W94279  23.627  26.291   3.254
21855W        W94280  18.736   6.020  10.975
21856W        W94281  28.897  43.340  12.329
21857W        W94282  23.932  34.444   1.741
21858W        W94283  42.547  31.900   1.783
21859W        W94284  27.434   5.269   3.311
21860W        W94285  33.386   1.075   0.910
21861W        W94286  12.659   4.392   4.174
21862W        W94287   1.770   9.368   4.648
21863W        W94288   3.875  12.277  13.064
21864W        W94289   0.180  25.356   2.666
21865W        W94290   8.633   6.188   2.847
21866W        W94291  21.194  27.942  14.237
21867W        W94292   6.497  32.063   2.768
21868W        W94293  27.476  25.022   0.768
21869W        W94294  31.405  16.811   3.718
21870W        W94295  43.466  19.160   9.526
21871W        W94296   6.161  29.354  13.046
21872W        W94297  12.300  44.984   4.214
21873W        W94298  20.117   9.640  14.505
21874W        W94299  26.421  24.949   0.745
21875W        W94300  27.138  28.917   2.720
21876W        W94301  40.495  44.891  12.539
21877W        W94302  15.232  44.296   0.327
21878W        W94303  14.424   3.863   2.661
21879W        W94304  15.648  10.100   1.340
21880W        W94305  10.242  15.592  13.783
21881W        W94306   3.542   9.942  14.354
21882W        W94307  41.055  39.483  10.783
21883W        W94308  11.746  25.078   0.435
21884W        W94309  25.518   3.416  10.415
21885W        W94310  20.998  10.918  14.832
21886W        W94311  10.569  13.096  13.047
21887W        W94312  41.304  32.421   3.185
21888W        W94313   2.225  41.462  10.376
21889W        W94314  32.779  31.377   1.941
21890W        W94315  13.728  10.621  12.849
21891W        W94316   4.096  20.325  11.024
21892W        W94317  12.181   1.945   5.439
21893W        W94318  19.017  40.199  11.065
21894W        W94319   9.461  38.959   2.949
21895W        W94320  36.801  19.175  11.960
21896W        W94321   2.559  44.839   3.240
21897W        W94322  33.539  37.868   1.299
21898W        W94323  17.006   4.914   0.830
21899W        W94324  25.137  35.066  13.101
21900W        W94325   4.398  25.613   2.851
21901W        W94326   3.460   1.834   4.220
21902W        W94327  27.348  28.329   0.797
21903W        W94328  36.593   2.932  14.745
21904W        W94329  36.600  23.287   0.980
21905W        W94330  37.925  35.606   1.452
21906W        W94331  14.327  31.612   0.946
21907W        W94332  37.345  38.340  13.392
21908W        W94333  14.047  37.173   2.202
21909W        W94334   1.488  38.869  14.473
21910W        W94335  20.163   0.342   3.418
21911W        W94336  28.422  35.543  14.547
21912W        W94337  22.404   6.768  11.080
21913W        W94338  10.742  18.257   2.436
21914W        W94339  43.485   5.972  12.570
21915W        W94340  38.612  33.729   0.015
21916W        W94341  36.606  17.800  13.585
21917W        W94342   0.756  27.520  13.560
21918W        W94343  14.530  35.336  11.781
21919W        W94344  33.904   3.291  13.366
21920W        W94345  40.571  23.678  14.669
21921W        W94346  25.781  40.005  11.409
21922W        W94347  39.586  25.249  11.090
21923W        W94348  22.982   7.887  14.854
21924W        W94349  19.088  26.723  10.978
21925W        W94350  17.014  20.557  11.214
21926W        W94351  10.120  39.063   2.873
21927W        W94352  24.544  13.637   3.645
21928W        W94353  38.102   8.784  14.975
21929W        W94354  26.172  40.297  10.662
21930W        W94355  32.175  40.945   2.797
21931W        W94356   5.532  12.745  13.162
21932W        W94357  44.464   0.789  13.342
21933W        W94358   0.058   4.544  13.694
21934W        W94359  40.437  15.559  11.705
21935W        W94360  41.368  31.022   0.778
21936W        W94361  10.712  33.132  11.215
21937W        W94362   6.223   3.324  13.799
21938W        W94363  44.278  39.867  13.621
21939W        W94364  43.745  36.814  13.805
21940W        W94365   8.405  31.729   0.091
21941W        W94366  17.869  14.025  11.180
21942W        W94367  24.497  44.001   3.139
21943W        W94368  35.765   8.863  11.045
21944W        W94369  20.713  26.048   4.809
21945W        W94370  19.103  14.522  10.721
21946W        W94371  36.388   4.554  10.717
21947W        W94372  27.222   4.858   0.498
21948W        W94373  23.090  22.365   4.004
21949W        W94374  13.590  12.605  13.199
21950W        W94375  16.300  15.974   0.206
21951W        W94376   5.180  44.716  11.448
21952W        W94377  36.967  41.004  13.882
21953W        W94378  30.379  43.474   1.767
21954W        W94379   2.472  29.875   0.854
21955W        W94380  30.374   2.033   0.341
21956W        W94381  27.247  32.095   2.848
21957W        W94382  37.926  29.438   1.259
21958W        W94383  31.166   7.306   5.013
21959W        W94384  29.413  35.031  14.499
21960W        W94385   4.508  23.449   2.136
21961W        W94386  25.145  32.724  10.993
21962W        W94387   2.439   4.967   5.370
21963W        W94388  24.731  11.928   3.338
21964W        W94389   2.388  32.381   0.711
21965W        W94390  44.237  35.566  11.688
21966W        W94391  20.499  27.193  12.260
21967W        W94392  28.008   9.169  11.121
21968W        W94393   3.419  16.106  12.431
21969W        W94394   0.382  14.241   1.674
21970W        W94395  14.769  44.713  14.783
21971W        W94396  41.891  26.662  11.168
21972W        W94397  13.591  28.743   4.049
21973W        W94398  38.192  29.014  11.468
21974W        W94399  14.863  11.892   3.839
21975W        W94400  29.563  11.371   2.785
21976W        W94401  19.616  43.179   0.045
21977W        W94402   0.007  26.603   4.733
21978W        W94403  32.663  26.045  12.193
21979W        W94404  35.820  35.558   0.334
21980W        W94405  37.359  20.964   4.762
21981W        W94406  37.514   4.202  13.121
21982W        W94407   7.710   3.212  11.705
21983W        W94408   8.841  16.124  12.543
21984W        W94409  23.740  32.955   2.316
21985W        W94410  10.811  19.797  13.554
21986W        W94411  33.050   0.844  10.631
21987W        W94412   8.367  18.577   2.333
21988W        W94413  36.964  30.531   4.537
21989W        W94414  28.575  44.910  13.167
21990W        W94415   4.856  44.850  12.596
21991W        W94416  16.295  38.338  13.062
21992W        W94417  29.381   9.278   0.863
21993W        W94418  28.156  24.965  13.746
21994W        W94419  27.566  23.338   2.586
21995W        W94420  21.988   8.951   4.691
21996W        W94421  39.497  37.269  14.197
21997W        W94422  44.601   5.882  11.002
21998W        W94423  33.294  20.598   0.435
21999W        W94424  43.527  14.825   2.772
22000W        W94425  31.978  28.318   4.716
22001W        W94426   3.028  37.522   1.641
22002W        W94427  12.582  30.097  11.023
22003W        W94428  10.597  14.662  10.758
22004W        W94429   2.029   3.248   0.717
22005W        W94430   9.684  22.796   0.189
22006W        W94431  40.061  30.488   4.096
22007W        W94432   5.709  44.454  13.977
22008W        W94433  30.566  14.388  11.310
22009W        W94434  14.124  42.579   2.047
22010W        W94435  40.740  26.135  14.877
22011W        W94436  33.063  21.126  14.378
22012W        W94437  40.854  20.876   1.251
22013W        W94438  33.305  14.761   4.061
22014W        W94439  36.474  41.017   0.372
22015W        W94440  11.786  19.244   4.736
22016W        W94441   9.853  27.496  14.848
22017W        W94442   2.338  19.101  14.871
22018W        W94443   6.658  12.671  11.655
22019W        W94444  37.077  36.769  11.808
22020W        W94445  32.517   0.216   1.877
22021W        W94446  28.731  18.598   3.192
22022W        W94447  42.841  37.116  11.062
22023W        W94448  44.355  29.538   5.063
22024W        W94449  34.044   2.973  12.966
22025W        W94450   3.722  44.527  12.641
22026W        W94451  17.298  28.721  11.152
22027W        W94452   8.146  30.153  13.489
22028W        W94453  42.065  34.427  12.963
22029W        W94454  43.430  35.570  11.503
22030W        W94455  34.078  35.812  11.612
22031W        W94456  23.191  25.988   4.777
22032W        W94457  23.563   2.761  13.796
22033W        W94458   1.313   8.587  11.143
22034W        W94459  35.288  28.605   1.208
22035W        W94460  27.220  37.388  13.910
22036W        W94461  43.564  32.543  10.634
22037W        W94462   3.924  20.955   5.077
22038W        W94463  39.775  38.098  13.889
22039W        W94464  35.190   7.140   9.813
22040W        W94465  43.989   4.820  12.119
22041W        W94466  27.528   5.787  11.426
22042W        W94467   6.807  11.600  14.481
22043W        W94468   7.047  31.460  14.682
22044W        W94469  44.856   9.194   0.891
22045W        W94470  25.884  26.451   0.387
22046W        W94471  30.275  43.968  14.289
22047W        W94472  23.108   4.277   2.940
22048W        W94473  13.776   2.226   3.211
22049W        W94474  28.306  14.709  11.723
22050W        W94475   5.243   2.971   0.796
22051W        W94476   3.960  13.625  13.909
22052W        W94477  11.049  24.911   2.808
22053W        W94478  15.322  35.621  11.379
22054W        W94479  32.072  39.533   4.238
22055W        W94480   2.332  25.437   0.379
22056W        W94481   4.513  25.117  10.960
22057W        W94482  27.676   7.019  14.321
22058W        W94483  42.069  10.832  14.729
22059W        W94484  14.125  24.160   3.643
22060W        W94485  12.219  37.077  11.140
22061W        W94486  38.955  36.806  10.963
22062W        W94487  10.838  10.269  13.603
22063W        W94488  16.354  20.952   4.506
22064W        W94489  42.167  10.376  12.811
22065W        W94490   8.487   1.617   4.505
22066W        W94491   5.944  18.120  14.832
22067W        W94492  20.166  12.312  11.043
22068W        W94493  40.004  14.970   4.629
22069W        W94494  36.034  17.015  11.623
22070W        W94495   1.912   5.903  12.950
22071W        W94496  44.247  41.420  11.144
22072W        W94497  20.380   9.231  11.893
22073W        W94498  35.690   4.966   2.812
22074W        W94499   0.869   7.831  12.448
22075W        W94500  44.034  34.773  14.868
22076W        W94501  22.616  27.957   2.257
22077W        W94502  43.182  29.685  10.722
22078W        W94503  29.796  37.981   2.173
22079W        W94504  40.331  41.865  14.016
22080W        W94505  37.443  28.220  11.891
22081W        W94506  22.134  12.235  12.032
22082W        W94507   9.413  42.824  10.815
22083W        W94508  15.686   9.591   1.263
22084W        W94509  43.915  12.631   0.746
22085W        W94510  40.958   0.915   2.400
22086W        W94511  17.519  29.217   4.154
22087W        W94512  16.410  11.055   1.742
22088W        W94513  23.393  43.723  13.847
22089W        W94514  44.820  25.797   1.334
22090W        W94515  13.037  25.040   1.746
22091W        W94516   3.377  41.885   1.468
22092W        W94517  14.385  29.520   3.901
22093W        W94518  21.638   3.978   1.260
22094W        W94519   9.150  42.750   3.726
22095W        W94520  30.341  13.345  13.176
22096W        W94521  17.494  38.091  11.063
22097W        W94522  23.744  39.354  11.091
22098W        W94523  15.238  42.967   4.297
22099W        W94524   9.922  27.835  12.090
22100W        W94525  27.904   5.411   0.281
22101W        W94526   1.141  34.030  12.372
22102W        W94527  20.876  20.731   1.267
22103W        W94528  35.428  29.129  11.936
22104W        W94529   2.834  28.241  14.510
22105W        W94530  42.322  30.167   0.625
22106W        W94531  18.315  26.969   2.596
22107W        W94532  36.391  42.535  12.843
22108W        W94533  21.614   1.241  10.708
22109W        W94534  11.715  33.635   2.241
22110W        W94535  24.844   1.919  14.396
22111W        W94536  15.354   9.717   2.227
22112W        W94537  16.381  23.170  13.010
22113W        W94538  36.075   7.036   1.952
22114W        W94539  16.666  34.449  11.045
22115W        W94540   7.698  24.435  12.607
22116W        W94541   9.773   0.224   4.927
22117W        W94542   7.823  21.762   1.297
22118W        W94543  36.167  40.063   1.049
22119W        W94544  27.658   1.293  13.390
22120W        W94545   6.149   7.461   1.318
22121W        W94546   3.740  42.112  12.275
22122W        W94547  36.995  15.544   4.725
22123W        W94548  38.841  16.884  10.702
22124W        W94549  12.305   9.278   0.309
22125W        W94550  11.965  44.849  10.306
22126W        W94551  38.086  27.683   1.927
22127W        W94552  14.952  33.534   4.200
22128W        W94553   1.516  20.354   4.232
22129W        W94554  44.816  21.112   1.184
22130W        W94555  40.231  40.333   2.662
22131W        W94556  32.970  18.062  10.955
22132W        W94557  30.452  44.730   4.562
22133W        W94558   9.355  21.617  13.382
22134W        W94559  44.176  14.798   0.873
22135W        W94560  15.823  13.816  12.947
22136W        W94561  26.477  27.452  11.555
22137W        W94562  38.923  13.423   4.610
22138W        W94563  26.555  39.935   0.600
22139W        W94564   9.866  19.337  12.297
22140W        W94565  12.156  15.735   2.311
22141W        W94566  32.874  44.871   4.205
22142W        W94567  31.482  30.321   3.270
22143W        W94568  13.341  36.766  14.494
22144W        W94569  33.357  16.009  13.328
22145W        W94570  12.067  31.566   0.810
22146W        W94571  40.667  17.815   1.884
22147W        W94572   7.769  38.545   3.527
22148W        W94573  12.282  26.472   2.579
22149W        W94574   1.268  27.578  13.533
22150W        W94575  27.505  16.795  11.885
22151W        W94576  15.191   1.566   1.663
22152W        W94577  43.851  30.135   3.726
22153W        W94578  38.065  38.384  12.976
22154W        W94579  35.106  24.207  13.350
22155W        W94580   4.347  24.153   1.211
22156W        W94581  20.105  39.037   0.774
22157W        W94582  26.580   2.653  14.895
22158W        W94583  23.004  19.779   2.745
22159W        W94584  26.432  37.843  13.925
22160W        W94585   7.693  11.304   2.125
22161W        W94586  42.011  19.103   2.326
22162W        W94587  17.801  36.360   1.213
22163W        W94588   1.963   3.320   1.284
22164W        W94589   8.782  39.350  13.433
22165W        W94590  33.535  34.211  13.787
22166W        W94591   1.475   2.416  10.940
22167W        W94592  38.505   7.071  13.180
22168W        W94593  39.207   4.388   9.768
22169W        W94594  35.123  38.607   3.979
22170W        W94595  19.121  41.435  12.379
22171W        W94596  26.975  38.011   3.200
22172W        W94597  43.511  16.952   1.519
22173W        W94598  15.528  31.622   4.712
22174W        W94599   1.258   4.310  14.436
22175W        W94600   5.919  44.538   0.885
22176W        W94601   1.455  14.764   0.593
22177W        W94602  35.937  11.519  12.509
22178W        W94603   5.851  17.591  11.067
22179W        W94604  27.019  42.238   3.329
22180W        W94605  28.523  17.418  13.314
22181W        W94606  40.463  16.641   4.178
22182W        W94607  11.656  37.320  12.399
22183W        W94608  25.308  13.890   1.766
22184W        W94609   1.764  23.165  10.438
22185W        W94610   4.357  18.555  13.504
22186W        W94611  15.105  22.600  14.119
22187W        W94612  36.922  11.282   3.713
22188W        W94613   7.381  31.176   4.549
22189W        W94614  11.655  28.269  14.254
22190W        W94615  27.190   5.922   3.260
22191W        W94616  31.391  35.081  10.814
22192W        W94617  15.051  31.015  14.928
22193W        W94618  14.797  29.266  14.850
22194W        W94619  10.204  41.363  10.431
22195W        W94620  27.432  18.679  10.737
22196W        W94621  30.842  32.161  10.270
22197W        W94622   2.504   4.441   1.873
22198W        W94623  33.531  19.954  12.138
22199W        W94624   5.150  23.530   4.345
22200W        W94625  22.518  17.356   0.344
22201W        W94626  44.197  33.634   4.026
22202W        W94627  44.035  21.071   2.162
22203W        W94628   2.429  31.034   0.373
22204W        W94629  39.922  31.617   2.789
22205W        W94630  24.118  36.383   1.729
22206W        W94631  40.489  18.468  12.553
22207W        W94632   2.181  19.197  10.725
22208W        W94633  17.401   4.153   2.485
22209W        W94634   2.915  33.019   0.225
22210W        W94635  38.447  25.903  11.182
22211W        W94636  16.302   6.637   2.790
22212W        W94637  44.407  15.602   4.607
22213W        W94638  40.096  37.540   0.864
22214W        W94639  42.561  18.653  12.926
22215W        W94640  12.788  23.366   0.554
22216W        W94641  30.513  15.955  12.511
22217W        W94642   5.657  36.546   2.643
22218W        W94643   0.322  43.707   1.307
22219W        W94644  39.155  36.144  11.617
22220W        W94645  40.185  39.883   3.870
22221W        W94646  42.492  35.482   0.224
22222W        W94647  19.114   5.208  14.588
22223W        W94648  25.531   0.016   2.943
22224W        W94649  42.462  15.294  11.195
22225W        W94650  23.068   9.646   5.124
22226W        W94651  38.514  15.880   3.157
22227W        W94652  10.037   7.860  13.992
22228W        W94653  43.162  20.397   5.308
22229W        W94654  41.994  30.947  12.534
22230W        W94655  29.628  27.565  11.390
22231W        W94656   8.172  32.845  12.841
22232W        W94657  38.826  24.628  11.993
22233W        W94658  27.190  13.819   1.772
22234W        W94659  13.107  42.945   4.517
22235W        W94660  37.025   5.412   2.315
22236W        W94661  12.912  13.653   2.615
22237W        W94662  33.308  19.133  10.543
22238W        W94663  22.831  23.948  12.463
22239W        W94664  38.163  40.316   4.558
22240W        W94665  14.238  24.211  14.357
22241W        W94666  25.248   4.762  10.602
22242W        W94667   9.566  32.510  14.756
22243W        W94668  11.288  16.770   3.253
22244W        W94669  23.065  13.582   2.279
22245W        W94670   0.280  26.630  10.672
22246W        W94671  14.207  32.878  13.458
22247W        W94672   3.326  35.021   2.651
22248W        W94673  22.610   4.152   2.880
22249W        W94674  29.435  43.110   0.039
22250W        W94675   7.346  30.193   2.191
22251W        W94676  31.559   5.311   4.342
22252W        W94677   3.269  42.729  11.041
22253W        W94678  14.617  24.176  11.082
22254W        W94679  28.424  21.672  11.664
22255W        W94680  44.954   6.941   4.777
22256W        W94681  34.862  13.675   1.130
22257W        W94682  12.676  31.114   4.611
22258W        W94683  20.262  28.684   4.249
22259W        W94684  13.491  17.483  13.995
22260W        W94685  12.535  24.029  14.821
22261W        W94686  23.124  28.937  12.089
22262W        W94687   5.977  20.674   2.807
22263W        W94688   3.274  14.823   4.232
22264W        W94689  28.480   3.215  12.897
22265W        W94690  40.256  38.470  12.737
22266W        W94691  36.085  22.931   2.731
22267W        W94692  11.068  36.890   4.254
22268W        W94693  29.889  21.015   1.338
22269W        W94694   6.920  29.108  11.194
22270W        W94695  11.701  19.497   3.482
22271W        W94696  25.676   8.184  13.839
22272W        W94697  15.831  37.631  10.334
22273W        W94698  43.390   3.315  14.828
22274W        W94699   2.810  24.683  14.234
22275W        W94700   8.371   0.509  11.714
22276W        W94701  27.233  14.104   4.099
22277W        W94702  31.209   9.791  13.368
22278W        W94703  10.362  25.760  13.026
22279W        W94704  19.117  30.016   0.803
22280W        W94705  12.822  19.643   2.632
22281W        W94706  36.625   9.186   3.497
22282W        W94707  39.368  25.252   0.848
22283W        W94708   5.013  30.123   3.735
22284W        W94709  13.438  12.817  13.887
22285W        W94710   9.926  13.448   1.501
22286W        W94711  26.413  38.591  10.257
22287W        W94712   0.942  37.828   3.266
22288W        W94713  17.469   5.776   2.735
22289W        W94714   7.146  13.713   3.084
22290W        W94715  27.159  35.563  13.783
22291W        W94716  34.556  41.564  10.587
22292W        W94717  20.774  44.520  11.973
22293W        W94718  12.155  26.778  13.537
22294W        W94719  20.656  34.965   4.785
22295W        W94720  34.547  32.214  14.362
22296W        W94721  15.056  34.188   1.640
22297W        W94722  11.228   6.747   4.211
22298W        W94723   2.362  39.227   4.833
22299W        W94724  29.431   6.939   0.304
22300W        W94725  30.417   9.745   4.374
22301W        W94726   3.480  42.652  13.397
22302W        W94727  17.126   6.641  12.005
22303W        W94728  34.536   7.147  12.404
22304W        W94729   8.417  15.837  11.991
22305W        W94730   1.085   3.194  11.945
22306W        W94731  28.524   5.466  14.289
22307W        W94732  17.952  36.151  14.460
22308W        W94733  20.353  42.947  11.195
22309W        W94734  17.595  42.883   4.315
22310W        W94735  10.680  29.112   5.121
22311W        W94736   0.027   3.458  14.017
22312W        W94737  30.216  10.336  14.411
22313W        W94738  12.193   8.374  13.821
22314W        W94739  40.624  36.946  12.995
22315W        W94740  16.099  32.715  12.322
22316W        W94741  16.199  19.939  12.017
22317W        W94742   3.688  33.859   4.571
22318W        W94743  17.239   8.337  12.607
22319W        W94744  25.553  42.227  13.110
22320W        W94745  23.163  44.457  14.963
22321W        W94746  37.493  19.378  14.840
22322W        W94747   1.846  43.057  10.476
22323W        W94748   1.126   1.778   2.820
22324W        W94749   0.222  38.960  13.766
22325W        W94750  22.141  40.991   2.461
22326W        W94751  41.551  18.128   1.448
22327W        W94752  35.056  33.350  12.491
22328W        W94753  33.569  38.400  14.094
22329W        W94754   1.779   8.413   3.206
22330W        W94755  29.183   4.962   0.474
22331W        W94756   5.320   0.696   0.175
22332W        W94757  34.140   0.145  12.386
22333W        W94758   2.782   3.712  14.018
22334W        W94759  21.612   7.456   2.336
22335W        W94760  20.754  39.183  14.473
22336W        W94761  13.435  26.544   2.647
22337W        W94762  25.674   9.793  11.459
22338W        W94763  42.785  13.858   1.328
22339W        W94764  19.106  25.297   0.276
22340W        W94765   1.783   8.896   3.433
22341W        W94766  41.016  21.225  12.462
22342W        W94767  30.538  10.217   4.538
22343W        W94768   9.373  16.063  10.841
22344W        W94769  43.031  25.038   1.324
22345W        W94770  26.268  24.480  11.420
22346W        W94771   3.462  10.907  12.136
22347W        W94772  21.614   1.957   3.315
22348W        W94773  27.870  29.251   4.951
22349W        W94774   2.782  16.844  11.180
22350W        W94775  31.919  24.468  14.025
22351W        W94776  10.807   5.869  11.692
22352W        W94777  19.686  10.690  10.694
22353W        W94778  43.354   6.945  12.430
22354W        W94779  30.226  26.908  13.132
22355W        W94780  22.672  11.305   3.124
22356W        W94781  10.039   2.244   3.772
22357W        W94782  42.662  42.879  11.169
22358W        W94783   8.143  33.586  12.467
22359W        W94784  26.748  12.279   0.986
22360W        W94785  10.922  15.354   3.689
22361W        W94786  22.002  23.777   2.583
22362W        W94787  20.214  42.531  10.366
22363W        W94788  39.997  13.726  13.482
22364W        W94789   3.561  24.398   1.364
22365W        W94790  35.344   3.813   3.331
22366W        W94791  20.532  27.427  14.923
22367W        W94792  43.193  39.712   2.080
22368W        W94793   2.559  36.440  13.563
22369W        W94794  15.548  43.898  12.879
22370W        W94795  43.556  37.929   0.220
22371W        W94796  26.392  11.929  13.922
22372W        W94797  38.342  34.159  11.101
22373W        W94798  42.696   3.391   3.897
22374W        W94799   9.129  40.954   0.071
22375W        W94800  10.167  37.507   1.221
22376W        W94801  22.172  19.464  11.223
22377W        W94802   4.636  18.274  10.822
22378W        W94803  15.599  34.377  11.629
22379W        W94804  39.028   3.389  12.492
22380W        W94805  20.711   6.836  14.539
22381W        W94806  26.876   1.829   3.896
22382W        W94807   5.820   9.744   2.298
22383W        W94808   3.750   6.460  12.899
22384W        W94809  19.317  28.361   2.400
22385W        W94810  12.707  17.762   3.271
22386W        W94811   0.275  44.267  12.013
22387W        W94812   7.436  36.642  10.464
22388W        W94813  32.194  41.453   2.157
22389W        W94814  26.092  39.945  12.775
22390W        W94815  39.397   9.266  10.642
22391W        W94816  15.803  17.821   1.819
22392W        W94817  10.334  20.529  10.723
22393W        W94818  12.887  19.060   0.829
22394W        W94819  17.630  25.903   4.047
22395W        W94820  21.358  29.895   3.011
22396W        W94821   1.026  21.252   0.999
22397W        W94822  14.169   8.063   2.050
22398W        W94823  18.631   3.234   3.923
22399W        W94824  42.712   8.238   0.447
22400W        W94825  19.551  14.620   1.047
22401W        W94826  19.676  24.136   3.812
22402W        W94827   9.598  30.987   1.803
22403W        W94828  40.536   4.766   3.682
22404W        W94829  15.115  22.634  10.693
22405W        W94830  25.929  22.939  13.800
22406W        W94831  10.441   5.927  10.892
22407W        W94832  40.510  25.225  11.040
22408W        W94833  32.759  20.181  12.847
22409W        W94834  27.545  32.860   4.902
22410W        W94835  22.098  25.705  12.156
22411W        W94836  21.753  16.310   1.811
22412W        W94837   8.020  21.104   0.758
22413W        W94838  28.697  18.815   1.844
22414W        W94839  12.001  36.153  14.380
22415W        W94840  25.208   6.954   4.293
22416W        W94841  24.714  25.352  12.514
22417W        W94842   8.215   0.482  14.408
22418W        W94843  34.328  34.444   2.994
22419W        W94844  25.821  43.026  13.416
22420W        W94845   2.343  18.298  13.457
22421W        W94846  11.548   7.075   9.873
22422W        W94847  11.833  43.583   1.150
22423W        W94848  24.943  16.075  12.848
22424W        W94849  24.622  22.717   1.212
22425W        W94850  22.595  12.676   3.867
22426W        W94851  39.270   2.811  13.427
22427W        W94852  32.419  19.112   2.230
22428W        W94853  16.451  40.867   3.922
22429W        W94854  20.163  18.055   0.307
22430W        W94855  10.732  32.054  14.549
22431W        W94856  24.681  18.721   1.918
22432W        W94857   7.421  11.409   1.217
22433W        W94858  23.183  26.498   2.196
22434W        W94859  22.550  26.981   1.723
22435W        W94860  44.017  31.630   0.967
22436W        W94861   8.405  10.639   0.026
22437W        W94862  26.799  37.251   4.135
22438W        W94863  35.830   3.987   3.600
22439W        W94864  42.762   6.838   0.451
22440W        W94865  13.281  12.884  11.171
22441W        W94866  14.834  39.264   4.668
22442W        W94867  35.367   1.456   3.761
22443W        W94868  36.145  12.099  11.150
22444W        W94869  30.316  44.743  13.874
22445W        W94870   0.927   6.469  14.384
22446W        W94871   9.539  13.994  10.416
22447W        W94872  31.591  41.232  13.886
22448W        W94873  18.201   4.059   4.874
22449W        W94874  23.548  41.458   3.965
22450W        W94875  11.907  44.428   3.595
22451W        W94876   5.725  43.129  12.063
22452W        W94877  37.903   1.322  10.838
22453W        W94878  24.321  37.243  14.024
22454W        W94879   7.011  15.439  13.852
22455W        W94880  16.044  30.956  10.964
22456W        W94881  20.079   5.819  13.979
22457W        W94882   3.950   8.897   1.616
22458W        W94883  16.143  44.020  12.108
22459W        W94884   1.478  25.981   0.219
22460W        W94885  24.027  38.066   1.570
22461W        W94886  23.844  32.252   3.393
22462W        W94887  42.224   8.128   0.278
22463W        W94888  30.893  27.566  10.966
22464W        W94889   7.511   3.237   1.918
22465W        W94890  20.278  13.291  12.226
22466W        W94891  21.518  44.365  11.782
22467W        W94892  18.868  21.313   4.457
22468W        W94893  21.418  42.867   1.477
22469W        W94894  13.911  10.268   3.200
22470W        W94895  26.271   2.423   0.737
22471W        W94896  41.109  17.106  11.092
22472W        W94897  13.702  22.221  12.530
22473W        W94898   0.322  38.814   3.606
22474W        W94899  21.246   8.269  11.617
22475W        W94900  16.993  35.170  11.743
22476W        W94901  13.748  26.200  13.881
22477W        W94902  10.000  38.507   1.751
22478W        W94903  14.488  39.112  10.208
22479W        W94904  17.748   0.277  12.581
22480W        W94905  35.896  14.535  12.046
22481W        W94906  36.138  17.240  14.894
22482W        W94907  34.021  16.993   0.482
22483W        W94908   0.916  24.015  14.836
22484W        W94909  28.503  39.265  12.487
22485W        W94910   1.434  20.042   4.640
22486W        W94911  22.293  36.106   2.531
22487W        W94912  13.724  35.895  12.592
22488W        W94913   4.815  22.031   3.337
22489W        W94914  18.753   2.039   3.270
22490W        W94915  39.598  30.204  11.164
22491W        W94916  15.730  22.743   3.137
22492W        W94917   8.896  44.381   2.018
22493W        W94918  42.675  40.034   0.457
22494W        W94919   2.409  19.986  10.832
22495W        W94920  44.287  16.735  10.641
22496W        W94921  14.015   9.372  14.799
22497W        W94922   5.176  11.326   4.219
22498W        W94923  36.315   7.392   4.263
22499W        W94924  21.671  14.521  11.444
22500W        W94925  38.485  16.129   2.658
22501W        W94926  26.672  39.459  10.731
22502W        W94927  31.638   0.753  10.568
22503W        W94928   0.941  14.847  14.925
22504W        W94929  21.506  18.704   4.217
22505W        W94930  25.097  40.800   3.709
22506W        W94931  13.727  16.722  11.523
22507W        W94932  19.699  19.075   0.841
22508W        W94933   0.761  21.161  12.901
22509W        W94934  35.873   6.435   1.321
22510W        W94935   3.172   6.894  13.992
22511W        W94936  29.934  32.779  13.445
22512W        W94937   5.911  41.948  11.619
22513W        W94938  41.018   1.375   1.047
22514W        W94939   7.770   2.789  13.452
22515W        W94940   1.273  41.445  11.655
22516W        W94941  16.250  38.338   3.051
22517W        W94942  28.388  11.879  11.600
22518W        W94943  24.686  25.019  10.761
22519W        W94944   0.728  15.348   4.092
22520W        W94945  44.087  29.172   3.269
22521W        W94946  18.846  42.678  13.924
22522W        W94947  27.354  19.193   2.657
22523W        W94948  29.985   5.475  12.110
22524W        W94949  23.216   9.007   2.532
22525W        W94950  28.358  21.060  11.094
22526W        W94951  11.860   3.652  14.679
22527W        W94952  42.601  26.236   1.943
22528W        W94953  31.776   6.241   3.858
22529W        W94954   6.752  12.287  13.306
22530W        W94955  37.062  12.394   0.774
22531W        W94956  31.190   0.335   2.440
22532W        W94957  24.589  18.594   0.523
22533W        W94958  11.198   7.343   0.931
22534W        W94959  36.844   2.097  12.337
22535W        W94960  38.130  44.851  12.255
22536W        W94961  42.638  39.432  12.022
22537W        W94962   4.438  31.587   2.558
22538W        W94963   2.894  20.000   3.188
22539W        W94964  27.092   4.690   9.850
22540W        W94965   9.631  32.534  14.227
22541W        W94966  39.022  10.428   1.869
22542W        W94967  32.430  39.822  13.021
22543W        W94968  15.801   1.358   0.381
22544W        W94969   2.404  40.505  12.424
22545W        W94970  36.821  20.087   3.269
22546W        W94971  27.494  19.539   0.382
22547W        W94972  34.414  33.941  14.848
22548W        W94973  26.590   5.163  11.441
22549W        W94974  24.638  22.262   0.976
22550W        W94975  37.280  42.428   3.799
22551W        W94976  15.243   0.831   2.629
22552W        W94977   8.847  16.037   0.377
22553W        W94978  14.582  20.995  14.409
22554W        W94979  12.364  22.122  12.619
22555W        W94980  19.796  33.533  11.911
22556W        W94981   6.847  21.715  13.464
22557W        W94982  12.098  34.467   1.715
22558W        W94983   0.265  13.782   0.868
22559W        W94984  27.392  10.815  13.395
22560W        W94985  24.387   1.136  13.527
22561W        W94986  35.355   3.187   2.639
22562W        W94987  13.329  29.578  13.516
22563W        W94988  30.840  22.577   2.133
22564W        W94989  33.455  40.566  13.611
22565W        W94990  33.851  26.286  14.990
22566W        W94991   3.655  24.034  11.661
22567W        W94992  23.797   9.212  12.499
22568W        W94993  11.859  41.477  14.899
22569W        W94994  18.777  30.958   0.721
22570W        W94995  18.550   7.169   4.569
22571W        W94996  15.635  28.714  12.974
22572W        W94997  43.233   0.920   2.761
22573W        W94998  23.600   3.963  13.499
22574W        W94999   8.609  28.110  13.917
22575W        W95000  25.597  33.721  11.076
22576W        W95001  16.887  33.746  12.955
22577W        W95002  18.649   0.588   2.965
22578W        W95003  30.103  42.507  14.296
22579W        W95004   0.858   5.713   0.995
22580W        W95005   0.984  41.861   3.315
22581W        W95006  28.211  20.474   2.730
22582W        W95007  23.029  27.380  12.019
22583W        W95008   6.205   5.646  13.414
22584W        W95009   0.492   7.009   4.837
22585W        W95010  25.051   4.828   3.315
22586W        W95011  25.419  36.816  11.640
22587W        W95012   8.665  27.393   3.311
22588W        W95013  39.088   5.658  14.047
22589W        W95014  22.797  42.312  13.189
22590W        W95015  13.159  21.266  11.442
22591W        W95016  34.465  24.771  13.755
22592W        W95017  41.356  21.631  10.517
22593W        W95018  15.543  11.391  12.958
22594W        W95019  27.964  31.785   3.147
22595W        W95020   0.839  29.738   2.726
22596W        W95021  35.519  42.451  12.565
22597W        W95022  17.303  28.013  14.893
22598W        W95023  13.793  44.730   3.820
22599W        W95024   6.394  36.472   2.904
22600W        W95025   7.487  25.398  13.872
22601W        W95026   9.888  18.333  14.295
22602W        W95027   6.698  42.100   1.468
22603W        W95028  14.705  34.524  10.624
22604W        W95029  43.584  11.929   1.909
22605W        W95030   6.702  40.414  13.769
22606W        W95031  31.075  28.087  13.064
22607W        W95032  21.931  18.153  14.922
22608W        W95033  44.907  23.615  14.369
22609W        W95034  41.575   0.359   4.270
22610W        W95035  36.550  15.515  11.381
22611W        W95036  23.563  39.715   2.878
22612W        W95037   7.133  26.201   4.588
22613W        W95038  25.438   9.811  14.304
22614W        W95039   3.146  43.951  12.285
22615W        W95040  38.472  35.738  12.027
22616W        W95041  30.194  32.937  12.210
22617W        W95042  20.131  28.108  11.335
22618W        W95043  35.505   5.850   3.141
22619W        W95044  24.647  32.613   1.745
22620W        W95045  33.433   8.353   0.387
22621W        W95046   2.965   0.787   3.245
22622W        W95047   7.448  26.989  11.558
22623W        W95048  40.244  34.080   1.371
22624W        W95049   5.093   7.971   2.373
22625W        W95050   1.025  33.633  14.017
22626W        W95051   0.838  37.654   4.657
22627W        W95052  11.442  35.903   3.072
22628W        W95053   3.906  30.366  14.828
22629W        W95054  24.238  27.626  11.179
22630W        W95055  25.461  41.576   2.312
22631W        W95056  21.687   1.839   1.777
22632W        W95057   3.717  26.086   4.810
22633W        W95058  32.891  25.701  13.692
22634W        W95059  22.988  14.391  10.992
22635W        W95060   3.481  26.455   3.702
22636W        W95061  13.094  33.393  12.155
22637W        W95062  44.569   3.814  13.155
22638W        W95063  39.901  40.038  13.536
22639W        W95064   0.690   8.719  14.960
22640W        W95065  10.406  14.385  13.302
22641W        W95066  41.368  37.917   2.463
22642W        W95067  27.411  27.987   2.706
22643W        W95068  27.959   1.533  10.994
22644W        W95069  22.764  14.100   2.827
22645W        W95070   0.373   2.667  12.231
22646W        W95071  28.665  11.142   1.830
22647W        W95072  22.046   6.956  12.054
22648W        W95073  34.938   9.204   3.757
22649W        W95074  20.708  44.500  10.722
22650W        W95075   2.884  41.860  14.254
22651W        W95076   9.624  27.035   1.530
22652W        W95077   8.363  38.557   0.407
22653W        W95078  41.426  26.567  14.656
22654W        W95079  26.136  14.773   4.661
22655W        W95080  10.788  18.696  14.338
22656W        W95081  22.236  39.830  14.576
22657W        W95082  18.991  43.327   2.232
22658W        W95083  32.912  39.529   2.186
22659W        W95084   0.412   8.836  14.485
22660W        W95085  11.470  42.292   1.805
22661W        W95086  14.732  32.632   4.247
22662W        W95087  35.406  16.307  14.336
22663W        W95088  34.925   9.184   3.228
22664W        W95089  31.168  14.617  11.994
22665W        W95090  19.520  38.938   3.271
22666W        W95091  26.770  11.892  14.792
22667W        W95092  26.475  35.444  10.611
22668W        W95093  28.430  13.319   0.336
22669W        W95094  16.144   8.110  13.123
22670W        W95095  42.485  35.595  12.384
22671W        W95096  18.071  37.127  11.101
22672W        W95097  27.435   6.737   1.911
22673W        W95098  29.951   0.611  13.036
22674W        W95099   5.933  30.034   2.877
22675W        W95100  29.179  15.791  12.061
22676W        W95101  29.871  23.215   0.867
22677W        W95102   3.406  39.522   2.433
22678W        W95103  24.556  32.473  14.683
22679W        W95104  13.062  42.735   1.750
22680W        W95105  28.083  19.250  14.194
22681W        W95106   1.828  22.748  12.870
22682W        W95107  34.472  30.162  12.943
22683W        W95108   5.011  22.046  14.804
22684W        W95109   4.726  43.624   1.359
22685W        W95110   7.711  27.692  14.191
22686W        W95111  11.629   5.348   4.181
22687W        W95112   4.508  20.679  14.758
22688W        W95113  13.718  24.128   5.444
22689W        W95114  40.964  38.590  11.991
22690W        W95115  19.040  41.423   2.154
22691W        W95116  42.978  14.696  10.585
22692W        W95117  20.829  19.163  14.719
22693W        W95118  28.450   9.851  14.687
22694W        W95119   8.959  40.975   3.733
22695W        W95120  26.745  26.986  14.513
22696W        W95121  18.626  42.528  10.942
22697W        W95122  35.905  32.200   4.221
22698W        W95123  44.929  30.493   1.250
22699W        W95124  42.998  42.910   2.455
22700W        W95125   8.215  26.097   0.392
22701W        W95126  30.094  36.026   0.776
22702W        W95127  15.108  36.083   0.907
22703W        W95128  16.224  41.934  14.836
22704W        W95129  42.904  20.612   1.750
22705W        W95130   9.903  38.610  12.733
22706W        W95131  18.032  10.287  11.130
22707W        W95132   2.967  18.284  11.194
22708W        W95133  37.947   2.970  12.943
22709W        W95134   8.580  29.007   0.799
22710W        W95135  43.578   0.157  13.947
22711W        W95136  14.251  33.696   2.855
22712W        W95137  18.597  11.532   0.322
22713W        W95138  15.026  35.538  14.271
22714W        W95139  14.086  11.216   4.221
22715W        W95140  19.101  16.565   1.684
22716W        W95141  19.686  34.009   4.024
22717W        W95142   7.954  35.147  11.992
22718W        W95143  36.320  29.227  12.871
22719W        W95144   0.762  12.785  13.978
22720W        W95145  12.529  15.595  12.966
22721W        W95146  44.014  33.051   2.758
22722W        W95147  43.360  38.810   2.362
22723W        W95148  28.214   3.750  11.597
22724W        W95149  12.174  42.472  13.544
22725W        W95150   5.250  44.354   0.693
22726W        W95151   1.540  41.990   1.786
22727W        W95152  16.762  10.836  12.640
22728W        W95153  38.346  18.110  13.404
22729W        W95154  30.531   3.283  13.559
22730W        W95155  19.216  44.314   2.744
22731W        W95156   0.600   3.382   2.393
22732W        W95157  16.206   7.732  12.340
22733W        W95158  31.284   9.600   3.528
22734W        W95159  40.396  43.441  14.752
22735W        W95160  12.755  26.028  14.351
22736W        W95161  35.522  12.690   0.914
22737W        W95162  29.004   3.139   0.792
22738W        W95163   1.761  21.094   2.768
22739W        W95164  18.079  40.030  14.362
22740W        W95165   0.426   3.384   0.013
22741W        W95166  31.910  12.790  11.577
22742W        W95167  39.427  15.053  10.771
22743W        W95168  42.292  30.935   4.009
22744W        W95169   1.546  43.578   5.170
22745W        W95170  16.210  41.550   0.191
22746W        W95171  17.188  28.946   0.072
22747W        W95172  21.475   3.769   3.276
22748W        W95173  27.482  11.092  12.967
22749W        W95174  27.880  18.283   1.693
22750W        W95175  26.249  12.269  14.729
22751W        W95176   3.303  14.857   2.210
22752W        W95177  20.340  41.304   5.019
22753W        W95178   6.940  26.387   3.179
22754W        W95179  25.015  21.465   3.134
22755W        W95180  12.953  15.131  10.773
22756W        W95181  26.003  38.866  10.992
22757W        W95182  15.268  12.797   3.371
22758W        W95183  39.777  15.361   3.904
22759W        W95184  40.625  37.780  13.972
22760W        W95185  42.402  30.188  11.063
22761W        W95186  35.857   1.956   1.724
22762W        W95187  28.260  16.512  13.381
22763W        W95188  22.945  10.631   1.542
22764W        W95189  14.861  29.832   3.090
22765W        W95190  36.769  38.087  11.478
22766W        W95191   7.193   4.210   1.253
22767W        W95192   0.434  16.992   2.715
22768W        W95193  13.369  34.519  14.755
22769W        W95194  18.204  17.230  14.932
22770W        W95195  23.823   0.131  11.097
22771W        W95196  27.524  42.303   0.372
22772W        W95197  22.187  26.493   0.932
22773W        W95198  42.078   1.183  12.377
22774W        W95199  34.645   1.506  12.452
22775W        W95200  18.427  13.410   1.932
22776W        W95201   3.209   6.849   4.377
22777W        W95202  12.845  38.885  12.609
22778W        W95203  12.604  21.711   5.459
22779W        W95204  21.287  22.645  11.850
22780W        W95205  34.772  22.515   1.962
22781W        W95206  29.730  34.021   2.147
22782W        W95207   6.327  29.892   4.097
22783W        W95208  30.347  12.712  10.643
22784W        W95209  28.310  39.920   3.653
22785W        W95210  26.149  28.965   3.796
22786W        W95211   5.496   1.229   1.504
22787W        W95212  35.073  35.839   2.818
22788W        W95213  36.833  11.736   2.453
22789W        W95214  42.017  29.060  11.973
22790W        W95215  29.263   1.829   1.853
22791W        W95216   4.431  28.008   0.997
22792W        W95217  31.443   4.394  14.461
22793W        W95218  39.987  18.265  12.942
22794W        W95219  39.213  22.997   9.977
22795W        W95220  26.998  35.512   0.397
22796W        W95221  42.884  27.253   4.223
22797W        W95222  30.452  24.230  10.960
22798W        W95223   9.132  12.818   4.740
22799W        W95224   5.202  27.559   1.295
22800W        W95225  35.641  17.218   4.570
22801W        W95226  38.993  16.084   2.837
22802W        W95227  37.516  27.216   1.373
22803W        W95228  44.807   3.337   4.602
22804W        W95229  31.561   5.182   3.844
22805W        W95230   2.414  16.356  14.966
22806W        W95231   3.349  18.769  14.361
22807W        W95232   8.013  14.264  12.568
22808W        W95233  18.698   5.647   4.888
22809W        W95234  15.146   5.740  13.020
22810W        W95235  20.200  25.594  11.175
22811W        W95236  16.284  32.479   0.926
22812W        W95237   0.090  41.037  14.578
22813W        W95238  36.893  19.105   3.836
22814W        W95239  26.085  24.062  12.872
22815W        W95240  20.868   2.177  10.284
22816W        W95241  26.576  20.216   2.180
22817W        W95242  35.319   4.337  11.281
22818W        W95243  14.223  27.869  12.403
22819W        W95244  36.357  40.635  11.815
22820W        W95245  37.358  24.973   2.239
22821W        W95246  29.934  31.447  13.527
22822W        W95247  36.502  35.178   0.796
22823W        W95248   3.613  38.976   1.367
22824W        W95249  25.505  15.438  11.118
22825W        W95250  17.332  12.345   2.648
22826W        W95251  13.286  23.786   1.761
22827W        W95252   9.132  19.670   2.838
22828W        W95253  24.953  33.428  14.542
22829W        W95254  17.771  15.023  13.800
22830W        W95255   0.668  27.451   0.458
22831W        W95256  44.033  25.533  13.677
22832W        W95257  44.072  27.991   4.090
22833W        W95258   2.205  30.410  12.630
22834W        W95259  41.907   9.968  11.464
22835W        W95260  28.198  29.134   4.549
22836W        W95261   2.439  35.086  13.842
22837W        W95262  24.979  35.991  13.804
22838W        W95263  13.539  43.375   2.344
22839W        W95264  44.544  39.024  12.357
22840W        W95265  42.337  16.150  10.010
22841W        W95266  10.231  12.532   1.212
22842W        W95267  13.845   5.647   1.271
22843W        W95268  21.984  15.939   4.108
22844W        W95269  10.584   7.860  11.285
22845W        W95270   0.481  36.973  13.799
22846W        W95271  13.151  39.010   4.119
22847W        W95272  26.476  33.443  10.105
22848W        W95273  15.803  26.401   2.833
22849W        W95274  17.194  24.897   1.209
22850W        W95275  37.949  33.784   2.327
22851W        W95276   9.860  13.977   1.597
22852W        W95277  38.078  35.767  13.894
22853W        W95278  38.400  37.764   2.760
22854W        W95279   1.061  42.425  11.721
22855W        W95280   3.530  10.503   1.831
22856W        W95281   9.017  14.394  12.480
22857W        W95282  10.743   6.027  14.939
22858W        W95283  12.287  29.913   3.200
22859W        W95284  21.944   3.754  12.072
22860W        W95285   8.730  14.148  12.963
22861W        W95286  29.238  41.724  14.003
22862W        W95287  31.461  34.680  13.939
22863W        W95288  43.811  19.839  14.647
22864W        W95289   3.277  33.324  12.986
22865W        W95290  26.043  44.492  10.736
22866W        W95291  23.684  30.953   5.019
22867W        W95292  33.375  17.121   1.743
22868W        W95293  37.342  18.727   1.816
22869W        W95294   2.529  24.297   1.386
22870W        W95295   1.812  38.940   1.703
22871W        W95296  28.573  17.541  11.373
22872W        W95297  22.581  19.054  14.375
22873W        W95298  24.512  31.127   4.699
22874W        W95299  29.593   6.625   3.403
22875W        W95300  22.249  22.259   3.607
22876W        W95301  26.746   3.433   2.832
22877W        W95302  13.512   9.808   3.801
22878W        W95303  39.588  43.784   0.384
22879W        W95304  27.934  14.808   4.280
22880W        W95305  13.340  29.237   1.342
22881W        W95306  41.934  25.934   4.592
22882W        W95307  10.717  10.641  13.282
22883W        W95308   2.847  31.517  12.907
22884W        W95309  36.877  23.143  12.980
22885W        W95310  35.000   2.797  10.661
22886W        W95311   3.268  15.799   1.122
22887W        W95312   7.373   1.789   0.690
22888W        W95313  34.141   6.795  14.524
22889W        W95314  14.561  26.175   4.601
22890W        W95315  14.630  35.421   2.141
22891W        W95316   5.819  13.785  14.142
22892W        W95317  19.025  13.724   4.959
22893W        W95318  20.884  23.623   3.335
22894W        W95319  12.911  29.558   0.003
22895W        W95320  28.399   3.175   4.621
22896W        W95321  40.804  16.786   3.775
22897W        W95322   8.598  44.563  11.614
22898W        W95323   9.694   4.394   4.654
22899W        W95324   7.096   2.151   3.112
22900W        W95325   1.194   7.738  13.203
22901W        W95326   0.508  34.915   2.769
22902W        W95327  32.063  22.160   9.912
22903W        W95328  41.188  21.402  12.932
22904W        W95329   8.328  14.841   4.640
22905W        W95330  43.967  28.944  14.560
22906W        W95331  44.040  20.076  13.918
22907W        W95332  10.689  12.823  14.306
22908W        W95333  37.061  25.581   2.060
22909W        W95334  13.734  16.604   1.902
22910W        W95335  24.213  34.445  12.524
22911W        W95336  32.566  28.451   2.645
22912W        W95337  36.919  16.495   2.783
22913W        W95338  32.973  38.177   4.042
22914W        W95339  13.744  37.953  14.420
22915W        W95340   5.848  13.857  13.084
22916W        W95341   4.705  25.804   1.242
22917W        W95342   3.669  38.839  13.992
22918W        W95343   1.365   5.980   4.240
22919W        W95344  27.274  30.013   5.649
22920W        W95345  39.983  12.291  13.334
22921W        W95346  39.448  37.901  11.282
22922W        W95347  25.838  34.933   0.333
22923W        W95348  37.715  36.159   1.001
22924W        W95349  25.798  12.286  14.481
22925W        W95350  43.905   2.412   2.356
22926W        W95351  19.668   3.772  14.625
22927W        W95352   4.432  17.020  12.019
22928W        W95353   3.195   2.350   0.303
22929W        W95354  17.090  31.179  12.565
22930W        W95355  32.438   0.332  10.905
22931W        W95356  10.209  19.050  11.549
22932W        W95357  13.107  20.541   4.252
22933W        W95358  42.736  15.130   2.652
22934W        W95359   0.733   4.823   1.987
22935W        W95360  44.491  31.834  12.405
22936W        W95361  12.733  22.628  12.505
22937W        W95362   0.908   8.105  13.426
22938W        W95363   6.678  34.206   2.670
22939W        W95364  43.343   7.899   2.199
22940W        W95365  23.287  30.065   0.377
22941W        W95366  12.737   1.511   4.834
22942W        W95367  15.025   6.439   0.720
22943W        W95368  16.814  26.843   0.805
22944W        W95369  38.307  18.307  12.832
22945W        W95370   2.020  15.349   5.150
22946W        W95371   1.765  41.449  14.077
22947W        W95372  31.117  28.993   4.827
22948W        W95373  40.502  28.959   3.805
22949W        W95374  15.411  10.942  11.196
22950W        W95375   0.304  17.833  14.366
22951W        W95376  10.309  38.046  12.220
22952W        W95377  22.029  23.298   2.795
22953W        W95378  23.943  41.065   4.739
22954W        W95379  17.570  35.673   3.023
22955W        W95380  20.784  25.905   3.809
22956W        W95381  24.107  18.824   2.701
22957W        W95382  34.430  31.950   4.654
22958W        W95383  31.473  43.347  14.341
22959W        W95384  36.078  19.335   1.946
22960W        W95385  18.161  20.986   4.097
22961W        W95386  23.669  42.730   3.789
22962W        W95387  41.634   9.383   1.149
22963W        W95388  12.177  11.740   1.790
22964W        W95389   5.245   5.712   2.493
22965W        W95390  39.106  15.492  14.812
22966W        W95391  17.228  31.617  13.933
22967W        W95392   9.654  18.714   3.837
22968W        W95393   4.251  38.131  11.240
22969W        W95394  20.688   6.241  10.742
22970W        W95395  31.005  27.038  11.152
22971W        W95396  19.838  32.115   3.756
22972W        W95397   3.846  26.916   4.153
22973W        W95398  24.513   7.885  12.566
22974W        W95399  31.940   5.040   4.569
22975W        W95400  16.359  37.324  13.540
22976W        W95401  25.581   1.788   0.893
22977W        W95402  40.262  44.252  11.927
22978W        W95403  26.615   3.654  13.989
22979W        W95404  24.633  14.601  13.005
22980W        W95405  22.620  30.025  14.504
22981W        W95406  15.274  21.621  14.917
22982W        W95407  37.287  10.832  14.008
22983W        W95408  37.269  16.033  11.854
22984W        W95409  16.411  42.617  13.270
22985W        W95410  30.160   1.195   0.429
22986W        W95411  43.700  35.250  12.844
22987W        W95412  34.055  43.338   2.776
22988W        W95413  22.400  10.470   3.362
22989W        W95414   7.245  21.822   2.810
22990W        W95415  41.730   8.588  11.206
22991W        W95416  35.022  21.623   0.942
22992W        W95417  26.281  19.761   1.932
22993W        W95418  27.777  28.048   2.305
22994W        W95419  38.963   3.468   3.202
22995W        W95420  19.489   8.143   4.327
22996W        W95421   8.768  30.552   0.248
22997W        W95422  25.597  31.883   0.274
22998W        W95423  33.830  20.703   4.022
22999W        W95424  15.110   4.646   2.756
23000W        W95425   5.013  42.502  13.376
23001W        W95426  41.910  37.377   2.279
23002W        W95427  26.554  36.425   2.349
23003W        W95428  37.848  26.605   4.255
23004W        W95429  44.240   6.139  13.991
23005W        W95430  41.344  31.455   3.171
23006W        W95431   2.313  18.116   0.255
23007W        W95432  37.642   6.704   0.845
23008W        W95433  43.499   5.263   1.839
23009W        W95434  29.477  43.080  13.898
23010W        W95435  23.109  30.934   0.961
23011W        W95436  19.797   3.308   4.529
23012W        W95437  27.063  39.459   0.400
23013W        W95438  36.217   5.313  11.590
23014W        W95439   4.184  12.282  11.514
23015W        W95440  36.640  42.541  11.975
23016W        W95441  30.888  39.905   5.450
23017W        W95442  33.631   3.680  12.520
23018W        W95443  21.013  11.774  14.361
23019W        W95444  39.594  21.695   0.349
23020W        W95445  43.793  43.156  12.946
23021W        W95446  29.920  19.025  13.023
23022W        W95447  41.571  19.380   2.305
23023W        W95448  28.074  35.829   9.990
23024W        W95449  28.071  24.467  12.881
23025W        W95450   1.414  28.207   3.757
23026W        W95451  22.361   9.623  13.537
23027W        W95452  27.787   3.974  12.599
23028W        W95453   3.339   6.380   4.133
23029W        W95454  11.155  29.299  14.288
23030W        W95455  39.596  24.731  12.677
23031W        W95456   1.252   7.256   3.191
23032W        W95457  22.569  15.414   1.799
23033W        W95458  12.394  13.194   3.953
23034W        W95459  38.015  13.895   2.597
23035W        W95460  13.043  19.619  13.006
23036W        W95461  38.831  31.013  11.762
23037W        W95462  18.136  17.764  13.248
23038W        W95463  22.524  42.407  13.987
23039W        W95464   1.005  40.884  12.997
23040W        W95465   3.687  27.561   2.422
23041W        W95466  38.266  32.668   2.680
23042W        W95467  22.137   8.238  11.094
23043W        W95468  12.817  25.785  12.989
23044W        W95469  43.258  32.025  11.699
23045W        W95470   0.805  29.488  14.859
23046W        W95471   2.882  36.399   2.555
23047W        W95472  15.620   7.963   2.815
23048W        W95473  19.782  30.649  12.970
23049W        W95474  34.352   4.704   1.293
23050W        W95475  43.842   7.747   0.582
23051W        W95476   7.824   0.344  13.089
23052W        W95477   0.450  40.336   1.274
23053W        W95478   5.596  42.899   3.125
23054W        W95479  29.368  42.711  11.175
23055W        W95480  23.640  20.443  12.926
23056W        W95481   3.260  14.240   4.415
23057W        W95482  41.647  26.570   2.340
23058W        W95483  44.847  10.696   1.376
23059W        W95484  29.589  29.540  14.887
23060W        W95485  17.736  16.521  11.049
23061W        W95486  31.896  11.742   1.912
23062W        W95487  41.741   5.090   0.414
23063W        W95488  29.764  19.708   0.835
23064W        W95489  14.286  16.638  14.720
23065W        W95490   4.184  22.581  11.183
23066W        W95491  31.135  10.120   4.320
23067W        W95492  34.053  37.553   3.898
23068W        W95493  29.066  32.649  14.601
23069W        W95494  20.013  43.962   4.069
23070W        W95495  40.055  18.287  13.989
23071W        W95496  36.902  19.199   3.329
23072W        W95497  31.887  18.294   0.764
23073W        W95498   4.859  42.922   0.851
23074W        W95499  44.884  41.513   0.447
23075W        W95500  31.443   5.471   1.377
23076W        W95501  18.577   8.202  10.487
23077W        W95502   5.830  26.955   1.829
23078W        W95503   7.243  35.862   1.439
23079W        W95504   7.412  28.590   3.669
23080W        W95505  34.475  23.692  10.659
23081W        W95506   8.091  23.501   3.632
23082W        W95507  31.321  12.150   0.279
23083W        W95508  39.477  35.111   0.890
23084W        W95509  40.406  18.525   1.357
23085W        W95510   0.523  42.498   3.198
23086W        W95511   8.793  12.639   0.497
23087W        W95512  35.947  34.890  14.258
23088W        W95513  35.868  36.430  11.165
23089W        W95514   1.744  25.445  10.601
23090W        W95515  41.827  14.233   2.731
23091W        W95516  36.234  25.318  14.944
23092W        W95517   9.194  30.224   0.329
23093W        W95518   0.215  27.512  10.642
23094W        W95519  29.584  20.534   2.628
23095W        W95520   4.215   7.641  14.453
23096W        W95521  24.555  19.986  12.800
23097W        W95522  14.750  38.909  14.734
23098W        W95523   1.113  38.960   1.274
23099W        W95524  10.892   9.760  14.928
23100W        W95525  36.281  29.566  14.615
23101W        W95526  41.306  37.653   4.213
23102W        W95527  26.388  31.963  13.026
23103W        W95528   5.841  17.740   2.478
23104W        W95529   1.944   9.926  13.763
23105W        W95530  24.443  33.964   2.909
23106W        W95531  14.616  44.005  12.839
23107W        W95532  25.732  35.994   4.445
23108W        W95533  10.635  29.217  12.505
23109W        W95534  23.152  41.000   4.176
23110W        W95535  35.532  22.929  13.027
23111W        W95536  30.017  36.916  14.092
23112W        W95537  39.486  39.586   1.749
23113W        W95538   1.507   1.493   0.823
23114W        W95539  10.192   5.630   2.331
23115W        W95540  16.820  41.912   2.386
23116W        W95541  18.238  22.800   3.144
23117W        W95542  16.647  40.367   3.926
23118W        W95543   7.496  42.041  12.852
23119W        W95544  36.765  35.474   0.431
23120W        W95545  27.531  19.577  11.673
23121W        W95546  16.379  26.168   3.644
23122W        W95547  11.991  30.687  14.242
23123W        W95548  23.927  22.288  12.439
23124W        W95549   3.204  42.457  10.600
23125W        W95550  16.264  22.659   4.517
23126W        W95551   8.646  44.156   3.031
23127W        W95552  10.059  42.235   1.838
23128W        W95553  20.182  28.157  13.840
23129W        W95554  19.586  40.890  11.834
23130W        W95555  42.278  26.424   1.189
23131W        W95556  16.230  39.098  12.025
23132W        W95557   2.812  22.947   2.811
23133W        W95558   2.856  22.197   1.617
23134W        W95559  44.549  31.029  12.328
23135W        W95560  42.705  37.843  12.317
23136W        W95561  20.752   3.550   0.946
23137W        W95562  43.993  13.761   3.378
23138W        W95563   2.217  36.480  13.110
23139W        W95564  40.390  18.703  14.096
23140W        W95565   0.832  38.403  14.363
23141W        W95566   2.393  30.631   2.305
23142W        W95567   7.917  33.447   1.886
23143W        W95568  41.424  21.679  14.742
23144W        W95569  19.274  36.013   2.065
23145W        W95570  30.910  21.639   9.794
23146W        W95571  10.342  11.323  12.367
23147W        W95572  15.193  19.577   3.769
23148W        W95573  30.694  10.598  14.470
23149W        W95574  15.713   0.501   3.794
23150W        W95575  25.512   8.020   5.271
23151W        W95576  15.852   1.465   2.686
23152W        W95577  34.677   8.384  10.137
23153W        W95578  17.794   0.195   4.611
23154W        W95579  39.799  36.584  11.164
23155W        W95580   5.287  32.157   4.123
23156W        W95581  16.226  44.566   0.880
23157W        W95582  24.998  31.175  13.591
23158W        W95583  43.488  42.740   0.191
23159W        W95584   8.425  13.775  12.592
23160W        W95585  32.053  34.773  14.814
23161W        W95586  30.144   8.562   3.762
23162W        W95587  43.542   8.804   5.130
23163W        W95588  10.307  11.303   1.814
23164W        W95589  33.784  16.284  13.366
23165W        W95590  40.022  19.257  13.458
23166W        W95591  40.552  42.294   3.842
23167W        W95592  27.988   0.741  11.449
23168W        W95593  10.865   3.461  14.850
23169W        W95594  28.628  40.289   2.560
23170W        W95595  28.567  24.667  13.924
23171W        W95596  39.406   4.751   1.144
23172W        W95597  12.362  36.630  11.434
23173W        W95598  22.825  10.705  11.881
23174W        W95599  27.085  19.279   4.725
23175W        W95600   1.577   3.435   0.869
23176W        W95601  40.630  44.703   1.033
23177W        W95602   3.784  42.125   4.683
23178W        W95603  34.093  41.760  11.591
23179W        W95604  31.860  20.174   4.648
23180W        W95605  28.599   7.375  11.551
23181W        W95606   9.569  18.252  13.849
23182W        W95607  25.359  14.925  10.910
23183W        W95608  30.384  29.491  10.489
23184W        W95609  13.714  42.588   4.466
23185W        W95610  33.089   2.484  12.963
23186W        W95611   3.095  10.904  10.577
23187W        W95612  15.664   6.525   5.143
23188W        W95613   2.258  14.583   2.686
23189W        W95614  43.920   2.949  14.460
23190W        W95615  19.351  43.081   3.170
23191W        W95616  37.091   3.759  10.987
23192W        W95617   1.384  36.876   3.235
23193W        W95618  21.293  31.390  11.630
23194W        W95619  32.673  32.387  11.558
23195W        W95620  41.912  39.878  12.631
23196W        W95621  40.388  13.600   4.555
23197W        W95622  16.266   6.168  10.674
23198W        W95623  22.206  11.277  12.507
23199W        W95624  43.985  20.091  13.369
23200W        W95625  43.929  29.767  12.939
23201W        W95626  41.871  42.378  11.822
23202W        W95627  27.272  29.483  13.521
23203W        W95628  23.398  10.997  11.790
23204W        W95629  30.457  12.574  13.892
23205W        W95630  31.116  13.202  10.055
23206W        W95631  28.026  41.062   5.438
23207W        W95632  35.800  37.510  12.497
23208W        W95633  36.525  26.334  14.978
23209W        W95634  17.100   6.321  14.360
23210W        W95635  22.305  27.556  13.478
23211W        W95636  33.991   2.339  12.425
23212W        W95637  30.631  16.627   2.331
23213W        W95638  32.327  14.225   5.059
23214W        W95639  10.326   8.759   1.419
23215W        W95640  12.541  28.050   0.697
23216W        W95641  20.156  38.877  12.700
23217W        W95642  20.212   0.979   4.098
23218W        W95643  42.564  17.083  11.227
23219W        W95644  39.752  29.500  13.626
23220W        W95645  40.862  11.553  10.998
23221W        W95646  15.243  24.476   2.609
23222W        W95647   2.235   8.682  11.404
23223W        W95648  44.040  27.031   3.236
23224W        W95649  33.296   1.232  12.425
23225W        W95650   6.131  22.546   1.791
23226W        W95651  28.440  27.390   3.308
23227W        W95652  38.832  44.245   4.096
23228W        W95653  42.650  11.830  13.925
23229W        W95654  41.458   0.458   1.275
23230W        W95655  28.958  38.975   4.944
23231W        W95656  22.506  18.586  14.568
23232W        W95657  26.578  34.024   0.039
23233W        W95658  33.163  16.247  14.485
23234W        W95659  42.345  31.173   2.478
23235W        W95660  30.093  32.484   3.625
23236W        W95661  17.599  11.748   3.567
23237W        W95662  25.944  23.101   1.853
23238W        W95663  21.984  18.345   1.764
23239W        W95664  15.246  44.637  11.272
23240W        W95665   4.875  27.167   1.175
23241W        W95666  21.400   2.501  13.319
23242W        W95667  29.233  19.814  11.879
23243W        W95668  29.427   4.347   1.709
23244W        W95669  19.411   7.575  11.536
23245W        W95670  38.990   5.606   2.329
23246W        W95671  12.801   2.019  10.236
23247W        W95672  34.494  37.624   1.247
23248W        W95673  28.296  27.283  14.354
23249W        W95674  32.940   4.265  11.017
23250W        W95675  40.598  16.511  13.420
23251W        W95676  19.640  29.703  10.621
23252W        W95677   2.162  41.163   3.158
23253W        W95678  22.674   8.714   1.066
23254W        W95679  17.061  37.283  10.673
23255W        W95680  28.217  36.734   2.370
23256W        W95681   3.228  17.059   3.309
23257W        W95682  38.363  27.919  13.384
23258W        W95683  41.908  28.796  14.025
23259W        W95684  40.798  25.255   2.322
23260W        W95685  44.435   5.147  12.049
23261W        W95686  40.855  21.073  14.710
23262W        W95687  42.383  29.927  11.732
23263W        W95688   3.747  16.285   4.519
23264W        W95689  12.901  22.052  12.921
23265W        W95690  36.416  26.400   2.882
23266W        W95691  33.959  21.249   2.773
23267W        W95692  25.151  33.322  10.415
23268W        W95693  20.089  14.803  13.911
23269W        W95694  35.592  10.669   4.106
23270W        W95695  25.489  37.979   2.397
23271W        W95696   3.844   6.172  11.100
23272W        W95697  29.424  16.081  12.542
23273W        W95698  19.197  16.288  13.353
23274W        W95699  10.756   1.721   3.883
23275W        W95700  22.999  25.007   2.717
23276W        W95701  39.265  26.911  12.150
23277W        W95702  12.631  11.215   0.326
23278W        W95703  33.174   2.015   0.875
23279W        W95704  11.280  16.449  12.221
23280W        W95705  38.867  24.894  11.553
23281W        W95706  35.756   0.540   0.452
23282W        W95707   1.281  31.513  11.445
23283W        W95708  16.259  26.189  14.804
23284W        W95709  34.145   9.197   1.276
23285W        W95710  15.357   5.490   2.241
23286W        W95711  26.368  25.564  10.409
23287W        W95712  30.471  18.547  11.480
23288W        W95713  44.162   7.396  14.250
23289W        W95714  30.485  25.703  13.065
23290W        W95715   7.256  38.912  11.770
23291W        W95716  28.088  21.216  10.690
23292W        W95717  30.752  43.283   4.596
23293W        W95718  31.622  43.316   0.781
23294W        W95719  25.733   6.318  13.577
23295W        W95720  42.174  22.930  14.064
23296W        W95721  41.487  30.167  10.722
23297W        W95722   6.718  27.550  12.966
23298W        W95723   4.244  13.387   1.443
23299W        W95724  20.173  14.446  13.486
23300W        W95725   4.265  29.631   3.992
23301W        W95726  27.614   3.453   0.474
23302W        W95727   3.972  26.344  10.288
23303W        W95728  16.090   1.765   3.811
23304W        W95729  19.479  10.805   1.258
23305W        W95730  37.002  23.910  11.647
23306W        W95731   9.061  37.909   1.892
23307W        W95732  24.129  30.356  11.048
23308W        W95733  32.173  32.066  11.278
23309W        W95734   6.771  36.030  10.732
23310W        W95735   5.366  10.876   1.702
23311W        W95736  40.469  17.744   0.933
23312W        W95737  17.992  38.863   4.018
23313W        W95738  28.404  29.040   1.467
23314W        W95739   5.855  31.120  11.980
23315W        W95740  29.633  25.286   0.431
23316W        W95741  16.064  17.361   3.144
23317W        W95742  22.019  42.819   1.880
23318W        W95743   4.329  15.359  14.683
23319W        W95744  17.025  14.673   0.877
23320W        W95745  42.574  22.949   1.114
23321W        W95746   6.330  12.731   3.515
23322W        W95747  12.601  29.435   1.411
23323W        W95748  20.433   5.986  12.612
23324W        W95749  34.608   7.650  11.984
23325W        W95750  16.019  30.757   3.824
23326W        W95751  43.300   0.929  11.570
23327W        W95752  27.742  31.045   0.825
23328W        W95753  24.979  19.335   2.938
23329W        W95754  17.327  25.652  11.971
23330W        W95755  11.171  40.969   4.680
23331W        W95756  16.617  24.257   2.597
23332W        W95757  26.591  23.084  13.992
23333W        W95758  35.853  20.028  14.476
23334W        W95759  15.724   9.807  11.615
23335W        W95760  39.256  42.687  10.420
23336W        W95761  24.042  26.198   3.677
23337W        W95762  26.326  43.933   2.143
23338W        W95763  39.584   0.661  13.774
23339W        W95764  31.103  15.470  12.096
23340W        W95765  40.437   4.656  12.591
23341W        W95766  24.700  34.482   1.160
23342W        W95767  26.785  16.147   1.665
23343W        W95768  17.779   6.200   0.868
23344W        W95769  30.165  30.470   3.879
23345W        W95770   2.781  13.749   1.324
23346W        W95771  34.505  42.222   0.373
23347W        W95772  24.126  33.113  12.987
23348W        W95773  15.607  37.975  14.293
23349W        W95774  29.424  22.997   0.982
23350W        W95775  43.853  27.032  14.382
23351W        W95776  41.304  26.141   2.314
23352W        W95777  37.234  23.430   0.159
23353W        W95778  22.739  24.094   2.832
23354W        W95779  38.430  13.400  12.651
23355W        W95780   4.644  21.684  11.542
23356W        W95781  17.129  36.107  13.149
23357W        W95782   1.721  15.892  14.754
23358W        W95783  36.285   9.244   5.545
23359W        W95784  37.632  21.246  14.484
23360W        W95785   2.887   7.106  14.792
23361W        W95786  39.955  30.008  14.383
23362W        W95787  41.262  17.974  14.771
23363W        W95788  26.155  32.089  13.467
23364W        W95789  10.348  40.912   4.067
23365W        W95790   3.843  40.420   0.250
23366W        W95791  26.063  34.430   4.148
23367W        W95792   8.297  27.001   2.594
23368W        W95793   7.265   7.412   3.651
23369W        W95794  43.400   1.337  13.985
23370W        W95795  34.357  39.003  10.414
23371W        W95796  41.327  26.445  12.373
23372W        W95797  40.496  21.738  13.761
23373W        W95798   3.804  25.458   1.306
23374W        W95799  34.881  30.581  12.460
23375W        W95800  35.408   5.014  12.645
23376W        W95801  12.233  31.925  12.943
23377W        W95802  14.396   3.804  11.634
23378W        W95803  16.784  16.201   0.294
23379W        W95804  18.350  35.980  14.946
23380W        W95805  39.536  16.753   1.423
23381W        W95806   9.671  12.946   4.022
23382W        W95807  16.779  34.464  14.763
23383W        W95808  31.651  34.039  12.374
23384W        W95809   9.037  38.028   4.653
23385W        W95810   3.129  19.802  12.842
23386W        W95811   3.965  24.562  10.787
23387W        W95812  13.866  40.823  12.096
23388W        W95813  26.668  13.386   0.403
23389W        W95814  16.651  30.054  11.990
23390W        W95815  41.945  29.540  12.826
23391W        W95816  32.674  21.993  14.271
23392W        W95817  20.166   0.792  13.437
23393W        W95818   4.888  42.144  11.609
23394W        W95819  12.202  37.456   3.463
23395W        W95820  32.978  43.576   0.344
23396W        W95821  26.300   6.284   4.318
23397W        W95822   1.213  16.804  12.932
23398W        W95823  44.938  25.071   3.871
23399W        W95824  20.251   1.977   1.681
23400W        W95825   8.974   2.408   5.087
23401W        W95826   2.353   1.184  11.312
23402W        W95827  36.828   2.776   0.363
23403W        W95828  44.917  35.284  14.510
23404W        W95829  23.143   3.625  12.582
23405W        W95830  40.603  37.044   1.257
23406W        W95831  10.662   0.904  11.566
23407W        W95832  37.821  15.219  12.428
23408W        W95833  27.686  23.072  13.975
23409W        W95834  14.708  11.841  12.107
23410W        W95835  27.604   4.638   3.735
23411W        W95836  19.123  12.640   1.366
23412W        W95837  37.858  37.769   2.349
23413W        W95838  33.862  17.995   0.383
23414W        W95839  29.991  14.073   2.863
23415W        W95840  31.745  29.035   1.807
23416W        W95841  27.028  14.128  12.520
23417W        W95842  31.409  25.067   3.191
23418W        W95843  39.486   9.192   0.427
23419W        W95844  12.913  28.442   3.364
23420W        W95845  42.904  18.938  11.151
23421W        W95846  15.352   8.169  14.401
23422W        W95847  38.548  37.656  13.553
23423W        W95848  12.321  15.269   0.487
23424W        W95849  29.581  20.465   5.416
23425W        W95850  33.076  27.713   0.935
23426W        W95851  21.770  38.293  12.521
23427W        W95852  14.280  33.923   2.150
23428W        W95853  15.820  30.137  11.078
23429W        W95854   1.800  17.161  14.346
23430W        W95855  38.472  35.404  13.953
23431W        W95856   9.576   4.908   1.433
23432W        W95857   1.786  30.739   3.323
23433W        W95858   5.288  43.728  14.467
23434W        W95859  11.123  19.039   4.218
23435W        W95860  17.117  22.044   2.681
23436W        W95861  32.117  21.255   1.250
23437W        W95862  37.399   8.379   0.066
23438W        W95863  26.472  44.721  10.951
23439W        W95864  36.520  25.986   3.155
23440W        W95865   8.788   8.585  11.687
23441W        W95866  33.302  16.564  14.083
23442W        W95867   6.906  14.587  11.863
23443W        W95868  42.045  41.461  14.275
23444W        W95869  20.172  38.295   2.830
23445W        W95870   1.326  28.896  13.789
23446W        W95871  34.943  12.830  10.770
23447W        W95872  19.617  41.914  12.768
23448W        W95873   6.934  44.480   3.842
23449W        W95874  34.571   2.740   0.766
23450W        W95875  41.479  33.620  14.274
23451W        W95876   2.453  27.421  12.890
23452W        W95877   9.445  32.615   1.866
23453W        W95878  32.332   8.926   1.215
23454W        W95879  35.977  42.126  10.714
23455W        W95880  38.361  31.792   0.291
23456W        W95881  30.041   1.252   2.275
23457W        W95882  13.873  27.715  13.173
23458W        W95883   6.392  31.099  14.043
23459W        W95884  14.243  24.381   9.777
23460W        W95885  21.089   8.585  10.252
23461W        W95886  20.022  13.218   0.435
23462W        W95887  11.857  35.112  10.109
23463W        W95888  27.494  23.696  10.772
23464W        W95889  39.370   5.204   4.095
23465W        W95890  23.621  13.248  14.149
23466W        W95891  12.069  20.727  12.845
23467W        W95892   2.012  19.838   4.113
23468W        W95893  38.348  34.968   1.027
23469W        W95894  17.339   9.584   4.558
23470W        W95895  18.550   1.876   0.805
23471W        W95896  25.211   4.002   2.686
23472W        W95897  36.368   0.204   4.042
23473W        W95898  33.188  25.144   1.369
23474W        W95899  27.475  41.032   1.456
23475W        W95900  15.755  20.034  12.283
23476W        W95901  31.447  23.700  10.176
23477W        W95902   7.844  15.800   2.663
23478W        W95903  20.792  40.087  12.932
23479W        W95904  28.141  28.929  12.140
23480W        W95905   7.054  34.450   3.289
23481W        W95906   8.269  32.671  14.732
23482W        W95907  12.825  12.265  10.999
23483W        W95908  34.790  40.367  11.502
23484W        W95909  31.946  23.235   0.009
23485W        W95910   3.552  20.268   0.806
23486W        W95911   9.356  24.733  14.571
23487W        W95912  31.088  28.592   1.153
23488W        W95913  12.192  11.353  12.024
23489W        W95914  43.272   0.353   2.387
23490W        W95915   7.221  11.215   4.483
23491W        W95916   9.365  39.443  14.147
23492W        W95917   4.235  35.684  13.542
23493W        W95918  38.439   9.721  10.155
23494W        W95919  18.597  12.736   4.643
23495W        W95920   8.375  19.636   2.308
23496W        W95921  12.659  13.757   1.136
23497W        W95922  35.802  35.027  13.757
23498W        W95923  16.341  12.555   0.905
23499W        W95924  20.613  20.185  10.844
23500W        W95925  39.042  24.679   1.699
23501W        W95926  44.528  39.348   1.830
23502W        W95927   5.285  20.318  13.241
23503W        W95928  42.418  39.439  11.119
23504W        W95929  38.840   0.917   1.299
23505W        W95930  44.421  36.527   1.278
23506W        W95931  11.475  26.958  12.508
23507W        W95932  21.715  27.177  14.365
23508W        W95933  38.921   1.625   1.884
23509W        W95934  38.460   9.639   1.146
23510W        W95935   3.290   3.548   1.722
23511W        W95936  36.911   0.324  12.417
23512W        W95937  15.865   6.267  11.188
23513W        W95938  16.568  33.497  10.647
23514W        W95939   0.261  31.069  10.656
23515W        W95940  29.510  12.423  13.076
23516W        W95941  21.234  10.849  13.427
23517W        W95942  18.749  10.843  11.171
23518W        W95943  11.300  12.341   4.632
23519W        W95944  16.920  39.608   2.670
23520W        W95945  39.356   8.735   4.387
23521W        W95946   1.405  14.661   0.092
23522W        W95947  39.352  11.112   0.734
23523W        W95948  43.006  19.343   4.134
23524W        W95949  20.321  42.528  14.908
23525W        W95950   0.164  20.233  11.439
23526W        W95951   8.421  35.073   0.258
23527W        W95952  37.487  39.245  13.007
23528W        W95953  43.404  15.578   4.135
23529W        W95954   9.501  35.076  11.440
23530W        W95955  33.952  10.817  13.941
23531W        W95956  42.625   6.661  10.385
23532W        W95957  27.046   1.046   2.856
23533W        W95958   4.212  33.190  11.690
23534W        W95959  29.142  23.957   3.762
23535W        W95960  12.563  22.890  12.064
23536W        W95961  13.318  16.199   0.089
23537W        W95962  39.769  35.544  11.881
23538W        W95963  25.270   2.667  12.549
23539W        W95964   7.365  15.650   0.741
23540W        W95965  26.907  14.244  11.607
23541W        W95966  41.475  27.316   3.683
23542W        W95967  42.346  14.421  11.598
23543W        W95968  26.364   9.444  11.137
23544W        W95969  27.161  21.983   4.373
23545W        W95970  29.739  13.747  11.626
23546W        W95971  23.881  33.521  12.392
23547W        W95972  10.223  16.365   4.155
23548W        W95973  42.278   8.230   1.461
23549W        W95974  43.684  20.357  10.473
23550W        W95975  19.685  34.563  11.535
23551W        W95976   5.695   3.513  11.714
23552W        W95977   6.354  15.161   1.670
23553W        W95978  23.719  39.055  12.998
23554W        W95979  16.298  31.705  10.144
23555W        W95980  31.310  40.474  10.868
23556W        W95981   0.117  14.774   2.657
23557W        W95982  10.684   6.909   4.591
23558W        W95983  26.696  27.963  14.951
23559W        W95984  22.198  36.788   0.259
23560W        W95985  12.834  27.517  14.809
23561W        W95986  21.144  13.344  13.309
23562W        W95987   1.633  15.267  11.976
23563W        W95988  13.014  38.118   1.696
23564W        W95989  24.025  28.291  13.131
23565W        W95990  10.199  39.241  11.531
23566W        W95991  13.099  23.368  10.428
23567W        W95992  20.076  22.736  13.038
23568W        W95993   4.924  25.170  11.287
23569W        W95994   8.765  40.129   3.291
23570W        W95995  36.111  17.821  11.164
23571W        W95996  12.268   1.322   3.708
23572W        W95997   2.891   2.446  13.535
23573W        W95998  30.663  13.352   3.119
23574W        W95999  24.790   8.443  13.480
23575W        W96000  23.033  20.633   3.812
23576W        W96001  13.501  21.291  13.863
23577W        W96002  22.993  35.505  14.521
23578W        W96003  16.437  34.702   4.956
23579W        W96004  26.755  12.615  13.388
23580W        W96005   4.693  15.704   4.106
23581W        W96006   8.777  15.948  11.596
23582W        W96007  15.233  19.112  13.483
23583W        W96008   8.479  32.944   2.330
23584W        W96009  41.431   1.158  11.534
23585W        W96010   1.493   6.161  11.066
23586W        W96011  27.797  18.602   1.267
23587W        W96012  10.571  22.491   3.754
23588W        W96013   3.937  16.696   3.063
23589W        W96014  15.729  35.316  11.502
23590W        W96015  33.987  32.798  13.406
23591W        W96016   1.620  30.947  14.829
23592W        W96017  39.385   3.350   4.389
23593W        W96018  19.327   1.254   3.197
23594W        W96019  26.111  38.525  12.399
23595W        W96020  37.610  42.384   2.457
23596W        W96021  11.107  44.020   3.657
23597W        W96022  41.495  27.095   2.309
23598W        W96023  43.509  42.992   2.510
23599W        W96024  33.535  10.297   0.427
23600W        W96025   5.347  10.859   4.580
23601W        W96026  16.036  44.714   1.321
23602W        W96027   6.413   0.704  14.070
23603W        W96028  36.090  30.345  12.520
23604W        W96029   3.458  27.494   0.461
23605W        W96030  15.043   5.068   4.334
23606W        W96031  33.580  14.729   0.933
23607W        W96032   5.677  26.263  12.461
23608W        W96033  37.415  19.828   2.789
23609W        W96034  16.959  27.976  12.129
23610W        W96035   7.402  42.792   2.335
23611W        W96036   0.744  17.206  12.369
23612W        W96037   7.456  44.421   0.805
23613W        W96038  22.067   1.160   3.353
23614W        W96039   6.694  26.658  13.907
23615W        W96040  39.292   0.389  10.945
23616W        W96041   7.960  11.872   0.473
23617W        W96042  18.348  40.880  14.017
23618W        W96043  26.505  16.158  13.013
23619W        W96044  32.664  34.853   1.328
23620W        W96045   1.495  21.209  12.219
23621W        W96046  36.017  34.123  11.627
23622W        W96047  25.701  27.958   5.248
23623W        W96048   0.724   7.091  10.776
23624W        W96049  28.115  17.760  14.011
23625W        W96050  22.598   4.893  11.841
23626W        W96051  29.772  35.771  11.485
23627W        W96052   3.036  42.845  12.515
23628W        W96053  36.558  42.474   3.158
23629W        W96054  14.233   3.198   4.132
23630W        W96055  38.026  10.077  12.921
23631W        W96056  40.163  35.085   4.052
23632W        W96057  23.686  34.250  11.075
23633W        W96058  31.411   2.707  12.440
23634W        W96059  44.739  20.944  11.016
23635W        W96060  34.302  21.687  14.462
23636W        W96061  43.324   8.067   2.688
23637W        W96062  15.561  39.505  11.976
23638W        W96063  18.608  42.757  14.395
23639W        W96064  10.790   7.385   3.824
23640W        W96065  44.457  43.534   1.842
23641W        W96066  34.034  39.318   3.887
23642W        W96067  28.189   1.044   3.252
23643W        W96068  26.468  35.172  13.442
23644W        W96069   9.155  30.788  11.798
23645W        W96070   9.313  14.799  14.029
23646W        W96071  29.848   7.234  11.183
23647W        W96072  26.041  29.909   0.420
23648W        W96073  25.631   0.776  12.009
23649W        W96074   7.797  31.136  14.763
23650W        W96075   4.195  34.018  13.361
23651W        W96076  34.199   2.814  14.806
23652W        W96077   9.560  13.769   2.704
23653W        W96078  13.107  30.351   3.336
23654W        W96079  23.020  44.038   2.338
23655W        W96080  22.214   1.653   5.233
23656W        W96081  28.866  36.314   4.176
23657W        W96082  28.098   8.623  12.412
23658W        W96083  10.818  33.956   0.935
23659W        W96084  17.221   0.829  14.988
23660W        W96085  43.559   0.867   1.788
23661W        W96086  44.548  24.971   5.079
23662W        W96087   1.325  34.031  13.758
23663W        W96088  35.952  30.374  13.261
23664W        W96089  23.772  25.070  10.607
23665W        W96090  27.200  35.929   0.833
23666W        W96091   5.018   4.744  13.406
23667W        W96092  11.666  15.769  14.472
23668W        W96093  23.089  15.842   3.121
23669W        W96094  37.246  43.726   1.657
23670W        W96095  26.579  41.886  11.914
23671W        W96096  20.685  44.074   1.960
23672W        W96097  35.678   0.628  11.539
23673W        W96098  36.419  40.577  13.315
23674W        W96099  43.896  23.009   2.681
23675W        W96100  17.740  39.276  11.611
23676W        W96101  20.712  14.726   0.370
23677W        W96102   8.620  21.467  11.033
23678W        W96103  28.419  16.026  13.022
23679W        W96104  12.390  14.265  14.370
23680W        W96105  28.157  12.875   0.282
23681W        W96106  31.283   5.033  11.433
23682W        W96107  17.535  40.853   0.231
23683W        W96108  25.186  11.627  12.562
23684W        W96109  24.536  11.291   9.689
23685W        W96110  44.901  37.325   2.000
23686W        W96111   4.180  17.321  14.802
23687W        W96112  20.526   3.642  13.497
23688W        W96113  27.811  13.873  11.702
23689W        W96114  13.307  28.092   4.631
23690W        W96115   2.673  11.662   3.250
23691W        W96116  19.537  30.444   1.666
23692W        W96117  36.361   8.897  10.147
23693W        W96118  23.887  31.926   1.405
23694W        W96119  10.133  29.036  11.518
23695W        W96120   4.724  39.165  13.303
23696W        W96121  40.539  35.032   5.448
23697W        W96122  31.691  37.055   1.379
23698W        W96123  17.265  33.883  14.133
23699W        W96124  13.179  15.497   4.063
23700W        W96125   5.668  37.591  13.006
23701W        W96126  15.349  14.739  11.917
23702W        W96127   9.778  11.136  11.689
23703W        W96128  43.000  29.772   0.842
23704W        W96129  18.810   4.783  14.329
23705W        W96130  30.581  40.553   1.578
23706W        W96131  35.833   1.887  13.851
23707W        W96132   3.711  21.843  13.029
23708W        W96133  32.407  15.699  12.782
23709W        W96134  21.170  10.448   4.274
23710W        W96135  13.296  26.106   0.167
23711W        W96136  14.219  29.086  10.741
23712W        W96137   7.624  34.572  11.138
23713W        W96138   9.272  30.123   3.804
23714W        W96139   2.653  17.341  11.148
23715W        W96140   4.189  29.261   3.645
23716W        W96141  33.472  24.774   0.776
23717W        W96142  37.490  42.362   4.252
23718W        W96143  27.476  18.827   4.120
23719W        W96144  26.171   3.751   0.260
23720W        W96145  28.077   9.838   2.647
23721W        W96146  29.136   9.787   3.210
23722W        W96147  23.770  30.085   3.195
23723W        W96148  28.315  23.485  14.471
23724W        W96149  26.159  12.200   4.780
23725W        W96150  20.883   8.306  14.359
23726W        W96151  32.947  25.990  11.759
23727W        W96152   2.978  27.331   0.284
23728W        W96153  39.999   1.842   4.505
23729W        W96154  21.733  25.592   3.924
23730W        W96155  39.457  41.976  12.130
23731W        W96156  12.807  13.583   0.296
23732W        W96157  21.090  26.528  12.810
23733W        W96158  12.584  25.897   4.189
23734W        W96159  26.710  10.362  12.971
23735W        W96160  40.039  13.158   0.904
23736W        W96161  32.616  41.291   1.849
23737W        W96162  20.914   0.297  13.156
23738W        W96163  32.948  14.013   1.327
23739W        W96164  35.174  32.921  14.358
23740W        W96165   8.171  26.891   3.741
23741W        W96166  13.813  43.487  14.547
23742W        W96167  44.507  23.028   4.449
23743W        W96168  12.549  43.657  11.832
23744W        W96169   4.441  40.358  12.656
23745W        W96170  39.065  37.810  12.677
23746W        W96171  13.592   6.555   3.701
23747W        W96172  29.509  37.018  14.379
23748W        W96173   8.788  31.244   5.057
23749W        W96174  42.976   9.712  12.095
23750W        W96175  28.006  44.391  12.953
23751W        W96176  22.921  18.806   4.835
23752W        W96177   5.679  23.168  13.505
23753W        W96178   7.825  36.179   3.629
23754W        W96179  16.831  27.940  13.955
23755W        W96180  29.995  31.154  14.823
23756W        W96181  17.301  42.959  12.401
23757W        W96182  38.961   5.603  11.737
23758W        W96183  37.305  12.730  13.052
23759W        W96184  13.846  38.112  13.659
23760W        W96185   5.774  20.675  11.359
23761W        W96186  16.173  34.969  12.137
23762W        W96187  32.912   6.827  11.927
23763W        W96188  41.014  23.000  10.755
23764W        W96189  41.759  19.355  12.011
23765W        W96190  20.088  31.489   0.241
23766W        W96191  38.256  30.588   2.291
23767W        W96192  41.026  18.239  13.819
23768W        W96193   0.774  27.392   2.237
23769W        W96194  39.050  36.809   1.220
23770W        W96195  15.130  36.532  12.269
23771W        W96196  23.702  14.704  10.820
23772W        W96197   3.896  22.042   2.906
23773W        W96198  25.641  21.211   2.165
23774W        W96199  33.148  30.360  13.369
23775W        W96200   1.436   3.620  11.218
23776W        W96201  42.390  34.398  11.925
23777W        W96202  23.134  21.785   0.353
23778W        W96203  31.574  14.091   0.828
23779W        W96204   4.448   3.266  13.321
23780W        W96205   5.534   2.635   0.071
23781W        W96206  38.735  27.793  12.134
23782W        W96207  43.419  36.287   1.233
23783W        W96208  31.970   0.919   0.232
23784W        W96209  10.734   0.350   2.166
23785W        W96210  24.449   8.186   2.200
23786W        W96211  39.001   6.489  10.624
23787W        W96212  15.726  24.790   3.340
23788W        W96213  32.549  32.185  13.446
23789W        W96214  37.569   2.795  13.623
23790W        W96215  10.119  40.445   4.295
23791W        W96216  19.817  20.070  12.509
23792W        W96217  25.697   9.189  14.943
23793W        W96218  24.993   8.997   4.245
23794W        W96219  37.872  11.117   2.213
23795W        W96220  29.787  16.016   1.232
23796W        W96221   5.760  16.315  12.556
23797W        W96222  33.745  18.053  10.596
23798W        W96223  36.309  20.171   3.124
23799W        W96224   0.666  42.313   0.741
23800W        W96225   4.175  38.078  12.079
23801W        W96226   7.643  36.262   0.279
23802W        W96227  21.275  11.346  13.530
23803W        W96228  20.147  18.118  12.944
23804W        W96229  37.316  21.237  11.641
23805W        W96230  42.368  20.995  12.840
23806W        W96231  28.491  15.150   0.107
23807W        W96232  29.131  23.019   2.454
23808W        W96233  21.141  39.865  13.888
23809W        W96234  43.498  36.502   2.232
23810W        W96235  40.602  17.064  11.094
23811W        W96236  28.846  19.300  10.455
23812W        W96237   2.400  23.996  12.863
23813W        W96238  35.615  38.508  13.900
23814W        W96239  42.293  31.893   1.315
23815W        W96240  41.944  11.325  11.738
23816W        W96241  29.046  42.050   1.981
23817W        W96242  38.039  31.608   2.687
23818W        W96243  24.467  30.326  14.502
23819W        W96244  39.421   7.859   0.710
23820W        W96245  14.857  33.490  11.052
23821W        W96246   7.683  20.292   4.170
23822W        W96247  40.351  18.669   2.293
23823W        W96248  38.261   9.820  11.061
23824W        W96249  13.717  33.625   1.425
23825W        W96250   5.799   1.860  12.292
23826W        W96251   5.465  31.130  14.338
23827W        W96252   4.820   9.457   4.727
23828W        W96253  20.851  10.593   0.761
23829W        W96254  12.342  36.043   0.436
23830W        W96255   3.723  27.682   4.647
23831W        W96256  20.203  30.960  10.950
23832W        W96257  35.519  30.684  10.645
23833W        W96258  12.277   4.243  10.147
23834W        W96259   3.968  26.352  11.980
23835W        W96260   9.199  13.822   0.042
23836W        W96261  15.246  11.866  12.478
23837W        W96262  12.562  39.608   2.131
23838W        W96263  22.959  12.647  13.057
23839W        W96264  33.414   7.342   0.284
23840W        W96265   9.330  42.908  14.130
23841W        W96266  41.548  12.626   1.364
23842W        W96267  31.652  37.935   0.288
23843W        W96268  31.108   8.337  12.893
23844W        W96269  15.894  42.347  14.931
23845W        W96270  33.078   9.651   0.871
23846W        W96271  17.108   3.471   5.137
23847W        W96272  19.323   6.711   2.081
23848W        W96273  38.379  26.027   2.444
23849W        W96274  15.059  16.712  11.901
23850W        W96275  25.766   2.423   0.494
23851W        W96276  17.688  22.617  13.108
23852W        W96277  37.885  26.846   3.670
23853W        W96278  44.038  39.313   0.821
23854W        W96279  41.023  39.266   2.017
23855W        W96280  14.327   3.666   1.773
23856W        W96281  41.209  43.945  10.491
23857W        W96282  15.593  17.591   3.144
23858W        W96283  13.725  27.005   3.752
23859W        W96284   9.550   9.671   3.472
23860W        W96285  10.492   7.929  13.707
23861W        W96286  40.538  17.212  13.305
23862W        W96287  36.697  20.268   1.017
23863W        W96288  25.166  43.577  11.589
23864W        W96289   2.537  17.707   1.507
23865W        W96290  26.253   7.729  13.114
23866W        W96291   3.804  10.396   1.386
23867W        W96292  20.271  22.239   3.639
23868W        W96293   0.452   5.139   2.934
23869W        W96294  37.436  21.677   3.259
23870W        W96295  17.230  44.440  14.385
23871W        W96296  15.738  39.402  12.468
23872W        W96297  30.755   8.822  14.553
23873W        W96298  39.033  30.370  13.809
23874W        W96299  16.101  40.888  11.457
23875W        W96300  25.754  30.919  10.958
23876W        W96301  41.817  18.341   0.869
23877W        W96302   8.748  27.053  10.679
23878W        W96303  43.767  37.861   4.853
23879W        W96304  43.487  33.051  12.037
23880W        W96305  27.808   5.264   1.600
23881W        W96306  15.065  12.825  11.507
23882W        W96307  22.733  35.051  12.921
23883W        W96308  36.874   9.267  12.585
23884W        W96309  12.416  14.273   3.295
23885W        W96310  25.228  35.888   0.457
23886W        W96311  43.262  28.196   2.762
23887W        W96312   1.888  34.650  12.435
23888W        W96313  23.018  14.712   4.601
23889W        W96314   8.347  42.870   0.834
23890W        W96315   3.233  25.391  14.317
23891W        W96316  19.875  26.717  13.897
23892W        W96317   1.240  43.742  13.983
23893W        W96318  30.132  43.100  12.068
23894W        W96319  21.645   0.799  11.274
23895W        W96320  20.137   6.934  12.500
23896W        W96321  35.390  36.558  11.483
23897W        W96322  34.709  12.675   3.543
23898W        W96323  30.680  14.769  14.866
23899W        W96324  34.414  27.910  11.090
23900W        W96325   5.085  34.626  11.662
23901W        W96326  36.149  32.512   4.884
23902W        W96327  21.577  25.038  11.560
23903W        W96328  28.774  16.880  10.656
23904W        W96329   2.954  12.280   2.889
23905W        W96330   6.313  43.974   3.491
23906W        W96331  33.712   5.176  10.820
23907W        W96332  24.484  33.620   0.295
23908W        W96333   1.886   0.080   0.800
23909W        W96334  18.624   6.646  13.384
23910W        W96335  40.258  26.957  10.314
23911W        W96336   6.697  39.601   1.656
23912W        W96337  29.666  35.504   3.292
23913W        W96338  20.231  34.319  11.986
23914W        W96339  29.911  11.219   0.645
23915W        W96340   6.197  44.992  11.459
23916W        W96341  23.185  38.855  13.856
23917W        W96342   9.219  17.917   4.323
23918W        W96343   7.244   4.706  13.564
23919W        W96344  31.461  36.496  10.969
23920W        W96345   2.824  34.035  14.305
23921W        W96346   5.771  28.967   1.307
23922W        W96347  34.999  19.188  12.028
23923W        W96348  32.937  26.079  12.672
23924W        W96349  29.125  19.727  13.117
23925W        W96350  21.370  14.561  13.683
23926W        W96351  26.416   0.096  10.604
23927W        W96352  39.659  29.041   0.875
23928W        W96353  33.007  14.257  13.976
23929W        W96354   3.504  28.067  14.943
23930W        W96355  14.709  10.655   4.331
23931W        W96356  39.471   1.377   3.521
23932W        W96357  38.397   1.990   4.469
23933W        W96358  12.166   3.945   4.175
23934W        W96359  35.696   8.838   2.144
23935W        W96360   1.277  32.950  13.453
23936W        W96361  34.670   8.787  13.013
23937W        W96362  11.590  42.042  12.631
23938W        W96363  20.592  31.949  11.183
23939W        W96364   1.554   0.780  14.085
23940W        W96365   9.552   3.721   3.753
23941W        W96366  34.620   5.200  11.823
23942W        W96367   9.698  23.570   0.847
23943W        W96368   4.495  44.295   2.819
23944W        W96369  44.193   9.739   3.519
23945W        W96370  15.707  22.963   1.222
23946W        W96371  10.887  26.776   3.818
23947W        W96372  24.948  20.236   2.766
23948W        W96373  18.484  11.832   0.733
23949W        W96374  35.092  43.961  11.592
23950W        W96375  15.996  28.206  10.963
23951W        W96376  24.976   0.524   1.486
23952W        W96377  12.080   3.738  10.154
23953W        W96378  13.746  18.928   2.000
23954W        W96379   7.720  38.000  14.471
23955W        W96380   1.384  15.564  11.566
23956W        W96381  22.094  21.535  12.450
23957W        W96382  38.745  41.427  10.290
23958W        W96383   1.109  31.424   1.796
23959W        W96384  15.277  29.060   4.677
23960W        W96385  19.133   5.371   4.620
23961W        W96386  40.480  16.775   3.189
23962W        W96387   8.173  12.571   2.157
23963W        W96388  35.676  31.050   1.596
23964W        W96389  16.429  13.231  14.004
23965W        W96390   2.713  23.376   4.585
23966W        W96391   5.253  36.754  11.426
23967W        W96392  12.102  33.956  13.556
23968W        W96393   8.777   8.133  12.569
23969W        W96394  25.587  19.116   0.683
23970W        W96395  16.396  18.054   3.333
23971W        W96396   7.001  38.876   3.797
23972W        W96397  11.472   0.349   4.146
23973W        W96398  36.850  23.737   4.620
23974W        W96399  18.529  35.425  14.364
23975W        W96400  30.413  37.119  11.528
23976W        W96401  21.677  29.496   1.356
23977W        W96402   1.973  35.090   3.368
23978W        W96403  40.429  41.218   2.840
23979W        W96404   9.792  30.378  13.943
23980W        W96405  24.112  33.000  11.247
23981W        W96406  19.084  42.336  11.117
23982W        W96407  20.782   3.989  14.457
23983W        W96408  18.677  13.107  14.191
23984W        W96409  35.983  27.973  12.597
23985W        W96410  22.197  31.007  11.003
23986W        W96411  19.707  29.501   1.290
23987W        W96412  28.747  11.671  10.696
23988W        W96413  40.751   4.593   3.006
23989W        W96414  23.340  32.679   1.446
23990W        W96415  33.996  44.443  11.447
23991W        W96416   9.999  21.805  10.848
23992W        W96417  31.513  12.589   0.084
23993W        W96418  25.758  28.047  13.942
23994W        W96419  16.197  43.782   2.594
23995W        W96420  21.235  40.191   1.732
23996W        W96421  25.179  17.248  10.523
23997W        W96422  26.995  34.515  12.995
23998W        W96423  39.890  11.824  13.552
23999W        W96424  29.831  44.980   0.322
24000W        W96425  14.152  41.266   2.290
24001W        W96426  17.707   1.922   4.249
24002W        W96427  32.763  24.419  12.905
24003W        W96428  28.106   9.170   4.370
24004W        W96429  26.124   1.718  10.618
24005W        W96430  43.993  19.707  11.005
24006W        W96431   9.902  17.220  11.475
24007W        W96432  17.614  44.943  13.892
24008W        W96433   9.690  15.274   3.684
24009W        W96434   2.372   1.737  10.675
24010W        W96435  12.112   0.917   4.603
24011W        W96436  24.003  12.576   2.308
24012W        W96437  31.600  29.156   0.312
24013W        W96438  35.744   0.267   2.587
24014W        W96439  36.763  41.009  13.374
24015W        W96440  20.994  40.566  14.343
24016W        W96441  38.559  34.448  13.848
24017W        W96442  43.359  34.162  11.351
24018W        W96443   0.722  27.934  14.386
24019W        W96444  13.615  20.065  11.109
24020W        W96445  40.161   3.029  11.049
24021W        W96446  29.512   4.367   2.644
24022W        W96447  25.789   0.903   3.283
24023W        W96448   8.296  14.602   2.579
24024W        W96449  35.565   7.328  12.831
24025W        W96450  42.845  41.484  13.917
24026W        W96451  16.678  33.987  10.798
24027W        W96452   8.722   2.881  10.894
24028W        W96453   8.151  11.996   0.015
24029W        W96454   1.792   6.505   2.822
24030W        W96455  28.221  30.461  13.938
24031W        W96456  28.937  31.050   1.433
24032W        W96457  21.321  12.792  10.949
24033W        W96458  20.916  39.114  13.246
24034W        W96459   7.060  31.883  12.886
24035W        W96460  13.735  20.363  12.597
24036W        W96461  27.478  39.934  10.712
24037W        W96462  33.083  26.460   2.889
24038W        W96463   2.265  13.828   1.239
24039W        W96464   8.690  11.610  14.864
24040W        W96465  17.949  29.855  14.259
24041W        W96466   0.716  14.517  10.333
24042W        W96467  36.792   7.203   3.590
24043W        W96468   3.713  21.790  14.839
24044W        W96469  24.137  31.585  14.228
24045W        W96470  11.975   4.939  14.778
24046W        W96471  40.832  14.594   1.188
24047W        W96472  31.010  27.480   0.191
24048W        W96473   9.001  39.343   4.367
24049W        W96474  23.759  28.583   1.762
24050W        W96475   3.208  23.927   0.323
24051W        W96476  33.195  10.272   1.805
24052W        W96477  38.233  32.902   3.142
24053W        W96478  16.953   4.387   3.357
24054W        W96479  28.246  27.531  13.868
24055W        W96480  37.897  16.624   4.388
24056W        W96481  40.954  34.501  14.629
24057W        W96482  21.070  38.959  12.391
24058W        W96483  35.317  42.860  14.941
24059W        W96484  23.607   8.957  12.899
24060W        W96485  22.460  39.477  14.872
24061W        W96486   6.535  20.198  12.860
24062W        W96487  19.994   5.040  11.711
24063W        W96488  44.571  19.821   0.975
24064W        W96489   6.331  44.834  10.996
24065W        W96490  27.610  33.392   4.841
24066W        W96491   7.181  12.129  11.118
24067W        W96492  29.897  14.818  12.897
24068W        W96493  26.281   8.305  14.893
24069W        W96494  16.178  33.087  11.556
24070W        W96495  18.641  43.017  14.951
24071W        W96496  34.729  14.645  14.033
24072W        W96497  25.514   8.741  14.723
24073W        W96498  43.863  14.596  13.399
24074W        W96499   3.466  17.121   1.719
24075W        W96500  23.099  39.027   1.710
24076W        W96501  31.127   5.763   2.789
24077W        W96502  22.608  26.723  10.642
24078W        W96503  24.269  42.758   1.235
24079W        W96504  20.814  22.985   0.444
24080W        W96505   7.617   2.533   0.462
24081W        W96506  31.142   2.341   4.181
24082W        W96507  28.771  30.982  10.628
24083W        W96508  10.280   6.291  10.533
24084W        W96509  15.826  37.608  13.944
24085W        W96510  31.509   1.184   3.480
24086W        W96511  32.072  44.433   4.266
24087W        W96512  11.352  37.087   4.705
24088W        W96513  13.366  27.565  13.231
24089W        W96514   4.735   0.524   3.232
24090W        W96515  24.330  40.062   0.983
24091W        W96516   8.723  27.127   2.295
24092W        W96517  43.310  13.439  11.121
24093W        W96518  25.685  44.386   0.344
24094W        W96519  35.550  43.878  13.827
24095W        W96520  26.506   0.973   0.406
24096W        W96521   7.866  30.901  14.309
24097W        W96522  35.409   5.796  13.196
24098W        W96523   5.359  42.890  13.302
24099W        W96524  42.776  40.057  12.539
24100W        W96525  33.060  38.815  13.494
24101W        W96526   3.568  44.022   2.658
24102W        W96527   3.752  24.237  12.116
24103W        W96528  20.559  41.437   1.865
24104W        W96529  40.295  21.065  12.581
24105W        W96530   7.243  23.281  10.449
24106W        W96531   2.465  43.946  13.302
24107W        W96532  27.251  43.663  10.850
24108W        W96533  23.721  31.753  13.947
24109W        W96534  31.486   0.816   0.395
24110W        W96535  28.332  26.347   1.530
24111W        W96536  10.723  27.254  12.824
24112W        W96537  20.839   1.843  13.005
24113W        W96538  25.670  33.421  13.834
24114W        W96539  11.692   9.258   1.353
24115W        W96540  34.606  42.435  12.060
24116W        W96541  12.749  23.948   1.987
24117W        W96542   4.878   0.868   1.362
24118W        W96543   4.582  19.632  11.161
24119W        W96544  30.296   1.281  14.880
24120W        W96545  27.946  22.701  14.583
24121W        W96546  29.474  40.635   0.136
24122W        W96547  13.086  26.128  12.604
24123W        W96548  43.516  30.947   4.009
24124W        W96549  29.865  39.888   1.350
24125W        W96550   4.234  21.365  13.949
24126W        W96551  24.692  35.781  12.022
24127W        W96552   9.097   9.122   0.210
24128W        W96553  29.219  20.688   0.057
24129W        W96554  27.457  41.253  13.479
24130W        W96555  13.986  21.806  12.222
24131W        W96556   7.417   0.303   0.320
24132W        W96557  26.366  35.330   3.163
24133W        W96558  41.876   6.142  12.024
24134W        W96559  23.151  33.662   0.386
24135W        W96560  11.141  29.915  14.773
24136W        W96561  24.526  24.703   2.888
24137W        W96562   9.676  13.128   0.530
24138W        W96563   0.387   0.857   4.116
24139W        W96564  17.318  19.509   1.761
24140W        W96565  40.751   0.310  11.176
24141W        W96566  23.004  10.207  12.020
24142W        W96567  26.418  29.602  14.280
24143W        W96568  13.111  40.573  11.644
24144W        W96569  25.111   9.821   1.889
24145W        W96570  16.240   5.168  12.855
24146W        W96571  39.647   4.395   1.449
24147W        W96572  20.558  26.691   4.216
24148W        W96573  43.850  13.753  10.509
24149W        W96574  23.236  24.311  14.420
24150W        W96575  15.074  11.249  10.920
24151W        W96576   2.452  28.396  11.487
24152W        W96577  15.882  41.214   1.750
24153W        W96578  23.706  36.839  13.313
24154W        W96579  19.841  37.537  13.946
24155W        W96580  24.854   4.324  13.653
24156W        W96581  20.561  43.352   3.113
24157W        W96582  15.177  18.095  10.766
24158W        W96583  40.074  20.247   1.590
24159W        W96584  35.978  18.107  12.547
24160W        W96585  37.385  35.169   0.890
24161W        W96586  24.105   3.866  10.974
24162W        W96587  15.636  26.816   4.546
24163W        W96588   1.759  24.208  14.294
24164W        W96589  19.880   0.614   4.581
24165W        W96590  13.655   3.898   3.632
24166W        W96591  17.230  40.920   2.401
24167W        W96592   3.529   7.861   3.775
24168W        W96593  23.674  27.458  14.330
24169W        W96594  39.313  31.151  12.990
24170W        W96595  33.795  21.264  11.727
24171W        W96596  19.511   4.673  11.155
24172W        W96597   3.486  43.958  13.820
24173W        W96598  32.890  37.462  11.660
24174W        W96599  14.872   6.446  13.315
24175W        W96600  10.332  29.971   0.313
24176W        W96601   8.586  12.741  12.108
24177W        W96602  22.745  17.719   1.995
24178W        W96603  16.580  43.081  13.376
24179W        W96604  37.226   0.395  13.098
24180W        W96605  13.868  10.630   0.336
24181W        W96606  25.504  29.872   3.182
24182W        W96607   0.142  34.995   1.782
24183W        W96608  14.817  27.755   4.734
24184W        W96609  37.532   9.480  14.477
24185W        W96610  38.957  22.942  12.596
24186W        W96611  20.346  28.312   4.612
24187W        W96612  15.657   1.922   2.527
24188W        W96613  27.185   8.499  12.598
24189W        W96614  25.527  23.060   3.874
24190W        W96615  31.425  23.227  10.507
24191W        W96616  31.059  37.975   1.672
24192W        W96617  35.504  37.176  10.928
24193W        W96618  15.553  31.928  14.852
24194W        W96619   6.213  31.612   1.945
24195W        W96620  38.601   6.420  13.927
24196W        W96621  16.216  44.257   3.735
24197W        W96622  30.709   4.927   3.628
24198W        W96623  19.492  22.215   0.554
24199W        W96624  15.723   9.323  11.411
24200W        W96625  21.270  26.391  13.777
24201W        W96626  42.760  33.587   2.667
24202W        W96627  21.123  40.595  11.580
24203W        W96628   0.396  20.066  13.564
24204W        W96629  27.151  32.600   5.810
24205W        W96630  12.132  41.621  12.954
24206W        W96631  39.917   9.677  14.865
24207W        W96632   6.408  42.405   4.632
24208W        W96633  27.250  38.961  14.958
24209W        W96634  40.977  42.464   2.745
24210W        W96635  22.661  16.810   2.908
24211W        W96636  43.448  21.691   2.742
24212W        W96637   3.810  25.998  13.206
24213W        W96638  30.651  22.154   0.926
24214W        W96639  31.456  23.151   1.268
24215W        W96640   1.364  28.684   0.053
24216W        W96641  17.950  16.775   1.144
24217W        W96642  38.796  15.685   0.958
24218W        W96643  23.196  36.860  14.426
24219W        W96644  36.622  42.781  13.413
24220W        W96645  43.381   9.498   1.149
24221W        W96646  21.026  39.377   3.027
24222W        W96647  20.040  32.355  12.448
24223W        W96648   1.412  33.784  12.763
24224W        W96649  19.612  24.907   2.729
24225W        W96650  40.315   7.230  13.821
24226W        W96651   8.355   2.829   1.161
24227W        W96652  11.884  29.950  11.633
24228W        W96653  22.187  32.530   4.131
24229W        W96654  27.134  37.038   4.913
24230W        W96655  23.792  18.186  11.103
24231W        W96656   0.953  23.504   3.614
24232W        W96657  40.269  29.723   1.450
24233W        W96658   2.801  40.023  11.581
24234W        W96659  42.209   9.281   1.237
24235W        W96660  36.475  17.673   0.877
24236W        W96661   7.728  16.643   2.121
24237W        W96662  15.132  33.020   0.889
24238W        W96663   9.251  25.608  12.366
24239W        W96664  29.272  41.480   3.791
24240W        W96665  28.338  42.521   3.962
24241W        W96666  34.372   9.759  13.001
24242W        W96667  33.990  43.504   3.391
24243W        W96668   6.140  44.889   3.743
24244W        W96669  20.617  23.220   3.528
24245W        W96670  38.256  35.230  14.389
24246W        W96671  12.362  22.147  14.068
24247W        W96672  15.259  11.193   0.377
24248W        W96673   6.473   4.899   1.991
24249W        W96674   1.435  27.967  13.842
24250W        W96675  25.756   1.535  11.497
24251W        W96676  35.633  37.464  14.020
24252W        W96677  19.672   6.742  11.655
24253W        W96678   8.253   7.122  14.798
24254W        W96679  44.686  31.920   4.537
24255W        W96680   3.462  10.907  11.276
24256W        W96681  34.856  13.978   3.243
24257W        W96682  42.756  23.587   2.633
24258W        W96683  43.751  10.771   2.832
24259W        W96684   3.702  31.951   3.525
24260W        W96685  17.720  29.043  12.394
24261W        W96686  30.460   0.945   0.826
24262W        W96687  20.594  20.636   4.307
24263W        W96688  16.193  38.920   0.847
24264W        W96689  37.842  21.765   0.803
24265W        W96690   1.804   3.486  12.640
24266W        W96691  24.977   2.891  12.027
24267W        W96692   0.785  28.997  12.965
24268W        W96693  30.999  22.542   0.197
24269W        W96694  31.130  12.385   1.795
24270W        W96695  17.841  44.803   1.203
24271W        W96696  15.302   5.932   3.168
24272W        W96697  38.412  41.145  13.032
24273W        W96698  29.894  44.445   1.412
24274W        W96699  19.655  11.102   0.766
24275W        W96700  27.696  25.557  11.235
24276W        W96701  12.386  39.802   0.291
24277W        W96702   0.787  41.931  14.823
24278W        W96703  32.939  31.125   1.402
24279W        W96704  27.673  10.389   1.534
24280W        W96705  20.573   9.756   5.498
24281W        W96706  34.110   3.256   1.825
24282W        W96707  33.489  29.982  13.526
24283W        W96708  30.223  36.022  11.352
24284W        W96709  38.877  35.287  13.589
24285W        W96710   9.772  16.302   4.605
24286W        W96711   6.950  18.885   2.341
24287W        W96712  27.995  26.385  11.861
24288W        W96713  29.652  27.708   2.890
24289W        W96714   3.374  28.188  13.840
24290W        W96715  19.983  15.068   1.300
24291W        W96716   0.876   7.025   1.808
24292W        W96717  11.694   1.185   2.652
24293W        W96718  43.809  39.617   0.467
24294W        W96719  20.231  39.654   0.327
24295W        W96720  40.740  26.199   3.745
24296W        W96721   2.305  21.353   3.733
24297W        W96722  25.196  37.034  14.367
24298W        W96723   6.892   0.347   2.078
24299W        W96724  11.088  10.948   1.226
24300W        W96725  34.996  14.548   0.900
24301W        W96726   4.741  24.118   0.848
24302W        W96727  16.588   1.481  12.499
24303W        W96728  11.122  30.221   0.914
24304W        W96729  12.117   7.184  14.416
24305W        W96730  12.229   7.129   4.233
24306W        W96731  35.542  39.865  13.579
24307W        W96732  20.957  22.295  14.496
24308W        W96733  43.146  31.193   3.749
24309W        W96734  30.385  43.425   0.052
24310W        W96735  30.642  32.844   2.383
24311W        W96736  25.461   8.787   4.110
24312W        W96737   6.347  10.655   1.824
24313W        W96738  41.862  29.251  12.423
24314W        W96739  27.203  24.575   0.802
24315W        W96740  12.961  27.933  11.671
24316W        W96741  41.091   6.756   3.824
24317W        W96742   2.471  16.190  14.430
24318W        W96743  24.104  41.216   4.111
24319W        W96744  30.901   6.759  11.620
24320W        W96745  23.593  33.709   3.425
24321W        W96746  37.845  20.274  12.995
24322W        W96747  28.537   7.136  10.615
24323W        W96748  37.552  14.511   1.259
24324W        W96749  25.589  22.416   0.452
24325W        W96750  11.809  42.428   1.260
24326W        W96751  13.487   8.785  10.648
24327W        W96752   1.539  26.561   4.441
24328W        W96753  37.207   7.849   2.069
24329W        W96754   5.000  12.381   2.253
24330W        W96755  30.991  35.836  11.505
24331W        W96756   9.165  29.638   1.160
24332W        W96757   0.191   7.289  11.024
24333W        W96758  40.328  43.488   4.009
24334W        W96759  44.454  40.470   1.312
24335W        W96760  19.246  27.073   3.119
24336W        W96761  13.172  44.369  10.800
24337W        W96762   0.453  37.718  11.767
24338W        W96763   1.793  13.760   1.556
24339W        W96764  23.766  27.439  11.130
24340W        W96765  27.434  37.255   1.827
24341W        W96766  44.381   5.079  14.854
24342W        W96767   9.164  31.070  11.152
24343W        W96768  15.039  28.916  10.725
24344W        W96769  40.439   3.946   4.165
24345W        W96770  14.050  43.412   2.317
24346W        W96771  34.961  17.587   1.157
24347W        W96772  22.999   3.860   2.174
24348W        W96773  13.807  15.389   1.391
24349W        W96774  37.569  15.557   0.310
24350W        W96775   4.825  30.034   1.098
24351W        W96776  15.601  32.534  11.013
24352W        W96777  36.659   4.983   1.791
24353W        W96778   7.730  29.856   0.449
24354W        W96779  40.950  34.787   3.709
24355W        W96780  12.205   7.132  11.909
24356W        W96781   3.869  28.222  13.065
24357W        W96782   7.697  24.934  13.961
24358W        W96783  10.318  43.861  11.124
24359W        W96784  14.379  12.761   3.227
24360W        W96785   6.767   4.668   3.155
24361W        W96786  20.615  42.397   3.251
24362W        W96787  44.363   1.991  11.906
24363W        W96788  18.651  14.665   2.265
24364W        W96789  14.859  27.691   0.117
24365W        W96790  42.769   0.888   2.568
24366W        W96791  14.246  36.784  10.705
24367W        W96792  43.404  27.736  14.641
24368W        W96793  11.329   0.825   0.800
24369W        W96794   2.751  15.846   2.642
24370W        W96795  38.418  41.031  10.730
24371W        W96796  17.621  32.861   4.746
24372W        W96797  26.664   3.350   4.249
24373W        W96798  22.118  27.096  13.359
24374W        W96799  13.370  29.401  10.574
24375W        W96800  36.519  38.791  14.996
24376W        W96801  41.328  19.593   1.347
24377W        W96802   3.050  20.517   1.273
24378W        W96803  21.708  23.360   3.365
24379W        W96804  40.080  19.659   2.658
24380W        W96805  18.596   4.902   2.294
24381W        W96806  10.169  31.211   0.796
24382W        W96807  13.596  16.747   1.432
24383W        W96808   0.391  44.446  13.433
24384W        W96809  22.336  36.997   1.817
24385W        W96810  28.302  32.442   0.333
24386W        W96811  37.393  18.969   4.438
24387W        W96812  30.848  30.971  11.544
24388W        W96813   9.446   2.425   4.375
24389W        W96814  26.968   4.742   0.949
24390W        W96815  40.297  17.110   1.247
24391W        W96816   9.257  44.267  13.805
24392W        W96817  11.365  33.463   3.604
24393W        W96818   4.670   6.324   0.812
24394W        W96819  42.431  40.318   3.794
24395W        W96820  24.970  15.847   2.667
24396W        W96821  44.953   2.797  11.074
24397W        W96822  11.341  16.257   4.699
24398W        W96823  38.442   9.624   1.652
24399W        W96824  23.130  20.926  11.114
24400W        W96825  21.579  27.970   1.201
24401W        W96826  27.441  22.742  11.047
24402W        W96827   7.270  11.628   2.091
24403W        W96828  20.325  11.148  11.743
24404W        W96829  20.244   6.611  12.126
24405W        W96830   7.807  22.232  14.287
24406W        W96831  13.147   6.749   3.081
24407W        W96832  41.719  37.062  12.163
24408W        W96833  15.602  13.870   0.720
24409W        W96834  21.167  23.314  12.479
24410W        W96835  23.311   8.914  12.456
24411W        W96836  14.475  43.489  14.520
24412W        W96837  42.302  14.637   3.466
24413W        W96838  20.724   8.009  13.045
24414W        W96839  37.905  34.212  13.060
24415W        W96840   3.787   8.031  10.795
24416W        W96841  17.841  28.095   2.007
24417W        W96842  29.087  37.043   2.795
24418W        W96843  10.615  21.987  12.032
24419W        W96844  28.370  20.090  13.163
24420W        W96845  17.240  10.639   2.360
24421W        W96846   6.315   6.084   2.752
24422W        W96847  30.671  35.434  13.413
24423W        W96848  10.024   1.461  14.319
24424W        W96849   4.106   7.607   0.058
24425W        W96850   4.656   7.947   4.144
24426W        W96851  27.756  43.337  10.192
24427W        W96852  30.934  11.913   0.862
24428W        W96853  14.847  31.335   3.173
24429W        W96854  38.642   1.702   4.103
24430W        W96855  38.665  10.186  11.956
24431W        W96856  33.592   4.985   2.846
24432W        W96857  35.131  19.745   1.386
24433W        W96858  32.570   7.925  10.768
24434W        W96859  19.511   0.865  12.605
24435W        W96860  21.652  30.512   5.058
24436W        W96861   2.210  32.980  10.698
24437W        W96862  36.112   5.475   0.525
24438W        W96863  22.676  14.469  11.587
24439W        W96864  35.636   8.819  14.862
24440W        W96865   1.301  37.020  10.824
24441W        W96866  23.118  26.013   3.624
24442W        W96867  32.338  19.297  10.821
24443W        W96868   9.906  27.660  12.589
24444W        W96869  20.115  27.874   0.287
24445W        W96870  33.070   7.467  13.911
24446W        W96871  14.198  34.414  11.584
24447W        W96872  21.213  21.303  14.325
24448W        W96873   5.928  35.571   3.704
24449W        W96874  37.599   9.841   1.832
24450W        W96875  41.883  37.783  10.679
24451W        W96876   7.314  23.564  11.393
24452W        W96877  42.265  40.378   1.814
24453W        W96878  10.470  14.250   4.256
24454W        W96879  24.479  34.512  14.835
24455W        W96880  12.327  14.036  11.886
24456W        W96881  11.829  24.419   3.380
24457W        W96882  44.289   5.201  11.186
24458W        W96883  16.295  11.557  10.682
24459W        W96884   7.288   5.637  10.400
24460W        W96885  10.607  35.461  11.182
24461W        W96886  15.665  15.343   1.734
24462W        W96887  11.264  12.734  10.944
24463W        W96888  13.283  14.825  13.474
24464W        W96889  34.086  24.035  10.591
24465W        W96890  24.795  29.062   1.887
24466W        W96891   2.098  42.479   4.700
24467W        W96892  42.936   5.788  13.943
24468W        W96893  27.220  28.257  12.940
24469W        W96894  13.060  20.200  14.839
24470W        W96895  18.805  38.109  13.363
24471W        W96896  27.581   5.811   0.470
24472W        W96897   5.846   2.285   0.405
24473W        W96898  42.063  22.219   9.788
24474W        W96899   1.873  11.916  10.752
24475W        W96900  16.853   6.347   2.340
24476W        W96901  21.105   4.312  12.130
24477W        W96902  29.190  43.969  11.565
24478W        W96903  16.700  20.083  14.482
24479W        W96904  18.020  37.905   1.392
24480W        W96905  19.039  21.102   2.740
24481W        W96906   2.399  26.509   4.458
24482W        W96907  29.463  27.095   3.688
24483W        W96908  30.602  27.248   2.868
24484W        W96909  22.657  16.750   1.417
24485W        W96910  28.674  42.583  13.432
24486W        W96911  42.020  15.753  10.090
24487W        W96912  43.320   7.191   4.998
24488W        W96913  39.332   2.680   2.378
24489W        W96914  42.522  37.614  11.851
24490W        W96915  41.787  13.278   4.104
24491W        W96916  27.115  30.354  11.874
24492W        W96917  32.867   9.133   0.851
24493W        W96918   5.978  20.035   2.358
24494W        W96919   4.734  20.669  12.798
24495W        W96920  34.611   4.581   2.290
24496W        W96921  33.605  24.722   2.838
24497W        W96922  31.896  36.012   2.307
24498W        W96923  41.836  43.805  12.794
24499W        W96924  22.752  11.016  13.499
24500W        W96925  12.224  10.326  13.401
24501W        W96926  27.774  35.406   1.087
24502W        W96927  38.882  32.154  13.611
24503W        W96928  33.106  15.305  11.530
24504W        W96929  10.249  29.009  13.547
24505W        W96930   4.367  37.961   4.101
24506W        W96931  34.425  16.336  12.033
24507W        W96932  22.020  38.007  12.024
24508W        W96933   5.168  10.452  14.882
24509W        W96934   8.819  34.732  13.799
24510W        W96935   7.378  33.883  12.870
24511W        W96936  34.344  28.231   4.789
24512W        W96937  15.462   1.729  12.365
24513W        W96938  18.607  36.578   4.143
24514W        W96939   8.789  32.374  13.864
24515W        W96940  14.785  17.719   0.285
24516W        W96941  40.021  42.928   2.869
24517W        W96942  24.953  23.048  12.442
24518W        W96943  43.831  41.748   0.928
24519W        W96944   7.210  11.569  14.839
24520W        W96945  10.375  28.769   1.364
24521W        W96946  20.511   6.316   0.769
24522W        W96947  44.362  37.044   2.356
24523W        W96948  29.412  18.212   2.742
24524W        W96949   7.502   1.476  11.129
24525W        W96950  28.008   6.236   3.238
24526W        W96951   2.349  29.413  10.640
24527W        W96952  14.483  17.217  13.290
24528W        W96953  17.519  20.080  10.680
24529W        W96954  20.148   6.141   0.398
24530W        W96955  38.140   5.874   0.220
24531W        W96956  11.374  36.833  10.649
24532W        W96957  42.306  40.946  13.320
24533W        W96958  12.515  37.881  12.203
24534W        W96959  11.821  44.958  14.208
24535W        W96960  11.778  34.927  11.466
24536W        W96961   4.031  38.865   3.687
24537W        W96962  21.225  23.574   1.523
24538W        W96963  11.714   0.233  12.085
24539W        W96964  28.107  24.544   4.052
24540W        W96965   5.808   7.408  10.751
24541W        W96966  12.655  11.713  12.579
24542W        W96967   2.814  11.559  11.062
24543W        W96968  39.579  28.852  13.759
24544W        W96969   2.871  16.916   1.902
24545W        W96970  36.859  12.508   1.250
24546W        W96971  27.266  44.833  10.742
24547W        W96972  14.451  26.316  14.801
24548W        W96973   0.223  28.150  11.166
24549W        W96974  13.324   3.325   1.871
24550W        W96975  16.357  31.736  12.580
24551W        W96976  16.747  43.979   0.445
24552W        W96977   1.934  35.854  12.065
24553W        W96978   8.553  10.526   3.773
24554W        W96979  21.747   5.488   4.581
24555W        W96980   8.437  15.782  11.254
24556W        W96981  16.114  17.665  11.533
24557W        W96982  26.433  43.146   1.425
24558W        W96983  22.284  39.609   3.382
24559W        W96984  33.637  10.718  11.594
24560W        W96985   4.077   0.186   0.960
24561W        W96986  11.875  44.580  10.745
24562W        W96987  29.471  19.554   0.409
24563W        W96988   7.876   0.481  11.496
24564W        W96989  23.278  12.172   1.890
24565W        W96990  41.861  39.349  12.463
24566W        W96991  26.924  24.936  13.421
24567W        W96992  35.476  29.693  11.051
24568W        W96993   9.859  42.912  11.081
24569W        W96994  28.486  34.936   1.695
24570W        W96995  24.917  22.991   2.030
24571W        W96996  30.662  39.487   4.650
24572W        W96997  13.891   9.688  13.271
24573W        W96998  31.447  41.542   4.250
24574W        W96999  32.534  33.696  11.120
24575W        W97000  35.388  36.000  14.265
24576W        W97001  13.866  17.832  13.380
24577W        W97002   4.260  25.323  14.775
24578W        W97003  20.195  37.794  11.586
24579W        W97004  11.191   6.441  13.380
24580W        W97005   6.202  20.740   1.030
24581W        W97006  24.063  38.167   1.066
24582W        W97007  26.492  24.359   4.056
24583W        W97008   1.425   5.158  10.982
24584W        W97009   0.237  35.565   0.904
24585W        W97010  39.580  39.571  12.982
24586W        W97011  17.354  38.976  14.286
24587W        W97012  44.520   5.610  14.843
24588W        W97013  36.876  40.384   0.049
24589W        W97014   0.985  18.231   0.868
24590W        W97015  38.046  18.119  14.479
24591W        W97016  34.033   4.341  11.957
24592W        W97017  13.713  22.199   4.745
24593W        W97018  17.309  19.709   0.379
24594W        W97019  14.765  16.976   4.174
24595W        W97020  10.754  26.375  12.591
24596W        W97021  15.352  43.780  11.549
24597W        W97022  37.585  33.673   4.405
24598W        W97023  19.280  36.926   4.792
24599W        W97024  17.145  25.411  12.882
24600W        W97025  16.616  43.200   2.210
24601W        W97026  12.528  29.184  13.473
24602W        W97027  31.607   7.792  14.228
24603W        W97028  32.680  16.283  14.301
24604W        W97029  26.418   0.881   0.904
24605W        W97030  26.980  27.471  12.507
24606W        W97031  25.624  35.660  12.093
24607W        W97032   6.963  41.188   2.839
24608W        W97033   9.640  44.655   0.323
24609W        W97034  31.137  34.029   2.355
24610W        W97035  39.295  15.103  13.455
24611W        W97036  22.215  41.265   1.768
24612W        W97037  31.235   7.843  10.559
24613W        W97038  28.406  39.928   0.332
24614W        W97039   6.139  24.760   3.424
24615W        W97040   5.689  41.367   2.564
24616W        W97041  22.066  26.650   2.204
24617W        W97042  37.207  30.460   3.829
24618W        W97043   5.283   8.729  10.165
24619W        W97044  39.241  22.352   2.368
24620W        W97045  33.566  21.313   1.458
24621W        W97046  34.831   8.316   0.700
24622W        W97047  24.618  24.192   3.184
24623W        W97048   0.740   1.262   0.330
24624W        W97049  27.111   8.750  12.167
24625W        W97050  15.049  24.232   1.286
24626W        W97051  11.716  23.131   3.337
24627W        W97052   8.399  41.969  14.444
24628W        W97053   2.277  15.686   2.848
24629W        W97054  26.750  39.504   0.875
24630W        W97055   9.439  15.786   5.008
24631W        W97056   4.113  42.587   2.119
24632W        W97057  28.626  32.456  11.587
24633W        W97058  20.112  41.836  13.312
24634W        W97059  14.326  14.737   0.806
24635W        W97060  27.712  15.760  13.638
24636W        W97061  37.780  15.647  11.188
24637W        W97062  14.044  24.156  10.609
24638W        W97063  17.601  38.084  13.533
24639W        W97064  28.400  32.522  12.034
24640W        W97065  13.494  38.267   1.673
24641W        W97066  26.615  34.376  11.644
24642W        W97067  33.638  25.202  13.526
24643W        W97068  25.716  13.232  12.196
24644W        W97069  18.196   5.993   2.192
24645W        W97070  28.983  35.854   1.735
24646W        W97071  11.216  30.419  14.855
24647W        W97072   6.262  29.427  11.094
24648W        W97073   8.924   6.721   4.534
24649W        W97074  22.461   1.003  10.137
24650W        W97075  35.069  18.894   2.636
24651W        W97076  25.211  30.729   1.428
24652W        W97077  40.985   4.092   3.003
24653W        W97078   9.915  38.023  13.909
24654W        W97079  40.835   2.230  12.025
24655W        W97080  26.443  13.245  14.946
24656W        W97081  41.943  24.215   3.264
24657W        W97082  30.148   2.905   3.238
24658W        W97083  16.297  39.788   4.626
24659W        W97084  11.775  23.144   1.171
24660W        W97085   2.826  11.953   3.721
24661W        W97086  13.795  36.182   0.315
24662W        W97087   4.068  18.578  13.065
24663W        W97088   8.316  32.479   4.604
24664W        W97089  26.423  30.887  13.131
24665W        W97090  26.204   6.694   3.702
24666W        W97091  29.425   9.364   4.838
24667W        W97092   9.779  24.166   3.579
24668W        W97093  38.263  22.827  10.195
24669W        W97094  31.871  13.065  14.496
24670W        W97095  10.353   7.473   2.245
24671W        W97096  17.793   3.697  13.909
24672W        W97097  24.536   2.057   1.459
24673W        W97098  16.875  26.595   4.208
24674W        W97099  39.952  41.736   1.365
24675W        W97100  13.763  24.292   4.450
24676W        W97101  24.165  40.504  11.786
24677W        W97102   8.803  28.600  12.179
24678W        W97103   3.148   4.725  11.577
24679W        W97104   1.373  30.399  11.984
24680W        W97105   3.795  29.349  14.964
24681W        W97106  25.102  25.180  13.963
24682W        W97107  25.484  38.332  12.603
24683W        W97108  18.384   1.960  10.970
24684W        W97109  29.165  24.920   2.202
24685W        W97110  13.837  39.523   3.721
24686W        W97111  31.207  39.953   1.934
24687W        W97112  41.332  10.360  12.410
24688W        W97113  13.155  23.000   3.391
24689W        W97114  39.905  12.319   3.709
24690W        W97115   6.697  40.098   1.823
24691W        W97116  30.409  42.055   0.463
24692W        W97117  41.969  33.058   4.962
24693W        W97118   7.061   1.788  13.487
24694W        W97119   1.854  40.085  12.597
24695W        W97120  14.804   8.536   0.772
24696W        W97121  15.461  10.270   4.687
24697W        W97122  27.045  19.341   3.126
24698W        W97123  10.317  21.741  14.331
24699W        W97124  27.195  23.094  12.926
24700W        W97125  26.289  30.193   2.817
24701W        W97126  33.053   0.210   0.820
24702W        W97127  40.860   5.140   3.872
24703W        W97128  40.252  13.251   0.210
24704W        W97129  14.643   3.470  12.992
24705W        W97130  26.433   2.275   3.773
24706W        W97131  35.611   7.760  14.978
24707W        W97132  16.474   3.621   0.836
24708W        W97133  39.585  42.295  13.429
24709W        W97134  15.495  30.849   2.097
24710W        W97135   4.112  14.372   4.573
24711W        W97136  36.021   7.366  12.122
24712W        W97137  42.534   3.893  13.854
24713W        W97138  41.461  39.873  14.919
24714W        W97139   7.196  32.513  10.728
24715W        W97140  35.954  18.226  13.088
24716W        W97141  24.425  25.539   3.189
24717W        W97142   1.543  35.368  12.882
24718W        W97143  11.525  32.142   0.184
24719W        W97144  38.394  27.774  12.515
24720W        W97145  15.357  28.870   1.382
24721W        W97146  29.393  34.887   3.319
24722W        W97147  23.841  29.950  13.409
24723W        W97148  39.526  10.319   3.173
24724W        W97149   3.804  12.925  10.739
24725W        W97150   1.270   5.858  11.552
24726W        W97151   5.116   0.413   1.413
24727W        W97152  29.475  36.888  11.390
24728W        W97153  18.125   0.719   4.240
24729W        W97154  37.593  30.485  10.992
24730W        W97155  11.182  31.321   3.895
24731W        W97156   8.833  33.005  10.451
24732W        W97157  14.128  33.385   4.302
24733W        W97158  38.172  40.836  11.728
24734W        W97159  23.246  29.063   2.063
24735W        W97160   3.742  10.660  13.825
24736W        W97161  23.484  19.161  13.324
24737W        W97162  34.650  25.027  13.330
24738W        W97163  25.155  23.224  12.922
24739W        W97164  35.400  26.669  11.520
24740W        W97165   3.227  14.144  13.751
24741W        W97166  13.607  40.329  13.072
24742W        W97167  19.999  17.838   4.020
24743W        W97168  40.342  22.562   1.395
24744W        W97169  22.343  21.290  11.102
24745W        W97170  12.685  38.380   0.505
24746W        W97171  38.951  41.702   2.211
24747W        W97172  41.460  33.997   2.268
24748W        W97173  21.410  12.566  11.555
24749W        W97174  39.861   4.785   3.275
24750W        W97175  19.081   4.753  11.452
24751W        W97176   7.155  44.289   2.375
24752W        W97177  38.377   7.148  10.918
24753W        W97178  21.695  12.261  12.312
24754W        W97179  27.630  39.883   0.719
24755W        W97180  27.435  36.112  14.884
24756W        W97181  42.862  34.395   1.909
24757W        W97182  17.123  19.473   2.671
24758W        W97183   8.476  35.830  13.282
24759W        W97184   9.640  35.413   3.145
24760W        W97185  33.845  39.856  13.745
24761W        W97186  40.295  18.147  14.985
24762W        W97187  25.005  14.405   1.734
24763W        W97188   4.132  43.490   4.509
24764W        W97189  43.676   5.732  12.045
24765W        W97190  13.528  28.457  12.931
24766W        W97191  28.203  25.187   4.670
24767W        W97192  40.988  17.526  14.824
24768W        W97193  41.995   3.667   3.848
24769W        W97194  19.046  17.687  12.997
24770W        W97195   9.510   4.477  13.551
24771W        W97196   9.461  24.072   0.755
24772W        W97197  34.467  40.105   4.666
24773W        W97198  12.211   9.214  12.057
24774W        W97199  32.197  14.307   1.829
24775W        W97200   7.703   5.947  14.812
24776W        W97201  28.029  26.542  12.360
24777W        W97202   1.469   5.661  11.107
24778W        W97203  19.169  28.218  11.228
24779W        W97204   5.225  38.531   4.589
24780W        W97205  24.256   0.843  11.683
24781W        W97206  42.072  23.662  14.792
24782W        W97207  24.094   3.002   2.080
24783W        W97208  22.145  21.796  13.388
24784W        W97209  35.785  41.573   0.275
24785W        W97210   1.966  34.423  12.885
24786W        W97211  22.827  33.233   3.818
24787W        W97212  17.773  26.077   2.768
24788W        W97213   7.308  13.176   1.893
24789W        W97214  28.580  11.687  12.502
24790W        W97215  22.945  19.748  14.046
24791W        W97216  30.392   4.888  14.822
24792W        W97217   7.310  22.696  13.971
24793W        W97218   1.047   8.304  12.354
24794W        W97219  41.973  29.269   1.820
24795W        W97220  40.590  20.172   5.051
24796W        W97221  26.140   4.416  11.721
24797W        W97222  43.909  30.218  14.267
24798W        W97223  12.430  28.573   3.305
24799W        W97224   8.182   0.807   4.919
24800W        W97225  26.979  39.424   3.750
24801W        W97226  39.298  37.663  10.483
24802W        W97227  23.211  26.760  11.151
24803W        W97228  14.343  31.059  13.752
24804W        W97229  33.847  25.048   1.058
24805W        W97230   2.649  21.894   0.789
24806W        W97231  18.234  22.155   3.581
24807W        W97232  31.113  33.048  12.056
24808W        W97233  32.042  21.178  13.419
24809W        W97234  15.063  20.881   4.181
24810W        W97235  10.158  41.436   3.833
24811W        W97236  37.880  26.711  13.002
24812W        W97237  13.857  25.033   2.339
24813W        W97238  39.650  17.834  12.432
24814W        W97239   4.271  39.465   4.588
24815W        W97240  11.082  20.529   1.377
24816W        W97241  16.333  14.188  14.505
24817W        W97242  12.619  20.466   2.272
24818W        W97243  37.300  27.915   1.661
24819W        W97244  22.197  26.448  10.386
24820W        W97245  31.966   6.845   2.359
24821W        W97246   9.394   7.451   2.704
24822W        W97247   9.320   1.427  13.034
24823W        W97248  42.907  14.403  11.469
24824W        W97249  28.061  40.213  11.402
24825W        W97250  28.940  41.063   0.805
24826W        W97251   3.475   1.670   3.362
24827W        W97252  43.804  33.968   4.064
24828W        W97253   0.168  21.077  13.933
24829W        W97254  29.609  19.725  14.087
24830W        W97255  38.813  34.366  14.396
24831W        W97256  39.067  26.814  13.117
24832W        W97257  14.803  32.206   5.006
24833W        W97258   1.414  27.456  11.547
24834W        W97259  44.300  12.794  10.418
24835W        W97260  21.107   6.268   1.865
24836W        W97261  10.314  25.706  12.073
24837W        W97262  28.020  20.329   3.208
24838W        W97263   8.691  19.097  11.436
24839W        W97264  31.351  36.039   1.383
24840W        W97265   0.175   8.785  14.966
24841W        W97266  36.484   0.974  13.453
24842W        W97267  26.082  41.458  10.567
24843W        W97268  37.106  22.988  14.276
24844W        W97269  42.484   1.375   0.885
24845W        W97270  14.700  10.953   2.284
24846W        W97271  33.594  19.528  12.533
24847W        W97272   2.832  14.728   0.209
24848W        W97273   2.249  32.913  14.058
24849W        W97274  29.895   8.386   2.332
24850W        W97275  26.248  22.844   4.185
24851W        W97276  12.604   2.768   3.112
24852W        W97277  38.376  28.440  13.332
24853W        W97278   9.416  38.463  10.529
24854W        W97279  37.840  17.688   3.924
24855W        W97280   3.685  42.968  11.207
24856W        W97281  30.702   2.045   4.111
24857W        W97282   1.682  33.489  13.084
24858W        W97283   3.410   6.395   3.608
24859W        W97284  44.378  31.849  13.362
24860W        W97285  33.450  24.964  13.960
24861W        W97286  10.706  26.583   1.687
24862W        W97287  12.578  44.873  12.010
24863W        W97288  21.069   4.447  14.529
24864W        W97289  42.322  20.343  14.036
24865W        W97290   4.227  15.865   4.294
24866W        W97291   8.709  30.588  12.498
24867W        W97292  10.881  36.633  11.415
24868W        W97293  37.514  19.141  10.568
24869W        W97294  10.712  21.294   1.245
24870W        W97295   9.787   4.645   1.853
24871W        W97296  26.014  19.837   1.306
24872W        W97297  31.440  38.951  13.341
24873W        W97298  38.529  33.617  12.357
24874W        W97299  31.841  19.546   1.894
24875W        W97300  27.932  14.139  12.571
24876W        W97301  35.490  23.467  13.965
24877W        W97302  14.611   6.203   1.482
24878W        W97303  24.155   0.697   1.804
24879W        W97304  35.328  40.884  11.077
24880W        W97305  25.727   4.257  10.949
24881W        W97306   1.311  28.021   0.796
24882W        W97307  32.210   5.806   0.368
24883W        W97308  32.882   9.460   3.207
24884W        W97309  15.699  34.229  10.524
24885W        W97310  36.344  16.692   4.736
24886W        W97311  39.343  37.987   0.481
24887W        W97312  41.703  38.887  11.178
24888W        W97313   1.812  12.586   1.406
24889W        W97314  37.396  19.546   1.297
24890W        W97315  40.006  24.032   0.367
24891W        W97316  21.013  19.520   9.943
24892W        W97317  42.235  33.498  11.592
24893W        W97318  36.632  40.858  12.905
24894W        W97319   7.794  34.323   1.627
24895W        W97320  30.904   1.844   0.058
24896W        W97321   0.407  30.943   3.724
24897W        W97322   6.704  25.325  10.580
24898W        W97323  28.245  41.788   0.820
24899W        W97324   0.589  33.880   0.741
24900W        W97325  37.289  25.465  14.780
24901W        W97326  42.003  33.236  12.502
24902W        W97327   4.340  35.378   3.820
24903W        W97328  27.042   0.392  14.642
24904W        W97329  11.678  28.661  11.129
24905W        W97330  42.311   5.927  11.016
24906W        W97331  29.407   5.777  14.999
24907W        W97332  28.781  38.119  11.861
24908W        W97333   3.426  38.420  13.803
24909W        W97334  23.220  41.128   3.666
24910W        W97335   3.729  37.738  13.447
24911W        W97336  24.884  43.336  11.219
24912W        W97337   5.272  26.881   1.271
24913W        W97338  44.913  17.575  14.629
24914W        W97339  35.220   7.354   2.766
24915W        W97340  32.016  23.980  14.134
24916W        W97341  20.979  33.029   0.008
24917W        W97342  35.846   0.225   4.575
24918W        W97343  13.903  24.534   3.316
24919W        W97344   3.169  36.746   1.704
24920W        W97345  14.154  36.239   5.193
24921W        W97346   2.454  20.014  10.324
24922W        W97347  10.713   5.061   1.764
24923W        W97348  12.127  44.967   3.300
24924W        W97349  10.637   0.798   3.120
24925W        W97350  17.678  25.650  12.874
24926W        W97351  37.871  16.214   3.589
24927W        W97352   2.335  23.139   4.223
24928W        W97353   3.917  16.683  11.932
24929W        W97354  27.681  22.420   9.701
24930W        W97355  37.162  32.735   1.301
24931W        W97356  25.944  44.774   2.219
24932W        W97357  35.472  35.978   4.588
24933W        W97358  37.052  31.329   4.038
24934W        W97359  26.288  34.056  14.249
24935W        W97360   8.257  39.964  12.300
24936W        W97361  37.616  15.833   1.825
24937W        W97362  38.837  14.982  11.101
24938W        W97363  44.990   5.927  13.495
24939W        W97364   2.826  29.111  14.158
24940W        W97365  10.031  13.322   4.118
24941W        W97366  11.146   0.407   1.046
24942W        W97367  37.745  40.352   1.250
24943W        W97368  29.887  28.537  12.512
24944W        W97369  37.012   2.546  10.604
24945W        W97370  20.026  31.523   2.602
24946W        W97371  13.451  21.772   3.737
24947W        W97372  23.632  23.740  12.545
24948W        W97373  15.062   2.835   0.215
24949W        W97374  41.717  18.035  10.611
24950W        W97375  16.572  42.377   3.199
24951W        W97376  24.166  26.454   0.026
24952W        W97377  40.500  18.779   0.892
24953W        W97378  42.471  10.611   2.866
24954W        W97379  32.702  41.752  13.573
24955W        W97380  34.359  14.653  10.356
24956W        W97381  31.624  17.247   4.504
24957W        W97382  42.507  41.031   2.550
24958W        W97383   7.625   7.165  11.901
24959W        W97384  18.212  35.599   4.354
24960W        W97385   8.453   9.782  13.039
24961W        W97386  36.916   2.029  10.642
24962W        W97387  43.003  43.461  10.598
24963W        W97388   2.404   3.483   3.279
24964W        W97389  24.218  24.783  10.736
24965W        W97390  35.995  28.503   2.412
24966W        W97391   9.667  11.166  11.208
24967W        W97392  37.925  27.944   1.009
24968W        W97393  33.391  10.826  11.136
24969W        W97394   7.438  18.736  13.266
24970W        W97395  36.598  33.558  14.901
24971W        W97396  39.004  18.748   3.648
24972W        W97397  13.213  39.348  11.457
24973W        W97398  30.358  22.631   0.788
24974W        W97399   5.311  32.547   2.694
24975W        W97400  42.316  40.061  14.424
24976W        W97401   4.266   5.783   2.928
24977W        W97402  20.801  41.020  11.667
24978W        W97403  25.015   5.253  10.652
24979W        W97404  40.101   1.751  12.021
24980W        W97405  12.109  19.742   4.074
24981W        W97406  36.223   4.420   2.127
24982W        W97407   2.367  16.488  13.380
24983W        W97408  27.679  40.763  13.426
24984W        W97409  44.302  17.187  12.104
24985W        W97410  42.212  25.067   0.522
24986W        W97411  43.506  32.478   1.938
24987W        W97412  18.077   6.953   1.518
24988W        W97413  26.292  32.174  10.128
24989W        W97414  40.371  26.969   0.352
24990W        W97415  34.039  30.387   1.469
24991W        W97416  19.269  43.008  13.300
24992W        W97417  29.393  13.353   1.640
24993W        W97418  41.009   7.738  13.952
24994W        W97419  27.351  40.436  10.129
24995W        W97420  19.604  18.781   0.394
24996W        W97421  24.213   4.830  11.417
24997W        W97422  38.813   9.434   2.792
24998W        W97423   7.933   4.977  12.582
24999W        W97424  24.775   0.989  10.791
25000W        W97425   1.209  28.144  14.394
25001W        W97426  26.120  21.081  11.928
25002W        W97427  37.438  25.284   1.389
25003W        W97428  26.530  23.184  12.015
25004W        W97429  12.181  11.729  13.477
25005W        W97430  14.099  41.847   0.964
25006W        W97431  14.112  39.725   4.167
25007W        W97432  11.410   0.797   3.319
25008W        W97433  27.801  35.554   3.895
25009W        W97434  32.958  27.968   0.507
25010W        W97435  26.607  16.170  10.910
25011W        W97436  27.083  20.143  14.546
25012W        W97437  32.642  24.061  12.502
25013W        W97438   7.521   3.645  12.114
25014W        W97439  44.762  44.008   2.122
25015W        W97440  14.600  32.353  10.760
25016W        W97441  11.746  17.623   0.482
25017W        W97442  39.994  39.898  12.160
25018W        W97443   3.434  36.814  12.895
25019W        W97444  24.367  41.771   2.711
25020W        W97445  14.096  21.242  13.450
25021W        W97446  32.469  14.544  11.996
25022W        W97447  18.099  27.424   1.205
25023W        W97448  21.505  34.091  12.058
25024W        W97449  41.217  20.321   3.214
25025W        W97450  31.696  34.335  14.812
25026W        W97451  31.686  11.658  13.473
25027W        W97452  44.434  14.246  11.612
25028W        W97453  20.687   0.720   0.280
25029W        W97454   7.820  29.947  13.898
25030W        W97455  44.471   3.652   3.654
25031W        W97456  15.005  15.774  12.496
25032W        W97457  37.610   8.704  11.463
25033W        W97458  10.832  26.125   1.459
25034W        W97459  35.720  21.496   3.658
25035W        W97460  14.227  40.010  13.835
25036W        W97461  39.952  22.537   1.042
25037W        W97462   5.182   4.865   3.152
25038W        W97463  42.089   4.447  13.299
25039W        W97464   9.129  31.540   2.648
25040W        W97465  19.839  27.895  10.522
25041W        W97466  17.982  42.492   1.833
25042W        W97467  26.899  44.395   1.288
25043W        W97468  41.268   5.275  12.010
25044W        W97469  35.136  42.480   0.931
25045W        W97470  29.211   0.941   0.282
25046W        W97471   6.848  23.591  13.802
25047W        W97472  43.376   5.190  13.997
25048W        W97473  41.344   3.477  10.732
25049W        W97474  25.793  41.246  13.903
25050W        W97475  10.614  11.096  11.514
25051W        W97476  24.066   8.721  12.408
25052W        W97477  11.826  43.235  12.779
25053W        W97478  12.461   7.224   1.279
25054W        W97479   1.836  18.043   4.582
25055W        W97480  30.633  34.198   3.629
25056W        W97481  35.069  20.646   4.730
25057W        W97482  41.018  26.071   4.595
25058W        W97483  16.573  40.553   3.473
25059W        W97484  18.596  11.381  13.340
25060W        W97485  28.225  42.294   0.998
25061W        W97486   1.885  43.232  14.872
25062W        W97487   8.085  17.525   4.199
25063W        W97488  25.571  44.885  14.112
25064W        W97489  35.729   3.969  11.158
25065W        W97490  28.373  16.206   3.284
25066W        W97491   5.131   1.536   4.899
25067W        W97492   0.285  21.149  11.513
25068W        W97493  34.905  19.685  12.178
25069W        W97494  17.263  12.670   0.385
25070W        W97495  17.475  42.525  11.619
25071W        W97496  11.671  13.014   3.586
25072W        W97497  19.053  32.470  12.462
25073W        W97498  41.350  39.238   4.332
25074W        W97499  43.452  21.040  11.163
25075W        W97500  32.579  10.926  10.678
25076W        W97501  29.306   0.891  11.662
25077W        W97502  16.089   7.916  11.275
25078W        W97503  24.711  16.674   3.810
25079W        W97504  37.129  30.357   3.293
25080W        W97505   3.406  40.937  14.353
25081W        W97506  28.088  28.547  10.733
25082W        W97507  28.602  28.651   1.191
25083W        W97508   4.599  27.780   4.611
25084W        W97509   9.777  43.155   0.609
25085W        W97510  12.096  32.546  13.558
25086W        W97511  24.460  27.219   2.925
25087W        W97512   9.392  32.997  14.394
25088W        W97513  38.449  28.149  14.721
25089W        W97514  40.506  23.077   1.332
25090W        W97515  27.479  29.838  12.860
25091W        W97516  19.325  44.535   4.555
25092W        W97517   8.279  30.381   2.019
25093W        W97518  27.484  39.504   5.037
25094W        W97519  38.954   3.835  14.787
25095W        W97520  37.458  11.817   1.240
25096W        W97521   2.708   5.641   4.989
25097W        W97522   1.968  23.119   1.387
25098W        W97523  11.729  35.644  12.142
25099W        W97524   7.696  30.117  10.612
25100W        W97525  42.692   1.407   4.480
25101W        W97526  22.041  33.630   3.690
25102W        W97527  42.569  22.077   2.378
25103W        W97528  25.825   2.393   1.007
25104W        W97529  34.560  42.064  13.487
25105W        W97530  21.729  19.244   2.641
25106W        W97531   7.516  11.777  11.261
25107W        W97532  17.490  24.218   1.896
25108W        W97533   6.217  15.485   2.701
25109W        W97534  11.277  11.701   1.917
25110W        W97535  23.770  43.444  14.436
25111W        W97536  19.105  32.925   4.418
25112W        W97537   1.134  40.915   3.532
25113W        W97538  17.135  34.625   3.657
25114W        W97539  39.484   3.817  14.818
25115W        W97540  26.504   1.345   2.214
25116W        W97541  20.345  35.952  12.904
25117W        W97542  10.205   0.035  12.071
25118W        W97543  41.391  16.535  10.684
25119W        W97544  30.880  16.762  10.725
25120W        W97545  28.706  36.860  10.708
25121W        W97546  16.967  16.762   4.395
25122W        W97547  12.252   1.462   4.597
25123W        W97548  32.910  36.900   2.823
25124W        W97549  37.863  30.203  10.640
25125W        W97550  43.677  21.008  13.942
25126W        W97551  41.056  23.428  10.467
25127W        W97552  44.940  34.199   3.562
25128W        W97553  32.128   2.996   3.363
25129W        W97554  21.796  28.332   4.264
25130W        W97555   9.216  36.237  11.928
25131W        W97556  39.460   0.442  14.700
25132W        W97557   5.775  13.356  13.835
25133W        W97558  33.996  19.485  10.972
25134W        W97559  18.213   2.318  14.170
25135W        W97560  15.663  26.470  13.475
25136W        W97561  14.641  18.656  12.436
25137W        W97562  15.259  23.118  13.492
25138W        W97563  28.910  35.114   0.406
25139W        W97564  43.241  43.680  13.809
25140W        W97565  20.113   6.822  10.727
25141W        W97566  21.542   2.514  12.371
25142W        W97567  31.666  14.396  10.746
25143W        W97568   4.090  14.239   2.757
25144W        W97569  25.377  22.474  14.424
25145W        W97570  11.778  10.162   2.399
25146W        W97571  37.502  22.526   0.601
25147W        W97572  43.528  32.381  11.495
25148W        W97573   0.391   3.018  13.199
25149W        W97574  39.299   2.963  11.054
25150W        W97575  22.664   6.641  10.658
25151W        W97576  14.819  38.160   1.389
25152W        W97577  25.728  43.245  13.963
25153W        W97578  21.871  40.027  13.488
25154W        W97579  13.321  44.363   3.104
25155W        W97580   1.833  27.083   2.838
25156W        W97581   1.010  43.993   2.661
25157W        W97582   2.164  40.297  11.996
25158W        W97583   7.706  24.904   4.614
25159W        W97584  21.472  11.868   3.473
25160W        W97585  21.228  36.488  13.753
25161W        W97586  40.752  22.007   4.293
25162W        W97587   5.716  20.195   3.605
25163W        W97588  27.758  26.999  12.518
25164W        W97589  33.169  33.907  12.569
25165W        W97590  20.228  44.692  10.749
25166W        W97591  31.720  39.824   1.984
25167W        W97592  16.197  11.241  11.570
25168W        W97593  44.350  26.155  11.441
25169W        W97594   8.526  19.348   1.253
25170W        W97595  17.288  31.968   1.180
25171W        W97596  43.553  17.111  12.898
25172W        W97597  19.184  24.411  11.600
25173W        W97598  22.263  19.494   3.834
25174W        W97599  35.046   5.416   0.730
25175W        W97600  42.978   7.664  12.096
25176W        W97601  27.379  28.879   0.819
25177W        W97602  13.799  15.753   3.400
25178W        W97603  34.321  11.802   0.851
25179W        W97604  38.950   4.558   5.066
25180W        W97605   0.509  22.930  12.594
25181W        W97606  19.128   0.132  13.005
25182W        W97607  28.520  44.077   0.476
25183W        W97608   0.664  40.518  14.270
25184W        W97609  35.714  39.136  11.542
25185W        W97610   4.318  43.699   3.237
25186W        W97611  37.856  35.197   1.114
25187W        W97612  30.645  29.494   1.411
25188W        W97613  44.883  42.031  12.588
25189W        W97614  15.714  29.396   3.510
25190W        W97615  34.486   9.828   0.505
25191W        W97616  37.616   5.864  14.402
25192W        W97617  13.910  44.956   2.676
25193W        W97618  22.734   5.461  12.950
25194W        W97619  35.430  41.595   4.229
25195W        W97620   9.326  10.131   2.221
25196W        W97621  44.378  44.519   4.570
25197W        W97622  12.080  27.754  13.613
25198W        W97623  33.072  10.684   3.536
25199W        W97624  11.147  39.444   2.419
25200W        W97625  25.977   4.613   1.829
25201W        W97626   2.974  26.867  11.138
25202W        W97627  26.268  13.935   4.039
25203W        W97628   1.645  32.474  12.356
25204W        W97629  35.049   3.598   4.014
25205W        W97630  26.261  35.621  12.657
25206W        W97631  35.857   5.244  11.977
25207W        W97632  39.915  10.651   3.227
25208W        W97633  29.433   0.914   0.766
25209W        W97634  33.444  11.160  14.396
25210W        W97635  33.494  17.074   0.472
25211W        W97636  19.751  16.559  14.396
25212W        W97637  40.072  40.022   4.366
25213W        W97638  24.082  29.476   2.216
25214W        W97639  21.277   8.759  12.107
25215W        W97640  36.109   6.333   1.786
25216W        W97641  35.098   0.149   3.867
25217W        W97642  37.907  14.774   2.880
25218W        W97643  16.556  18.813  11.493
25219W        W97644  33.326  26.952   2.760
25220W        W97645  26.446  10.327   3.942
25221W        W97646  39.907  33.695  14.890
25222W        W97647  19.305  29.512   0.505
25223W        W97648  29.694   3.404   0.066
25224W        W97649  11.695  27.387  11.394
25225W        W97650  18.683   9.137   2.179
25226W        W97651  19.978  16.028   3.727
25227W        W97652   3.057  40.755  12.937
25228W        W97653  39.954   2.465   0.557
25229W        W97654  36.074  43.543   1.981
25230W        W97655  14.714  10.374  13.257
25231W        W97656  16.156   7.609   0.560
25232W        W97657  25.663  37.355  13.863
25233W        W97658  16.580   0.322   0.815
25234W        W97659  30.182  23.777   3.589
25235W        W97660  14.516  39.540   0.873
25236W        W97661  24.154  21.327   5.176
25237W        W97662  20.263   6.305  13.932
25238W        W97663  35.110  18.142   4.266
25239W        W97664  31.163  38.315  10.678
25240W        W97665  40.753   9.779  14.074
25241W        W97666  11.077  33.554   4.049
25242W        W97667  34.905  26.913   0.304
25243W        W97668  18.766  26.282   1.865
25244W        W97669  42.437   0.858   3.890
25245W        W97670  38.499   1.912   2.720
25246W        W97671   6.382   3.245  11.635
25247W        W97672  19.329  37.340  11.177
25248W        W97673  15.664  33.737   3.474
25249W        W97674  11.789  31.996   3.471
25250W        W97675   1.304   2.929   0.868
25251W        W97676  42.338  20.262   1.465
25252W        W97677  16.093  24.549  11.230
25253W        W97678  12.114  16.154   0.734
25254W        W97679  25.729  27.776  14.459
25255W        W97680  36.027  37.499   2.750
25256W        W97681  29.066  18.034   3.138
25257W        W97682  41.120  29.537  12.175
25258W        W97683   4.162  42.512   4.637
25259W        W97684  41.366  14.505  10.751
25260W        W97685  17.862  35.895  10.381
25261W        W97686  38.484  43.582  12.630
25262W        W97687   2.348   5.808   2.676
25263W        W97688   4.650  40.045   1.308
25264W        W97689   6.400  39.832   3.752
25265W        W97690  30.003  27.155  14.033
25266W        W97691   9.289  19.755  10.227
25267W        W97692  42.874  28.868  12.475
25268W        W97693   0.232  27.528  13.537
25269W        W97694  34.418   2.940   3.226
25270W        W97695  29.068  31.210   4.151
25271W        W97696  22.200  25.937  10.295
25272W        W97697  10.406   4.425   3.195
25273W        W97698   5.901  20.682  11.837
25274W        W97699   2.885  42.695  13.474
25275W        W97700   7.322  14.254   1.887
25276W        W97701  17.605  22.253   1.717
25277W        W97702  26.637  37.642   0.452
25278W        W97703   4.909  21.349   0.880
25279W        W97704  19.296   0.847  13.359
25280W        W97705   9.285  36.429  12.382
25281W        W97706  38.809  36.339   1.259
25282W        W97707   2.388  39.256   3.353
25283W        W97708  12.801  34.046   0.965
25284W        W97709  38.892  40.277   3.040
25285W        W97710  26.442  20.785   4.621
25286W        W97711   3.393  37.330  12.966
25287W        W97712  37.970  21.294   1.684
25288W        W97713  28.358  42.095   3.673
25289W        W97714  41.438  39.330   0.696
25290W        W97715  33.641  39.424   1.568
25291W        W97716  17.590  18.655  11.635
25292W        W97717  21.914  37.622   2.227
25293W        W97718  36.797   7.442   4.071
25294W        W97719  34.499  25.865   4.916
25295W        W97720   5.387  38.794   2.312
25296W        W97721   2.004  27.087   0.654
25297W        W97722  39.030  24.760   2.209
25298W        W97723  37.443  23.092   1.391
25299W        W97724   9.999   5.124  12.446
25300W        W97725   3.795  42.940   1.920
25301W        W97726   2.519  16.255  11.574
25302W        W97727  41.711   1.719   0.990
25303W        W97728  39.003  21.238   1.788
25304W        W97729  28.387  10.811  13.283
25305W        W97730   4.085  23.470   0.660
25306W        W97731  24.772  34.342   0.673
25307W        W97732   6.393  23.653  13.494
25308W        W97733  39.437  21.613  14.730
25309W        W97734  17.613   9.836  14.592
25310W        W97735  38.793  37.620  10.588
25311W        W97736  33.284  28.159  12.713
25312W        W97737   2.800  29.655   1.696
25313W        W97738   1.333  32.377   3.696
25314W        W97739  34.457  43.398  14.883
25315W        W97740   9.431  38.572  12.475
25316W        W97741   6.289  33.088   0.873
25317W        W97742  30.457  18.756   3.285
25318W        W97743  12.195   9.195   3.554
25319W        W97744   3.584  38.359  14.302
25320W        W97745  10.578  17.361  13.013
25321W        W97746  11.115  28.998  14.733
25322W        W97747  44.753  14.639  12.592
25323W        W97748   5.778  25.090  13.935
25324W        W97749  13.675  10.489  13.977
25325W        W97750  37.529  44.853   3.599
25326W        W97751  21.207  42.049   1.373
25327W        W97752  22.556  22.508  12.477
25328W        W97753  30.575  28.158  10.999
25329W        W97754  19.528  33.893   3.485
25330W        W97755  18.076   0.316   2.448
25331W        W97756  40.409  20.596   1.431
25332W        W97757  38.022  19.808  14.846
25333W        W97758  38.576  33.070   2.127
25334W        W97759  32.150  18.473   2.751
25335W        W97760  30.402  20.370   2.264
25336W        W97761  24.591  27.141  11.655
25337W        W97762  38.264  41.025   0.848
25338W        W97763  31.062  36.153   0.886
25339W        W97764  31.695  25.143   1.822
25340W        W97765   9.642  27.532   4.046
25341W        W97766  29.876   0.187   4.422
25342W        W97767   4.939   2.822  11.728
25343W        W97768   1.329  15.628  14.948
25344W        W97769   3.344   4.980  11.999
25345W        W97770  28.508  44.183  14.943
25346W        W97771  11.828  44.825   0.527
25347W        W97772  36.976  17.286  14.891
25348W        W97773   8.286  33.205   4.022
25349W        W97774   1.189  16.154  10.724
25350W        W97775   1.787  11.626  13.046
25351W        W97776  18.252  31.699   1.473
25352W        W97777  22.253  15.572   1.303
25353W        W97778  37.439   9.223   5.002
25354W        W97779  44.257  17.593   1.265
25355W        W97780  27.402  10.836  12.523
25356W        W97781  41.956  17.077   3.019
25357W        W97782  20.179  11.918  12.512
25358W        W97783   4.246  27.890  12.919
25359W        W97784  19.470  21.238  11.856
25360W        W97785  21.019  38.276  14.679
25361W        W97786  29.253  40.921  14.300
25362W        W97787  17.546  43.358  13.532
25363W        W97788  33.172  36.599   1.015
25364W        W97789  36.861  17.685  11.720
25365W        W97790  14.035   1.735  10.723
25366W        W97791  30.087   3.464   2.385
25367W        W97792  24.462  29.076   0.088
25368W        W97793  29.962  11.125   2.168
25369W        W97794   8.641  21.107   2.781
25370W        W97795   0.780   4.425  13.068
25371W        W97796  30.613  44.316  11.113
25372W        W97797  12.212   7.662  11.910
25373W        W97798   3.230  12.427   4.183
25374W        W97799  26.482  22.736  11.709
25375W        W97800   1.370  16.074  14.400
25376W        W97801  33.327  35.337   1.354
25377W        W97802   5.961  18.663   0.712
25378W        W97803  29.154   4.446   1.289
25379W        W97804  26.418  31.906  13.882
25380W        W97805  39.883  29.445   4.239
25381W        W97806  24.048  26.123  12.550
25382W        W97807  41.449  37.479  10.706
25383W        W97808  18.791  11.354  11.216
25384W        W97809  27.618  33.308  14.489
25385W        W97810   4.737  38.394  10.499
25386W        W97811  41.590   2.771   3.762
25387W        W97812  16.813  19.218   4.188
25388W        W97813  20.374   5.110  11.346
25389W        W97814   9.437  32.922   2.291
25390W        W97815  43.785  28.105   4.492
25391W        W97816  28.624  20.211   1.731
25392W        W97817  35.074   6.395   1.833
25393W        W97818  31.618   7.244   2.376
25394W        W97819   9.576   9.646   4.450
25395W        W97820   4.961  15.329   1.812
25396W        W97821  32.151  39.666   3.747
25397W        W97822  36.869  38.595  13.417
25398W        W97823  31.302   8.902  12.077
25399W        W97824  19.238  38.358   3.111
25400W        W97825  24.083  40.908   2.325
25401W        W97826  26.527  33.670   2.377
25402W        W97827  19.439  16.653  14.002
25403W        W97828  12.785   2.800  11.620
25404W        W97829  10.639   5.658   0.289
25405W        W97830   1.467  19.824   4.170
25406W        W97831  17.793   9.331  10.368
25407W        W97832  32.472  18.315   0.255
25408W        W97833  13.466  19.190  13.634
25409W        W97834  36.897   9.877  13.952
25410W        W97835   4.533  33.378  10.408
25411W        W97836   8.716  10.683  12.226
25412W        W97837   8.377  31.360  13.026
25413W        W97838   7.958  30.411   4.250
25414W        W97839   3.741   4.298  13.341
25415W        W97840   5.296  30.154  14.276
25416W        W97841  17.126   3.461  11.374
25417W        W97842   6.483   3.145  14.211
25418W        W97843  41.461  43.039   2.244
25419W        W97844  11.185   6.872   1.220
25420W        W97845  34.637  26.849  14.066
25421W        W97846   7.210   4.879   3.393
25422W        W97847   2.197  15.713  10.637
25423W        W97848  13.000   1.248   0.946
25424W        W97849  26.311  13.771  11.995
25425W        W97850   7.283  32.656  13.520
25426W        W97851  35.005  17.354  12.154
25427W        W97852   9.183  10.658   0.782
25428W        W97853  23.336  35.982  10.789
25429W        W97854   6.993   5.949  10.694
25430W        W97855  21.048  17.841   2.273
25431W        W97856  35.945   8.846   5.810
25432W        W97857  24.673  26.060   0.803
25433W        W97858  42.303  15.523  11.612
25434W        W97859  34.051  44.309  14.275
25435W        W97860   6.188  39.033  14.348
25436W        W97861  38.393  20.071   2.125
25437W        W97862  18.398  35.384  13.449
25438W        W97863  20.736  40.196  14.584
25439W        W97864  28.595  13.249  14.840
25440W        W97865  44.842   8.484   3.616
25441W        W97866  33.142   0.478  13.513
25442W        W97867  27.032   1.800  14.081
25443W        W97868   3.289   4.639   1.966
25444W        W97869  37.384  37.350   1.998
25445W        W97870  39.993  15.761   4.119
25446W        W97871  43.391   9.907   0.825
25447W        W97872  10.970  35.111  11.065
25448W        W97873  25.504  44.814  12.016
25449W        W97874   4.902  17.310  12.423
25450W        W97875  36.935   2.245  13.547
25451W        W97876  13.091  41.822  14.464
25452W        W97877   4.791  15.618  11.099
25453W        W97878  29.999  15.709   4.100
25454W        W97879  34.595  42.659  12.514
25455W        W97880  40.173  25.207   2.747
25456W        W97881  28.086  44.725  10.287
25457W        W97882  39.593  29.673  14.977
25458W        W97883   7.074  16.794   0.350
25459W        W97884  28.834  41.872  11.332
25460W        W97885   7.945  11.116   4.018
25461W        W97886  22.847  31.152  13.878
25462W        W97887  32.445  30.234  13.877
25463W        W97888  29.515  17.711   2.738
25464W        W97889  38.800  26.749   2.253
25465W        W97890  15.439   7.765  11.136
25466W        W97891   2.740  43.493   0.921
25467W        W97892   8.868  19.829  12.496
25468W        W97893  12.157   6.677   0.947
25469W        W97894  16.399  33.051  12.039
25470W        W97895  20.595  17.883  10.514
25471W        W97896   0.312  23.932   2.243
25472W        W97897   2.030   7.640   3.503
25473W        W97898  21.806  37.601   0.258
25474W        W97899  32.115  40.245  11.196
25475W        W97900  25.095  22.250  11.966
25476W        W97901  24.304  16.525   4.114
25477W        W97902  38.349  22.577  14.543
25478W        W97903  29.691  16.761   2.532
25479W        W97904  36.107  10.227  12.857
25480W        W97905  44.987  14.427  10.813
25481W        W97906   2.256  29.938  14.419
25482W        W97907  37.551  38.034   4.107
25483W        W97908  43.338  13.219  13.829
25484W        W97909  35.359  39.903  13.087
25485W        W97910  39.384   7.696   4.104
25486W        W97911   9.765   9.199   4.365
25487W        W97912  20.247  17.090  13.882
25488W        W97913  12.758  25.440  10.829
25489W        W97914  38.237   4.705  14.332
25490W        W97915   3.490  40.194  10.172
25491W        W97916   4.191  30.274   1.483
25492W        W97917   6.337  19.653   1.781
25493W        W97918  22.519  34.166   0.965
25494W        W97919  15.350  39.775  14.677
25495W        W97920  27.105  11.163   3.640
25496W        W97921  22.192  39.802  11.804
25497W        W97922   2.330  19.236  12.810
25498W        W97923  19.741  21.507   0.059
25499W        W97924   2.841  33.491  11.949
25500W        W97925  13.451   1.013  12.596
25501W        W97926  25.826  22.223  10.821
25502W        W97927  30.694  36.687  11.563
25503W        W97928  18.671  15.919   1.761
25504W        W97929  37.782  35.332   0.309
25505W        W97930  35.691  17.776   5.007
25506W        W97931   2.066  33.553   0.778
25507W        W97932   7.901  11.615   4.038
25508W        W97933  30.534  37.042   3.849
25509W        W97934  34.838  20.181   0.890
25510W        W97935   9.314  24.626   0.073
25511W        W97936  23.207  36.324   4.935
25512W        W97937   6.398   6.998  14.964
25513W        W97938  20.984   7.222  14.751
25514W        W97939  31.838  38.571   3.847
25515W        W97940  22.416  27.018   0.965
25516W        W97941  37.935  25.733   2.417
25517W        W97942   7.710   6.487  13.584
25518W        W97943  23.724  40.461  14.179
25519W        W97944  34.383  11.603  14.991
25520W        W97945  36.403  42.108  11.926
25521W        W97946  41.354   7.725   2.307
25522W        W97947  13.263  19.590   1.683
25523W        W97948  31.707  43.316   1.308
25524W        W97949  23.447   6.671  11.179
25525W        W97950  30.478   8.571   3.089
25526W        W97951  13.104  37.099   0.848
25527W        W97952  22.663  32.860   3.473
25528W        W97953  31.407  14.071   4.227
25529W        W97954   4.702  17.758   2.709
25530W        W97955  14.718  24.616   9.659
25531W        W97956  18.692  20.999  13.765
25532W        W97957   6.092  12.091   2.210
25533W        W97958  40.972  35.257  11.070
25534W        W97959  29.892   9.920  11.662
25535W        W97960  10.781  35.524  10.715
25536W        W97961  22.232  12.541   1.872
25537W        W97962  40.412  24.960   1.389
25538W        W97963  16.601  31.593  10.548
25539W        W97964  41.848  40.740  12.517
25540W        W97965  37.871   7.150  11.029
25541W        W97966   2.481  32.567   2.360
25542W        W97967  28.658   6.203   4.794
25543W        W97968  26.545  12.287   4.226
25544W        W97969  44.169  13.236  12.189
25545W        W97970  16.192  22.266  10.706
25546W        W97971  44.875  16.157   1.962
25547W        W97972  34.882  17.559   4.247
25548W        W97973  38.787  16.271   0.393
25549W        W97974  31.163  23.024  10.092
25550W        W97975  36.540  27.896  14.558
25551W        W97976  13.592  40.765   0.935
25552W        W97977  22.822  12.084  14.178
25553W        W97978   4.752  42.998  13.052
25554W        W97979  41.831  19.273  14.915
25555W        W97980  27.381   1.900  11.169
25556W        W97981   9.141  10.621   2.165
25557W        W97982  27.392  20.216   0.973
25558W        W97983  40.984  33.375  11.918
25559W        W97984  20.031  27.542  14.891
25560W        W97985  41.767  15.129  11.958
25561W        W97986  23.279   3.854  13.053
25562W        W97987  33.635  23.754  10.572
25563W        W97988   7.777  12.608  13.292
25564W        W97989  10.171  30.824  11.175
25565W        W97990  39.076  23.062  13.079
25566W        W97991  35.528  16.232  13.845
25567W        W97992  19.643  39.304  14.067
25568W        W97993  22.423  35.567  11.917
25569W        W97994  16.559  36.879   2.292
25570W        W97995   6.169  20.088  10.245
25571W        W97996  20.743  22.727   1.814
25572W        W97997  39.329  29.214   1.270
25573W        W97998   5.253  43.856  13.411
25574W        W97999  35.420   0.230  14.306
25575W        W98000  24.404  22.211   2.007
25576W        W98001   5.842   3.762   2.706
25577W        W98002   1.748  41.524   1.884
25578W        W98003  20.831  40.458  12.376
25579W        W98004  35.276  36.419  13.607
25580W        W98005  24.054  22.100  11.949
25581W        W98006  19.369  22.786   1.278
25582W        W98007   9.780  23.782  11.214
25583W        W98008  12.681  26.673   3.781
25584W        W98009   0.658  16.025  13.801
25585W        W98010   5.900   0.831   3.861
25586W        W98011  24.388  41.144  11.153
25587W        W98012   9.313  22.323  12.940
25588W        W98013  31.674  30.104  12.487
25589W        W98014  24.928  38.118   4.308
25590W        W98015   0.592  39.886  11.604
25591W        W98016  15.652  19.816  12.932
25592W        W98017  20.617  14.527   3.243
25593W        W98018  31.231  10.034   3.808
25594W        W98019  13.613  22.443  10.976
25595W        W98020  15.529  11.798  14.918
25596W        W98021  21.054  23.032   2.727
25597W        W98022   7.077   1.278  13.520
25598W        W98023  15.701  29.575  14.346
25599W        W98024   7.709  14.627   1.218
25600W        W98025  12.335  27.772   1.379
25601W        W98026  26.569  28.656  10.372
25602W        W98027  44.860  41.973   3.143
25603W        W98028   7.192  15.135   2.036
25604W        W98029  24.689  25.053  14.738
25605W        W98030  43.702  25.943   0.799
25606W        W98031  10.181  42.820   3.647
25607W        W98032   8.803  33.683   3.396
25608W        W98033  22.065  32.078   2.413
25609W        W98034   8.656   6.906   4.122
25610W        W98035  14.274  10.115  13.382
25611W        W98036   2.733  21.545   4.005
25612W        W98037  15.714  15.075   3.960
25613W        W98038   7.137  37.002   1.577
25614W        W98039   9.901   6.764   2.773
25615W        W98040  38.265  34.562  12.888
25616W        W98041  43.044  43.801   3.286
25617W        W98042  24.494  31.142  10.668
25618W        W98043   0.031  15.267  11.210
25619W        W98044  21.138  44.138   4.795
25620W        W98045  40.530  11.559   0.953
25621W        W98046   3.197  25.659  13.886
25622W        W98047  42.722  40.534   2.653
25623W        W98048  43.426  33.546  10.750
25624W        W98049  40.300  34.607   0.746
25625W        W98050  30.087  23.606   5.536
25626W        W98051  21.183  19.504   0.630
25627W        W98052  10.415  35.452  12.453
25628W        W98053  38.481   8.728   4.218
25629W        W98054  18.764  33.281   4.592
25630W        W98055  30.093  19.856  10.861
25631W        W98056  23.353  30.572  13.203
25632W        W98057  24.452  42.752   4.505
25633W        W98058  35.126  16.599   4.159
25634W        W98059  11.884  37.841   2.586
25635W        W98060  29.718  35.081   4.146
25636W        W98061  16.065   9.780   4.217
25637W        W98062  22.619  20.818  11.079
25638W        W98063  19.173  10.238   0.492
25639W        W98064   9.325  18.169  12.945
25640W        W98065   2.282  22.582   0.689
25641W        W98066  11.774  11.415  11.748
25642W        W98067  39.850  38.814   3.204
25643W        W98068  43.505  11.333   0.663
25644W        W98069  31.322  18.444  10.871
25645W        W98070  19.105  12.809   4.764
25646W        W98071   5.713   7.419  14.329
25647W        W98072  21.370   1.251  11.235
25648W        W98073  15.654  29.713   4.002
25649W        W98074  37.648  32.215  12.085
25650W        W98075   1.943  21.313   3.213
25651W        W98076  41.777  43.366  12.004
25652W        W98077  25.706  37.028  10.745
25653W        W98078  19.280   7.333   4.175
25654W        W98079  40.366  11.373   1.440
25655W        W98080   9.290  26.038  11.979
25656W        W98081  33.030  16.309  11.694
25657W        W98082  27.221   6.752   3.644
25658W        W98083  41.946  37.276  10.650
25659W        W98084  39.903  20.998   0.792
25660W        W98085   9.939  34.340  12.492
25661W        W98086  15.797  23.270  11.551
25662W        W98087  27.023  34.898  11.075
25663W        W98088  14.727  10.307   0.344
25664W        W98089  31.682   7.194  11.481
25665W        W98090  10.406  37.928   3.394
25666W        W98091  21.272  25.531  13.761
25667W        W98092  39.825  33.664   3.643
25668W        W98093  21.649  38.232   2.298
25669W        W98094  16.814  41.002  13.777
25670W        W98095  34.440  25.397  10.899
25671W        W98096  23.555   1.784   1.198
25672W        W98097  29.404  12.356   2.384
25673W        W98098   6.500  35.349  11.485
25674W        W98099  17.887  34.893  13.925
25675W        W98100  35.994  24.233  13.880
25676W        W98101   8.613  32.123   1.515
25677W        W98102  38.287  42.117  13.124
25678W        W98103   6.746   8.887   1.812
25679W        W98104  11.158  36.210   3.376
25680W        W98105  25.529  20.083  14.337
25681W        W98106   0.383  37.957  10.786
25682W        W98107   5.793  31.516   3.196
25683W        W98108  26.378   6.189   3.794
25684W        W98109  34.538  43.453  11.692
25685W        W98110   4.501   1.777   4.353
25686W        W98111   6.357  12.017   1.315
25687W        W98112   1.409  36.921  14.803
25688W        W98113   0.813  16.136   0.432
25689W        W98114  44.281   4.449  10.660
25690W        W98115  22.238  33.847  10.510
25691W        W98116  31.018  15.470   3.173
25692W        W98117   6.380   4.893  11.868
25693W        W98118  36.930  25.850  14.751
25694W        W98119   2.006  21.185  13.955
25695W        W98120  38.552  41.008  12.036
25696W        W98121  12.406  28.878  13.889
25697W        W98122  12.879  37.388  10.634
25698W        W98123  14.202  32.981  13.958
25699W        W98124   2.889  13.795  14.779
25700W        W98125  26.084  44.489  12.641
25701W        W98126   0.724  12.208  13.455
25702W        W98127  25.181  20.738  10.700
25703W        W98128  19.662  34.808  14.014
25704W        W98129  35.776  14.684  13.832
25705W        W98130  29.667  19.796  11.136
25706W        W98131  17.025  35.216  11.150
25707W        W98132  44.420  28.090  14.959
25708W        W98133   3.851  37.910   1.870
25709W        W98134   0.947   0.398   4.574
25710W        W98135  22.109   0.363   2.811
25711W        W98136  26.246  39.776  10.663
25712W        W98137  22.778  34.600   0.796
25713W        W98138  13.310  11.849  14.789
25714W        W98139   9.163  35.127  12.886
25715W        W98140  21.644   6.127   0.768
25716W        W98141  10.150  42.350  10.695
25717W        W98142  21.142  33.627   1.737
25718W        W98143   0.512  23.994   1.756
25719W        W98144  24.840  12.422  12.717
25720W        W98145  44.384  30.202   0.812
25721W        W98146  43.211   8.693  11.217
25722W        W98147   8.273  21.705   0.974
25723W        W98148  27.061  42.553   0.532
25724W        W98149  44.499  14.192  12.526
25725W        W98150   5.937  43.981  13.982
25726W        W98151  25.136  41.995   4.467
25727W        W98152  43.869   0.843   1.373
25728W        W98153  35.107   1.797   9.856
25729W        W98154  33.628  31.602   4.215
25730W        W98155  37.529  13.795   4.376
25731W        W98156  26.060   3.041   4.260
25732W        W98157  31.511  23.338  11.002
25733W        W98158  20.130   1.896   3.973
25734W        W98159  24.537  14.765   4.007
25735W        W98160   4.931  37.996  12.585
25736W        W98161  33.552  41.826   2.757
25737W        W98162  21.710  40.969   0.723
25738W        W98163  37.332  34.066  14.858
25739W        W98164  39.668  31.444   0.429
25740W        W98165  42.735  26.906  14.024
25741W        W98166   7.520   9.585   2.702
25742W        W98167  33.306   6.234   1.834
25743W        W98168  10.874  35.543  14.928
25744W        W98169   0.874  16.306  12.283
25745W        W98170  31.818  22.512   2.569
25746W        W98171  16.409   2.311  14.986
25747W        W98172   7.289  21.659  13.889
25748W        W98173   2.816  28.756  11.492
25749W        W98174  27.902   8.752   2.274
25750W        W98175  27.140  30.612   2.469
25751W        W98176  38.515  11.258   4.663
25752W        W98177   9.960  27.439  11.751
25753W        W98178   4.741  29.533   2.130
25754W        W98179  13.623  30.403  12.923
25755W        W98180  31.674  25.473   1.322
25756W        W98181  15.805   3.729  11.431
25757W        W98182  27.654  14.146  12.132
25758W        W98183  29.442  32.708  11.937
25759W        W98184  42.390  38.088  12.003
25760W        W98185  44.449  39.837   1.965
25761W        W98186  38.294   8.608  12.862
25762W        W98187  42.261  37.563  14.937
25763W        W98188  15.024  28.099   2.178
25764W        W98189  16.083  27.479  13.315
25765W        W98190  27.959   3.472   4.676
25766W        W98191  41.881  40.906  13.000
25767W        W98192  44.952   9.662  13.764
25768W        W98193  39.973   9.101   1.351
25769W        W98194   0.744  19.697   1.256
25770W        W98195  12.404  13.068   2.239
25771W        W98196  33.636   2.203   0.792
25772W        W98197  13.710  30.938   3.640
25773W        W98198  40.112  10.772  13.085
25774W        W98199  16.055  15.091  14.068
25775W        W98200   7.641   7.669   0.307
25776W        W98201  12.322   3.933  10.573
25777W        W98202  31.454  13.164  10.486
25778W        W98203   7.479  28.258  10.255
25779W        W98204   8.296  34.126  14.867
25780W        W98205  35.890  41.055   0.248
25781W        W98206  41.756   4.638  12.973
25782W        W98207  10.215  44.665   4.251
25783W        W98208  10.775  17.289  14.116
25784W        W98209  27.231  32.672   2.914
25785W        W98210   5.324   5.023  14.699
25786W        W98211  29.208  42.568  13.381
25787W        W98212   4.864  22.072   1.485
25788W        W98213   9.147  23.495  13.757
25789W        W98214  25.669  42.075   2.294
25790W        W98215   2.048  30.748  13.046
25791W        W98216  41.558  21.059  12.932
25792W        W98217  27.215  30.910   0.770
25793W        W98218  35.615  42.476  13.460
25794W        W98219  39.038  33.875   0.768
25795W        W98220  28.185   2.421  11.244
25796W        W98221  34.386  38.565  11.725
25797W        W98222  12.285  27.967  10.763
25798W        W98223   8.263   9.748   2.789
25799W        W98224   3.855  30.166   2.404
25800W        W98225  21.090  25.951  11.034
25801W        W98226   5.637  13.821   4.203
25802W        W98227  41.545  12.769   4.067
25803W        W98228  28.976   8.656  10.666
25804W        W98229  38.994  14.020   3.093
25805W        W98230  11.790  24.594  14.785
25806W        W98231   3.942  24.888   4.143
25807W        W98232  24.482  14.341   1.751
25808W        W98233  12.726  19.620   3.722
25809W        W98234  11.343  25.937   3.749
25810W        W98235   4.182   8.871   4.602
25811W        W98236  30.058   4.570   4.256
25812W        W98237  11.243  30.185  11.567
25813W        W98238   9.399  31.397   4.241
25814W        W98239  14.744  30.148  11.557
25815W        W98240  44.647  36.323  14.739
25816W        W98241  25.575   5.454   1.847
25817W        W98242  15.269  12.208  10.800
25818W        W98243  26.445   4.513  12.181
25819W        W98244  12.523   7.974  14.814
25820W        W98245  23.519  28.708  13.852
25821W        W98246   1.246  31.161   3.217
25822W        W98247  37.968  39.098  13.394
25823W        W98248  27.547  17.750  10.636
25824W        W98249  38.947  34.096  14.814
25825W        W98250  38.779  18.223   0.232
25826W        W98251  39.907  29.138   4.823
25827W        W98252  38.004  35.283  14.830
25828W        W98253  44.874  19.570  12.579
25829W        W98254  13.157  19.843  10.840
25830W        W98255   9.307  30.107   1.394
25831W        W98256  37.693   9.452   3.805
25832W        W98257  31.091   1.894   2.481
25833W        W98258  11.774  38.982  10.074
25834W        W98259  36.880   9.195  11.635
25835W        W98260  32.703  35.299   3.169
25836W        W98261  21.263  43.067   0.299
25837W        W98262  34.146  44.998   2.028
25838W        W98263  17.479  13.529  12.381
25839W        W98264  42.227   6.920  12.462
25840W        W98265  15.279  20.288  14.415
25841W        W98266  28.694   0.260   3.890
25842W        W98267   7.233  31.041   2.709
25843W        W98268  43.231  29.536   2.929
25844W        W98269   2.531  32.080  14.370
25845W        W98270  34.466  34.472  13.495
25846W        W98271  16.669  44.218   2.441
25847W        W98272  19.164  31.581   1.658
25848W        W98273  17.855  26.613   4.231
25849W        W98274  12.567  17.028   2.671
25850W        W98275  17.653  30.578   0.227
25851W        W98276  43.345  20.031  13.692
25852W        W98277  30.952   7.860   1.678
25853W        W98278  44.338  37.231  14.418
25854W        W98279  42.199  26.625  12.514
25855W        W98280  24.469  11.682  14.993
25856W        W98281  14.002  22.712  13.423
25857W        W98282   3.704  39.984  14.387
25858W        W98283   8.673   6.676  13.876
25859W        W98284   3.006  33.512   2.388
25860W        W98285  40.359   6.163  14.781
25861W        W98286  17.780  33.174   4.382
25862W        W98287  16.793  37.454  11.064
25863W        W98288  33.494  11.641  11.140
25864W        W98289  11.616  14.678  11.665
25865W        W98290  28.560   8.385  11.710
25866W        W98291  28.692   4.071  12.455
25867W        W98292  10.100  23.572   0.040
25868W        W98293  29.525  10.334  11.656
25869W        W98294   6.772   1.340   2.241
25870W        W98295   9.277  35.508  13.937
25871W        W98296   5.808   9.892   3.329
25872W        W98297  16.672  13.097   2.886
25873W        W98298  40.115  18.256   3.342
25874W        W98299  28.411  16.938   2.330
25875W        W98300  44.788  12.592   0.873
25876W        W98301  34.374   3.547   0.439
25877W        W98302  12.078  40.316   4.575
25878W        W98303  17.592  29.891  12.439
25879W        W98304   6.256  44.549  14.865
25880W        W98305  13.541  23.711  12.606
25881W        W98306   9.349  16.158   0.369
25882W        W98307  17.184  14.807   2.878
25883W        W98308  38.421  31.500  11.165
25884W        W98309  27.039  15.665  12.489
25885W        W98310  12.625   5.672   3.381
25886W        W98311  23.306  32.196   3.302
25887W        W98312  33.488   9.331  10.958
25888W        W98313  10.277  12.248   3.978
25889W        W98314  12.057  27.638   4.881
25890W        W98315   8.427  27.589  13.260
25891W        W98316   1.913   7.282  13.357
25892W        W98317  21.615  18.740   0.872
25893W        W98318  11.412  26.912   2.199
25894W        W98319  11.790  44.154  11.020
25895W        W98320   2.068  12.661   0.959
25896W        W98321   6.617  34.500   2.245
25897W        W98322  14.722  13.858  14.436
25898W        W98323  23.947  44.448  14.262
25899W        W98324  28.323  33.371  10.177
25900W        W98325  35.775   6.128  13.460
25901W        W98326   8.714  15.550   3.860
25902W        W98327  13.301  24.797   2.750
25903W        W98328   3.283  10.757   0.250
25904W        W98329  20.065  16.589  11.997
25905W        W98330  29.751  10.138   4.633
25906W        W98331   4.290   4.252   3.022
25907W        W98332   8.618  11.125   0.051
25908W        W98333  34.114  33.072   1.891
25909W        W98334  20.624  24.539   2.344
25910W        W98335  41.664  16.294  11.516
25911W        W98336  35.655  44.019  10.704
25912W        W98337  42.275  11.589  14.961
25913W        W98338  12.065  43.095   3.282
25914W        W98339  42.900  16.812   9.915
25915W        W98340  43.938  36.868  10.352
25916W        W98341  17.272  10.297  13.117
25917W        W98342  22.735  14.070  11.280
25918W        W98343  35.102  20.880   9.977
25919W        W98344  40.298  14.551   3.725
25920W        W98345  29.947   5.444  13.578
25921W        W98346   4.331  36.412   2.968
25922W        W98347  34.476  27.459   0.496
25923W        W98348  41.448  24.154   4.574
25924W        W98349  18.019  20.047   4.598
25925W        W98350  14.329  42.085  13.341
25926W        W98351  40.216  23.553   4.232
25927W        W98352  26.134  29.000  12.558
25928W        W98353  13.888  14.099  14.282
25929W        W98354  39.049  18.640   0.349
25930W        W98355  28.967   8.260  13.282
25931W        W98356  14.306   0.689   0.434
25932W        W98357  24.264  25.594   4.192
25933W        W98358  39.195  11.596   4.508
25934W        W98359  28.619  22.152  11.640
25935W        W98360  31.156  17.420  10.736
25936W        W98361  27.730  10.106   4.674
25937W        W98362  32.306  23.790  11.525
25938W        W98363   7.825  28.614   1.359
25939W        W98364  12.939  21.720  11.228
25940W        W98365  21.005  35.178   1.718
25941W        W98366  40.010  17.254  12.621
25942W        W98367  38.166  33.048  12.019
25943W        W98368  29.524  25.725  13.842
25944W        W98369  21.020  42.792  12.319
25945W        W98370  43.011  38.057   1.243
25946W        W98371  24.573  35.809   3.586
25947W        W98372  40.833  10.512  12.549
25948W        W98373   6.383  25.449   0.223
25949W        W98374   6.359  37.839   4.494
25950W        W98375  32.555   3.963  12.345
25951W        W98376   6.376  34.029  11.005
25952W        W98377   6.659   7.341  14.238
25953W        W98378  30.344  25.226  13.457
25954W        W98379  31.531  33.191  14.432
25955W        W98380   0.401   0.555   1.783
25956W        W98381  29.634   1.511  14.026
25957W        W98382  44.510  10.637  13.219
25958W        W98383   8.423  35.467  12.485
25959W        W98384  41.018   9.186  14.787
25960W        W98385  20.779  14.570  10.601
25961W        W98386   7.881  19.143   3.427
25962W        W98387   4.635  35.864  12.160
25963W        W98388  38.936  28.704  11.969
25964W        W98389  16.200  35.366  11.768
25965W        W98390  16.403  14.791  11.655
25966W        W98391  41.465  15.595   0.871
25967W        W98392  15.608  19.980   1.419
25968W        W98393  11.719  30.984  13.826
25969W        W98394  35.575  40.123   4.057
25970W        W98395  21.806   3.960  13.817
25971W        W98396   1.981   1.182  13.073
25972W        W98397  25.038   5.663   1.651
25973W        W98398  34.373  19.303   1.336
25974W        W98399  43.330  19.651  13.355
25975W        W98400   8.018  24.921   0.363
25976W        W98401  11.533  30.440   5.046
25977W        W98402  41.763   4.217   0.724
25978W        W98403  33.003  27.172  11.188
25979W        W98404   4.760  44.318  12.890
25980W        W98405  30.628  32.674   2.917
25981W        W98406  11.486   2.248  11.490
25982W        W98407  26.653  10.836  14.867
25983W        W98408  38.717   8.293   1.437
25984W        W98409   9.794  15.344   1.452
25985W        W98410  37.097   3.098  13.708
25986W        W98411   3.233  20.231  13.170
25987W        W98412  21.245   8.667  14.284
25988W        W98413  28.638  36.858   2.629
25989W        W98414  41.624  39.940   2.920
25990W        W98415  41.236  22.363   0.485
25991W        W98416  10.214   8.026  11.617
25992W        W98417  17.106  13.963  10.681
25993W        W98418  42.594  11.545   3.033
25994W        W98419  36.037   0.423  12.517
25995W        W98420  15.728  17.134   1.355
25996W        W98421  10.904  32.067   0.884
25997W        W98422  28.660   3.909   5.009
25998W        W98423  23.633  36.005  12.784
25999W        W98424  42.817  18.002   3.876
26000W        W98425  30.616  35.307  12.043
26001W        W98426  12.333   4.444  10.615
26002W        W98427  27.503  15.545  11.705
26003W        W98428  11.425  40.547  11.109
26004W        W98429  41.425  39.844   2.455
26005W        W98430   1.382  32.035  12.512
26006W        W98431  13.550  22.770  14.194
26007W        W98432   3.442   7.348   0.810
26008W        W98433  21.577  38.060   0.116
26009W        W98434  20.025  12.205  12.934
26010W        W98435  40.790  12.339  11.560
26011W        W98436  13.377  17.075   4.954
26012W        W98437   7.511  16.489  11.700
26013W        W98438  34.541  23.705   0.419
26014W        W98439  29.797  23.683   5.071
26015W        W98440   4.512   7.870   2.364
26016W        W98441   4.997   1.285   4.146
26017W        W98442  31.475  42.776   1.945
26018W        W98443  11.190   1.028  11.047
26019W        W98444  25.154  33.095   3.237
26020W        W98445  14.215  24.509  11.958
26021W        W98446  19.333  38.636   2.703
26022W        W98447   6.316  39.597   3.271
26023W        W98448  34.027   8.683   3.005
26024W        W98449  15.221   0.219   0.366
26025W        W98450  14.602   2.991  14.959
26026W        W98451  15.361  40.823  13.049
26027W        W98452  30.235   1.795   4.098
26028W        W98453  44.513  43.863  12.034
26029W        W98454  20.678  40.545  13.932
26030W        W98455   0.560  21.279  12.001
26031W        W98456  28.585  15.686  10.195
26032W        W98457  15.042   4.127  14.898
26033W        W98458  13.756  37.869   1.841
26034W        W98459  20.574   9.483  14.135
26035W        W98460  32.812  34.585  12.147
26036W        W98461  32.437   1.941  14.304
26037W        W98462  15.731  12.659   2.211
26038W        W98463  39.969  44.580   0.478
26039W        W98464  10.391  17.302   3.072
26040W        W98465  12.386   3.453  12.825
26041W        W98466  10.046  13.566   9.952
26042W        W98467   2.761  33.176  10.647
26043W        W98468  11.083  44.757   4.852
26044W        W98469  30.437  10.179  12.481
26045W        W98470  34.559  34.740  11.472
26046W        W98471  40.658  11.319  14.251
26047W        W98472  37.095  20.706   4.188
26048W        W98473   0.099  38.466  12.608
26049W        W98474   5.461  26.118   3.140
26050W        W98475  43.197  43.010   2.940
26051W        W98476  10.340   5.146   0.666
26052W        W98477  27.570   0.440   2.197
26053W        W98478  14.131  22.005   1.103
26054W        W98479  10.350  10.177  12.916
26055W        W98480  26.630  42.289   0.436
26056W        W98481  26.725  43.802  14.417
26057W        W98482  27.664  16.801   3.163
26058W        W98483  17.794  28.401  13.341
26059W        W98484  42.472   3.303   2.720
26060W        W98485  26.066  40.798  13.904
26061W        W98486  20.779  35.036  11.475
26062W        W98487  15.778   3.253  12.500
26063W        W98488  39.890  25.131   2.261
26064W        W98489  25.020  14.894   4.704
26065W        W98490  36.270  37.093   4.241
26066W        W98491   4.037  29.410   4.918
26067W        W98492  29.516   7.358  13.537
26068W        W98493   2.539  16.661   2.394
26069W        W98494   5.877  36.461  10.684
26070W        W98495  13.725  42.722   0.930
26071W        W98496  43.273   8.413   2.287
26072W        W98497  35.331  15.835  13.337
26073W        W98498  20.692  13.888  13.066
26074W        W98499  22.224   9.872   2.328
26075W        W98500  13.235  38.652   3.770
26076W        W98501  26.782  31.550   4.528
26077W        W98502  37.119  32.560  11.460
26078W        W98503  37.845   7.435  13.626
26079W        W98504  28.035  30.459   5.189
26080W        W98505  14.582  10.337  14.306
26081W        W98506  11.878   4.218  10.520
26082W        W98507  36.307  26.032   1.669
26083W        W98508  10.563  14.645   4.884
26084W        W98509   2.939  29.554   1.197
26085W        W98510  27.401   7.603  11.904
26086W        W98511  26.652  35.928   0.952
26087W        W98512  29.947  33.574  10.813
26088W        W98513  23.944   4.845  10.990
26089W        W98514  26.098  30.548  14.846
26090W        W98515  27.275  31.507   4.598
26091W        W98516  38.621  21.684  14.400
26092W        W98517  16.838  26.801  13.040
26093W        W98518  41.481  21.477  14.267
26094W        W98519   4.777  19.804  10.715
26095W        W98520  30.654  41.339   2.243
26096W        W98521  43.028  11.397  13.258
26097W        W98522   4.330  13.101  11.868
26098W        W98523  29.933  40.982  10.123
26099W        W98524  41.832   2.147   0.714
26100W        W98525   7.905   0.746  11.935
26101W        W98526  40.040  42.543   1.767
26102W        W98527  16.876  36.190   3.356
26103W        W98528  21.694  23.704   2.985
26104W        W98529   4.268  14.583   0.444
26105W        W98530  31.411   4.216  11.187
26106W        W98531  36.042  36.624  14.252
26107W        W98532  12.273   0.796   1.350
26108W        W98533  14.818   2.536  14.847
26109W        W98534  32.419  35.988   3.659
26110W        W98535  15.336   8.971   4.195
26111W        W98536   5.329   9.594   2.221
26112W        W98537   9.911  28.573   1.442
26113W        W98538   4.518  43.498   3.675
26114W        W98539  24.496   1.814  12.098
26115W        W98540   8.193  13.996  13.022
26116W        W98541   2.196  35.827  11.608
26117W        W98542  21.553  44.673   3.801
26118W        W98543  43.556  14.562   4.442
26119W        W98544   6.903  39.329   0.643
26120W        W98545  27.153   3.423  11.910
26121W        W98546  34.513  22.226   1.616
26122W        W98547   0.373  20.025  12.349
26123W        W98548  42.283  11.125   2.823
26124W        W98549  20.221  42.502  12.931
26125W        W98550  14.348  24.213   2.724
26126W        W98551  28.820  38.257   5.441
26127W        W98552  29.014  39.505   4.959
26128W        W98553  12.612   1.039  13.574
26129W        W98554  28.946  38.292   0.099
26130W        W98555  22.223  27.121  12.854
26131W        W98556   8.954  42.747  12.387
26132W        W98557  32.913  42.045  11.722
26133W        W98558   6.905  35.577  14.473
26134W        W98559  41.263  32.128   2.756
26135W        W98560  10.644  34.318  11.946
26136W        W98561  20.371  11.234   9.698
26137W        W98562  17.693   5.933  12.458
26138W        W98563  31.774  40.818  12.534
26139W        W98564  31.983  35.488  12.103
26140W        W98565  16.119  19.514   0.034
26141W        W98566  35.087  27.887   1.229
26142W        W98567   5.068   8.191  13.992
26143W        W98568  30.960  27.642  12.822
26144W        W98569  44.975  21.317  13.489
26145W        W98570   2.410  28.423  13.040
26146W        W98571   4.385   9.328  12.280
26147W        W98572  37.640  26.114   3.030
26148W        W98573  40.827   5.503   2.706
26149W        W98574  20.809  11.736   3.142
26150W        W98575  44.247  30.962  11.544
26151W        W98576  28.962  41.798   9.502
26152W        W98577  41.883  25.643  12.564
26153W        W98578  37.081   2.779   3.262
26154W        W98579  30.154  27.197   0.536
26155W        W98580  11.353  23.160  13.959
26156W        W98581   1.212   1.399   1.261
26157W        W98582  29.065  28.715   2.180
26158W        W98583  12.286  39.880  10.619
26159W        W98584  40.282  26.567  11.505
26160W        W98585  37.987  12.758  14.424
26161W        W98586  42.316  11.622   3.941
26162W        W98587  17.593  42.847  14.107
26163W        W98588   7.709   0.828   2.110
26164W        W98589  26.107  39.006   0.427
26165W        W98590  26.127   2.122   3.205
26166W        W98591  44.357  39.296   3.136
26167W        W98592  13.504  26.332  11.164
26168W        W98593  35.341  16.356  13.382
26169W        W98594  12.726  16.224  11.628
26170W        W98595   0.269  31.931   2.792
26171W        W98596  38.477  20.287   2.641
26172W        W98597  21.540  16.547   2.256
26173W        W98598  18.087   4.139  13.888
26174W        W98599  15.932  17.117   3.608
26175W        W98600  36.176  22.468   0.013
26176W        W98601  32.978  25.278   2.298
26177W        W98602  14.941  22.346   1.413
26178W        W98603  25.262  32.502  11.892
26179W        W98604   9.243  34.739  10.031
26180W        W98605  42.941  25.707  14.762
26181W        W98606  15.336  28.391  14.213
26182W        W98607  42.758  37.017   2.192
26183W        W98608   3.893   4.176   3.360
26184W        W98609  41.304  33.644   2.897
26185W        W98610  44.941  15.290  14.888
26186W        W98611  30.517  23.802  10.020
26187W        W98612   6.259  41.030  13.395
26188W        W98613  27.772   0.435   1.670
26189W        W98614  38.831   4.216   4.684
26190W        W98615   5.338  24.564   4.490
26191W        W98616   4.693   6.151  11.691
26192W        W98617  39.398  40.027  12.059
26193W        W98618  20.704  13.158  13.462
26194W        W98619  41.915  12.616   2.908
26195W        W98620  42.864  22.097  11.139
26196W        W98621  20.577  24.323  13.508
26197W        W98622   4.860  28.775   0.510
26198W        W98623  16.058  10.515  13.375
26199W        W98624  37.794  24.229   3.180
26200W        W98625   4.216  40.358   1.471
26201W        W98626  24.315   8.534   1.155
26202W        W98627  19.975  17.513  13.766
26203W        W98628  15.757  20.101   2.279
26204W        W98629  43.768  34.076   4.909
26205W        W98630  32.570   7.246  13.906
26206W        W98631  24.045  12.272   4.561
26207W        W98632  17.051  35.512  13.978
26208W        W98633  14.671  26.545  11.404
26209W        W98634  42.482  43.264   4.614
26210W        W98635  11.818  40.784   4.427
26211W        W98636  41.091  37.448   4.630
26212W        W98637  33.798   8.200   0.761
26213W        W98638   5.356  26.499  12.853
26214W        W98639  28.548  41.575  11.939
26215W        W98640  44.299  17.359   1.761
26216W        W98641   6.398  44.841   1.405
26217W        W98642  38.499  32.816  13.442
26218W        W98643  16.980  29.892   3.515
26219W        W98644  18.768  24.772  11.628
26220W        W98645   1.066  11.714  10.302
26221W        W98646  21.882  28.563  10.650
26222W        W98647  42.505  11.059  12.016
26223W        W98648   1.115  26.184   0.527
26224W        W98649  10.726  31.499   3.664
26225W        W98650  43.955  33.010   1.428
26226W        W98651  37.059  26.343  14.830
26227W        W98652  14.098   3.324  13.267
26228W        W98653  29.840   3.868   4.810
26229W        W98654  16.129   3.169   2.500
26230W        W98655  19.799  19.684  11.980
26231W        W98656   2.944  35.144  11.227
26232W        W98657   6.200   0.847  12.029
26233W        W98658  35.367  33.977  10.485
26234W        W98659  42.526  43.476  12.375
26235W        W98660  17.568   0.995  11.456
26236W        W98661  36.900  11.541   4.513
26237W        W98662   3.119  34.648  11.539
26238W        W98663  36.548  31.065   3.813
26239W        W98664   8.140   8.674  10.671
26240W        W98665  17.221   5.470   0.845
26241W        W98666   5.258  43.364   0.346
26242W        W98667  36.639  23.261   1.859
26243W        W98668  19.188  40.616  13.895
26244W        W98669  35.574  29.602   3.390
26245W        W98670  31.253  36.623   4.857
26246W        W98671  32.486   2.429   4.108
26247W        W98672  18.519  19.267   0.417
26248W        W98673   0.088  22.525  11.273
26249W        W98674  32.657  21.582   0.344
26250W        W98675   0.323  44.736   4.674
26251W        W98676   3.964  25.593  10.514
26252W        W98677  30.363  42.605   1.201
26253W        W98678  14.698  44.925  13.364
26254W        W98679  11.830  32.049  14.439
26255W        W98680  36.136  42.999  13.855
26256W        W98681   9.212  11.895   2.851
26257W        W98682  30.240  44.399   3.482
26258W        W98683  12.652   3.736   1.395
26259W        W98684   4.166   4.263   0.776
26260W        W98685  42.334   1.179  11.914
26261W        W98686  18.315  23.857  13.162
26262W        W98687  20.285  32.969   3.597
26263W        W98688  21.907  22.013   4.741
26264W        W98689  17.200  32.836   4.436
26265W        W98690  21.061   6.359  11.650
26266W        W98691   8.199   6.606  11.370
26267W        W98692  35.010  15.099   0.925
26268W        W98693  17.092  21.992   1.549
26269W        W98694  31.575  37.966  11.568
26270W        W98695  19.745  10.405  11.794
26271W        W98696  28.299  44.865  14.750
26272W        W98697  26.234  15.128   2.944
26273W        W98698  25.696  33.356  14.366
26274W        W98699  31.401  28.489  12.133
26275W        W98700  43.297  26.936   1.803
26276W        W98701  20.329  33.362   1.358
26277W        W98702   9.360  19.984  14.808
26278W        W98703  27.943  12.613  14.885
26279W        W98704  20.832  42.860   0.476
26280W        W98705  22.270  16.667  14.756
26281W        W98706  10.816  44.562   1.828
26282W        W98707  42.053  28.363  12.593
26283W        W98708  10.285  18.521  12.450
26284W        W98709  26.253   9.828   2.179
26285W        W98710  13.553  42.860  12.097
26286W        W98711  32.026   6.450  11.123
26287W        W98712   0.252   1.824   2.588
26288W        W98713  26.516  28.940  13.163
26289W        W98714  24.135  23.700  11.633
26290W        W98715  34.375  16.121   2.382
26291W        W98716  18.900  26.309  13.132
26292W        W98717  41.242   1.325   0.272
26293W        W98718  40.786  40.080  13.517
26294W        W98719   7.661  18.030  11.558
26295W        W98720   6.064  28.555   2.829
26296W        W98721  10.312  29.539  14.481
26297W        W98722   2.461   5.689   1.481
26298W        W98723  31.533  17.636   1.713
26299W        W98724  22.339  27.086   2.252
26300W        W98725  25.521  34.048   3.777
26301W        W98726  30.049  29.971   0.440
26302W        W98727  31.815  11.256   2.131
26303W        W98728  33.509  22.886   3.195
26304W        W98729  15.219  33.898   2.017
26305W        W98730  31.014  25.491  11.590
26306W        W98731  40.661  29.459   3.791
26307W        W98732   0.353   4.754   0.514
26308W        W98733  26.938   0.985   0.959
26309W        W98734  41.972  28.524   2.272
26310W        W98735   8.728  13.554   4.544
26311W        W98736  31.549  40.872   3.226
26312W        W98737  18.383  37.310   3.326
26313W        W98738  10.363   1.786   0.856
26314W        W98739  28.641   5.737  11.626
26315W        W98740  43.993  42.060   0.473
26316W        W98741  20.746  19.570  14.369
26317W        W98742   8.773   8.225   2.759
26318W        W98743  14.225   8.598   0.200
26319W        W98744   7.811  15.195  11.032
26320W        W98745  31.611   7.274   4.700
26321W        W98746  26.948  37.845  13.861
26322W        W98747  39.987  43.834   0.756
26323W        W98748  44.010  20.562  13.146
26324W        W98749  35.929  25.982  11.622
26325W        W98750  41.777  16.709  12.868
26326W        W98751   1.430  40.408   0.028
26327W        W98752  27.216  33.293   1.990
26328W        W98753  28.552  29.233   2.910
26329W        W98754  40.584  39.024  10.726
26330W        W98755  35.475  19.586  10.641
26331W        W98756  20.818   0.188   3.635
26332W        W98757  20.479  17.790   1.340
26333W        W98758  24.267  12.720  13.885
26334W        W98759  27.090  36.878  11.062
26335W        W98760  29.022  11.398  11.141
26336W        W98761  24.947  17.015   3.291
26337W        W98762  34.285  15.943   0.995
26338W        W98763  38.531   3.647  11.342
26339W        W98764   2.423   4.188  13.666
26340W        W98765  27.063  31.711   0.790
26341W        W98766  16.755  39.319   1.355
26342W        W98767  42.551  43.684  10.670
26343W        W98768  11.201  15.004  13.483
26344W        W98769  43.813  32.729   3.186
26345W        W98770  37.886  44.165   4.100
26346W        W98771  41.466  40.844   1.249
26347W        W98772  31.571  22.496  13.425
26348W        W98773  37.617   9.208   4.257
26349W        W98774  17.109   9.762  11.846
26350W        W98775  20.574  41.376  12.427
26351W        W98776   6.112  22.869   3.536
26352W        W98777  41.345  43.330  12.273
26353W        W98778  24.068   6.106  13.012
26354W        W98779  23.643  38.856   4.783
26355W        W98780   5.377   4.122   2.950
26356W        W98781  23.641  43.093  12.524
26357W        W98782  41.444  37.694  12.039
26358W        W98783  17.058   0.460  12.007
26359W        W98784  12.676  32.209  12.822
26360W        W98785  41.022  31.405   3.689
26361W        W98786   6.799   4.808   0.196
26362W        W98787   9.828  43.908  12.312
26363W        W98788   3.566  37.664  11.076
26364W        W98789   3.027  40.254   3.707
26365W        W98790   4.849  30.963   0.578
26366W        W98791   8.045   3.017  12.488
26367W        W98792  43.713  14.058  14.323
26368W        W98793  41.991  10.367   4.001
26369W        W98794  10.475  40.369  14.780
26370W        W98795   7.724  34.717  12.892
26371W        W98796  42.727  35.610   4.180
26372W        W98797  22.633  21.920   3.769
26373W        W98798   6.701  11.943  10.963
26374W        W98799   8.118  38.755   3.211
26375W        W98800  29.661   4.232   2.175
26376W        W98801  38.467   5.152   1.883
26377W        W98802  26.599   9.692  13.396
26378W        W98803  31.853  37.476  11.676
26379W        W98804  28.995   1.805  12.846
26380W        W98805   6.340  42.898   2.360
26381W        W98806  12.406   0.810  10.405
26382W        W98807  42.111  37.345  13.000
26383W        W98808  15.592  17.078   2.296
26384W        W98809  11.907  19.077   0.847
26385W        W98810  17.333  31.063  11.230
26386W        W98811   8.127  43.406   4.092
26387W        W98812  33.006  26.387  13.209
26388W        W98813  24.881   9.643   4.683
26389W        W98814  19.463  39.597  14.464
26390W        W98815  20.675  40.923   4.900
26391W        W98816  18.317  13.234   1.162
26392W        W98817  12.034   1.447   9.802
26393W        W98818  22.545   1.395   0.131
26394W        W98819   6.704  26.375   3.642
26395W        W98820  44.568  24.781   3.662
26396W        W98821  25.171  43.616   0.235
26397W        W98822   1.294   4.411   0.757
26398W        W98823   2.228  23.077  12.133
26399W        W98824  14.628  40.731   1.696
26400W        W98825  19.290  23.034  13.440
26401W        W98826  16.733  15.907   4.062
26402W        W98827  32.213  16.744   4.162
26403W        W98828   3.540  35.346   0.028
26404W        W98829  33.470  39.943   0.183
26405W        W98830  34.096  17.668  12.486
26406W        W98831  26.472   7.088   3.915
26407W        W98832  12.487  24.228   3.113
26408W        W98833   9.011  44.226  11.580
26409W        W98834  25.688  34.143   4.342
26410W        W98835  31.504  15.710  13.333
26411W        W98836   6.396  11.242  14.530
26412W        W98837  22.073   5.812  13.967
26413W        W98838  20.112  25.117  11.068
26414W        W98839   2.073  15.985   1.381
26415W        W98840  13.279   4.437   3.053
26416W        W98841  36.405  41.122   2.193
26417W        W98842  37.317  10.275   1.171
26418W        W98843   7.401  10.279   2.674
26419W        W98844  36.059  26.937  14.550
26420W        W98845  11.237  26.119  10.686
26421W        W98846  39.203  22.377  10.297
26422W        W98847  16.024  11.605  14.776
26423W        W98848  27.436  23.062   0.407
26424W        W98849  26.143  18.276  14.417
26425W        W98850   7.107  35.975  12.672
26426W        W98851  25.493  20.127   0.444
26427W        W98852   9.158  12.631  14.460
26428W        W98853   2.167  22.483  13.893
26429W        W98854   9.028  29.297   0.763
26430W        W98855  27.149   1.727  11.589
26431W        W98856  16.799  22.622   4.235
26432W        W98857   2.912  34.625   1.066
26433W        W98858  10.201  11.006   1.393
26434W        W98859   2.842  43.312   3.586
26435W        W98860   6.800  37.270  12.098
26436W        W98861  30.221  14.511   2.938
26437W        W98862  27.707  37.936  12.859
26438W        W98863  14.858  29.695  13.998
26439W        W98864  19.555  19.296   0.382
26440W        W98865  31.019  25.818  13.005
26441W        W98866  28.413   4.410   3.581
26442W        W98867  23.970  17.195   2.099
26443W        W98868   2.330  11.351   0.958
26444W        W98869  29.901  29.575  12.447
26445W        W98870  23.456  43.882   0.271
26446W        W98871   8.825  32.645   3.167
26447W        W98872  23.614  22.308  13.378
26448W        W98873   6.974  27.067   3.109
26449W        W98874  26.400  29.862   1.857
26450W        W98875  27.247  18.686   3.321
26451W        W98876  28.540  18.326  14.954
26452W        W98877   5.008  32.365  14.277
26453W        W98878  41.621   5.672  12.191
26454W        W98879  27.466  18.072  12.458
26455W        W98880  35.107  40.791   0.343
26456W        W98881  29.074  20.604   5.664
26457W        W98882  17.356  21.159   1.952
26458W        W98883   7.762  28.901   3.324
26459W        W98884  14.582   5.841  12.489
26460W        W98885  14.260  21.994   3.201
26461W        W98886   4.894  11.557   1.345
26462W        W98887  27.928  32.947   0.334
26463W        W98888  12.330  44.136   0.800
26464W        W98889  13.867   7.693  12.384
26465W        W98890   1.896  34.047  13.869
26466W        W98891  30.540  14.843   0.414
26467W        W98892  29.638  24.726   2.308
26468W        W98893   4.576  44.436  12.403
26469W        W98894   5.712  24.300   2.523
26470W        W98895  17.181  15.741  12.937
26471W        W98896  39.011  40.759   2.701
26472W        W98897   8.685   7.196  13.840
26473W        W98898  30.967   5.932  13.982
26474W        W98899  31.546  32.118  13.438
26475W        W98900  14.274  17.490   1.200
26476W        W98901  40.538  12.670  13.930
26477W        W98902  44.469  43.013   3.759
26478W        W98903  18.872  30.703  14.848
26479W        W98904   4.656  44.900   3.823
26480W        W98905  43.418   4.227   4.748
26481W        W98906   7.346  15.305  10.776
26482W        W98907  37.556  12.921   4.138
26483W        W98908  13.596   5.309   3.332
26484W        W98909  16.889  36.643  12.054
26485W        W98910  32.038   7.064  13.902
26486W        W98911  21.748  19.170   4.227
26487W        W98912  17.273  23.299  10.734
26488W        W98913   7.215   8.697   2.622
26489W        W98914   9.232  38.932  11.662
26490W        W98915   6.494  11.063   4.648
26491W        W98916  22.972  24.217   0.382
26492W        W98917  44.039   2.849  13.459
26493W        W98918  32.457  27.352   4.543
26494W        W98919   3.389  26.672   4.168
26495W        W98920  29.930  21.688   5.841
26496W        W98921  43.437  12.069   3.311
26497W        W98922  20.096  35.375   3.233
26498W        W98923  37.046   7.030  11.467
26499W        W98924   5.150  15.383   4.081
26500W        W98925  31.596  30.477   0.955
26501W        W98926  43.460  18.996   3.182
26502W        W98927  22.612   3.486   1.321
26503W        W98928  27.662  31.499   3.438
26504W        W98929   4.227  15.730   4.811
26505W        W98930  37.287  20.531   2.258
26506W        W98931  21.677  36.889  14.485
26507W        W98932  30.260  30.002   4.685
26508W        W98933  19.644  39.077   2.784
26509W        W98934  28.095   3.636  12.940
26510W        W98935  40.064  40.869   4.085
26511W        W98936   6.756  31.448   3.271
26512W        W98937  26.239  42.580   4.766
26513W        W98938  15.229  19.593  11.711
26514W        W98939   0.362  13.045  14.784
26515W        W98940   4.453  44.405  10.936
26516W        W98941  44.357   7.531  13.799
26517W        W98942  14.150   1.404  11.110
26518W        W98943  24.905  21.923   1.254
26519W        W98944  33.546  21.006  14.570
26520W        W98945  25.717   0.481  12.425
26521W        W98946  38.543  25.708  11.648
26522W        W98947  27.721  24.997   4.753
26523W        W98948  42.968  25.454   2.293
26524W        W98949  38.964   3.349  11.647
26525W        W98950  15.364   5.221   1.379
26526W        W98951  20.463  21.373   3.623
26527W        W98952  32.540  34.800  13.901
26528W        W98953  38.338  12.647  11.675
26529W        W98954  38.944  27.634   1.848
26530W        W98955  15.429  23.801  13.034
26531W        W98956  24.580  40.256  11.979
26532W        W98957  36.588   2.650  12.349
26533W        W98958  18.766  44.897  11.883
26534W        W98959  43.064  40.113   1.727
26535W        W98960  10.299  13.635  10.595
26536W        W98961   5.922  22.698  13.483
26537W        W98962  27.712  24.967  14.841
26538W        W98963  13.147  18.598   0.902
26539W        W98964  13.297  44.617   1.748
26540W        W98965  23.472   1.366  12.193
26541W        W98966  26.243  31.010  11.071
26542W        W98967  17.632  17.042  13.812
26543W        W98968  42.164  44.508  13.903
26544W        W98969  22.407  17.755  14.458
26545W        W98970  34.721   9.306   2.116
26546W        W98971  40.422  35.773   0.339
26547W        W98972  21.016  11.241   4.644
26548W        W98973   2.360  37.022  12.903
26549W        W98974  29.578  11.361  13.030
26550W        W98975  28.625  23.679  12.887
26551W        W98976  22.138  37.624   4.522
26552W        W98977   4.923  16.979  12.797
26553W        W98978  41.108  44.089  12.664
26554W        W98979  17.001  32.892   1.371
26555W        W98980  10.646  37.564  13.044
26556W        W98981  34.187  38.812  12.125
26557W        W98982  39.943  15.990  14.737
26558W        W98983  21.992  20.544  10.653
26559W        W98984  41.551  29.652   4.070
26560W        W98985  36.165  28.579  14.811
26561W        W98986   7.828  10.145  13.402
26562W        W98987  13.671  27.949   1.203
26563W        W98988  27.474   4.878   0.950
26564W        W98989  27.272  18.646   0.810
26565W        W98990  20.763  23.860   2.904
26566W        W98991  14.795  22.097   3.210
26567W        W98992   8.271   3.910  12.602
26568W        W98993  39.407   1.937   4.664
26569W        W98994  37.878  41.430   1.105
26570W        W98995  37.808   8.853  13.792
26571W        W98996  14.969  11.958   4.836
26572W        W98997  28.399  13.526   4.900
26573W        W98998  11.716  11.248  11.271
26574W        W98999  25.477  27.592   3.962
26575W        W99000  38.894   2.404   2.311
26576W        W99001   2.442  39.484   3.830
26577W        W99002  32.060  40.109   4.949
26578W        W99003  37.564  39.914   0.020
26579W        W99004  11.887  40.528  14.798
26580W        W99005  27.439  23.435  11.578
26581W        W99006  18.626  14.262  10.647
26582W        W99007   4.260   3.723   1.850
26583W        W99008  28.634   3.982  10.714
26584W        W99009  36.784   0.533  11.972
26585W        W99010   1.524  20.420  10.593
26586W        W99011   4.414  19.028   3.682
26587W        W99012   3.481  18.743   4.993
26588W        W99013  17.746  42.298  14.827
26589W        W99014  44.882   3.798  11.940
26590W        W99015  33.092  41.955  13.858
26591W        W99016  26.567  16.148  14.045
26592W        W99017  41.563   2.855   2.735
26593W        W99018  23.924  25.760  11.610
26594W        W99019  14.020  41.267   4.211
26595W        W99020  13.159   1.702  11.125
26596W        W99021  18.299  14.285  11.150
26597W        W99022  16.537  15.782  13.984
26598W        W99023  16.338   9.066   1.447
26599W        W99024  33.649  32.640   0.073
26600W        W99025   9.015  21.096  11.641
26601W        W99026  38.015  32.556  11.953
26602W        W99027  18.108  22.533  13.452
26603W        W99028  18.775   8.353   2.899
26604W        W99029  32.023  43.627   0.989
26605W        W99030  18.456  19.275   4.526
26606W        W99031  43.983  16.252   4.775
26607W        W99032  29.751  40.624   5.073
26608W        W99033  42.052  25.727   1.961
26609W        W99034  36.646  33.370  12.109
26610W        W99035  23.245   6.251   1.716
26611W        W99036  31.201   0.494  10.379
26612W        W99037   6.016  25.186   4.171
26613W        W99038  22.415  44.864   3.691
26614W        W99039  27.338  19.713  13.289
26615W        W99040  28.243  14.493  14.353
26616W        W99041  27.141  42.995   0.277
26617W        W99042   5.852  25.058   3.119
26618W        W99043  31.450  25.090   2.288
26619W        W99044   5.967  25.247  11.669
26620W        W99045   1.297   4.832  12.202
26621W        W99046  44.814  34.092   2.322
26622W        W99047  12.269  13.723  14.494
26623W        W99048  13.309  23.350   0.761
26624W        W99049  31.172  40.989   4.976
26625W        W99050  24.139   8.623  14.523
26626W        W99051  18.535  23.199   3.313
26627W        W99052  11.288  26.721  13.358
26628W        W99053  35.784  43.933   2.795
26629W        W99054  26.014  16.311  14.798
26630W        W99055  21.019  28.019  11.153
26631W        W99056   2.166   4.034   4.141
26632W        W99057  27.621   1.958  11.618
26633W        W99058  30.669  27.180   0.454
26634W        W99059  13.680  21.683  12.623
26635W        W99060  10.892  41.257  14.997
26636W        W99061  26.593  22.698   0.288
26637W        W99062  29.427   0.257   2.340
26638W        W99063  21.701  43.799   2.357
26639W        W99064  12.137   9.793  11.038
26640W        W99065  36.402   1.919   5.016
26641W        W99066  41.558  19.679  13.963
26642W        W99067  17.087   9.779   2.850
26643W        W99068  39.944   4.197   1.079
26644W        W99069  38.001  42.423   4.270
26645W        W99070   6.720  23.218   4.558
26646W        W99071   6.673  13.590  13.567
26647W        W99072  31.082  18.136   4.756
26648W        W99073   6.174  11.175  12.835
26649W        W99074  34.427  22.590  14.262
26650W        W99075   4.774   5.531   1.154
26651W        W99076  40.903  38.444   3.499
26652W        W99077  22.322  27.436   1.778
26653W        W99078  21.540  22.035  14.927
26654W        W99079  15.454   6.732  12.520
26655W        W99080  31.102  31.882  13.560
26656W        W99081   0.903  23.959  12.040
26657W        W99082  28.623   3.487  12.262
26658W        W99083  40.044  43.043   0.305
26659W        W99084  28.172  15.751   4.093
26660W        W99085  10.331  26.628   5.130
26661W        W99086  19.349   7.034  13.892
26662W        W99087  44.463  16.904   5.148
26663W        W99088   3.424   8.921  14.944
26664W        W99089  44.417  40.492  12.079
26665W        W99090  31.287  30.073  12.104
26666W        W99091  36.511  23.932   1.258
26667W        W99092   8.040  23.166   0.786
26668W        W99093  34.708  14.329   1.657
26669W        W99094  30.209  14.732  13.592
26670W        W99095  38.950  24.927   4.560
26671W        W99096   5.765   9.335   0.315
26672W        W99097   5.427  31.581  13.455
26673W        W99098  10.173  28.114  14.812
26674W        W99099  25.297  22.612   3.279
26675W        W99100   5.920  34.701   1.487
26676W        W99101  38.844  32.400   1.921
26677W        W99102  40.455  20.543   0.284
26678W        W99103  17.176  37.390  12.506
26679W        W99104  15.462   3.003   4.971
26680W        W99105  19.706  41.315  14.494
26681W        W99106   8.683  32.381   4.967
26682W        W99107  38.161  10.105  12.015
26683W        W99108   7.209   9.159   4.171
26684W        W99109   0.700  39.979  13.999
26685W        W99110   1.679  29.041  11.917
26686W        W99111  19.687  34.564   0.468
26687W        W99112  12.101  33.132  12.439
26688W        W99113  15.087  23.446  11.115
26689W        W99114  21.965  20.725  13.363
26690W        W99115  27.454   7.424   2.180
26691W        W99116  40.331  37.011   2.257
26692W        W99117  30.443  26.485  14.481
26693W        W99118   0.423  40.756  12.502
26694W        W99119  41.734   2.322   4.357
26695W        W99120   6.850   3.476  14.825
26696W        W99121  27.224  24.016   3.203
26697W        W99122  28.855  20.924  10.235
26698W        W99123   8.628  10.089   1.669
26699W        W99124  42.766  34.846   1.731
26700W        W99125  40.411  12.841  12.098
26701W        W99126  15.270  42.804   1.341
26702W        W99127   6.402  18.844  13.142
26703W        W99128  33.660  18.079   4.512
26704W        W99129  28.198   7.742  13.489
26705W        W99130  41.575  17.228  11.801
26706W        W99131   2.001  11.406  13.918
26707W        W99132  38.175   4.940   3.561
26708W        W99133  11.776  43.174  11.914
26709W        W99134  25.469  12.699  14.489
26710W        W99135  10.034  28.066   0.789
26711W        W99136  10.963   7.746  13.839
26712W        W99137  27.203  29.161   3.197
26713W        W99138   4.433  31.769   1.699
26714W        W99139  18.977  32.446   3.700
26715W        W99140  32.338  35.366   4.101
26716W        W99141  37.494  27.230  11.474
26717W        W99142  41.470  23.062   4.306
26718W        W99143  17.893  11.511   4.415
26719W        W99144  42.885  32.102   4.101
26720W        W99145   1.913  29.956  11.981
26721W        W99146  16.681  32.859   4.135
26722W        W99147  17.577   4.347   1.496
26723W        W99148   3.251  32.158   4.353
26724W        W99149   4.879  13.457  13.811
26725W        W99150  15.023  44.895  13.803
26726W        W99151  34.858  26.995   2.781
26727W        W99152  34.509  30.189   4.109
26728W        W99153  42.772  22.098  14.256
26729W        W99154  22.773  44.475  12.976
26730W        W99155  34.230  22.225  12.426
26731W        W99156  17.777  39.973   1.801
26732W        W99157  22.546   3.742   3.689
26733W        W99158  26.624  18.162   2.860
26734W        W99159  30.677  43.408  12.040
26735W        W99160  28.173  10.196   3.146
26736W        W99161   8.132  31.260   2.197
26737W        W99162  44.739  43.341   4.110
26738W        W99163  32.785   3.393   0.026
26739W        W99164  21.342   3.898  10.624
26740W        W99165  16.062  11.292   2.039
26741W        W99166  38.409   9.345   4.942
26742W        W99167  11.128  25.121  13.364
26743W        W99168  31.657  30.991   0.887
26744W        W99169  27.918   8.410  12.908
26745W        W99170   6.183  21.495  11.156
26746W        W99171  23.429   7.363  13.233
26747W        W99172  13.310  28.376  14.758
26748W        W99173  27.593  41.693  11.843
26749W        W99174  11.206  35.612   4.779
26750W        W99175   2.307  13.623  10.519
26751W        W99176  19.763   1.284   0.729
26752W        W99177  44.969  17.531   3.744
26753W        W99178  27.113  26.673   0.476
26754W        W99179  40.009  31.885   4.334
26755W        W99180  25.651  12.629  10.667
26756W        W99181  12.317   4.884  12.105
26757W        W99182  37.325  25.289  11.560
26758W        W99183  21.623  37.383   4.339
26759W        W99184  17.495   3.299  11.701
26760W        W99185  19.863   2.074  11.182
26761W        W99186  44.415  17.691  10.636
26762W        W99187  31.415  33.040   4.798
26763W        W99188  23.170  15.666   4.841
26764W        W99189  32.650  32.514  10.685
26765W        W99190  23.202   1.667  14.451
26766W        W99191  34.948  31.901  14.315
26767W        W99192  28.668  32.971   1.782
26768W        W99193  13.859  13.390   3.551
26769W        W99194  10.107  24.998  13.502
26770W        W99195   6.659  19.063   1.899
26771W        W99196   0.190  26.102   0.196
26772W        W99197  13.385  20.988  11.806
26773W        W99198  18.442   0.935  11.238
26774W        W99199  37.945  39.628   1.759
26775W        W99200  23.645  35.686   4.119
26776W        W99201  13.829  26.936   1.933
26777W        W99202  35.180   9.264   1.224
26778W        W99203   4.836  25.150  14.026
26779W        W99204  28.403   1.379   3.842
26780W        W99205  41.296  28.758   0.199
26781W        W99206  24.529  28.216  12.053
26782W        W99207   1.231  26.425   2.658
26783W        W99208  44.343  20.627  11.017
26784W        W99209  30.749  10.283   4.007
26785W        W99210  38.268  12.339  14.426
26786W        W99211  25.197  37.586  12.022
26787W        W99212  39.347  10.798   3.264
26788W        W99213  16.910  22.072  12.330
26789W        W99214   5.254  20.576  12.813
26790W        W99215  12.454   4.391   3.572
26791W        W99216  14.163  36.164  11.957
26792W        W99217  22.598   0.961   0.378
26793W        W99218   4.118  20.065  11.514
26794W        W99219   0.282  17.493   2.720
26795W        W99220  26.353   4.797  12.606
26796W        W99221  32.147  30.476   2.174
26797W        W99222   0.233  35.955   4.740
26798W        W99223  21.660  38.642  12.932
26799W        W99224  25.593  31.598   1.262
26800W        W99225   0.909   8.914  12.979
26801W        W99226  39.769  15.631   2.648
26802W        W99227  30.397  41.456  13.336
26803W        W99228  13.947  15.412   2.114
26804W        W99229  14.238  31.369  13.367
26805W        W99230  14.632  35.325   4.679
26806W        W99231  17.097  26.547   2.229
26807W        W99232  39.325  11.901   3.256
26808W        W99233  35.020  18.543  13.878
26809W        W99234  39.155  43.143  13.762
26810W        W99235   4.601  15.477   5.119
26811W        W99236   0.838   0.523  12.983
26812W        W99237  42.007  17.696  12.681
26813W        W99238  40.992  15.347  13.832
26814W        W99239  31.676  40.598   0.354
26815W        W99240   0.984   5.163  14.880
26816W        W99241  37.537   6.185  10.611
26817W        W99242  10.166  20.992   3.815
26818W        W99243  26.154  18.766   3.751
26819W        W99244   8.243  13.116   2.150
26820W        W99245  42.780  10.878  11.577
26821W        W99246  39.338  35.035  10.709
26822W        W99247  44.995   1.040   3.799
26823W        W99248  29.643  40.863   3.260
26824W        W99249   7.290  21.161  14.970
26825W        W99250  37.043  41.340   3.325
26826W        W99251  44.321   2.445  12.440
26827W        W99252  42.876   5.353  11.708
26828W        W99253  27.507  25.006  12.543
26829W        W99254  32.525  29.481  10.254
26830W        W99255  39.231  34.022  11.934
26831W        W99256  15.170  32.164   1.338
26832W        W99257   1.990  39.381  10.615
26833W        W99258  38.826  34.268   4.561
26834W        W99259  14.223  24.127   5.267
26835W        W99260  14.868   3.411   3.286
26836W        W99261  30.811  31.582   4.142
26837W        W99262  16.577  41.010  12.355
26838W        W99263  14.527  22.008   3.656
26839W        W99264  19.240  11.660  13.835
26840W        W99265  30.492  39.311   3.025
26841W        W99266   4.481  24.598  10.839
26842W        W99267  22.834  42.324  14.868
26843W        W99268  18.129   8.163  11.683
26844W        W99269   6.773  33.886  12.534
26845W        W99270  40.795  31.589  13.859
26846W        W99271  13.974   8.442  11.995
26847W        W99272   4.386   8.732   2.143
26848W        W99273  25.023  14.391  12.416
26849W        W99274  17.990  43.060   2.354
26850W        W99275  13.437  21.611  12.157
26851W        W99276  27.836  15.120   2.042
26852W        W99277   2.105  33.417  14.503
26853W        W99278  16.730   7.723  10.659
26854W        W99279  19.204  25.414  14.774
26855W        W99280  22.707  31.364  11.633
26856W        W99281   2.472  21.837  11.641
26857W        W99282  35.940  15.669   1.684
26858W        W99283   3.012  30.487   0.405
26859W        W99284  22.895  18.611   4.349
26860W        W99285  37.679  13.104  14.224
26861W        W99286  29.071   1.541  13.896
26862W        W99287   0.299  19.774  14.444
26863W        W99288  20.700   7.723  14.957
26864W        W99289  24.659   4.816  12.849
26865W        W99290  41.922  28.182  11.655
26866W        W99291  43.773  24.965  12.000
26867W        W99292   6.313  24.692   4.395
26868W        W99293  14.832  19.656  12.071
26869W        W99294  28.197   4.269  12.378
26870W        W99295  17.405  28.089  14.044
26871W        W99296   7.036  10.724   3.272
26872W        W99297  14.156  16.220  14.994
26873W        W99298  12.606   2.949   4.482
26874W        W99299   0.699  30.477  12.924
26875W        W99300  17.710  18.798   3.425
26876W        W99301  38.410   2.916  14.030
26877W        W99302  31.897  26.499   0.258
26878W        W99303  33.214  14.125   1.814
26879W        W99304  16.812  37.942   3.782
26880W        W99305  32.681   6.283   2.059
26881W        W99306  13.131  36.972  14.039
26882W        W99307  41.691  20.097   4.931
26883W        W99308  43.075  11.782  12.455
26884W        W99309  30.158   5.251   0.992
26885W        W99310   1.892   8.457   1.756
26886W        W99311   0.914   8.884  11.212
26887W        W99312   5.141  22.622  12.618
26888W        W99313   2.016  36.550  13.561
26889W        W99314   4.907  18.460  13.437
26890W        W99315  25.705   6.723   0.234
26891W        W99316   4.939  40.227  11.526
26892W        W99317  23.413   8.180  14.888
26893W        W99318  31.085   5.497  11.212
26894W        W99319  35.504   0.520   3.373
26895W        W99320  33.892  31.405  11.391
26896W        W99321  43.968  41.415   4.465
26897W        W99322   8.620  41.913  11.177
26898W        W99323   2.709  10.270   1.798
26899W        W99324   6.832  38.904   0.926
26900W        W99325  25.647   7.477  14.493
26901W        W99326  12.647  35.919   0.919
26902W        W99327   2.374  44.433   4.526
26903W        W99328  44.999  33.013   1.261
26904W        W99329   0.886   3.129   0.010
26905W        W99330   6.402  41.311  12.943
26906W        W99331  23.589   3.081  14.240
26907W        W99332  16.574  29.014   2.160
26908W        W99333   9.332  42.413  11.628
26909W        W99334  15.134  15.497  12.911
26910W        W99335  18.237  26.094   2.560
26911W        W99336  33.901   2.893  10.330
26912W        W99337  21.548  14.847   2.075
26913W        W99338  11.729  22.607   3.618
26914W        W99339  22.508   2.313   1.707
26915W        W99340  37.591   0.764   2.584
26916W        W99341  11.887  23.051  12.448
26917W        W99342  29.687  22.021  14.828
26918W        W99343  27.885   6.695   4.682
26919W        W99344  19.154   9.775  14.727
26920W        W99345  42.116  15.561   3.240
26921W        W99346  26.567  17.661  10.961
26922W        W99347  21.274  44.287   1.767
26923W        W99348  43.957  40.203  11.387
26924W        W99349   6.060  13.704   2.652
26925W        W99350  41.562  22.176  11.895
26926W        W99351  31.115  16.135   0.315
26927W        W99352   1.448   8.305  11.561
26928W        W99353  17.080  39.589  12.962
26929W        W99354   6.696  22.764  11.790
26930W        W99355  13.498   2.896   0.317
26931W        W99356   3.841  17.506   4.242
26932W        W99357   3.037  43.189   2.734
26933W        W99358  30.055  12.184  11.297
26934W        W99359  32.961  21.753  13.037
26935W        W99360  23.549  14.944  11.626
26936W        W99361   5.284  34.119  13.360
26937W        W99362  19.650  30.692   0.780
26938W        W99363  13.571   8.723  13.156
26939W        W99364  40.825  36.252  11.203
26940W        W99365  16.315  26.302   0.341
26941W        W99366  36.949  21.122  10.682
26942W        W99367  38.753  40.387  10.196
26943W        W99368  12.095  38.393  12.989
26944W        W99369  44.380  43.875   2.695
26945W        W99370  16.169   4.118  14.882
26946W        W99371  31.906  16.725   0.672
26947W        W99372  38.788   9.381  12.998
26948W        W99373  14.689  17.515  11.216
26949W        W99374  16.706  18.390   1.963
26950W        W99375  37.466  34.910  10.894
26951W        W99376  27.776  41.011   4.998
26952W        W99377  21.983  38.104   3.331
26953W        W99378  39.310  21.346   4.660
26954W        W99379  12.911  28.887  13.948
26955W        W99380  11.204  22.773  14.318
26956W        W99381  10.275  41.515   3.284
26957W        W99382  16.396   4.826   1.652
26958W        W99383  29.262  27.852  10.392
26959W        W99384  14.978  27.469   4.326
26960W        W99385  15.767   8.387   0.312
26961W        W99386  30.405  35.462   3.759
26962W        W99387  44.363  14.198   1.729
26963W        W99388  12.662  21.756  13.904
26964W        W99389  35.613  32.028   2.641
26965W        W99390   0.856  40.475   2.718
26966W        W99391  37.621  38.020  11.983
26967W        W99392   5.790  28.469  12.836
26968W        W99393   8.823  11.816  13.298
26969W        W99394   3.524   1.319  12.865
26970W        W99395   3.727   0.254   2.317
26971W        W99396  21.445   7.833  13.393
26972W        W99397  38.246  25.426  13.477
26973W        W99398  12.086  44.838   2.381
26974W        W99399   8.918  26.667   0.201
26975W        W99400  17.738   6.926  13.434
26976W        W99401  17.527  25.886  13.337
26977W        W99402  18.147  31.398   4.133
26978W        W99403  25.469  27.688  11.544
26979W        W99404  35.348   4.155   2.514
26980W        W99405  33.050  16.473  10.734
26981W        W99406   4.785  35.561   0.342
26982W        W99407  14.584   6.229  11.661
26983W        W99408  12.139  38.056  10.745
26984W        W99409  32.964   5.322   0.326
26985W        W99410  21.194   3.483   1.757
26986W        W99411  21.562  44.791   2.136
26987W        W99412  42.597   8.772  12.007
26988W        W99413  18.851  11.387   4.076
26989W        W99414   6.869  12.133   1.348
26990W        W99415  18.606  29.097  10.947
26991W        W99416  28.609  41.957   1.181
26992W        W99417  16.873  15.706  10.763
26993W        W99418   5.279  21.598  14.780
26994W        W99419  12.789  19.297   4.708
26995W        W99420  40.617  24.151  13.788
26996W        W99421  30.687  35.099  12.706
26997W        W99422  28.144  10.304  11.985
26998W        W99423  37.672  13.402  13.452
26999W        W99424  18.196  16.128   1.639
27000W        W99425  10.075   0.551   2.295
27001W        W99426  15.431  22.484  14.959
27002W        W99427  43.426   7.483   0.320
27003W        W99428   5.787  34.257   2.792
27004W        W99429  12.108  22.698   1.713
27005W        W99430  26.723  13.771  11.638
27006W        W99431  32.957   5.077  13.036
27007W        W99432  13.110   3.486   1.402
27008W        W99433  27.221  19.669   3.968
27009W        W99434  29.266  44.709   3.231
27010W        W99435  26.067  14.364   0.796
27011W        W99436  16.588  16.354  11.618
27012W        W99437  10.666  18.064  13.551
27013W        W99438  31.881  15.221   0.335
27014W        W99439  12.847  25.081  10.470
27015W        W99440  39.054  27.973  11.182
27016W        W99441  13.916  42.882   4.106
27017W        W99442  16.395   1.927  14.314
27018W        W99443  17.116   7.397  11.493
27019W        W99444  30.418   3.072   2.353
27020W        W99445  36.399   9.693  11.295
27021W        W99446   9.971  22.615   4.435
27022W        W99447   3.885  39.451   1.427
27023W        W99448  28.031  39.392   1.411
27024W        W99449   3.474  22.678   4.050
27025W        W99450  26.531   6.477   1.189
27026W        W99451  38.038  42.017   2.394
27027W        W99452  40.024   5.400   1.321
27028W        W99453   4.422  16.048   3.834
27029W        W99454  24.600  31.476   3.564
27030W        W99455  31.492  25.569  10.430
27031W        W99456  39.040  28.892  11.004
27032W        W99457   9.106  29.096   4.926
27033W        W99458  37.769  33.165  12.452
27034W        W99459  44.489  28.742   2.317
27035W        W99460  12.410  23.077  12.519
27036W        W99461  27.904  41.408   3.308
27037W        W99462   1.957  11.345   3.680
27038W        W99463  26.915   0.651   1.783
27039W        W99464  42.868  41.558  11.143
27040W        W99465  20.121  40.860   4.849
27041W        W99466  44.842  11.639  11.436
27042W        W99467  15.689  37.574   0.114
27043W        W99468  39.592  43.832  12.332
27044W        W99469  23.081  20.680  13.071
27045W        W99470  41.270  44.913   1.447
27046W        W99471  14.039  39.348   0.707
27047W        W99472  42.446  26.625   0.736
27048W        W99473  25.492  14.222  11.585
27049W        W99474  10.166   0.282   0.951
27050W        W99475  32.008  40.120  12.058
27051W        W99476  13.340  40.458   3.733
27052W        W99477   0.351  17.792  13.851
27053W        W99478   6.886   9.848  13.868
27054W        W99479  44.454  22.492   5.142
27055W        W99480  14.536   3.983  12.123
27056W        W99481  27.929   1.746  13.901
27057W        W99482  29.525  19.429   2.583
27058W        W99483  20.194   8.768   0.680
27059W        W99484  40.918  23.150  13.888
27060W        W99485  14.728  25.459   1.134
27061W        W99486  40.732  29.616  11.801
27062W        W99487   8.654   6.713   0.055
27063W        W99488  23.115  37.951  11.305
27064W        W99489   9.311  20.614   1.435
27065W        W99490  33.587   1.469   2.302
27066W        W99491   1.130  37.027   2.678
27067W        W99492  15.937   0.083  11.622
27068W        W99493  41.486  17.056  13.149
27069W        W99494  31.753  12.059   3.831
27070W        W99495  24.403  22.456  12.621
27071W        W99496  38.989  34.293  10.654
27072W        W99497  14.846  17.348   1.780
27073W        W99498  15.790  18.329  12.968
27074W        W99499  15.713  10.391   0.436
27075W        W99500   0.491  40.847   0.491
27076W        W99501  18.681  37.137   2.442
27077W        W99502  35.083  21.810  12.425
27078W        W99503   7.776  41.540  14.962
27079W        W99504  24.244  33.050   4.118
27080W        W99505  28.553  36.073  13.957
27081W        W99506  36.068  11.097  12.219
27082W        W99507  13.905   1.935  13.370
27083W        W99508  11.881  35.355  14.856
27084W        W99509   1.828  14.383  13.920
27085W        W99510   3.800   0.764  14.063
27086W        W99511  23.196  22.097  10.356
27087W        W99512  27.509  12.690   4.504
27088W        W99513  35.826   2.007  12.986
27089W        W99514  33.066   5.233   4.938
27090W        W99515  41.472  41.190  13.742
27091W        W99516  25.159  44.897  11.021
27092W        W99517  41.296  31.603   2.666
27093W        W99518  10.358   2.820   2.452
27094W        W99519  24.710   3.060  14.822
27095W        W99520  10.215   2.909  13.527
27096W        W99521  12.162  31.064   0.776
27097W        W99522   3.521  41.229  11.209
27098W        W99523  16.822   5.675   1.217
27099W        W99524  34.972  16.786   2.169
27100W        W99525  31.401  42.085   4.251
27101W        W99526   8.190  20.240   4.182
27102W        W99527  44.517   2.377  13.758
27103W        W99528   4.114  41.255   0.964
27104W        W99529  29.351  16.605   0.699
27105W        W99530  33.065   1.654  12.640
27106W        W99531  20.186  17.757   2.647
27107W        W99532  16.453  27.850  12.124
27108W        W99533  41.962   9.314  13.753
27109W        W99534   1.186  40.098  12.076
27110W        W99535  39.942  23.045  11.622
27111W        W99536  41.251  20.748  11.095
27112W        W99537   7.915  41.327  10.288
27113W        W99538   4.959   4.860   1.843
27114W        W99539  15.478  38.965  14.063
27115W        W99540  28.784  41.423   1.371
27116W        W99541  16.220  17.135   1.175
27117W        W99542  38.955   8.209  10.892
27118W        W99543  16.562  28.907  12.163
27119W        W99544  41.521  39.998   3.972
27120W        W99545  13.967   9.521   3.679
27121W        W99546  34.828  42.414  12.917
27122W        W99547   1.864  40.706   1.478
27123W        W99548  28.051  12.812  12.179
27124W        W99549  14.725   2.491  13.081
27125W        W99550  33.124  44.720  13.976
27126W        W99551   5.967  29.211   1.743
27127W        W99552  26.298  40.018   3.016
27128W        W99553  16.627   7.401  14.033
27129W        W99554   9.386  13.323  14.927
27130W        W99555  25.340  32.263   1.165
27131W        W99556  21.995  39.720   3.808
27132W        W99557  28.485  44.470  14.478
27133W        W99558  17.444  14.549   1.827
27134W        W99559  24.710   0.990   3.359
27135W        W99560   0.417  24.629  14.437
27136W        W99561  13.325  28.899  14.772
27137W        W99562  25.056  24.514  10.858
27138W        W99563  11.587  37.527  12.895
27139W        W99564   1.362  43.220  10.542
27140W        W99565  18.615   7.451  13.558
27141W        W99566  20.642   3.091   1.121
27142W        W99567  43.222  26.770  14.322
27143W        W99568  28.016  44.893   0.776
27144W        W99569  19.534  19.301  10.707
27145W        W99570   1.442  41.783  14.545
27146W        W99571  26.877   1.745   1.312
27147W        W99572  26.651  18.379   0.248
27148W        W99573  14.525  33.378   3.986
27149W        W99574  32.326  33.493   4.216
27150W        W99575   7.886  17.664   2.681
27151W        W99576  33.100  32.856  13.254
27152W        W99577  17.997  36.934  12.514
27153W        W99578  43.536   3.745  11.265
27154W        W99579  39.669  35.961   4.738
27155W        W99580  28.672   6.918   3.279
27156W        W99581  22.156   3.283   1.465
27157W        W99582  23.525  30.235   2.756
27158W        W99583  13.714  23.609   3.309
27159W        W99584  14.135   3.167   5.043
27160W        W99585  13.272   0.338   4.286
27161W        W99586  39.741  32.648  11.118
27162W        W99587  10.767  39.519   2.750
27163W        W99588  13.221  11.384  13.875
27164W        W99589  29.934   7.176   3.790
27165W        W99590  17.520  35.120   4.299
27166W        W99591  43.220  30.703   3.641
27167W        W99592  25.573   2.768  12.949
27168W        W99593   9.240   8.885  11.698
27169W        W99594  42.455  37.095   1.763
27170W        W99595  25.551  35.677   3.372
27171W        W99596   2.822  25.263   0.293
27172W        W99597  15.894  20.029   0.437
27173W        W99598  37.375  33.136   0.875
27174W        W99599  17.843   5.784  10.869
27175W        W99600  20.973  16.534   1.008
27176W        W99601  35.417  13.587   1.030
27177W        W99602  33.456   7.773  10.674
27178W        W99603   7.814   0.635   3.095
27179W        W99604  22.344   0.387   0.719
27180W        W99605   7.920  32.512   1.773
27181W        W99606  27.763  35.575   3.384
27182W        W99607  39.750  34.021  11.864
27183W        W99608  19.269  19.203   1.565
27184W        W99609   1.365  27.639  14.321
27185W        W99610   8.875  31.890   4.845
27186W        W99611  24.084  26.585  11.147
27187W        W99612  33.204  33.586   0.489
27188W        W99613   1.291  38.817  10.507
27189W        W99614  34.393  21.049   1.801
27190W        W99615  21.118  17.483  12.344
27191W        W99616  32.205  33.197   3.812
27192W        W99617  15.872  27.990   3.869
27193W        W99618  27.919   0.480   0.367
27194W        W99619  10.206  11.744  11.557
27195W        W99620  22.876  12.710   2.291
27196W        W99621   7.887  15.784  12.790
27197W        W99622   8.680  18.635  11.200
27198W        W99623   9.175  29.454  12.965
27199W        W99624   6.305  10.164   2.930
27200W        W99625  35.946  24.378   4.585
27201W        W99626  26.211  12.103  10.920
27202W        W99627  33.003   9.410   2.214
27203W        W99628  42.900  13.133   1.880
27204W        W99629   4.869  43.207  11.633
27205W        W99630  10.354  25.376   1.852
27206W        W99631  39.402  26.699  12.606
27207W        W99632  11.098  16.815   4.084
27208W        W99633  40.013  38.895  12.537
27209W        W99634  12.601  37.508  12.916
27210W        W99635  33.873  29.141   1.359
27211W        W99636  29.084  18.905   3.436
27212W        W99637  33.887   8.114  14.025
27213W        W99638  15.615   1.848  14.720
27214W        W99639  14.171  14.502  13.107
27215W        W99640  19.349   3.274  13.062
27216W        W99641  15.780  33.421   1.330
27217W        W99642  32.832  39.319   3.122
27218W        W99643  14.773  11.049   4.692
27219W        W99644  11.848  37.338  14.812
27220W        W99645  38.792  26.704  13.768
27221W        W99646  40.604  30.018  11.072
27222W        W99647  18.705  28.718   3.008
27223W        W99648  39.552  41.440   0.701
27224W        W99649   6.216  21.222   1.244
27225W        W99650  20.197  35.371  13.763
27226W        W99651  21.736  12.610   1.754
27227W        W99652  10.218  10.206   4.049
27228W        W99653  29.346  25.251   1.835
27229W        W99654  31.372  37.557   0.540
27230W        W99655  42.588  44.053   3.240
27231W        W99656  44.728   7.694   3.254
27232W        W99657  41.506  18.773   0.797
27233W        W99658  25.922  43.729   0.766
27234W        W99659  34.909  38.932   0.021
27235W        W99660   1.816   4.183  13.089
27236W        W99661  21.473  31.368  10.571
27237W        W99662  15.325  23.514  14.374
27238W        W99663  23.055  39.367  10.662
27239W        W99664  25.103   4.504   0.125
27240W        W99665  42.946  24.947   2.237
27241W        W99666   4.826  42.404   0.191
27242W        W99667   0.034  21.169   4.123
27243W        W99668  34.791  27.370  14.089
27244W        W99669  36.893  24.940   2.711
27245W        W99670   3.937   6.962  12.867
27246W        W99671   8.732  12.626  12.921
27247W        W99672   8.646  38.654  11.056
27248W        W99673  25.339  27.472   4.448
27249W        W99674  42.006  22.993   5.028
27250W        W99675  23.201  13.887  12.592
27251W        W99676   5.950  34.802  12.501
27252W        W99677  13.252  23.444  12.186
27253W        W99678  37.053  29.888  14.878
27254W        W99679  21.527   0.089   1.680
27255W        W99680   7.901   1.850  11.956
27256W        W99681  22.261  30.061  12.617
27257W        W99682  23.754  23.192  10.811
27258W        W99683   1.219  35.047  13.172
27259W        W99684  36.812  21.092  14.486
27260W        W99685   9.874  44.767   3.646
27261W        W99686  44.611   5.808   2.467
27262W        W99687   4.896  24.405  13.492
27263W        W99688  43.745  39.118  13.723
27264W        W99689  11.995  14.250   2.671
27265W        W99690  31.093  32.973   1.223
27266W        W99691  27.360   8.153   0.015
27267W        W99692  25.049   2.493   4.966
27268W        W99693  28.400  29.118  14.964
27269W        W99694  27.497  34.839   3.148
27270W        W99695  24.109   4.401  12.242
27271W        W99696  28.490  42.610  14.504
27272W        W99697  21.700   8.235  11.902
27273W        W99698   1.919  43.860   4.387
27274W        W99699  12.338  35.314  11.044
27275W        W99700  28.578  36.582  14.714
27276W        W99701  24.717  43.031  10.616
27277W        W99702   9.440  37.027   2.328
27278W        W99703   0.489  34.522   4.028
27279W        W99704   8.224   9.750  12.053
27280W        W99705  20.956  44.794  12.408
27281W        W99706  26.610  30.156  12.572
27282W        W99707  32.392  37.886  14.346
27283W        W99708   3.766  24.868   4.988
27284W        W99709   8.513  24.193   3.798
27285W        W99710  32.489  40.549   0.479
27286W        W99711  32.444   1.937   1.319
27287W        W99712  38.363  15.057  14.451
27288W        W99713  25.047  30.146  10.154
27289W        W99714  22.557  39.014   0.966
27290W        W99715  31.252  23.603   5.159
27291W        W99716  14.766  39.944  11.332
27292W        W99717  17.781  27.712  13.923
27293W        W99718  17.139  18.833   4.130
27294W        W99719  31.871  15.711   2.967
27295W        W99720  18.684  18.739   1.654
27296W        W99721  31.614  13.585   4.198
27297W        W99722  16.096  43.226   4.244
27298W        W99723  37.861  11.054   0.167
27299W        W99724  27.291  38.495  11.590
27300W        W99725  32.144  22.714   1.153
27301W        W99726  39.030  25.125  13.413
27302W        W99727  22.968  42.135  11.185
27303W        W99728   0.205  31.914   4.546
27304W        W99729  31.022   4.843  12.884
27305W        W99730   8.327  13.812  13.529
27306W        W99731  37.041   9.728  14.424
27307W        W99732   5.354  40.228  10.701
27308W        W99733  34.607  35.047   0.291
27309W        W99734  15.170   1.042   4.719
27310W        W99735   0.879  43.068  12.732
27311W        W99736  11.693  28.140  12.877
27312W        W99737   6.642  33.572   0.400
27313W        W99738   5.048   1.328  12.997
27314W        W99739  27.939  28.953   0.167
27315W        W99740  12.906  20.710  10.684
27316W        W99741  13.883  31.726   0.388
27317W        W99742  27.981   4.267   3.822
27318W        W99743  16.629  14.322  11.549
27319W        W99744  35.286  42.874  13.493
27320W        W99745  34.125  39.612  14.417
27321W        W99746   3.842  40.238   1.823
27322W        W99747  35.500  15.921   2.831
27323W        W99748  10.833   6.373  14.457
27324W        W99749  21.426  37.829   2.093
27325W        W99750   0.774  22.294  12.578
27326W        W99751  14.669  20.095   1.834
27327W        W99752  28.165  44.055  14.513
27328W        W99753  24.234   3.611   2.707
27329W        W99754   0.169  23.233  12.984
27330W        W99755   8.059  20.254  12.181
27331W        W99756  37.171  33.979   3.662
27332W        W99757  17.311  43.233   1.743
27333W        W99758  17.853   6.758  10.459
27334W        W99759   3.355  26.243  11.439
27335W        W99760  42.925   7.655   3.788
27336W        W99761  11.799  13.752   1.467
27337W        W99762  12.154  30.142  14.981
27338W        W99763  33.856  33.110  12.972
27339W        W99764  24.733  21.591  14.405
27340W        W99765   7.660  24.190   0.103
27341W        W99766   6.761  23.553   2.627
27342W        W99767   9.377  27.385  11.160
27343W        W99768  20.705  18.551   2.192
27344W        W99769  36.273  43.362  14.823
27345W        W99770  21.074  27.720   2.842
27346W        W99771   4.253  38.952  10.913
27347W        W99772   0.893   1.916  12.585
27348W        W99773   9.380  28.290  10.336
27349W        W99774  29.611   2.902  13.321
27350W        W99775  34.512  25.597  11.354
27351W        W99776   2.416  40.955  11.634
27352W        W99777  38.378  36.878   4.640
27353W        W99778   8.731  13.602  11.660
27354W        W99779  21.244  21.555   1.705
27355W        W99780  13.035  15.309  12.867
27356W        W99781   8.800  19.235  14.868
27357W        W99782  10.226  39.416  10.678
27358W        W99783  26.455  14.405  10.671
27359W        W99784  10.390   2.571  10.992
27360W        W99785  33.576  20.012   4.539
27361W        W99786  36.510  42.982   2.390
27362W        W99787  34.429   6.181   3.572
27363W        W99788   8.351  40.886   4.339
27364W        W99789  23.875  35.100  11.342
27365W        W99790   0.229   7.561   0.338
27366W        W99791  13.542   2.034   3.673
27367W        W99792  38.483  20.116  10.957
27368W        W99793   7.366   8.897  12.946
27369W        W99794   2.923  40.994  11.669
27370W        W99795  10.132  22.665   0.457
27371W        W99796  17.070  25.171  14.891
27372W        W99797  29.958   9.595  12.487
27373W        W99798  21.568  21.225   3.209
27374W        W99799  14.377  31.002  11.493
27375W        W99800  38.422  43.979  10.658
27376W        W99801  12.645  32.707  12.852
27377W        W99802  15.739  10.238  10.829
27378W        W99803  31.957   3.637  14.533
27379W        W99804   9.303  23.065   0.480
27380W        W99805  23.560  23.712  13.358
27381W        W99806   8.665   6.646   3.675
27382W        W99807  26.059  42.275   4.059
27383W        W99808  37.519  25.918   3.478
27384W        W99809  44.684   3.950   2.677
27385W        W99810  36.394  23.440   1.436
27386W        W99811   9.048  11.901   2.363
27387W        W99812  42.384   7.380  14.920
27388W        W99813  36.901  21.108   0.016
27389W        W99814   2.412  33.542  11.674
27390W        W99815   9.423   0.749  14.803
27391W        W99816   9.845  24.942  12.194
27392W        W99817  24.793  14.319  14.002
27393W        W99818  18.247  30.197   1.365
27394W        W99819  37.012   5.368   0.792
27395W        W99820  25.409  18.985  14.464
27396W        W99821  18.068  42.006  10.473
27397W        W99822   1.838  28.367   4.530
27398W        W99823  15.672  38.960   2.882
27399W        W99824  43.592   0.702  12.009
27400W        W99825  16.142   7.368  14.707
27401W        W99826  44.774  35.786   0.880
27402W        W99827  18.238  16.666  13.071
27403W        W99828  41.066  17.271   2.540
27404W        W99829   0.974  16.781  12.128
27405W        W99830  29.884   3.816  13.774
27406W        W99831  42.800  25.021  12.313
27407W        W99832   5.464  36.988   0.888
27408W        W99833  41.330   0.504  14.207
27409W        W99834  33.294  18.080  14.217
27410W        W99835  11.427  40.855   1.638
27411W        W99836  32.092  22.186   1.380
27412W        W99837  16.523  37.564  11.868
27413W        W99838   2.628  34.486   0.328
27414W        W99839  39.508  21.943  10.719
27415W        W99840  22.787  20.093   1.854
27416W        W99841  31.814  16.564   0.164
27417W        W99842   1.004   2.178   0.153
27418W        W99843  44.151  12.192   2.911
27419W        W99844  32.664  37.384   2.784
27420W        W99845  20.840  17.614  11.348
27421W        W99846   9.686   4.621  10.248
27422W        W99847  21.274  10.772   4.667
27423W        W99848  10.820  36.891  12.363
27424W        W99849  40.366  39.270  14.974
27425W        W99850  37.005   7.917  14.019
27426W        W99851  23.049  34.134   0.215
27427W        W99852  25.716  24.425  13.051
27428W        W99853  35.550  27.082   1.377
27429W        W99854  13.343  20.123  14.412
27430W        W99855  18.167  17.780  14.771
27431W        W99856  38.905  37.375  11.035
27432W        W99857  17.315  41.412  10.736
27433W        W99858  20.722  35.878  14.546
27434W        W99859  37.842   9.973   3.647
27435W        W99860   9.674  18.142   4.426
27436W        W99861  15.978  24.095   3.738
27437W        W99862  38.955   9.333   0.284
27438W        W99863  28.166  24.698  14.706
27439W        W99864   1.079  37.323   3.235
27440W        W99865   6.548  15.255  14.060
27441W        W99866  23.570  13.524   2.296
27442W        W99867  44.816  31.012   2.136
27443W        W99868  36.851   5.411  10.954
27444W        W99869   7.478  38.908  13.215
27445W        W99870  22.636  34.124  12.040
27446W        W99871  21.013  25.859   0.963
27447W        W99872  27.917  17.034   2.330
27448W        W99873   8.832  23.776   3.753
27449W        W99874  29.076  13.248   1.238
27450W        W99875   7.613  26.928   0.489
27451W        W99876  30.899  19.974   4.228
27452W        W99877  30.496  13.741   1.834
27453W        W99878  18.276  14.281  14.410
27454W        W99879  13.058  20.085  13.338
27455W        W99880   6.947  17.706  10.702
27456W        W99881   4.968  35.590  11.887
27457W        W99882  19.715   6.165   4.699
27458W        W99883  35.892  41.435   1.351
27459W        W99884  17.773  10.557  10.344
27460W        W99885   2.851   0.521   4.881
27461W        W99886   6.277  40.569  11.507
27462W        W99887   4.796  31.918  11.519
27463W        W99888   8.885   7.670  12.335
27464W        W99889  38.184  16.581   1.696
27465W        W99890  32.356  26.965   3.127
27466W        W99891  41.908  31.147  13.942
27467W        W99892   4.676  28.516  13.476
27468W        W99893  31.553  30.387  14.903
27469W        W99894   7.267  14.206   2.890
27470W        W99895  38.535  27.679   4.481
27471W        W99896  33.201  18.589  14.277
27472W        W99897  36.005  29.877  13.360
27473W        W99898  16.279   4.031  13.547
27474W        W99899  27.655  25.273   2.323
27475W        W99900  38.164   1.386  10.330
27476W        W99901  43.533  21.653   1.364
27477W        W99902  38.359  14.049  11.697
27478W        W99903  35.151  20.153   4.545
27479W        W99904  15.272  32.618  12.489
27480W        W99905  30.496  34.618  12.607
27481W        W99906  15.308  34.743   4.123
27482W        W99907   1.725  13.602   1.055
27483W        W99908  16.214  12.778   0.449
27484W        W99909  44.410   7.155   0.046
27485W        W99910  15.014  30.932  12.003
27486W        W99911  14.194  32.668  10.648
27487W        W99912  25.143  23.831  14.858
27488W        W99913  36.807  40.557   3.720
27489W        W99914   4.819  14.810   1.799
27490W        W99915  33.454  31.601  11.052
27491W        W99916   6.393  23.932   9.888
27492W        W99917  23.031  30.138  14.851
27493W        W99918   1.800  32.671  10.862
27494W        W99919  19.451  35.826  12.433
27495W        W99920  17.172  44.029  11.518
27496W        W99921  43.052  26.417  12.854
27497W        W99922   5.209   6.944  11.880
27498W        W99923  10.293  24.619   4.673
27499W        W99924  16.017  34.528   0.754
27500W        W99925  12.719  43.806  13.162
27501W        W99926  24.507  12.329   1.338
27502W        W99927  15.175  15.381  14.000
27503W        W99928  41.352  36.914  11.562
27504W        W99929   4.019  36.141   3.292
27505W        W99930  26.844  29.060  10.577
27506W        W99931  44.003  21.068  12.619
27507W        W99932  35.492   9.205   4.831
27508W        W99933   2.590  41.556   2.186
27509W        W99934  19.011  25.179   1.619
27510W        W99935  39.005  17.226   0.852
27511W        W99936  41.843  24.633  12.238
27512W        W99937  38.428   8.343   0.981
27513W        W99938  23.439  21.719  13.091
27514W        W99939  17.782  35.453   4.597
27515W        W99940  11.594  16.244   0.758
27516W        W99941  42.072  24.681  14.819
27517W        W99942  39.499  24.700  13.973
27518W        W99943  10.062  37.299   3.645
27519W        W99944  35.373  17.608  12.922
27520W        W99945  12.063  27.159  11.072
27521W        W99946   1.491  36.849   0.338
27522W        W99947  29.006   5.419  14.038
27523W        W99948   3.691  12.192  14.379
27524W        W99949  43.280   1.874   1.913
27525W        W99950   9.279  40.744   4.137
27526W        W99951   1.183   0.835   4.671
27527W        W99952   0.031   6.188  12.672
27528W        W99953  25.741   5.842  13.825
27529W        W99954  26.164  36.417  12.021
27530W        W99955  18.621  12.073  13.133
27531W        W99956  38.056  14.337   0.708
27532W        W99957  39.705  31.644  11.242
27533W        W99958  36.553  11.557   1.499
27534W        W99959   5.343  39.268  12.089
27535W        W99960   4.408  31.788  11.845
27536W        W99961  23.103  35.971  11.268
27537W        W99962  23.171   6.675  10.732
27538W        W99963  33.858  28.433   0.766
27539W        W99964  24.613  16.191  10.563
27540W        W99965   0.229  41.782   1.236
27541W        W99966   3.344  37.958   3.551
27542W        W99967  16.621  40.820   0.217
27543W        W99968  38.857  25.980  12.537
27544W        W99969  18.396   3.945  13.486
27545W        W99970  44.722  42.153   4.643
27546W        W99971   7.630  39.356  10.631
27547W        W99972  34.139  20.587   1.822
27548W        W99973  34.637  17.840  13.352
27549W        W99974  15.328  38.181   1.401
27550W        W99975   1.597   0.398  11.387
27551W        W99976   8.681  36.900   1.183
27552W        W99977  25.792  30.095   2.751
27553W        W99978  42.861  43.903   2.789
27554W        W99979  32.419  32.850  12.976
27555W        W99980  30.557  22.990   1.939
27556W        W99981  17.012  40.504   3.180
27557W        W99982   2.497  11.950  12.594
27558W        W99983  39.453   1.661   4.237
27559W        W99984  11.676  33.119   3.889
27560W        W99985  21.515   0.841   4.436
27561W        W99986  25.479  36.294  11.675
27562W        W99987  41.604  44.299  10.182
27563W        W99988   1.749  44.087   0.919
27564W        W99989  40.327  28.890  10.787
27565W        W99990  33.859   5.445   4.256
27566W        W99991  41.379   8.854  11.486
27567W        W99992  24.123  24.267  10.831
27568W        W99993  42.450  21.659  13.778
27569W        W99994  39.337  28.599   4.394
27570W        W99995  42.857  40.852   4.587
27571W        W99996  20.366  15.687  11.572
27572W        W99997  30.954  39.558   5.064
27573W        W99998  34.622  19.201  11.669
27574W        W99999  35.090  29.977  14.848
27575W        W    0  42.752  44.509   3.466
27576W        W    1  11.349  33.290   2.784
27577W        W    2  11.332  34.096   4.780
27578W        W    3  28.153  29.276  14.238
27579W        W    4  32.675  42.757   4.180
27580W        W    5  25.534  43.343  12.252
27581W        W    6  29.382   7.377   1.485
27582W        W    7   2.306  23.758   3.862
27583W        W    8  27.612   7.162   5.131
27584W        W    9  34.113   9.202  12.317
27585W        W   10  34.337   1.431   3.781
27586W        W   11  21.022  23.209  12.976
27587W        W   12  37.131  34.393   1.034
27588W        W   13  21.670  44.459   0.515
27589W        W   14  42.269  29.897  14.061
27590W        W   15   0.740  20.163   3.623
27591W        W   16  42.392  33.968  13.240
27592W        W   17  34.918  26.401  11.521
27593W        W   18  37.588  34.991  14.888
27594W        W   19  19.164   7.814  12.944
27595W        W   20  44.834  18.078  13.550
27596W        W   21   3.172  36.001  11.188
27597W        W   22   6.620   7.649  10.475
27598W        W   23  44.599  40.279   1.767
27599W        W   24   5.805  14.619   4.766
27600W        W   25  32.103  43.499   2.748
27601W        W   26  22.069   1.911  14.867
27602W        W   27  10.775  17.315  13.584
27603W        W   28   4.609   7.363   2.266
27604W        W   29   7.976  20.470  14.766
27605W        W   30  24.597   2.973   3.359
27606W        W   31   8.153   8.965   4.718
27607W        W   32  14.827  26.839  14.732
27608W        W   33  17.858  34.046   0.516
27609W        W   34  10.282  35.823  13.597
27610W        W   35   4.325  18.835  13.950
27611W        W   36  10.162  39.812   2.204
27612W        W   37  19.728  11.194   2.541
27613W        W   38   2.198   8.149   3.406
27614W        W   39  15.603  41.324   3.163
27615W        W   40   2.554   6.786   3.241
27616W        W   41  24.565  41.877   3.175
27617W        W   42  17.154   7.198   1.301
27618W        W   43  13.784  14.909   0.298
27619W        W   44   6.679  13.533   0.461
27620W        W   45  25.784  19.791   1.777
27621W        W   46   7.223   5.440  14.042
27622W        W   47  33.158  34.883   4.209
27623W        W   48  31.066   2.284  14.232
27624W        W   49  41.031  19.976   3.612
27625W        W   50  27.411  21.831  14.399
27626W        W   51   5.370  44.221   4.804
27627W        W   52  23.847   0.251  14.673
27628W        W   53  38.757  39.435   1.263
27629W        W   54   1.537  27.049   0.965
27630W        W   55  13.783  23.303  12.821
27631W        W   56  34.323  11.300  11.521
27632W        W   57  23.375  27.220   3.867
27633W        W   58   1.839  11.724   1.795
27634W        W   59  15.245  28.594   2.998
27635W        W   60   9.744   2.498  14.857
27636W        W   61  13.342  24.243   0.262
27637W        W   62  37.575  12.821  12.562
27638W        W   63  16.289  22.196   1.140
27639W        W   64  40.951  28.124   4.597
27640W        W   65  13.644   2.973   4.428
27641W        W   66   0.237  16.033  12.267
27642W        W   67  13.049  37.543  11.992
27643W        W   68  12.621  35.455   4.577
27644W        W   69  35.595  41.529   2.330
27645W        W   70  44.127  14.796   1.777
27646W        W   71   7.719   3.742   3.436
27647W        W   72  16.003  36.435  12.549
27648W        W   73  11.145   2.776   5.656
27649W        W   74  37.197  28.138  13.769
27650W        W   75   0.561  35.127   3.662
27651W        W   76  19.213  21.448  11.137
27652W        W   77  26.984  31.911  13.876
27653W        W   78   5.532  34.670  13.875
27654W        W   79  37.472  41.062   3.492
27655W        W   80  13.594  31.857  13.041
27656W        W   81  44.397  30.700   1.976
27657W        W   82  36.160  43.136   0.302
27658W        W   83  15.020  19.184  11.032
27659W        W   84  30.972  33.578   2.528
27660W        W   85  27.500  26.122  14.321
27661W        W   86  42.456  33.982  13.961
27662W        W   87  17.102   5.922   4.767
27663W        W   88  34.460  14.242  13.824
27664W        W   89  20.722  27.547   0.785
27665W        W   90  11.343  15.082   3.497
27666W        W   91   6.861  42.039   2.402
27667W        W   92  36.481  16.115  14.066
27668W        W   93   9.477  20.955  13.528
27669W        W   94   5.400  40.979  14.338
27670W        W   95   8.259  11.087   3.614
27671W        W   96   1.002  22.290   0.945
27672W        W   97  42.367  23.161   4.272
27673W        W   98  24.921  36.807   2.199
27674W        W   99   1.512  41.975   4.154
27675W        W  100  37.264  24.965  11.177
27676W        W  101  28.900  39.004   9.715
27677W        W  102  22.443   4.277   2.413
27678W        W  103  31.124  31.399   1.337
27679W        W  104  39.484  22.832   0.772
27680W        W  105  20.195  11.017   2.355
27681W        W  106   4.035   4.785  10.874
27682W        W  107  40.988  26.105  14.416
27683W        W  108  31.396   0.115  11.861
27684W        W  109  14.808  17.431   2.720
27685W        W  110  13.621  33.523   3.586
27686W        W  111   8.674  25.716   5.144
27687W        W  112  25.729   1.161   4.176
27688W        W  113  13.852   1.435   1.944
27689W        W  114  24.202   6.660   2.746
27690W        W  115  33.607   6.295   3.962
27691W        W  116  41.649   9.194   4.520
27692W        W  117  42.015   3.590   2.821
27693W        W  118  44.447  21.016   3.214
27694W        W  119  20.089  15.299  10.872
27695W        W  120  28.631   8.541  12.365
27696W        W  121  19.497  19.107   2.835
27697W        W  122   4.852   2.748  14.281
27698W        W  123  30.314  37.856  12.899
27699W        W  124   2.540  37.049   4.568
27700W        W  125  33.685  37.342   3.616
27701W        W  126  31.828  26.874   4.837
27702W        W  127   6.606   4.397  12.587
27703W        W  128   2.085  16.768  10.624
27704W        W  129   1.412  36.876   1.456
27705W        W  130   9.765   9.043  11.592
27706W        W  131   0.282  12.574  11.687
27707W        W  132   0.839  30.475  13.744
27708W        W  133  28.144  35.263   3.619
27709W        W  134   2.869  16.130   3.575
27710W        W  135  38.992   0.268  13.387
27711W        W  136  14.991   3.963   4.119
27712W        W  137  28.635  11.335   2.743
27713W        W  138  26.486  35.310   2.312
27714W        W  139   4.658   4.892   2.251
27715W        W  140   0.226  30.118  11.492
27716W        W  141  11.342  12.679  12.862
27717W        W  142  41.347  30.628   0.417
27718W        W  143  39.791  31.975   0.287
27719W        W  144  26.479  39.579   3.750
27720W        W  145   7.850  35.318   4.713
27721W        W  146  39.768   2.368   3.670
27722W        W  147  14.392   1.033   4.177
27723W        W  148  33.554   0.685  10.852
27724W        W  149  13.125  37.053   5.127
27725W        W  150  40.398  21.112   1.430
27726W        W  151  16.712  38.531   3.261
27727W        W  152  44.442   8.189   5.016
27728W        W  153  19.736  31.818  11.689
27729W        W  154   3.742   7.354   4.894
27730W        W  155  26.983  44.984   1.015
27731W        W  156  24.436   9.452  10.626
27732W        W  157  38.483  28.597  12.856
27733W        W  158   7.063   2.994   4.114
27734W        W  159  10.876   0.525   2.735
27735W        W  160  32.119  30.644   1.685
27736W        W  161   5.677  30.572   0.305
27737W        W  162  28.045  33.332  11.030
27738W        W  163  32.985  38.545   2.141
27739W        W  164  38.624  19.793  12.168
27740W        W  165  13.809  44.480   4.791
27741W        W  166  32.260  30.256   0.197
27742W        W  167  35.617  11.064  11.939
27743W        W  168  31.772  30.150   0.315
27744W        W  169  19.967  30.492  12.060
27745W        W  170   3.269  30.170   3.176
27746W        W  171  31.892  32.729  14.881
27747W        W  172  37.777  32.675  10.790
27748W        W  173  11.042  15.811   3.277
27749W        W  174   4.826   2.501   4.217
27750W        W  175  12.582  14.678  12.487
27751W        W  176  18.694  16.328  10.785
27752W        W  177  25.947  15.503  11.398
27753W        W  178  38.735  27.729  10.215
27754W        W  179  15.847  34.779   1.693
27755W        W  180   5.197  25.013   1.720
27756W        W  181   2.441  12.845   2.342
27757W        W  182  23.625   6.453  14.939
27758W        W  183  14.646   8.162   4.298
27759W        W  184  11.378  39.948   1.168
27760W        W  185  39.051  34.540  13.987
27761W        W  186   2.394  36.301   0.419
27762W        W  187  16.364  35.017  11.230
27763W        W  188  41.031  28.141   2.273
27764W        W  189   0.802  24.171   1.309
27765W        W  190  37.589  33.618  13.598
27766W        W  191  22.014  35.315   3.420
27767W        W  192  21.038   0.307   2.794
27768W        W  193  31.389  25.704  14.313
27769W        W  194  38.916  28.724  14.594
27770W        W  195   7.365  37.638   0.743
27771W        W  196  36.016  26.245  13.108
27772W        W  197   1.487  17.824  13.021
27773W        W  198  14.165  19.083   1.344
27774W        W  199  14.909   5.246  13.071
27775W        W  200   4.902  30.110   0.585
27776W        W  201   1.418  19.541  14.263
27777W        W  202  33.326  24.494   4.149
27778W        W  203  33.579  30.882   2.212
27779W        W  204  18.971  14.846  12.470
27780W        W  205  27.082  26.073  11.132
27781W        W  206  16.222  39.377   3.257
27782W        W  207  12.359  34.085  13.988
27783W        W  208  13.422   3.890   9.810
27784W        W  209  27.960  42.861  10.723
27785W        W  210  27.417   4.955   2.856
27786W        W  211  33.068  39.343   4.871
27787W        W  212   2.760  17.964   0.435
27788W        W  213  18.643   9.078   3.868
27789W        W  214   4.423   6.151  14.469
27790W        W  215   1.367  29.231   3.742
27791W        W  216  38.257  11.738  13.816
27792W        W  217   5.673  23.668   1.146
27793W        W  218  31.889   2.750   4.300
27794W        W  219  10.403   4.413   4.082
27795W        W  220  17.224   8.931   0.792
27796W        W  221  20.115   0.570  14.845
27797W        W  222   4.700  13.293  12.879
27798W        W  223  28.884  22.762   0.683
27799W        W  224   3.570   4.464  11.714
27800W        W  225  13.334   2.257  12.929
27801W        W  226  40.071  33.014   4.817
27802W        W  227   1.419   6.148   2.902
27803W        W  228  32.444  27.157  11.464
27804W        W  229  38.133  24.453   3.623
27805W        W  230  42.104  12.679   0.531
27806W        W  231   4.869  26.954  14.389
27807W        W  232  20.968  15.584  11.172
27808W        W  233  15.836  42.498   2.750
27809W        W  234  11.061  28.016   0.752
27810W        W  235  12.366   2.713   3.615
27811W        W  236  24.012  27.139   1.676
27812W        W  237   0.212  15.906   0.479
27813W        W  238  39.561  40.095  13.952
27814W        W  239   7.260  23.523  13.499
27815W        W  240  24.702   5.471  14.577
27816W        W  241  28.593  42.947  12.025
27817W        W  242   0.979   0.828   3.321
27818W        W  243  44.192  29.523  11.703
27819W        W  244  11.178  11.169   4.152
27820W        W  245  17.011  38.608   0.509
27821W        W  246  42.080  18.075   2.675
27822W        W  247  35.803  20.044  14.987
27823W        W  248   0.157  22.720  12.927
27824W        W  249  23.719  37.703  14.444
27825W        W  250  42.936  15.549   4.603
27826W        W  251  31.216   3.647   0.816
27827W        W  252   4.496  28.987  11.664
27828W        W  253  28.334  20.676  12.185
27829W        W  254   3.511  16.063  10.680
27830W        W  255   9.824   0.982  13.478
27831W        W  256  14.834  24.394  12.441
27832W        W  257   7.698  28.059   0.143
27833W        W  258   1.728  23.907  13.851
27834W        W  259  24.477  37.143   3.292
27835W        W  260   7.400   3.212   2.413
27836W        W  261  42.485   1.244   3.071
27837W        W  262  27.603  10.377  14.286
27838W        W  263  39.043  23.003   2.783
27839W        W  264  39.885  23.534   1.067
27840W        W  265  19.551  21.789  12.636
27841W        W  266   4.415  28.615  11.331
27842W        W  267  31.154  39.940   1.057
27843W        W  268  14.828  43.261   2.708
27844W        W  269  14.524  39.542   1.388
27845W        W  270   3.822  33.371   4.539
27846W        W  271   6.963   3.290   0.863
27847W        W  272  16.129   4.400   2.755
27848W        W  273  38.299  41.698  10.239
27849W        W  274  21.578   4.477  11.897
27850W        W  275  16.246  39.896  10.797
27851W        W  276   1.776   8.700  11.687
27852W        W  277  15.951   9.524   0.504
27853W        W  278  29.648  36.757   0.485
27854W        W  279  28.598  24.331   5.110
27855W        W  280  41.750   4.407  12.394
27856W        W  281   2.136  21.957  12.033
27857W        W  282  21.753   4.196  12.295
27858W        W  283   6.088   3.187   4.181
27859W        W  284  34.158   0.016   3.686
27860W        W  285  10.629  13.115   1.960
27861W        W  286  20.040  14.701   0.942
27862W        W  287  19.324  17.368   2.208
27863W        W  288  31.133  25.247   5.078
27864W        W  289  27.204  11.562  14.769
27865W        W  290  43.696   4.266  11.503
27866W        W  291  14.388  33.848   0.398
27867W        W  292   8.328  18.334   4.400
27868W        W  293   7.513  36.090  13.071
27869W        W  294  17.290  16.579   2.885
27870W        W  295   9.242  22.962   1.432
27871W        W  296  42.978  41.208   1.005
27872W        W  297  39.878  20.254  12.638
27873W        W  298  40.421  32.864  11.465
27874W        W  299  44.213  35.978   2.169
27875W        W  300  26.271  40.379   4.168
27876W        W  301   2.013  32.987   4.148
27877W        W  302   3.698  39.412   0.609
27878W        W  303   8.076  22.026  13.010
27879W        W  304   8.225  41.289  10.717
27880W        W  305  23.990  17.894  13.978
27881W        W  306  17.306  14.840  11.964
27882W        W  307  30.843  16.711   4.554
27883W        W  308  16.140  13.103   1.771
27884W        W  309  25.468  24.158   0.516
27885W        W  310  10.175  24.500   0.133
27886W        W  311   9.845  34.401  10.916
27887W        W  312   7.594  25.741  14.284
27888W        W  313  31.640  23.651   4.377
27889W        W  314   9.682  24.654   1.839
27890W        W  315  24.727  10.204   3.934
27891W        W  316   6.423  21.685   4.382
27892W        W  317  41.147  33.991  14.502
27893W        W  318  27.990  36.042  11.490
27894W        W  319  14.631   7.214   1.735
27895W        W  320  39.084  17.724  11.651
27896W        W  321  28.501   9.450  12.527
27897W        W  322  41.606  22.010   0.580
27898W        W  323  24.729  31.112  10.224
27899W        W  324  18.580  42.508   0.037
27900W        W  325  23.541  40.034   3.729
27901W        W  326   8.354   0.435   2.181
27902W        W  327  27.058   7.937   3.215
27903W        W  328  19.470  18.584  11.118
27904W        W  329  30.683  40.451   2.618
27905W        W  330  36.887  40.798   4.184
27906W        W  331  16.123   1.267   4.800
27907W        W  332  28.021  11.687  12.397
27908W        W  333  42.270   3.294   3.627
27909W        W  334   7.134  18.697  10.964
27910W        W  335  35.560  33.384   0.676
27911W        W  336  38.807   2.251  11.984
27912W        W  337   8.116   1.483   4.158
27913W        W  338  12.569  18.538   1.546
27914W        W  339  28.611  32.236   3.655
27915W        W  340  42.340  31.971   0.274
27916W        W  341  25.021  32.572   4.603
27917W        W  342  36.646  23.674   3.079
27918W        W  343  40.428  31.616   2.868
27919W        W  344  35.350  34.884   3.109
27920W        W  345  20.723  28.159  10.663
27921W        W  346   1.400  34.884   0.471
27922W        W  347  23.907  37.695   1.221
27923W        W  348   3.677  41.033   0.379
27924W        W  349  33.112   8.954   1.920
27925W        W  350   2.001   5.203  13.920
27926W        W  351  29.776  38.918   1.646
27927W        W  352   4.296  13.229  14.013
27928W        W  353   3.668   4.998   0.361
27929W        W  354  10.203   0.022   1.410
27930W        W  355  36.941  28.456   4.090
27931W        W  356  32.006  24.799   0.810
27932W        W  357  43.349   9.814  13.395
27933W        W  358  28.206   0.140   1.834
27934W        W  359  30.013   6.124  11.589
27935W        W  360  36.793  39.967   1.771
27936W        W  361   4.898  16.437  12.786
27937W        W  362   4.047  15.660   0.871
27938W        W  363   3.495  35.996   3.325
27939W        W  364   9.758  32.488   1.174
27940W        W  365  31.830  20.280  10.694
27941W        W  366   4.903  28.555  10.583
27942W        W  367   3.759  20.580  10.685
27943W        W  368  11.811  26.267   3.793
27944W        W  369  27.967   4.341  11.423
27945W        W  370  19.515  40.927  14.165
27946W        W  371  17.285  33.210   0.348
27947W        W  372   0.886  27.415  14.389
27948W        W  373  35.991  34.091  12.564
27949W        W  374  18.340  13.207   3.246
27950W        W  375  40.270  41.519   0.422
27951W        W  376  20.667  38.543   3.625
27952W        W  377  42.257  12.164   4.636
27953W        W  378  28.055   5.837   3.613
27954W        W  379   7.752  24.495   3.387
27955W        W  380  19.334  27.214   0.305
27956W        W  381  31.669  25.077   4.203
27957W        W  382   8.266   1.765  11.227
27958W        W  383  19.628  19.943   3.096
27959W        W  384  20.503  19.261   2.840
27960W        W  385  20.050  41.554  11.194
27961W        W  386  33.646  29.436   0.971
27962W        W  387   4.082  28.455   2.725
27963W        W  388   1.032  32.039  14.614
27964W        W  389  12.153  40.471   3.177
27965W        W  390  12.838  37.891  13.164
27966W        W  391  37.014  11.159   4.857
27967W        W  392  28.993   0.285   2.036
27968W        W  393  15.795   6.922  12.853
27969W        W  394  17.739  40.591   3.660
27970W        W  395  20.995  19.706   4.398
27971W        W  396  22.438  11.300   4.217
27972W        W  397  40.103  31.535  12.518
27973W        W  398  37.565  44.323  11.190
27974W        W  399  25.515  35.534   4.353
27975W        W  400  16.783  10.765   4.642
27976W        W  401  26.989  18.712  13.783
27977W        W  402   9.237   4.939   2.861
27978W        W  403  18.703  34.023   3.000
27979W        W  404  32.141  35.047  12.336
27980W        W  405  18.975  29.210  12.218
27981W        W  406  38.476  21.232  13.626
27982W        W  407  11.461  17.661  10.187
27983W        W  408  16.854  41.045   4.214
27984W        W  409  32.224  31.200  11.044
27985W        W  410  18.686  24.022  12.811
27986W        W  411  28.026  34.119  10.598
27987W        W  412   0.987   1.473   0.762
27988W        W  413  43.076  44.818   4.305
27989W        W  414  41.452  30.529   0.959
27990W        W  415  44.731  24.118  14.376
27991W        W  416  22.209  42.517   2.266
27992W        W  417  26.700  42.658  11.771
27993W        W  418  23.574  19.359   4.663
27994W        W  419  32.053   2.993   4.750
27995W        W  420   6.245  11.276   0.513
27996W        W  421  37.992   8.097   9.763
27997W        W  422   2.906  36.784  12.132
27998W        W  423   2.862  32.512   4.454
27999W        W  424   0.014   4.494   3.738
28000W        W  425  33.059   5.972   2.235
28001W        W  426  13.095  10.324   3.877
28002W        W  427   0.808   3.331  11.103
28003W        W  428  16.129  38.245   0.325
28004W        W  429  35.401  11.396   0.747
28005W        W  430  12.388   7.706  12.957
28006W        W  431  35.174  17.547   2.972
28007W        W  432  40.040  15.378   0.778
28008W        W  433  16.347  30.687   1.953
28009W        W  434  40.265   3.178  12.110
28010W        W  435  36.298  23.513  13.488
28011W        W  436  41.828  39.402   1.930
28012W        W  437   7.676  33.580   0.270
28013W        W  438  26.420   7.717  10.837
28014W        W  439  40.089  27.929  12.110
28015W        W  440  16.038  10.513   0.004
28016W        W  441  32.234  43.012   4.138
28017W        W  442  34.905  32.541  12.942
28018W        W  443  40.019  14.788   2.637
28019W        W  444  24.496  11.724  10.939
28020W        W  445  17.328  19.679  12.596
28021W        W  446   1.686  36.517  14.989
28022W        W  447  32.101  31.131   1.237
28023W        W  448  30.136  35.480  14.504
28024W        W  449  18.413   6.775   4.274
28025W        W  450  35.091  43.365  14.302
28026W        W  451  17.679  33.936  13.294
28027W        W  452  18.861  19.174   1.897
28028W        W  453  17.840  33.473  13.091
28029W        W  454  17.651   0.941  14.239
28030W        W  455  19.432  31.735  12.150
28031W        W  456  38.856  40.815  10.526
28032W        W  457  37.362  18.010   3.234
28033W        W  458  28.527  44.974   0.821
28034W        W  459  39.623  41.869   1.878
28035W        W  460  23.239  16.946  11.006
28036W        W  461  39.641   9.369  11.080
28037W        W  462  39.857  29.657   0.455
28038W        W  463   8.224  14.037   1.846
28039W        W  464  34.417   5.423   3.379
28040W        W  465  39.474  39.236  11.718
28041W        W  466   0.238  39.988   0.755
28042W        W  467   0.229  43.225  14.001
28043W        W  468   1.301   4.987   2.123
28044W        W  469  38.787  15.236  13.481
28045W        W  470   1.217  41.372   2.680
28046W        W  471  37.425  15.321   2.792
28047W        W  472  22.275  31.436   4.556
28048W        W  473  42.532  16.013   1.884
28049W        W  474   8.643   2.640   2.845
28050W        W  475  20.018  26.039  11.981
28051W        W  476  37.935  33.953  11.613
28052W        W  477   5.910   9.456  14.151
28053W        W  478  42.421  44.284   2.803
28054W        W  479  40.324   8.737   1.290
28055W        W  480  23.273  27.746   4.636
28056W        W  481   3.880   3.221  10.438
28057W        W  482  26.613  38.317  13.787
28058W        W  483   4.172  36.752  14.945
28059W        W  484  42.450  35.051  13.874
28060W        W  485  14.816  32.606   3.737
28061W        W  486   6.826  27.784   4.303
28062W        W  487  37.271   9.608  10.064
28063W        W  488  34.573  20.890  10.576
28064W        W  489   0.793   4.160   4.215
28065W        W  490  28.908  13.411  11.798
28066W        W  491   8.274  35.601   4.266
28067W        W  492  41.956  22.520  11.189
28068W        W  493  25.485  37.895  14.987
28069W        W  494   1.359  22.084  13.779
28070W        W  495  40.839   0.397   2.463
28071W        W  496  42.078  35.191  14.769
28072W        W  497  33.938  28.376  13.582
28073W        W  498  32.782  38.988   0.752
28074W        W  499   6.242  10.808  11.750
28075W        W  500  11.707  35.635   2.728
28076W        W  501  41.233  27.772  11.137
28077W        W  502  34.025  17.774   1.371
28078W        W  503  13.227   9.662   3.004
28079W        W  504   5.106  31.979  13.509
28080W        W  505  41.929  31.916  10.639
28081W        W  506   1.184  16.262   1.690
28082W        W  507  30.584  16.848   1.887
28083W        W  508   2.533   3.165  11.759
28084W        W  509   1.289  22.981  11.657
28085W        W  510   1.996  16.690  14.180
28086W        W  511  25.851  29.446   5.379
28087W        W  512  37.794   4.335   1.835
28088W        W  513  32.019   7.795  12.506
28089W        W  514  12.709   9.496  13.069
28090W        W  515  33.421  42.261  12.953
28091W        W  516  33.090  16.685  14.912
28092W        W  517  32.601  31.864  13.022
28093W        W  518  10.869  29.022   2.255
28094W        W  519   0.790  31.709   0.492
28095W        W  520  10.286  36.020   4.333
28096W        W  521   7.303  14.358   0.295
28097W        W  522  32.472  40.903  14.421
28098W        W  523  26.510  43.816   3.026
28099W        W  524  22.587  23.517  11.685
28100W        W  525   9.805  20.325   1.510
28101W        W  526  35.299  13.335   3.752
28102W        W  527  14.755  22.121   5.016
28103W        W  528   9.850  39.183   4.829
28104W        W  529  14.197  32.938   3.110
28105W        W  530  15.121   0.881  13.764
28106W        W  531  35.914   9.358   9.610
28107W        W  532  17.578   8.856   2.662
28108W        W  533  18.206  34.629  14.757
28109W        W  534  39.384  39.387   4.435
28110W        W  535  36.484  18.710  14.015
28111W        W  536  10.780  33.088   2.752
28112W        W  537  44.214  12.395  11.179
28113W        W  538  18.676  31.123  11.188
28114W        W  539  25.221  30.466   2.271
28115W        W  540  24.798   2.583   4.294
28116W        W  541  12.470   3.810   2.795
28117W        W  542  44.357  22.755   0.736
28118W        W  543  11.925  26.959  11.577
28119W        W  544  39.840  40.314   1.340
28120W        W  545  44.343  19.963   4.544
28121W        W  546  15.399  35.104  10.749
28122W        W  547  32.227   9.678   3.568
28123W        W  548  29.873  38.905  10.714
28124W        W  549  44.318  32.347  13.293
28125W        W  550   4.809  31.468   1.485
28126W        W  551  35.063  29.474   5.066
28127W        W  552  36.576  34.520  14.661
28128W        W  553  11.601  21.034  11.122
28129W        W  554  43.724   2.458   4.692
28130W        W  555  38.010  15.245  11.002
28131W        W  556  38.911  15.039   1.438
28132W        W  557  33.633  25.297   5.017
28133W        W  558   5.234  20.950   1.774
28134W        W  559  32.390  37.022  13.452
28135W        W  560  13.825   3.737   2.265
28136W        W  561  39.897  37.315   4.756
28137W        W  562  26.179   5.380  14.635
28138W        W  563  25.964  23.500  10.540
28139W        W  564  24.868  15.560  12.884
28140W        W  565  31.672  41.604   5.245
28141W        W  566  44.225  35.541  12.691
28142W        W  567  10.627  32.555  10.911
28143W        W  568  41.065  12.401   3.212
28144W        W  569  26.256  27.893   0.407
28145W        W  570   4.891   9.682   3.720
28146W        W  571  26.537  34.779  13.114
28147W        W  572  16.778  13.883   2.661
28148W        W  573   3.963   2.609  12.364
28149W        W  574  31.383   0.116   4.052
28150W        W  575  25.454  25.751  14.901
28151W        W  576  27.495   3.647   3.410
28152W        W  577  16.768  30.171  12.502
28153W        W  578  11.605   2.773   5.411
28154W        W  579  10.314  36.394  13.316
28155W        W  580  33.409  42.916   2.349
28156W        W  581  41.038  42.893   1.920
28157W        W  582  18.737  24.150  13.324
28158W        W  583  36.810  10.889  13.097
28159W        W  584  11.175  35.543  14.449
28160W        W  585   8.802   8.859   2.100
28161W        W  586  11.573   4.038  13.989
28162W        W  587  32.113   0.501  10.526
28163W        W  588  35.084  24.965   3.337
28164W        W  589  28.024   8.257   0.204
28165W        W  590  36.033  35.102   2.780
28166W        W  591  18.083  32.436  14.216
28167W        W  592   1.933   9.272  12.519
28168W        W  593   3.054  31.289  12.198
28169W        W  594  35.434  37.831  14.353
28170W        W  595  31.924   3.998   2.380
28171W        W  596  42.798  11.538  14.899
28172W        W  597  30.486  25.487   2.122
28173W        W  598  29.779  10.084   3.722
28174W        W  599   9.431  18.726   2.853
28175W        W  600   7.570  42.526   0.929
28176W        W  601  16.205  32.506   3.433
28177W        W  602  40.281  14.400   1.032
28178W        W  603   3.887   2.312  13.806
28179W        W  604  31.116  16.529  12.891
28180W        W  605  34.547   5.721  11.628
28181W        W  606  31.863   9.198   0.852
28182W        W  607  25.364  15.366   0.281
28183W        W  608   1.518   1.910  11.130
28184W        W  609   8.752  16.801  10.748
28185W        W  610  21.103   1.068   4.205
28186W        W  611   0.421  28.420   2.835
28187W        W  612  28.777  26.045   4.459
28188W        W  613   8.419   8.204  14.426
28189W        W  614   4.401  33.124   3.343
28190W        W  615  30.804  12.554   3.152
28191W        W  616  12.252  22.522   3.628
28192W        W  617  39.413  17.736  14.786
28193W        W  618  12.393  13.613   2.664
28194W        W  619  37.445   3.278  11.559
28195W        W  620  30.582  35.337  14.786
28196W        W  621   5.449  43.413   1.850
28197W        W  622  15.679  27.551  14.444
28198W        W  623  26.292   2.747  13.383
28199W        W  624  11.251  18.378  12.548
28200W        W  625  38.464  17.917   1.170
28201W        W  626   8.328  27.259  14.907
28202W        W  627  33.503  30.805  10.632
28203W        W  628  29.022  36.129   0.723
28204W        W  629  41.734  33.343   2.216
28205W        W  630  37.488  22.126  11.978
28206W        W  631  36.907  36.981  14.264
28207W        W  632   0.891  31.805  10.639
28208W        W  633   2.543   1.207  13.860
28209W        W  634  16.953  10.590   3.284
28210W        W  635  40.982  27.626   2.417
28211W        W  636   2.245  44.490  10.504
28212W        W  637  37.304   4.182  12.110
28213W        W  638  23.686  33.486   2.287
28214W        W  639  32.644  33.879  13.879
28215W        W  640   5.479  35.954  11.095
28216W        W  641  33.293   0.371  11.175
28217W        W  642  14.388  31.859   0.484
28218W        W  643  10.204  35.986   0.164
28219W        W  644  17.255  41.948  10.944
28220W        W  645  39.239  42.000  11.125
28221W        W  646   7.311  31.899  11.944
28222W        W  647  38.306  28.299  12.476
28223W        W  648  13.760  26.176  11.601
28224W        W  649  42.652  28.046   2.909
28225W        W  650  43.533   1.611   1.541
28226W        W  651  32.009  38.973   0.051
28227W        W  652  34.954  32.426   2.389
28228W        W  653  11.833   6.201  14.457
28229W        W  654  19.143   8.948   4.998
28230W        W  655  23.735  35.898   0.830
28231W        W  656  29.436   9.112   0.166
28232W        W  657  38.364  34.355   4.780
28233W        W  658   7.828  36.581  12.465
28234W        W  659   5.152  44.807  12.127
28235W        W  660  20.695   1.345  13.904
28236W        W  661   8.661  10.087   4.573
28237W        W  662  30.973  41.637   3.190
28238W        W  663  19.287  11.199   3.904
28239W        W  664  28.792   7.015   2.342
28240W        W  665  34.522  10.114   1.430
28241W        W  666  38.581  22.749   2.849
28242W        W  667  28.298  10.670   9.993
28243W        W  668  24.020  10.588   3.035
28244W        W  669  40.754  32.651  14.776
28245W        W  670   2.481   1.444  14.340
28246W        W  671  23.724   4.889   1.963
28247W        W  672  39.011  10.682  11.571
28248W        W  673  27.137  41.931  14.825
28249W        W  674  38.761  31.666  12.494
28250W        W  675   9.635   1.858  11.539
28251W        W  676  24.734   2.175  11.386
28252W        W  677  25.346  42.493   2.274
28253W        W  678  30.858  44.920   1.253
28254W        W  679   7.164  23.281  14.560
28255W        W  680  28.847  29.161   0.259
28256W        W  681  11.855  36.799   1.689
28257W        W  682  18.468   1.808  10.089
28258W        W  683  12.447  37.848  14.182
28259W        W  684  43.780   2.504  12.347
28260W        W  685   4.696   5.173  13.397
28261W        W  686  26.701   0.277  12.450
28262W        W  687  19.513  32.571   3.685
28263W        W  688  11.385  16.108  11.861
28264W        W  689  19.573  24.005  11.452
28265W        W  690  22.949   5.222  10.678
28266W        W  691  40.016  40.373  14.754
28267W        W  692  40.563  16.495  11.157
28268W        W  693  10.665  43.466  12.895
28269W        W  694   7.545  36.924   4.298
28270W        W  695   4.232  19.231  11.102
28271W        W  696   9.663  12.627  11.713
28272W        W  697  28.762  17.196  12.885
28273W        W  698  36.729  41.841  13.044
28274W        W  699  32.647   1.386   1.297
28275W        W  700   5.288  10.716   3.651
28276W        W  701  11.510   2.486   0.848
28277W        W  702  15.157  12.381   0.909
28278W        W  703  27.483   0.452  12.858
28279W        W  704  37.920  32.142   0.472
28280W        W  705  33.954  21.956  13.128
28281W        W  706  27.078  15.236  11.530
28282W        W  707   1.043  24.515  13.271
28283W        W  708   1.021  27.876  10.836
28284W        W  709  28.964  27.262  11.611
28285W        W  710  10.620  39.650   1.313
28286W        W  711  30.421  20.633   1.586
28287W        W  712  19.622  44.586  12.443
28288W        W  713  27.070  31.125   2.360
28289W        W  714  12.020   4.109   2.703
28290W        W  715   1.504  44.507   1.867
28291W        W  716  16.110   9.192   4.833
28292W        W  717   0.678  20.858  14.438
28293W        W  718  40.843  22.783   4.550
28294W        W  719  37.963  27.446  13.896
28295W        W  720  20.058  33.879  12.174
28296W        W  721  38.483  24.553  14.465
28297W        W  722  15.614  35.006   1.234
28298W        W  723  14.264  42.332   3.312
28299W        W  724  31.046   1.877   1.951
28300W        W  725  13.384   4.966  14.824
28301W        W  726  15.122   5.950  12.551
28302W        W  727  20.471  13.625  14.834
28303W        W  728  34.554  17.583   3.796
28304W        W  729  17.385   5.422  13.431
28305W        W  730  20.769  33.201  10.697
28306W        W  731  10.640  30.722  13.088
28307W        W  732  44.394   2.273  14.820
28308W        W  733  15.218  11.266   1.379
28309W        W  734  28.014   8.527  11.189
28310W        W  735  27.161  28.002  12.451
28311W        W  736  40.491   5.692  12.522
28312W        W  737  10.596   6.331   0.386
28313W        W  738  24.647  18.798   4.539
28314W        W  739  44.368  23.238   2.779
28315W        W  740  26.949  15.859  13.850
28316W        W  741  25.920   0.949  12.561
28317W        W  742  20.625  28.369  11.130
28318W        W  743  21.623  28.718  11.093
28319W        W  744   7.663  25.624   2.477
28320W        W  745  14.577  29.742   0.750
28321W        W  746  23.765  34.163   4.341
28322W        W  747   1.662  35.984   4.470
28323W        W  748  33.566   2.848   2.425
28324W        W  749  32.538  17.644   1.611
28325W        W  750  35.982  34.176   4.099
28326W        W  751  12.678  23.565   2.374
28327W        W  752  44.002  42.889  10.698
28328W        W  753   6.313  33.347  10.958
28329W        W  754  23.660  36.650   1.765
28330W        W  755  42.025  21.456  13.552
28331W        W  756   5.730  13.830  13.623
28332W        W  757  15.218  34.625  12.578
28333W        W  758  44.822  17.071   0.860
28334W        W  759  11.266  23.033   2.329
28335W        W  760  32.077  13.518   5.088
28336W        W  761   4.694  25.609  11.197
28337W        W  762   8.439  44.930  13.955
28338W        W  763   3.458  32.641   0.362
28339W        W  764   3.661  32.022   1.291
28340W        W  765  22.243  13.840   0.307
28341W        W  766   2.320  37.956   3.292
28342W        W  767  26.860  17.273   0.938
28343W        W  768  44.920  41.444   0.971
28344W        W  769  44.517   3.321   1.789
28345W        W  770   5.753   2.511   3.243
28346W        W  771  22.107  41.056   3.389
28347W        W  772   9.380   0.174  12.561
28348W        W  773  27.589  41.548   1.464
28349W        W  774  20.168  21.570   1.838
28350W        W  775  30.800  23.849  10.888
28351W        W  776  42.507   9.591  11.086
28352W        W  777  42.990  19.324  14.320
28353W        W  778  23.904  23.017   3.169
28354W        W  779  24.912  44.535   4.579
28355W        W  780   6.413  30.813  14.498
28356W        W  781  38.497   6.348   2.259
28357W        W  782  12.624  21.673  12.654
28358W        W  783   2.278  23.802  13.363
28359W        W  784  26.077  12.078   4.254
28360W        W  785  19.064  24.705   1.843
28361W        W  786  11.351  11.934   0.918
28362W        W  787  31.910  15.554  10.147
28363W        W  788   9.786  38.764   2.620
28364W        W  789  41.380  44.525  14.338
28365W        W  790  35.071  10.750  11.557
28366W        W  791  38.049  39.944   2.340
28367W        W  792  25.433   3.955   3.608
28368W        W  793  43.293  37.970   3.200
28369W        W  794  22.995  17.561  14.814
28370W        W  795   6.653  11.320   0.841
28371W        W  796  33.898  43.070  13.021
28372W        W  797  41.004   8.734   0.796
28373W        W  798  15.121   1.896  13.800
28374W        W  799   5.769  32.477  13.840
28375W        W  800   4.312  29.146   4.182
28376W        W  801  40.363   4.910   3.168
28377W        W  802  38.936  28.874   4.157
28378W        W  803  15.438  23.037   1.761
28379W        W  804   1.652  23.272   3.182
28380W        W  805  21.012   2.579  12.975
28381W        W  806  13.815  39.029  14.436
28382W        W  807  38.358   2.138  13.560
28383W        W  808  26.104  15.884  10.248
28384W        W  809  43.692   6.682   4.101
28385W        W  810  36.171  38.129   3.291
28386W        W  811  22.209  21.897  10.570
28387W        W  812  17.484  16.115   2.735
28388W        W  813  34.428   3.235   2.800
28389W        W  814  39.584   8.778  10.507
28390W        W  815   4.492  25.446  10.519
28391W        W  816   9.211  10.583   1.286
28392W        W  817  16.471  31.521  11.101
28393W        W  818   5.210  19.187  11.606
28394W        W  819  20.744  26.758  12.111
28395W        W  820   1.376  14.080  13.954
28396W        W  821  20.182  19.070  11.417
28397W        W  822  20.080  25.122  14.045
28398W        W  823  25.285  24.174   1.742
28399W        W  824  29.451  15.620   1.497
28400W        W  825  42.830  38.343  12.067
28401W        W  826  23.429   8.082  10.958
28402W        W  827  35.628  13.833  10.776
28403W        W  828  40.405  44.745  12.049
28404W        W  829  27.814  34.272  12.515
28405W        W  830  40.061  10.859   3.707
28406W        W  831  41.556  37.427   1.857
28407W        W  832  17.351   7.839   1.252
28408W        W  833  20.122   6.191   3.355
28409W        W  834  16.074  16.203  14.801
28410W        W  835  18.218  43.782  13.361
28411W        W  836  12.168  27.699   3.377
28412W        W  837  13.111   0.551  12.448
28413W        W  838   1.378  32.790   2.909
28414W        W  839  13.652  43.081   4.545
28415W        W  840  10.631  35.834   0.392
28416W        W  841  33.341  24.569  10.854
28417W        W  842  18.087   6.419   1.692
28418W        W  843  27.263  22.470   2.602
28419W        W  844  20.101  28.866   1.956
28420W        W  845  39.795  25.553   2.854
28421W        W  846  37.820  12.193   2.238
28422W        W  847  21.964  35.505  11.447
28423W        W  848  24.794  32.028   2.507
28424W        W  849  34.650  33.505  11.569
28425W        W  850  29.538   6.812  13.426
28426W        W  851  17.857  15.777  12.480
28427W        W  852  33.191  40.832   3.174
28428W        W  853  35.176   9.403   2.360
28429W        W  854  41.321  19.313  14.929
28430W        W  855   8.501  22.963   0.957
28431W        W  856   5.376  29.677  14.060
28432W        W  857  37.779  39.989   2.802
28433W        W  858   2.720  40.768   1.293
28434W        W  859  35.514   0.275  12.944
28435W        W  860  22.684   8.058   1.846
28436W        W  861  33.073  15.762  10.258
28437W        W  862  34.244  35.476  12.931
28438W        W  863   7.153   7.350  14.036
28439W        W  864  40.106  39.773   1.388
28440W        W  865  39.473  21.202   0.109
28441W        W  866  18.314  31.431   0.031
28442W        W  867  40.194  34.162   4.047
28443W        W  868   8.231  34.320   1.956
28444W        W  869  14.622  17.536   2.242
28445W        W  870  30.005  36.098  11.812
28446W        W  871  15.681  20.725   4.813
28447W        W  872  25.128  21.181  10.956
28448W        W  873   5.221  43.236   3.146
28449W        W  874   2.774  40.811   1.796
28450W        W  875  14.570  32.539  10.285
28451W        W  876   9.512  25.310   4.279
28452W        W  877  30.244  21.242  10.492
28453W        W  878  13.814  14.692   0.790
28454W        W  879   8.951  27.359  14.002
28455W        W  880   9.743  27.071   4.776
28456W        W  881  15.328  18.137  13.191
28457W        W  882   9.161  26.848  10.374
28458W        W  883  11.407   5.337   0.515
28459W        W  884  25.779  37.930   2.818
28460W        W  885  44.440  37.569   2.387
28461W        W  886  10.416  31.305   0.350
28462W        W  887  41.761   1.770  14.014
28463W        W  888  25.845  13.312   1.269
28464W        W  889  27.951  43.706  14.163
28465W        W  890  12.056  12.366  12.997
28466W        W  891  14.208  31.519  11.445
28467W        W  892  37.469  37.042  12.106
28468W        W  893   1.466   2.390  10.425
28469W        W  894  23.072  33.477   1.787
28470W        W  895   9.840  19.925   0.919
28471W        W  896  32.639  41.380  12.780
28472W        W  897  12.728   1.819   9.769
28473W        W  898   4.296  29.873  13.313
28474W        W  899  19.443  27.072   0.799
28475W        W  900  42.054  28.701   0.971
28476W        W  901  17.333  36.953   2.762
28477W        W  902  37.715  15.706  12.556
28478W        W  903  13.115  36.128   0.022
28479W        W  904  44.799  27.485  10.974
28480W        W  905  32.408   7.552   0.317
28481W        W  906  13.666  29.638   2.711
28482W        W  907  44.336  14.997  11.173
28483W        W  908  29.639   6.782  13.923
28484W        W  909  42.732  35.037   0.319
28485W        W  910  28.487  44.878  13.679
28486W        W  911  20.460  34.666  10.751
28487W        W  912  13.113   9.276  10.695
28488W        W  913   4.618  44.769   2.486
28489W        W  914   3.779  13.723   3.188
28490W        W  915   1.430   0.927  12.588
28491W        W  916  24.409  38.559   0.024
28492W        W  917  19.645  31.312  11.575
28493W        W  918   3.215   6.310  11.932
28494W        W  919  37.034  14.390   0.832
28495W        W  920   4.818  27.997   4.204
28496W        W  921  37.695  23.132  13.465
28497W        W  922  27.850  28.443   0.766
28498W        W  923   4.922  21.023  11.123
28499W        W  924  21.176  41.951  10.591
28500W        W  925  38.119  43.475   0.298
28501W        W  926  28.698  25.121   2.400
28502W        W  927  37.665  30.368  10.043
28503W        W  928  20.743   0.709  11.784
28504W        W  929  43.947   2.938   4.290
28505W        W  930  18.591   3.174  11.658
28506W        W  931   9.898   7.486   3.369
28507W        W  932  23.848  15.858  14.899
28508W        W  933  10.818  11.267  12.555
28509W        W  934  39.475   3.602   3.287
28510W        W  935  43.236   4.550  11.693
28511W        W  936  11.445  41.002   9.958
28512W        W  937  18.739  35.073   1.178
28513W        W  938   3.437  20.878   1.279
28514W        W  939   2.871  16.371   2.663
28515W        W  940   5.729  29.851  12.427
28516W        W  941  38.337   5.436   0.928
28517W        W  942   5.980  29.118   0.858
28518W        W  943  33.569  44.915  11.175
28519W        W  944  36.067  10.909   1.895
28520W        W  945   9.215  25.448   3.857
28521W        W  946  19.218  24.802  11.944
28522W        W  947  43.651  44.926  14.417
28523W        W  948  39.420  42.085   4.301
28524W        W  949  13.843  40.940  11.166
28525W        W  950  26.613   8.703  12.274
28526W        W  951   2.172  20.696   4.869
28527W        W  952   8.415  23.241   4.038
28528W        W  953   5.822  17.193   1.328
28529W        W  954  40.228  32.896   3.621
28530W        W  955  17.073  23.621   3.698
28531W        W  956  42.289  32.940   4.324
28532W        W  957  30.301  30.997   0.750
28533W        W  958  41.020   6.471   2.717
28534W        W  959   0.310  36.135  12.723
28535W        W  960   3.882   2.517  14.813
28536W        W  961  19.848  38.452  11.737
28537W        W  962  25.095   5.423   4.576
28538W        W  963  30.340  14.673  14.418
28539W        W  964  38.015  18.807   4.194
28540W        W  965  38.683  43.596   0.265
28541W        W  966   0.445   4.063   3.721
28542W        W  967  44.023   4.318  11.940
28543W        W  968   5.883  36.515  11.533
28544W        W  969  25.165  24.036   4.586
28545W        W  970  41.390  23.928   2.658
28546W        W  971  12.864  31.464   0.028
28547W        W  972  20.307  30.562   4.283
28548W        W  973  18.293  12.173   3.406
28549W        W  974  12.648  14.647  10.798
28550W        W  975  37.775  12.670  13.937
28551W        W  976   2.173  16.222  13.974
28552W        W  977  39.377  32.080   2.218
28553W        W  978  39.506   8.906  14.720
28554W        W  979  22.215  12.951   3.628
28555W        W  980  20.868  37.768  12.587
28556W        W  981  14.257  14.647   0.298
28557W        W  982  10.429   7.875  12.805
28558W        W  983  17.935  33.618   0.809
28559W        W  984  16.974   8.928  11.634
28560W        W  985  17.489  31.602  13.333
28561W        W  986  11.341  17.663   2.896
28562W        W  987  32.622  20.380  13.702
28563W        W  988   4.276   4.351  13.682
28564W        W  989  25.489  36.416  14.841
28565W        W  990  28.718  23.844  10.900
28566W        W  991  18.559  32.070   1.699
28567W        W  992  17.326  18.462   3.215
28568W        W  993  25.609  41.089  10.713
28569W        W  994  15.575  28.092   3.064
28570W        W  995   8.118  27.415   3.756
28571W        W  996  19.247  27.327  13.025
28572W        W  997   5.982  15.051  14.900
28573W        W  998  19.830  17.065  11.886
28574W        W  999  11.937   4.422  14.030
28575W        W 1000   4.540  24.000  11.979
28576W        W 1001   4.910   5.714   1.642
28577W        W 1002   7.048  17.661   4.904
28578W        W 1003  13.830  35.921  10.684
28579W        W 1004   0.477  31.952   0.159
28580W        W 1005   0.229  43.248  14.813
28581W        W 1006  25.954  13.457  11.801
28582W        W 1007  18.072  12.758   4.575
28583W        W 1008  42.810  26.575  14.559
28584W        W 1009  40.251   6.225  11.067
28585W        W 1010  12.197   0.938  13.285
28586W        W 1011  18.881  37.501   3.207
28587W        W 1012  41.304  13.963   1.756
28588W        W 1013  29.588  23.206   0.362
28589W        W 1014  10.302  10.917  13.433
28590W        W 1015   2.161  44.270  14.748
28591W        W 1016  35.421   8.396   2.198
28592W        W 1017  37.869  26.424  11.483
28593W        W 1018   2.415   1.800  12.441
28594W        W 1019  21.719   6.915  13.840
28595W        W 1020  18.133   4.364   2.188
28596W        W 1021  36.409  40.636  10.105
28597W        W 1022  10.085  20.503   3.723
28598W        W 1023  23.942  39.223   3.643
28599W        W 1024  27.539  33.405  11.195
28600W        W 1025  18.582  34.025   2.490
28601W        W 1026  27.934  28.468  12.054
28602W        W 1027  37.100  12.281  12.825
28603W        W 1028   6.575   2.345   0.950
28604W        W 1029  23.874  31.458  11.838
28605W        W 1030  13.689  11.918   2.705
28606W        W 1031  21.239  25.137   2.283
28607W        W 1032   7.315   6.908  13.810
28608W        W 1033  29.475  28.263  10.621
28609W        W 1034  43.925  16.106   1.688
28610W        W 1035  13.659  10.706   3.180
28611W        W 1036  23.114  24.645  11.243
28612W        W 1037  35.414   1.599  13.035
28613W        W 1038  33.052  16.998  10.710
28614W        W 1039  43.858  32.827  14.230
28615W        W 1040  26.457  23.635  14.666
28616W        W 1041  31.865  27.709   3.766
28617W        W 1042  35.635  24.053   0.945
28618W        W 1043  10.513  26.183   2.833
28619W        W 1044  12.343  37.966  11.695
28620W        W 1045   5.233  12.763  11.214
28621W        W 1046  21.830  17.563   2.252
28622W        W 1047  12.076   2.957  10.646
28623W        W 1048  16.978  23.024  11.030
28624W        W 1049   9.109  26.127   2.490
28625W        W 1050  25.065  23.067   2.521
28626W        W 1051  41.401  12.632  12.049
28627W        W 1052  38.610  15.727   0.460
28628W        W 1053   1.563  29.377  11.188
28629W        W 1054   7.967  27.096  11.673
28630W        W 1055  12.400  40.834  11.081
28631W        W 1056   3.937   3.610  12.421
28632W        W 1057  36.124  27.149  14.071
28633W        W 1058   3.347  13.036   0.786
28634W        W 1059  41.796  11.357   3.311
28635W        W 1060  36.559  27.964   1.391
28636W        W 1061   3.520   2.816   0.983
28637W        W 1062   9.877  38.795  11.104
28638W        W 1063  38.771  28.423   1.450
28639W        W 1064  18.744  44.436   3.700
28640W        W 1065   7.244   8.020  14.873
28641W        W 1066  36.756   6.316   5.029
28642W        W 1067  39.360  17.839   4.580
28643W        W 1068  26.987  14.835   4.653
28644W        W 1069  34.509  33.623  12.112
28645W        W 1070  40.509  42.237  11.603
28646W        W 1071  27.952   2.391   4.962
28647W        W 1072   2.692  36.011  14.620
28648W        W 1073  36.877   6.374   0.289
28649W        W 1074  13.152  15.080   3.736
28650W        W 1075   9.549  30.745   2.250
28651W        W 1076   9.978  27.039   1.992
28652W        W 1077   9.145  21.584  11.872
28653W        W 1078  22.548   5.299   1.628
28654W        W 1079  20.186  36.394  13.859
28655W        W 1080   8.665  43.889  11.916
28656W        W 1081  28.265  16.203   1.302
28657W        W 1082   0.972  24.019   3.432
28658W        W 1083  26.534  36.556   1.620
28659W        W 1084  15.133  37.796  13.477
28660W        W 1085  41.978  21.283  10.277
28661W        W 1086   8.368  19.282   3.193
28662W        W 1087  36.323   7.859   2.159
28663W        W 1088  33.294   9.108   0.047
28664W        W 1089   2.067  19.331   4.184
28665W        W 1090   4.792  16.786   1.341
28666W        W 1091  44.785  36.003  12.290
28667W        W 1092  43.601  21.731   5.276
28668W        W 1093  18.122   6.504  12.668
28669W        W 1094  19.065  32.757   1.178
28670W        W 1095  42.365  13.952  13.565
28671W        W 1096  26.754  22.489   2.765
28672W        W 1097  21.039  13.822   3.141
28673W        W 1098   6.525   3.641  12.418
28674W        W 1099  17.635   7.936   4.123
28675W        W 1100  16.762  37.051  12.978
28676W        W 1101  36.601  37.792   0.011
28677W        W 1102  32.962   9.564  11.672
28678W        W 1103   3.285  24.886  14.321
28679W        W 1104  10.706   9.795  10.716
28680W        W 1105  12.320  39.346   0.837
28681W        W 1106  11.314  31.946   1.183
28682W        W 1107  13.598  26.122   2.382
28683W        W 1108  37.354   7.625   2.997
28684W        W 1109  19.333  31.233  12.134
28685W        W 1110   2.908  11.940  12.890
28686W        W 1111  22.300  20.519   0.831
28687W        W 1112  11.827  16.113   3.413
28688W        W 1113  36.329  24.690   0.775
28689W        W 1114  32.086  42.354   1.378
28690W        W 1115   1.933  32.893  14.483
28691W        W 1116  22.542  22.148   0.274
28692W        W 1117  42.274   4.955   4.077
28693W        W 1118   5.740  10.766   1.016
28694W        W 1119   7.631  36.935   1.386
28695W        W 1120   0.282  37.472  13.757
28696W        W 1121  30.885  41.448   1.771
28697W        W 1122   0.949  34.909  11.668
28698W        W 1123  14.204  16.544   3.599
28699W        W 1124  27.913  38.968   1.731
28700W        W 1125  33.865  42.496  11.257
28701W        W 1126  18.254  30.977  13.143
28702W        W 1127  33.869  29.916   3.665
28703W        W 1128  35.159   8.145  13.455
28704W        W 1129  18.281  44.627  14.491
28705W        W 1130  21.688   0.489  14.459
28706W        W 1131  31.481   0.433  11.342
28707W        W 1132  10.882  38.745   3.096
28708W        W 1133  22.907  22.133   4.786
28709W        W 1134   2.271  39.070  11.946
28710W        W 1135   5.679  36.846   1.748
28711W        W 1136   0.473  31.552  12.360
28712W        W 1137  34.878  13.638  13.335
28713W        W 1138  18.082   7.792   0.490
28714W        W 1139  28.165  28.695  11.633
28715W        W 1140  30.904  14.473   1.301
28716W        W 1141  30.011  35.957   0.264
28717W        W 1142  10.342  38.781   0.218
28718W        W 1143  24.088  44.034   0.932
28719W        W 1144  26.456  40.705  12.077
28720W        W 1145  23.259  24.146  11.489
28721W        W 1146   7.335   7.218   0.338
28722W        W 1147  44.070  25.648   3.473
28723W        W 1148  36.833  31.690  10.405
28724W        W 1149   6.665  15.315  11.645
28725W        W 1150   0.760  16.599   0.697
28726W        W 1151  23.730  14.333   2.687
28727W        W 1152  43.256  17.958   3.613
28728W        W 1153   7.736  39.831  11.485
28729W        W 1154  35.739  25.083   0.026
28730W        W 1155  25.853  35.311   3.167
28731W        W 1156  11.068  30.196   2.413
28732W        W 1157  24.198  34.839  10.584
28733W        W 1158  42.763  34.957  12.962
28734W        W 1159  11.644  16.592   1.912
28735W        W 1160   5.705  40.572   4.014
28736W        W 1161  13.891   7.917  12.863
28737W        W 1162  18.202  36.566   0.866
28738W        W 1163   2.968  39.516  14.308
28739W        W 1164   1.500  16.544   0.844
28740W        W 1165  13.185  26.669  13.476
28741W        W 1166  18.571  38.522   1.782
28742W        W 1167  44.365  26.516   2.605
28743W        W 1168  38.958  33.627   4.542
28744W        W 1169  29.407  40.062  10.589
28745W        W 1170  37.834  14.213   3.698
28746W        W 1171   6.794   3.894   4.620
28747W        W 1172  40.755  18.548  14.524
28748W        W 1173  10.821  22.021   1.724
28749W        W 1174   8.843  34.069  10.946
28750W        W 1175  33.315  39.085   0.775
28751W        W 1176  38.458  27.147  13.872
28752W        W 1177   7.517  40.535  11.978
28753W        W 1178  24.527  41.061   1.649
28754W        W 1179  42.430  11.220   1.978
28755W        W 1180  12.246  43.992  12.576
28756W        W 1181  44.234  34.159  11.074
28757W        W 1182  43.536  41.320   4.117
28758W        W 1183  39.387  40.304  11.568
28759W        W 1184  31.455  30.038   0.723
28760W        W 1185  10.677   7.077  13.638
28761W        W 1186   4.647   2.462  11.927
28762W        W 1187  33.851  40.390  12.484
28763W        W 1188  22.231  26.956  10.305
28764W        W 1189  30.275  29.565   2.708
28765W        W 1190  39.015  19.109   2.354
28766W        W 1191  16.144  28.607  12.362
28767W        W 1192  40.199  14.656   1.509
28768W        W 1193  30.443  24.987  12.022
28769W        W 1194  22.567   8.797  13.546
28770W        W 1195  26.634  34.887   3.270
28771W        W 1196  34.949   8.417  14.871
28772W        W 1197  20.083  18.514   1.624
28773W        W 1198  29.817  32.796   2.767
28774W        W 1199  23.902  30.952  12.018
28775W        W 1200  20.734  40.151   4.668
28776W        W 1201  41.313  27.241  11.073
28777W        W 1202  32.125  25.489  12.063
28778W        W 1203  21.257  29.582   4.142
28779W        W 1204   1.345   5.961  13.702
28780W        W 1205  31.099  11.292  14.860
28781W        W 1206  39.433   1.248   0.285
28782W        W 1207  27.295   2.858   2.383
28783W        W 1208  33.665  34.495   4.667
28784W        W 1209  29.146  33.534   4.034
28785W        W 1210  28.513  22.829  11.081
28786W        W 1211  33.931  28.507  11.676
28787W        W 1212  23.026  37.835   1.351
28788W        W 1213  40.592  24.176   1.882
28789W        W 1214  33.256   0.393   3.865
28790W        W 1215  24.950  25.497  14.752
28791W        W 1216  22.454  11.209  14.812
28792W        W 1217  13.838  17.285   4.863
28793W        W 1218  27.823   2.367   3.241
28794W        W 1219  41.914  41.524  13.790
28795W        W 1220  19.142  25.058   4.792
28796W        W 1221  22.658  42.338   2.471
28797W        W 1222  25.379  39.600   2.697
28798W        W 1223   6.226  31.947  13.463
28799W        W 1224  24.373  44.543   2.306
28800W        W 1225  23.457   5.301  11.553
28801W        W 1226  44.456  17.016   0.403
28802W        W 1227  21.965  13.385   3.738
28803W        W 1228  11.714  42.648   3.373
28804W        W 1229   4.859  16.005  14.048
28805W        W 1230  41.806  14.238  13.640
28806W        W 1231  19.450  14.797  14.704
28807W        W 1232  26.504  34.181   4.289
28808W        W 1233   5.273   6.056   3.861
28809W        W 1234   7.647   5.070   2.195
28810W        W 1235  41.799  43.372  13.531
28811W        W 1236  16.994   1.547   1.489
28812W        W 1237  16.877   4.244   0.362
28813W        W 1238  27.667   6.375   1.647
28814W        W 1239   5.114   3.685   0.161
28815W        W 1240   3.677  33.363  14.750
28816W        W 1241  31.119   9.458   2.371
28817W        W 1242  30.904  39.357   3.651
28818W        W 1243   0.712  23.267  14.322
28819W        W 1244   4.103   0.478   4.184
28820W        W 1245   0.373  31.480  10.941
28821W        W 1246  17.318   6.343  11.596
28822W        W 1247  43.970  35.893  10.794
28823W        W 1248  27.521  22.872   2.824
28824W        W 1249  22.981   7.953  14.326
28825W        W 1250  43.541  15.539  10.871
28826W        W 1251  32.331  35.421   0.310
28827W        W 1252   9.554  43.613  10.613
28828W        W 1253   7.332  43.727  12.544
28829W        W 1254  33.444   4.465   0.606
28830W        W 1255  35.022  17.848   3.856
28831W        W 1256  27.557  17.987   0.317
28832W        W 1257  10.167  39.097  14.735
28833W        W 1258  21.554   5.086  13.403
28834W        W 1259  10.612  28.370  14.926
28835W        W 1260  37.014  33.826  14.507
28836W        W 1261  34.873   3.195   3.142
28837W        W 1262  36.741   7.461  11.491
28838W        W 1263  24.587  20.877   4.447
28839W        W 1264  21.817   7.712   1.886
28840W        W 1265  16.331   9.791  13.851
28841W        W 1266  38.608  20.227  11.461
28842W        W 1267  18.177  23.818  13.912
28843W        W 1268  19.283  43.389   0.741
28844W        W 1269  42.518  42.511  14.448
28845W        W 1270  12.270  39.751  12.993
28846W        W 1271  23.667   3.893  11.273
28847W        W 1272   8.395  21.609  14.860
28848W        W 1273  21.530  42.098  14.880
28849W        W 1274  37.636  34.880   3.090
28850W        W 1275   1.076  18.042  12.764
28851W        W 1276  17.842  41.369   2.743
28852W        W 1277  16.067  11.092  10.668
28853W        W 1278  37.372  12.476  10.825
28854W        W 1279  44.484   0.620  12.348
28855W        W 1280  16.352  15.235   4.603
28856W        W 1281  31.876  36.880  13.404
28857W        W 1282  31.392  24.226  10.075
28858W        W 1283  36.934  19.674  12.110
28859W        W 1284  28.488  15.054  11.025
28860W        W 1285  40.504  32.515   3.899
28861W        W 1286   2.774  18.643  10.737
28862W        W 1287  22.622  38.638  10.970
28863W        W 1288  27.248  24.004  13.377
28864W        W 1289  35.567  13.767   0.528
28865W        W 1290   3.348  25.203   2.235
28866W        W 1291  10.597  24.285  14.943
28867W        W 1292  42.776  31.523  10.683
28868W        W 1293   6.861  16.821  13.726
28869W        W 1294  20.835  13.524   4.263
28870W        W 1295  38.237   2.755   0.026
28871W        W 1296  18.330  25.173  10.669
28872W        W 1297  16.377  19.987   3.686
28873W        W 1298   6.748  17.755  13.798
28874W        W 1299   3.226  27.445  12.016
28875W        W 1300  18.104  13.634   2.360
28876W        W 1301  17.753   1.984  11.573
28877W        W 1302  12.880  23.466   1.870
28878W        W 1303   5.954   4.609  11.993
28879W        W 1304  21.261  33.386   1.271
28880W        W 1305  27.439  38.022  12.376
28881W        W 1306   9.633  12.599   3.202
28882W        W 1307   7.674  19.701   1.256
28883W        W 1308   6.445   1.611   2.562
28884W        W 1309   9.913  42.365  13.911
28885W        W 1310   1.461   2.453   2.506
28886W        W 1311  30.126  16.692   2.232
28887W        W 1312   7.270  31.012   0.827
28888W        W 1313  22.239  36.914  12.640
28889W        W 1314  43.376  19.000   4.881
28890W        W 1315   0.229  15.391   3.261
28891W        W 1316  15.430  43.717  10.654
28892W        W 1317  38.592  22.373   3.255
28893W        W 1318   3.296  18.946  13.837
28894W        W 1319   7.895  38.363   4.819
28895W        W 1320  29.105  40.066   4.858
28896W        W 1321  44.837  15.372   4.418
28897W        W 1322  41.429   2.720   4.250
28898W        W 1323  33.232  17.755   3.282
28899W        W 1324  17.988   4.427  11.564
28900W        W 1325  32.002  11.658  11.911
28901W        W 1326  33.679  16.291  14.363
28902W        W 1327  28.608   5.913  12.479
28903W        W 1328  31.522  42.722   2.858
28904W        W 1329   4.387  32.216  10.173
28905W        W 1330  34.811   6.865  11.955
28906W        W 1331  33.525   8.247  14.415
28907W        W 1332  26.531   7.291  13.487
28908W        W 1333  26.671  19.474  11.551
28909W        W 1334  35.769  16.079   0.418
28910W        W 1335  44.089   5.016   2.651
28911W        W 1336  24.597  43.876   4.001
28912W        W 1337  38.083  28.997   4.235
28913W        W 1338  30.059  43.877   3.744
28914W        W 1339  29.936  38.150   5.481
28915W        W 1340  39.382  41.243   4.623
28916W        W 1341   2.396   2.482  13.238
28917W        W 1342   1.225  34.486   2.322
28918W        W 1343   6.814  13.321   2.720
28919W        W 1344  16.023  17.330  14.433
28920W        W 1345  15.667  43.305   3.059
28921W        W 1346  17.021  15.504   1.909
28922W        W 1347  24.603  10.076  12.898
28923W        W 1348  14.733  33.065  14.850
28924W        W 1349   9.216  43.247  10.565
28925W        W 1350   0.280  39.890   3.136
28926W        W 1351   6.722  11.379  13.985
28927W        W 1352  28.859   2.650   1.724
28928W        W 1353  29.694  42.707  14.824
28929W        W 1354  30.670  15.675   0.080
28930W        W 1355  40.233  36.303  13.833
28931W        W 1356  21.994  42.833  11.998
28932W        W 1357  40.390  22.803   0.886
28933W        W 1358   5.362  14.204  13.574
28934W        W 1359  12.907  15.251   2.262
28935W        W 1360   3.698  41.572  12.424
28936W        W 1361  29.502  33.052   0.573
28937W        W 1362  14.986  17.377  14.430
28938W        W 1363  18.912  21.262  13.382
28939W        W 1364   5.873   9.947  14.279
28940W        W 1365  44.296  34.628  13.943
28941W        W 1366  24.744  26.360  12.517
28942W        W 1367   7.688   9.191   4.300
28943W        W 1368  11.042  38.134   2.559
28944W        W 1369  44.101  31.132  12.027
28945W        W 1370  34.838  36.752  12.994
28946W        W 1371  18.586  17.794   4.752
28947W        W 1372  43.795  15.108  13.265
28948W        W 1373   2.755  23.439   1.018
28949W        W 1374  31.482  28.165   4.570
28950W        W 1375  38.129  25.514  14.282
28951W        W 1376  41.412  38.295   3.451
28952W        W 1377   3.194  26.836  13.475
28953W        W 1378  10.383  17.296   1.311
28954W        W 1379  34.402   1.052  11.650
28955W        W 1380  14.954  38.072  14.940
28956W        W 1381  18.489  32.931  11.955
28957W        W 1382  19.261  18.941   3.264
28958W        W 1383  15.748  17.326   2.732
28959W        W 1384   0.660  19.213   4.177
28960W        W 1385  43.855  28.162   2.737
28961W        W 1386  26.122  39.276  10.688
28962W        W 1387  22.916   0.882  12.500
28963W        W 1388  27.967  31.968   4.605
28964W        W 1389  44.705  43.240  11.273
28965W        W 1390  44.793  16.274   3.928
28966W        W 1391   9.255  32.410   3.354
28967W        W 1392  14.672   4.271   0.278
28968W        W 1393  24.313  30.726  12.830
28969W        W 1394  26.102  39.463  12.953
28970W        W 1395  28.117  28.871   3.609
28971W        W 1396  39.533  20.174   0.014
28972W        W 1397  33.157   1.842  14.113
28973W        W 1398   1.913  13.080   4.569
28974W        W 1399  37.583  15.246  10.424
28975W        W 1400  36.501  11.499   3.954
28976W        W 1401   5.603  23.630   4.560
28977W        W 1402  28.082  38.396  11.128
28978W        W 1403  19.684  32.174  12.077
28979W        W 1404  42.001  38.891   1.896
28980W        W 1405  19.760  23.641  10.683
28981W        W 1406   2.676  33.081   3.296
28982W        W 1407  14.629   7.129  12.066
28983W        W 1408  35.619  42.531  10.791
28984W        W 1409   8.408   9.753  14.925
28985W        W 1410  16.110   7.241  12.586
28986W        W 1411  31.365  12.693   0.852
28987W        W 1412   4.814  10.164   4.043
28988W        W 1413   0.963  19.218  14.912
28989W        W 1414  40.335  42.246   2.635
28990W        W 1415   2.844  14.929  10.835
28991W        W 1416  37.033   4.388   4.540
28992W        W 1417  21.982   5.189   0.219
28993W        W 1418  42.535  36.577   4.383
28994W        W 1419  11.047  28.927  12.701
28995W        W 1420   5.169  17.535   3.256
28996W        W 1421  15.890  29.122  11.170
28997W        W 1422  32.628  43.898  14.076
28998W        W 1423  39.635  44.838  10.550
28999W        W 1424   3.831  37.606  12.939
29000W        W 1425  41.380  12.794  11.547
29001W        W 1426  32.935   6.087  10.647
29002W        W 1427  29.038   1.780   0.495
29003W        W 1428  39.470  32.128   3.161
29004W        W 1429   1.950  27.272   0.166
29005W        W 1430  13.756  39.676   1.892
29006W        W 1431   9.695  41.725   2.446
29007W        W 1432  30.423   0.385  13.408
29008W        W 1433  15.626  27.908  11.699
29009W        W 1434  39.493  20.248   2.759
29010W        W 1435   9.538  13.638  14.247
29011W        W 1436  29.834  15.436  11.252
29012W        W 1437  34.510  40.725  12.502
29013W        W 1438  39.448  16.079  12.044
29014W        W 1439  30.528  11.642   2.669
29015W        W 1440  22.521  19.072   3.626
29016W        W 1441  36.064  21.899  14.974
29017W        W 1442   8.616  35.865   0.657
29018W        W 1443  36.804  21.479   0.530
29019W        W 1444  42.383  44.903  10.978
29020W        W 1445   3.714  24.067   0.292
29021W        W 1446  42.344  19.666  11.707
29022W        W 1447  18.025  24.528  12.457
29023W        W 1448   5.901  12.639   0.311
29024W        W 1449  33.087  34.959  10.960
29025W        W 1450   0.766  12.134   3.911
29026W        W 1451  24.261   3.923   0.457
29027W        W 1452  36.129   4.123   1.399
29028W        W 1453  14.763  43.372   3.698
29029W        W 1454  21.456  28.434  11.541
29030W        W 1455  19.245  44.734  12.122
29031W        W 1456  23.679  21.281   1.097
29032W        W 1457   3.396  27.719   4.261
29033W        W 1458  42.465   7.879  14.066
29034W        W 1459  28.088  11.684   0.249
29035W        W 1460   8.618  16.050   0.851
29036W        W 1461  33.901  20.459  12.444
29037W        W 1462  33.289   8.444  10.993
29038W        W 1463  33.322  30.532  13.865
29039W        W 1464  33.381  19.185  13.143
29040W        W 1465  42.037   4.692   3.670
29041W        W 1466   9.127  14.346  13.858
29042W        W 1467  33.845  37.749  11.984
29043W        W 1468  35.958   3.625   5.007
29044W        W 1469  12.223  22.214   2.656
29045W        W 1470  20.496  41.945   1.946
29046W        W 1471   1.951  43.537   3.172
29047W        W 1472  44.198  41.889  10.941
29048W        W 1473  21.713   3.286  14.997
29049W        W 1474   8.155  44.476  12.560
29050W        W 1475  35.819   1.743   2.629
29051W        W 1476   2.806  23.884   0.007
29052W        W 1477   0.237  22.209   3.875
29053W        W 1478  15.450  44.866  13.505
29054W        W 1479  34.015   5.451   3.731
29055W        W 1480  16.773  32.760  13.524
29056W        W 1481   2.319  42.283  11.985
29057W        W 1482  37.590  39.472   0.365
29058W        W 1483  23.164  14.237  11.512
29059W        W 1484  32.866  20.844  12.023
29060W        W 1485  38.812  32.571  13.947
29061W        W 1486  38.038  40.463  12.095
29062W        W 1487   9.645  25.529   3.565
29063W        W 1488  17.748  16.740  12.950
29064W        W 1489  20.071  13.708  12.460
29065W        W 1490  29.910   8.279  14.468
29066W        W 1491   2.651  44.463  14.410
29067W        W 1492   2.123  13.150   4.105
29068W        W 1493  44.019  19.296   2.329
29069W        W 1494  26.965  37.443   1.768
29070W        W 1495   3.332  19.288   1.811
29071W        W 1496  11.848   6.249   2.181
29072W        W 1497  11.707  16.017  12.882
29073W        W 1498   6.453  40.871   1.362
29074W        W 1499  41.384  15.351  14.963
29075W        W 1500  17.711  36.903   4.680
29076W        W 1501  38.555  37.970  14.742
29077W        W 1502  37.568  23.140   3.709
29078W        W 1503  27.025  20.224   0.545
29079W        W 1504  10.261  21.202  13.041
29080W        W 1505  44.278   3.398   1.313
29081W        W 1506  19.973  33.552  10.912
29082W        W 1507  44.711  21.301   5.120
29083W        W 1508  41.997  42.795   1.740
29084W        W 1509  31.756  34.379   0.827
29085W        W 1510  14.031  41.761   4.343
29086W        W 1511   6.160  14.188  12.123
29087W        W 1512   7.876   9.383   0.715
29088W        W 1513   6.702   6.489  13.232
29089W        W 1514  38.924  35.994  12.137
29090W        W 1515  21.663  39.570  12.579
29091W        W 1516  40.543  40.256  11.601
29092W        W 1517  26.647   5.251   0.863
29093W        W 1518   7.678  11.230  12.928
29094W        W 1519  19.650  26.481  13.499
29095W        W 1520  21.091   6.834  11.885
29096W        W 1521  33.940  37.109   2.585
29097W        W 1522  31.917  39.812   1.432
29098W        W 1523  27.441  28.385  11.910
29099W        W 1524  23.139  41.529   2.165
29100W        W 1525  20.322  37.380  13.995
29101W        W 1526  35.554  36.774   0.854
29102W        W 1527   5.192  36.001   9.950
29103W        W 1528  37.538  38.332   1.403
29104W        W 1529  13.210  40.465  10.754
29105W        W 1530  28.930  24.751  10.429
29106W        W 1531   1.255  26.189   3.674
29107W        W 1532  37.020  32.071   0.372
29108W        W 1533  12.139  41.024  14.900
29109W        W 1534  22.829   0.413  13.246
29110W        W 1535  21.619  24.687  14.601
29111W        W 1536  21.180  23.519   2.906
29112W        W 1537   7.440   4.770   0.437
29113W        W 1538   5.263  11.695   1.019
29114W        W 1539  27.451  32.231   4.227
29115W        W 1540  38.981  39.856  13.618
29116W        W 1541   3.503  21.205   4.174
29117W        W 1542  17.142  20.479  12.886
29118W        W 1543  22.112   8.460   2.226
29119W        W 1544   6.401  24.207   4.572
29120W        W 1545  21.627  10.709   1.220
29121W        W 1546  40.509  21.886   3.741
29122W        W 1547  42.375  39.424   0.804
29123W        W 1548  12.777  17.025   3.748
29124W        W 1549  25.498  27.659  12.802
29125W        W 1550  38.853  37.043  11.412
29126W        W 1551  34.631  33.749   3.056
29127W        W 1552   6.901  43.914   2.629
29128W        W 1553   2.703  11.417   0.263
29129W        W 1554  23.021   8.432   1.784
29130W        W 1555  44.108   1.955  12.587
29131W        W 1556  11.833  23.826   2.538
29132W        W 1557  24.583  39.970   3.640
29133W        W 1558   8.522  18.842  12.161
29134W        W 1559  41.007  36.868  13.499
29135W        W 1560  44.373  20.106  11.064
29136W        W 1561  19.631   2.633   3.807
29137W        W 1562   8.460  14.577   3.726
29138W        W 1563  15.124  20.701  10.755
29139W        W 1564  13.147   7.428   4.598
29140W        W 1565  40.824  41.481   2.696
29141W        W 1566  31.833  20.270   1.329
29142W        W 1567  16.733  25.582   0.393
29143W        W 1568  33.423  24.590  12.842
29144W        W 1569  42.867  10.467  13.245
29145W        W 1570  25.102  35.239  14.780
29146W        W 1571   6.486  34.056   0.958
29147W        W 1572   2.769  14.241  13.481
29148W        W 1573   8.232  17.279  14.636
29149W        W 1574  31.838  44.379  13.980
29150W        W 1575   3.580  10.766   0.679
29151W        W 1576  34.959  39.487   3.897
29152W        W 1577  30.212  44.499   1.848
29153W        W 1578   7.647  33.908   2.801
29154W        W 1579  22.040  34.832   3.302
29155W        W 1580  31.601  12.718  14.122
29156W        W 1581  40.498  15.163   4.575
29157W        W 1582   7.679  18.282  10.719
29158W        W 1583  31.854  19.187   2.414
29159W        W 1584  44.002  24.824  12.496
29160W        W 1585   8.983  20.165   1.324
29161W        W 1586   9.897  24.127  12.101
29162W        W 1587  41.668  15.843   2.388
29163W        W 1588  30.875   8.731   1.354
29164W        W 1589  21.766  19.163  10.570
29165W        W 1590  40.419  19.373  11.684
29166W        W 1591   6.196  27.719  13.815
29167W        W 1592  30.505  14.244   2.605
29168W        W 1593  19.469  28.588   4.704
29169W        W 1594  17.089  10.274  10.961
29170W        W 1595   9.133  37.878   2.669
29171W        W 1596   0.722  38.177   1.467
29172W        W 1597  23.215  16.192  14.245
29173W        W 1598  35.023   8.740  11.619
29174W        W 1599   9.726  25.728   4.511
29175W        W 1600  31.600  13.378   0.240
29176W        W 1601  34.848   4.389  12.339
29177W        W 1602   0.988  35.129   2.627
29178W        W 1603   0.263  11.225  13.033
29179W        W 1604  39.331  23.269  10.946
29180W        W 1605  24.138  12.003   5.028
29181W        W 1606  34.326   2.523  14.383
29182W        W 1607  18.199  42.901  12.912
29183W        W 1608   2.297  18.504  12.539
29184W        W 1609  37.958   9.447   4.577
29185W        W 1610  12.802   8.822  14.818
29186W        W 1611  24.108   3.225   4.567
29187W        W 1612  21.178   0.254  13.596
29188W        W 1613  17.755  13.589   2.793
29189W        W 1614  43.086   8.677  13.860
29190W        W 1615   1.767   4.033   0.237
29191W        W 1616  37.067  21.630   2.259
29192W        W 1617  39.961  18.811   1.372
29193W        W 1618  35.036   0.237  14.767
29194W        W 1619  37.618  14.400  11.133
29195W        W 1620  15.391  38.873   3.356
29196W        W 1621  21.563  26.962   3.189
29197W        W 1622  15.247  24.205  10.674
29198W        W 1623  43.301  41.341  11.032
29199W        W 1624  26.031  32.606   9.990
29200W        W 1625  26.562  15.241  13.591
29201W        W 1626  28.042  36.915  12.967
29202W        W 1627  32.146   5.413   4.938
29203W        W 1628   5.908  35.053   3.730
29204W        W 1629  30.069  11.695   0.769
29205W        W 1630  15.859  33.446  11.149
29206W        W 1631   3.691   9.291  13.477
29207W        W 1632  27.032  12.694   0.864
29208W        W 1633  30.040  37.924   1.376
29209W        W 1634   1.240  38.368  11.146
29210W        W 1635  11.325  10.852   3.576
29211W        W 1636  44.453  34.848   2.332
29212W        W 1637  23.811  32.203  10.128
29213W        W 1638  32.085  43.217   3.176
29214W        W 1639   4.061  31.898  12.480
29215W        W 1640  31.316  31.120   0.391
29216W        W 1641   2.881   4.314   4.196
29217W        W 1642  30.837   4.872  12.388
29218W        W 1643  40.461  25.584  11.405
29219W        W 1644   9.341  37.152  12.913
29220W        W 1645  39.833  11.316  13.296
29221W        W 1646  16.246  30.681  14.711
29222W        W 1647  39.542  31.622  12.992
29223W        W 1648  29.985   0.398  14.358
29224W        W 1649  16.649   6.408  14.107
29225W        W 1650  33.268  42.716   0.811
29226W        W 1651  11.392  22.719   3.249
29227W        W 1652   2.740   3.808  11.064
29228W        W 1653  33.083  22.644   3.724
29229W        W 1654   4.561  17.885   1.708
29230W        W 1655   0.855  25.384  13.684
29231W        W 1656  34.408  13.728  10.916
29232W        W 1657  17.728  21.497   4.067
29233W        W 1658  12.321  22.965  14.765
29234W        W 1659   9.006  35.099  11.628
29235W        W 1660  18.463  39.587  14.959
29236W        W 1661  24.218  33.519   2.768
29237W        W 1662  36.823  10.362  13.328
29238W        W 1663  18.622   7.103  13.159
29239W        W 1664  41.440  29.184   0.457
29240W        W 1665  41.374  19.311  13.596
29241W        W 1666  15.203  13.261   4.188
29242W        W 1667  39.464  14.367  14.015
29243W        W 1668  26.181  33.411  14.516
29244W        W 1669  39.287  41.470  11.016
29245W        W 1670  43.024  27.728   2.749
29246W        W 1671   0.873  39.518  12.405
29247W        W 1672  21.281  38.355  11.701
29248W        W 1673   2.403  27.536   1.925
29249W        W 1674  41.761   0.291   2.124
29250W        W 1675  13.661  34.687  13.509
29251W        W 1676  18.813   3.254  12.118
29252W        W 1677  44.201  15.821  11.441
29253W        W 1678   8.989  25.216   4.255
29254W        W 1679  17.699  24.517  11.602
29255W        W 1680  40.050  27.660  10.534
29256W        W 1681  40.342   8.080   2.732
29257W        W 1682  36.763   6.547   3.626
29258W        W 1683  39.500  24.172   0.299
29259W        W 1684  38.203   0.994  12.406
29260W        W 1685  18.731   6.693   0.810
29261W        W 1686   2.631  19.676  12.793
29262W        W 1687  11.760  28.660  12.909
29263W        W 1688  23.133  25.445   2.373
29264W        W 1689  33.499   4.369   1.716
29265W        W 1690  23.231  33.171   1.345
29266W        W 1691  43.178  27.908  12.128
29267W        W 1692  18.656   8.119   2.436
29268W        W 1693  39.053  22.348   1.710
29269W        W 1694  37.762  14.822  10.824
29270W        W 1695   3.826  41.870   4.225
29271W        W 1696  27.164  24.695  11.388
29272W        W 1697  39.303   9.382  13.051
29273W        W 1698  35.336   7.973  11.238
29274W        W 1699  27.111   9.779   4.106
29275W        W 1700  32.196  41.694   3.274
29276W        W 1701   6.407  41.788   2.425
29277W        W 1702   2.953  40.041  12.434
29278W        W 1703  11.348  41.524  14.768
29279W        W 1704  41.302   5.283   2.787
29280W        W 1705  19.801  38.049  11.378
29281W        W 1706  36.706   9.274   1.241
29282W        W 1707   7.834  12.750  10.745
29283W        W 1708   4.870  27.996  14.538
29284W        W 1709  30.127  30.098  13.931
29285W        W 1710  17.668   4.933   2.810
29286W        W 1711  11.388   0.765  11.456
29287W        W 1712  17.279  39.522  11.575
29288W        W 1713   7.622  29.429  13.855
29289W        W 1714  42.090  12.905   3.312
29290W        W 1715  30.329  11.328   0.347
29291W        W 1716  13.157  38.526   1.970
29292W        W 1717  27.661  21.196  10.281
29293W        W 1718  24.054  12.404  12.975
29294W        W 1719  10.658   4.286  11.056
29295W        W 1720  32.394   1.403  14.884
29296W        W 1721  30.896  43.891   3.172
29297W        W 1722   4.717  43.106  14.075
29298W        W 1723  40.784   4.870   4.289
29299W        W 1724  38.513  34.526   0.803
29300W        W 1725   9.692  26.228  10.488
29301W        W 1726   0.863  13.799  11.520
29302W        W 1727  33.450   4.149  13.759
29303W        W 1728  31.645   3.391   0.924
29304W        W 1729  23.921  16.340   2.754
29305W        W 1730  10.318  28.267   1.180
29306W        W 1731  30.946   6.659   0.862
29307W        W 1732  43.982  41.528   1.742
29308W        W 1733  36.921  27.663  13.961
29309W        W 1734  29.398  25.026  11.610
29310W        W 1735   2.758  33.553   4.710
29311W        W 1736  13.806  24.712  12.869
29312W        W 1737   8.992  18.626   3.117
29313W        W 1738  23.154  37.018  13.423
29314W        W 1739  38.548  10.772  12.862
29315W        W 1740  35.148   8.448   1.734
29316W        W 1741   6.655   3.759  12.943
29317W        W 1742  42.310  26.730   4.695
29318W        W 1743  26.730  32.067   9.842
29319W        W 1744   2.835  25.766   0.205
29320W        W 1745   3.842   8.441  13.067
29321W        W 1746  35.795  33.615  12.491
29322W        W 1747  34.411  35.108   3.691
29323W        W 1748  12.710  21.616   1.913
29324W        W 1749  20.972   7.246  12.585
29325W        W 1750  41.769   4.983  14.000
29326W        W 1751  12.214  15.704  11.736
29327W        W 1752   0.407  20.093   1.367
29328W        W 1753   2.383  37.561  12.903
29329W        W 1754  31.843  34.447   2.775
29330W        W 1755   7.286  12.567   4.542
29331W        W 1756  29.413   6.232  11.151
29332W        W 1757  23.005  37.873   0.353
29333W        W 1758  10.181  34.721   2.350
29334W        W 1759  18.872  21.120  10.598
29335W        W 1760  27.136  17.898  12.858
29336W        W 1761  41.098   9.848   3.672
29337W        W 1762  27.484  16.679   1.305
29338W        W 1763   2.370  20.707   0.033
29339W        W 1764  33.082  41.436  11.583
29340W        W 1765  13.589  43.519   1.287
29341W        W 1766   0.391  23.494   1.914
29342W        W 1767  35.068  43.897   0.486
29343W        W 1768  24.715  37.284  11.955
29344W        W 1769  17.586  29.521  11.504
29345W        W 1770  20.714  34.130  12.770
29346W        W 1771  43.371  33.668   1.344
29347W        W 1772  21.014  25.945  13.531
29348W        W 1773   4.078  33.364  12.531
29349W        W 1774   3.961   9.198  14.711
29350W        W 1775  24.150  30.240   4.358
29351W        W 1776  43.429  13.708  14.069
29352W        W 1777  10.662  39.818   2.334
29353W        W 1778  24.422  25.575  14.896
29354W        W 1779  44.330  35.646   4.235
29355W        W 1780  24.182   5.232  14.657
29356W        W 1781  25.486  20.182   4.367
29357W        W 1782  36.163  28.886   1.738
29358W        W 1783  10.875  15.435  13.529
29359W        W 1784  26.823   4.201  12.461
29360W        W 1785  21.008   8.122   4.984
29361W        W 1786  35.417   2.678   0.809
29362W        W 1787  37.014  32.364   2.647
29363W        W 1788  10.799   2.473  12.032
29364W        W 1789  20.769  36.001  11.557
29365W        W 1790  36.173  28.486  13.996
29366W        W 1791  29.054  38.989  14.418
29367W        W 1792   5.624  14.309  12.995
29368W        W 1793  19.645  26.337  11.487
29369W        W 1794   9.365  17.374  14.390
29370W        W 1795  16.900  35.890  10.766
29371W        W 1796  12.684  31.795   3.209
29372W        W 1797   6.837  37.877   1.964
29373W        W 1798   0.318  10.069   2.325
29374W        W 1799   5.249  26.369   4.111
29375W        W 1800  44.933  24.212   9.920
29376W        W 1801  28.656   4.917   0.462
29377W        W 1802  35.128  18.249   4.765
29378W        W 1803   8.386   8.876   3.347
29379W        W 1804   7.846  44.608   4.018
29380W        W 1805  24.124  16.283   3.644
29381W        W 1806  37.938  30.111   4.342
29382W        W 1807   3.965  34.098  12.888
29383W        W 1808  27.096  38.854   3.103
29384W        W 1809  38.616  31.162   3.847
29385W        W 1810  14.963  18.732   3.190
29386W        W 1811  31.962  33.592   4.554
29387W        W 1812   0.199   3.469  13.071
29388W        W 1813  35.348  23.707  12.687
29389W        W 1814  20.164  29.057  10.953
29390W        W 1815  18.099  20.151  12.728
29391W        W 1816  18.328  21.474   4.073
29392W        W 1817  30.435  25.652   5.138
29393W        W 1818  29.210  12.055   0.085
29394W        W 1819  32.921  27.875  11.806
29395W        W 1820  18.288   8.369  14.059
29396W        W 1821  33.119  24.150  12.676
29397W        W 1822   4.557  18.347  13.943
29398W        W 1823  17.716  38.003   0.944
29399W        W 1824  25.472  41.160  14.345
29400W        W 1825  29.745  43.480  12.209
29401W        W 1826  13.659   3.436   9.861
29402W        W 1827  26.190   9.141  13.493
29403W        W 1828  23.571  19.023  12.417
29404W        W 1829   3.514  26.418  12.773
29405W        W 1830  21.274  32.872   0.437
29406W        W 1831  38.618  27.263   4.814
29407W        W 1832  31.126   9.285  14.279
29408W        W 1833   4.981  24.320   1.280
29409W        W 1834  44.561  34.665   1.157
29410W        W 1835  24.441  10.384  12.490
29411W        W 1836  37.833   3.561   2.382
29412W        W 1837  31.944  12.539  12.899
29413W        W 1838  32.970   3.594  14.034
29414W        W 1839   9.445  18.726   3.371
29415W        W 1840   5.805  42.723   2.205
29416W        W 1841  38.140  34.547  12.390
29417W        W 1842  21.202  24.733  12.813
29418W        W 1843  36.567   0.142  10.752
29419W        W 1844  14.600  35.476   3.269
29420W        W 1845  22.764  32.311  14.633
29421W        W 1846  11.440   8.770   1.246
29422W        W 1847  13.058  15.607  10.532
29423W        W 1848   4.775  31.882   2.802
29424W        W 1849  42.427  18.437  14.079
29425W        W 1850  10.558   9.783   2.625
29426W        W 1851  36.375  34.089   0.695
29427W        W 1852  23.046   5.729   4.873
29428W        W 1853  16.537  19.723  11.356
29429W        W 1854   1.990   0.415   4.580
29430W        W 1855  10.876   6.881  11.686
29431W        W 1856   7.720  42.363   2.312
29432W        W 1857  35.148  30.704   5.055
29433W        W 1858  34.486  24.805   2.666
29434W        W 1859   9.268  38.356  14.402
29435W        W 1860  13.717   6.669  13.232
29436W        W 1861  33.040  34.360   1.177
29437W        W 1862  28.746  36.934  12.421
29438W        W 1863  34.499  30.958   0.911
29439W        W 1864   3.834  21.473  14.396
29440W        W 1865   3.573  11.320  14.320
29441W        W 1866  18.367   8.665   4.797
29442W        W 1867  27.698  30.508   3.236
29443W        W 1868  42.107   0.335  13.844
29444W        W 1869  29.087  24.716   3.430
29445W        W 1870   3.858  29.382  13.816
29446W        W 1871  13.970  32.374   1.221
29447W        W 1872  31.012  17.536   0.098
29448W        W 1873  22.175  35.558   4.743
29449W        W 1874  38.827  12.297   0.414
29450W        W 1875   6.025  30.958  11.462
29451W        W 1876  39.079  41.765   4.074
29452W        W 1877  44.696  26.506  12.158
29453W        W 1878   8.211  23.304  14.955
29454W        W 1879  11.302   0.264  12.436
29455W        W 1880   0.490  32.151  11.638
29456W        W 1881   4.947  24.956   0.325
29457W        W 1882  23.532  39.241   4.270
29458W        W 1883   5.671   2.708   0.644
29459W        W 1884  10.323  34.604  10.684
29460W        W 1885  12.784  28.891   0.455
29461W        W 1886  19.248   5.070   3.363
29462W        W 1887   3.292   5.868   4.282
29463W        W 1888   6.851  32.480   3.608
29464W        W 1889  22.298  35.115  11.635
29465W        W 1890  33.518   8.289   4.533
29466W        W 1891  22.572  37.924   3.858
29467W        W 1892   4.604  11.119   0.428
29468W        W 1893  14.585   9.240  12.968
29469W        W 1894  42.523  38.923   1.842
29470W        W 1895  40.564  34.393   4.471
29471W        W 1896  26.077  39.206  11.438
29472W        W 1897  18.966  31.758   0.442
29473W        W 1898   1.499   5.255  11.991
29474W        W 1899  23.970  44.792   1.517
29475W        W 1900  27.655  31.360  14.831
29476W        W 1901  38.872  36.079   5.231
29477W        W 1902  31.961  16.948  13.375
29478W        W 1903  11.639  19.756  12.295
29479W        W 1904  43.521  18.676  14.806
29480W        W 1905  22.771  17.838   3.298
29481W        W 1906  16.183  14.662  13.826
29482W        W 1907   2.114  41.842   3.765
29483W        W 1908  26.046  19.241   0.462
29484W        W 1909  37.607   0.842   4.593
29485W        W 1910  17.469  27.486   3.162
29486W        W 1911  21.948  39.002   3.328
29487W        W 1912  14.530  31.940  12.682
29488W        W 1913  20.338   5.611   1.940
29489W        W 1914   8.128  12.070   2.303
29490W        W 1915  40.018  24.735   2.631
29491W        W 1916   6.744  34.018  13.957
29492W        W 1917  21.096  37.850  11.986
29493W        W 1918  21.034  22.513   0.705
29494W        W 1919  30.314  16.440  12.521
29495W        W 1920  25.091   8.774   3.757
29496W        W 1921  33.910  26.388  13.259
29497W        W 1922   4.994  23.259   2.191
29498W        W 1923   6.069  37.625  10.348
29499W        W 1924  34.008  12.939   0.482
29500W        W 1925  25.137  19.120   1.384
29501W        W 1926  26.175  39.561   1.721
29502W        W 1927  29.999  22.059   4.642
29503W        W 1928   2.315  30.864  14.453
29504W        W 1929   6.205  35.630  12.253
29505W        W 1930  41.543  10.873  13.251
29506W        W 1931   4.373  42.910   0.638
29507W        W 1932  36.932  42.811   1.382
29508W        W 1933  22.084  42.040   3.164
29509W        W 1934  14.600   7.197  14.374
29510W        W 1935  14.095  39.931  12.503
29511W        W 1936   2.694   8.871   1.747
29512W        W 1937   0.926   5.966   3.065
29513W        W 1938  20.961  11.959  10.743
29514W        W 1939  24.248  12.949   3.237
29515W        W 1940  40.226  21.294  13.669
29516W        W 1941  26.814   3.199   2.364
29517W        W 1942  12.777  38.607   2.319
29518W        W 1943  13.828  36.551   0.794
29519W        W 1944  15.199   4.331   4.455
29520W        W 1945  16.255  38.572  13.992
29521W        W 1946  24.520   8.877  11.488
29522W        W 1947  37.101  40.903   0.767
29523W        W 1948  33.586  37.032   1.766
29524W        W 1949  18.343  13.377  14.466
29525W        W 1950   1.524  22.022   2.278
29526W        W 1951  27.103   1.218  11.590
29527W        W 1952  40.014  35.150   1.018
29528W        W 1953  26.144   7.334  11.659
29529W        W 1954  10.349   4.631   0.684
29530W        W 1955  26.521   2.851   4.183
29531W        W 1956  21.269  10.954   0.808
29532W        W 1957  11.792  30.929   0.001
29533W        W 1958  32.780   4.108  11.481
29534W        W 1959  17.794  23.639  14.459
29535W        W 1960  28.294  10.217   3.652
29536W        W 1961  29.924   3.572  12.449
29537W        W 1962  28.564  19.617   2.601
29538W        W 1963  37.887  17.289   4.391
29539W        W 1964  26.991  28.543  11.676
29540W        W 1965  19.304  10.311   3.720
29541W        W 1966  15.911   4.183  10.691
29542W        W 1967  24.853   0.012  12.761
29543W        W 1968   5.711   6.986   2.754
29544W        W 1969  13.482  32.488   1.408
29545W        W 1970  19.237  30.058  11.668
29546W        W 1971  33.206  23.122   3.596
29547W        W 1972  26.312  44.238  10.101
29548W        W 1973  25.474   9.949  12.393
29549W        W 1974  34.160  34.701   3.896
29550W        W 1975   0.328   5.961  14.392
29551W        W 1976  41.593  34.673  11.583
29552W        W 1977  27.101  33.373  14.679
29553W        W 1978  27.557  10.674   2.231
29554W        W 1979  22.506   2.376   2.560
29555W        W 1980   2.346  39.082  11.001
29556W        W 1981  27.108  14.406   1.669
29557W        W 1982  17.607  36.859  10.725
29558W        W 1983  13.078  23.640  14.074
29559W        W 1984  21.727  20.183   4.834
29560W        W 1985   9.360  28.633  11.110
29561W        W 1986  36.445  18.244  13.807
29562W        W 1987  41.369  20.460  11.524
29563W        W 1988  21.925  24.176  13.888
29564W        W 1989  32.133  37.830   4.273
29565W        W 1990  44.930  26.993   4.171
29566W        W 1991  34.335   2.279  12.019
29567W        W 1992  43.741   6.768  14.571
29568W        W 1993  21.002  13.204  10.949
29569W        W 1994  18.192  26.547   0.251
29570W        W 1995  12.904  37.275  14.906
29571W        W 1996  18.069  41.872  13.495
29572W        W 1997   0.949  30.605  11.743
29573W        W 1998  27.319  28.176  13.843
29574W        W 1999  35.060   9.362  10.165
29575W        W 2000  39.284  25.414   2.832
29576W        W 2001   7.371  16.438   1.264
29577W        W 2002   4.505   1.879  14.352
29578W        W 2003  13.831  34.965   0.935
29579W        W 2004  14.344  12.791  11.132
29580W        W 2005  18.583  20.552   1.449
29581W        W 2006  33.951   4.727   3.122
29582W        W 2007   2.238  31.623  11.114
29583W        W 2008  32.804  25.207   0.237
29584W        W 2009  26.494  25.332  13.914
29585W        W 2010   0.963  14.764  11.153
29586W        W 2011  35.170  30.709   2.876
29587W        W 2012   8.659   5.771  10.823
29588W        W 2013  28.045  35.952   2.615
29589W        W 2014  21.991   9.780  11.449
29590W        W 2015  24.193  30.122  14.042
29591W        W 2016  31.065  24.250  14.035
29592W        W 2017  10.085  23.012   1.782
29593W        W 2018  36.923  10.193  12.474
29594W        W 2019   9.625  17.829   1.437
29595W        W 2020   9.353  23.467   1.353
29596W        W 2021   3.901  23.982   2.825
29597W        W 2022  16.686  28.880  14.896
29598W        W 2023  25.671  31.014   1.302
29599W        W 2024  29.565  27.447   4.225
29600W        W 2025  21.085   4.161   0.035
29601W        W 2026  22.566  20.075  14.331
29602W        W 2027  25.239  15.365  10.669
29603W        W 2028  35.625   7.411  13.343
29604W        W 2029  20.303  44.952  11.194
29605W        W 2030  30.000   6.653   4.690
29606W        W 2031  16.293   5.799   0.815
29607W        W 2032  11.013  10.086   2.873
29608W        W 2033  17.818  27.566   0.246
29609W        W 2034  16.282  22.773  12.529
29610W        W 2035   8.913  34.567  12.476
29611W        W 2036  33.541  36.567  14.896
29612W        W 2037  24.239  18.681  14.956
29613W        W 2038  25.124  38.883  13.097
29614W        W 2039  42.151  31.853  13.831
29615W        W 2040  14.636  19.899  11.638
29616W        W 2041  24.700   7.756   4.559
29617W        W 2042  14.398   7.927  11.108
29618W        W 2043  42.297  21.698   0.309
29619W        W 2044  41.117  44.429  13.884
29620W        W 2045  35.612  43.920  11.644
29621W        W 2046  26.736  31.949   2.802
29622W        W 2047  23.094  23.452  10.547
29623W        W 2048  27.528  40.092  13.757
29624W        W 2049   8.465  36.492   2.863
29625W        W 2050  34.447  24.730   0.703
29626W        W 2051  21.550   0.364  10.988
29627W        W 2052  14.002  17.615  13.864
29628W        W 2053  15.167  17.857   3.130
29629W        W 2054  22.158  42.273  14.420
29630W        W 2055  34.697   6.144  11.944
29631W        W 2056  20.951   1.664   1.250
29632W        W 2057   7.176  18.609  12.542
29633W        W 2058   4.519  22.489  13.264
29634W        W 2059  15.261  17.203  13.305
29635W        W 2060  16.737  33.386   4.134
29636W        W 2061   2.621  16.952  14.955
29637W        W 2062  14.175  32.079   3.373
29638W        W 2063  26.818  27.104   0.374
29639W        W 2064  34.155  18.277  12.869
29640W        W 2065  43.276  23.806  10.986
29641W        W 2066   3.168  12.188   3.398
29642W        W 2067   3.902  28.669  11.497
29643W        W 2068  19.336  26.771  11.444
29644W        W 2069  12.495  22.836   1.387
29645W        W 2070   7.860  21.802   3.220
29646W        W 2071  36.073  17.963  14.015
29647W        W 2072  28.022  21.102   0.967
29648W        W 2073  10.309  23.463   1.571
29649W        W 2074  11.233  17.292   4.250
29650W        W 2075  12.180  39.164  13.938
29651W        W 2076  22.632  17.232   1.167
29652W        W 2077  31.236  39.402  12.407
29653W        W 2078   5.772  32.125   3.839
29654W        W 2079  20.249  22.211   0.259
29655W        W 2080  29.597  17.404   0.170
29656W        W 2081  20.145  40.398  11.464
29657W        W 2082   5.381   3.190  14.345
29658W        W 2083   8.220   7.373   3.172
29659W        W 2084  11.392   3.783  14.446
29660W        W 2085  18.581  12.710   0.804
29661W        W 2086  11.865  38.482   4.024
29662W        W 2087   5.225  37.756  11.255
29663W        W 2088  14.914   3.702  11.571
29664W        W 2089   9.197  20.778  13.125
29665W        W 2090  38.417  41.922   0.864
29666W        W 2091  40.858  23.544   1.012
29667W        W 2092  28.114  42.620  13.300
29668W        W 2093  21.731  13.819   0.448
29669W        W 2094  25.535  40.230   4.822
29670W        W 2095  28.864  34.563  11.552
29671W        W 2096  42.401  32.483   4.526
29672W        W 2097   7.771  41.873   3.578
29673W        W 2098  31.957  29.402   0.958
29674W        W 2099  25.272  18.085   4.648
29675W        W 2100  24.728  26.342  13.379
29676W        W 2101   3.606  43.000  12.217
29677W        W 2102  20.251   9.225  12.751
29678W        W 2103  31.156  12.901  13.878
29679W        W 2104  42.468  42.991  12.187
29680W        W 2105  11.689   5.584   3.733
29681W        W 2106  37.936  37.034   0.708
29682W        W 2107  42.585  22.956   0.573
29683W        W 2108  23.021   3.464  11.107
29684W        W 2109   2.999  25.565  12.101
29685W        W 2110  36.289  21.620   0.382
29686W        W 2111  44.305   5.899  14.456
29687W        W 2112  15.211   2.428   3.820
29688W        W 2113  41.334  23.941   0.351
29689W        W 2114   5.287  15.657   4.501
29690W        W 2115  41.388  37.167  11.132
29691W        W 2116  28.905  34.321   0.725
29692W        W 2117  31.518  15.651  12.331
29693W        W 2118  42.810  15.298  13.605
29694W        W 2119   2.093  11.843   0.055
29695W        W 2120  43.371   6.163  12.101
29696W        W 2121  13.870  31.348   4.559
29697W        W 2122  21.731  26.423  14.077
29698W        W 2123  19.827  42.374  14.852
29699W        W 2124  38.219  14.965  12.685
29700W        W 2125  12.870  12.314   2.656
29701W        W 2126  41.124  13.243  14.955
29702W        W 2127  15.509  36.447   1.350
29703W        W 2128  31.518   2.252  14.493
29704W        W 2129  28.106  12.571  13.519
29705W        W 2130  30.695  34.921   1.987
29706W        W 2131  26.222  13.767  11.463
29707W        W 2132   0.321  23.525   3.466
29708W        W 2133  42.119  34.637  11.531
29709W        W 2134  12.291  24.022  12.419
29710W        W 2135  29.112  28.848  12.441
29711W        W 2136  34.930  40.249  13.393
29712W        W 2137  17.742   2.793   0.256
29713W        W 2138   5.453  23.469  10.716
29714W        W 2139   4.392  31.878  14.330
29715W        W 2140   7.222  11.648   3.690
29716W        W 2141   8.665  19.020  12.624
29717W        W 2142   5.058   7.743   1.502
29718W        W 2143  21.724   4.965   4.595
29719W        W 2144   8.266  15.997  13.116
29720W        W 2145  10.338  29.948   5.123
29721W        W 2146  25.129  16.816  14.887
29722W        W 2147  20.254  16.146  11.053
29723W        W 2148  16.561  41.180  12.876
29724W        W 2149  29.532  24.254   0.267
29725W        W 2150   3.301  21.050  12.590
29726W        W 2151  11.884  26.950  13.992
29727W        W 2152  36.329  16.705  14.762
29728W        W 2153  23.199  36.974   0.282
29729W        W 2154  28.237  28.035  13.962
29730W        W 2155  42.589   6.995   2.763
29731W        W 2156  43.898  32.988  13.733
29732W        W 2157  42.569  11.384   2.460
29733W        W 2158  19.269  14.831   0.207
29734W        W 2159  22.316  34.888   5.070
29735W        W 2160  12.901  16.216   0.384
29736W        W 2161  20.236  27.881   4.877
29737W        W 2162  13.757  22.608  10.518
29738W        W 2163  40.555   5.306   2.067
29739W        W 2164  22.739  10.805   4.365
29740W        W 2165  37.027  21.287   1.457
29741W        W 2166  10.920  35.944   2.205
29742W        W 2167   5.485  23.432  13.101
29743W        W 2168  36.940  34.331  13.556
29744W        W 2169  30.273   4.973   3.338
29745W        W 2170  41.109  34.299   3.710
29746W        W 2171  16.035  26.351   1.405
29747W        W 2172  38.391   1.184   2.202
29748W        W 2173  26.513  39.456   2.379
29749W        W 2174  41.881  24.663   0.455
29750W        W 2175  26.587  42.702   1.675
29751W        W 2176   5.860   3.661   4.193
29752W        W 2177  32.417  30.046  10.386
29753W        W 2178  19.643  13.553   2.299
29754W        W 2179  15.224  26.138   4.207
29755W        W 2180  40.284  16.129  11.506
29756W        W 2181   4.257  25.618   1.968
29757W        W 2182  20.031  44.261  13.284
29758W        W 2183  42.963   0.335   4.328
29759W        W 2184  29.533  38.921   3.167
29760W        W 2185  16.223  25.260  11.055
29761W        W 2186  43.726  40.897   1.909
29762W        W 2187  19.875  15.225   3.229
29763W        W 2188  17.195  31.212   3.395
29764W        W 2189   1.969   7.663   0.806
29765W        W 2190  23.242   0.257   4.609
29766W        W 2191   7.542  10.651  13.964
29767W        W 2192   8.900  36.812   1.680
29768W        W 2193  43.845   8.203  10.718
29769W        W 2194  29.445   9.349  11.583
29770W        W 2195  36.079  38.269  13.759
29771W        W 2196  19.757  44.013   1.886
29772W        W 2197  22.267   0.864  10.641
29773W        W 2198  36.285  43.372   3.238
29774W        W 2199  35.844  25.178   2.378
29775W        W 2200  13.627  25.126  11.385
29776W        W 2201  40.521  21.525  10.085
29777W        W 2202  12.343  17.596   1.197
29778W        W 2203  38.148  11.631  14.412
29779W        W 2204   0.480  30.379   5.044
29780W        W 2205  34.722  26.039  13.283
29781W        W 2206  23.444   6.219   2.184
29782W        W 2207  37.354   1.209   2.669
29783W        W 2208  37.563  20.301   2.661
29784W        W 2209   0.467   2.231   4.540
29785W        W 2210   7.883  11.129  14.357
29786W        W 2211   3.348  29.720  10.574
29787W        W 2212  40.471  40.235  10.741
29788W        W 2213  36.794  21.511   1.054
29789W        W 2214  34.087  27.826  10.705
29790W        W 2215  13.168  29.886  13.977
29791W        W 2216   2.342  27.763   1.073
29792W        W 2217   3.950   3.287  13.417
29793W        W 2218   8.681  33.675   1.328
29794W        W 2219   1.898  35.441   1.088
29795W        W 2220  22.658  27.068   0.501
29796W        W 2221  22.080  35.806  14.852
29797W        W 2222  32.110  10.038   3.955
29798W        W 2223   9.781  13.262   1.030
29799W        W 2224  15.759  31.486   2.835
29800W        W 2225  21.242   7.483  14.326
29801W        W 2226   1.526  24.685   1.874
29802W        W 2227   2.231  25.728   2.281
29803W        W 2228  35.588  18.176  14.071
29804W        W 2229  28.685  17.993   1.340
29805W        W 2230  36.998  20.024  14.975
29806W        W 2231  44.052   3.338  13.691
29807W        W 2232  21.048  32.588   2.528
29808W        W 2233   3.610  32.517   2.229
29809W        W 2234  36.406  38.042   1.854
29810W        W 2235   1.926  32.998   1.859
29811W        W 2236   7.304  16.025  11.643
29812W        W 2237  33.013  42.893  10.833
29813W        W 2238  24.771  40.804  10.974
29814W        W 2239  18.740   9.581   2.457
29815W        W 2240  31.052  41.092  12.019
29816W        W 2241  42.796  32.906   3.140
29817W        W 2242  29.489  31.664  12.861
29818W        W 2243  38.275  25.539   0.050
29819W        W 2244   7.751   7.473   3.764
29820W        W 2245   4.867  14.643  10.067
29821W        W 2246  27.191  21.511  14.741
29822W        W 2247  36.976  13.389  14.620
29823W        W 2248  43.768  30.965  14.872
29824W        W 2249  13.021  43.319   2.315
29825W        W 2250   2.701   7.854   0.327
29826W        W 2251  36.424   4.544   1.653
29827W        W 2252   8.617  28.308  14.829
29828W        W 2253  22.012   2.792   4.511
29829W        W 2254  29.048  35.841  13.282
29830W        W 2255  12.853   3.753  14.481
29831W        W 2256  44.002  19.451  14.966
29832W        W 2257  44.858  20.221   2.608
29833W        W 2258  34.394   3.302  13.527
29834W        W 2259  39.434  37.403  14.695
29835W        W 2260  18.354  31.923  11.475
29836W        W 2261  40.996  41.515  11.078
29837W        W 2262  20.568  31.485  13.481
29838W        W 2263  23.615  18.732   1.808
29839W        W 2264   9.477  13.848  10.970
29840W        W 2265  17.137   1.196  10.637
29841W        W 2266  19.559  14.411   5.142
29842W        W 2267  34.055  19.010  13.818
29843W        W 2268  13.839   0.343  13.038
29844W        W 2269  16.063  36.924   2.412
29845W        W 2270  34.166   8.213  10.827
29846W        W 2271   6.885  25.950   1.906
29847W        W 2272  11.886  16.376   3.868
29848W        W 2273   7.323   5.653  12.626
29849W        W 2274  11.482  23.889   0.707
29850W        W 2275   3.226   8.799   2.372
29851W        W 2276   5.626  14.624  11.010
29852W        W 2277  30.146  26.041  10.613
29853W        W 2278   4.297  21.108   1.955
29854W        W 2279   9.372  19.814   4.533
29855W        W 2280  25.035  29.051   2.898
29856W        W 2281  24.216  39.222   4.090
29857W        W 2282  12.342  32.205   3.067
29858W        W 2283  43.423   7.650  13.896
29859W        W 2284  20.498   4.434   3.518
29860W        W 2285  21.736  16.213  14.292
29861W        W 2286  36.781  11.214  13.556
29862W        W 2287  27.265  41.968   2.255
29863W        W 2288  27.092  14.653   1.087
29864W        W 2289   0.787   7.593  10.711
29865W        W 2290   7.918   6.323   2.214
29866W        W 2291  10.242  27.945   3.081
29867W        W 2292  34.885  29.410  14.164
29868W        W 2293  29.119  23.226   0.605
29869W        W 2294   1.482  43.851   4.099
29870W        W 2295  26.031  36.394   2.805
29871W        W 2296  42.525  24.591   3.782
29872W        W 2297  20.936   5.746   0.885
29873W        W 2298  31.168   5.115   1.641
29874W        W 2299  39.423   9.778   1.355
29875W        W 2300   4.888  36.610   3.604
29876W        W 2301  35.036  39.694  13.428
29877W        W 2302  16.870  38.559  12.622
29878W        W 2303  31.351   6.080   1.678
29879W        W 2304  18.788  24.938  10.540
29880W        W 2305  31.524  31.780   3.219
29881W        W 2306  37.002  41.546  13.906
29882W        W 2307  30.928  32.556  14.244
29883W        W 2308   5.749  29.495   2.307
29884W        W 2309  14.254  31.608   4.804
29885W        W 2310  15.859   8.005   4.134
29886W        W 2311  37.942  14.785  14.856
29887W        W 2312   2.511  21.274   2.397
29888W        W 2313  14.947  18.049  14.783
29889W        W 2314  37.266  29.192  11.828
29890W        W 2315  16.047   8.657   1.525
29891W        W 2316  28.533  35.716  13.567
29892W        W 2317  44.395  29.686   4.111
29893W        W 2318  26.044  33.764  10.656
29894W        W 2319  18.149  10.163  14.035
29895W        W 2320  25.527  28.317   0.824
29896W        W 2321  32.561  26.645   9.959
29897W        W 2322  10.143  21.814  13.391
29898W        W 2323  34.354  31.162   1.432
29899W        W 2324   9.315   1.001   9.824
29900W        W 2325  16.181  21.977   4.538
29901W        W 2326  16.578  21.011  14.119
29902W        W 2327  43.264  40.428  14.120
29903W        W 2328  12.436  40.672   3.573
29904W        W 2329   3.375  22.661   2.715
29905W        W 2330  10.299   2.802  14.601
29906W        W 2331   8.184   3.275   0.003
29907W        W 2332  27.546  36.879   4.586
29908W        W 2333  19.589  22.756  14.845
29909W        W 2334   3.947  19.724   3.324
29910W        W 2335   3.962  17.701   0.293
29911W        W 2336  37.578  42.539  14.300
29912W        W 2337  15.650  12.214   1.092
29913W        W 2338  21.994  13.278  11.194
29914W        W 2339  24.438   6.852   1.324
29915W        W 2340  35.563  44.847  12.603
29916W        W 2341  44.223  30.825  13.879
29917W        W 2342  30.072  23.268  14.546
29918W        W 2343  27.224  13.841   2.294
29919W        W 2344   8.857   1.328   2.566
29920W        W 2345  37.618  25.248   4.286
29921W        W 2346  14.567  35.835  11.952
29922W        W 2347   9.452  40.223  10.975
29923W        W 2348  20.179  35.874  13.912
29924W        W 2349  28.688  43.368   3.183
29925W        W 2350  40.092  10.264   4.427
29926W        W 2351  35.550  10.120   2.987
29927W        W 2352  41.368  40.703  10.513
29928W        W 2353  31.074  11.224  13.930
29929W        W 2354  28.448  27.632   0.255
29930W        W 2355  33.885  44.884  13.157
29931W        W 2356  38.747  21.524  12.054
29932W        W 2357  19.952  15.704  11.245
29933W        W 2358   8.242  41.002   2.963
29934W        W 2359  34.863  11.590  14.779
29935W        W 2360  33.027  43.943   1.418
29936W        W 2361  43.697  24.743   3.179
29937W        W 2362  20.185  28.149   2.646
29938W        W 2363  25.128  12.300   4.792
29939W        W 2364  26.120   7.663   3.642
29940W        W 2365  33.375   0.409  13.062
29941W        W 2366   5.683  13.681   0.457
29942W        W 2367  18.557  38.778   5.042
29943W        W 2368  14.811  22.291  11.230
29944W        W 2369  33.786  17.297   1.444
29945W        W 2370  21.609  18.718   1.763
29946W        W 2371   5.447   4.604   2.757
29947W        W 2372   6.781  30.087   4.876
29948W        W 2373  30.206  12.913  13.548
29949W        W 2374  17.080  27.964   2.289
29950W        W 2375   1.797   2.188  14.816
29951W        W 2376  19.977  39.572  14.415
29952W        W 2377   5.336   8.218  14.432
29953W        W 2378  32.603   3.224  12.045
29954W        W 2379  13.280  42.535   0.788
29955W        W 2380  25.105  31.785  10.686
29956W        W 2381  24.936  22.816  14.874
29957W        W 2382  14.130   1.252   4.678
29958W        W 2383  27.045  28.401  14.758
29959W        W 2384  23.107  41.469  12.964
29960W        W 2385   1.883  11.107  12.762
29961W        W 2386  41.963   2.784   3.085
29962W        W 2387  16.668  44.239  14.546
29963W        W 2388   4.829  33.126  10.755
29964W        W 2389  10.736  30.105  10.889
29965W        W 2390  31.599  22.120  10.126
29966W        W 2391  19.311   5.312   2.374
29967W        W 2392  43.597  37.073   2.839
29968W        W 2393  37.006   8.701  14.432
29969W        W 2394  13.279  13.571  12.662
29970W        W 2395  44.916  30.938   3.547
29971W        W 2396  43.330  25.026  14.900
29972W        W 2397  36.511  24.212  14.477
29973W        W 2398  32.579  17.248  10.712
29974W        W 2399   5.793  27.086  11.224
29975W        W 2400   7.310  39.556   0.398
29976W        W 2401   8.195  31.702   0.846
29977W        W 2402  15.000  32.328   9.974
29978W        W 2403  19.505  14.254   3.302
29979W        W 2404  34.945   8.551   4.592
29980W        W 2405  33.971  16.779  14.671
29981W        W 2406  19.285   1.413  13.954
29982W        W 2407   2.411   9.914   1.502
29983W        W 2408  28.083   8.958  14.573
29984W        W 2409  16.229  16.554   1.781
29985W        W 2410  32.854  27.193  13.939
29986W        W 2411  15.306  27.647   2.261
29987W        W 2412   8.787   1.977   4.835
29988W        W 2413  25.921  14.577   0.355
29989W        W 2414  29.378   5.953   2.056
29990W        W 2415  31.630  36.485  14.484
29991W        W 2416  29.148  16.864  14.397
29992W        W 2417   4.215  40.846   4.120
29993W        W 2418   5.011  29.369   1.708
29994W        W 2419  18.673  20.510  13.517
29995W        W 2420   7.789  36.925   2.885
29996W        W 2421  44.390  25.681   4.601
29997W        W 2422  22.795  21.065  13.250
29998W        W 2423   7.640  32.658   0.179
29999W        W 2424   0.839  17.070   4.871
30000W        W 2425  33.678  14.858   2.242
30001W        W 2426  10.502  38.495   1.793
30002W        W 2427  43.239   8.841   4.125
30003W        W 2428  31.529  34.725  11.161
30004W        W 2429  29.103   8.549   4.598
30005W        W 2430  14.682  44.261  10.967
30006W        W 2431  13.179   2.518   0.200
30007W        W 2432   1.314  25.441  13.420
30008W        W 2433  31.485  44.642   4.860
30009W        W 2434   0.403  28.615   1.438
30010W        W 2435   6.433  20.639   1.465
30011W        W 2436   4.542   7.360   3.119
30012W        W 2437  25.449  35.562  10.536
30013W        W 2438  19.837  34.608   2.821
30014W        W 2439  34.519  23.129  13.862
30015W        W 2440   4.767   5.340   4.907
30016W        W 2441  34.026  16.854   2.326
30017W        W 2442  30.969  10.223  12.464
30018W        W 2443   1.400  44.120  12.209
30019W        W 2444   4.705   3.376  12.871
30020W        W 2445  34.420   2.548   0.250
30021W        W 2446  12.095  43.525  11.654
30022W        W 2447  18.162  20.527   1.777
30023W        W 2448  44.953  17.585  13.600
30024W        W 2449   4.909  42.803   2.459
30025W        W 2450  27.050  10.642  10.982
30026W        W 2451   8.219   1.759   3.733
30027W        W 2452  22.719  38.005  14.522
30028W        W 2453   7.452  14.632   2.623
30029W        W 2454   0.859  39.078  12.691
30030W        W 2455  15.374   0.480   2.280
30031W        W 2456   9.856  20.719   0.016
30032W        W 2457  31.057  19.684  12.975
30033W        W 2458   0.269   6.424  10.991
30034W        W 2459  15.578  22.193   0.711
30035W        W 2460  23.033  28.111  14.677
30036W        W 2461  32.863  24.131  14.944
30037W        W 2462  28.196  35.133   0.782
30038W        W 2463  30.677  27.545  12.400
30039W        W 2464  10.740  33.985  13.990
30040W        W 2465  28.480  42.698  12.950
30041W        W 2466   4.007  19.360  14.838
30042W        W 2467  37.529  28.667   2.773
30043W        W 2468  33.436  40.763  14.567
30044W        W 2469  38.964   7.418   4.191
30045W        W 2470  39.437   7.680   1.742
30046W        W 2471  37.873  20.434  13.483
30047W        W 2472   7.401   2.312   4.802
30048W        W 2473  12.262  35.768  10.781
30049W        W 2474  25.892  37.535  12.406
30050W        W 2475   9.862  40.414   0.407
30051W        W 2476  20.201   0.876   0.339
30052W        W 2477  33.869  40.833  10.733
30053W        W 2478  11.785  27.137   1.395
30054W        W 2479  39.520   0.153  12.528
30055W        W 2480  15.220  42.369   0.365
30056W        W 2481  11.892  15.116   0.207
30057W        W 2482   4.759  18.564   4.775
30058W        W 2483   4.319  39.388  13.558
30059W        W 2484  25.585   1.498   3.790
30060W        W 2485  24.060  23.159   2.281
30061W        W 2486  29.115   0.286  14.174
30062W        W 2487   3.613  41.474  10.703
30063W        W 2488  35.889   5.705   0.980
30064W        W 2489   7.199  33.265   3.452
30065W        W 2490  12.212  18.778   1.194
30066W        W 2491  15.205  42.530  11.122
30067W        W 2492  10.472  29.465  10.498
30068W        W 2493   3.191  40.922   1.143
30069W        W 2494   6.305  29.013   2.835
30070W        W 2495  28.400  22.723   4.571
30071W        W 2496  31.119   7.811   0.337
30072W        W 2497  28.955  19.310  10.968
30073W        W 2498   5.770  28.040  14.049
30074W        W 2499  22.657  13.679   2.568
30075W        W 2500  14.985  13.795   0.870
30076W        W 2501  19.607  37.468   2.029
30077W        W 2502  19.135  21.565   1.841
30078W        W 2503  32.268  40.386   2.663
30079W        W 2504   1.461  18.376   3.560
30080W        W 2505  13.371  44.945   1.311
30081W        W 2506   1.705  11.283   4.166
30082W        W 2507  33.492  15.556  13.948
30083W        W 2508   4.429   4.755   1.777
30084W        W 2509  43.817  24.316  12.453
30085W        W 2510  43.172   1.216   4.332
30086W        W 2511  43.774  11.639   2.298
30087W        W 2512  24.607  38.729  13.009
30088W        W 2513  22.576  25.042   4.135
30089W        W 2514  36.990  39.526   2.645
30090W        W 2515   8.978  20.399  10.650
30091W        W 2516  24.227   5.750   4.088
30092W        W 2517   0.992  23.073  14.704
30093W        W 2518  41.888  12.421   4.271
30094W        W 2519  27.174  10.565  14.925
30095W        W 2520  20.406   8.451  14.252
30096W        W 2521  39.325  18.632   3.249
30097W        W 2522  14.310  21.113   1.919
30098W        W 2523  15.913  18.790   2.937
30099W        W 2524   3.664  18.035   3.198
30100W        W 2525  12.212  42.442   0.084
30101W        W 2526  28.977  10.155  11.503
30102W        W 2527  10.893   0.754  14.877
30103W        W 2528  26.574  30.020   3.198
30104W        W 2529   7.152  43.538   4.519
30105W        W 2530  13.109   3.666  10.209
30106W        W 2531  17.370  42.977  10.957
30107W        W 2532  11.150  21.669   4.367
30108W        W 2533   3.914   8.019   0.285
30109W        W 2534  31.452  14.888  11.554
30110W        W 2535   8.586  20.694   1.925
30111W        W 2536   4.985  34.304  12.056
30112W        W 2537  12.329  39.442   2.616
30113W        W 2538   8.680   6.261   4.505
30114W        W 2539   1.684  20.791  14.469
30115W        W 2540  21.038  44.661   3.667
30116W        W 2541  40.963  26.453   0.807
30117W        W 2542  14.839  10.020   9.925
30118W        W 2543  39.765  19.270   1.850
30119W        W 2544   8.337  31.140  14.056
30120W        W 2545  35.310   1.303  12.175
30121W        W 2546  36.893  26.227   2.800
30122W        W 2547   4.246  21.106  12.582
30123W        W 2548  13.819  25.597  12.328
30124W        W 2549  11.813   6.147   4.647
30125W        W 2550  25.046  42.255  14.904
30126W        W 2551   7.729  41.457   2.203
30127W        W 2552  29.350  34.349   0.973
30128W        W 2553  41.747  31.851   4.809
30129W        W 2554  21.658  27.586  12.158
30130W        W 2555  29.736  32.178  13.532
30131W        W 2556  37.947  11.342  13.680
30132W        W 2557  29.978  37.134  11.120
30133W        W 2558  14.655  36.374  12.050
30134W        W 2559  44.904  33.997  14.357
30135W        W 2560  42.839  34.289   3.179
30136W        W 2561  13.672   8.370   1.916
30137W        W 2562  23.802  37.532   2.688
30138W        W 2563  17.799  28.144  14.868
30139W        W 2564  18.530   8.813   3.446
30140W        W 2565  14.863  38.146   3.287
30141W        W 2566  41.083  27.689   1.594
30142W        W 2567   2.690  41.144  11.226
30143W        W 2568  22.242  38.436   4.574
30144W        W 2569  22.192  31.235  14.990
30145W        W 2570   5.240  34.884  11.072
30146W        W 2571  19.868  41.794  13.770
30147W        W 2572   6.453  12.217  11.772
30148W        W 2573  27.911  24.613   5.040
30149W        W 2574  17.551   1.209  12.432
30150W        W 2575  26.866  32.916  14.593
30151W        W 2576  37.837   5.336   0.836
30152W        W 2577  21.459  37.010  12.166
30153W        W 2578  42.545   5.407   4.095
30154W        W 2579  34.404  23.271   1.720
30155W        W 2580   5.261  24.859  14.066
30156W        W 2581  34.378  44.518  10.682
30157W        W 2582  39.452  42.592   4.224
30158W        W 2583  14.650   3.296  14.465
30159W        W 2584  36.546  41.091   1.323
30160W        W 2585  30.351  37.868  11.961
30161W        W 2586  32.328  10.235  12.568
30162W        W 2587  14.121  18.535  13.250
30163W        W 2588   5.825  41.683   0.426
30164W        W 2589   7.314   5.186  10.649
30165W        W 2590  26.750  15.154   1.023
30166W        W 2591  23.736  17.693  14.935
30167W        W 2592  14.496  39.254   1.813
30168W        W 2593  11.304  38.927  11.036
30169W        W 2594  37.254  35.876   1.886
30170W        W 2595  21.537  37.338  14.256
30171W        W 2596  40.635  26.203  13.983
30172W        W 2597   1.876  40.186   1.444
30173W        W 2598   2.194  33.055   0.923
30174W        W 2599  31.095  28.025   4.901
30175W        W 2600  15.116   2.838  12.027
30176W        W 2601  13.213  10.161   1.741
30177W        W 2602  13.020  24.641   2.346
30178W        W 2603  13.291  10.213  11.521
30179W        W 2604  27.577  20.097  11.561
30180W        W 2605  38.163  44.415  13.014
30181W        W 2606  44.215  18.190   3.714
30182W        W 2607  23.717  38.988  13.786
30183W        W 2608  16.079  42.033   1.892
30184W        W 2609  19.568  31.918  13.997
30185W        W 2610   3.320   5.935  12.793
30186W        W 2611  44.367  18.189   2.765
30187W        W 2612   6.016  31.693   3.627
30188W        W 2613  18.068  15.596   4.241
30189W        W 2614  18.247  14.319  13.529
30190W        W 2615   8.794  13.583   3.085
30191W        W 2616  41.956   7.784  12.473
30192W        W 2617   5.112  28.784   0.054
30193W        W 2618  29.961  24.298   3.830
30194W        W 2619  44.981   4.715   4.552
30195W        W 2620  31.644  27.417   4.116
30196W        W 2621   7.670  13.660  11.557
30197W        W 2622   9.856  21.233   2.442
30198W        W 2623  12.121  22.727  14.291
30199W        W 2624  17.381  42.737  10.475
30200W        W 2625  32.215  31.971   2.298
30201W        W 2626  18.328  10.345   3.788
30202W        W 2627   6.594  32.245   0.698
30203W        W 2628  10.644  27.868  14.800
30204W        W 2629   2.735  12.897  12.889
30205W        W 2630  10.324  37.449   3.144
30206W        W 2631  41.262  31.376  11.196
30207W        W 2632  36.009  11.811  11.561
30208W        W 2633  23.442  16.613   0.439
30209W        W 2634  17.665   1.592  14.837
30210W        W 2635  30.178  15.550  12.543
30211W        W 2636  31.031  40.308  14.042
30212W        W 2637  29.824   7.368  12.091
30213W        W 2638  19.187  36.391  13.403
30214W        W 2639   9.430  21.157  12.556
30215W        W 2640  15.660  12.296   3.867
30216W        W 2641  14.659  34.533   2.400
30217W        W 2642  31.478   9.705  12.891
30218W        W 2643  39.955  12.183  11.449
30219W        W 2644  22.903  13.150  11.579
30220W        W 2645  12.226   2.242   4.136
30221W        W 2646  29.104  26.074   3.138
30222W        W 2647  18.974  31.600   4.105
30223W        W 2648  10.884  26.211   3.744
30224W        W 2649   8.409  35.014  11.696
30225W        W 2650   4.138  22.228   0.776
30226W        W 2651  44.531   0.153  10.662
30227W        W 2652  37.001  34.160   3.209
30228W        W 2653   5.384   0.253   3.437
30229W        W 2654  21.522  18.156  11.640
30230W        W 2655  33.913   3.672   1.611
30231W        W 2656  18.247   1.415  12.871
30232W        W 2657   9.562  16.811  12.528
30233W        W 2658  14.237   7.280  10.592
30234W        W 2659  11.347  11.687   2.948
30235W        W 2660  26.453   0.996  12.480
30236W        W 2661  12.423   9.699   1.380
30237W        W 2662  19.692  29.994   4.780
30238W        W 2663  43.445   6.014   3.432
30239W        W 2664  42.314  20.717   1.212
30240W        W 2665  25.711  34.927  10.302
30241W        W 2666   0.445  39.191  13.357
30242W        W 2667   8.378  25.697   2.605
30243W        W 2668  29.551   2.916   3.886
30244W        W 2669  29.301  16.258  11.006
30245W        W 2670  22.479  17.054   3.329
30246W        W 2671   7.381  16.955   1.411
30247W        W 2672   0.490  30.402  14.473
30248W        W 2673   6.642  31.402  12.366
30249W        W 2674   9.784   6.431  14.379
30250W        W 2675  33.106  30.473   5.107
30251W        W 2676  41.295  14.133   0.907
30252W        W 2677  28.963  42.469  12.126
30253W        W 2678  36.855  24.453  14.844
30254W        W 2679   7.098  30.681  14.774
30255W        W 2680  20.239  29.168   4.499
30256W        W 2681  12.171  37.000   3.728
30257W        W 2682  24.776  10.143  14.113
30258W        W 2683   5.648  34.235   0.350
30259W        W 2684  41.308  21.005   0.797
30260W        W 2685  39.166  37.392  12.946
30261W        W 2686  36.929   5.489  12.618
30262W        W 2687   1.905  26.686  11.581
30263W        W 2688  21.181  36.825   4.544
30264W        W 2689  14.243   1.997   2.558
30265W        W 2690   8.955  40.883   4.546
30266W        W 2691  41.064  17.408  12.554
30267W        W 2692   6.029  29.711   1.863
30268W        W 2693  10.785  21.793   1.253
30269W        W 2694   4.259  29.726   3.434
30270W        W 2695  39.684  23.525   4.288
30271W        W 2696  16.269   3.393  11.684
30272W        W 2697  30.487   0.156  12.429
30273W        W 2698  21.829  40.793  14.292
30274W        W 2699  15.207  29.369  14.210
30275W        W 2700   9.672   9.195  12.948
30276W        W 2701  17.246  24.381  11.887
30277W        W 2702  44.813  37.842   1.976
30278W        W 2703  23.568  15.451  11.520
30279W        W 2704  12.319  21.801  10.625
30280W        W 2705   0.142  16.587   2.767
30281W        W 2706  36.358   1.714  10.721
30282W        W 2707  12.424  42.461  12.551
30283W        W 2708  16.739  17.853   1.949
30284W        W 2709   1.057  20.817   5.096
30285W        W 2710   7.384  16.619   3.429
30286W        W 2711  38.031  41.899   3.625
30287W        W 2712  10.853   4.334  12.437
30288W        W 2713   5.728   7.840   1.648
30289W        W 2714  27.163  28.182  10.324
30290W        W 2715  41.491  39.333   2.346
30291W        W 2716   8.798  31.339  13.890
30292W        W 2717   4.782  10.627   3.731
30293W        W 2718  33.910  40.711  11.648
30294W        W 2719  42.873  32.005  14.495
30295W        W 2720   4.293  22.183   2.622
30296W        W 2721   7.944   5.279  13.747
30297W        W 2722   0.402  19.065  14.813
30298W        W 2723  33.588   6.730  12.502
30299W        W 2724  41.985   9.441  10.949
30300W        W 2725  18.383  16.384  11.549
30301W        W 2726   7.684  35.121   3.231
30302W        W 2727   8.152  13.255   0.336
30303W        W 2728  12.608  12.766   3.760
30304W        W 2729  14.089  18.705  11.673
30305W        W 2730   5.985  26.022   3.258
30306W        W 2731  10.282  23.139   0.325
30307W        W 2732  14.882  27.244   0.456
30308W        W 2733  14.538  35.464  14.071
30309W        W 2734  20.167  26.186   2.755
30310W        W 2735   0.858  16.670   2.050
30311W        W 2736  28.801   2.852  13.649
30312W        W 2737  17.690   1.348   0.683
30313W        W 2738   2.755   2.695  12.034
30314W        W 2739  18.551   3.198   4.835
30315W        W 2740   4.676  10.915  14.841
30316W        W 2741  18.081  21.812  12.854
30317W        W 2742  40.449  16.687  12.432
30318W        W 2743   3.477   6.658   0.297
30319W        W 2744  16.825   7.357   2.278
30320W        W 2745  19.437   3.760   3.221
30321W        W 2746   9.834  24.042  13.473
30322W        W 2747  41.235   5.785   2.891
30323W        W 2748   0.733  28.744  12.533
30324W        W 2749  14.254  13.237  13.999
30325W        W 2750   6.574   6.260  11.932
30326W        W 2751  38.071  44.932   1.860
30327W        W 2752  41.303  31.959  13.648
30328W        W 2753  15.315  36.081   2.413
30329W        W 2754   2.234  36.355  10.806
30330W        W 2755  41.548   6.407   5.121
30331W        W 2756  14.322  18.095  10.722
30332W        W 2757  10.664  13.673   2.027
30333W        W 2758  27.136  38.338  13.893
30334W        W 2759  32.458  26.153  11.728
30335W        W 2760  40.366   2.181   0.762
30336W        W 2761  25.621  44.697  11.123
30337W        W 2762  26.007   1.500  12.958
30338W        W 2763  41.730  42.535   2.372
30339W        W 2764  29.519  23.404   2.985
30340W        W 2765  36.537   7.175   0.357
30341W        W 2766  34.580   7.569  13.554
30342W        W 2767  25.899  17.974  12.485
30343W        W 2768  41.516  33.924   3.817
30344W        W 2769   9.081   5.767   1.840
30345W        W 2770  25.904  22.756   0.696
30346W        W 2771  22.171  16.980   1.970
30347W        W 2772  25.728  43.830   2.470
30348W        W 2773  15.673  31.160  10.631
30349W        W 2774  40.979  17.509   0.816
30350W        W 2775  40.911  34.512   2.656
30351W        W 2776  25.681  36.608   0.545
30352W        W 2777  41.706   1.866  12.965
30353W        W 2778  32.362  29.647  10.708
30354W        W 2779  43.762   2.838   2.637
30355W        W 2780  22.700  22.092  11.635
30356W        W 2781   5.182  22.336  10.393
30357W        W 2782  27.646  41.886  12.790
30358W        W 2783  38.790  40.504  14.784
30359W        W 2784   5.299   8.959   1.756
30360W        W 2785  23.088  29.953  13.870
30361W        W 2786  37.429  22.241   2.926
30362W        W 2787  24.156   0.785   4.066
30363W        W 2788  42.011   9.482   3.697
30364W        W 2789   2.872  31.152  11.578
30365W        W 2790  43.306  14.233  12.095
30366W        W 2791   3.972   8.460   1.988
30367W        W 2792   2.892  41.003   2.255
30368W        W 2793  13.115   2.443  13.345
30369W        W 2794  31.114  34.547  13.382
30370W        W 2795   2.385  29.554   3.380
30371W        W 2796  22.980  41.429  14.455
30372W        W 2797  40.455  29.371  10.953
30373W        W 2798   1.205   0.423   2.187
30374W        W 2799  23.620  35.496  12.646
30375W        W 2800  35.939   8.423  14.961
30376W        W 2801   7.353   8.002   3.214
30377W        W 2802  30.373  22.164  12.089
30378W        W 2803  39.183  40.715   4.135
30379W        W 2804  13.063  21.940   1.225
30380W        W 2805  38.396  13.520  13.903
30381W        W 2806  37.473  44.980  14.780
30382W        W 2807  25.264  14.828   0.264
30383W        W 2808  27.701   0.342   0.841
30384W        W 2809   4.868  26.665   1.020
30385W        W 2810  23.157  44.110   2.828
30386W        W 2811  17.520  24.425  12.599
30387W        W 2812  27.124  37.533   3.216
30388W        W 2813  38.318  37.958  12.778
30389W        W 2814   9.629  26.140   0.030
30390W        W 2815   9.328  20.894  10.724
30391W        W 2816   9.510  40.597   2.413
30392W        W 2817   0.361  35.466   1.817
30393W        W 2818  10.814  17.104  12.516
30394W        W 2819  26.433  38.093  12.406
30395W        W 2820  21.645  40.487  11.140
30396W        W 2821   5.397   5.759   1.478
30397W        W 2822  21.534  20.700  12.895
30398W        W 2823  30.038  23.608  12.577
30399W        W 2824  25.266  32.434   0.439
30400W        W 2825  13.786   4.801  13.879
30401W        W 2826   8.417  31.987  14.409
30402W        W 2827  15.052  44.253  14.805
30403W        W 2828  23.003  10.698  12.914
30404W        W 2829  15.012  44.782   4.215
30405W        W 2830  23.256  30.546   0.125
30406W        W 2831  17.051  19.726  14.598
30407W        W 2832  39.036  22.908  14.953
30408W        W 2833  36.943  34.333  12.494
30409W        W 2834  38.847  30.881  13.010
30410W        W 2835  28.446  11.250  10.875
30411W        W 2836   6.250  40.490   0.391
30412W        W 2837  19.132  30.224  14.738
30413W        W 2838  25.501   7.943  14.301
30414W        W 2839  21.554  44.206   0.041
30415W        W 2840  40.691  37.345   3.837
30416W        W 2841  25.778  39.985  10.823
30417W        W 2842  32.525  11.362  12.940
30418W        W 2843  13.240  37.663   1.620
30419W        W 2844   6.262   6.473  12.933
30420W        W 2845  10.683   3.848  13.072
30421W        W 2846  30.598  11.742  14.537
30422W        W 2847  43.354  24.971   1.760
30423W        W 2848  26.147  29.918   2.372
30424W        W 2849  11.305   5.002  11.915
30425W        W 2850  32.068  35.866   2.802
30426W        W 2851  30.943  16.699  13.779
30427W        W 2852  24.974  40.659   2.354
30428W        W 2853  44.769  21.615   3.781
30429W        W 2854  25.060   6.119  11.516
30430W        W 2855  13.185  28.059  12.495
30431W        W 2856   8.364  39.685  13.846
30432W        W 2857  31.865  30.581   2.606
30433W        W 2858  42.185  15.514   3.741
30434W        W 2859  29.458  44.179   3.117
30435W        W 2860   1.912   6.873  14.528
30436W        W 2861  33.083   6.048  12.805
30437W        W 2862  14.135   0.986   1.262
30438W        W 2863  10.371  39.091  11.069
30439W        W 2864   9.128   2.565  11.706
30440W        W 2865  11.556  41.297   0.290
30441W        W 2866  12.400   4.002   2.312
30442W        W 2867  22.785   7.841   3.704
30443W        W 2868  36.038  20.749  13.105
30444W        W 2869  41.486  33.210  11.925
30445W        W 2870  35.665  44.752  11.214
30446W        W 2871   4.181  36.888   1.834
30447W        W 2872  10.689  42.100   0.811
30448W        W 2873   6.339  31.255   2.343
30449W        W 2874  14.587   5.371   0.292
30450W        W 2875  38.873  23.923   4.525
30451W        W 2876  37.136  26.244  12.078
30452W        W 2877   6.872  43.498  11.039
30453W        W 2878  19.517  27.242   2.160
30454W        W 2879   0.922   2.760  13.558
30455W        W 2880  31.933   2.260   2.758
30456W        W 2881   6.630  16.143   3.382
30457W        W 2882  43.509   6.449   0.617
30458W        W 2883  31.084  43.974  14.977
30459W        W 2884  13.326   0.477   1.377
30460W        W 2885  20.235  19.637  14.380
30461W        W 2886  35.929   5.435   1.457
30462W        W 2887  13.389   5.697  11.205
30463W        W 2888  10.835   4.138   3.376
30464W        W 2889  40.458   5.881   4.539
30465W        W 2890  29.014  43.018   4.580
30466W        W 2891  25.092  31.435   0.835
30467W        W 2892  19.174  29.755   3.959
30468W        W 2893  41.298  33.762  11.804
30469W        W 2894  31.101  23.051   3.379
30470W        W 2895  33.269   3.877  12.214
30471W        W 2896  36.506  20.114   1.979
30472W        W 2897   1.204  26.197  12.267
30473W        W 2898  41.277  32.924   4.493
30474W        W 2899  17.567  22.182  12.845
30475W        W 2900  24.145  31.336  11.006
30476W        W 2901  40.807  13.334   4.745
30477W        W 2902  34.435  44.371  11.676
30478W        W 2903  12.387  43.692  14.412
30479W        W 2904  34.863  41.012   2.191
30480W        W 2905  21.966  22.568  10.609
30481W        W 2906  13.923  39.981  11.618
30482W        W 2907  12.356  21.518   5.049
30483W        W 2908  23.540  32.276  11.989
30484W        W 2909  29.728  33.523  12.967
30485W        W 2910   3.937   7.363   1.702
30486W        W 2911  15.615   8.102  14.881
30487W        W 2912  44.253  19.258   3.680
30488W        W 2913  29.409  41.032   5.055
30489W        W 2914   2.118   9.683  11.584
30490W        W 2915  40.931  19.109  13.368
30491W        W 2916  37.400   0.838   0.709
30492W        W 2917  38.371  20.578  12.186
30493W        W 2918  25.728  12.127   0.940
30494W        W 2919  31.667   3.301  14.045
30495W        W 2920  30.459  36.671   4.313
30496W        W 2921  26.261  24.676  12.421
30497W        W 2922   0.763  37.557   5.164
30498W        W 2923  24.431   0.619  13.466
30499W        W 2924  22.180  35.048   4.610
30500W        W 2925  29.115  41.398  10.250
30501W        W 2926   6.955  18.549   2.755
30502W        W 2927  12.236  20.554   0.770
30503W        W 2928  14.138  33.705  10.767
30504W        W 2929  15.635  17.111   4.593
30505W        W 2930  26.538  18.072   0.716
30506W        W 2931  23.717  36.491  12.937
30507W        W 2932  27.554  21.984   3.600
30508W        W 2933  24.586  29.592  11.208
30509W        W 2934  40.805  38.586  10.603
30510W        W 2935  34.400  23.058   1.249
30511W        W 2936   1.349  28.482   0.528
30512W        W 2937  14.233  38.560  12.421
30513W        W 2938  34.422  27.639   1.795
30514W        W 2939  14.374   6.469   4.961
30515W        W 2940  44.803  11.850   4.264
30516W        W 2941   0.888  21.782  12.540
30517W        W 2942  40.296  19.226  14.081
30518W        W 2943  27.948  10.763  10.372
30519W        W 2944  30.565  21.350   0.458
30520W        W 2945   3.934   9.371   1.327
30521W        W 2946  30.582  29.181  11.168
30522W        W 2947  16.014  22.972  12.116
30523W        W 2948  31.479  27.510  14.745
30524W        W 2949  22.483  33.135  11.843
30525W        W 2950  12.243  18.964   4.735
30526W        W 2951  30.551  30.466  10.750
30527W        W 2952  31.306  22.128   0.333
30528W        W 2953  31.832  43.915  10.745
30529W        W 2954  26.446  15.641   1.148
30530W        W 2955  15.551  33.811  13.910
30531W        W 2956   2.767  25.998  14.747
30532W        W 2957  24.551   3.030   4.725
30533W        W 2958  29.594  33.648   5.459
30534W        W 2959   5.021   4.497  12.923
30535W        W 2960  40.010  36.593  14.240
30536W        W 2961  30.176  41.786   5.699
30537W        W 2962  28.616  42.462  14.030
30538W        W 2963  18.351   7.275   3.269
30539W        W 2964  34.118  37.028   3.730
30540W        W 2965  17.689  35.075   9.914
30541W        W 2966   1.751  40.881   2.815
30542W        W 2967  22.235  31.019  13.318
30543W        W 2968  23.213  15.911  10.934
30544W        W 2969   8.882  36.922  12.095
30545W        W 2970   9.745  19.257  10.616
30546W        W 2971  31.430  24.075  14.756
30547W        W 2972  38.110  25.631   0.540
30548W        W 2973  36.304  29.048  11.425
30549W        W 2974  12.637   0.631  12.131
30550W        W 2975   8.208   4.767  14.921
30551W        W 2976  30.167   9.558  13.070
30552W        W 2977   8.217   5.491   1.763
30553W        W 2978  44.936  32.803  13.774
30554W        W 2979   6.251  43.052   0.040
30555W        W 2980  15.784  22.257   2.373
30556W        W 2981  17.799  43.051  13.207
30557W        W 2982  24.234  41.908  13.613
30558W        W 2983  36.979  28.650  11.266
30559W        W 2984  25.656  30.376   3.171
30560W        W 2985  44.436  35.399  14.459
30561W        W 2986  39.784  30.935   3.246
30562W        W 2987  27.216  32.706   4.147
30563W        W 2988  42.479  22.544  14.234
30564W        W 2989  36.960  38.886  10.607
30565W        W 2990   9.853  43.971   1.854
30566W        W 2991  41.246  29.467  13.312
30567W        W 2992   7.134  16.020  14.772
30568W        W 2993  24.312  15.409  11.144
30569W        W 2994  38.857  14.531   1.326
30570W        W 2995  35.667  43.074  10.839
30571W        W 2996  31.951  28.169   0.270
30572W        W 2997   8.625  26.057   2.283
30573W        W 2998  18.781  13.506  11.294
30574W        W 2999  44.858  32.087   3.091
30575W        W 3000   5.919  20.503  13.504
30576W        W 3001  28.904  44.027   4.855
30577W        W 3002  14.528   3.839  11.132
30578W        W 3003  42.696  12.108   1.768
30579W        W 3004  18.789  30.358   2.354
30580W        W 3005  42.485  14.037   4.615
30581W        W 3006  36.281  38.856  13.034
30582W        W 3007  35.555  15.348   3.208
30583W        W 3008  21.176  14.664  11.995
30584W        W 3009   6.647  18.250   0.728
30585W        W 3010  31.610  31.160  11.014
30586W        W 3011   8.249   4.611  14.385
30587W        W 3012  18.038  37.396  11.531
30588W        W 3013  35.793  35.369  11.153
30589W        W 3014  35.430  25.770   3.899
30590W        W 3015  37.923   0.112  11.262
30591W        W 3016   2.375   6.452  10.988
30592W        W 3017  36.299  12.682   5.284
30593W        W 3018  32.397  41.820   4.123
30594W        W 3019  27.316  23.991   1.382
30595W        W 3020  17.257   2.475  13.079
30596W        W 3021   7.180  39.359   3.844
30597W        W 3022  21.772  15.007   3.248
30598W        W 3023  32.767  31.598  13.836
30599W        W 3024  18.514  36.979   1.336
30600W        W 3025  24.661  33.082   0.051
30601W        W 3026   9.480  21.313  11.547
30602W        W 3027  17.620  18.359   1.699
30603W        W 3028   9.595  44.855  12.089
30604W        W 3029  10.790   2.127   3.302
30605W        W 3030  33.338  44.838   1.330
30606W        W 3031  24.116  17.967   2.238
30607W        W 3032  34.888  36.793   2.204
30608W        W 3033   2.863   0.825  14.997
30609W        W 3034  29.176  24.575   0.493
30610W        W 3035  10.262  12.139   3.460
30611W        W 3036  17.981  26.107  14.021
30612W        W 3037   8.697   9.361  13.903
30613W        W 3038  13.657   6.848   1.830
30614W        W 3039  28.195   7.247   9.655
30615W        W 3040  12.844  16.683   2.374
30616W        W 3041  36.523  11.082   1.172
30617W        W 3042  11.933  42.322   4.806
30618W        W 3043  30.528  14.328  13.676
30619W        W 3044   5.026  40.471  11.062
30620W        W 3045   4.677  13.678  10.603
30621W        W 3046  40.048  14.132   1.423
30622W        W 3047  43.984  40.438  13.763
30623W        W 3048   2.483  31.075   1.313
30624W        W 3049  12.034  36.128  13.490
30625W        W 3050   3.875  25.495   2.817
30626W        W 3051  38.890  40.073  14.485
30627W        W 3052  31.118  12.111   1.315
30628W        W 3053   9.152  35.325  12.076
30629W        W 3054  12.368  31.372   1.223
30630W        W 3055  33.827   2.322  11.922
30631W        W 3056  41.537  10.272   3.757
30632W        W 3057  18.653   8.774  13.868
30633W        W 3058   5.442  28.910   0.858
30634W        W 3059  22.606   4.670  14.402
30635W        W 3060  20.069  44.259   2.383
30636W        W 3061  10.400  43.293   3.700
30637W        W 3062  16.785   2.283  13.095
30638W        W 3063   9.680  20.223   4.256
30639W        W 3064   8.923   8.163   0.505
30640W        W 3065  23.130   6.620   3.718
30641W        W 3066  20.808  29.616  14.791
30642W        W 3067  21.478  37.122   1.491
30643W        W 3068   8.472   0.482  12.622
30644W        W 3069  33.485  14.135   0.897
30645W        W 3070  33.063  35.407  13.512
30646W        W 3071   3.464   8.603   0.379
30647W        W 3072  36.103   6.302  14.800
30648W        W 3073  44.472  11.072   4.581
30649W        W 3074   8.058  35.747  14.645
30650W        W 3075  11.320  11.723   3.970
30651W        W 3076  44.477  12.787  10.948
30652W        W 3077  27.106  11.823  11.137
30653W        W 3078  12.436  25.679  11.585
30654W        W 3079  11.252  22.006   1.431
30655W        W 3080  17.750  39.323   2.228
30656W        W 3081  30.148  29.916   3.041
30657W        W 3082  28.871  34.070   1.875
30658W        W 3083  41.816  43.477   1.378
30659W        W 3084  15.928  41.205  10.666
30660W        W 3085  23.210  11.163  12.954
30661W        W 3086  16.611  28.126   4.970
30662W        W 3087  11.543  17.149   3.692
30663W        W 3088   5.981  27.144  14.492
30664W        W 3089  29.878   2.537   1.729
30665W        W 3090  21.600  10.451   3.637
30666W        W 3091  23.037  31.554  14.183
30667W        W 3092   5.971   6.770   1.841
30668W        W 3093  44.567  31.863  13.860
30669W        W 3094  19.852  21.894   0.407
30670W        W 3095  41.071  25.757   0.005
30671W        W 3096   3.246  42.159   1.035
30672W        W 3097   8.442  38.223  14.080
30673W        W 3098  29.966  31.302  10.971
30674W        W 3099   2.911  37.553  13.113
30675W        W 3100  34.113  21.117  10.774
30676W        W 3101  39.377  40.891   3.625
30677W        W 3102  38.888  21.215   2.714
30678W        W 3103  36.621  42.000   3.377
30679W        W 3104  27.168  28.002  13.385
30680W        W 3105  16.718  33.996   1.367
30681W        W 3106   7.760  21.064   3.245
30682W        W 3107  12.429  41.899   1.939
30683W        W 3108  33.300  31.884   3.067
30684W        W 3109  31.657   7.089  10.477
30685W        W 3110  29.976  23.778   9.900
30686W        W 3111   2.989  22.126   3.325
30687W        W 3112  42.011   7.010   4.783
30688W        W 3113   7.378  35.986  14.076
30689W        W 3114   9.409   5.370  10.774
30690W        W 3115  33.377  33.012  14.745
30691W        W 3116  35.333  35.635  11.038
30692W        W 3117  16.539   9.286  13.877
30693W        W 3118  41.550  10.245  10.338
30694W        W 3119  13.452  12.067   4.949
30695W        W 3120  34.947   5.167   1.435
30696W        W 3121  34.325  17.638   2.875
30697W        W 3122  35.488  35.270   1.978
30698W        W 3123  25.083  33.156   2.671
30699W        W 3124  42.068  39.402   1.257
30700W        W 3125  25.830  29.486   1.379
30701W        W 3126  21.291   0.041   3.404
30702W        W 3127  29.965  42.998  11.572
30703W        W 3128   3.158  36.431  11.485
30704W        W 3129   7.359  13.831   0.289
30705W        W 3130  23.201   2.172  12.323
30706W        W 3131   5.395  23.987  10.947
30707W        W 3132  33.619  20.602   1.795
30708W        W 3133  42.599  36.767  14.346
30709W        W 3134  37.124  23.589   0.657
30710W        W 3135  22.435  29.165  13.533
30711W        W 3136  37.382  20.446   4.879
30712W        W 3137  20.205  44.905   4.891
30713W        W 3138  37.039  38.965  11.640
30714W        W 3139   7.303  22.493  13.474
30715W        W 3140  16.133   0.028  12.979
30716W        W 3141   7.896  22.608   4.516
30717W        W 3142  15.645   6.492   2.813
30718W        W 3143  22.605  44.228   2.081
30719W        W 3144  21.612   2.312  14.853
30720W        W 3145  18.731   3.853   0.180
30721W        W 3146  23.433  37.896  12.489
30722W        W 3147  23.449  31.947   5.003
30723W        W 3148  24.793   1.492  13.514
30724W        W 3149  22.753  43.329  10.341
30725W        W 3150   9.613  17.968   3.967
30726W        W 3151  26.116  35.371  11.027
30727W        W 3152  12.419  22.641  10.395
30728W        W 3153  43.798   2.928  13.942
30729W        W 3154  33.550  32.010  12.964
30730W        W 3155  40.247  37.250   3.612
30731W        W 3156   0.900  32.789  14.945
30732W        W 3157  22.809  24.170   4.373
30733W        W 3158  21.216  43.547   1.245
30734W        W 3159  20.785  33.365  14.310
30735W        W 3160  21.765  27.904   4.585
30736W        W 3161  37.709  15.315   1.682
30737W        W 3162  16.155   1.003  14.241
30738W        W 3163  36.301  18.447  12.781
30739W        W 3164  21.399   8.238   4.633
30740W        W 3165  42.563  10.161   2.572
30741W        W 3166   6.677  43.910  13.300
30742W        W 3167  21.740  37.024   0.444
30743W        W 3168  32.214  35.453  10.636
30744W        W 3169  20.185  23.221   4.355
30745W        W 3170   5.964  39.100   1.035
30746W        W 3171   6.087  36.724   2.076
30747W        W 3172   9.724   3.429   4.899
30748W        W 3173   1.134  16.357   1.175
30749W        W 3174  43.450  24.262  11.502
30750W        W 3175  32.117  41.648  14.128
30751W        W 3176  42.058  10.883  12.831
30752W        W 3177   3.815   2.226   2.318
30753W        W 3178   0.165  11.090   3.220
30754W        W 3179  31.426   3.776   2.312
30755W        W 3180  32.036   4.944  12.081
30756W        W 3181  31.265  12.187   3.898
30757W        W 3182  33.248  17.309   2.429
30758W        W 3183  41.853  21.550   0.527
30759W        W 3184  29.279  44.903  14.493
30760W        W 3185  37.593   3.795   3.709
30761W        W 3186  11.415  41.865  13.385
30762W        W 3187   1.466  37.330   0.515
30763W        W 3188  20.976   5.343   4.065
30764W        W 3189  32.508  35.560   0.783
30765W        W 3190  39.475  40.267   4.311
30766W        W 3191   4.241  13.159  13.029
30767W        W 3192  44.197   9.936   2.197
30768W        W 3193  41.497  32.669  10.773
30769W        W 3194  22.214   7.997   2.048
30770W        W 3195  37.675  43.004  14.080
30771W        W 3196  42.789  23.095  10.994
30772W        W 3197  28.394  27.041   3.742
30773W        W 3198  20.204  16.812   4.042
30774W        W 3199  28.410  43.408  12.175
30775W        W 3200  34.844  28.339   1.290
30776W        W 3201   5.407  11.297   3.760
30777W        W 3202  43.324   2.070  10.725
30778W        W 3203  19.879  27.307  13.575
30779W        W 3204  11.158  29.757   2.129
30780W        W 3205  39.889  38.130  12.934
30781W        W 3206  29.177  36.579  12.337
30782W        W 3207  19.465  27.583   2.736
30783W        W 3208  35.539  37.686  10.920
30784W        W 3209  21.329  19.610   4.778
30785W        W 3210   7.322   0.489   3.185
30786W        W 3211  16.153  28.462   1.288
30787W        W 3212   8.620   7.309  12.932
30788W        W 3213   5.955  34.533   3.675
30789W        W 3214  36.353  19.380  14.568
30790W        W 3215   0.114  34.001   5.363
30791W        W 3216  24.285   6.589   4.263
30792W        W 3217  21.072  35.911   4.385
30793W        W 3218  10.672   5.638  11.248
30794W        W 3219   5.699  43.395   3.329
30795W        W 3220  23.197   5.650  12.935
30796W        W 3221  17.157  15.618   4.306
30797W        W 3222  13.245  33.149  10.804
30798W        W 3223  41.646  27.800   2.786
30799W        W 3224  14.309  43.401   0.942
30800W        W 3225  27.617  38.589  11.177
30801W        W 3226  38.869  11.077   2.508
30802W        W 3227  19.570  21.502  13.912
30803W        W 3228   1.816  24.693   0.232
30804W        W 3229  11.686  27.309   3.647
30805W        W 3230   9.771   3.727  14.347
30806W        W 3231  34.647  37.143  13.273
30807W        W 3232  30.436  39.897   4.460
30808W        W 3233  19.637  10.117  14.732
30809W        W 3234  29.748  29.259   3.704
30810W        W 3235  39.052  37.058  14.021
30811W        W 3236   7.862  24.940  11.249
30812W        W 3237  44.486  43.320  10.811
30813W        W 3238  42.663   9.103   1.449
30814W        W 3239  23.743  13.072  12.794
30815W        W 3240  32.919  27.745   4.537
30816W        W 3241   1.864  23.079   0.264
30817W        W 3242  38.722  13.388  13.507
30818W        W 3243  38.036  34.837   2.264
30819W        W 3244  16.413  21.276  10.698
30820W        W 3245  19.251  42.926  11.860
30821W        W 3246  34.050  42.851   2.319
30822W        W 3247   7.464  44.014  12.989
30823W        W 3248  17.083  36.048   3.864
30824W        W 3249  23.446  42.366  13.887
30825W        W 3250   5.370  18.124   0.320
30826W        W 3251  35.132  41.484  10.098
30827W        W 3252   3.425  17.640   4.627
30828W        W 3253  26.683  38.149   3.600
30829W        W 3254  21.108   3.502  10.862
30830W        W 3255   4.577  22.962   2.354
30831W        W 3256   0.280  41.103   1.859
30832W        W 3257  44.054  34.305  13.107
30833W        W 3258  44.948   0.835  13.586
30834W        W 3259  24.878  13.628  13.378
30835W        W 3260  31.957  40.627  13.004
30836W        W 3261  30.109  36.925  12.562
30837W        W 3262  29.125   8.475   1.876
30838W        W 3263   3.546  21.493   4.595
30839W        W 3264   6.467  43.161  14.454
30840W        W 3265  30.762  28.110  12.603
30841W        W 3266  36.330  12.212  12.863
30842W        W 3267  18.242  18.214  10.734
30843W        W 3268  11.736  40.771   3.914
30844W        W 3269  30.519   2.961  10.911
30845W        W 3270  15.789  43.518   1.695
30846W        W 3271  42.055  25.463   2.410
30847W        W 3272  40.314  33.206  10.609
30848W        W 3273  32.640  22.214   3.392
30849W        W 3274  15.609  41.280   4.060
30850W        W 3275  27.602   8.818  12.431
30851W        W 3276   0.257  12.318  12.145
30852W        W 3277  28.118  40.700  11.587
30853W        W 3278  17.153   8.308  10.981
30854W        W 3279  31.814   1.506   0.844
30855W        W 3280  24.918  14.858   2.764
30856W        W 3281  12.102   5.885   0.279
30857W        W 3282  20.816  33.420  11.938
30858W        W 3283  19.702   0.814   4.099
30859W        W 3284  12.058  20.964   2.589
30860W        W 3285   5.284  41.872  13.356
30861W        W 3286   0.914   1.831  13.517
30862W        W 3287   4.509  34.432   0.919
30863W        W 3288  28.517  20.981   2.253
30864W        W 3289  44.524  17.365  13.058
30865W        W 3290  29.983  13.205   3.086
30866W        W 3291  10.742  37.753  12.240
30867W        W 3292  39.063  40.404   4.572
30868W        W 3293  26.262   0.537   0.521
30869W        W 3294  43.674  23.255  11.485
30870W        W 3295   6.305   7.298  10.682
30871W        W 3296  20.633   0.816  13.036
30872W        W 3297   8.408  29.429   0.578
30873W        W 3298  26.787  32.438  11.160
30874W        W 3299   6.859   5.124   1.182
30875W        W 3300  19.597  26.240   3.125
30876W        W 3301  33.021  38.293   0.274
30877W        W 3302  11.384  37.760   3.289
30878W        W 3303  17.462  31.816  14.425
30879W        W 3304  22.218  22.297  13.547
30880W        W 3305  13.849  19.527   2.462
30881W        W 3306  38.822  36.743   2.595
30882W        W 3307  36.391   1.642   1.944
30883W        W 3308  34.225  18.635   4.394
30884W        W 3309  36.919  33.943   4.628
30885W        W 3310  34.438  12.826  13.541
30886W        W 3311  17.014  21.587   3.622
30887W        W 3312  29.421  19.082   2.979
30888W        W 3313  37.344  27.612   9.630
30889W        W 3314  35.360  12.264  11.950
30890W        W 3315  29.505  20.163   0.868
30891W        W 3316  35.961  43.577   1.493
30892W        W 3317  30.191  19.419  10.612
30893W        W 3318  25.690  38.606   1.718
30894W        W 3319  25.361  43.499  11.113
30895W        W 3320  31.967  43.850   0.345
30896W        W 3321  16.903  34.514   5.002
30897W        W 3322  34.911  35.987   0.309
30898W        W 3323  32.028   5.199   4.086
30899W        W 3324  36.568   6.159   2.806
30900W        W 3325  24.968  37.831   3.369
30901W        W 3326  30.644  43.596   1.340
30902W        W 3327  39.457  19.723   1.808
30903W        W 3328   2.680  25.157  12.198
30904W        W 3329  40.245   7.349   1.944
30905W        W 3330   6.283  33.495  13.513
30906W        W 3331  43.110  25.128   4.991
30907W        W 3332  23.119  42.546   2.672
30908W        W 3333   2.314  15.321  14.901
30909W        W 3334  33.062  32.297   2.812
30910W        W 3335  37.883  25.591  13.840
30911W        W 3336  42.897  43.819  14.894
30912W        W 3337   3.454  23.232  12.887
30913W        W 3338  26.549  43.773  12.039
30914W        W 3339   8.729  20.526   4.537
30915W        W 3340   5.157  36.558  11.900
30916W        W 3341  14.352   9.415   2.309
30917W        W 3342  28.692  16.484   0.733
30918W        W 3343  14.720  38.201  10.884
30919W        W 3344  33.452  43.916  12.597
30920W        W 3345   6.915  33.812   0.766
30921W        W 3346   8.002  26.044  14.896
30922W        W 3347  17.813  14.776  11.961
30923W        W 3348  16.065  22.661   3.962
30924W        W 3349  12.276  35.183  14.515
30925W        W 3350   8.229  18.091   2.715
30926W        W 3351  19.273  18.754   3.723
30927W        W 3352   0.826  13.100   2.910
30928W        W 3353  42.434   2.228   2.727
30929W        W 3354  30.277  37.742   2.350
30930W        W 3355  23.219  29.759  12.971
30931W        W 3356  40.592  19.035  14.485
30932W        W 3357  39.466  40.730   4.566
30933W        W 3358  32.044  34.773  11.064
30934W        W 3359  44.613  43.539   2.353
30935W        W 3360  28.241   4.753   9.586
30936W        W 3361  10.282  32.982   1.871
30937W        W 3362  17.538  30.673  14.285
30938W        W 3363  19.086  11.914   2.675
30939W        W 3364  34.574   0.757  12.051
30940W        W 3365  36.413  30.754   2.363
30941W        W 3366  31.477  33.726  11.481
30942W        W 3367  22.642   0.435   0.279
30943W        W 3368  33.553  19.482   4.566
30944W        W 3369  41.701   4.935   2.771
30945W        W 3370  39.164  19.538   0.792
30946W        W 3371  25.006  12.131  13.849
30947W        W 3372   1.287  15.186  14.710
30948W        W 3373   7.720  21.248  11.154
30949W        W 3374  18.709  34.950  10.651
30950W        W 3375  38.462  34.852   2.803
30951W        W 3376  14.768  15.817  13.154
30952W        W 3377  23.548   4.577   4.770
30953W        W 3378  16.084  16.041  13.938
30954W        W 3379   7.565  10.649   3.219
30955W        W 3380  43.046  14.790  11.118
30956W        W 3381  37.233  30.322   0.151
30957W        W 3382  16.612  16.777  13.799
30958W        W 3383   8.787  29.143   1.672
30959W        W 3384  32.605  36.494  11.569
30960W        W 3385   2.745  24.750   0.275
30961W        W 3386   8.688  34.016  10.460
30962W        W 3387  44.058  29.677   3.298
30963W        W 3388   3.866  27.198   2.088
30964W        W 3389  12.308  15.899  14.874
30965W        W 3390  40.938  20.066  12.192
30966W        W 3391  43.589  41.259  11.439
30967W        W 3392  14.334  38.324   2.610
30968W        W 3393  21.092  24.208   0.248
30969W        W 3394  19.056   5.777   1.638
30970W        W 3395   4.476  40.954   4.551
30971W        W 3396  39.844   8.003  12.988
30972W        W 3397   5.179  11.638   3.454
30973W        W 3398  26.093  33.897   4.133
30974W        W 3399  33.393   7.864   3.548
30975W        W 3400  24.076  19.513   4.528
30976W        W 3401  12.879  12.326  13.326
30977W        W 3402  39.888  19.032   0.066
30978W        W 3403  23.061  41.469  10.614
30979W        W 3404   8.656  37.391  12.135
30980W        W 3405  22.439  43.502  13.156
30981W        W 3406   8.888  13.363  13.358
30982W        W 3407  38.275  16.227   4.554
30983W        W 3408  19.898   8.773   4.810
30984W        W 3409  20.698  15.102   0.823
30985W        W 3410  42.588  35.577  11.427
30986W        W 3411  11.414   4.858  14.901
30987W        W 3412  39.749  38.121   0.157
30988W        W 3413   9.935  38.399   0.168
30989W        W 3414  29.399  10.195  12.537
30990W        W 3415   7.930  27.230   3.326
30991W        W 3416  19.072  20.816  14.075
30992W        W 3417  17.969  11.399  12.119
30993W        W 3418  13.583  15.862   1.411
30994W        W 3419  32.615  24.251   2.912
30995W        W 3420  44.237   2.666   3.764
30996W        W 3421  28.463  30.648   4.699
30997W        W 3422   4.752  23.869   1.347
30998W        W 3423  12.308  38.764   1.546
30999W        W 3424  15.199  15.597  14.473
31000W        W 3425  35.720   6.223   5.183
31001W        W 3426  19.753  42.139   3.087
31002W        W 3427  15.220  11.086   2.304
31003W        W 3428  38.735   2.237  13.207
31004W        W 3429  10.544  33.932  14.466
31005W        W 3430  13.673  36.759  10.540
31006W        W 3431   9.712  17.094   3.916
31007W        W 3432   1.200  19.660  13.334
31008W        W 3433  37.611   1.777  12.019
31009W        W 3434  37.909  43.852  10.596
31010W        W 3435  28.743  18.275  13.631
31011W        W 3436  23.181  40.969  14.299
31012W        W 3437  31.736  37.327   0.930
31013W        W 3438  33.564   2.740  12.973
31014W        W 3439  16.326   9.751   3.419
31015W        W 3440   0.280  35.544  14.881
31016W        W 3441  13.790  34.391   1.870
31017W        W 3442  37.105  14.271   2.228
31018W        W 3443  32.903  25.089   0.907
31019W        W 3444  38.953  38.326  12.610
31020W        W 3445   2.348   7.297  14.086
31021W        W 3446  43.991  36.317   4.741
31022W        W 3447   0.279  37.255  11.896
31023W        W 3448  21.119  28.559  11.121
31024W        W 3449  40.208   2.851   0.175
31025W        W 3450  14.746  40.584  12.451
31026W        W 3451  43.457  43.261   0.194
31027W        W 3452   1.052  35.522  12.960
31028W        W 3453   0.261  37.795   1.731
31029W        W 3454   7.828  10.908  10.662
31030W        W 3455  11.611   5.254  14.618
31031W        W 3456  18.648  30.566   0.397
31032W        W 3457  26.502  23.620  11.712
31033W        W 3458  17.064   8.933   1.819
31034W        W 3459   8.218  15.343   4.671
31035W        W 3460   1.961  10.729   4.881
31036W        W 3461  25.036  20.813  12.981
31037W        W 3462  14.147  12.263   2.851
31038W        W 3463  43.924  41.565  14.668
31039W        W 3464  38.546  36.608   2.147
31040W        W 3465  38.559  34.986  12.698
31041W        W 3466  31.970  29.049   2.303
31042W        W 3467  35.803  44.403   2.179
31043W        W 3468  20.032  36.513   2.249
31044W        W 3469  10.049  22.001  14.670
31045W        W 3470  43.497   4.739   4.683
31046W        W 3471   0.261  38.879   3.073
31047W        W 3472  23.775  13.045   2.275
31048W        W 3473  21.149  24.444  11.993
31049W        W 3474  11.961   9.716   0.326
31050W        W 3475  22.475  40.177  10.590
31051W        W 3476  42.543  21.647  13.254
31052W        W 3477  37.492   5.201   2.441
31053W        W 3478  32.482  43.680   0.369
31054W        W 3479   1.738  34.437  14.411
31055W        W 3480  26.244  33.279  10.585
31056W        W 3481  28.928  17.445   4.483
31057W        W 3482   7.975  14.700   0.778
31058W        W 3483  15.586  17.590   2.265
31059W        W 3484  15.929  25.714   3.669
31060W        W 3485  17.044   5.352  14.452
31061W        W 3486  42.780   8.246  13.871
31062W        W 3487   7.740  32.213   2.191
31063W        W 3488   5.625  24.404  11.190
31064W        W 3489  16.073  35.964  11.074
31065W        W 3490  11.974  43.414  10.692
31066W        W 3491   9.244  13.395   2.909
31067W        W 3492   6.868  26.635  12.208
31068W        W 3493  33.439  24.307  11.784
31069W        W 3494  12.575   8.693  10.925
31070W        W 3495   4.702  24.392   4.178
31071W        W 3496   1.365  28.611  10.790
31072W        W 3497  38.352  20.143  13.009
31073W        W 3498  10.287  13.437  13.326
31074W        W 3499   5.703  20.392   0.389
31075W        W 3500  43.908  33.637  10.527
31076W        W 3501  43.658  41.497  13.367
31077W        W 3502   3.983   0.885   0.514
31078W        W 3503  40.344  21.089   0.016
31079W        W 3504  23.727  26.757   1.432
31080W        W 3505   8.426  44.488   0.878
31081W        W 3506   6.886  14.920  13.816
31082W        W 3507  12.820  34.538   4.470
31083W        W 3508  12.068  21.609   4.635
31084W        W 3509  42.998  32.513  11.499
31085W        W 3510  28.863  29.155   1.223
31086W        W 3511  15.834   4.360  12.469
31087W        W 3512  35.490  27.328   0.422
31088W        W 3513  38.554  43.716  14.396
31089W        W 3514  22.957   8.101   4.115
31090W        W 3515  32.037   7.403  11.171
31091W        W 3516   2.506  19.271  11.570
31092W        W 3517  44.407  11.335  13.784
31093W        W 3518   0.361  16.735   2.257
31094W        W 3519  15.486  32.376  10.172
31095W        W 3520  17.066  36.629   3.133
31096W        W 3521  22.842  35.924  10.696
31097W        W 3522  33.698   5.427  12.262
31098W        W 3523  37.821  21.788  13.986
31099W        W 3524  24.393  29.578  11.688
31100W        W 3525  12.082  30.941   1.273
31101W        W 3526   0.208  25.544   2.182
31102W        W 3527  26.608  41.415   4.209
31103W        W 3528  25.976  41.667   2.388
31104W        W 3529  18.464   9.149   1.719
31105W        W 3530  33.666   4.197  10.543
31106W        W 3531   1.900  40.364   0.924
31107W        W 3532  19.135  43.203   1.192
31108W        W 3533  18.827  31.931   4.735
31109W        W 3534  19.927  33.083  10.684
31110W        W 3535   0.365  18.573   4.703
31111W        W 3536  42.072  32.437  12.108
31112W        W 3537  43.926  18.528  11.574
31113W        W 3538   0.389  22.739   3.532
31114W        W 3539  20.144  24.193   4.665
31115W        W 3540  12.141  11.262   0.166
31116W        W 3541  16.724   1.728   2.194
31117W        W 3542  25.532   8.251   4.794
31118W        W 3543   9.155  28.362   4.023
31119W        W 3544   9.219   5.712   4.513
31120W        W 3545  30.553   2.226  13.576
31121W        W 3546  34.137  10.266   2.660
31122W        W 3547  12.038   3.695  13.128
31123W        W 3548  39.511  10.267  10.763
31124W        W 3549  23.603  32.672  14.742
31125W        W 3550  43.865  18.081   2.866
31126W        W 3551  24.461  36.839   2.878
31127W        W 3552   7.774  39.858  10.595
31128W        W 3553  22.228   9.349   0.632
31129W        W 3554  25.749   5.393  14.360
31130W        W 3555  34.570  42.232   1.982
31131W        W 3556  22.646  31.638  13.844
31132W        W 3557  12.117   8.897  10.759
31133W        W 3558  11.717  44.045   2.780
31134W        W 3559   0.019  13.424  14.686
31135W        W 3560  24.962   4.677  12.416
31136W        W 3561  22.483  43.897  12.781
31137W        W 3562  11.668   2.770  14.870
31138W        W 3563  38.329  29.283   2.432
31139W        W 3564  19.036   7.963   2.141
31140W        W 3565   4.024  21.368   4.764
31141W        W 3566  17.425  33.435  14.401
31142W        W 3567  24.499  32.469   2.495
31143W        W 3568  43.456   1.853   2.402
31144W        W 3569   7.298  18.707   0.335
31145W        W 3570  18.198  24.147   3.258
31146W        W 3571  27.171  30.598   1.923
31147W        W 3572  21.262   5.138  14.771
31148W        W 3573  13.361  31.451  13.422
31149W        W 3574  27.888   0.953   1.668
31150W        W 3575  37.311   6.959   2.850
31151W        W 3576  41.911  20.582  12.484
31152W        W 3577   6.627  13.309   0.008
31153W        W 3578  14.842  24.661  12.926
31154W        W 3579  28.056  32.889   1.962
31155W        W 3580  15.144  27.973  11.938
31156W        W 3581  41.635  41.313  14.542
31157W        W 3582   0.821   6.529  11.062
31158W        W 3583  22.802   9.786  13.330
31159W        W 3584  22.772  26.195   2.278
31160W        W 3585   4.807  30.948   4.592
31161W        W 3586   1.354  33.460  13.629
31162W        W 3587  32.299  12.963   2.984
31163W        W 3588  33.751   0.561   3.775
31164W        W 3589  17.748  27.572   4.648
31165W        W 3590  44.297  35.576   1.821
31166W        W 3591   1.079  25.590   2.707
31167W        W 3592  19.191  41.675  11.926
31168W        W 3593  21.596  18.994   2.210
31169W        W 3594  16.713  34.812   5.416
31170W        W 3595  31.486  41.936  10.619
31171W        W 3596  14.171  29.463   0.927
31172W        W 3597  43.862  38.924  11.446
31173W        W 3598   8.109  20.460   3.711
31174W        W 3599  21.364  20.171  14.896
31175W        W 3600  23.001   5.921   2.063
31176W        W 3601   7.584  38.935   3.213
31177W        W 3602   5.288  44.849   3.131
31178W        W 3603  19.084  15.748   0.462
31179W        W 3604  30.611  29.018   4.703
31180W        W 3605  42.448   0.252   1.273
31181W        W 3606  11.021  39.911   3.649
31182W        W 3607  43.888   1.941   2.660
31183W        W 3608   4.812  36.381   0.762
31184W        W 3609   6.499  13.901  11.204
31185W        W 3610  22.182  17.250   3.718
31186W        W 3611   0.054  15.219  14.001
31187W        W 3612  36.333  14.401  12.620
31188W        W 3613  26.102   4.778   3.186
31189W        W 3614  15.499  17.535  12.572
31190W        W 3615  24.005  36.526   0.386
31191W        W 3616  31.650  24.091   4.046
31192W        W 3617   4.840  20.591  13.733
31193W        W 3618  22.631  41.809  10.989
31194W        W 3619  38.444   3.937  14.864
31195W        W 3620  15.434  42.168   2.820
31196W        W 3621  39.749  15.088  11.176
31197W        W 3622   6.129  35.969   2.784
31198W        W 3623  24.447  22.122  11.067
31199W        W 3624  32.487  24.934  11.085
31200W        W 3625  32.192  31.411  12.556
31201W        W 3626  27.221  13.850  14.930
31202W        W 3627  33.515  11.343   3.863
31203W        W 3628  15.765  39.725   4.677
31204W        W 3629   6.542  32.927  10.724
31205W        W 3630   4.161  42.164  11.081
31206W        W 3631  42.922  15.226  13.119
31207W        W 3632  12.903  16.931  11.129
31208W        W 3633  27.770  27.526   2.704
31209W        W 3634   6.869   7.924   1.484
31210W        W 3635  20.257  26.042   0.405
31211W        W 3636  42.110   0.683  12.531
31212W        W 3637  42.770  14.412   0.247
31213W        W 3638   0.244  17.207  11.605
31214W        W 3639  41.940  36.692   0.076
31215W        W 3640  18.462  10.587  14.036
31216W        W 3641   5.618  27.601   0.614
31217W        W 3642  30.895  39.973   4.125
31218W        W 3643  11.748  18.491   3.311
31219W        W 3644   9.358   0.950  13.247
31220W        W 3645  35.480  30.600  14.404
31221W        W 3646  37.937   1.986  13.865
31222W        W 3647  36.098  10.255   4.584
31223W        W 3648  16.891  43.458   4.544
31224W        W 3649  16.495  15.610  11.130
31225W        W 3650  33.114  28.178   3.326
31226W        W 3651  19.839  11.459  10.964
31227W        W 3652  30.699  13.836   1.351
31228W        W 3653   5.325   2.680  12.952
31229W        W 3654   8.788   5.469  14.461
31230W        W 3655  34.654  34.540   4.838
31231W        W 3656   0.967  18.213  13.833
31232W        W 3657   0.455  25.929   2.473
31233W        W 3658  23.182  17.759   1.724
31234W        W 3659  30.832  33.941  13.095
31235W        W 3660  12.647   6.909   3.123
31236W        W 3661  11.666  35.933   3.526
31237W        W 3662  33.449  24.074   3.893
31238W        W 3663   6.897  16.334  11.592
31239W        W 3664  26.286  17.517   3.123
31240W        W 3665   7.928  31.777   0.328
31241W        W 3666  43.411  42.001  14.449
31242W        W 3667  36.744  34.225   1.350
31243W        W 3668  26.039  35.606   3.584
31244W        W 3669  24.474  32.398  13.341
31245W        W 3670  27.550  40.538  12.930
31246W        W 3671  12.613  30.109   0.815
31247W        W 3672   4.079   5.940  10.713
31248W        W 3673  30.415  29.645  12.399
31249W        W 3674  39.855   3.437  13.827
31250W        W 3675  17.039  10.677  11.904
31251W        W 3676  14.275  35.043  12.664
31252W        W 3677  12.411   8.697   2.350
31253W        W 3678  18.328   0.432  11.328
31254W        W 3679  44.049  36.068  11.632
31255W        W 3680  20.153  42.429  12.433
31256W        W 3681  44.285  26.096  12.992
31257W        W 3682  43.521  21.387  10.246
31258W        W 3683  25.659  17.601  13.996
31259W        W 3684  36.451  37.515   1.968
31260W        W 3685  35.837  34.019   2.173
31261W        W 3686  34.662   7.407  12.867
31262W        W 3687  22.272  36.400  11.182
31263W        W 3688  12.290  31.430  13.049
31264W        W 3689  33.657  38.219   3.278
31265W        W 3690  39.595  11.832   1.758
31266W        W 3691  13.162  25.621  12.105
31267W        W 3692   1.721  11.099  11.530
31268W        W 3693  31.433  33.453  13.991
31269W        W 3694  35.108  26.097  11.106
31270W        W 3695  41.254   8.308   1.870
31271W        W 3696  14.706  28.672  13.841
31272W        W 3697   6.022  17.711  14.448
31273W        W 3698  40.101  35.521  14.804
31274W        W 3699  16.219  35.155   1.844
31275W        W 3700  30.842  23.247   4.175
31276W        W 3701  22.740   4.661   2.791
31277W        W 3702  10.880  13.722   1.551
31278W        W 3703  26.806  21.978  12.026
31279W        W 3704  12.387  33.179  11.918
31280W        W 3705  28.537  31.126  12.892
31281W        W 3706  22.913  40.553   0.281
31282W        W 3707  31.346   9.556  14.706
31283W        W 3708  16.045   2.911   2.951
31284W        W 3709  27.911   3.185  10.773
31285W        W 3710   2.806  18.321  12.017
31286W        W 3711  32.942  23.994  13.146
31287W        W 3712  30.930  41.394   5.618
31288W        W 3713   1.556  35.059  10.825
31289W        W 3714   5.595  33.841  11.893
31290W        W 3715  35.138  37.093   0.987
31291W        W 3716  20.581  31.003   3.656
31292W        W 3717  24.172  44.510  10.953
31293W        W 3718  29.495  43.435   1.890
31294W        W 3719  10.881  41.241  13.364
31295W        W 3720  31.895  31.993   0.275
31296W        W 3721  34.380  42.428   3.886
31297W        W 3722   0.801   2.851   0.446
31298W        W 3723  26.547   0.577  14.596
31299W        W 3724  44.564  17.865  12.327
31300W        W 3725  37.131  31.864   9.973
31301W        W 3726   4.391  11.193   4.842
31302W        W 3727  30.646  22.912  11.589
31303W        W 3728  11.819   6.564   1.790
31304W        W 3729  38.369  22.659  14.028
31305W        W 3730  12.097  42.798   4.616
31306W        W 3731  11.668  37.579   1.294
31307W        W 3732  20.104   1.852  11.968
31308W        W 3733   9.323  34.826  13.656
31309W        W 3734  17.878  26.938  12.462
31310W        W 3735  13.015   3.259   3.705
31311W        W 3736  31.644  18.098  11.053
31312W        W 3737  16.586  32.496   4.569
31313W        W 3738  42.928  32.900  11.134
31314W        W 3739  10.185  39.287   1.440
31315W        W 3740  41.858  21.476  12.104
31316W        W 3741  22.563  26.932  12.492
31317W        W 3742   0.388   4.314  14.658
31318W        W 3743  19.135   8.348  11.832
31319W        W 3744  18.656   3.054   3.416
31320W        W 3745  17.623  18.982  12.986
31321W        W 3746  41.475  31.736  12.333
31322W        W 3747   1.476  10.883  10.977
31323W        W 3748  26.349  29.569   1.411
31324W        W 3749  26.091  29.687  13.580
31325W        W 3750   0.406  20.801  13.025
31326W        W 3751  10.782  32.567   0.858
31327W        W 3752  36.636  34.140  14.299
31328W        W 3753  14.700  27.175  14.273
31329W        W 3754   3.403  36.541  12.463
31330W        W 3755  36.776   2.431  11.042
31331W        W 3756  31.495   0.245   1.739
31332W        W 3757   9.192  12.622  13.183
31333W        W 3758   9.826  11.162  12.184
31334W        W 3759  18.401  24.332  14.011
31335W        W 3760  25.528   4.026  14.371
31336W        W 3761   1.841   5.273  14.457
31337W        W 3762  10.178  28.896  12.541
31338W        W 3763  36.338   1.066   0.881
31339W        W 3764  18.789  13.243  10.453
31340W        W 3765   0.548  36.500   0.186
31341W        W 3766  37.235  11.197  13.290
31342W        W 3767  36.510  31.574   0.891
31343W        W 3768  38.357  21.023  12.606
31344W        W 3769  12.421  42.363   4.658
31345W        W 3770   5.905   2.054  11.422
31346W        W 3771  26.913  34.454   3.180
31347W        W 3772  40.989  10.212  13.574
31348W        W 3773  16.000  15.661  12.412
31349W        W 3774  24.154  44.393   3.257
31350W        W 3775   4.376  23.044  14.828
31351W        W 3776  24.709   9.180   3.560
31352W        W 3777  25.582  39.117  14.304
31353W        W 3778  27.723   8.619   3.680
31354W        W 3779  41.932   2.800  12.664
31355W        W 3780  43.858  25.452   2.151
31356W        W 3781  28.985  41.287  12.106
31357W        W 3782  14.754  12.191  10.719
31358W        W 3783  12.668  13.185   2.755
31359W        W 3784  21.784   4.673  12.446
31360W        W 3785   5.374  18.121   1.201
31361W        W 3786   1.958   0.603  11.758
31362W        W 3787  11.458  23.164  14.904
31363W        W 3788  41.584  29.386  12.002
31364W        W 3789  31.999  18.715   2.294
31365W        W 3790  29.651  10.782   0.509
31366W        W 3791  20.482  41.764   1.464
31367W        W 3792  35.962   6.599   2.220
31368W        W 3793  32.367  15.658   2.875
31369W        W 3794  28.521  23.517   1.249
31370W        W 3795   4.770  25.474   4.516
31371W        W 3796  44.763  18.341  12.458
31372W        W 3797  27.247  39.632  14.382
31373W        W 3798  16.016  23.105  11.065
31374W        W 3799  43.774   3.297   2.331
31375W        W 3800  35.975  32.387  11.625
31376W        W 3801  11.823  14.117  12.022
31377W        W 3802  31.602  21.304   3.395
31378W        W 3803  43.331  34.166   3.203
31379W        W 3804  15.647  14.585   3.621
31380W        W 3805  43.275  24.525   3.376
31381W        W 3806  15.883  40.349   1.701
31382W        W 3807  33.387  14.026  11.651
31383W        W 3808  25.600  10.332   3.435
31384W        W 3809  25.657  25.240   4.267
31385W        W 3810  37.072  44.805   4.372
31386W        W 3811   9.664  37.934  14.440
31387W        W 3812  38.997  11.825   0.331
31388W        W 3813   2.787  44.449  14.917
31389W        W 3814  39.466  41.339  11.479
31390W        W 3815   8.770  33.515   4.792
31391W        W 3816  34.380   1.200  12.990
31392W        W 3817  14.632  26.057  10.696
31393W        W 3818  20.130  14.155   1.693
31394W        W 3819  23.991  13.371   1.867
31395W        W 3820  30.576  32.925  10.829
31396W        W 3821  23.419  33.985   0.989
31397W        W 3822  33.686  44.641   2.817
31398W        W 3823  11.373  23.583  13.022
31399W        W 3824  25.776  29.437   3.270
31400W        W 3825   5.520  34.945   1.687
31401W        W 3826  39.586  34.269  12.328
31402W        W 3827  26.499  36.316  11.649
31403W        W 3828  37.902   0.971  11.591
31404W        W 3829   4.512  27.207  14.678
31405W        W 3830   8.459  43.786  12.990
31406W        W 3831  34.485   2.647   4.109
31407W        W 3832  33.330  15.360  11.993
31408W        W 3833   2.758  22.805  13.176
31409W        W 3834  11.758  10.980  10.421
31410W        W 3835  24.076  32.701  10.396
31411W        W 3836  10.267  32.186  13.929
31412W        W 3837   4.141  41.740   2.728
31413W        W 3838   9.274  32.563   4.365
31414W        W 3839  21.113   4.013   3.576
31415W        W 3840   5.167   4.062  11.967
31416W        W 3841  28.255  12.378  11.541
31417W        W 3842  12.745  25.071  12.770
31418W        W 3843  27.639  35.108   3.563
31419W        W 3844  23.115  43.344   3.946
31420W        W 3845  27.761  19.863   3.231
31421W        W 3846  37.494  34.078   4.091
31422W        W 3847  32.926  19.078   1.312
31423W        W 3848  13.872  35.868   1.544
31424W        W 3849  23.979   2.751   1.111
31425W        W 3850  24.321  24.199  14.811
31426W        W 3851  14.067   8.670   2.812
31427W        W 3852  43.026   4.414  11.247
31428W        W 3853  43.731  12.447   2.736
31429W        W 3854  33.802  30.755   2.926
31430W        W 3855  36.414  33.317   5.008
31431W        W 3856  20.482   3.874  11.156
31432W        W 3857  40.293  20.848   4.060
31433W        W 3858  34.583  28.687  11.988
31434W        W 3859  24.950   6.832   1.176
31435W        W 3860  35.470  42.962   4.054
31436W        W 3861  39.076  20.411  14.944
31437W        W 3862   0.741  11.957   1.010
31438W        W 3863  24.591   7.271  10.727
31439W        W 3864  15.606  42.321   3.281
31440W        W 3865  23.522   6.333   1.280
31441W        W 3866  36.901  32.879   0.852
31442W        W 3867  24.112  10.355  12.939
31443W        W 3868   9.992  20.911  13.393
31444W        W 3869   8.869  44.900   1.836
31445W        W 3870  10.230  15.596   5.058
31446W        W 3871  29.426  31.465  13.336
31447W        W 3872  32.726  33.484   0.299
31448W        W 3873  37.923   7.554   9.746
31449W        W 3874   0.274  16.238  10.541
31450W        W 3875  34.470  29.653  12.946
31451W        W 3876  24.151  18.047   3.148
31452W        W 3877  40.490  36.908   1.745
31453W        W 3878  20.619   1.868  13.929
31454W        W 3879  16.104   0.490   1.964
31455W        W 3880  11.485  18.802  14.966
31456W        W 3881  34.875  13.549   4.067
31457W        W 3882   2.116  38.424  10.744
31458W        W 3883  44.323  27.557  13.736
31459W        W 3884  21.134  23.477   3.784
31460W        W 3885   4.359  36.319   0.502
31461W        W 3886  21.717  33.570  13.099
31462W        W 3887  43.528  44.884  14.941
31463W        W 3888  38.178   7.191   0.246
31464W        W 3889  35.652   6.960  13.586
31465W        W 3890  19.546  17.359  13.477
31466W        W 3891  22.040  26.755  14.356
31467W        W 3892  21.631  22.002   1.466
31468W        W 3893   8.022  21.089   4.508
31469W        W 3894   1.249  21.072   4.683
31470W        W 3895  24.489   9.538   0.833
31471W        W 3896   4.748  29.024   1.406
31472W        W 3897  40.481   7.410   1.465
31473W        W 3898  36.011   0.324   1.713
31474W        W 3899  11.060  18.428  13.470
31475W        W 3900   5.682  44.003  12.935
31476W        W 3901  23.022  24.980   3.592
31477W        W 3902  16.011  15.444  13.287
31478W        W 3903  20.755  23.765   1.560
31479W        W 3904  35.563   2.108  14.939
31480W        W 3905  17.177  15.078  10.041
31481W        W 3906  13.406   4.488   3.548
31482W        W 3907  35.126   2.069  12.554
31483W        W 3908   5.715  14.133  11.161
31484W        W 3909  31.631  40.811   0.837
31485W        W 3910   1.284   0.209   3.150
31486W        W 3911   9.839  28.864  11.925
31487W        W 3912  30.330  40.055   3.464
31488W        W 3913  35.467  36.864   3.891
31489W        W 3914  16.748  15.613  11.967
31490W        W 3915  23.409  32.012   2.468
31491W        W 3916  43.259  34.181   2.314
31492W        W 3917  40.524  39.310   4.675
31493W        W 3918  35.873  13.832   2.248
31494W        W 3919  23.552  36.916   0.634
31495W        W 3920  44.424   3.335  13.332
31496W        W 3921  20.585  15.604   2.104
31497W        W 3922   7.606   5.322  12.310
31498W        W 3923  33.162   5.329  12.553
31499W        W 3924   0.898  33.877  10.937
31500W        W 3925  40.425  23.132  12.972
31501W        W 3926   4.778  27.713   1.911
31502W        W 3927   6.409  32.432  13.456
31503W        W 3928   6.003  36.880   4.175
31504W        W 3929  34.167  16.159   2.859
31505W        W 3930  32.708  34.052  12.408
31506W        W 3931  31.991  41.243  11.066
31507W        W 3932  42.926  36.283   1.770
31508W        W 3933  20.068  41.753   2.901
31509W        W 3934  19.064  29.358   4.274
31510W        W 3935  33.443  16.080  13.945
31511W        W 3936  25.501  29.380   4.101
31512W        W 3937  21.178   2.969  13.378
31513W        W 3938  12.621   3.875   0.890
31514W        W 3939   9.174  20.290  13.010
31515W        W 3940  28.689  29.128   4.742
31516W        W 3941  32.182  25.161   2.733
31517W        W 3942  13.138  17.280   4.041
31518W        W 3943  23.795  23.637   2.275
31519W        W 3944  43.857   6.369   4.864
31520W        W 3945  41.702   5.653  10.287
31521W        W 3946  12.889  30.535   3.788
31522W        W 3947  19.790   0.703  11.468
31523W        W 3948  34.424   4.298   0.094
31524W        W 3949  28.980  34.059   4.168
31525W        W 3950   4.152  17.393  12.243
31526W        W 3951   3.325  43.235  14.506
31527W        W 3952  17.665  37.402   3.259
31528W        W 3953  17.445  38.464   0.878
31529W        W 3954  17.588  17.059  10.203
31530W        W 3955  22.126   8.042  11.611
31531W        W 3956  22.005   6.268  13.760
31532W        W 3957   1.151  32.639   9.764
31533W        W 3958  18.713  39.144   0.092
31534W        W 3959  24.262  32.172  11.592
31535W        W 3960   1.347  11.668  10.745
31536W        W 3961   6.913  41.327  11.252
31537W        W 3962  34.923  43.376   2.999
31538W        W 3963  11.761  13.204   0.262
31539W        W 3964  24.065   8.282   4.126
31540W        W 3965  43.505  11.441   3.913
31541W        W 3966  18.743  15.672  12.647
31542W        W 3967  24.227   9.326   1.767
31543W        W 3968  12.472  44.962   3.737
31544W        W 3969   3.006  19.301   4.091
31545W        W 3970  23.188  43.545   0.808
31546W        W 3971   4.300   0.268  11.650
31547W        W 3972  28.071  14.768  10.690
31548W        W 3973  33.612  17.771  14.498
31549W        W 3974  15.816  26.698  11.983
31550W        W 3975  40.379  10.730   4.191
31551W        W 3976  28.252   5.297   4.609
31552W        W 3977  25.030  10.101   2.316
31553W        W 3978  20.011  32.190  13.861
31554W        W 3979  24.640   7.425   0.285
31555W        W 3980  24.509   7.360  12.609
31556W        W 3981  19.266  26.599   4.630
31557W        W 3982  17.149  14.768  14.809
31558W        W 3983  21.293  24.210  13.961
31559W        W 3984  15.373   1.425  10.511
31560W        W 3985  24.045  25.500  14.530
31561W        W 3986   5.437   9.784   1.337
31562W        W 3987  21.315   4.336   1.504
31563W        W 3988  35.588   2.326  12.519
31564W        W 3989  17.949  35.026  11.163
31565W        W 3990  41.898  10.068   4.396
31566W        W 3991  18.782  33.550  12.901
31567W        W 3992  17.166  18.199   2.447
31568W        W 3993  16.084   1.378   1.503
31569W        W 3994  35.870  44.354  13.989
31570W        W 3995  22.208   4.741  14.981
31571W        W 3996  14.303   3.144   0.358
31572W        W 3997  28.068  27.302   1.494
31573W        W 3998   0.411   3.017  11.247
31574W        W 3999   0.762  29.620  13.781
31575W        W 4000   1.594   2.952   1.321
31576W        W 4001  14.256   0.143   3.008
31577W        W 4002   9.305  13.043  13.458
31578W        W 4003  44.926  12.939  11.587
31579W        W 4004  19.715   2.609   0.959
31580W        W 4005  32.969  17.747   4.789
31581W        W 4006  25.236  11.807  10.670
31582W        W 4007  34.307   9.710   4.225
31583W        W 4008  22.295  38.569   2.602
31584W        W 4009  28.013  31.068   1.351
31585W        W 4010  11.388  15.287   0.884
31586W        W 4011  41.312   6.829  11.667
31587W        W 4012  43.372  20.087  14.889
31588W        W 4013  26.182   5.953  11.367
31589W        W 4014  31.790  33.309   4.155
31590W        W 4015  22.458  15.180   4.612
31591W        W 4016  18.529  33.920  11.957
31592W        W 4017  23.516  39.908   1.315
31593W        W 4018  13.263  43.460  13.227
31594W        W 4019  15.926  34.619   9.903
31595W        W 4020  38.404  41.947  12.664
31596W        W 4021  26.414  30.446   0.832
31597W        W 4022   9.615  23.392  14.915
31598W        W 4023   7.975  13.750  11.154
31599W        W 4024   3.644   9.793  13.321
31600W        W 4025  17.746  44.253   2.389
31601W        W 4026  37.876  37.299   0.272
31602W        W 4027  36.793  22.780   1.140
31603W        W 4028  36.144  31.035   1.347
31604W        W 4029  42.330  38.009   2.920
31605W        W 4030  42.602  10.573  11.953
31606W        W 4031   8.535   4.190  14.401
31607W        W 4032  25.577  19.170  10.449
31608W        W 4033  40.863  23.464  10.949
31609W        W 4034  25.681  36.928  12.534
31610W        W 4035   4.011  35.647   1.262
31611W        W 4036  14.824  19.972   4.171
31612W        W 4037  28.891   4.953   4.380
31613W        W 4038  10.639   2.907  12.608
31614W        W 4039  38.960   9.577  12.214
31615W        W 4040  12.747   5.833   2.324
31616W        W 4041  42.582  29.919   4.920
31617W        W 4042  31.541   9.217  13.945
31618W        W 4043  26.726  23.626   2.815
31619W        W 4044  15.330  13.876  12.775
31620W        W 4045   1.953  20.832  12.159
31621W        W 4046   2.914  17.021   0.543
31622W        W 4047  28.104  13.856  12.174
31623W        W 4048  38.411   4.937   1.241
31624W        W 4049  30.115  44.318   2.384
31625W        W 4050  19.095  14.813   4.104
31626W        W 4051  29.374  26.082   3.672
31627W        W 4052  22.913   8.783   0.320
31628W        W 4053   5.333  40.589  11.571
31629W        W 4054  35.521   6.603   4.894
31630W        W 4055  28.128  14.851  12.174
31631W        W 4056   2.263  35.398   2.603
31632W        W 4057  27.070   1.168   1.948
31633W        W 4058  18.818  43.081  13.563
31634W        W 4059  22.573  21.750  10.912
31635W        W 4060  14.107  44.286  14.459
31636W        W 4061  43.746   1.954  12.994
31637W        W 4062  41.740   6.765  12.361
31638W        W 4063  26.184  18.025   3.138
31639W        W 4064  25.989  31.073   3.574
31640W        W 4065   5.193   1.341   1.911
31641W        W 4066  23.596  15.224  10.641
31642W        W 4067  40.871   3.261   2.660
31643W        W 4068  39.699  30.468  11.639
31644W        W 4069  19.020  40.589   0.799
31645W        W 4070  17.283  23.859   3.275
31646W        W 4071  34.577  39.485  11.233
31647W        W 4072  15.641  17.712  14.982
31648W        W 4073  16.992  28.206  10.760
31649W        W 4074  18.783  39.054   0.594
31650W        W 4075   9.928  35.047  11.076
31651W        W 4076  21.746  13.043  10.803
31652W        W 4077   9.543  26.669  11.125
31653W        W 4078  27.389   4.408   0.727
31654W        W 4079  23.219  20.790  12.172
31655W        W 4080  16.097  35.532  10.745
31656W        W 4081  44.231  13.041   4.620
31657W        W 4082  15.741  37.103   4.191
31658W        W 4083  11.824  41.950   1.450
31659W        W 4084   0.515   5.515  12.465
31660W        W 4085  23.928  21.008   2.714
31661W        W 4086  15.926  20.865   0.880
31662W        W 4087  41.059  16.601  11.150
31663W        W 4088  23.972  26.987  13.585
31664W        W 4089  40.635   7.951  11.946
31665W        W 4090  13.351  22.965   4.268
31666W        W 4091   4.948  24.923  13.560
31667W        W 4092  21.636  15.817   1.810
31668W        W 4093  21.618  13.513  13.140
31669W        W 4094   9.166   0.555   2.506
31670W        W 4095   4.343  12.148   3.302
31671W        W 4096  33.105   5.630   1.850
31672W        W 4097  21.551  40.497   1.992
31673W        W 4098  34.467  34.035   4.791
31674W        W 4099  21.972  32.088  11.553
31675W        W 4100  20.415  35.527  14.245
31676W        W 4101  25.761   3.732   3.958
31677W        W 4102  35.562  32.047  10.614
31678W        W 4103  40.356  37.570  13.429
31679W        W 4104   5.961   8.273  11.249
31680W        W 4105  25.931  44.980  12.289
31681W        W 4106  35.860   4.950  12.980
31682W        W 4107  30.103  25.386   1.269
31683W        W 4108   1.381  19.923   1.024
31684W        W 4109  40.555  22.392   3.628
31685W        W 4110  29.012  32.951   4.658
31686W        W 4111   2.556   2.697  12.507
31687W        W 4112  18.542  30.051   4.545
31688W        W 4113  22.892  34.409   4.211
31689W        W 4114   2.652  36.152  11.045
31690W        W 4115  24.109  22.502  13.102
31691W        W 4116  15.764   4.477  13.150
31692W        W 4117   9.405  28.004  12.086
31693W        W 4118  16.047   6.729  13.258
31694W        W 4119  27.974   7.547  10.223
31695W        W 4120  41.573   2.673  14.997
31696W        W 4121   3.813  33.268  10.710
31697W        W 4122   9.394  14.606  11.352
31698W        W 4123  24.145  14.260   2.397
31699W        W 4124  28.672   7.842   2.538
31700W        W 4125  23.754  27.434  13.461
31701W        W 4126  29.703  28.812   0.290
31702W        W 4127  10.234  20.580  11.607
31703W        W 4128  25.242  41.695   1.389
31704W        W 4129  31.904  36.925   3.882
31705W        W 4130  26.570  12.961   3.303
31706W        W 4131  23.655  15.670   0.329
31707W        W 4132  33.664   8.870   4.512
31708W        W 4133  44.507  44.780   4.137
31709W        W 4134  34.333   9.378  10.758
31710W        W 4135   6.185  41.497  11.556
31711W        W 4136   9.597  44.811   4.636
31712W        W 4137  17.300  44.013  13.003
31713W        W 4138  16.916  23.106   4.379
31714W        W 4139  34.469   2.280   1.714
31715W        W 4140  39.127  12.085   2.536
31716W        W 4141   1.004  38.468   0.413
31717W        W 4142  18.245  10.256  13.028
31718W        W 4143  32.363  28.408  14.505
31719W        W 4144  11.554  30.684   2.307
31720W        W 4145  44.710  37.462   0.226
31721W        W 4146   8.291   1.172  13.026
31722W        W 4147  42.032  11.380  12.955
31723W        W 4148  31.600   1.508   3.076
31724W        W 4149  43.893  35.748  13.718
31725W        W 4150  28.263  33.892  10.174
31726W        W 4151  35.208  37.184  11.765
31727W        W 4152  16.689  41.003   4.711
31728W        W 4153  18.774  40.453  10.684
31729W        W 4154  41.968  28.181   0.949
31730W        W 4155  20.162  22.139   2.677
31731W        W 4156  11.111  36.942  14.877
31732W        W 4157  11.061   1.899  10.630
31733W        W 4158  25.680  39.866   2.356
31734W        W 4159  36.279  29.989   4.295
31735W        W 4160   5.735  24.540  13.015
31736W        W 4161   7.731  36.075   2.120
31737W        W 4162  25.467   6.283   3.721
31738W        W 4163  44.853  25.718  14.443
31739W        W 4164  42.744  16.193  13.130
31740W        W 4165   5.280  31.785   0.371
31741W        W 4166  31.617  17.363  12.847
31742W        W 4167  10.396  21.066  11.491
31743W        W 4168   7.467  27.990  13.226
31744W        W 4169  29.613   3.339  10.165
31745W        W 4170  23.214   5.383  11.982
31746W        W 4171   1.260  33.182  14.067
31747W        W 4172  36.831  36.347   0.337
31748W        W 4173  19.002  10.142   1.891
31749W        W 4174   6.364   4.366  11.810
31750W        W 4175  17.516   8.960  14.942
31751W        W 4176  43.508  10.918  10.979
31752W        W 4177  37.065  21.169  12.096
31753W        W 4178  43.777  33.460   0.553
31754W        W 4179  16.265  35.455   9.796
31755W        W 4180  37.310  11.255   4.100
31756W        W 4181   8.160   1.429  14.329
31757W        W 4182  19.657  25.712  14.840
31758W        W 4183   0.401  24.093   4.188
31759W        W 4184   1.723  35.085  13.269
31760W        W 4185  28.214  16.651  12.473
31761W        W 4186  44.420  21.758   2.760
31762W        W 4187  44.195  22.959   1.209
31763W        W 4188  12.198  17.243   2.971
31764W        W 4189  25.126   2.909   3.560
31765W        W 4190  44.368   7.207   2.620
31766W        W 4191  38.623   2.336  12.716
31767W        W 4192  44.301   1.105  12.501
31768W        W 4193  15.055  39.129  11.106
31769W        W 4194  35.066  10.831   3.281
31770W        W 4195  40.043  21.694   5.684
31771W        W 4196  30.642   0.880  14.795
31772W        W 4197  40.808   5.095   2.979
31773W        W 4198  15.606  44.340   3.766
31774W        W 4199  18.385  17.392  14.474
31775W        W 4200  16.350  17.632   0.495
31776W        W 4201  22.784   1.799   1.728
31777W        W 4202  31.786  16.113  12.464
31778W        W 4203   7.335  28.151   0.955
31779W        W 4204   5.098  37.649   4.791
31780W        W 4205  42.814  43.059  13.926
31781W        W 4206  43.800  40.346  14.245
31782W        W 4207  29.425  39.786   3.146
31783W        W 4208   1.287  13.898   0.857
31784W        W 4209  44.464  26.962   2.907
31785W        W 4210  44.402  13.495  13.093
31786W        W 4211  28.210  11.382  11.574
31787W        W 4212  28.540   3.273  11.779
31788W        W 4213  13.610  41.679  12.084
31789W        W 4214   8.870  37.350  10.778
31790W        W 4215  33.049  16.242  12.986
31791W        W 4216  42.814  16.686  12.960
31792W        W 4217  31.902  18.104  14.386
31793W        W 4218  15.397   2.722  14.281
31794W        W 4219   7.443   3.257   1.016
31795W        W 4220  43.906  42.120   1.792
31796W        W 4221  15.298  11.357  14.730
31797W        W 4222  23.297  24.157  12.552
31798W        W 4223  12.590  28.670   0.026
31799W        W 4224  16.103  24.334  10.606
31800W        W 4225   6.285   1.706  12.613
31801W        W 4226  24.679  21.084   1.353
31802W        W 4227   0.691   7.324  12.479
31803W        W 4228  40.009  36.472   0.233
31804W        W 4229  10.189   1.933  12.364
31805W        W 4230  14.087   6.720  14.872
31806W        W 4231   9.433   6.741   4.529
31807W        W 4232  38.510   7.259   1.961
31808W        W 4233  13.166  38.615  14.820
31809W        W 4234  12.265  28.146  12.522
31810W        W 4235  31.961   9.568   4.782
31811W        W 4236  33.720  18.824   0.875
31812W        W 4237   2.480   9.720   0.217
31813W        W 4238  13.799  34.650   1.401
31814W        W 4239   3.859  16.004   2.365
31815W        W 4240  35.047  38.467   4.457
31816W        W 4241   2.542  32.057  11.188
31817W        W 4242  25.011  21.750  13.003
31818W        W 4243  20.110  39.435  11.338
31819W        W 4244  20.549  25.541   4.090
31820W        W 4245  27.472  19.031   3.644
31821W        W 4246   2.178  43.672  14.852
31822W        W 4247  32.031   6.692   3.721
31823W        W 4248  28.409  22.632  11.538
31824W        W 4249   3.355  21.196   2.297
31825W        W 4250  34.587  17.134  11.509
31826W        W 4251  16.209  44.754   4.129
31827W        W 4252  41.466  20.559   2.844
31828W        W 4253  42.140   8.253  11.234
31829W        W 4254  15.139  18.087   0.270
31830W        W 4255  42.442  40.136   3.285
31831W        W 4256  14.770  24.795   1.882
31832W        W 4257  22.651  13.110  12.923
31833W        W 4258  23.649  18.565  14.852
31834W        W 4259   5.464  23.158  11.455
31835W        W 4260  28.027  39.728  13.008
31836W        W 4261  25.329  24.668  12.156
31837W        W 4262  31.866   9.954   0.508
31838W        W 4263  42.821   6.239  13.731
31839W        W 4264   3.258  13.541  12.360
31840W        W 4265  29.147  29.660   4.287
31841W        W 4266   2.402  41.987   4.660
31842W        W 4267  27.103  16.239   3.615
31843W        W 4268  14.349  15.223   1.461
31844W        W 4269   4.957  25.635  14.076
31845W        W 4270  27.460  32.877   1.697
31846W        W 4271  15.166  11.099  11.883
31847W        W 4272  13.346  40.932   4.575
31848W        W 4273  32.471  35.623   1.760
31849W        W 4274  15.469   7.914   2.299
31850W        W 4275  18.064  37.421  10.686
31851W        W 4276  21.083  29.652  13.440
31852W        W 4277   4.374  11.230   2.519
31853W        W 4278   3.276  30.471  11.797
31854W        W 4279   9.727  16.506  10.926
31855W        W 4280  32.209  22.824  14.853
31856W        W 4281  12.501   2.788   0.263
31857W        W 4282  17.345  34.192   0.558
31858W        W 4283   9.179  14.765   2.711
31859W        W 4284   3.535  27.776   1.212
31860W        W 4285  19.221   9.248   2.838
31861W        W 4286  25.139  21.579  14.026
31862W        W 4287   6.374  44.255   4.707
31863W        W 4288  40.108  41.017  14.407
31864W        W 4289  40.898  18.003   0.754
31865W        W 4290  11.741  26.798   3.761
31866W        W 4291  18.619  28.438  11.648
31867W        W 4292  15.701  44.956  14.957
31868W        W 4293  15.229  22.514   4.911
31869W        W 4294  26.908  24.988   3.321
31870W        W 4295  10.231  38.666  13.486
31871W        W 4296  39.464  44.292   3.997
31872W        W 4297  36.068   6.792   3.177
31873W        W 4298  35.588  40.768   0.613
31874W        W 4299  21.149  16.099  11.057
31875W        W 4300  42.073   7.002  10.678
31876W        W 4301  16.612  42.915  12.449
31877W        W 4302  36.551  26.720  11.474
31878W        W 4303  44.039  27.473   4.532
31879W        W 4304  28.046  21.778  13.624
31880W        W 4305  31.124   4.456   0.764
31881W        W 4306   3.640  15.077  11.572
31882W        W 4307  11.834  43.962  14.314
31883W        W 4308  14.996  38.453   2.673
31884W        W 4309  24.351  22.942  12.978
31885W        W 4310   3.293  13.862   2.295
31886W        W 4311  32.167   7.401   3.104
31887W        W 4312  36.810   3.489   0.972
31888W        W 4313   4.756  22.341  14.450
31889W        W 4314   7.684  44.478  12.344
31890W        W 4315  25.822  43.874   1.987
31891W        W 4316  30.878  22.182  11.957
31892W        W 4317  28.678   9.418   2.286
31893W        W 4318  16.503  39.487   1.843
31894W        W 4319   4.048  12.144  12.580
31895W        W 4320  41.631  32.909   1.378
31896W        W 4321   2.968  20.721  13.276
31897W        W 4322  43.743  11.904  13.980
31898W        W 4323  35.481  44.434   2.604
31899W        W 4324  31.419  32.513  14.879
31900W        W 4325  37.893  14.702  12.352
31901W        W 4326   3.796   2.956   0.513
31902W        W 4327  28.517  13.226   2.904
31903W        W 4328   7.788  21.482  11.680
31904W        W 4329  44.506  17.231   4.736
31905W        W 4330  13.586   6.950  11.630
31906W        W 4331   9.762  44.307  13.590
31907W        W 4332  35.899   4.832   3.967
31908W        W 4333  43.763  36.551   2.719
31909W        W 4334   5.198   2.361   2.770
31910W        W 4335  38.565  12.399   2.662
31911W        W 4336  33.458  43.943  13.100
31912W        W 4337  41.037  40.378  12.538
31913W        W 4338  13.784  43.070  13.837
31914W        W 4339  20.640   0.001  10.590
31915W        W 4340  31.462  10.382  12.045
31916W        W 4341  30.959  29.703  14.773
31917W        W 4342  33.122  41.441  13.956
31918W        W 4343  26.990  38.169  14.816
31919W        W 4344  15.592  26.215  13.928
31920W        W 4345  36.669   1.393   1.202
31921W        W 4346  33.881  15.110  12.438
31922W        W 4347  15.590  13.664  14.321
31923W        W 4348  15.210  36.025   1.415
31924W        W 4349  15.494  42.378   2.346
31925W        W 4350  10.840   3.784  14.429
31926W        W 4351  38.024  41.014  14.785
31927W        W 4352  28.448  31.953   0.196
31928W        W 4353  39.071  42.235  13.515
31929W        W 4354   5.826  33.623  10.922
31930W        W 4355   6.232  22.562  10.590
31931W        W 4356  36.589  22.061  13.566
31932W        W 4357  11.103  24.034   4.892
31933W        W 4358  16.597  14.278  12.924
31934W        W 4359   6.575  37.460  14.019
31935W        W 4360  17.653   5.174   3.672
31936W        W 4361  35.122  16.249  12.925
31937W        W 4362  31.169  17.781  13.504
31938W        W 4363   0.500  28.323   4.198
31939W        W 4364   0.493   6.736  12.021
31940W        W 4365  33.069   1.916  12.110
31941W        W 4366  35.505  33.523   2.620
31942W        W 4367  30.939  38.636   0.575
31943W        W 4368  21.120  11.813  13.408
31944W        W 4369  37.574  22.524  10.695
31945W        W 4370  43.155  41.436  13.405
31946W        W 4371   2.833   2.682  14.022
31947W        W 4372  32.975   4.711   3.265
31948W        W 4373  43.474  32.484  11.991
31949W        W 4374  32.830  17.142  11.150
31950W        W 4375  12.247  41.859   4.734
31951W        W 4376   3.314   7.831   1.951
31952W        W 4377  32.105  28.433   1.154
31953W        W 4378  13.643   4.210   2.293
31954W        W 4379  42.771  15.111  12.134
31955W        W 4380  15.499  10.272   2.251
31956W        W 4381  44.404  41.028  13.306
31957W        W 4382  39.096   5.233  12.100
31958W        W 4383  32.226  25.117  10.466
31959W        W 4384  40.506  22.758  12.615
31960W        W 4385  42.606   0.805  13.147
31961W        W 4386  28.893  24.603   2.971
31962W        W 4387  36.938   0.791  14.287
31963W        W 4388  33.972  13.285  11.159
31964W        W 4389  29.216  13.825  11.667
31965W        W 4390   5.368  42.992   0.677
31966W        W 4391   4.008  23.076  14.438
31967W        W 4392  35.902  42.813   4.640
31968W        W 4393   6.247   8.874   2.403
31969W        W 4394  44.797  40.530   3.622
31970W        W 4395  39.447  22.303   0.698
31971W        W 4396   1.890  19.320  12.122
31972W        W 4397  38.616  35.373   0.766
31973W        W 4398   7.287   9.336   0.191
31974W        W 4399  38.441  32.418  12.763
31975W        W 4400   3.302  27.953   4.752
31976W        W 4401  14.353  36.045   1.473
31977W        W 4402  21.291  31.026  13.516
31978W        W 4403  15.868   2.869   2.192
31979W        W 4404  15.505  29.500   0.720
31980W        W 4405  26.339  25.624   2.191
31981W        W 4406  24.311  24.547   2.363
31982W        W 4407  14.037  29.180   4.066
31983W        W 4408  20.362  41.839  12.339
31984W        W 4409  19.240   5.376   1.311
31985W        W 4410  41.640  28.114  12.126
31986W        W 4411   4.787  13.522  12.415
31987W        W 4412  44.043  20.736  14.935
31988W        W 4413  32.430  35.315   1.270
31989W        W 4414  15.594  38.745  11.676
31990W        W 4415  37.893  28.908   1.287
31991W        W 4416  30.474  42.001   2.607
31992W        W 4417  11.319  43.510  13.464
31993W        W 4418  17.167   5.302  13.893
31994W        W 4419  34.594  39.426  10.707
31995W        W 4420   7.249   7.467  12.134
31996W        W 4421  31.425   4.669  13.987
31997W        W 4422  13.156  13.223  14.031
31998W        W 4423  17.205  35.575  11.476
31999W        W 4424  15.955  39.017   4.214
32000W        W 4425  22.253  29.959   2.585
32001W        W 4426  41.305  42.513   1.370
32002W        W 4427  37.021   6.876   3.915
32003W        W 4428  14.318   2.439   1.250
32004W        W 4429  18.743  30.700   1.961
32005W        W 4430   2.802  43.005  12.093
32006W        W 4431  33.457  13.344  14.771
32007W        W 4432  44.836   5.501   0.252
32008W        W 4433  23.238  20.150  13.898
32009W        W 4434  32.419  17.576   4.103
32010W        W 4435  41.453  10.712   1.680
32011W        W 4436  18.454  33.420   1.765
32012W        W 4437  26.512   0.935  10.278
32013W        W 4438  27.511  14.826  12.306
32014W        W 4439  15.916   0.455  12.743
32015W        W 4440  39.828  17.131   4.335
32016W        W 4441  44.367  13.666  10.480
32017W        W 4442  23.221  40.066  14.476
32018W        W 4443  21.009   8.989  12.513
32019W        W 4444  25.211   7.389  12.118
32020W        W 4445  32.507  32.055  13.969
32021W        W 4446  37.883  14.060  14.844
32022W        W 4447  42.300  11.118   1.475
32023W        W 4448  43.426  42.505   0.777
32024W        W 4449   8.969  14.072  11.766
32025W        W 4450  24.758  23.053  10.694
32026W        W 4451  32.368  32.462   0.759
32027W        W 4452  19.395  14.300   0.328
32028W        W 4453  42.759  27.668   3.271
32029W        W 4454  18.567   1.730   1.956
32030W        W 4455   2.092  12.663   9.869
32031W        W 4456  22.135  27.200  11.548
32032W        W 4457  41.245  27.141  14.974
32033W        W 4458  26.443  10.804   4.175
32034W        W 4459   9.957  37.894   2.378
32035W        W 4460   3.041  17.334  12.872
32036W        W 4461  33.073   8.601  12.006
32037W        W 4462  16.687  26.553  13.490
32038W        W 4463  36.761  43.838  12.904
32039W        W 4464  18.741  27.181   4.296
32040W        W 4465   6.163  23.489  12.423
32041W        W 4466  31.896  19.229  11.979
32042W        W 4467  27.750  31.685  11.969
32043W        W 4468  22.714  42.407  11.567
32044W        W 4469  14.823  19.996  14.451
32045W        W 4470  40.290  33.984   2.218
32046W        W 4471  13.039  24.191   0.690
32047W        W 4472  20.999  23.602   1.073
32048W        W 4473  15.599  23.520  13.485
32049W        W 4474   7.683   6.408   0.017
32050W        W 4475  39.400  40.336  12.541
32051W        W 4476  29.791  44.801  14.455
32052W        W 4477  10.847  11.046  11.035
32053W        W 4478  12.886  21.209   1.624
32054W        W 4479   4.681  23.469  11.098
32055W        W 4480  36.585  32.965  10.392
32056W        W 4481   3.547  37.993  12.644
32057W        W 4482   0.750  28.253  11.692
32058W        W 4483  10.138   7.343  11.994
32059W        W 4484   2.941   7.909   2.325
32060W        W 4485   6.320  37.551  12.144
32061W        W 4486  17.397  16.151   1.402
32062W        W 4487  15.519  44.801   0.442
32063W        W 4488  25.707  36.356  12.966
32064W        W 4489  41.787  15.150   4.628
32065W        W 4490  33.796  36.375   4.699
32066W        W 4491  14.173   9.811   3.288
32067W        W 4492   8.718  15.360  11.053
32068W        W 4493  42.000   7.809   3.515
32069W        W 4494  10.405  34.923  14.362
32070W        W 4495  32.642  24.556  14.696
32071W        W 4496   7.650  14.200  11.338
32072W        W 4497  43.390  38.991   3.185
32073W        W 4498   5.875  23.888   0.726
32074W        W 4499   6.512  14.257   4.449
32075W        W 4500  18.233  14.453   4.469
32076W        W 4501  29.234  22.317   3.426
32077W        W 4502   8.819  27.436  14.995
32078W        W 4503   6.908   0.662  11.470
32079W        W 4504  21.638  27.026  13.522
32080W        W 4505  23.232  30.757  11.020
32081W        W 4506   8.793   5.801  12.646
32082W        W 4507  30.587  20.511  14.356
32083W        W 4508  43.918  22.541   2.877
32084W        W 4509  15.345  21.488  11.362
32085W        W 4510  19.338  37.058   1.873
32086W        W 4511  34.862   7.766  11.189
32087W        W 4512  41.515  13.634   3.835
32088W        W 4513  14.833  32.168  11.702
32089W        W 4514  36.571  34.355  11.510
32090W        W 4515  15.679   7.399   0.452
32091W        W 4516  41.845  24.187   4.156
32092W        W 4517  25.079  15.129   1.450
32093W        W 4518  21.560   7.227   0.975
32094W        W 4519  14.200  11.814   3.226
32095W        W 4520   2.340  14.896   0.887
32096W        W 4521  32.435  41.345  13.278
32097W        W 4522  22.817   2.266  12.627
32098W        W 4523  22.842  27.447   0.844
32099W        W 4524   9.685  31.479  14.909
32100W        W 4525   3.400  33.600  10.700
32101W        W 4526  39.793  36.602  12.925
32102W        W 4527  24.785  34.069   1.486
32103W        W 4528   1.215   4.902  11.699
32104W        W 4529   3.513  25.255  13.880
32105W        W 4530  33.884  20.798  12.068
32106W        W 4531   6.753  31.638  11.011
32107W        W 4532  39.348   6.380   3.312
32108W        W 4533  42.161  16.738   4.846
32109W        W 4534  13.588  44.034   1.316
32110W        W 4535  16.689  31.131   3.275
32111W        W 4536   8.369  20.280  12.635
32112W        W 4537  11.720  11.916  13.912
32113W        W 4538  11.899  11.807   4.167
32114W        W 4539  16.820   4.795   0.337
32115W        W 4540  16.995   7.613  11.954
32116W        W 4541   0.708   0.303  13.452
32117W        W 4542  26.167  31.754  11.519
32118W        W 4543  19.820  12.703  12.628
32119W        W 4544  28.641  24.448   3.400
32120W        W 4545  16.226  24.343  12.161
32121W        W 4546  44.701  24.500   4.202
32122W        W 4547   1.595  38.413  10.655
32123W        W 4548   5.910  42.786   3.702
32124W        W 4549  15.035  10.965  14.961
32125W        W 4550  40.240  20.645  11.109
32126W        W 4551   6.248  44.068   2.074
32127W        W 4552   1.685   5.828   1.903
32128W        W 4553   8.882  19.152  11.897
32129W        W 4554  14.036  20.660   2.047
32130W        W 4555   3.264   8.774  14.438
32131W        W 4556  35.387   3.482  13.298
32132W        W 4557   6.802   8.624   2.286
32133W        W 4558   0.531   2.428   0.629
32134W        W 4559  32.671  32.508   1.736
32135W        W 4560  44.228  22.704   2.055
32136W        W 4561  16.545  24.666  13.606
32137W        W 4562  24.418  29.861  12.391
32138W        W 4563  25.784  41.555  14.308
32139W        W 4564  10.475  17.920   4.329
32140W        W 4565  12.874  21.688  10.639
32141W        W 4566  11.101   3.944  14.846
32142W        W 4567  40.041  16.656   2.334
32143W        W 4568  28.940   9.605  11.616
32144W        W 4569  15.011   7.369  10.449
32145W        W 4570  27.351  35.402  12.944
32146W        W 4571   6.113  40.731  14.937
32147W        W 4572   6.821   6.894  13.991
32148W        W 4573  29.145  15.560   4.250
32149W        W 4574  36.286  10.178   1.283
32150W        W 4575   8.247  20.855  12.891
32151W        W 4576  42.522  34.344  13.581
32152W        W 4577  24.433   2.880  13.960
32153W        W 4578   1.790  14.681   2.912
32154W        W 4579  28.733   8.199  10.804
32155W        W 4580  21.504  43.599  12.883
32156W        W 4581  27.208  32.031  10.123
32157W        W 4582  29.458  31.171   0.555
32158W        W 4583  29.870   8.794   1.456
32159W        W 4584  42.745  24.136  14.385
32160W        W 4585   0.921  16.323  13.451
32161W        W 4586  20.114  32.908  11.135
32162W        W 4587  21.735   8.783   4.138
32163W        W 4588  20.913  22.269  13.543
32164W        W 4589   8.300  30.498  11.305
32165W        W 4590  20.717  36.343   0.213
32166W        W 4591  39.103  17.657   1.785
32167W        W 4592  18.733  38.774   2.708
32168W        W 4593  39.558  19.808  12.911
32169W        W 4594  33.203  34.510   3.856
32170W        W 4595   4.185  13.852  10.628
32171W        W 4596  11.171   5.331   0.043
32172W        W 4597  30.732  30.046   0.203
32173W        W 4598   6.383   0.843  13.105
32174W        W 4599  12.844  12.690  12.569
32175W        W 4600  14.774  36.250   1.272
32176W        W 4601   4.248  14.379   2.279
32177W        W 4602  36.905   8.957   2.709
32178W        W 4603  41.143   5.379   0.735
32179W        W 4604   4.355   4.499  10.604
32180W        W 4605   1.963  26.537   4.737
32181W        W 4606  19.665  33.492   4.327
32182W        W 4607  28.451  27.725  10.238
32183W        W 4608  42.792  12.617   1.875
32184W        W 4609  15.636  24.525  10.520
32185W        W 4610  39.400  35.530   4.121
32186W        W 4611  39.108   5.080   0.458
32187W        W 4612  34.534  41.427   2.371
32188W        W 4613   5.614  42.816  11.096
32189W        W 4614   0.388   0.150   3.329
32190W        W 4615  33.232  31.876  12.484
32191W        W 4616   4.289  27.662  14.724
32192W        W 4617  15.197  21.108  11.056
32193W        W 4618  21.526   5.686  12.503
32194W        W 4619  18.017  17.021  14.510
32195W        W 4620  24.262  41.276  10.665
32196W        W 4621  35.112  14.346  14.930
32197W        W 4622  41.946  30.029   1.313
32198W        W 4623  11.895   7.962   3.484
32199W        W 4624  30.390  34.367   4.122
32200W        W 4625  17.488   6.385   1.322
32201W        W 4626  33.682  32.052   3.961
32202W        W 4627  32.213  40.781  11.030
32203W        W 4628  35.185  19.142   1.626
32204W        W 4629   1.580  12.330   1.806
32205W        W 4630  38.400  42.787  14.484
32206W        W 4631  43.805  33.803  14.035
32207W        W 4632  31.203  31.600   2.255
32208W        W 4633   6.477  19.548   2.294
32209W        W 4634  39.504  17.704  10.622
32210W        W 4635  12.589   7.400  12.153
32211W        W 4636  32.493  27.669  10.896
32212W        W 4637  41.844   9.178  12.346
32213W        W 4638  31.926  24.284   1.804
32214W        W 4639  38.938  33.597  12.654
32215W        W 4640  13.497   3.753   0.551
32216W        W 4641  35.561  31.198  14.666
32217W        W 4642  27.867  35.440   0.487
32218W        W 4643  20.150  26.900   3.339
32219W        W 4644  19.770  24.554  10.768
32220W        W 4645  25.213  27.278  13.150
32221W        W 4646  40.405  23.432   2.295
32222W        W 4647  15.741  24.764  14.429
32223W        W 4648  37.096  15.944   2.700
32224W        W 4649   9.284   2.030  14.391
32225W        W 4650  18.158  44.483   0.891
32226W        W 4651  24.884  23.526   1.062
32227W        W 4652  23.205  40.587   3.661
32228W        W 4653  29.550   1.365  11.684
32229W        W 4654  31.673  36.938   4.775
32230W        W 4655  29.954  29.101  11.824
32231W        W 4656  18.571   6.566  14.446
32232W        W 4657  10.205   4.324   4.544
32233W        W 4658  21.007  15.567  12.034
32234W        W 4659  10.692  36.500  13.654
32235W        W 4660  41.954  36.058   2.686
32236W        W 4661  15.174  28.541   4.071
32237W        W 4662  14.359  31.701   2.442
32238W        W 4663  16.528  37.020   0.297
32239W        W 4664  21.649  29.760   3.578
32240W        W 4665  22.931  43.903  14.005
32241W        W 4666  17.367   9.804   1.144
32242W        W 4667   3.186  23.983  13.444
32243W        W 4668  37.046  16.320  14.906
32244W        W 4669  43.761  25.713   3.051
32245W        W 4670  13.059   6.236  13.797
32246W        W 4671   7.957  38.824  12.974
32247W        W 4672   7.684  37.710   1.981
32248W        W 4673  36.231  28.095   2.675
32249W        W 4674   5.497  35.148  10.712
32250W        W 4675  36.597   4.711   0.384
32251W        W 4676  14.023  16.199  12.688
32252W        W 4677  11.990  32.899   0.400
32253W        W 4678  31.826  44.244   4.678
32254W        W 4679  11.250  19.162  11.399
32255W        W 4680  38.426  14.451  12.680
32256W        W 4681   5.107   1.994   5.140
32257W        W 4682  27.409  42.615  12.370
32258W        W 4683  13.562  37.172  10.247
32259W        W 4684  25.234  22.654   4.915
32260W        W 4685  23.630  42.610  11.525
32261W        W 4686  11.649   3.756  12.233
32262W        W 4687   4.157  42.328  10.603
32263W        W 4688  43.568   5.252  12.260
32264W        W 4689  21.653  43.823  13.587
32265W        W 4690  32.188   0.431   0.385
32266W        W 4691  11.244  40.500   3.917
32267W        W 4692  14.617   5.860   0.111
32268W        W 4693  32.545  13.642  12.396
32269W        W 4694  15.214   7.165  12.624
32270W        W 4695  26.899  16.141   0.781
32271W        W 4696  12.195  19.270  10.864
32272W        W 4697   8.913  23.950   1.858
32273W        W 4698   8.456  34.033   0.364
32274W        W 4699  14.544  10.446   2.377
32275W        W 4700  21.663  44.495  10.909
32276W        W 4701  24.634  29.734   0.763
32277W        W 4702  33.486   4.889   1.522
32278W        W 4703  27.174  30.764   3.379
32279W        W 4704  25.698  17.209   1.743
32280W        W 4705  26.560  17.723   1.675
32281W        W 4706  24.467  19.351  13.388
32282W        W 4707   8.009  34.596   2.457
32283W        W 4708  37.771  15.746  13.822
32284W        W 4709   3.312   9.119  13.152
32285W        W 4710   9.766  36.690   4.839
32286W        W 4711   3.936  36.539  14.082
32287W        W 4712  26.860  28.483   1.697
32288W        W 4713  39.872  38.295   3.236
32289W        W 4714   8.481  42.322  14.882
32290W        W 4715  15.859  30.550   2.921
32291W        W 4716   0.978  34.630   1.369
32292W        W 4717  44.021  26.564  11.490
32293W        W 4718  19.991  38.382  12.918
32294W        W 4719  17.195  13.763   1.323
32295W        W 4720  22.422  34.604   1.918
32296W        W 4721  28.060   6.883   3.758
32297W        W 4722  11.240  24.785   5.122
32298W        W 4723  16.334   5.626  14.970
32299W        W 4724  25.186   4.937  14.832
32300W        W 4725  40.930  33.387   1.179
32301W        W 4726   6.112   1.501   0.873
32302W        W 4727  30.132  16.132  14.311
32303W        W 4728  17.106  35.646  14.464
32304W        W 4729  13.795  44.119  12.294
32305W        W 4730   4.192  16.562  11.054
32306W        W 4731  33.091  25.635   3.395
32307W        W 4732  19.850  24.431   3.400
32308W        W 4733  32.206  14.282  14.997
32309W        W 4734  32.522  43.706   1.825
32310W        W 4735  33.137   6.344  11.987
32311W        W 4736   8.845  34.914   2.901
32312W        W 4737  25.408  26.487   0.571
32313W        W 4738  16.384  14.366   0.148
32314W        W 4739  23.941  25.034  13.769
32315W        W 4740   4.325  13.298  10.554
32316W        W 4741  20.322  31.918   4.959
32317W        W 4742  15.476   3.361   4.581
32318W        W 4743  19.510   6.212  12.611
32319W        W 4744   7.881   6.232  11.284
32320W        W 4745  38.310  37.608   4.155
32321W        W 4746  22.250  33.445  12.213
32322W        W 4747  14.479   3.299  11.608
32323W        W 4748   1.764  18.737  12.857
32324W        W 4749  20.852   7.315   0.236
32325W        W 4750  27.179  44.471  12.494
32326W        W 4751  39.927  12.431   2.729
32327W        W 4752  13.085  41.951  11.603
32328W        W 4753  23.537  40.037  11.930
32329W        W 4754  40.227  39.096  14.500
32330W        W 4755  29.262  10.613   2.391
32331W        W 4756  18.782   8.411   0.452
32332W        W 4757  25.568   3.759   4.443
32333W        W 4758  34.583  32.103  12.927
32334W        W 4759  24.606  22.105   4.546
32335W        W 4760  25.728  36.256  11.221
32336W        W 4761  43.831  19.189   1.862
32337W        W 4762  19.829  25.894  14.387
32338W        W 4763  18.321   9.336   2.644
32339W        W 4764  23.325  18.581   2.245
32340W        W 4765  11.906  42.357  14.406
32341W        W 4766  44.959  29.274   2.031
32342W        W 4767  27.145  25.293   2.082
32343W        W 4768  28.250  44.274   2.609
32344W        W 4769  39.079  26.421  14.821
32345W        W 4770   0.328  18.392  10.729
32346W        W 4771  39.283   1.328   2.674
32347W        W 4772  22.219  32.882  13.515
32348W        W 4773  37.488  11.607  10.773
32349W        W 4774  29.101  23.612  10.164
32350W        W 4775  20.995  36.431   2.097
32351W        W 4776  28.959  29.416  11.176
32352W        W 4777  27.195  31.313   3.269
32353W        W 4778  38.994  16.454  14.713
32354W        W 4779  40.856   8.799  10.641
32355W        W 4780  34.779  24.092   1.859
32356W        W 4781  29.722  21.626   4.551
32357W        W 4782  14.000  33.603  12.000
32358W        W 4783  16.561  33.119  14.438
32359W        W 4784  10.271   9.202   3.594
32360W        W 4785  14.531  18.422  11.531
32361W        W 4786  24.775  28.183  14.819
32362W        W 4787  36.973  44.802  11.529
32363W        W 4788  15.184  20.927   2.269
32364W        W 4789  38.954  20.665  12.246
32365W        W 4790  17.226   6.671  13.017
32366W        W 4791  27.466  25.380   5.044
32367W        W 4792  20.590  21.561   2.145
32368W        W 4793  18.008  38.087  11.062
32369W        W 4794   3.317  24.623   4.884
32370W        W 4795   6.365  35.439   0.999
32371W        W 4796  32.053  11.512   9.968
32372W        W 4797   3.838  12.857   0.781
32373W        W 4798   3.379  26.109  14.109
32374W        W 4799  40.357  36.968  11.513
32375W        W 4800   7.927  38.953   4.072
32376W        W 4801  42.078  41.823  10.729
32377W        W 4802  31.734  40.091  14.430
32378W        W 4803  23.412  11.642  12.983
32379W        W 4804  40.855  35.757  12.547
32380W        W 4805  22.499   5.960  14.954
32381W        W 4806  32.317  31.969  14.941
32382W        W 4807   1.957  30.718  11.685
32383W        W 4808  18.921   5.265  13.482
32384W        W 4809  44.976  18.248  14.544
32385W        W 4810  20.476   6.284   2.663
32386W        W 4811  11.957   8.865  13.964
32387W        W 4812   6.618  18.678  12.688
32388W        W 4813  13.785  42.513  11.600
32389W        W 4814   0.688  23.366  11.264
32390W        W 4815   5.720  29.975  10.537
32391W        W 4816  20.982  25.322   0.985
32392W        W 4817  13.679  13.975  11.542
32393W        W 4818  39.433  44.364  10.649
32394W        W 4819  37.555  25.155  13.898
32395W        W 4820  38.516  12.826  14.387
32396W        W 4821   3.293   0.924  14.752
32397W        W 4822   2.236  25.165   3.865
32398W        W 4823  27.904   4.591   0.941
32399W        W 4824  37.047   8.196  13.508
32400W        W 4825  24.623  14.343   4.266
32401W        W 4826   0.421  32.628  14.030
32402W        W 4827  29.886   0.577   4.752
32403W        W 4828  23.202  11.160  11.256
32404W        W 4829  22.961  11.200  14.838
32405W        W 4830  22.151  29.072  14.972
32406W        W 4831  19.675  31.138   3.797
32407W        W 4832  15.223  33.506  11.456
32408W        W 4833   0.030  24.731   0.297
32409W        W 4834   2.806  10.629  14.825
32410W        W 4835  31.953   8.757   4.147
32411W        W 4836   7.369  38.377   3.814
32412W        W 4837  42.785   0.348   3.820
32413W        W 4838  32.679  13.121  13.362
32414W        W 4839   3.964  20.290   1.699
32415W        W 4840  41.322   6.439   0.874
32416W        W 4841  11.372   8.789  13.299
32417W        W 4842  11.559   3.249   0.470
32418W        W 4843   7.791  29.931   1.413
32419W        W 4844  27.687  44.767   4.644
32420W        W 4845  38.493  40.313  11.873
32421W        W 4846  28.591  41.740  13.004
32422W        W 4847   8.868  36.692  12.578
32423W        W 4848  20.605   4.419   0.905
32424W        W 4849  13.806  22.043   5.218
32425W        W 4850  13.144  44.328   1.336
32426W        W 4851  36.807  34.070  14.943
32427W        W 4852  43.286  35.432   1.694
32428W        W 4853  22.784  41.817  14.005
32429W        W 4854  34.559  27.597   4.123
32430W        W 4855  16.547   0.895   1.867
32431W        W 4856  30.211  24.565  11.407
32432W        W 4857  14.139  23.784   1.238
32433W        W 4858  24.677  39.473  10.704
32434W        W 4859  37.460   8.688   4.244
32435W        W 4860  41.838  26.446   4.641
32436W        W 4861  32.897   1.425  11.220
32437W        W 4862  15.115  26.562   1.352
32438W        W 4863   1.483  20.082   2.954
32439W        W 4864  12.566  21.543   0.251
32440W        W 4865  24.500   1.026   1.273
32441W        W 4866  13.603  12.630  14.338
32442W        W 4867  15.826  34.152   3.202
32443W        W 4868  36.598  28.151   4.424
32444W        W 4869   2.205   8.225   2.374
32445W        W 4870   4.494   3.385  13.859
32446W        W 4871  37.281  19.662   0.230
32447W        W 4872  33.550  44.386  14.594
32448W        W 4873  41.082  19.665   1.817
32449W        W 4874  27.163   5.905   3.895
32450W        W 4875  11.377  40.726  13.799
32451W        W 4876  10.773   4.789  11.911
32452W        W 4877   2.834  37.088   3.284
32453W        W 4878  23.103  22.693  12.077
32454W        W 4879  38.283  23.162  13.880
32455W        W 4880  37.769  30.311   3.884
32456W        W 4881  17.092   6.279   4.135
32457W        W 4882   3.223  26.777   0.922
32458W        W 4883  37.028   0.326  11.528
32459W        W 4884  18.677   5.087  11.605
32460W        W 4885  31.618   4.158  14.885
32461W        W 4886  36.902  10.311   2.058
32462W        W 4887  14.146  25.951  12.526
32463W        W 4888   0.910  14.033   3.795
32464W        W 4889  28.203  16.744   3.154
32465W        W 4890  36.551  15.211  13.187
32466W        W 4891  26.189  43.077   3.306
32467W        W 4892  31.020  26.290   3.205
32468W        W 4893  28.393  16.055   0.039
32469W        W 4894  31.271   6.023  13.591
32470W        W 4895  29.723  20.717   0.924
32471W        W 4896  39.044   7.166   4.644
32472W        W 4897  21.190  34.005  10.685
32473W        W 4898  11.556  20.993   3.479
32474W        W 4899  22.742  32.920  13.432
32475W        W 4900  14.176  29.331  13.336
32476W        W 4901   9.388   6.248  11.604
32477W        W 4902  32.995  18.082   0.713
32478W        W 4903   7.681  30.635  12.129
32479W        W 4904  23.959   8.472   1.531
32480W        W 4905  28.697   8.101  12.619
32481W        W 4906  43.413  27.905   0.122
32482W        W 4907  24.955  40.595   3.240
32483W        W 4908  44.003  36.442   2.254
32484W        W 4909   5.811   9.140  13.747
32485W        W 4910  29.673  15.638  12.588
32486W        W 4911  20.593  31.867   4.260
32487W        W 4912  28.764  27.762   2.387
32488W        W 4913   9.622  32.962  11.351
32489W        W 4914   9.886  39.455  13.896
32490W        W 4915  43.018  29.977   1.338
32491W        W 4916  40.483  34.616  14.415
32492W        W 4917  18.697   6.429   1.263
32493W        W 4918  17.127  26.676  10.686
32494W        W 4919  11.402  21.857  10.624
32495W        W 4920  12.199  38.815   3.812
32496W        W 4921  37.353  17.739   0.493
32497W        W 4922   7.367   9.675   1.701
32498W        W 4923   4.352  27.475  14.266
32499W        W 4924   3.386  32.388   3.525
32500W        W 4925  16.314  23.702   1.364
32501W        W 4926  39.100  43.585   2.923
32502W        W 4927  25.866  33.081  11.421
32503W        W 4928  36.561  22.748  14.766
32504W        W 4929  35.056  16.981  11.266
32505W        W 4930  26.835  14.682  13.368
32506W        W 4931  24.996  15.683  11.055
32507W        W 4932  36.080  24.492  14.326
32508W        W 4933  14.207  23.682   3.410
32509W        W 4934  10.527  12.750  11.897
32510W        W 4935   4.607  37.411   2.812
32511W        W 4936   2.724  10.834   2.254
32512W        W 4937   7.280  30.060   4.566
32513W        W 4938  14.242  42.618   2.860
32514W        W 4939  25.734  26.882   0.966
32515W        W 4940  28.753  22.467   3.249
32516W        W 4941   2.988  42.434   4.249
32517W        W 4942   7.936  13.214  11.510
32518W        W 4943  37.466  39.301   4.932
32519W        W 4944  26.431  44.825   4.213
32520W        W 4945  40.454  11.572   3.616
32521W        W 4946  25.593  33.795   1.601
32522W        W 4947  38.512  23.735   1.793
32523W        W 4948  15.173  26.718  13.460
32524W        W 4949  43.308  35.976  11.151
32525W        W 4950  38.512   0.803  12.022
32526W        W 4951  20.111  29.942  10.757
32527W        W 4952  21.267  26.606   1.622
32528W        W 4953  39.799  38.645  12.937
32529W        W 4954  41.296  39.001  12.047
32530W        W 4955  15.390  16.535  14.447
32531W        W 4956  16.672   6.745  11.484
32532W        W 4957  21.117  33.561   2.732
32533W        W 4958  32.466  11.885  11.707
32534W        W 4959  14.889  22.144   1.886
32535W        W 4960  44.190  14.820   3.617
32536W        W 4961  27.709   6.916   1.312
32537W        W 4962  25.134  17.160   5.056
32538W        W 4963   9.374  36.362   4.710
32539W        W 4964   1.510   7.749   3.962
32540W        W 4965  16.556   2.970  10.778
32541W        W 4966  39.027  32.127  14.115
32542W        W 4967  44.764   6.374  11.706
32543W        W 4968  13.708  34.192  11.986
32544W        W 4969  29.071  11.169  11.606
32545W        W 4970  13.374  37.557   2.661
32546W        W 4971  33.310   7.266  14.770
32547W        W 4972  40.282  21.695  11.017
32548W        W 4973  40.373  37.294  12.065
32549W        W 4974  30.096  19.116   1.320
32550W        W 4975  10.146  43.698   4.496
32551W        W 4976  18.231  44.395   3.701
32552W        W 4977  32.219  12.840  11.974
32553W        W 4978  13.694  11.988  11.120
32554W        W 4979  40.551  13.832  14.445
32555W        W 4980  11.807  11.635   4.634
32556W        W 4981   0.654   0.842   4.611
32557W        W 4982  23.419  20.614   4.647
32558W        W 4983  21.020   1.901   3.523
32559W        W 4984  22.999  25.008  11.608
32560W        W 4985  18.200   6.185   1.223
32561W        W 4986   3.473   9.249  14.547
32562W        W 4987   4.646  35.351  14.831
32563W        W 4988  42.705  18.506   3.802
32564W        W 4989  31.974   6.689   5.100
32565W        W 4990  31.643  23.682   9.683
32566W        W 4991  24.731  12.317  12.222
32567W        W 4992   2.015   4.833  14.279
32568W        W 4993  20.475   7.576   1.570
32569W        W 4994  30.143  16.970   2.718
32570W        W 4995  38.321  28.705  13.771
32571W        W 4996  34.926  27.717   1.690
32572W        W 4997  31.158   8.669   1.799
32573W        W 4998  20.099  39.393  12.853
32574W        W 4999  26.528   1.396  10.697
32575W        W 5000   4.824  13.854  11.968
32576W        W 5001  35.353  23.130  11.894
32577W        W 5002  29.566  12.239  11.624
32578W        W 5003   4.941  27.517   3.365
32579W        W 5004  10.617  36.317  14.452
32580W        W 5005  26.460  27.223   4.573
32581W        W 5006  43.440   2.171   2.861
32582W        W 5007  15.128  32.963  13.080
32583W        W 5008  42.998  24.438   1.359
32584W        W 5009  12.130   7.179   0.849
32585W        W 5010  30.939  39.050  11.085
32586W        W 5011  23.505   4.737   1.289
32587W        W 5012   5.886  14.725  13.759
32588W        W 5013   9.103  15.821  10.460
32589W        W 5014  18.632  44.954  11.384
32590W        W 5015   3.142  19.101   3.559
32591W        W 5016   6.869  37.152   2.553
32592W        W 5017  28.538  17.499  10.546
32593W        W 5018  18.189  26.120   3.275
32594W        W 5019  43.906  16.236   1.180
32595W        W 5020   8.462  14.552  11.533
32596W        W 5021  11.375  20.571   0.277
32597W        W 5022  19.790   0.380   0.699
32598W        W 5023   9.860  34.833  10.606
32599W        W 5024  19.060  31.398   2.131
32600W        W 5025  10.305  18.149  12.804
32601W        W 5026  40.009  44.766  12.844
32602W        W 5027  26.437  18.671   1.133
32603W        W 5028  14.587  22.525  14.051
32604W        W 5029  24.501  33.514   3.230
32605W        W 5030  21.554  42.755   3.283
32606W        W 5031  44.494  44.476   1.931
32607W        W 5032  17.559   1.531  10.746
32608W        W 5033   7.352  35.608  12.933
32609W        W 5034  36.616   6.831   1.317
32610W        W 5035  25.491  20.039  12.982
32611W        W 5036  42.397  42.467   1.843
32612W        W 5037  27.398  29.635   4.567
32613W        W 5038  20.931  34.032   3.218
32614W        W 5039  15.100   6.228  11.657
32615W        W 5040  16.334  23.668  12.785
32616W        W 5041  17.035  13.491  13.486
32617W        W 5042  39.043  38.762  13.809
32618W        W 5043  16.178  44.488   1.754
32619W        W 5044  13.644  16.212   3.209
32620W        W 5045  27.648   7.587  11.115
32621W        W 5046  37.794   8.315  10.201
32622W        W 5047   6.701  38.433   1.148
32623W        W 5048  20.469  27.001   1.912
32624W        W 5049  39.361  37.147   0.958
32625W        W 5050  20.639   2.919  12.919
32626W        W 5051  11.855  32.871  13.262
32627W        W 5052  16.403  16.162  11.171
32628W        W 5053  21.310   2.367   4.126
32629W        W 5054  11.846  29.536  14.300
32630W        W 5055  12.076   1.219   4.173
32631W        W 5056  14.301   4.720   3.938
32632W        W 5057  25.869  37.436   2.708
32633W        W 5058  33.918  21.481  13.360
32634W        W 5059   7.012   3.406  12.446
32635W        W 5060   2.113   3.408  10.117
32636W        W 5061  13.582  21.635   0.391
32637W        W 5062  30.073  27.513   0.087
32638W        W 5063  12.049  35.001   4.058
32639W        W 5064  37.121   8.945  10.598
32640W        W 5065   4.005  19.113  10.660
32641W        W 5066   5.413  25.922   2.647
32642W        W 5067  29.940  23.935  12.138
32643W        W 5068  39.443  44.955  14.501
32644W        W 5069  28.262  37.009  13.460
32645W        W 5070  39.855  11.583  12.121
32646W        W 5071  19.420  36.566  14.374
32647W        W 5072  39.326   9.775   3.847
32648W        W 5073  11.788   8.883   5.068
32649W        W 5074  42.612  12.667  12.906
32650W        W 5075  17.701   2.237   3.804
32651W        W 5076  37.463   4.732   3.799
32652W        W 5077  17.717  19.519  14.353
32653W        W 5078  19.750  16.718   4.258
32654W        W 5079   8.686   1.797   0.270
32655W        W 5080  18.343  12.737  13.989
32656W        W 5081  13.228  18.781  12.850
32657W        W 5082  13.614  28.884   0.361
32658W        W 5083  31.839  33.924   1.547
32659W        W 5084   9.481   7.211  14.475
32660W        W 5085  35.512   1.903   3.544
32661W        W 5086  20.139  16.291   2.450
32662W        W 5087  30.860  22.404  12.445
32663W        W 5088  35.197  29.184  13.525
32664W        W 5089  13.804  36.394  13.389
32665W        W 5090  33.982   6.718   4.570
32666W        W 5091  33.448  34.943  12.728
32667W        W 5092  39.317  37.530   0.190
32668W        W 5093  37.391   9.690  13.998
32669W        W 5094  17.203  31.602  12.897
32670W        W 5095  18.336  24.179  14.825
32671W        W 5096  16.987   7.256   4.545
32672W        W 5097   4.239  12.810  11.444
32673W        W 5098   2.252  36.213   2.349
32674W        W 5099  38.007   7.792   4.179
32675W        W 5100  41.595   1.433  13.249
32676W        W 5101   5.833  43.276   3.838
32677W        W 5102   3.808  36.900  13.719
32678W        W 5103  30.735  12.884  13.508
32679W        W 5104  42.793  12.077   2.784
32680W        W 5105  43.860  24.956   2.308
32681W        W 5106  34.484  44.501   0.542
32682W        W 5107  24.162   1.045  10.262
32683W        W 5108   0.714  42.755   0.455
32684W        W 5109   0.758  19.004  12.957
32685W        W 5110   1.508  15.123   3.528
32686W        W 5111   5.447  39.901  13.323
32687W        W 5112  36.760  35.132  12.046
32688W        W 5113  30.103   1.894  12.236
32689W        W 5114  34.219  32.348   2.828
32690W        W 5115  41.076   9.039  12.286
32691W        W 5116  30.442  15.745   3.833
32692W        W 5117  33.640   7.625   3.934
32693W        W 5118  38.510  13.075  11.239
32694W        W 5119  15.294  35.198   0.797
32695W        W 5120  28.523  31.722   0.811
32696W        W 5121  43.728  39.923  11.023
32697W        W 5122  39.075   8.220   3.236
32698W        W 5123  35.396  39.468   1.998
32699W        W 5124  13.124  19.064  11.985
32700W        W 5125  29.572  12.106  13.486
32701W        W 5126  39.085  31.857  12.864
32702W        W 5127  16.098  29.606   1.429
32703W        W 5128  32.001  15.172  14.825
32704W        W 5129  25.004   5.428   0.567
32705W        W 5130  18.914  10.727  12.799
32706W        W 5131  13.669  16.887  12.035
32707W        W 5132  16.899   4.816  12.210
32708W        W 5133  13.222   1.396  11.996
32709W        W 5134  34.189   8.868  14.397
32710W        W 5135  36.232  10.547  14.024
32711W        W 5136  21.208  36.042  12.372
32712W        W 5137  10.489  23.016   0.784
32713W        W 5138  11.971  17.242  14.685
32714W        W 5139   9.895  27.171  14.040
32715W        W 5140  43.816  38.814  12.874
32716W        W 5141  40.851  25.739  14.062
32717W        W 5142  25.966  30.601   2.774
32718W        W 5143  36.863  27.013  12.524
32719W        W 5144  41.178  10.333   1.350
32720W        W 5145   6.557  17.590   0.217
32721W        W 5146   3.983  40.424  14.278
32722W        W 5147  33.625   8.763   5.018
32723W        W 5148   0.479  44.889   0.673
32724W        W 5149  36.995   5.079  12.974
32725W        W 5150   0.464  10.330  12.368
32726W        W 5151  13.357  41.506  14.865
32727W        W 5152  28.911   0.241  13.463
32728W        W 5153  38.446   4.758  12.433
32729W        W 5154  23.563  27.684  13.882
32730W        W 5155  20.250   0.873  14.408
32731W        W 5156  15.814   5.398  13.081
32732W        W 5157  13.766  12.723   1.798
32733W        W 5158  29.425  21.523  13.735
32734W        W 5159  10.737  33.822  10.615
32735W        W 5160  12.051   5.305   2.447
32736W        W 5161  11.613   2.945   3.174
32737W        W 5162  43.300  11.585   1.302
32738W        W 5163   0.478   3.937   2.196
32739W        W 5164  14.868  27.366  11.409
32740W        W 5165  10.674  36.986   2.956
32741W        W 5166  34.130  38.877  13.951
32742W        W 5167  11.606  42.649  11.989
32743W        W 5168  11.396  28.570  10.637
32744W        W 5169  13.354  42.541  13.003
32745W        W 5170   5.221   1.456   0.717
32746W        W 5171  20.696  31.860   3.134
32747W        W 5172  28.882  24.550   4.751
32748W        W 5173   4.487  10.642   3.210
32749W        W 5174  39.852  13.219   2.402
32750W        W 5175  40.848   2.203   0.034
32751W        W 5176   3.842  24.422  12.583
32752W        W 5177  12.635  29.947  14.811
32753W        W 5178  18.592  35.239   0.683
32754W        W 5179  36.933  44.372  14.711
32755W        W 5180   4.801  14.869   3.323
32756W        W 5181   7.398   6.214  14.409
32757W        W 5182  19.292   1.796   1.509
32758W        W 5183  38.524  36.535  14.922
32759W        W 5184  26.503  13.090  11.165
32760W        W 5185  21.680   3.197   2.211
32761W        W 5186  36.434   8.338   3.254
32762W        W 5187  15.141  42.462   1.767
32763W        W 5188  17.054  25.459   4.261
32764W        W 5189  16.253  17.645  13.482
32765W        W 5190  17.413  44.892   2.041
32766W        W 5191  43.297  21.603  14.473
32767W        W 5192  12.741  15.771  13.453
32768W        W 5193  29.712  20.580  14.919
32769W        W 5194  44.252  19.968  14.410
32770W        W 5195  27.710   0.753  14.743
32771W        W 5196  18.666  32.689  11.180
32772W        W 5197   6.269   9.623   2.888
32773W        W 5198  39.521  18.180  11.155
32774W        W 5199  20.033   5.839   1.301
32775W        W 5200  18.568   2.132   0.343
32776W        W 5201  34.198  37.422   0.866
32777W        W 5202  36.835  29.224  12.112
32778W        W 5203  29.101  13.602   0.837
32779W        W 5204  29.430  21.584   4.097
32780W        W 5205  23.721  27.671  12.051
32781W        W 5206  13.701  14.400  13.295
32782W        W 5207  25.308  32.287   9.813
32783W        W 5208  43.033  42.486   2.811
32784W        W 5209  38.688  17.321  10.411
32785W        W 5210  42.192  16.180  10.763
32786W        W 5211  16.554  19.530  14.721
32787W        W 5212   4.093  11.760   4.210
32788W        W 5213  15.117  33.408   5.063
32789W        W 5214   1.294  29.582  14.042
32790W        W 5215  31.639   3.948   0.868
32791W        W 5216  38.970   5.109   2.216
32792W        W 5217   2.034  36.911   4.619
32793W        W 5218   0.034  14.713   3.701
32794W        W 5219  18.653   6.982  11.129
32795W        W 5220  17.789  28.925   4.585
32796W        W 5221  20.801  39.347  11.180
32797W        W 5222   6.437  21.327  11.607
32798W        W 5223  26.230  31.487  11.956
32799W        W 5224   0.165  32.440  11.162
32800W        W 5225  24.241   8.686   4.628
32801W        W 5226  20.260   4.307   4.128
32802W        W 5227  36.538  21.674   2.254
32803W        W 5228  13.256   1.666  14.005
32804W        W 5229  16.016  19.201   2.639
32805W        W 5230  23.671   3.913  10.707
32806W        W 5231  25.566  14.191  10.672
32807W        W 5232  34.011  28.786  13.897
32808W        W 5233  37.368   2.481   4.170
32809W        W 5234  21.518   0.878   1.464
32810W        W 5235  34.957  33.907  11.806
32811W        W 5236   6.966   2.221   3.603
32812W        W 5237   0.438  44.963  12.011
32813W        W 5238  29.457  20.401   1.326
32814W        W 5239   1.616  25.612   2.646
32815W        W 5240  37.677  37.494  10.736
32816W        W 5241  17.111  18.523   1.659
32817W        W 5242  23.995   4.423   2.716
32818W        W 5243  19.168  17.173   1.315
32819W        W 5244   2.524  35.765   2.901
32820W        W 5245   2.624   4.169   2.295
32821W        W 5246   0.560  18.807   0.237
32822W        W 5247  23.753  29.829   2.553
32823W        W 5248   4.888  11.195  10.096
32824W        W 5249  42.928   4.253  10.787
32825W        W 5250  39.032  36.365  13.431
32826W        W 5251  33.074  23.461   1.785
32827W        W 5252   3.988  34.881   2.130
32828W        W 5253   7.569  11.154   2.615
32829W        W 5254  15.556  10.091  14.440
32830W        W 5255  23.978  39.847  11.154
32831W        W 5256   6.002  19.179   3.616
32832W        W 5257   2.824  37.219  13.995
32833W        W 5258  14.014  16.688   0.155
32834W        W 5259  32.424  22.236   4.390
32835W        W 5260  22.700  19.753  14.700
32836W        W 5261  25.421   1.781  11.808
32837W        W 5262   0.596  34.908  14.999
32838W        W 5263   6.775  24.967   3.696
32839W        W 5264  37.451  14.027   1.918
32840W        W 5265   6.616   4.205   3.379
32841W        W 5266  13.174  23.769  10.756
32842W        W 5267  21.814  41.153  12.507
32843W        W 5268   4.976  41.878   2.299
32844W        W 5269  44.953  30.040   4.411
32845W        W 5270  18.861  16.879   4.729
32846W        W 5271   1.297   4.367  12.411
32847W        W 5272  43.866   8.716   4.749
32848W        W 5273  41.988  41.910   4.707
32849W        W 5274  22.719  22.771   2.795
32850W        W 5275   6.805  29.518  13.352
32851W        W 5276  31.989  18.863  11.641
32852W        W 5277  22.776  37.663  10.004
32853W        W 5278  34.304   8.245   2.260
32854W        W 5279  20.707  16.053  10.768
32855W        W 5280  30.066  19.975   2.263
32856W        W 5281   7.464  25.986   3.283
32857W        W 5282  16.124  26.221   4.092
32858W        W 5283  17.686  37.645   2.719
32859W        W 5284  13.629  30.640   2.280
32860W        W 5285  19.735   3.308  14.413
32861W        W 5286   6.899   1.471  13.956
32862W        W 5287   8.905   8.903  10.785
32863W        W 5288   5.626  12.437   0.789
32864W        W 5289  22.556   1.476   2.737
32865W        W 5290  15.608  37.529  14.593
32866W        W 5291  12.153   1.503  14.923
32867W        W 5292  43.316  31.361   4.788
32868W        W 5293  38.637  44.861  13.543
32869W        W 5294  23.249  44.543   4.269
32870W        W 5295   9.624  19.098   0.384
32871W        W 5296  39.416  34.657  13.661
32872W        W 5297  40.868  30.450  12.035
32873W        W 5298  23.666  14.751   3.401
32874W        W 5299  32.555  24.667   0.716
32875W        W 5300  34.589  44.272   3.127
32876W        W 5301  12.128  44.521   4.075
32877W        W 5302  26.667  17.625  11.974
32878W        W 5303   1.020  14.026  14.819
32879W        W 5304   1.186  30.017  14.273
32880W        W 5305   3.225  19.739   2.084
32881W        W 5306   2.802  26.829   2.100
32882W        W 5307  31.664  43.315   0.263
32883W        W 5308  24.469  31.913  11.203
32884W        W 5309  12.619  24.103  13.506
32885W        W 5310  40.479   9.802  12.967
32886W        W 5311  29.078  11.176   3.026
32887W        W 5312  13.811   8.957   0.030
32888W        W 5313   5.186   4.830   2.344
32889W        W 5314   0.381  31.297   5.365
32890W        W 5315  12.169  12.545  14.903
32891W        W 5316  23.835  23.058  13.010
32892W        W 5317  29.014  15.327  12.967
32893W        W 5318  33.964  10.318  10.677
32894W        W 5319  14.406  17.169   2.874
32895W        W 5320  42.975  38.600   3.794
32896W        W 5321  14.181  15.663   2.558
32897W        W 5322  29.079  31.544   2.576
32898W        W 5323  41.509  40.026  12.924
32899W        W 5324  19.545  43.252  14.523
32900W        W 5325   1.514  19.559  13.737
32901W        W 5326   5.253  24.661   3.501
32902W        W 5327  21.999  29.068  10.730
32903W        W 5328   0.895  33.264   2.196
32904W        W 5329  44.149   2.367   1.887
32905W        W 5330  40.019  18.807  13.722
32906W        W 5331  21.371   2.821   0.024
32907W        W 5332  10.286   3.803   2.486
32908W        W 5333  13.093   7.654   2.840
32909W        W 5334  12.615  31.534   4.211
32910W        W 5335  36.601  19.531  13.778
32911W        W 5336  32.407  42.804   2.273
32912W        W 5337  18.787  29.642  12.023
32913W        W 5338  42.050  24.915  10.617
32914W        W 5339  12.870   0.909   0.486
32915W        W 5340  19.985  27.659   2.729
32916W        W 5341  36.383  29.226   0.851
32917W        W 5342  20.109  37.952   2.363
32918W        W 5343   4.261   7.713   0.537
32919W        W 5344  14.320  15.318  14.495
32920W        W 5345   2.212  23.684   2.164
32921W        W 5346  39.378   5.741   1.536
32922W        W 5347  13.904  23.181  13.795
32923W        W 5348  32.441  10.855  13.895
32924W        W 5349  17.871  29.421  12.059
32925W        W 5350  36.965   3.930   4.299
32926W        W 5351   0.061  26.927   0.755
32927W        W 5352   3.831  12.596  11.705
32928W        W 5353  33.616   6.840  14.559
32929W        W 5354  29.796   4.776   3.863
32930W        W 5355  38.868  12.326   3.916
32931W        W 5356  30.185  35.441   3.251
32932W        W 5357  34.249  43.365   2.236
32933W        W 5358  44.833  33.618  14.745
32934W        W 5359  44.258  11.859  10.743
32935W        W 5360  14.254  12.167   0.522
32936W        W 5361  44.621   9.635   2.263
32937W        W 5362  28.022   3.419   3.276
32938W        W 5363  41.629  43.459  11.506
32939W        W 5364  32.919  30.557   3.192
32940W        W 5365   0.800   6.756  11.616
32941W        W 5366  42.380  31.691  12.558
32942W        W 5367  16.513  22.467  13.880
32943W        W 5368  24.873  13.569   2.827
32944W        W 5369  29.914  15.957   2.716
32945W        W 5370  40.341   2.094  14.850
32946W        W 5371  13.999  41.364  11.420
32947W        W 5372  14.059  37.559   1.443
32948W        W 5373  27.580  30.344   2.151
32949W        W 5374  17.739  38.345   3.263
32950W        W 5375  32.692  40.628   2.850
32951W        W 5376  29.829   1.818   1.149
32952W        W 5377  44.355  42.393  10.978
32953W        W 5378   9.135  14.470   1.469
32954W        W 5379   0.064  28.643  11.098
32955W        W 5380  35.576  36.449  14.041
32956W        W 5381  34.373  18.050   0.428
32957W        W 5382  13.806  21.599   2.776
32958W        W 5383  36.873  13.729   1.396
32959W        W 5384  32.309   9.305   3.194
32960W        W 5385  21.082  24.461   1.261
32961W        W 5386  40.864  30.546   4.892
32962W        W 5387   4.746   5.663   3.162
32963W        W 5388  33.079  13.193   0.418
32964W        W 5389   1.133  11.882  13.428
32965W        W 5390  14.746  42.089   1.894
32966W        W 5391   9.774  19.768  10.474
32967W        W 5392  31.421  35.047  14.380
32968W        W 5393   8.270   3.216  12.026
32969W        W 5394  16.309  27.080  14.765
32970W        W 5395  44.510  11.102   1.248
32971W        W 5396   0.754  24.186   0.329
32972W        W 5397  32.431   4.010   3.688
32973W        W 5398  43.283  26.226   1.000
32974W        W 5399  26.951  12.138   1.439
32975W        W 5400   8.670  34.969  11.246
32976W        W 5401   6.801  24.735   0.329
32977W        W 5402  39.133   6.167   3.755
32978W        W 5403  32.815  10.829   4.553
32979W        W 5404   7.129   3.437   3.840
32980W        W 5405  15.479  40.212  11.552
32981W        W 5406  22.649  31.861   4.604
32982W        W 5407  33.121  23.741  11.159
32983W        W 5408  37.408  12.372   3.374
32984W        W 5409  36.316  36.466  11.479
32985W        W 5410  25.282   0.747  11.633
32986W        W 5411  44.970  44.269  12.584
32987W        W 5412  18.556  11.245   2.274
32988W        W 5413   2.682   3.861   5.030
32989W        W 5414  38.965  14.405   4.428
32990W        W 5415  34.114  38.054   3.110
32991W        W 5416  11.351  41.393  11.603
32992W        W 5417  20.227  24.676   1.201
32993W        W 5418   6.579  40.392   4.546
32994W        W 5419  28.257  12.220   0.024
32995W        W 5420  36.105   9.649   0.737
32996W        W 5421  42.459  16.159  13.564
32997W        W 5422  26.198  34.539  11.984
32998W        W 5423  24.936   4.852  11.927
32999W        W 5424  11.227  35.269  10.639
33000W        W 5425  19.219   9.790   0.794
33001W        W 5426   2.776  10.254  10.579
33002W        W 5427  24.114   1.503   9.927
33003W        W 5428   4.843  28.758  13.061
33004W        W 5429   7.556  22.960   0.811
33005W        W 5430  32.299   2.737  13.630
33006W        W 5431  17.621  14.769  11.483
33007W        W 5432  41.496  40.382  14.933
33008W        W 5433  43.707  36.503  14.740
33009W        W 5434  10.839  22.823   5.425
33010W        W 5435   9.565  27.079   3.757
33011W        W 5436  20.696   9.311   2.663
33012W        W 5437  38.908   9.751   4.407
33013W        W 5438   1.829  14.860  14.841
33014W        W 5439  43.969  15.706   1.205
33015W        W 5440  28.546  36.861  12.876
33016W        W 5441  26.477   9.403  13.839
33017W        W 5442  38.471  29.050   2.877
33018W        W 5443  39.672  29.472   2.738
33019W        W 5444  21.932  44.193   1.400
33020W        W 5445  39.311  44.475   0.909
33021W        W 5446  16.698   9.765   1.044
33022W        W 5447  33.565  25.624  12.958
33023W        W 5448  23.527   7.353  14.231
33024W        W 5449  37.177  30.209  11.045
33025W        W 5450  41.785  39.881   4.556
33026W        W 5451  39.025  11.564   2.569
33027W        W 5452  10.842  29.872   0.210
33028W        W 5453  15.304  37.020   4.967
33029W        W 5454  26.111  32.186   1.853
33030W        W 5455  20.160  35.854  13.393
33031W        W 5456  38.192  30.534   4.583
33032W        W 5457  39.456  28.468   1.959
33033W        W 5458  39.308  40.303   1.341
33034W        W 5459   7.795  14.131  14.467
33035W        W 5460   8.206  28.711  13.397
33036W        W 5461   0.312   0.963  12.128
33037W        W 5462  44.380   0.786   1.398
33038W        W 5463  11.758  39.941  12.956
33039W        W 5464  38.776   5.367  13.775
33040W        W 5465   2.371   7.462  12.009
33041W        W 5466  24.644  42.228   0.219
33042W        W 5467  22.031  14.732  11.135
33043W        W 5468  43.753  29.958  12.485
33044W        W 5469   6.946  31.559   0.175
33045W        W 5470  37.784  40.457  13.418
33046W        W 5471  10.624  32.961   1.164
33047W        W 5472  19.000   4.761  14.817
33048W        W 5473  33.810  23.708  14.421
33049W        W 5474  41.023   5.165   4.624
33050W        W 5475  26.984  20.298   3.334
33051W        W 5476  13.597  10.975   0.652
33052W        W 5477  19.028  20.467   0.008
33053W        W 5478  19.695  37.311  12.108
33054W        W 5479   3.831  13.819  12.963
33055W        W 5480  24.032   9.374  13.025
33056W        W 5481  37.491  25.128   4.791
33057W        W 5482  26.077  13.609  10.584
33058W        W 5483  17.265  14.755  11.088
33059W        W 5484  21.290  26.082   0.404
33060W        W 5485   7.374  29.586   4.745
33061W        W 5486   5.805  20.153  14.382
33062W        W 5487  22.674  13.170   3.696
33063W        W 5488   6.760  42.415  14.712
33064W        W 5489  16.066  42.709   4.260
33065W        W 5490  15.020  43.846   1.973
33066W        W 5491  44.526   9.584   3.145
33067W        W 5492   0.868   0.561  12.025
33068W        W 5493   6.135  14.569  14.237
33069W        W 5494  26.213  40.010  11.114
33070W        W 5495  27.503  35.843   2.795
33071W        W 5496  17.047  27.603  11.087
33072W        W 5497  32.538  21.665  13.871
33073W        W 5498  40.271  40.735   0.042
33074W        W 5499  24.659  32.954   2.346
33075W        W 5500   4.352  43.443  12.399
33076W        W 5501  10.200  16.872   3.287
33077W        W 5502  31.387  43.556  14.842
33078W        W 5503  13.300  26.954  13.902
33079W        W 5504   3.937  29.359  11.137
33080W        W 5505   8.315  39.448  12.438
33081W        W 5506  21.274  42.240   0.895
33082W        W 5507   7.056  22.457  14.932
33083W        W 5508  42.433  16.262   4.142
33084W        W 5509  36.629  30.816  11.201
33085W        W 5510   0.418  29.746   3.084
33086W        W 5511   1.238  41.854  12.544
33087W        W 5512   4.560   4.188   4.170
33088W        W 5513  10.610  10.418   4.330
33089W        W 5514  30.078   8.125   4.669
33090W        W 5515  34.381  10.762   1.938
33091W        W 5516  23.940  26.699   2.832
33092W        W 5517   0.315   2.533  11.390
33093W        W 5518  22.142   5.018  12.557
33094W        W 5519  40.761  13.361  10.790
33095W        W 5520  42.762  17.431   2.389
33096W        W 5521  44.863  29.913  14.905
33097W        W 5522  13.076  39.336   1.407
33098W        W 5523  23.230  12.325  14.359
33099W        W 5524  39.256  41.431  10.484
33100W        W 5525   7.682  24.462   3.911
33101W        W 5526  33.255  44.480   4.289
33102W        W 5527   0.845  35.769   4.479
33103W        W 5528  26.679  41.469  11.604
33104W        W 5529  32.914  29.401   2.836
33105W        W 5530   7.947  34.168  11.163
33106W        W 5531  21.415   9.930   2.768
33107W        W 5532  13.176   7.360  10.666
33108W        W 5533  17.776  11.235   1.883
33109W        W 5534  36.394   9.864   9.770
33110W        W 5535  32.091  40.040   2.299
33111W        W 5536  32.416  35.374   2.243
33112W        W 5537  43.609  26.118  10.838
33113W        W 5538  12.720  16.835  14.002
33114W        W 5539  43.118  36.784  12.218
33115W        W 5540   5.860   0.878  11.497
33116W        W 5541  43.216   2.570  10.576
33117W        W 5542  36.416  24.085   3.810
33118W        W 5543   5.770  41.988  12.576
33119W        W 5544  38.837  35.866  14.427
33120W        W 5545  31.086  17.582   4.095
33121W        W 5546  25.588  19.737   4.105
33122W        W 5547  36.899  36.928   4.844
33123W        W 5548  44.508   1.383  11.673
33124W        W 5549  19.762  18.935   3.238
33125W        W 5550   4.477  33.659   4.122
33126W        W 5551  12.812  39.296   0.968
33127W        W 5552  40.104  18.688   3.673
33128W        W 5553  34.000   9.802  10.634
33129W        W 5554  27.398  42.581   3.606
33130W        W 5555   5.958  18.213   4.242
33131W        W 5556  13.741  21.220   4.472
33132W        W 5557  17.002  42.901   2.013
33133W        W 5558  23.635  37.724  13.622
33134W        W 5559  23.147  10.771  14.455
33135W        W 5560  12.695  17.694  12.979
33136W        W 5561   1.523  36.129   1.870
33137W        W 5562  15.826  42.034   3.650
33138W        W 5563   0.175   6.267   0.335
33139W        W 5564  13.917   3.458  10.594
33140W        W 5565  37.555  42.774  12.808
33141W        W 5566  18.030   2.340  10.882
33142W        W 5567   2.463  30.101   3.608
33143W        W 5568  25.517  44.872   0.534
33144W        W 5569  11.388  27.666   4.868
33145W        W 5570   2.891  10.207  13.442
33146W        W 5571  44.770   0.903  14.977
33147W        W 5572  20.941   6.905  10.991
33148W        W 5573  42.880   6.275  14.272
33149W        W 5574  16.174  38.034  10.362
33150W        W 5575   8.878  11.386  12.386
33151W        W 5576  24.980  20.530   4.372
33152W        W 5577  20.753  10.827   3.548
33153W        W 5578  27.590   0.270  10.906
33154W        W 5579  21.728  24.831   1.419
33155W        W 5580  32.386  41.940   1.350
33156W        W 5581  42.676  24.795  11.870
33157W        W 5582  17.129  23.204  12.831
33158W        W 5583   5.702  27.425   2.109
33159W        W 5584  42.685  11.767   3.590
33160W        W 5585  20.722  18.635  12.962
33161W        W 5586   9.873  23.882   2.625
33162W        W 5587  40.750   7.931  13.429
33163W        W 5588  39.875   3.146  14.296
33164W        W 5589  10.210  26.193  10.501
33165W        W 5590  41.636  43.892   1.620
33166W        W 5591   7.363  40.225  14.908
33167W        W 5592  11.554  17.671  13.534
33168W        W 5593  31.016   1.397   0.337
33169W        W 5594  40.029  29.125  11.183
33170W        W 5595   7.352  23.481   0.038
33171W        W 5596  24.856   1.166  14.898
33172W        W 5597  32.642  34.214  11.031
33173W        W 5598  13.312  24.120   4.643
33174W        W 5599  39.809  23.130   3.367
33175W        W 5600  41.353  32.987   2.334
33176W        W 5601   3.488  35.791   1.937
33177W        W 5602  22.096   4.701   1.409
33178W        W 5603  23.749  17.587   2.386
33179W        W 5604  29.172  11.299   3.561
33180W        W 5605   2.165   1.554   4.110
33181W        W 5606  37.391   2.382  13.349
33182W        W 5607  15.254  26.716   3.320
33183W        W 5608   4.967   2.756   4.720
33184W        W 5609  23.668  39.794  12.380
33185W        W 5610  27.233  16.425  11.662
33186W        W 5611  17.287  38.064   2.751
33187W        W 5612  31.450  26.154   2.938
33188W        W 5613  34.879  17.684  13.813
33189W        W 5614   8.721  13.707   3.578
33190W        W 5615  24.072  41.284  12.890
33191W        W 5616   5.195  31.062  14.794
33192W        W 5617  25.973  29.482   3.848
33193W        W 5618  33.379   7.702  11.691
33194W        W 5619  31.007  20.202  11.326
33195W        W 5620   6.181  23.493   3.714
33196W        W 5621  22.456  25.753   0.083
33197W        W 5622  33.594  30.198  11.597
33198W        W 5623  40.324  30.692   0.215
33199W        W 5624  14.199  11.720   2.719
33200W        W 5625  25.143  26.830   2.335
33201W        W 5626  42.196  24.268   5.000
33202W        W 5627  19.791   3.183  13.864
33203W        W 5628   5.475   5.273   0.731
33204W        W 5629  24.163   9.198   3.712
33205W        W 5630  27.565  21.457   5.691
33206W        W 5631  42.059  28.764   1.826
33207W        W 5632  39.439  26.414  14.399
33208W        W 5633   6.099  14.800  10.991
33209W        W 5634  18.526  28.623   1.754
33210W        W 5635  15.696  17.189  14.825
33211W        W 5636  20.698  16.163  11.274
33212W        W 5637  36.324  13.706  11.292
33213W        W 5638  28.702  30.642  13.044
33214W        W 5639  35.110  16.156  12.048
33215W        W 5640  14.195  42.496  13.050
33216W        W 5641   7.196   4.621  14.452
33217W        W 5642  39.140  17.069   3.697
33218W        W 5643   2.348  15.320   9.978
33219W        W 5644  29.481  30.910  14.050
33220W        W 5645  42.872   9.200  12.129
33221W        W 5646  36.412   3.222   1.876
33222W        W 5647  10.306  26.928   0.833
33223W        W 5648   7.218  19.883  14.287
33224W        W 5649  31.391   1.832  14.752
33225W        W 5650  28.922  27.754   4.008
33226W        W 5651  13.607   2.037  13.816
33227W        W 5652   6.845  44.342   4.893
33228W        W 5653  21.097  23.804   2.493
33229W        W 5654   2.222   8.359  14.834
33230W        W 5655  25.603  36.131   2.646
33231W        W 5656  35.432  37.083   4.940
33232W        W 5657  44.966  39.498   0.926
33233W        W 5658  17.231  44.926  14.706
33234W        W 5659  21.537  39.545   0.747
33235W        W 5660  31.576  39.591  14.406
33236W        W 5661  17.283  32.125  14.039
33237W        W 5662   8.505  33.500   0.329
33238W        W 5663  39.273  43.863  10.363
33239W        W 5664  18.592   1.300  12.473
33240W        W 5665  33.082  25.199  12.179
33241W        W 5666  40.118  13.537  11.055
33242W        W 5667  23.158   6.669  14.897
33243W        W 5668  20.631  37.669  12.147
33244W        W 5669  30.446  27.185   4.894
33245W        W 5670  14.035  35.149  13.136
33246W        W 5671  16.224  21.704  14.226
33247W        W 5672  35.936  18.653  13.397
33248W        W 5673  28.928  15.211   0.402
33249W        W 5674   7.965  26.086  11.817
33250W        W 5675  13.611  25.584  10.616
33251W        W 5676  33.343  28.176   3.817
33252W        W 5677  33.289  26.106   3.308
33253W        W 5678  14.904  32.106  10.419
33254W        W 5679  25.195  15.237  13.403
33255W        W 5680  35.504  27.022  14.753
33256W        W 5681  21.860  29.942   2.929
33257W        W 5682  35.357  28.013  12.120
33258W        W 5683  28.848  28.622  14.393
33259W        W 5684   6.398  33.427  11.663
33260W        W 5685  19.098   9.319   0.004
33261W        W 5686  40.812  11.228   1.692
33262W        W 5687  24.451  19.650  12.398
33263W        W 5688  37.560  27.030   4.331
33264W        W 5689  38.767  26.469   1.433
33265W        W 5690   8.256  26.985  14.482
33266W        W 5691   6.119  30.465  14.762
33267W        W 5692  11.720  38.357  13.917
33268W        W 5693  34.433  15.280  14.946
33269W        W 5694  41.592  44.820  13.002
33270W        W 5695  35.496   4.490   2.875
33271W        W 5696  32.354  16.739  14.165
33272W        W 5697   9.246   9.376   1.819
33273W        W 5698  19.178  28.749  12.433
33274W        W 5699  13.096  10.041  11.089
33275W        W 5700   1.953  21.486  14.980
33276W        W 5701  12.532  43.221   2.479
33277W        W 5702  10.856  43.758  14.971
33278W        W 5703  33.694  18.131  11.492
33279W        W 5704  25.642  15.567  10.359
33280W        W 5705   5.324  16.283  10.739
33281W        W 5706  38.783  18.307   2.713
33282W        W 5707   1.806  31.603  11.843
33283W        W 5708  16.326  39.904  13.801
33284W        W 5709  33.369  13.606   4.820
33285W        W 5710  23.477  10.367   4.195
33286W        W 5711  43.953  42.703  14.277
33287W        W 5712  34.944  41.547   0.795
33288W        W 5713  12.122  40.424  11.819
33289W        W 5714  12.584   4.505  13.360
33290W        W 5715   0.904   5.157   4.197
33291W        W 5716   0.468  25.784   3.339
33292W        W 5717  23.322  40.932  12.908
33293W        W 5718  17.798  38.085   1.853
33294W        W 5719  24.698  14.846   1.678
33295W        W 5720  24.043  19.752  12.656
33296W        W 5721  21.722  18.638  11.633
33297W        W 5722  44.303   0.488  14.595
33298W        W 5723   3.815  11.764  12.981
33299W        W 5724  30.099  29.157   4.646
33300W        W 5725  40.360   0.796   0.032
33301W        W 5726  16.743  20.485   1.022
33302W        W 5727  41.348  24.742   3.046
33303W        W 5728  37.793  31.974  11.663
33304W        W 5729   6.432   6.719   4.216
33305W        W 5730   2.761  16.970  14.440
33306W        W 5731  18.820  14.728  11.514
33307W        W 5732  33.337  37.809  12.114
33308W        W 5733  32.491  30.153   2.417
33309W        W 5734  36.257  29.542  11.590
33310W        W 5735  30.289  40.682  14.485
33311W        W 5736  12.046  37.303   2.097
33312W        W 5737  18.313  32.710  13.814
33313W        W 5738   9.134   6.486  12.001
33314W        W 5739   3.808   3.081   1.851
33315W        W 5740  25.039  28.097   0.262
33316W        W 5741  25.669  24.014   0.017
33317W        W 5742  16.499  32.006   1.385
33318W        W 5743  25.207   0.450   0.332
33319W        W 5744  39.592   8.801  11.048
33320W        W 5745  44.026  26.090   3.814
33321W        W 5746  14.403  26.751   2.798
33322W        W 5747  16.539  11.736  13.086
33323W        W 5748  36.036  13.203  14.896
33324W        W 5749  38.505  20.927   1.992
33325W        W 5750  12.734  15.746   1.491
33326W        W 5751  22.318  32.088   9.929
33327W        W 5752   1.330  43.265  14.179
33328W        W 5753  16.260  39.492   1.318
33329W        W 5754  33.685  33.320   1.760
33330W        W 5755   8.594  43.371   2.735
33331W        W 5756  17.537  33.946   0.969
33332W        W 5757  14.102  40.325   4.157
33333W        W 5758  36.627  34.407  10.664
33334W        W 5759  34.654   8.618  13.516
33335W        W 5760  25.640   1.392  12.610
33336W        W 5761  36.559  38.079  11.014
33337W        W 5762   4.949  17.087   1.717
33338W        W 5763  35.074  43.457  11.578
33339W        W 5764  38.428   7.813   2.192
33340W        W 5765   0.961  32.719  14.039
33341W        W 5766  22.854   0.522   2.134
33342W        W 5767  34.359  15.454   3.114
33343W        W 5768  44.445  12.460  13.151
33344W        W 5769  34.052  37.246   3.263
33345W        W 5770   1.372  30.245   2.241
33346W        W 5771   3.664  33.149   1.309
33347W        W 5772   1.818  32.581  12.831
33348W        W 5773  19.155  40.584   3.690
33349W        W 5774  32.961  21.354   5.206
33350W        W 5775  20.575  17.885   4.712
33351W        W 5776  11.415  19.148   3.790
33352W        W 5777  20.743  35.841   1.077
33353W        W 5778  35.286  27.435  13.008
33354W        W 5779  38.889  33.856   1.251
33355W        W 5780  43.023   5.122   1.651
33356W        W 5781  14.761  28.186   0.866
33357W        W 5782  41.794  19.089  13.363
33358W        W 5783  27.613   5.699  12.349
33359W        W 5784  23.505  24.738  13.391
33360W        W 5785  16.575  31.935  11.387
33361W        W 5786  22.490   7.711   2.713
33362W        W 5787  37.285   5.750   4.621
33363W        W 5788  37.326  25.528   3.171
33364W        W 5789  17.595  28.562  11.567
33365W        W 5790  23.291  21.029   4.924
33366W        W 5791  21.417  37.311  14.751
33367W        W 5792  15.765  43.690  14.907
33368W        W 5793   9.261  18.665   0.376
33369W        W 5794  38.237  31.730   4.624
33370W        W 5795  14.746  38.817   1.851
33371W        W 5796  18.028   4.347  14.787
33372W        W 5797  17.901  32.185  11.487
33373W        W 5798  34.305  16.127  13.424
33374W        W 5799  40.034  43.565   0.269
33375W        W 5800   8.647  16.713   4.416
33376W        W 5801  43.921   9.415  11.433
33377W        W 5802  30.579  23.105   0.924
33378W        W 5803  28.590  30.477   3.056
33379W        W 5804  32.421  13.826   1.843
33380W        W 5805   0.601  18.381  11.159
33381W        W 5806  21.595  13.809   0.965
33382W        W 5807  27.225  13.337   0.379
33383W        W 5808  42.951  21.689  13.577
33384W        W 5809  31.015  20.218  11.848
33385W        W 5810  17.863  18.523  12.549
33386W        W 5811  10.162   6.682   1.341
33387W        W 5812  15.663   0.304  13.753
33388W        W 5813  29.881   8.189   0.380
33389W        W 5814   2.692   1.816  12.002
33390W        W 5815  14.521   6.362  12.510
33391W        W 5816  40.774  15.819   0.160
33392W        W 5817  34.923  17.293   2.155
33393W        W 5818  41.035  23.826   4.463
33394W        W 5819  28.099  12.485  10.686
33395W        W 5820  16.649  39.074   3.286
33396W        W 5821  36.070   3.410  12.444
33397W        W 5822  43.510  11.834   0.899
33398W        W 5823   6.314  20.388   4.249
33399W        W 5824   5.652  30.378   1.308
33400W        W 5825   0.875  26.056   0.976
33401W        W 5826  14.705  22.795  12.851
33402W        W 5827  36.801  40.832  14.399
33403W        W 5828   7.714  17.739   4.498
33404W        W 5829  20.936  43.371  14.474
33405W        W 5830  28.946   1.299  12.576
33406W        W 5831  27.467  40.021   5.086
33407W        W 5832  36.030  42.528   2.253
33408W        W 5833  34.016  28.599   0.163
33409W        W 5834   7.400  32.051  10.530
33410W        W 5835  18.600  32.325   4.983
33411W        W 5836  29.547  40.113  14.434
33412W        W 5837  35.399  21.186   2.851
33413W        W 5838  22.159  26.907   2.713
33414W        W 5839  38.274  37.256   1.852
33415W        W 5840   9.389   6.923  11.828
33416W        W 5841  42.670  19.787  11.317
33417W        W 5842  44.057  14.691  14.808
33418W        W 5843  16.782  27.410  13.835
33419W        W 5844  12.179  33.125   4.113
33420W        W 5845  44.964  35.952   3.756
33421W        W 5846  16.966  30.029   0.749
33422W        W 5847  16.137  31.167  13.422
33423W        W 5848   8.837   1.847   2.802
33424W        W 5849  20.572  19.336  11.660
33425W        W 5850   8.202  18.556   0.008
33426W        W 5851  36.840  33.152   3.139
33427W        W 5852   4.752  41.948   0.496
33428W        W 5853  11.980  14.613   0.256
33429W        W 5854  35.480  28.128   4.496
33430W        W 5855  16.089  10.622   3.908
33431W        W 5856  10.711  11.989  11.563
33432W        W 5857  22.661   8.453  11.946
33433W        W 5858  14.576  26.675  12.408
33434W        W 5859  32.486   8.717  13.771
33435W        W 5860  42.974   1.352  14.695
33436W        W 5861  36.404  20.780  12.510
33437W        W 5862  40.427   1.215   0.958
33438W        W 5863  19.518  34.644   3.913
33439W        W 5864  13.580  27.659   3.307
33440W        W 5865  39.477  37.329  11.918
33441W        W 5866  14.240  32.639   4.992
33442W        W 5867  24.229  13.306   2.321
33443W        W 5868  34.965  27.187   3.249
33444W        W 5869  30.004  25.451  10.902
33445W        W 5870  44.889   8.165   1.942
33446W        W 5871  14.438  41.336  11.687
33447W        W 5872  33.056  33.195  12.007
33448W        W 5873  16.927  34.290   5.461
33449W        W 5874  36.991  43.348   1.394
33450W        W 5875  26.597  23.565  14.160
33451W        W 5876  11.392  37.334  10.486
33452W        W 5877  29.525  39.802   0.969
33453W        W 5878  20.689  38.360  10.568
33454W        W 5879   6.816  40.610   3.646
33455W        W 5880  33.016  17.245  13.067
33456W        W 5881  23.369  31.942  12.365
33457W        W 5882  22.336  42.422  14.933
33458W        W 5883  14.323   3.154  10.551
33459W        W 5884   7.273  28.893  11.531
33460W        W 5885  43.878  42.585   0.537
33461W        W 5886  11.230  33.457  11.231
33462W        W 5887  21.621   1.649   0.787
33463W        W 5888  31.368  30.024   4.425
33464W        W 5889   9.711  38.391  14.706
33465W        W 5890  12.762  36.487  11.728
33466W        W 5891  14.100  43.772  14.229
33467W        W 5892  16.613   1.213   4.513
33468W        W 5893   4.389  17.480  10.674
33469W        W 5894   5.154  30.278   3.236
33470W        W 5895  13.725  33.706   3.118
33471W        W 5896  39.058  17.190   3.169
33472W        W 5897   0.475  34.681  12.826
33473W        W 5898  38.087  19.090  11.681
33474W        W 5899  23.941   2.735   2.797
33475W        W 5900   9.828  25.893  12.706
33476W        W 5901  38.885   9.905  14.403
33477W        W 5902  43.923  34.449   3.977
33478W        W 5903  25.038   5.248  14.094
33479W        W 5904  39.015  37.407   1.244
33480W        W 5905   5.088   9.412   0.955
33481W        W 5906  11.839   7.991  12.009
33482W        W 5907  13.060  34.037   3.129
33483W        W 5908  21.309  30.437   1.167
33484W        W 5909  42.568  15.022  11.610
33485W        W 5910   4.448  24.653   2.353
33486W        W 5911  28.681  14.759   3.904
33487W        W 5912  23.804  20.177   1.808
33488W        W 5913  36.342   7.284   1.216
33489W        W 5914  39.579  40.757   1.287
33490W        W 5915  32.891  28.971  12.934
33491W        W 5916  10.898  23.065  12.516
33492W        W 5917  22.077  10.378   1.450
33493W        W 5918  27.026  32.702   0.810
33494W        W 5919  24.996   0.698   1.000
33495W        W 5920  27.735  24.127   3.250
33496W        W 5921   2.702  39.521  11.096
33497W        W 5922  28.722  23.133   1.535
33498W        W 5923  25.530  36.505  10.809
33499W        W 5924  20.140  14.424  10.700
33500W        W 5925   9.463  14.154   4.100
33501W        W 5926  20.971  18.820  11.214
33502W        W 5927  12.680  11.831  13.575
33503W        W 5928   0.975  24.187   3.916
33504W        W 5929  38.026  18.271   1.422
33505W        W 5930  40.814  25.181   0.598
33506W        W 5931  40.599   4.632  14.749
33507W        W 5932  32.089  41.541  10.625
33508W        W 5933  27.632  41.851   3.232
33509W        W 5934  11.230  21.840   0.953
33510W        W 5935  16.703   0.254  13.395
33511W        W 5936  34.092   6.405   4.134
33512W        W 5937  24.030  25.171   0.340
33513W        W 5938  25.575  44.954  13.136
33514W        W 5939   3.454  23.786  12.093
33515W        W 5940  41.948   0.980   4.958
33516W        W 5941  10.803   6.421   0.876
33517W        W 5942  13.615  40.305   3.236
33518W        W 5943  27.983  39.664  10.084
33519W        W 5944  31.561  27.261  14.250
33520W        W 5945  34.408  27.541  14.432
33521W        W 5946  15.135  24.832   0.159
33522W        W 5947  36.863   5.863  10.657
33523W        W 5948  22.814  10.795  12.414
33524W        W 5949   4.416  15.495   0.371
33525W        W 5950  44.223  41.896   3.395
33526W        W 5951   2.846   7.798   3.219
33527W        W 5952  32.690  20.999   3.279
33528W        W 5953  37.335   5.788  11.641
33529W        W 5954  16.802  39.564   4.187
33530W        W 5955   1.752  32.499  11.330
33531W        W 5956  24.447  40.469   3.332
33532W        W 5957   3.771  34.641  12.019
33533W        W 5958  10.793  17.099   4.455
33534W        W 5959   3.678   9.390   0.866
33535W        W 5960  30.628   9.501   1.731
33536W        W 5961  43.757   6.900   3.136
33537W        W 5962  27.835  35.575  11.585
33538W        W 5963  35.624  33.919   3.414
33539W        W 5964   0.523  22.180   0.045
33540W        W 5965  25.591  13.057   3.359
33541W        W 5966  37.800  31.489   3.177
33542W        W 5967  36.549  16.199  13.547
33543W        W 5968  25.646  25.110   1.466
33544W        W 5969  35.804  33.333  12.041
33545W        W 5970  10.630  32.235   1.265
33546W        W 5971  19.314  44.488  10.123
33547W        W 5972  12.648  30.792  11.510
33548W        W 5973   6.892  26.730   0.352
33549W        W 5974  21.529  15.199   2.843
33550W        W 5975   4.507  38.713   3.595
33551W        W 5976   3.184  19.646   1.213
33552W        W 5977  22.328  32.097  12.412
33553W        W 5978  15.212  20.188   4.909
33554W        W 5979  18.710  38.770  14.709
33555W        W 5980  30.547  25.591   4.648
33556W        W 5981  41.374  20.267   0.637
33557W        W 5982   9.224  15.422  11.206
33558W        W 5983  27.220  41.797   1.199
33559W        W 5984  12.619  16.711  11.814
33560W        W 5985  41.035  24.963  13.582
33561W        W 5986  28.706  36.503  14.201
33562W        W 5987  16.292   2.255   3.834
33563W        W 5988  19.687   2.370  10.518
33564W        W 5989  40.862  24.779   4.054
33565W        W 5990  43.026  18.767   1.768
33566W        W 5991  37.415  12.764   0.173
33567W        W 5992   2.435  21.016  11.059
33568W        W 5993   4.213  33.744   4.556
33569W        W 5994   5.336  32.548  12.497
33570W        W 5995  29.691  17.045  14.402
33571W        W 5996  37.487   4.099   1.038
33572W        W 5997  28.525  40.944   9.796
33573W        W 5998  25.199  38.004   1.968
33574W        W 5999  11.680  35.462   3.233
33575W        W 6000  36.059  15.713   0.197
33576W        W 6001  33.648  42.474   2.429
33577W        W 6002   3.343   0.619   0.194
33578W        W 6003  35.928  32.002  13.044
33579W        W 6004  22.978  27.513   3.297
33580W        W 6005  24.732  29.969  13.398
33581W        W 6006  42.496  43.235  11.502
33582W        W 6007  26.474  16.185  13.539
33583W        W 6008   0.423   2.947  14.732
33584W        W 6009  43.662  31.603   2.738
33585W        W 6010  15.671   8.729   1.052
33586W        W 6011  29.123  42.955  12.034
33587W        W 6012  33.644  42.329   0.587
33588W        W 6013  18.953   1.945  13.095
33589W        W 6014  17.779  36.187  11.853
33590W        W 6015  43.315   4.209   2.683
33591W        W 6016  42.969  25.145  13.945
33592W        W 6017  29.042  30.912  11.248
33593W        W 6018  15.053  28.119   3.103
33594W        W 6019  32.413  14.169  11.623
33595W        W 6020  21.451  31.056  12.625
33596W        W 6021  22.263  41.476   2.305
33597W        W 6022  10.579  19.758  13.083
33598W        W 6023  24.037   4.581   4.560
33599W        W 6024  17.215  32.492   1.965
33600W        W 6025  43.350   0.705   4.340
33601W        W 6026  25.918   8.525   4.066
33602W        W 6027  44.432  14.638   4.209
33603W        W 6028  21.076  24.315   0.760
33604W        W 6029  16.775  41.429  13.482
33605W        W 6030  16.774  38.851   4.563
33606W        W 6031  31.695  19.878  12.143
33607W        W 6032  36.509  38.514  14.368
33608W        W 6033  20.166  20.051  12.056
33609W        W 6034  28.350   5.839   0.960
33610W        W 6035   7.639  24.753   1.799
33611W        W 6036  20.713  40.516  11.888
33612W        W 6037  39.099  36.597  14.859
33613W        W 6038  44.016  16.370   2.248
33614W        W 6039  34.213   3.045   5.085
33615W        W 6040  14.821  41.556  12.443
33616W        W 6041  20.120  39.547   3.458
33617W        W 6042  29.447   2.826   4.376
33618W        W 6043  19.546  26.462  11.009
33619W        W 6044  27.672  12.332   4.871
33620W        W 6045  36.568  23.714  14.364
33621W        W 6046   1.040  14.611   2.147
33622W        W 6047  11.354  23.684   0.165
33623W        W 6048  19.676  12.345  10.923
33624W        W 6049   7.878  16.220  14.462
33625W        W 6050  17.221  40.443  10.930
33626W        W 6051   4.921  15.208  10.813
33627W        W 6052   1.874  24.772   4.837
33628W        W 6053   0.705  10.576   4.082
33629W        W 6054  24.701  32.402  12.342
33630W        W 6055  33.524  40.313  12.875
33631W        W 6056  11.792  14.516  13.013
33632W        W 6057  10.109  35.511  11.150
33633W        W 6058  10.701  43.086   0.569
33634W        W 6059  23.498   5.822  12.070
33635W        W 6060  38.019   7.242   5.051
33636W        W 6061  44.487  26.904   1.582
33637W        W 6062  11.361   4.342  14.639
33638W        W 6063  34.532  43.015   1.312
33639W        W 6064  22.940  29.001  11.614
33640W        W 6065  21.076   6.178  13.940
33641W        W 6066  24.029  43.769  13.068
33642W        W 6067  11.135   7.421  11.910
33643W        W 6068  24.088   3.445   0.565
33644W        W 6069  36.868  25.699   2.864
33645W        W 6070  30.401  26.560   3.211
33646W        W 6071  14.353  42.905  10.861
33647W        W 6072   8.837  18.668  13.538
33648W        W 6073  17.938  43.736   4.401
33649W        W 6074  21.662   2.678   1.702
33650W        W 6075  40.991   8.630   4.848
33651W        W 6076   7.444  31.095  13.943
33652W        W 6077  37.367  18.268   0.557
33653W        W 6078  21.518   8.151   0.960
33654W        W 6079  24.574  22.435   3.707
33655W        W 6080  14.341  13.597  13.618
33656W        W 6081   3.780  14.716   3.502
33657W        W 6082  26.283  38.132   1.362
33658W        W 6083  28.080   1.952   3.116
33659W        W 6084   3.235  34.546   2.920
33660W        W 6085   3.782   5.629  11.094
33661W        W 6086  37.828  32.628   4.290
33662W        W 6087  27.676  12.329   2.836
33663W        W 6088  27.041   6.491   1.316
33664W        W 6089  24.228  14.658  10.808
33665W        W 6090  22.160  31.086  10.488
33666W        W 6091  11.309  18.185  11.398
33667W        W 6092   0.854  10.463   0.488
33668W        W 6093  17.307  14.612  10.193
33669W        W 6094  30.763  20.615  12.395
33670W        W 6095  17.163  21.890   1.046
33671W        W 6096  29.629  36.879   1.382
33672W        W 6097  22.797  17.173  12.047
33673W        W 6098  25.651   9.463   3.194
33674W        W 6099  44.038  30.370  11.121
33675W        W 6100  42.491  26.137   3.451
33676W        W 6101  27.975  28.778  14.275
33677W        W 6102  40.786   1.409   0.056
33678W        W 6103  15.306  36.532   3.731
33679W        W 6104   6.582  22.118   1.226
33680W        W 6105  42.125  25.627  14.357
33681W        W 6106   0.850  14.494   1.335
33682W        W 6107  44.252  11.490  12.873
33683W        W 6108  21.309   4.122  11.559
33684W        W 6109  33.128  13.052  13.085
33685W        W 6110  41.946  12.018  14.346
33686W        W 6111  42.358  10.933   0.998
33687W        W 6112  27.105   5.717   0.244
33688W        W 6113  31.254  30.084   0.248
33689W        W 6114  44.097  39.666  11.598
33690W        W 6115  34.833   6.232  11.128
33691W        W 6116  16.817  41.428  12.498
33692W        W 6117  38.022  16.217   0.807
33693W        W 6118   9.515  34.889  13.182
33694W        W 6119  39.283  41.337  13.407
33695W        W 6120  35.818  23.168   3.184
33696W        W 6121  11.054  30.922  10.774
33697W        W 6122  11.592  34.917   3.813
33698W        W 6123  15.894  38.833   5.086
33699W        W 6124  37.705   3.473  11.168
33700W        W 6125  23.860   8.068   3.650
33701W        W 6126  29.603  33.255   2.707
33702W        W 6127   3.187  36.355  12.920
33703W        W 6128  26.248  27.610  11.114
33704W        W 6129  44.484  36.970   1.835
33705W        W 6130  43.846  17.631  14.716
33706W        W 6131  12.609   8.395   2.742
33707W        W 6132  21.416  18.299   0.735
33708W        W 6133  10.817  44.030   4.083
33709W        W 6134  27.489  24.206  12.079
33710W        W 6135  34.869   5.142  14.809
33711W        W 6136  20.307  31.944  13.494
33712W        W 6137   2.695  21.105   4.629
33713W        W 6138  42.908   3.843  12.448
33714W        W 6139   5.931  28.850  10.301
33715W        W 6140  13.886   7.721   4.122
33716W        W 6141  43.574  43.788   3.262
33717W        W 6142  16.513  44.721  12.411
33718W        W 6143  44.092  10.324   2.683
33719W        W 6144   0.748   0.146   1.034
33720W        W 6145  43.404  29.735  12.904
33721W        W 6146   8.216  11.333  13.812
33722W        W 6147  26.826  23.234   4.953
33723W        W 6148   4.737  42.507  12.919
33724W        W 6149   6.273  34.959   1.232
33725W        W 6150   6.197  15.384  12.500
33726W        W 6151  18.825   7.825  12.084
33727W        W 6152  41.864  40.140   0.829
33728W        W 6153   9.737  33.443  11.232
33729W        W 6154  24.660  21.864   0.628
33730W        W 6155  35.316   7.826   5.013
33731W        W 6156  16.098  11.937  12.268
33732W        W 6157   1.215   8.078  12.796
33733W        W 6158   9.450   5.953  13.433
33734W        W 6159  36.847  33.155   1.284
33735W        W 6160  36.174   9.200   1.278
33736W        W 6161   8.794   0.500  12.123
33737W        W 6162  35.196  13.541   1.504
33738W        W 6163  16.642  40.455  13.022
33739W        W 6164  24.130  44.436   0.486
33740W        W 6165  15.583  27.756   5.153
33741W        W 6166   1.733  26.398   3.447
33742W        W 6167   0.971  26.996   4.114
33743W        W 6168  31.589   6.704   2.852
33744W        W 6169  44.733  18.536  14.110
33745W        W 6170  41.283   6.298  14.986
33746W        W 6171  24.576  27.101   4.576
33747W        W 6172  44.231  32.011  11.956
33748W        W 6173   2.301  15.879   4.094
33749W        W 6174   6.824  34.200  12.081
33750W        W 6175   7.682  22.462   4.988
33751W        W 6176   0.228  13.209  11.226
33752W        W 6177   4.250   4.964   4.805
33753W        W 6178  11.005  27.141  14.258
33754W        W 6179  33.599  43.702   0.346
33755W        W 6180   9.919  13.893   3.482
33756W        W 6181   9.162   4.936  10.714
33757W        W 6182  31.888  43.783  12.434
33758W        W 6183  16.515  17.132  12.900
33759W        W 6184   3.051  41.780   4.282
33760W        W 6185  13.085  19.041   4.236
33761W        W 6186   1.258  19.324  12.936
33762W        W 6187  13.625  37.282   3.641
33763W        W 6188  30.089  40.599   3.394
33764W        W 6189  29.203  29.914  11.013
33765W        W 6190   4.894  13.768   0.897
33766W        W 6191  15.445  16.139  11.233
33767W        W 6192  38.973  13.769   2.094
33768W        W 6193  38.897  27.840  14.720
33769W        W 6194  35.341  17.381   4.197
33770W        W 6195  17.241  18.676  11.244
33771W        W 6196  23.391  20.786  10.683
33772W        W 6197  29.346  34.491   3.722
33773W        W 6198  35.462   0.974   2.538
33774W        W 6199  16.632  39.347  14.906
33775W        W 6200   2.016  15.125   3.472
33776W        W 6201  19.731  26.460   2.676
33777W        W 6202  42.478  14.283   1.304
33778W        W 6203  18.490  34.680   5.162
33779W        W 6204  25.559   4.999  13.535
33780W        W 6205  24.995  30.429   4.921
33781W        W 6206  31.624   7.880   0.266
33782W        W 6207  26.204   6.892   1.166
33783W        W 6208  15.231  37.009   3.940
33784W        W 6209   1.479  36.552  12.593
33785W        W 6210  29.178  18.037  10.944
33786W        W 6211   3.935  44.081  13.475
33787W        W 6212  41.422  35.453  12.244
33788W        W 6213  37.081  44.739   3.873
33789W        W 6214   4.827  34.671  10.806
33790W        W 6215  38.079  33.085  13.589
33791W        W 6216  21.978   8.943   2.293
33792W        W 6217   1.224  18.165   1.355
33793W        W 6218  30.663  12.396  12.525
33794W        W 6219  38.822  26.251   2.290
33795W        W 6220  15.599  34.520   0.410
33796W        W 6221  37.812  34.514   4.648
33797W        W 6222  41.541  31.680  13.246
33798W        W 6223  38.977  14.380   3.502
33799W        W 6224   1.452  10.653   1.463
33800W        W 6225  26.189  28.430  12.499
33801W        W 6226  32.629  14.261  11.145
33802W        W 6227  39.322  42.624  13.771
33803W        W 6228  15.359   2.744   2.191
33804W        W 6229   0.723  15.095  12.034
33805W        W 6230  38.512   1.753   0.398
33806W        W 6231  40.371  27.416  14.415
33807W        W 6232   1.959  19.789  11.062
33808W        W 6233  21.544  34.747  11.180
33809W        W 6234   1.628  21.274  11.314
33810W        W 6235  16.833  27.512   2.454
33811W        W 6236  31.908  22.976   2.327
33812W        W 6237  32.447   1.675  11.977
33813W        W 6238  41.415  16.055  14.430
33814W        W 6239  29.713  16.205  12.968
33815W        W 6240  32.524  14.261  13.757
33816W        W 6241  11.138  23.625  14.100
33817W        W 6242  43.365  26.181  14.056
33818W        W 6243  43.175  22.039   1.206
33819W        W 6244  29.379  43.273  12.498
33820W        W 6245  23.089  29.352   3.114
33821W        W 6246  11.620  24.227  11.923
33822W        W 6247  39.978  20.903   5.038
33823W        W 6248  44.092  11.731  14.895
33824W        W 6249  12.582   9.711   2.270
33825W        W 6250  24.503  14.582   1.278
33826W        W 6251  28.898  28.925   1.699
33827W        W 6252   6.320  11.071   1.529
33828W        W 6253   7.754  34.870   4.473
33829W        W 6254  10.089  38.169  13.451
33830W        W 6255  16.589  14.758  13.177
33831W        W 6256  42.432  35.289   1.171
33832W        W 6257   3.213  15.666   1.632
33833W        W 6258  35.467   1.782   0.950
33834W        W 6259  38.717  44.356  14.490
33835W        W 6260  44.198  25.731  12.650
33836W        W 6261  28.174  41.066   2.374
33837W        W 6262  21.728  23.356  14.152
33838W        W 6263  12.263  13.183  14.408
33839W        W 6264  29.133  18.136   3.959
33840W        W 6265  34.537   8.626   0.985
33841W        W 6266   1.456  32.765  14.317
33842W        W 6267  27.655   5.130  14.886
33843W        W 6268  30.580  15.572   4.834
33844W        W 6269  16.785  39.408  11.553
33845W        W 6270   3.363  21.000   1.782
33846W        W 6271  10.241   2.410  14.239
33847W        W 6272  26.118  26.871   4.374
33848W        W 6273  27.945  12.198   1.453
33849W        W 6274  18.591  32.259  13.850
33850W        W 6275  22.726   1.013   2.378
33851W        W 6276  40.860   6.214   4.649
33852W        W 6277  28.201  36.420   0.262
33853W        W 6278   0.378  17.780  13.337
33854W        W 6279  32.965  18.741   3.720
33855W        W 6280   6.278  15.747   9.993
33856W        W 6281  10.673  42.555   0.426
33857W        W 6282   8.709  22.197   1.435
33858W        W 6283   0.165  28.501  13.466
33859W        W 6284  34.949  42.542   3.274
33860W        W 6285  33.317  14.837   1.395
33861W        W 6286  34.644  13.279  13.655
33862W        W 6287  44.598  14.792   2.758
33863W        W 6288  12.773  22.023   0.268
33864W        W 6289   1.020  10.402   3.691
33865W        W 6290  20.902  22.849   3.223
33866W        W 6291  44.831   5.963  14.529
33867W        W 6292  25.147  16.696   4.795
33868W        W 6293  21.456  26.670  13.177
33869W        W 6294  31.686  16.815  12.952
33870W        W 6295   1.595   9.707  11.592
33871W        W 6296  22.785  35.533  11.012
33872W        W 6297  44.487  14.702   0.455
33873W        W 6298   5.328  40.385   2.752
33874W        W 6299  16.786  39.008  11.890
33875W        W 6300  25.941  20.252  13.125
33876W        W 6301  38.451  28.148  10.311
33877W        W 6302  18.187  21.034   1.640
33878W        W 6303  42.327  20.783   3.632
33879W        W 6304  40.002  29.027  13.366
33880W        W 6305   9.910  40.042   4.612
33881W        W 6306   5.796  23.165   4.328
33882W        W 6307  28.411  25.651   3.746
33883W        W 6308  35.476  29.810  12.590
33884W        W 6309  23.650  43.220   0.849
33885W        W 6310  30.683  30.081  12.586
33886W        W 6311   2.785  26.565  11.501
33887W        W 6312  26.026  43.923  12.788
33888W        W 6313  44.504  12.753   1.321
33889W        W 6314   1.156   1.343  12.769
33890W        W 6315  42.533  43.486   1.677
33891W        W 6316  12.750  24.555  11.306
33892W        W 6317  31.009  37.817  11.621
33893W        W 6318  25.099  22.558   0.309
33894W        W 6319   2.672   8.956  11.369
33895W        W 6320   6.817  15.912   1.921
33896W        W 6321   1.857  21.989  13.232
33897W        W 6322  33.168  26.021  11.271
33898W        W 6323   1.295  14.279   0.463
33899W        W 6324  35.930  21.504  10.531
33900W        W 6325   2.841   7.813   4.645
33901W        W 6326   5.075  33.792   0.954
33902W        W 6327   3.646   7.790  11.687
33903W        W 6328  32.606   5.881   1.748
33904W        W 6329  42.909  35.246   2.019
33905W        W 6330  11.769   7.556  13.513
33906W        W 6331  23.457  34.908  14.969
33907W        W 6332  10.799  14.856  14.887
33908W        W 6333  30.086  42.504   3.068
33909W        W 6334  20.878  27.595  11.502
33910W        W 6335  32.927  11.835   4.469
33911W        W 6336  23.748  41.315  14.845
33912W        W 6337  41.906  23.487   4.933
33913W        W 6338   1.797  28.829   0.353
33914W        W 6339  17.981  26.006  13.142
33915W        W 6340  12.084  15.900  11.269
33916W        W 6341  14.216  31.045   3.490
33917W        W 6342  29.556  36.538   0.950
33918W        W 6343  11.423   1.156   1.336
33919W        W 6344  11.852  16.636   3.391
33920W        W 6345  42.676   2.316   4.603
33921W        W 6346  13.232  33.436   1.405
33922W        W 6347   6.124   5.374  11.852
33923W        W 6348  21.924   3.602   4.202
33924W        W 6349  29.039  31.320  10.917
33925W        W 6350   5.209  44.467  13.965
33926W        W 6351  41.503  32.943   3.673
33927W        W 6352  15.730  29.903  12.482
33928W        W 6353   1.206   5.852  10.695
33929W        W 6354   4.917  38.246  14.339
33930W        W 6355  26.264  33.584   2.827
33931W        W 6356  28.128  40.674  10.598
33932W        W 6357  26.644  22.571  13.990
33933W        W 6358  42.391  18.110  12.110
33934W        W 6359  43.000  14.325   1.227
33935W        W 6360  18.056   5.660  12.207
33936W        W 6361  15.354  39.513   0.163
33937W        W 6362  39.565  16.346   4.677
33938W        W 6363  40.359  15.690  14.863
33939W        W 6364  24.929   8.394  12.092
33940W        W 6365  14.335  17.935   1.578
33941W        W 6366   2.945  17.506   3.333
33942W        W 6367   7.007  37.792  10.895
33943W        W 6368  15.163  44.220   1.612
33944W        W 6369  41.092  36.951   3.689
33945W        W 6370  15.382  37.380   1.773
33946W        W 6371  12.638  19.104  10.612
33947W        W 6372  23.556  27.151  13.876
33948W        W 6373  27.153  24.554  10.899
33949W        W 6374   4.890  38.955   0.315
33950W        W 6375  21.182   9.606   3.630
33951W        W 6376  13.826  38.840  11.992
33952W        W 6377  25.486  11.639   0.892
33953W        W 6378  35.499  11.126   3.248
33954W        W 6379  27.516  25.920   4.435
33955W        W 6380  23.911  11.043  11.819
33956W        W 6381  35.451  29.622  13.617
33957W        W 6382   5.292  34.162  11.620
33958W        W 6383   8.243  22.493  13.266
33959W        W 6384  19.230   5.796  13.424
33960W        W 6385  40.961  42.592  13.585
33961W        W 6386  21.311   7.359   4.341
33962W        W 6387   2.249   2.864  12.086
33963W        W 6388  34.893  12.613  14.370
33964W        W 6389  18.660  12.354  11.721
33965W        W 6390   3.316  44.314  11.935
33966W        W 6391  36.561  40.933  11.416
33967W        W 6392  20.196  11.081  10.166
33968W        W 6393  44.020  38.982  13.313
33969W        W 6394  14.050  26.585   3.667
33970W        W 6395  13.339  11.234   4.840
33971W        W 6396   7.424  40.458   0.432
33972W        W 6397  33.339  20.208  14.763
33973W        W 6398   7.832  35.066   1.406
33974W        W 6399  21.987  27.395   2.694
33975W        W 6400  21.440  38.509  14.915
33976W        W 6401   6.792   8.921  13.051
33977W        W 6402  26.302  17.011  12.606
33978W        W 6403  33.629  28.428   2.335
33979W        W 6404  15.824  15.848  14.509
33980W        W 6405  14.182  34.092  11.163
33981W        W 6406  37.817  41.383  14.332
33982W        W 6407  35.165   1.463  11.204
33983W        W 6408  43.259  16.714   1.890
33984W        W 6409  10.723   7.444  12.459
33985W        W 6410  32.325  20.157   1.173
33986W        W 6411  12.497  42.907  11.194
33987W        W 6412  26.536  19.324   0.221
33988W        W 6413  32.979  25.044  11.671
33989W        W 6414  31.302  32.560  13.866
33990W        W 6415   3.223   6.338   1.713
33991W        W 6416  28.071  37.109   4.336
33992W        W 6417   6.854  13.146  10.710
33993W        W 6418  31.467  24.576  14.315
33994W        W 6419   7.518   4.467   2.406
33995W        W 6420  10.391   4.200  11.486
33996W        W 6421  24.952  24.131  13.905
33997W        W 6422   3.800  29.866  10.264
33998W        W 6423   5.314   0.347   2.924
33999W        W 6424   7.403  27.215   0.895
34000W        W 6425  17.053  28.041  13.012
34001W        W 6426  44.808  10.896  11.932
34002W        W 6427   3.172   9.586  13.852
34003W        W 6428  17.589   7.095   2.752
34004W        W 6429  15.619   5.198   1.889
34005W        W 6430   6.445  15.919   4.491
34006W        W 6431  18.297  42.024   0.855
34007W        W 6432   6.453  33.954  14.407
34008W        W 6433  21.457   7.274   2.821
34009W        W 6434  39.417  40.392   3.800
34010W        W 6435  24.737  39.416  11.215
34011W        W 6436  22.517  25.445   4.524
34012W        W 6437   7.338  21.460  11.443
34013W        W 6438  34.978  15.592  14.388
34014W        W 6439  21.401  37.487  11.059
34015W        W 6440  44.465  11.438   0.846
34016W        W 6441  18.576   6.890   1.905
34017W        W 6442  40.259   4.166  12.643
34018W        W 6443  18.840  39.462  10.887
34019W        W 6444   6.399  35.439  12.673
34020W        W 6445  14.756  38.389  14.563
34021W        W 6446  43.397  14.358   3.689
34022W        W 6447  25.504  14.908  12.941
34023W        W 6448  33.244  43.753   2.800
34024W        W 6449  32.705  39.871   3.143
34025W        W 6450  30.947   2.438  13.280
34026W        W 6451  12.710  13.243   4.364
34027W        W 6452   1.780  35.697   4.046
34028W        W 6453   2.795  38.996  11.712
34029W        W 6454   8.418  38.230   0.810
34030W        W 6455  34.873   4.300  12.863
34031W        W 6456  12.426  18.406  13.346
34032W        W 6457  25.437  29.019   0.283
34033W        W 6458   2.831  40.254   1.322
34034W        W 6459  10.812  31.111  11.985
34035W        W 6460  17.828  23.017  11.249
34036W        W 6461  42.042  43.544  10.637
34037W        W 6462  20.661  22.564   4.703
34038W        W 6463   7.898  16.667  13.241
34039W        W 6464   8.314   6.218   1.440
34040W        W 6465  29.982  24.710  14.474
34041W        W 6466  31.557  15.298   2.898
34042W        W 6467  19.875  11.951   2.799
34043W        W 6468  22.505  22.085   1.730
34044W        W 6469  29.108   1.181  13.056
34045W        W 6470  27.972  33.422  13.701
34046W        W 6471  42.750  39.767   2.345
34047W        W 6472  34.978  15.036  10.914
34048W        W 6473   7.103  35.095   1.929
34049W        W 6474  17.207  30.187  13.993
34050W        W 6475  29.920  38.791  14.322
34051W        W 6476  19.132  10.783   3.621
34052W        W 6477   5.669  11.403  12.113
34053W        W 6478  31.000  21.625   3.232
34054W        W 6479   0.741  21.453   3.351
34055W        W 6480  23.154  38.788   3.324
34056W        W 6481  34.163  20.939  10.264
34057W        W 6482  36.515  25.756  13.477
34058W        W 6483   9.686  44.925  10.702
34059W        W 6484   9.702  31.018  13.154
34060W        W 6485  26.433  17.210   2.399
34061W        W 6486   1.554  34.024   1.704
34062W        W 6487  30.499   9.404   3.797
34063W        W 6488  32.076  28.904  13.878
34064W        W 6489  16.210  44.219   1.295
34065W        W 6490  22.911  41.952   1.680
34066W        W 6491  37.558  37.014   1.058
34067W        W 6492  36.403   9.678   1.385
34068W        W 6493  15.414  19.812  14.287
34069W        W 6494   1.335  24.136  13.578
34070W        W 6495  12.775  21.251   3.315
34071W        W 6496  11.894  24.790   2.319
34072W        W 6497  29.902   5.865  14.872
34073W        W 6498  31.108  30.629   0.071
34074W        W 6499   6.919  20.542   1.284
34075W        W 6500  22.004  27.724   1.457
34076W        W 6501  14.513  28.998   4.208
34077W        W 6502  15.600  11.692  14.400
34078W        W 6503   5.423  12.584  14.132
34079W        W 6504  30.829  44.654  13.988
34080W        W 6505  22.444  41.255   3.734
34081W        W 6506  44.359  24.658  10.713
34082W        W 6507   2.295  40.786   2.828
34083W        W 6508  36.678   9.750  12.604
34084W        W 6509  34.754  40.516   4.592
34085W        W 6510  15.164  27.977  12.874
34086W        W 6511   8.446  31.683   2.149
34087W        W 6512  23.678  18.943  10.637
34088W        W 6513  27.393   0.476   0.460
34089W        W 6514  18.053   4.490  14.283
34090W        W 6515  21.308  22.736   1.106
34091W        W 6516  32.597  34.607   1.847
34092W        W 6517  44.262  27.587  13.240
34093W        W 6518  35.462  14.773   0.915
34094W        W 6519  40.071  43.427   3.562
34095W        W 6520  23.961  30.128  12.509
34096W        W 6521   0.277   2.731   4.394
34097W        W 6522  41.582  16.918  13.640
34098W        W 6523  39.749  33.320  13.872
34099W        W 6524  20.153  18.654  12.924
34100W        W 6525   2.136  10.233   4.928
34101W        W 6526  32.463  42.935  11.576
34102W        W 6527  33.596  31.498  12.383
34103W        W 6528  39.799   4.031   0.192
34104W        W 6529  18.660   7.137   0.318
34105W        W 6530  26.574  19.179   1.725
34106W        W 6531  10.679  38.443   0.028
34107W        W 6532  23.986  25.932   3.229
34108W        W 6533  29.572   9.421  12.075
34109W        W 6534  18.197  31.035   0.342
34110W        W 6535  24.681  28.508   0.234
34111W        W 6536  15.152  28.051  13.383
34112W        W 6537  15.603  31.631  12.122
34113W        W 6538  33.067   4.630   1.620
34114W        W 6539   6.983  19.996  13.782
34115W        W 6540  40.163  31.627   1.871
34116W        W 6541  33.419  20.648  13.990
34117W        W 6542  24.732  29.258   3.277
34118W        W 6543  24.986  32.595  11.449
34119W        W 6544  18.595  28.485   5.025
34120W        W 6545  15.852   5.322  12.543
34121W        W 6546  43.522  29.368   1.955
34122W        W 6547  27.036  29.934   4.231
34123W        W 6548  12.479  17.491   4.627
34124W        W 6549   5.423  26.394  11.033
34125W        W 6550  44.223  32.514   0.487
34126W        W 6551  30.279  27.512  12.032
34127W        W 6552  26.373  27.838   1.730
34128W        W 6553  29.265  39.229   4.597
34129W        W 6554  21.798  25.929   2.675
34130W        W 6555  10.763  18.447   0.958
34131W        W 6556  36.525   8.338  12.117
34132W        W 6557  17.356  26.194  10.771
34133W        W 6558  18.263  14.778  13.756
34134W        W 6559   2.862  11.769  11.518
34135W        W 6560   2.961  20.292   3.613
34136W        W 6561  36.093  43.391  14.328
34137W        W 6562  19.375  36.049   4.239
34138W        W 6563  10.824  17.025   3.145
34139W        W 6564  36.423   5.920  12.971
34140W        W 6565  38.762  44.960   3.168
34141W        W 6566  15.649  35.000   0.237
34142W        W 6567  24.208   6.936   2.267
34143W        W 6568   6.932  42.538  10.731
34144W        W 6569  32.387  34.553  10.755
34145W        W 6570  28.241  28.179   4.566
34146W        W 6571   7.148  14.176  14.838
34147W        W 6572  37.701   0.298   1.819
34148W        W 6573  13.599  15.615   0.971
34149W        W 6574   1.329  43.416   1.200
34150W        W 6575  39.470  29.795  14.008
34151W        W 6576   8.005  40.837  13.685
34152W        W 6577  19.417   5.335  13.573
34153W        W 6578  29.564  18.261  10.528
34154W        W 6579  16.143   4.573   0.763
34155W        W 6580  16.509   5.115   2.801
34156W        W 6581  16.936  32.419  11.442
34157W        W 6582  23.314  17.061  12.838
34158W        W 6583   9.388  31.450  13.087
34159W        W 6584  18.477  27.370   2.926
34160W        W 6585  18.823  29.605   0.707
34161W        W 6586  26.553  44.008  13.499
34162W        W 6587  37.716  42.501   4.702
34163W        W 6588   5.337  34.820   0.490
34164W        W 6589   6.415  28.667  10.686
34165W        W 6590  29.488   3.896  11.178
34166W        W 6591   4.697  17.172   4.849
34167W        W 6592   9.220  18.254  12.095
34168W        W 6593  14.002  33.108   5.118
34169W        W 6594  42.130  34.297   4.700
34170W        W 6595  17.036  18.567   0.749
34171W        W 6596  16.869  18.646   1.224
34172W        W 6597   3.352  30.690   4.011
34173W        W 6598   2.890  13.837   4.547
34174W        W 6599   4.762  39.765  14.945
34175W        W 6600   9.008  24.906  13.965
34176W        W 6601  21.964  17.086  14.934
34177W        W 6602  42.137  29.067   2.291
34178W        W 6603   9.603  12.282   0.856
34179W        W 6604  22.038  13.925  10.701
34180W        W 6605   6.964  39.949   1.362
34181W        W 6606  41.358  36.184  12.042
34182W        W 6607  40.752  25.666   4.440
34183W        W 6608   5.806  11.732  10.311
34184W        W 6609  22.540  12.538   1.451
34185W        W 6610  25.619  39.183  11.178
34186W        W 6611   8.269  41.483  14.733
34187W        W 6612  42.728   7.323  11.389
34188W        W 6613   4.634  40.561   1.240
34189W        W 6614  12.568   3.675  12.364
34190W        W 6615  19.682  13.039   2.193
34191W        W 6616  27.567  14.298  13.478
34192W        W 6617   8.272   3.330   2.323
34193W        W 6618  26.577  40.357   0.291
34194W        W 6619  40.509  12.811   1.350
34195W        W 6620  36.896  18.235   3.239
34196W        W 6621  38.653  35.670   3.222
34197W        W 6622  26.664  29.089   4.566
34198W        W 6623   8.691  36.627  11.126
34199W        W 6624   4.463  18.601   0.372
34200W        W 6625  21.389   0.720  14.868
34201W        W 6626  15.287  43.506  11.962
34202W        W 6627  17.598   9.174   1.959
34203W        W 6628  28.726  41.930  10.851
34204W        W 6629  13.361  36.864   3.824
34205W        W 6630   9.898  35.548  12.448
34206W        W 6631  22.627   6.266   4.601
34207W        W 6632  11.260  39.470   2.936
34208W        W 6633  35.227  19.786   2.808
34209W        W 6634   9.503  41.798   0.199
34210W        W 6635  36.614   8.293   2.126
34211W        W 6636  12.662   4.498   9.408
34212W        W 6637  26.194  29.430   0.157
34213W        W 6638  17.263  36.029  11.166
34214W        W 6639  27.431  13.228  14.376
34215W        W 6640  27.068  28.401   1.216
34216W        W 6641  37.952  41.794   1.929
34217W        W 6642  23.168  16.052  13.324
34218W        W 6643  39.778  24.641  14.628
34219W        W 6644  28.668  18.388  11.598
34220W        W 6645  33.690   0.781  12.956
34221W        W 6646  42.260  41.478  13.351
34222W        W 6647  42.569  37.606   1.739
34223W        W 6648  11.716  14.431   0.715
34224W        W 6649  18.593  16.447   1.807
34225W        W 6650  26.146  24.423   2.011
34226W        W 6651  38.788   0.719  13.477
34227W        W 6652  39.635  44.863   0.957
34228W        W 6653   5.254  30.391   4.900
34229W        W 6654  15.753   6.810  14.085
34230W        W 6655  13.544  43.293  11.187
34231W        W 6656   0.397  14.857  14.220
34232W        W 6657  24.016  38.001   0.219
34233W        W 6658  27.964   1.850  14.618
34234W        W 6659  42.255  11.674   2.157
34235W        W 6660   2.239  38.804  12.398
34236W        W 6661  26.930  26.439   4.034
34237W        W 6662  27.381   1.695   1.381
34238W        W 6663  32.555  42.995  11.061
34239W        W 6664  11.658  29.640   2.241
34240W        W 6665  38.434  20.970   1.046
34241W        W 6666  38.187   9.284  10.052
34242W        W 6667  20.647  20.754   4.815
34243W        W 6668  15.706  13.317  13.347
34244W        W 6669  15.206   8.825  13.490
34245W        W 6670  20.168  38.037  12.071
34246W        W 6671  12.947  31.199  12.144
34247W        W 6672  44.882  24.615  10.788
34248W        W 6673   8.167  33.118   2.791
34249W        W 6674  14.172  41.269   0.239
34250W        W 6675  41.267  44.584   3.281
34251W        W 6676  38.978  29.671   0.806
34252W        W 6677  33.177  28.612  11.127
34253W        W 6678  21.269  21.243  11.276
34254W        W 6679   9.053   8.145  12.143
34255W        W 6680   2.372  26.781   0.852
34256W        W 6681   3.430  36.513  14.146
34257W        W 6682  17.105   4.192   1.238
34258W        W 6683  30.127  35.446  11.996
34259W        W 6684  32.950  11.192  12.721
34260W        W 6685   2.399  14.365   2.194
34261W        W 6686  11.276   0.121  13.509
34262W        W 6687  43.137  37.400   2.846
34263W        W 6688  21.871  25.210   0.427
34264W        W 6689   0.551  24.105   0.849
34265W        W 6690  39.846  28.124   1.858
34266W        W 6691  30.494  26.445   2.341
34267W        W 6692   1.746   7.009   2.761
34268W        W 6693  39.817   5.969  14.412
34269W        W 6694  37.646  21.007  11.292
34270W        W 6695  32.677   6.733   1.773
34271W        W 6696  28.569  21.468   4.084
34272W        W 6697  18.260  20.743   0.307
34273W        W 6698  29.470  12.266  10.706
34274W        W 6699   8.608   3.175  14.723
34275W        W 6700  14.682  13.842   3.578
34276W        W 6701  10.539  34.362   1.621
34277W        W 6702  14.228  23.636  14.394
34278W        W 6703  44.195   0.539   0.993
34279W        W 6704   9.330   8.436   4.154
34280W        W 6705   5.179  26.192   3.595
34281W        W 6706  12.208  14.786  14.206
34282W        W 6707  36.413  41.839  14.490
34283W        W 6708  20.219   4.137   0.348
34284W        W 6709  36.362  14.562   2.481
34285W        W 6710  13.628  32.864   1.923
34286W        W 6711  23.722  13.344   4.341
34287W        W 6712  40.279  29.021  12.868
34288W        W 6713   7.219  14.907   4.115
34289W        W 6714  33.391   2.962  11.073
34290W        W 6715   8.089   4.383   4.595
34291W        W 6716  24.263  34.276  14.413
34292W        W 6717  33.493  23.897   3.392
34293W        W 6718  35.697  29.168  13.685
34294W        W 6719  17.836   9.369  11.388
34295W        W 6720  31.186   6.899  10.339
34296W        W 6721  16.101  13.796   4.036
34297W        W 6722  31.449  27.641   4.561
34298W        W 6723  20.655   0.531  14.322
34299W        W 6724  37.188  10.325   2.808
34300W        W 6725   9.850  12.016  14.893
34301W        W 6726  10.816  35.179  13.447
34302W        W 6727  22.943  22.281   2.793
34303W        W 6728   4.764  11.895   3.132
34304W        W 6729  18.740  37.026   2.958
34305W        W 6730  21.479  15.757  14.033
34306W        W 6731  43.448  24.713   1.266
34307W        W 6732  21.650  34.941   4.651
34308W        W 6733  14.037  33.484   5.466
34309W        W 6734  30.515  26.308  11.955
34310W        W 6735  41.795  39.449   2.812
34311W        W 6736  20.631  30.910   2.609
34312W        W 6737  28.871   5.406   1.328
34313W        W 6738  37.683  10.323  12.027
34314W        W 6739  25.029  11.288  12.972
34315W        W 6740   6.927  19.757  14.923
34316W        W 6741  35.730  30.043   1.778
34317W        W 6742  44.486  16.276  11.506
34318W        W 6743  37.531  10.858   0.806
34319W        W 6744  12.167  19.314   4.359
34320W        W 6745  26.193   8.239  13.920
34321W        W 6746   8.111  31.503   3.103
34322W        W 6747  26.555   0.329   1.016
34323W        W 6748   4.397  33.662   1.495
34324W        W 6749  12.342  43.589   4.151
34325W        W 6750  27.018  30.887  12.001
34326W        W 6751  32.799  33.732  13.414
34327W        W 6752   6.980  13.230  13.371
34328W        W 6753  34.125  41.048   2.712
34329W        W 6754  39.254  29.138  12.923
34330W        W 6755  29.418  32.884  12.470
34331W        W 6756  28.476  12.573  11.998
34332W        W 6757  13.229  37.778  14.426
34333W        W 6758   9.461  27.264  13.269
34334W        W 6759  39.526   5.112   0.161
34335W        W 6760  32.341  13.647  10.632
34336W        W 6761   1.233  31.721   1.344
34337W        W 6762  37.533  35.476  13.531
34338W        W 6763   5.629  25.192   2.663
34339W        W 6764  10.177  12.374  13.415
34340W        W 6765  44.104  40.838   4.660
34341W        W 6766  44.723  16.535  12.908
34342W        W 6767  13.097  44.309  12.530
34343W        W 6768  12.637  35.686   3.733
34344W        W 6769  14.092  41.849   1.547
34345W        W 6770  41.833  35.916  10.269
34346W        W 6771  44.957  32.160   4.129
34347W        W 6772  29.614  18.298   3.800
34348W        W 6773  38.816  35.874   1.778
34349W        W 6774  42.964  16.294  12.667
34350W        W 6775   2.273  19.655   4.550
34351W        W 6776  33.990  14.058  14.753
34352W        W 6777  13.824   4.196  12.980
34353W        W 6778  17.151  15.451   0.515
34354W        W 6779  17.089  20.797   2.313
34355W        W 6780  43.411  25.202   2.244
34356W        W 6781   6.699   6.307   4.068
34357W        W 6782  20.201  24.520  14.799
34358W        W 6783  40.538  39.370  12.903
34359W        W 6784   7.095  24.824  11.186
34360W        W 6785  22.059  43.209   0.374
34361W        W 6786  37.896  11.403   1.788
34362W        W 6787   5.418  40.034  11.577
34363W        W 6788  22.722  39.762  10.800
34364W        W 6789  42.076  26.891   2.948
34365W        W 6790  26.799  44.982  13.256
34366W        W 6791   4.662  12.556   4.639
34367W        W 6792  11.745  24.848   5.314
34368W        W 6793  16.572  15.918   2.633
34369W        W 6794  29.636   4.362   3.151
34370W        W 6795  14.793   3.013  13.289
34371W        W 6796  40.248   1.304   2.347
34372W        W 6797   1.272  26.706   3.661
34373W        W 6798  29.929  44.351   0.446
34374W        W 6799  23.848   5.318   2.334
34375W        W 6800  23.097  25.986  11.805
34376W        W 6801   9.859   9.933  10.396
34377W        W 6802  30.000   3.891  12.053
34378W        W 6803  26.230  20.748  12.523
34379W        W 6804  18.240  23.437   0.732
34380W        W 6805  26.986   2.064   2.782
34381W        W 6806   6.782  20.523  10.710
34382W        W 6807  39.201  43.478  12.462
34383W        W 6808   1.753  31.603   4.637
34384W        W 6809  21.535  14.292  11.911
34385W        W 6810  18.601  12.618  14.430
34386W        W 6811   3.971  22.005   1.225
34387W        W 6812  27.568   8.422   0.425
34388W        W 6813  33.673  24.437   9.993
34389W        W 6814  15.939  39.962   4.236
34390W        W 6815  43.751  17.751   2.491
34391W        W 6816  11.502   3.378   2.853
34392W        W 6817   8.005  41.755  10.576
34393W        W 6818  44.105  10.223  12.044
34394W        W 6819  31.952  38.963   4.194
34395W        W 6820  16.558  25.122  12.144
34396W        W 6821  14.630   1.270  11.000
34397W        W 6822  11.262   8.640  12.288
34398W        W 6823  13.322  25.207   3.087
34399W        W 6824  14.313  31.386   3.870
34400W        W 6825   3.994  21.594  12.159
34401W        W 6826  32.457   8.179   2.155
34402W        W 6827  21.682  31.534  14.510
34403W        W 6828  39.931  32.392  13.556
34404W        W 6829  13.592  39.677   4.146
34405W        W 6830  11.902  20.729   0.373
34406W        W 6831   0.419  37.299   4.622
34407W        W 6832  29.909  35.061  14.310
34408W        W 6833  30.441  12.507  11.091
34409W        W 6834  13.261  13.270   2.657
34410W        W 6835  36.677   2.269   0.539
34411W        W 6836  32.103  12.168   2.117
34412W        W 6837  24.431  24.477   0.857
34413W        W 6838  23.148  43.033   0.769
34414W        W 6839  41.960  39.908  13.156
34415W        W 6840  19.218  16.807  13.384
34416W        W 6841   4.233  30.157  11.996
34417W        W 6842  28.098   5.309  11.686
34418W        W 6843  16.357  43.258   3.655
34419W        W 6844  13.186  17.234   3.510
34420W        W 6845  28.078  13.556   1.732
34421W        W 6846  36.414  33.017   0.695
34422W        W 6847   2.130  43.929  12.912
34423W        W 6848  41.834  10.725  12.388
34424W        W 6849  33.174  30.763  11.027
34425W        W 6850   3.844  37.349  10.007
34426W        W 6851  29.510   3.872  14.960
34427W        W 6852   9.450  26.409   2.188
34428W        W 6853  41.468  26.220   1.021
34429W        W 6854   9.348  41.689   1.566
34430W        W 6855  33.660  33.826   1.837
34431W        W 6856   7.920  26.224   3.336
34432W        W 6857  40.642  32.991  11.915
34433W        W 6858  18.455  24.137  10.071
34434W        W 6859  33.552  19.443  12.018
34435W        W 6860  37.895   0.933   2.073
34436W        W 6861  35.874   3.415  11.951
34437W        W 6862  10.246  39.031  12.525
34438W        W 6863  13.457   0.422   5.052
34439W        W 6864  21.065  16.824  10.268
34440W        W 6865  13.176  33.459   4.935
34441W        W 6866  41.494  20.445  14.623
34442W        W 6867  36.853  29.677   2.730
34443W        W 6868   4.494   5.313   2.810
34444W        W 6869   9.983  25.428   4.117
34445W        W 6870  14.836  17.322  12.910
34446W        W 6871  35.902   3.968   1.828
34447W        W 6872  20.205   8.712   1.772
34448W        W 6873  34.352  37.943   0.859
34449W        W 6874  42.846   5.453  11.211
34450W        W 6875   0.308  31.195   3.267
34451W        W 6876  35.391  18.133   2.305
34452W        W 6877   6.295   4.808   3.310
34453W        W 6878  28.890  16.243   0.003
34454W        W 6879  31.430  25.358   0.407
34455W        W 6880   1.833  23.537  13.460
34456W        W 6881  12.797  42.880   2.162
34457W        W 6882  21.770  42.546   4.574
34458W        W 6883   2.694   7.432   1.407
34459W        W 6884  31.659  26.420   1.744
34460W        W 6885  10.120  23.314  12.898
34461W        W 6886   8.270  22.679  14.291
34462W        W 6887  34.667  32.898   2.479
34463W        W 6888  40.452  27.478   0.347
34464W        W 6889  36.630   1.946  11.078
34465W        W 6890  13.339  19.088   3.773
34466W        W 6891  25.935  37.399   1.781
34467W        W 6892  11.332  17.775   3.416
34468W        W 6893  39.268  17.792  14.284
34469W        W 6894  39.258  16.127  10.651
34470W        W 6895  26.317  33.419   4.888
34471W        W 6896  20.375   1.825   4.946
34472W        W 6897  38.778  21.949  11.766
34473W        W 6898  44.072  44.788  11.945
34474W        W 6899   2.076   3.763  12.967
34475W        W 6900  36.033  19.613  14.857
34476W        W 6901  21.994   0.999  13.824
34477W        W 6902  42.485  22.101   0.543
34478W        W 6903  30.004  15.637  11.701
34479W        W 6904  20.252  24.643  10.951
34480W        W 6905  31.824  32.866  11.687
34481W        W 6906  26.942  31.628  13.433
34482W        W 6907   0.895  13.055   0.021
34483W        W 6908   0.853  20.073  13.802
34484W        W 6909   2.339  25.514   4.667
34485W        W 6910   9.000  25.501  10.675
34486W        W 6911  15.651   1.731   3.512
34487W        W 6912  28.560  36.164   1.825
34488W        W 6913   9.281  19.949  13.392
34489W        W 6914  28.352  29.054   0.460
34490W        W 6915  18.826  35.741  12.660
34491W        W 6916  14.403  12.124  13.398
34492W        W 6917  16.981  38.511  12.112
34493W        W 6918  11.021  18.867  12.865
34494W        W 6919   1.909   0.296  12.170
34495W        W 6920  26.933  12.613  12.368
34496W        W 6921   9.536   0.311   2.828
34497W        W 6922  36.557  39.323  12.777
34498W        W 6923   3.883  16.721  11.434
34499W        W 6924  34.174  34.055  13.399
34500W        W 6925  36.709  42.980   0.467
34501W        W 6926  25.833  22.629  12.903
34502W        W 6927  33.160  37.507   2.834
34503W        W 6928  38.858  42.723  13.555
34504W        W 6929  13.776  37.558  11.594
34505W        W 6930  29.434  41.126   0.265
34506W        W 6931  22.876  24.509  11.698
34507W        W 6932  22.763   4.731   3.779
34508W        W 6933  38.987  38.373  11.077
34509W        W 6934  38.231  36.884  10.773
34510W        W 6935  34.647   4.870  13.942
34511W        W 6936  14.502  37.205   1.388
34512W        W 6937   1.344  39.048   0.817
34513W        W 6938  37.003   5.378  13.400
34514W        W 6939  16.377  42.687  11.098
34515W        W 6940  24.424   1.527   3.368
34516W        W 6941   7.698  39.319  14.339
34517W        W 6942  28.173  22.597   1.639
34518W        W 6943  16.802  43.770  14.006
34519W        W 6944   5.179  15.052  14.482
34520W        W 6945  22.146  12.861  10.421
34521W        W 6946   8.134   4.417  11.012
34522W        W 6947  29.548   4.896   0.095
34523W        W 6948  27.564  14.659  14.437
34524W        W 6949  42.135  41.043   2.193
34525W        W 6950  15.664  39.566   2.307
34526W        W 6951  41.260  18.688  14.440
34527W        W 6952   0.534  30.392   3.717
34528W        W 6953  16.612  17.178   0.717
34529W        W 6954  10.350  43.220  13.565
34530W        W 6955  36.325   7.697   1.654
34531W        W 6956  14.624  18.816   3.566
34532W        W 6957  41.770  30.038   3.201
34533W        W 6958  13.105  28.919   4.069
34534W        W 6959  39.288  10.281   2.692
34535W        W 6960  18.256  11.391  11.158
34536W        W 6961  42.496   8.174  10.891
34537W        W 6962  24.137  26.046   0.931
34538W        W 6963   4.274  27.289   0.153
34539W        W 6964  11.074  44.560   2.292
34540W        W 6965  27.131  40.495   1.008
34541W        W 6966  26.011  12.675   4.959
34542W        W 6967  42.181  19.720  11.208
34543W        W 6968  34.595  10.617  11.422
34544W        W 6969  40.532  42.432  11.137
34545W        W 6970  23.829   3.319   1.777
34546W        W 6971  19.812  11.217  13.801
34547W        W 6972  10.114  20.621   1.790
34548W        W 6973  38.434  33.528  14.388
34549W        W 6974  28.451  10.742  10.972
34550W        W 6975  39.034   2.335  14.576
34551W        W 6976  13.305  36.365   1.374
34552W        W 6977  26.731  32.999  13.491
34553W        W 6978   1.373   1.335  12.271
34554W        W 6979  10.398  13.139  10.760
34555W        W 6980   2.786   7.622   4.165
34556W        W 6981  43.802  17.083   0.761
34557W        W 6982  13.009  43.386  11.160
34558W        W 6983   3.845  11.696   1.419
34559W        W 6984   4.183  42.984  13.389
34560W        W 6985  31.469   7.402   0.497
34561W        W 6986  26.639  14.322   2.606
34562W        W 6987  12.858  38.100  11.278
34563W        W 6988  10.620  34.329   4.493
34564W        W 6989  37.678  35.936   3.211
34565W        W 6990  31.085  41.354  14.383
34566W        W 6991   6.948  31.695  13.784
34567W        W 6992  41.796  22.366   5.474
34568W        W 6993  32.638  36.556  13.476
34569W        W 6994  39.616  31.586   4.569
34570W        W 6995  28.978  33.202  12.559
34571W        W 6996  26.217  39.438   4.178
34572W        W 6997  28.069  40.229  10.868
34573W        W 6998  27.391   8.389   1.303
34574W        W 6999   4.199  19.530  13.436
34575W        W 7000  14.335  17.286   5.061
34576W        W 7001  12.297  36.081   3.305
34577W        W 7002  35.417  11.232  10.722
34578W        W 7003  30.345  15.409  11.087
34579W        W 7004  33.892  34.574   0.749
34580W        W 7005  20.418  36.308  12.490
34581W        W 7006  42.316  28.228   4.837
34582W        W 7007  41.630  28.932   2.229
34583W        W 7008  42.100   8.808  10.391
34584W        W 7009  29.596   2.927   1.974
34585W        W 7010  30.907   5.487   1.414
34586W        W 7011  37.284   0.001  12.312
34587W        W 7012  39.620  12.147   2.415
34588W        W 7013   5.192  18.768  14.942
34589W        W 7014  13.963   7.637   2.353
34590W        W 7015   7.628  28.235   4.501
34591W        W 7016  25.724  39.112  12.355
34592W        W 7017  44.259  19.996   1.418
34593W        W 7018   8.150  26.374   3.810
34594W        W 7019  44.861   6.188  10.703
34595W        W 7020   3.541  23.530  11.634
34596W        W 7021  18.115   1.922   3.914
34597W        W 7022  27.657   9.380   1.414
34598W        W 7023  15.664  21.644   1.908
34599W        W 7024  27.030  19.649  14.742
34600W        W 7025  27.138  18.400  12.948
34601W        W 7026  19.854  30.125   2.820
34602W        W 7027  10.270   0.229   5.120
34603W        W 7028  38.921  41.848  10.539
34604W        W 7029  40.637   5.379   4.315
34605W        W 7030  25.928   5.448   0.609
34606W        W 7031  36.985  37.283  11.892
34607W        W 7032   8.696  18.187   3.702
34608W        W 7033  44.502  18.379  12.012
34609W        W 7034  26.683  32.083  13.448
34610W        W 7035  40.625  42.922  14.033
34611W        W 7036  10.676  42.960  12.861
34612W        W 7037   6.194  32.334   3.100
34613W        W 7038  22.025  33.122  12.561
34614W        W 7039  34.214  14.336   2.648
34615W        W 7040  11.313  23.580   4.107
34616W        W 7041  30.904  29.464  10.570
34617W        W 7042  12.148  40.525  12.335
34618W        W 7043  24.741   6.302  14.835
34619W        W 7044   5.836  21.230  14.438
34620W        W 7045  13.900   9.421   4.493
34621W        W 7046  23.682   7.440  11.582
34622W        W 7047  19.149  43.055  10.565
34623W        W 7048   1.633  30.107   0.237
34624W        W 7049  38.284   2.730   1.373
34625W        W 7050  12.892   4.600   3.362
34626W        W 7051   8.877  20.005   3.663
34627W        W 7052   2.343   9.601  13.834
34628W        W 7053  17.112  32.061  12.660
34629W        W 7054  40.513  39.447   3.413
34630W        W 7055  39.969  14.581   2.165
34631W        W 7056  10.234  37.428  11.462
34632W        W 7057   7.878  15.745   2.146
34633W        W 7058  41.741   2.514  14.317
34634W        W 7059  25.400   3.945  12.071
34635W        W 7060  35.832  36.503   2.426
34636W        W 7061   9.337  16.245  13.773
34637W        W 7062  21.177  23.521  11.976
34638W        W 7063  40.917  15.269  14.331
34639W        W 7064  20.788  21.515  11.930
34640W        W 7065  35.889  44.388  11.579
34641W        W 7066   4.267  21.626   4.388
34642W        W 7067  42.503  23.643  13.500
34643W        W 7068  25.451  16.586   0.797
34644W        W 7069  38.616  36.342   4.833
34645W        W 7070  31.614  15.723   1.988
34646W        W 7071  34.515  25.231   1.623
34647W        W 7072  10.170  26.590  11.843
34648W        W 7073  22.063  14.188   3.257
34649W        W 7074  34.493   2.426   4.786
34650W        W 7075   6.192  35.036  12.902
34651W        W 7076   8.863  11.645   4.263
34652W        W 7077  23.702  36.440   0.811
34653W        W 7078  41.922  10.132  13.513
34654W        W 7079  35.733  22.271   0.229
34655W        W 7080  35.508  24.108   4.554
34656W        W 7081  15.193  10.675  11.591
34657W        W 7082  21.523  20.099  12.071
34658W        W 7083  16.664   4.044  12.889
34659W        W 7084  22.242  42.788   3.630
34660W        W 7085  19.810  11.027   0.256
34661W        W 7086  16.306  27.137  12.782
34662W        W 7087  38.501  35.935  11.013
34663W        W 7088  25.000   2.389  14.490
34664W        W 7089  11.855   0.452   3.207
34665W        W 7090  23.037  11.371  11.715
34666W        W 7091   4.809  21.075  14.945
34667W        W 7092   6.416  24.021   3.665
34668W        W 7093  38.642  44.763   0.628
34669W        W 7094  36.410  32.430  12.166
34670W        W 7095  38.106   5.915  14.105
34671W        W 7096  26.535  40.771  12.960
34672W        W 7097  44.164   5.700  11.200
34673W        W 7098  25.975  21.290   0.930
34674W        W 7099  42.123  12.696  11.481
34675W        W 7100   3.963  16.777   0.420
34676W        W 7101  25.741  30.590   2.284
34677W        W 7102  42.345  28.179   2.097
34678W        W 7103  38.032  18.635   0.792
34679W        W 7104  20.734   8.605   5.154
34680W        W 7105  29.130  12.057  11.380
34681W        W 7106  41.109   4.447   4.310
34682W        W 7107   2.904  25.484  14.754
34683W        W 7108  24.134  32.215  10.556
34684W        W 7109  32.935  37.749  12.574
34685W        W 7110  36.280   2.796   1.309
34686W        W 7111  10.719   2.809  13.795
34687W        W 7112   7.390  27.875  11.380
34688W        W 7113  44.178   2.161   3.803
34689W        W 7114   9.060  17.124  13.379
34690W        W 7115   6.379   8.625  12.438
34691W        W 7116  30.304   9.324  10.701
34692W        W 7117  21.209  31.798   9.933
34693W        W 7118  28.087   3.669   0.479
34694W        W 7119  27.745  29.026  10.277
34695W        W 7120  15.590  36.109  11.113
34696W        W 7121  21.424  25.212   3.694
34697W        W 7122  33.345  17.212  12.396
34698W        W 7123  44.575  33.798   0.907
34699W        W 7124   8.920  36.348  10.572
34700W        W 7125  30.136  32.129  10.779
34701W        W 7126  35.130   8.993   9.801
34702W        W 7127  39.358  26.867   1.746
34703W        W 7128  39.608  34.072  13.066
34704W        W 7129  32.880  39.972  13.851
34705W        W 7130   0.030  38.017  11.757
34706W        W 7131   4.399  15.953  10.933
34707W        W 7132  35.496  14.851  13.441
34708W        W 7133  15.248   7.094   0.447
34709W        W 7134  37.254  40.186   1.328
34710W        W 7135  27.261   2.777  13.520
34711W        W 7136  22.846  11.212  10.454
34712W        W 7137  38.670   0.791   0.820
34713W        W 7138  14.221   1.947   1.267
34714W        W 7139  27.078  12.626  14.922
34715W        W 7140  17.645  19.529  13.024
34716W        W 7141  39.982   7.156   3.106
34717W        W 7142  17.723   8.964  14.069
34718W        W 7143   6.420  14.718  11.948
34719W        W 7144  34.899  39.438  14.843
34720W        W 7145  31.198  22.731   1.068
34721W        W 7146  40.462  20.089   2.760
34722W        W 7147   8.656  30.024   4.928
34723W        W 7148   9.588   3.993   3.294
34724W        W 7149   2.531   3.772   0.721
34725W        W 7150   9.677   6.032   0.464
34726W        W 7151  36.963  26.954   3.191
34727W        W 7152  19.159  37.793   4.655
34728W        W 7153  40.113  40.522  12.775
34729W        W 7154  44.032  38.870  12.393
34730W        W 7155  18.120  17.145   4.931
34731W        W 7156  24.578  35.085  11.517
34732W        W 7157  16.585   7.642   1.854
34733W        W 7158  25.031  32.076   3.364
34734W        W 7159  35.224  28.977   2.608
34735W        W 7160   9.748  10.775   1.957
34736W        W 7161  41.976  23.343   5.435
34737W        W 7162  15.257  38.341  14.344
34738W        W 7163   7.277  20.063  13.372
34739W        W 7164   6.132  28.072  14.461
34740W        W 7165  21.612  28.242   2.305
34741W        W 7166  42.939  42.054  11.138
34742W        W 7167   5.761   9.923  10.624
34743W        W 7168   7.650  29.217  14.493
34744W        W 7169   9.945   6.099  12.894
34745W        W 7170  29.587  42.362  11.509
34746W        W 7171   3.818  38.982   9.865
34747W        W 7172   7.652  29.669  12.998
34748W        W 7173  31.337  23.592  14.519
34749W        W 7174  41.383   1.002  14.003
34750W        W 7175  21.048  17.243   3.467
34751W        W 7176  38.781  37.934   1.887
34752W        W 7177   9.187  29.877  14.929
34753W        W 7178  33.029   1.388  13.086
34754W        W 7179  28.230  31.354   4.008
34755W        W 7180   0.027   9.695   3.137
34756W        W 7181  44.037  11.622   1.844
34757W        W 7182   7.405  40.470  10.444
34758W        W 7183  42.048  37.807   3.667
34759W        W 7184  38.082  32.162  13.086
34760W        W 7185  26.687   4.699  13.868
34761W        W 7186  40.771  14.775   3.706
34762W        W 7187  40.638   9.597  11.179
34763W        W 7188  12.258  24.774   1.201
34764W        W 7189   2.773  34.482  11.895
34765W        W 7190  39.525  15.557   3.138
34766W        W 7191  10.644  28.222  10.657
34767W        W 7192   3.393  29.652   2.325
34768W        W 7193  39.252   0.971  13.487
34769W        W 7194  44.411  23.730  14.494
34770W        W 7195   4.860  12.856   1.768
34771W        W 7196  19.810  27.849  13.516
34772W        W 7197  38.647  19.748   5.057
34773W        W 7198  34.363  23.507   4.247
34774W        W 7199  43.848   5.329  11.417
34775W        W 7200   6.019  14.083   0.456
34776W        W 7201  30.178   9.198  14.935
34777W        W 7202  42.044   7.101  13.054
34778W        W 7203  22.936  41.771  13.367
34779W        W 7204  28.150  25.434  14.016
34780W        W 7205   3.725   3.400  11.989
34781W        W 7206  27.920   1.210   3.722
34782W        W 7207  41.852  37.329   3.162
34783W        W 7208  15.636  19.511   1.257
34784W        W 7209  43.555  39.583  14.374
34785W        W 7210   8.784  13.281   1.146
34786W        W 7211  31.472  39.329  10.472
34787W        W 7212   3.999  13.779  14.850
34788W        W 7213   9.371  13.585  12.457
34789W        W 7214  15.857  27.006   1.526
34790W        W 7215  16.794  40.731  11.009
34791W        W 7216  37.783  16.681  11.753
34792W        W 7217  12.113  35.616   3.512
34793W        W 7218  44.297   5.619   4.133
34794W        W 7219  27.184  15.553   0.365
34795W        W 7220  38.100   9.246   4.108
34796W        W 7221  38.549   8.782   1.230
34797W        W 7222   7.777  32.343   3.184
34798W        W 7223  40.147  24.875  14.889
34799W        W 7224  28.587  23.120   2.328
34800W        W 7225  43.790  39.343  13.041
34801W        W 7226  34.542  12.127   2.235
34802W        W 7227  24.988  13.103  11.125
34803W        W 7228  31.155  43.306   2.220
34804W        W 7229   1.688  10.195  12.357
34805W        W 7230  43.597  20.809   0.898
34806W        W 7231  32.066   4.679   4.188
34807W        W 7232  15.097  34.661   1.862
34808W        W 7233  32.448  17.688   2.607
34809W        W 7234  44.372  11.724  14.418
34810W        W 7235   7.775  12.634   2.964
34811W        W 7236  33.434   3.326   4.684
34812W        W 7237  37.524  31.899   1.268
34813W        W 7238  18.725  38.512  11.172
34814W        W 7239  34.904   8.324  13.887
34815W        W 7240  11.857  35.425  11.189
34816W        W 7241  31.637  38.772  14.649
34817W        W 7242  11.769   6.675   2.728
34818W        W 7243  40.007  44.984   3.772
34819W        W 7244  12.675  27.574  12.068
34820W        W 7245  23.628  18.862   3.721
34821W        W 7246  33.884   4.686   1.822
34822W        W 7247  39.388  40.866  12.520
34823W        W 7248  41.346  41.835  13.627
34824W        W 7249  26.608   5.945   1.207
34825W        W 7250   0.894  23.910   4.331
34826W        W 7251  36.595  40.333   4.162
34827W        W 7252  37.798  16.692   1.368
34828W        W 7253  34.496   3.714  10.361
34829W        W 7254  41.357  32.101  14.891
34830W        W 7255  43.462  20.239  11.633
34831W        W 7256  20.483  35.522  11.406
34832W        W 7257   7.395  34.916  11.622
34833W        W 7258   1.092  38.547   2.681
34834W        W 7259  18.707  27.019  11.302
34835W        W 7260  29.495   9.865  13.233
34836W        W 7261  12.041  38.015   4.277
34837W        W 7262   5.879  25.613  11.127
34838W        W 7263   3.709  26.733   0.795
34839W        W 7264  19.978  36.311  13.025
34840W        W 7265  22.569  19.656   0.188
34841W        W 7266   7.243  25.152   4.600
34842W        W 7267  20.253  15.563   3.750
34843W        W 7268  43.653   3.642  12.925
34844W        W 7269  25.905  14.726   4.202
34845W        W 7270  43.721  20.360   0.122
34846W        W 7271   5.796  31.861  11.466
34847W        W 7272   3.678  38.465  11.602
34848W        W 7273  12.120  35.212   3.155
34849W        W 7274  26.058  30.034  12.617
34850W        W 7275  36.555  30.646   0.853
34851W        W 7276  38.513  16.045  13.453
34852W        W 7277   5.967   5.179  12.605
34853W        W 7278  27.640  26.823  13.787
34854W        W 7279   4.706   4.020   2.720
34855W        W 7280  20.981  23.747  12.903
34856W        W 7281  32.436  14.085  13.279
34857W        W 7282  29.388   8.687   3.198
34858W        W 7283  17.268  11.377  14.734
34859W        W 7284   4.380  31.099   2.413
34860W        W 7285  22.815   2.002   4.501
34861W        W 7286  28.028  33.812   3.327
34862W        W 7287  17.554  40.437   0.565
34863W        W 7288  20.334  25.776  12.888
34864W        W 7289  25.244  27.013  13.596
34865W        W 7290  24.112  38.244  14.728
34866W        W 7291  35.834  42.226   3.504
34867W        W 7292  12.625  17.611  12.481
34868W        W 7293  34.667  34.000  13.682
34869W        W 7294  28.545   7.806  11.217
34870W        W 7295  11.938  22.607  11.966
34871W        W 7296   9.063  24.755  11.065
34872W        W 7297  39.846  20.322  11.177
34873W        W 7298   5.018  13.889   1.809
34874W        W 7299  33.607  18.091  10.095
34875W        W 7300  38.051  28.188   1.840
34876W        W 7301  35.355  36.903  14.799
34877W        W 7302  25.480  35.943  13.879
34878W        W 7303  19.139  21.006   4.800
34879W        W 7304   6.898  21.536  11.679
34880W        W 7305  34.053  38.390   0.735
34881W        W 7306  29.563  10.507  12.139
34882W        W 7307   8.570  12.756   3.420
34883W        W 7308  18.818  42.368   1.384
34884W        W 7309   4.250   3.743   2.859
34885W        W 7310  36.497  27.443   1.286
34886W        W 7311  33.090  22.738   2.030
34887W        W 7312   9.191  17.548   1.318
34888W        W 7313  10.967   5.661   3.929
34889W        W 7314  25.007  18.423   4.992
34890W        W 7315  36.620   7.443  13.002
34891W        W 7316   0.151  39.925  13.039
34892W        W 7317  24.733   4.869   0.246
34893W        W 7318  10.960  13.121  12.486
34894W        W 7319  40.351  24.593  12.011
34895W        W 7320  17.469  36.491  13.133
34896W        W 7321  38.798  39.361   2.183
34897W        W 7322  18.683  43.921   0.321
34898W        W 7323  17.237  44.448   2.285
34899W        W 7324   9.313  22.831  12.955
34900W        W 7325  23.466  27.871   2.746
34901W        W 7326  39.762  15.793   3.607
34902W        W 7327  15.777  21.494  14.985
34903W        W 7328  38.604  21.533   4.251
34904W        W 7329  27.282  14.596   2.415
34905W        W 7330  16.930  17.280  11.290
34906W        W 7331  44.484   8.599   0.407
34907W        W 7332  34.014  40.999   1.831
34908W        W 7333  19.194  26.003  13.504
34909W        W 7334   7.309  24.679   2.197
34910W        W 7335  32.143  35.355  13.581
34911W        W 7336  25.474  23.581  11.815
34912W        W 7337   8.449  40.484   0.331
34913W        W 7338  30.651  20.240   1.827
34914W        W 7339  39.380  18.260  14.657
34915W        W 7340  13.279  17.290   1.360
34916W        W 7341   9.283  15.813  14.044
34917W        W 7342  17.319  44.557  13.033
34918W        W 7343  13.802  34.408   0.951
34919W        W 7344  39.987  27.181  10.729
34920W        W 7345  39.361  32.180   1.111
34921W        W 7346  22.715  14.216  12.588
34922W        W 7347  18.942  32.086   0.017
34923W        W 7348   3.960  13.110   4.310
34924W        W 7349  31.103  25.283  14.078
34925W        W 7350  33.386  16.804   2.247
34926W        W 7351  44.993  15.429  11.684
34927W        W 7352   6.361  12.430   3.073
34928W        W 7353  34.044  12.198   4.051
34929W        W 7354   0.736  26.134   3.647
34930W        W 7355  39.132  11.209  11.600
34931W        W 7356  21.799  26.357   1.257
34932W        W 7357  21.689  13.172  12.563
34933W        W 7358  19.622  33.446   3.184
34934W        W 7359  22.581   9.641  14.502
34935W        W 7360  27.777   6.520  14.258
34936W        W 7361   0.177  11.266  12.065
34937W        W 7362  40.275  19.013   0.439
34938W        W 7363   3.741   0.527  13.444
34939W        W 7364   1.433  20.658  14.951
34940W        W 7365  21.494  19.606  11.403
34941W        W 7366  44.721  16.857   1.316
34942W        W 7367  28.643  13.833  13.044
34943W        W 7368  35.270   0.778   1.592
34944W        W 7369  40.823  11.763   0.080
34945W        W 7370  44.793  20.810   4.950
34946W        W 7371   4.909   0.901   3.600
34947W        W 7372  19.720  44.706  14.151
34948W        W 7373  21.218  26.137  10.568
34949W        W 7374  36.313  35.328  14.550
34950W        W 7375  10.959  13.192   4.486
34951W        W 7376   9.629   9.797  13.444
34952W        W 7377  37.286   4.532   5.032
34953W        W 7378  37.263  28.208   2.790
34954W        W 7379  29.485  37.805  11.180
34955W        W 7380  24.617  11.833   1.162
34956W        W 7381   3.644  25.672  14.179
34957W        W 7382  15.117  20.042  11.474
34958W        W 7383  34.265  36.057   1.048
34959W        W 7384   3.917  27.697  10.883
34960W        W 7385   7.753  21.307   4.091
34961W        W 7386  17.556  42.741   1.177
34962W        W 7387  25.633  32.204   0.704
34963W        W 7388  27.786  41.171  11.699
34964W        W 7389  15.838  43.884   3.678
34965W        W 7390   6.913  44.838   1.367
34966W        W 7391   2.719  29.614  14.123
34967W        W 7392  10.761   8.385  14.928
34968W        W 7393  37.554  24.112  13.777
34969W        W 7394  22.467   9.338  12.116
34970W        W 7395  28.654   2.468  14.943
34971W        W 7396   4.275  14.164  12.952
34972W        W 7397  40.821  20.005   3.154
34973W        W 7398  20.251  12.348   1.868
34974W        W 7399  12.782  40.567  11.250
34975W        W 7400  25.183   7.141   1.820
34976W        W 7401  36.037  23.069  13.377
34977W        W 7402  14.925  41.050  13.700
34978W        W 7403  28.644   0.805   3.175
34979W        W 7404  30.223  18.421  11.899
34980W        W 7405  44.356  19.727   0.491
34981W        W 7406  26.689   1.457  12.481
34982W        W 7407  23.269  12.694  11.777
34983W        W 7408  19.166  16.849  11.106
34984W        W 7409   9.358  36.565  10.744
34985W        W 7410   0.895  43.515  14.304
34986W        W 7411  28.641  42.480  12.517
34987W        W 7412   5.151  43.541  12.575
34988W        W 7413  11.891  32.958  10.313
34989W        W 7414  36.513  39.871  12.380
34990W        W 7415  20.073  10.599  11.019
34991W        W 7416   3.489   8.793  10.276
34992W        W 7417   9.381  26.112  12.478
34993W        W 7418  21.196   9.442  14.929
34994W        W 7419  14.781  34.995   3.362
34995W        W 7420   8.873  24.176   3.400
34996W        W 7421  25.576  14.063   2.338
34997W        W 7422  18.293  40.019   1.762
34998W        W 7423  19.609  41.464  14.996
34999W        W 7424  29.726  16.624  11.806
35000W        W 7425  22.987  11.052   5.117
35001W        W 7426   9.877  23.148   3.321
35002W        W 7427   9.123  26.438  13.125
35003W        W 7428  23.594  36.345   3.156
35004W        W 7429  32.547   8.707   0.745
35005W        W 7430  13.150  42.056   3.260
35006W        W 7431  12.545   1.795  10.631
35007W        W 7432  23.515  31.208  14.817
35008W        W 7433  15.815  35.081  10.457
35009W        W 7434  31.175  17.788  11.617
35010W        W 7435  18.493  25.423  12.374
35011W        W 7436  37.426  44.210  14.940
35012W        W 7437  28.596  42.789  14.977
35013W        W 7438  38.711  18.066  11.580
35014W        W 7439  23.719  29.532   0.347
35015W        W 7440  15.358  23.376   1.385
35016W        W 7441   1.313   2.132  14.381
35017W        W 7442  36.364   3.204   2.765
35018W        W 7443  10.256  22.777  14.484
35019W        W 7444  36.844  33.151   0.391
35020W        W 7445   9.928  11.236   2.159
35021W        W 7446  32.504   7.743   1.699
35022W        W 7447   5.748  44.000  11.944
35023W        W 7448   5.800  34.051   3.666
35024W        W 7449  17.489  29.388  13.406
35025W        W 7450  42.801   2.916  12.033
35026W        W 7451  24.152   7.816  12.153
35027W        W 7452  22.709   1.454   4.547
35028W        W 7453  29.941  44.717   4.641
35029W        W 7454   2.428  36.847   1.717
35030W        W 7455  43.794  16.361   4.305
35031W        W 7456   6.478   8.175   3.080
35032W        W 7457  38.780   3.937   3.313
35033W        W 7458  28.191  30.515  11.481
35034W        W 7459  40.999  12.586  11.165
35035W        W 7460   4.270  41.630   1.900
35036W        W 7461   3.156  24.600  12.949
35037W        W 7462  31.378  11.800  14.033
35038W        W 7463  39.509  23.168   1.201
35039W        W 7464  30.002  26.243   3.216
35040W        W 7465  16.241  32.456   2.939
35041W        W 7466  28.917  25.073  11.898
35042W        W 7467  22.604  20.979   1.560
35043W        W 7468  27.067   3.893   1.375
35044W        W 7469   3.470  20.491   1.649
35045W        W 7470   7.494   5.868  14.031
35046W        W 7471  14.431  11.657   4.195
35047W        W 7472  22.786  27.890   2.902
35048W        W 7473  12.519  23.133  13.273
35049W        W 7474  38.390  44.935  11.421
35050W        W 7475   6.267  23.445   2.808
35051W        W 7476  38.038  35.981  12.988
35052W        W 7477  40.093  26.727   5.027
35053W        W 7478  35.433  37.991  11.803
35054W        W 7479  40.808  12.442   3.749
35055W        W 7480  26.510  36.420   4.561
35056W        W 7481  12.239  26.436  12.711
35057W        W 7482  31.481  28.580   4.920
35058W        W 7483   6.308  18.519  11.156
35059W        W 7484  21.335   8.909   0.954
35060W        W 7485  25.721  40.396   4.226
35061W        W 7486   1.468  21.743  11.486
35062W        W 7487  44.879  22.511   2.884
35063W        W 7488  15.647  41.051  14.357
35064W        W 7489  41.907   2.071  11.546
35065W        W 7490  16.729  40.099   3.285
35066W        W 7491   6.413  16.836  11.033
35067W        W 7492  31.422  15.235   1.499
35068W        W 7493  20.221   1.370  11.855
35069W        W 7494   7.978   5.891   2.505
35070W        W 7495   7.439  37.836  11.655
35071W        W 7496  42.822  13.273  14.612
35072W        W 7497  29.035  32.321  13.273
35073W        W 7498  37.210  34.161   1.512
35074W        W 7499  33.163  20.313   0.850
35075W        W 7500   5.363  33.935   2.927
35076W        W 7501  29.437  39.948  13.941
35077W        W 7502  26.220  27.166  12.797
35078W        W 7503  26.579  42.607  11.257
35079W        W 7504  21.207  30.077   1.999
35080W        W 7505   9.974  18.142  10.910
35081W        W 7506   5.966  42.549   4.213
35082W        W 7507  21.702  32.080   1.278
35083W        W 7508  29.987  25.696  14.978
35084W        W 7509  34.602  21.231   1.353
35085W        W 7510  11.817   6.367   4.172
35086W        W 7511  18.505  41.803  12.885
35087W        W 7512  18.394  39.080  13.415
35088W        W 7513  39.315  33.948  12.623
35089W        W 7514  43.324  40.972   4.413
35090W        W 7515  26.176   8.160   0.802
35091W        W 7516  44.602  25.520   3.322
35092W        W 7517  37.892  40.718  12.523
35093W        W 7518  16.703  38.428  13.740
35094W        W 7519  23.319  41.675   0.341
35095W        W 7520  28.308  14.829  13.876
35096W        W 7521   8.724  40.914  14.761
35097W        W 7522  42.905   2.049   2.897
35098W        W 7523   8.300  44.380   3.892
35099W        W 7524   0.066  19.458  14.770
35100W        W 7525  41.660  24.438  11.644
35101W        W 7526   6.762  10.634   4.433
35102W        W 7527  16.110   2.346   1.536
35103W        W 7528  26.960  42.395   3.829
35104W        W 7529  30.453  18.382   4.212
35105W        W 7530  22.133  18.230  13.775
35106W        W 7531  37.564   2.952  11.174
35107W        W 7532  24.195  24.473   3.243
35108W        W 7533  33.914  23.608   3.564
35109W        W 7534  28.737  37.074  13.318
35110W        W 7535  41.047  12.301   0.811
35111W        W 7536   8.371  10.298  10.011
35112W        W 7537  20.778  25.432   3.606
35113W        W 7538  29.744  30.424  12.149
35114W        W 7539   5.609  25.618  11.561
35115W        W 7540  42.909  19.340  10.748
35116W        W 7541  18.768  44.093   4.551
35117W        W 7542  18.024  24.627   0.986
35118W        W 7543   0.707  44.947   2.738
35119W        W 7544  24.738   2.058  13.096
35120W        W 7545  38.823   8.393   2.814
35121W        W 7546  34.475  36.891  14.791
35122W        W 7547  21.296  17.009  12.140
35123W        W 7548   7.235  13.191  12.031
35124W        W 7549   8.541  11.391   3.945
35125W        W 7550   1.710  31.106   2.954
35126W        W 7551  27.629  13.601  13.015
35127W        W 7552  21.254   0.804  14.391
35128W        W 7553  40.041  24.944   1.770
35129W        W 7554  23.386   7.756  12.338
35130W        W 7555   9.259   3.027   1.319
35131W        W 7556  41.103  15.715  14.190
35132W        W 7557   0.424   3.318   1.009
35133W        W 7558  19.720  29.991   1.485
35134W        W 7559   1.228   4.671  13.155
35135W        W 7560  34.177  12.895   1.958
35136W        W 7561  23.665  11.970   4.732
35137W        W 7562  32.459  30.665   0.446
35138W        W 7563  18.813   1.338   4.226
35139W        W 7564  28.707  27.523   2.854
35140W        W 7565  21.598  44.234   4.083
35141W        W 7566  44.402  19.494   3.225
35142W        W 7567  10.678  21.316   4.632
35143W        W 7568  31.925   0.663   3.036
35144W        W 7569  30.601   9.162   1.305
35145W        W 7570  31.893  22.824   4.435
35146W        W 7571  11.307  30.549  12.420
35147W        W 7572  16.697  25.458  11.114
35148W        W 7573  36.613  36.333  14.848
35149W        W 7574  13.261  16.653  12.574
35150W        W 7575  44.842  24.507  12.157
35151W        W 7576  40.581  17.097  14.507
35152W        W 7577  39.593  40.497   1.779
35153W        W 7578  36.181  39.775  13.537
35154W        W 7579  17.569  36.836   2.194
35155W        W 7580  36.941  13.593   0.497
35156W        W 7581  33.411  12.477   0.131
35157W        W 7582  14.874  31.706  14.388
35158W        W 7583  43.290   2.673  13.087
35159W        W 7584   6.275  19.705   0.764
35160W        W 7585  15.855   2.738  11.343
35161W        W 7586  29.378  23.022  12.849
35162W        W 7587   1.087  20.140   4.018
35163W        W 7588  23.501  30.958  14.371
35164W        W 7589  18.985  13.824  11.677
35165W        W 7590  19.561  22.208   4.314
35166W        W 7591  39.867  42.044   2.644
35167W        W 7592  10.797  38.947  11.455
35168W        W 7593  44.347  42.598  12.692
35169W        W 7594  23.936   7.450  13.085
35170W        W 7595   8.320  20.296   1.696
35171W        W 7596  22.954  13.263   2.697
35172W        W 7597   3.691  42.953   3.356
35173W        W 7598  44.795   6.679  10.725
35174W        W 7599   0.785   0.775  11.563
35175W        W 7600  39.070   7.259  11.657
35176W        W 7601  27.569  33.349  12.789
35177W        W 7602   3.777  10.321   0.422
35178W        W 7603  12.571  28.039  12.965
35179W        W 7604  23.831  35.886   2.231
35180W        W 7605  24.722  28.720  12.099
35181W        W 7606  12.223  43.678  13.374
35182W        W 7607  16.252  34.054  13.965
35183W        W 7608  10.395  26.349   1.284
35184W        W 7609  27.445   8.218  12.947
35185W        W 7610  44.340  13.094   1.763
35186W        W 7611  32.020  11.679   1.368
35187W        W 7612   4.117  34.607  11.559
35188W        W 7613  19.665   3.335  11.388
35189W        W 7614  41.090  21.031   1.973
35190W        W 7615  18.939  11.823   4.654
35191W        W 7616   5.458  38.406  12.007
35192W        W 7617  27.446   3.373   4.678
35193W        W 7618  18.141  26.691   3.817
35194W        W 7619  25.660  30.490   1.266
35195W        W 7620  16.791  28.667  11.204
35196W        W 7621   5.979   5.849  14.359
35197W        W 7622  12.644  21.223  14.779
35198W        W 7623  18.719  20.013  13.354
35199W        W 7624  21.524  24.992   2.710
35200W        W 7625  20.238  33.264   0.538
35201W        W 7626  28.993  16.650   0.331
35202W        W 7627  38.104  11.883   1.901
35203W        W 7628  22.010   4.606   2.281
35204W        W 7629  29.804  23.715  14.440
35205W        W 7630  14.297  19.979   4.880
35206W        W 7631   5.609   1.254   0.992
35207W        W 7632  41.611   5.399  13.402
35208W        W 7633  39.310   1.279  11.180
35209W        W 7634  10.771  28.583   1.093
35210W        W 7635  30.591  35.579   0.277
35211W        W 7636  28.508  22.852  14.881
35212W        W 7637  28.167  34.629  14.276
35213W        W 7638  20.904   4.006   0.819
35214W        W 7639   2.607   8.633  13.420
35215W        W 7640   0.441   5.422   2.475
35216W        W 7641   0.952  19.305   0.868
35217W        W 7642   1.718  20.250  14.024
35218W        W 7643   9.173  13.801   3.846
35219W        W 7644  14.271  26.134   3.619
35220W        W 7645  16.880  44.226   4.945
35221W        W 7646   5.922  32.003  10.092
35222W        W 7647  21.459  22.287  11.544
35223W        W 7648  39.189  15.306   0.847
35224W        W 7649  20.676  36.334   1.701
35225W        W 7650   5.632  22.703   1.831
35226W        W 7651   4.405  20.784   3.875
35227W        W 7652  15.292  26.516   2.841
35228W        W 7653  43.233  29.346   1.219
35229W        W 7654  16.020  15.242  14.953
35230W        W 7655  23.090  25.855   2.092
35231W        W 7656   8.876  39.060  11.328
35232W        W 7657  26.465  31.010  12.175
35233W        W 7658  33.886  26.916  10.398
35234W        W 7659  34.793  22.097   4.337
35235W        W 7660   6.242  33.051  12.564
35236W        W 7661  15.673   8.071  10.658
35237W        W 7662  11.052  32.107  14.962
35238W        W 7663  38.306  17.868  13.875
35239W        W 7664  31.180  33.449  11.170
35240W        W 7665  28.034   0.461   2.422
35241W        W 7666  15.318  22.191  13.470
35242W        W 7667  30.964   7.308   1.241
35243W        W 7668  43.474  40.125   2.347
35244W        W 7669  43.423  27.365  11.231
35245W        W 7670   4.666  10.095  10.749
35246W        W 7671  24.529  34.804   3.425
35247W        W 7672  35.490  27.086   2.343
35248W        W 7673  33.918   5.265   3.194
35249W        W 7674  25.307  26.073  14.518
35250W        W 7675   4.685  20.585  14.237
35251W        W 7676   4.941   4.183   0.214
35252W        W 7677  29.073  33.619   3.416
35253W        W 7678  38.929  21.966   2.537
35254W        W 7679   5.746  29.552  10.831
35255W        W 7680  21.660  23.636  11.276
35256W        W 7681  34.199  23.274   0.824
35257W        W 7682  12.014  39.769  13.444
35258W        W 7683   2.679  40.498  13.763
35259W        W 7684  18.952   3.349   0.007
35260W        W 7685  19.128  42.899   0.756
35261W        W 7686   1.019   2.306  13.317
35262W        W 7687  35.881  14.184   1.603
35263W        W 7688  21.666  17.582   4.817
35264W        W 7689  35.551  21.046  12.030
35265W        W 7690   3.627   6.822  13.702
35266W        W 7691  33.793   7.935  11.024
35267W        W 7692   5.242  14.660   3.086
35268W        W 7693  35.086   1.739   1.358
35269W        W 7694  11.837  18.945  11.718
35270W        W 7695  30.514  22.416  11.611
35271W        W 7696  40.564   1.539   5.082
35272W        W 7697  42.836   3.977  14.281
35273W        W 7698  14.829   8.131  10.670
35274W        W 7699  13.050  28.278   2.872
35275W        W 7700   1.256   6.510   0.835
35276W        W 7701  12.088  43.296  11.179
35277W        W 7702  38.428  30.007   4.574
35278W        W 7703  16.535   2.868  12.060
35279W        W 7704   7.171  24.694  14.975
35280W        W 7705  19.708  42.759  14.314
35281W        W 7706  30.167  10.925   4.550
35282W        W 7707  28.559  24.424  14.957
35283W        W 7708  30.601  44.202   2.216
35284W        W 7709  38.009  42.762  13.432
35285W        W 7710  35.939  27.996   0.696
35286W        W 7711  26.189  37.053  13.463
35287W        W 7712  20.474  28.395   3.658
35288W        W 7713  37.854  42.831  10.658
35289W        W 7714  24.775  17.136  12.360
35290W        W 7715  16.946  17.600   1.214
35291W        W 7716   1.775  30.678  12.613
35292W        W 7717  20.436  17.695  14.940
35293W        W 7718  30.199  31.522  13.978
35294W        W 7719  24.723  10.175   1.834
35295W        W 7720  36.611   4.255   1.240
35296W        W 7721  36.109  23.058  14.770
35297W        W 7722  23.610  38.922   2.468
35298W        W 7723   5.862  23.222   4.840
35299W        W 7724  11.343  39.125   4.771
35300W        W 7725  11.360  40.771  12.822
35301W        W 7726  29.149  41.074  11.635
35302W        W 7727  35.870  21.160   2.604
35303W        W 7728  10.170  34.656   3.280
35304W        W 7729  29.364  13.307  12.439
35305W        W 7730   4.657  17.264  14.571
35306W        W 7731  40.257  41.983  11.226
35307W        W 7732  18.179   7.672  10.907
35308W        W 7733   3.324  34.906   1.188
35309W        W 7734  11.784  38.881   0.085
35310W        W 7735  37.950   4.138   1.346
35311W        W 7736  23.871  12.797   4.729
35312W        W 7737  21.058  20.771  11.316
35313W        W 7738  14.210  26.447   3.184
35314W        W 7739  20.604  34.900   1.849
35315W        W 7740  44.109  25.285   1.300
35316W        W 7741   5.706  37.308  10.141
35317W        W 7742  37.572  44.075   4.507
35318W        W 7743  28.863  30.980   4.557
35319W        W 7744  12.442   4.651  13.955
35320W        W 7745  21.808  29.159  12.441
35321W        W 7746  11.421  21.330   4.086
35322W        W 7747  37.437  29.997   3.092
35323W        W 7748  13.131  43.789   1.315
35324W        W 7749  33.416  23.825  11.975
35325W        W 7750  32.112  32.904  12.116
35326W        W 7751   0.962   8.775   3.145
35327W        W 7752  19.106  22.219  12.956
35328W        W 7753   0.087   5.743   2.292
35329W        W 7754  34.143  42.428   0.667
35330W        W 7755  16.621  31.445   2.218
35331W        W 7756  33.394  14.336   1.375
35332W        W 7757  15.730  31.572   4.243
35333W        W 7758  36.475  13.607   0.773
35334W        W 7759  37.957  41.360   1.621
35335W        W 7760  25.748  19.217   4.144
35336W        W 7761  22.247  28.107   3.557
35337W        W 7762  36.984  10.265   4.960
35338W        W 7763   6.615  31.344  13.582
35339W        W 7764  37.771  16.045   0.351
35340W        W 7765  33.516   0.748  14.477
35341W        W 7766  24.156  29.495   0.063
35342W        W 7767   8.222  19.577  11.053
35343W        W 7768  33.880   5.610   2.782
35344W        W 7769   7.986  33.503  10.694
35345W        W 7770  30.256  13.228  12.195
35346W        W 7771  40.384  33.921  14.972
35347W        W 7772  36.243  29.461  10.703
35348W        W 7773  23.150  23.477   0.793
35349W        W 7774  38.377  44.006   4.112
35350W        W 7775  32.588  16.733  13.067
35351W        W 7776   1.801  23.946   3.891
35352W        W 7777  38.000  23.186   4.006
35353W        W 7778  20.651   9.384   0.419
35354W        W 7779  17.276  17.343  12.280
35355W        W 7780  16.044  34.179  10.146
35356W        W 7781  17.603  20.283  14.060
35357W        W 7782  25.543  29.506  11.993
35358W        W 7783   9.792  10.803  13.342
35359W        W 7784   7.725  18.128   2.804
35360W        W 7785  34.181  17.533  13.325
35361W        W 7786  20.277  30.085  13.375
35362W        W 7787   6.787  35.659   1.252
35363W        W 7788  13.695  12.306   1.148
35364W        W 7789   0.374  30.474  13.482
35365W        W 7790  22.086  12.278  11.142
35366W        W 7791   8.799   5.926   1.395
35367W        W 7792   6.361  41.014   9.985
35368W        W 7793  10.307  36.856  13.106
35369W        W 7794  11.665  16.639  13.993
35370W        W 7795  38.801  21.570  12.970
35371W        W 7796   2.412   8.264   3.852
35372W        W 7797   5.406  12.323  12.353
35373W        W 7798  17.991  32.412  12.493
35374W        W 7799  39.126  16.888  11.154
35375W        W 7800   8.317   1.932   1.145
35376W        W 7801   9.842  11.135   4.293
35377W        W 7802   0.820   5.993  14.601
35378W        W 7803  15.660  17.359  11.614
35379W        W 7804  44.871  39.442   0.006
35380W        W 7805   8.605  35.044   4.297
35381W        W 7806  28.430  16.100   1.780
35382W        W 7807   7.902  27.057   1.645
35383W        W 7808  43.527   3.044   1.249
35384W        W 7809  30.344  14.276   2.107
35385W        W 7810  18.131  32.933   2.412
35386W        W 7811  22.708  27.428   2.145
35387W        W 7812  28.474  21.232  10.334
35388W        W 7813   5.943  22.464  13.975
35389W        W 7814  33.406  39.683  14.705
35390W        W 7815   6.239  38.280  13.983
35391W        W 7816  27.141   6.736  12.596
35392W        W 7817  10.738  35.378   4.834
35393W        W 7818  22.143  23.622  11.052
35394W        W 7819  34.597   1.259  14.651
35395W        W 7820  21.260  32.569  14.825
35396W        W 7821  23.671  12.440  14.597
35397W        W 7822   9.946  13.612  10.982
35398W        W 7823  40.000  29.865  13.350
35399W        W 7824  38.418  12.681   4.536
35400W        W 7825   1.378  12.819   1.853
35401W        W 7826  20.407  34.381   3.635
35402W        W 7827  24.476  18.210  13.441
35403W        W 7828   6.501  39.765   1.178
35404W        W 7829  13.405   0.295   0.122
35405W        W 7830  38.888   1.250  12.924
35406W        W 7831  39.312  39.405  10.757
35407W        W 7832   6.720  21.493  14.418
35408W        W 7833  10.364  16.343   0.350
35409W        W 7834  17.705  13.725   4.758
35410W        W 7835  43.382  18.137  10.591
35411W        W 7836  14.067   5.662  12.250
35412W        W 7837  36.479  24.175  12.554
35413W        W 7838  26.095   0.919   2.687
35414W        W 7839  34.517  13.612   0.731
35415W        W 7840  35.042  11.000  13.530
35416W        W 7841  41.067  39.383  13.011
35417W        W 7842  27.054  26.874  14.911
35418W        W 7843  12.040  21.684  10.022
35419W        W 7844  18.013  25.449   1.607
35420W        W 7845   2.199  27.565   0.565
35421W        W 7846  25.710  21.050   1.303
35422W        W 7847  42.358   5.832   2.361
35423W        W 7848  26.138  41.527   0.502
35424W        W 7849  24.728  30.134   3.591
35425W        W 7850   5.315   7.755  14.120
35426W        W 7851  10.356  31.964   2.693
35427W        W 7852  40.050  31.427  14.466
35428W        W 7853  25.396  36.979   0.286
35429W        W 7854  14.549  26.270  13.250
35430W        W 7855   9.177  23.018   4.750
35431W        W 7856  15.758  16.449  13.533
35432W        W 7857   4.020  35.139   4.892
35433W        W 7858  28.233   1.491  14.281
35434W        W 7859  32.315  36.104  12.480
35435W        W 7860  18.333  25.689  10.625
35436W        W 7861   3.333   4.455  13.877
35437W        W 7862  18.690  29.906   3.668
35438W        W 7863  31.121   0.379   1.401
35439W        W 7864  37.487   2.377  14.386
35440W        W 7865  21.292   6.040   1.169
35441W        W 7866  14.726  35.288  12.700
35442W        W 7867  12.620  25.576  13.420
35443W        W 7868  27.665  42.854   3.276
35444W        W 7869  14.614  22.575   1.827
35445W        W 7870  30.207  29.536  11.442
35446W        W 7871  29.554  16.488   1.166
35447W        W 7872   4.900   1.581  13.422
35448W        W 7873  42.454  31.514   0.522
35449W        W 7874  18.668  25.135  13.667
35450W        W 7875  37.532  34.429  10.100
35451W        W 7876  18.486  15.138   0.323
35452W        W 7877  43.905   5.554   0.277
35453W        W 7878  44.685  41.941  14.843
35454W        W 7879  10.832   2.440  12.601
35455W        W 7880  12.717  33.474  13.934
35456W        W 7881  33.183  41.958  13.325
35457W        W 7882   9.743  40.413  12.285
35458W        W 7883  13.317  13.084  12.389
35459W        W 7884  23.970  10.128  12.489
35460W        W 7885  10.744  17.057  11.131
35461W        W 7886  41.522  17.351   2.780
35462W        W 7887  21.402   6.624  10.930
35463W        W 7888  39.511  41.057  12.048
35464W        W 7889  31.181  43.452   3.199
35465W        W 7890  34.319  36.549   3.814
35466W        W 7891   8.344   0.780   2.926
35467W        W 7892  14.742  40.481  11.179
35468W        W 7893  28.164   1.941   2.615
35469W        W 7894  21.282   8.293   3.369
35470W        W 7895  22.524  28.579   0.416
35471W        W 7896  21.856  41.239   2.997
35472W        W 7897  34.151  42.848   1.798
35473W        W 7898  19.020  11.144  10.812
35474W        W 7899  15.160  27.032   2.795
35475W        W 7900  29.621   5.807  11.421
35476W        W 7901  23.569   3.481  10.957
35477W        W 7902  43.937  41.718  12.978
35478W        W 7903   4.429  31.608  13.905
35479W        W 7904   5.302  20.732   3.269
35480W        W 7905  36.319  13.056   0.290
35481W        W 7906  27.621  18.104   1.287
35482W        W 7907  34.901   6.275   0.304
35483W        W 7908   7.265   8.158   1.736
35484W        W 7909  34.627  14.077  13.218
35485W        W 7910   1.762  23.936   2.335
35486W        W 7911  10.666  42.409  13.571
35487W        W 7912  11.338  33.139   4.287
35488W        W 7913  44.704   8.699   0.863
35489W        W 7914   5.285  19.639   0.465
35490W        W 7915   1.390  25.484  11.934
35491W        W 7916  40.429  42.404   0.274
35492W        W 7917  42.276  39.009   4.217
35493W        W 7918   4.938  27.481  13.458
35494W        W 7919   6.729  32.825  13.383
35495W        W 7920  23.415  41.558  13.484
35496W        W 7921  29.068   4.408  13.899
35497W        W 7922   7.366   0.206   2.201
35498W        W 7923   2.422  20.286   2.585
35499W        W 7924  24.980  35.282   2.743
35500W        W 7925  30.354  37.984   2.795
35501W        W 7926   0.490  44.876  11.018
35502W        W 7927  15.589  42.950  11.170
35503W        W 7928  24.553  17.263   0.643
35504W        W 7929  38.003  15.365   2.381
35505W        W 7930   9.328  18.692   4.696
35506W        W 7931   0.831  21.077   3.707
35507W        W 7932  30.491  16.517  14.044
35508W        W 7933  32.936   9.565  12.186
35509W        W 7934  18.036   9.902   1.721
35510W        W 7935  44.862  42.873  11.667
35511W        W 7936  21.743  29.869   4.682
35512W        W 7937   3.691   4.058  11.414
35513W        W 7938  25.000  14.169  11.130
35514W        W 7939  44.914   9.307   1.401
35515W        W 7940  35.924  24.072   2.737
35516W        W 7941  32.492   1.152  11.958
35517W        W 7942   8.372  11.701   4.716
35518W        W 7943  16.708   7.150   0.051
35519W        W 7944  32.713   4.665  13.881
35520W        W 7945   8.719  13.346   2.225
35521W        W 7946  43.917  12.845   1.210
35522W        W 7947  41.959  20.761   2.857
35523W        W 7948  24.178   7.414   9.808
35524W        W 7949  41.579  22.142   2.046
35525W        W 7950  17.762   9.372  11.901
35526W        W 7951  38.003  31.818   5.081
35527W        W 7952  22.503   2.027  12.964
35528W        W 7953  41.379  15.028  10.739
35529W        W 7954  18.544  17.631   4.232
35530W        W 7955  28.770  36.696  13.712
35531W        W 7956  11.897  44.438  11.672
35532W        W 7957   7.879  42.818  14.534
35533W        W 7958   9.737  24.174   1.618
35534W        W 7959  44.624  22.534  11.059
35535W        W 7960  25.796  25.711  11.596
35536W        W 7961  35.047   9.301   1.720
35537W        W 7962  24.750  31.566   0.362
35538W        W 7963   8.927   5.356  11.723
35539W        W 7964  28.454  38.244   4.645
35540W        W 7965  19.731  17.124  14.022
35541W        W 7966  27.781   4.900   3.307
35542W        W 7967  12.783  16.688  12.813
35543W        W 7968  15.924  28.799   2.693
35544W        W 7969  43.797  17.168   3.763
35545W        W 7970  36.901  28.682   0.415
35546W        W 7971  40.827  41.215   3.183
35547W        W 7972  19.170  18.198   0.213
35548W        W 7973  38.890  32.184   2.400
35549W        W 7974  33.147   5.605   3.688
35550W        W 7975  38.139   3.944  11.774
35551W        W 7976  26.570   9.904  13.882
35552W        W 7977  23.392  32.257  13.799
35553W        W 7978  35.410  32.016   3.143
35554W        W 7979  42.967  14.675   2.948
35555W        W 7980  44.767  42.038  11.546
35556W        W 7981   5.113   2.315  14.900
35557W        W 7982  27.236  27.489   2.737
35558W        W 7983   9.667  26.485   3.090
35559W        W 7984  14.875  10.326  11.423
35560W        W 7985  10.634  27.356   2.248
35561W        W 7986  29.168  23.806   4.300
35562W        W 7987  13.089   2.394  12.456
35563W        W 7988   1.290  31.059  14.463
35564W        W 7989  21.443  19.221  12.859
35565W        W 7990  38.136  22.675   2.601
35566W        W 7991   4.439  44.840  13.076
35567W        W 7992  15.779  18.745  12.023
35568W        W 7993  30.505  37.561   4.114
35569W        W 7994  28.606  22.435  12.422
35570W        W 7995   6.374  32.309   0.238
35571W        W 7996  11.634  18.092  12.820
35572W        W 7997  21.121  27.008   4.438
35573W        W 7998  27.199  10.678  12.054
35574W        W 7999  30.182  14.180  10.630
35575W        W 8000   5.341  15.672  11.942
35576W        W 8001  28.429  25.011  11.667
35577W        W 8002  19.824  31.449  12.030
35578W        W 8003   5.909  23.614   2.145
35579W        W 8004  25.797  33.473   5.028
35580W        W 8005  35.308   2.396   2.352
35581W        W 8006  13.661  32.198   3.294
35582W        W 8007   7.234  38.718  11.056
35583W        W 8008  16.134  14.168  14.007
35584W        W 8009  23.818  12.790   9.756
35585W        W 8010   6.374  41.337  13.831
35586W        W 8011   2.523  29.178  11.131
35587W        W 8012  11.124  29.878  11.153
35588W        W 8013  27.086  28.400   2.706
35589W        W 8014  29.721  14.272   3.278
35590W        W 8015  18.582  17.130   2.331
35591W        W 8016  40.679  26.569  13.007
35592W        W 8017  18.532  23.166   2.814
35593W        W 8018  36.320  38.488   2.703
35594W        W 8019  35.926  43.588  10.754
35595W        W 8020  42.315  26.050  13.004
35596W        W 8021  14.898   4.908   1.672
35597W        W 8022  29.165  14.573   3.721
35598W        W 8023  13.759  17.247  11.603
35599W        W 8024  42.339  39.810   1.372
35600W        W 8025  36.385  32.917   0.173
35601W        W 8026  27.970  11.582   2.018
35602W        W 8027  34.867  14.568   4.193
35603W        W 8028  38.362  32.106   0.741
35604W        W 8029  26.882   5.623   4.260
35605W        W 8030  26.662  25.435  11.305
35606W        W 8031  34.840  22.330  13.026
35607W        W 8032  39.815  29.463  14.541
35608W        W 8033  29.265  30.716   0.833
35609W        W 8034  31.633  41.839   4.652
35610W        W 8035  24.572  35.607   0.483
35611W        W 8036   8.389  22.252  11.982
35612W        W 8037  24.662  43.488  11.668
35613W        W 8038   8.190   9.211   4.270
35614W        W 8039  35.541  21.031  13.066
35615W        W 8040  35.590  38.932   2.717
35616W        W 8041  34.997  11.148  12.529
35617W        W 8042  16.002  11.556  11.943
35618W        W 8043  36.076  20.228   1.669
35619W        W 8044  16.241  12.821   3.157
35620W        W 8045   4.419  15.057   3.017
35621W        W 8046  13.174   8.463  13.957
35622W        W 8047  39.311  36.039  10.499
35623W        W 8048  41.942  29.496  14.955
35624W        W 8049  39.765  32.947   0.375
35625W        W 8050  36.484  18.915   0.263
35626W        W 8051  20.302  32.459   0.528
35627W        W 8052   8.748  27.730  11.974
35628W        W 8053   4.249   5.722  12.538
35629W        W 8054   7.122   7.242  13.126
35630W        W 8055  41.988  19.782  14.985
35631W        W 8056  15.665   7.833  13.095
35632W        W 8057  25.967  17.340   0.795
35633W        W 8058  29.613   4.715   2.010
35634W        W 8059  19.120  28.066   0.563
35635W        W 8060   8.287  35.555   0.403
35636W        W 8061  42.819   2.082   5.054
35637W        W 8062  30.468  28.426  14.916
35638W        W 8063  15.201  31.893  11.018
35639W        W 8064  36.282  21.729  13.208
35640W        W 8065  19.006  20.358  14.341
35641W        W 8066  43.290  24.162   4.170
35642W        W 8067  20.017  21.533   0.948
35643W        W 8068  38.442  13.897   2.885
35644W        W 8069  11.787  29.686  11.169
35645W        W 8070  29.547  10.642   3.364
35646W        W 8071  18.941   4.003   1.850
35647W        W 8072   2.865  33.423  13.806
35648W        W 8073   8.453   3.828   2.315
35649W        W 8074  22.336  14.913   0.345
35650W        W 8075  39.968  13.566  12.945
35651W        W 8076   2.710  26.026   1.335
35652W        W 8077  15.464   0.550  12.507
35653W        W 8078   6.788  42.582   2.933
35654W        W 8079   6.070   9.663  13.285
35655W        W 8080  39.328  30.664  14.381
35656W        W 8081  38.500  44.936  11.921
35657W        W 8082  21.847   8.854   3.621
35658W        W 8083  25.683  14.431  13.028
35659W        W 8084  37.119  29.023  13.963
35660W        W 8085  17.747  27.073   3.388
35661W        W 8086   6.133  44.306   1.339
35662W        W 8087  25.517  18.620   0.512
35663W        W 8088  26.985   5.168  13.488
35664W        W 8089  16.077  43.950  14.561
35665W        W 8090  35.827   1.798  10.779
35666W        W 8091  39.915  43.264  14.834
35667W        W 8092   1.784  14.797  12.157
35668W        W 8093  23.022   9.182  13.916
35669W        W 8094  37.394  44.915   1.159
35670W        W 8095  29.636  28.043  11.054
35671W        W 8096  30.714  35.385   1.246
35672W        W 8097  21.085  40.497   4.439
35673W        W 8098   2.956   3.812   2.099
35674W        W 8099  26.670   2.973   1.216
35675W        W 8100  23.915   0.025   4.162
35676W        W 8101  40.422  31.201   0.293
35677W        W 8102  43.894  13.529   1.809
35678W        W 8103   6.678  32.777   0.741
35679W        W 8104  25.514  38.467   3.649
35680W        W 8105   5.525  15.821   0.743
35681W        W 8106  37.466  21.458  11.199
35682W        W 8107  43.381  35.064   0.850
35683W        W 8108  20.892  35.564   3.810
35684W        W 8109   8.924  15.897  12.079
35685W        W 8110  24.631  15.101   1.169
35686W        W 8111  27.058   9.430  11.548
35687W        W 8112  22.412   9.221  14.770
35688W        W 8113   4.792  32.551   1.379
35689W        W 8114  44.250  34.519  14.451
35690W        W 8115  32.131  34.890   4.072
35691W        W 8116  20.337  41.925  13.942
35692W        W 8117  19.209  15.556  10.560
35693W        W 8118  35.017   5.445  12.482
35694W        W 8119  29.626   7.853   0.715
35695W        W 8120  22.576  23.248  13.980
35696W        W 8121  11.647   3.941   1.819
35697W        W 8122  13.247   4.505   2.515
35698W        W 8123   9.407   8.276  10.582
35699W        W 8124   3.534   8.260   1.744
35700W        W 8125  39.525  25.471  14.449
35701W        W 8126  36.323  43.883   3.683
35702W        W 8127  14.204   1.631   0.200
35703W        W 8128   3.810   0.990  10.133
35704W        W 8129  35.706   8.204   2.618
35705W        W 8130   4.892   8.723  11.548
35706W        W 8131  12.317  39.180   1.889
35707W        W 8132  11.794  21.331  11.487
35708W        W 8133  30.437  27.899  14.015
35709W        W 8134  37.561  44.741   2.059
35710W        W 8135   3.742  15.980   4.102
35711W        W 8136  28.117  26.545  13.817
35712W        W 8137   4.405   5.945  13.013
35713W        W 8138  42.014  41.369   1.813
35714W        W 8139  33.460  30.526  12.540
35715W        W 8140  11.192  23.030   3.737
35716W        W 8141  14.038  20.242   2.576
35717W        W 8142  27.448   8.943   4.121
35718W        W 8143   1.204  31.571  14.534
35719W        W 8144  26.565  37.080  12.026
35720W        W 8145  18.021   1.409   4.566
35721W        W 8146  23.618  14.791   2.886
35722W        W 8147  43.430  23.713  14.302
35723W        W 8148  13.821  24.089  13.525
35724W        W 8149  12.133  22.262  14.552
35725W        W 8150   6.791   4.253  12.093
35726W        W 8151   1.267  28.736   1.492
35727W        W 8152  39.967  33.419   0.389
35728W        W 8153  29.026   4.231  11.584
35729W        W 8154   2.307  32.089   3.131
35730W        W 8155  31.959  17.776  14.872
35731W        W 8156   1.281  33.405   0.989
35732W        W 8157  14.298   5.154  12.112
35733W        W 8158   7.732   9.106   0.269
35734W        W 8159  27.919  34.783  12.495
35735W        W 8160  14.547  21.665   4.828
35736W        W 8161  26.413  35.523   4.525
35737W        W 8162  36.288   6.922   4.516
35738W        W 8163  19.937  19.184  13.092
35739W        W 8164   6.108  16.505  12.068
35740W        W 8165  12.649  39.466  12.121
35741W        W 8166   2.962  13.305   4.441
35742W        W 8167  20.120   1.947   1.165
35743W        W 8168  12.034  15.818  10.754
35744W        W 8169  25.508   4.458   2.741
35745W        W 8170  43.788  18.243  14.905
35746W        W 8171   8.577  24.639  11.009
35747W        W 8172  36.373  27.927  10.368
35748W        W 8173  17.993  23.619   1.186
35749W        W 8174  35.615   9.120  14.436
35750W        W 8175  20.327  31.365  11.981
35751W        W 8176  23.091  17.643  13.811
35752W        W 8177  38.231  31.495   2.208
35753W        W 8178  38.212  30.341  11.636
35754W        W 8179  10.557  44.884  14.979
35755W        W 8180   0.241  23.590   4.092
35756W        W 8181  14.125  43.724  13.365
35757W        W 8182  30.757  26.106  12.655
35758W        W 8183  22.080  15.247  10.430
35759W        W 8184  25.971   0.380  11.964
35760W        W 8185  14.139  44.094  11.745
35761W        W 8186  28.321  37.353  13.075
35762W        W 8187  23.584  28.712  12.976
35763W        W 8188  23.594  44.659  13.941
35764W        W 8189  24.018  19.279  12.452
35765W        W 8190  42.577  44.913  13.000
35766W        W 8191  43.969  17.168   4.691
35767W        W 8192  15.504  32.440  14.028
35768W        W 8193  28.986  18.742  13.129
35769W        W 8194  24.355  34.375   3.202
35770W        W 8195  11.723  11.154   0.428
35771W        W 8196  27.756  44.856  11.634
35772W        W 8197  14.382  35.859  10.765
35773W        W 8198  20.294  29.734  12.966
35774W        W 8199  22.509   1.762  10.680
35775W        W 8200  22.780   9.409  11.632
35776W        W 8201  37.588  12.382  13.518
35777W        W 8202   9.493  34.791  10.997
35778W        W 8203   1.303  29.614  10.384
35779W        W 8204   0.872  41.916   2.402
35780W        W 8205  14.100   6.866  11.436
35781W        W 8206  23.535  23.224  14.007
35782W        W 8207  24.856  43.078   0.233
35783W        W 8208  11.844   9.222  13.592
35784W        W 8209   4.522  24.270  11.265
35785W        W 8210   9.922  24.632  12.827
35786W        W 8211  12.225  19.756  13.133
35787W        W 8212  40.556  10.803  12.236
35788W        W 8213  43.994  21.987   2.073
35789W        W 8214  11.858   3.198  10.216
35790W        W 8215  36.096   7.718  13.362
35791W        W 8216  10.715  28.592   4.074
35792W        W 8217  10.671   9.663  13.944
35793W        W 8218  25.473   2.769   0.796
35794W        W 8219   2.485   6.569   2.202
35795W        W 8220  11.792   6.879   4.339
35796W        W 8221  10.615  42.100  10.673
35797W        W 8222  15.516   5.155   3.428
35798W        W 8223   5.652   4.400   4.679
35799W        W 8224  28.422   1.469   1.559
35800W        W 8225  19.563   5.777   2.369
35801W        W 8226  28.542  19.168  12.030
35802W        W 8227  10.274  13.605  12.079
35803W        W 8228  18.069  13.806  13.487
35804W        W 8229  32.778  26.023   0.416
35805W        W 8230  19.225  39.371   3.103
35806W        W 8231  32.585  16.519   3.338
35807W        W 8232  21.490  23.660  14.496
35808W        W 8233  26.101   6.043  10.863
35809W        W 8234   2.714   8.132   2.745
35810W        W 8235  33.984  30.990  11.711
35811W        W 8236  12.337  14.644  11.900
35812W        W 8237  16.302  37.334  13.011
35813W        W 8238  17.227  29.692  13.749
35814W        W 8239  23.670  13.591  11.897
35815W        W 8240  18.289  44.267  12.879
35816W        W 8241  32.584  42.367   1.520
35817W        W 8242  32.382  38.085  12.569
35818W        W 8243  44.093  43.755   4.168
35819W        W 8244  35.210  22.202   0.267
35820W        W 8245   2.030   9.346  14.639
35821W        W 8246  28.135  15.536   2.860
35822W        W 8247  42.837   8.596  12.906
35823W        W 8248  15.347   7.768   1.432
35824W        W 8249  37.380  27.186  10.577
35825W        W 8250  37.077  39.923   0.275
35826W        W 8251  21.049  10.107  12.110
35827W        W 8252  16.565  11.336   2.179
35828W        W 8253   1.261   2.953   3.414
35829W        W 8254  24.408   3.299   4.152
35830W        W 8255   5.236  36.118  10.649
35831W        W 8256  34.502  20.345  14.306
35832W        W 8257  11.078  19.652   1.860
35833W        W 8258   5.609  44.421  11.633
35834W        W 8259   7.158  38.463   1.407
35835W        W 8260   0.412  44.349  10.928
35836W        W 8261  31.489  28.141   0.506
35837W        W 8262  43.745  43.334   1.240
35838W        W 8263  40.910  38.033  14.850
35839W        W 8264  11.555  34.489   5.181
35840W        W 8265  36.140  35.912  10.671
35841W        W 8266  31.171  29.500   1.224
35842W        W 8267  21.467  13.676   2.866
35843W        W 8268  25.371  39.370   1.240
35844W        W 8269  13.769   1.758   1.127
35845W        W 8270  27.790  26.522   2.701
35846W        W 8271  12.812  13.581  13.932
35847W        W 8272  25.516  30.050   1.013
35848W        W 8273  40.024  11.692  11.254
35849W        W 8274   7.816  10.280   0.979
35850W        W 8275  23.221   6.924   2.746
35851W        W 8276  36.921   8.652   4.263
35852W        W 8277  24.157  35.559   3.782
35853W        W 8278  40.296  32.848   1.778
35854W        W 8279   3.286  36.337  10.501
35855W        W 8280  34.998  16.354  13.789
35856W        W 8281  18.120  42.305   0.186
35857W        W 8282  43.957  14.789   0.326
35858W        W 8283  38.543   5.801  10.976
35859W        W 8284  21.325   6.258   2.963
35860W        W 8285  36.988  23.305   3.755
35861W        W 8286  23.003   4.917  13.491
35862W        W 8287   4.981   8.304   3.261
35863W        W 8288  25.472  43.074  13.036
35864W        W 8289  34.942  25.647   3.690
35865W        W 8290  26.522  27.680  10.686
35866W        W 8291  28.047  35.487  12.033
35867W        W 8292  35.112  18.678  11.954
35868W        W 8293  43.435  35.552   2.169
35869W        W 8294   3.901  17.465  13.811
35870W        W 8295  33.135  12.197   0.708
35871W        W 8296  37.034   2.520  12.566
35872W        W 8297   0.519   8.207  12.613
35873W        W 8298  35.623  30.056   0.000
35874W        W 8299  13.941  29.000   4.521
35875W        W 8300  27.677  33.084   0.804
35876W        W 8301  18.632  35.465  10.698
35877W        W 8302   1.461  16.702   1.386
35878W        W 8303  42.911   8.768  12.434
35879W        W 8304  39.795  42.910  11.157
35880W        W 8305  33.476  19.229   3.260
35881W        W 8306   6.309  22.568   1.275
35882W        W 8307  17.020   4.473   2.323
35883W        W 8308   4.786   4.945  14.832
35884W        W 8309  14.938  17.068  11.056
35885W        W 8310  20.180  17.794   3.166
35886W        W 8311  43.841   1.055  12.285
35887W        W 8312  12.385  13.122  10.934
35888W        W 8313   7.870   6.519   1.172
35889W        W 8314  36.009  19.335   3.331
35890W        W 8315   7.244  15.343   3.673
35891W        W 8316  35.649  10.108  11.942
35892W        W 8317  18.789  40.561   2.487
35893W        W 8318  18.063  15.231  12.073
35894W        W 8319   4.995  33.369   2.308
35895W        W 8320   9.808   1.225  13.011
35896W        W 8321   7.324  36.952  13.129
35897W        W 8322  30.902   0.786   1.045
35898W        W 8323  32.236  29.448  11.565
35899W        W 8324   6.983   6.864   1.826
35900W        W 8325  22.789  10.631   4.841
35901W        W 8326  16.712  23.111   2.364
35902W        W 8327  34.998  20.643  11.804
35903W        W 8328  15.753  30.657  14.347
35904W        W 8329   8.277  18.229   1.936
35905W        W 8330   2.253  18.662  10.707
35906W        W 8331  27.233   3.747  13.148
35907W        W 8332   1.574  37.180  11.236
35908W        W 8333  16.285  44.511   2.245
35909W        W 8334  30.574  24.126   4.921
35910W        W 8335  42.229  23.223   3.310
35911W        W 8336  18.053  24.610  14.263
35912W        W 8337  16.200  21.680  14.737
35913W        W 8338  27.114  42.433   0.036
35914W        W 8339  13.436   9.739  11.681
35915W        W 8340  11.203  17.181  11.664
35916W        W 8341  10.878   4.421   3.808
35917W        W 8342   6.715  28.997  12.523
35918W        W 8343  39.312  19.959  10.529
35919W        W 8344  34.972  31.501  12.059
35920W        W 8345  16.022   5.385   0.407
35921W        W 8346  40.063  22.546  10.888
35922W        W 8347  31.832  41.273   0.180
35923W        W 8348  25.640   7.655  13.874
35924W        W 8349  33.605  14.899  11.996
35925W        W 8350  41.315  43.086   4.526
35926W        W 8351  26.461  40.953  14.268
35927W        W 8352  19.513   1.577  11.479
35928W        W 8353  11.035   5.806  12.967
35929W        W 8354  15.731  32.326   3.086
35930W        W 8355  44.914  26.385  12.600
35931W        W 8356  19.462   5.855   0.888
35932W        W 8357  19.832  38.984   3.683
35933W        W 8358  11.701  21.792   9.630
35934W        W 8359  34.671  22.774   4.566
35935W        W 8360  30.070  25.742   3.326
35936W        W 8361   2.774  20.176   0.076
35937W        W 8362  21.784  13.316  14.469
35938W        W 8363  22.872  34.488  13.839
35939W        W 8364  10.671  33.440  14.456
35940W        W 8365  11.123   1.417  13.444
35941W        W 8366  19.498  34.374   4.356
35942W        W 8367  11.717  27.611  12.832
35943W        W 8368  11.309   0.828  12.327
35944W        W 8369   7.897  29.649  13.467
35945W        W 8370  30.668  29.922   2.758
35946W        W 8371  29.021  29.933   3.678
35947W        W 8372  10.777  43.511   1.862
35948W        W 8373  13.308  22.872  10.574
35949W        W 8374  17.845  24.297  14.920
35950W        W 8375  23.008  35.489  11.483
35951W        W 8376  21.319  10.163  10.346
35952W        W 8377   3.833   2.113  12.268
35953W        W 8378  34.340  24.111  13.423
35954W        W 8379  18.278   0.736  13.531
35955W        W 8380   0.814  16.104  14.312
35956W        W 8381   4.883  39.924  12.104
35957W        W 8382  39.765  25.938  11.154
35958W        W 8383  35.429  37.813  13.413
35959W        W 8384  44.915  16.262  14.824
35960W        W 8385  25.598  25.027  14.031
35961W        W 8386  11.322   7.387   1.882
35962W        W 8387  44.997   1.836  13.550
35963W        W 8388  39.169  33.421   1.033
35964W        W 8389  33.021   8.643   0.916
35965W        W 8390  37.344  20.735   0.422
35966W        W 8391   6.851  24.832  10.713
35967W        W 8392   7.207   9.748  10.768
35968W        W 8393  19.661  26.008  12.419
35969W        W 8394  17.310  16.256  11.217
35970W        W 8395  22.066  31.418  11.991
35971W        W 8396  11.074  24.090   4.395
35972W        W 8397  29.531  17.046   3.213
35973W        W 8398  16.154  24.859  14.084
35974W        W 8399  17.650  17.430   4.483
35975W        W 8400  34.285  20.774   0.484
35976W        W 8401  36.355   7.188  11.252
35977W        W 8402   5.084  39.464   4.305
35978W        W 8403  32.426  35.079   3.676
35979W        W 8404  34.758  43.827  11.989
35980W        W 8405  33.079  35.570  14.312
35981W        W 8406  37.390  13.702  13.144
35982W        W 8407  36.845  23.682  13.852
35983W        W 8408  19.666  42.518   4.530
35984W        W 8409  19.079  10.628   4.120
35985W        W 8410  22.642  32.827  11.437
35986W        W 8411   6.669  24.252  12.419
35987W        W 8412  25.270  27.903   4.713
35988W        W 8413  13.449   0.342  14.564
35989W        W 8414   4.919  40.869   0.916
35990W        W 8415  43.214  42.699   1.584
35991W        W 8416  10.217   6.667   3.588
35992W        W 8417  38.953  30.421   3.022
35993W        W 8418  21.373  17.665   3.422
35994W        W 8419  37.433  12.736   1.206
35995W        W 8420   0.343   5.427  14.319
35996W        W 8421  24.527  33.222  14.342
35997W        W 8422  28.920  25.544   2.975
35998W        W 8423  37.298  34.447   2.890
35999W        W 8424  22.015  28.393  11.109
36000W        W 8425   7.588   2.242  12.555
36001W        W 8426   4.701  43.925  14.676
36002W        W 8427  18.693   8.418  14.922
36003W        W 8428  37.382  44.311   3.248
36004W        W 8429   8.859  42.396  13.690
36005W        W 8430   5.829  33.851   4.136
36006W        W 8431  11.738  41.700  10.716
36007W        W 8432  35.420  25.570  10.812
36008W        W 8433   2.717  37.439   1.165
36009W        W 8434  15.848  22.117   4.151
36010W        W 8435  27.763   7.824   4.336
36011W        W 8436   4.247  10.475  11.571
36012W        W 8437  30.980  37.109  13.053
36013W        W 8438  42.298  11.201   3.327
36014W        W 8439  24.213  32.476   9.514
36015W        W 8440  41.474  19.310   0.799
36016W        W 8441  36.931  26.059   1.472
36017W        W 8442  30.477   1.719   3.228
36018W        W 8443  41.816  12.901  11.836
36019W        W 8444   4.289  14.780  12.237
36020W        W 8445   7.924  37.102  14.554
36021W        W 8446  43.427  35.559   0.744
36022W        W 8447   2.749  36.888  14.417
36023W        W 8448  23.149  28.033   3.719
36024W        W 8449  33.166  14.054   0.285
36025W        W 8450  38.271  39.080  12.683
36026W        W 8451   2.864  15.348   2.781
36027W        W 8452   9.528  40.855   0.389
36028W        W 8453  35.855  15.534  11.896
36029W        W 8454  26.200  14.536  11.133
36030W        W 8455  20.243  34.296  13.945
36031W        W 8456  43.728   8.394  12.379
36032W        W 8457  11.646   1.496  13.468
36033W        W 8458  14.365  15.042  11.937
36034W        W 8459  41.087  16.425  12.470
36035W        W 8460  28.324  35.546  10.743
36036W        W 8461  27.727  22.713   1.362
36037W        W 8462   8.148  23.009   2.846
36038W        W 8463   3.449  29.851   3.690
36039W        W 8464   9.685  23.092   4.680
36040W        W 8465  18.121  23.191  12.058
36041W        W 8466  19.722  26.269   4.705
36042W        W 8467  13.231   7.610   1.874
36043W        W 8468  25.250   8.390   2.057
36044W        W 8469  17.436  33.355   4.723
36045W        W 8470  44.306  12.113   5.197
36046W        W 8471  20.704  28.233   2.349
36047W        W 8472  20.708  23.085   2.196
36048W        W 8473  17.658  22.004   4.247
36049W        W 8474   5.279   9.131  10.509
36050W        W 8475   5.205   7.356  12.748
36051W        W 8476  22.968  33.933   3.198
36052W        W 8477  16.733  30.205   0.299
36053W        W 8478  14.678   4.519   4.394
36054W        W 8479   3.420   0.793   3.566
36055W        W 8480  24.636  22.678  13.581
36056W        W 8481   7.284  32.343  13.031
36057W        W 8482   6.071  43.324  10.394
36058W        W 8483  40.177   8.410  13.064
36059W        W 8484  38.349  33.433   2.441
36060W        W 8485  39.097   0.566   3.434
36061W        W 8486  36.554  41.341  13.719
36062W        W 8487   3.784  23.681   1.023
36063W        W 8488  14.218  10.790   2.139
36064W        W 8489  37.817  21.419  11.573
36065W        W 8490  13.418  44.249  11.219
36066W        W 8491   3.310  44.747   1.360
36067W        W 8492  13.005   0.117  14.795
36068W        W 8493  25.126  20.757  11.603
36069W        W 8494  40.982  13.398   0.429
36070W        W 8495  20.571  23.490  13.080
36071W        W 8496  39.049  38.385   2.194
36072W        W 8497  29.970  26.887   5.192
36073W        W 8498  18.080  37.430  14.764
36074W        W 8499  34.630  14.355   2.973
36075W        W 8500  32.837  24.580  10.748
36076W        W 8501  25.555  11.776   4.285
36077W        W 8502   6.701  20.054   1.246
36078W        W 8503  40.806  22.126  12.498
36079W        W 8504  13.797   0.043  12.591
36080W        W 8505  11.316  29.740   2.623
36081W        W 8506  27.970  33.140   5.130
36082W        W 8507   2.690  24.001  13.590
36083W        W 8508  19.101  32.123  12.077
36084W        W 8509  23.955  31.995   0.061
36085W        W 8510  27.659  32.310  14.355
36086W        W 8511  12.063   9.068  12.556
36087W        W 8512  41.972  32.706   0.260
36088W        W 8513  24.525   9.655  14.863
36089W        W 8514  35.207  28.447  13.884
36090W        W 8515  25.302  30.681   4.597
36091W        W 8516   4.356  16.673  11.630
36092W        W 8517  37.468   2.820  10.671
36093W        W 8518  39.907  14.448  13.399
36094W        W 8519  36.671  35.549  12.759
36095W        W 8520  25.241  40.492  14.239
36096W        W 8521  15.149   4.792  13.082
36097W        W 8522  20.266  17.740   0.723
36098W        W 8523  22.919   2.967   2.562
36099W        W 8524  44.227  43.300   5.045
36100W        W 8525  16.811  22.422   0.303
36101W        W 8526  33.837  37.015   4.158
36102W        W 8527  13.251   1.918   9.723
36103W        W 8528  21.179  34.065  14.148
36104W        W 8529  21.626  18.854  13.283
36105W        W 8530   8.455  36.589  10.608
36106W        W 8531  11.861   7.723  13.022
36107W        W 8532   3.559  33.055   0.792
36108W        W 8533   4.405  38.222   1.359
36109W        W 8534  34.174  30.157  10.780
36110W        W 8535  15.772  41.505  13.362
36111W        W 8536  37.335  39.453  14.927
36112W        W 8537  16.167   8.904  11.170
36113W        W 8538  17.291  29.650   1.206
36114W        W 8539  28.914  36.767   4.422
36115W        W 8540   4.616  30.580  13.265
36116W        W 8541  27.148  40.060  11.081
36117W        W 8542   5.433  43.501   2.363
36118W        W 8543  14.835  39.108   1.426
36119W        W 8544   7.129   6.503   0.835
36120W        W 8545  11.672  11.626  13.477
36121W        W 8546  43.930  36.923  12.496
36122W        W 8547   8.233  26.523  14.226
36123W        W 8548  13.337  29.023  11.455
36124W        W 8549  19.069  33.884  12.429
36125W        W 8550  29.399  43.339  14.360
36126W        W 8551   5.527   6.811   0.169
36127W        W 8552   5.806   4.925   1.501
36128W        W 8553   5.683  16.979  13.349
36129W        W 8554  31.937  32.024   1.807
36130W        W 8555  34.451   2.358  13.436
36131W        W 8556  35.579   3.512   1.135
36132W        W 8557  22.989  35.084  14.841
36133W        W 8558  38.868  34.063  12.353
36134W        W 8559   6.421  22.554  14.254
36135W        W 8560  44.765  12.742   1.788
36136W        W 8561   3.856  35.359   3.550
36137W        W 8562  16.456  17.032  11.181
36138W        W 8563  43.263  19.771  11.538
36139W        W 8564  40.228  20.578  14.307
36140W        W 8565  29.656  44.095  14.918
36141W        W 8566  34.643   5.348   1.047
36142W        W 8567  38.043   0.967  13.744
36143W        W 8568   9.186   0.033   2.425
36144W        W 8569  30.375   5.407   3.071
36145W        W 8570  11.344   7.770  12.509
36146W        W 8571  44.024  25.791   0.401
36147W        W 8572  44.049  16.735   2.627
36148W        W 8573  34.621   3.673  13.237
36149W        W 8574   7.596  10.458  11.631
36150W        W 8575  28.995  17.562  12.114
36151W        W 8576  43.241   9.274  14.272
36152W        W 8577  42.345  13.618  11.981
36153W        W 8578  10.855  20.464   0.145
36154W        W 8579  10.961  20.203  13.827
36155W        W 8580  18.496  25.621   4.126
36156W        W 8581  39.016   6.672   0.711
36157W        W 8582   0.400  23.731  13.550
36158W        W 8583  31.183  12.165   4.912
36159W        W 8584  43.489  10.272  10.706
36160W        W 8585   1.994  28.085  14.774
36161W        W 8586  44.353  36.492   0.750
36162W        W 8587  12.014  42.747  11.160
36163W        W 8588  21.309   0.227  12.235
36164W        W 8589  40.921  32.870   1.017
36165W        W 8590   5.131  31.337   4.459
36166W        W 8591  16.168   4.620   2.266
36167W        W 8592   0.308  34.360  13.435
36168W        W 8593  25.729  19.962   0.897
36169W        W 8594  38.387   0.842  11.524
36170W        W 8595  12.927   3.733   0.484
36171W        W 8596  37.084  44.733   3.362
36172W        W 8597  36.848  19.640   4.616
36173W        W 8598  31.661  14.554   1.229
36174W        W 8599  37.646  11.090   3.739
36175W        W 8600  35.898  32.144   0.445
36176W        W 8601  21.218   9.946   0.855
36177W        W 8602  31.232   9.789  12.270
36178W        W 8603   4.297  24.702   4.603
36179W        W 8604  36.060   8.633  12.364
36180W        W 8605  23.595  37.143   3.867
36181W        W 8606  24.748  13.246   1.224
36182W        W 8607  13.663   6.694   3.220
36183W        W 8608  35.887   1.327  11.946
36184W        W 8609  17.071   3.572   1.833
36185W        W 8610  38.337  24.211  11.926
36186W        W 8611  17.626  12.391  12.068
36187W        W 8612   8.439  28.547   3.692
36188W        W 8613   0.391  29.398  12.488
36189W        W 8614  32.850  40.315  12.447
36190W        W 8615   9.452  14.754   0.923
36191W        W 8616  11.377   7.961  13.579
36192W        W 8617  44.505   4.171   0.081
36193W        W 8618   0.474   1.525   0.714
36194W        W 8619  16.963  27.580   1.933
36195W        W 8620  34.015   3.348  12.464
36196W        W 8621  44.351   5.784   1.189
36197W        W 8622  36.905  23.209   1.411
36198W        W 8623  30.963  27.699  14.726
36199W        W 8624  36.671  21.489   2.841
36200W        W 8625  22.196  12.755  11.902
36201W        W 8626   5.390  20.296  11.222
36202W        W 8627  41.500   2.892   0.434
36203W        W 8628  20.103   4.639   0.386
36204W        W 8629  18.372   1.811   4.930
36205W        W 8630  15.278  44.026  13.572
36206W        W 8631   2.673   8.124   4.258
36207W        W 8632  25.430  13.261  13.114
36208W        W 8633  10.858   3.491  14.000
36209W        W 8634  30.963  30.388  13.468
36210W        W 8635  20.913  36.462  12.494
36211W        W 8636  37.878   5.618  11.587
36212W        W 8637   3.296  23.715   2.200
36213W        W 8638  43.944  30.373   4.225
36214W        W 8639  43.046   9.181  11.155
36215W        W 8640  24.766  24.702   1.177
36216W        W 8641  32.238  19.910   2.661
36217W        W 8642  43.466  11.751   2.913
36218W        W 8643  12.207  24.224   2.652
36219W        W 8644  10.392  17.628  13.413
36220W        W 8645  33.875  31.466  11.905
36221W        W 8646  26.291  22.478  12.682
36222W        W 8647  28.153  12.514   2.676
36223W        W 8648  31.128  19.013   4.104
36224W        W 8649  35.917   5.241   4.295
36225W        W 8650  19.897  12.244   4.463
36226W        W 8651  40.849   1.031  13.283
36227W        W 8652   3.710  35.539  10.542
36228W        W 8653  16.332  24.998  11.488
36229W        W 8654  14.526  19.813   2.261
36230W        W 8655  16.407  32.047   4.332
36231W        W 8656  40.575   3.061  14.804
36232W        W 8657   3.844   3.248  11.050
36233W        W 8658  33.022  31.511  11.582
36234W        W 8659  24.821  14.061   5.065
36235W        W 8660  44.849  34.069   4.049
36236W        W 8661  26.505  27.015  14.947
36237W        W 8662  22.749  36.635   1.716
36238W        W 8663  40.036  26.695   4.215
36239W        W 8664  23.800  43.877   4.424
36240W        W 8665  17.725  30.008  10.413
36241W        W 8666  25.345  37.612   2.784
36242W        W 8667   8.746  23.433  14.762
36243W        W 8668  13.709   4.464   2.757
36244W        W 8669  14.720   3.010   2.456
36245W        W 8670  23.486  14.191   0.293
36246W        W 8671  16.557  37.913  14.425
36247W        W 8672   5.826  43.086   0.895
36248W        W 8673  43.401  26.651   0.233
36249W        W 8674  39.423  34.082   3.291
36250W        W 8675   6.996   5.697   0.434
36251W        W 8676  13.374   1.934  13.357
36252W        W 8677  27.615  24.631  11.163
36253W        W 8678  13.409   6.683  11.223
36254W        W 8679   8.356  11.371  14.304
36255W        W 8680   1.431  21.246  10.831
36256W        W 8681  12.931  29.248   3.708
36257W        W 8682  13.250  11.161   0.976
36258W        W 8683  12.427  44.450   3.650
36259W        W 8684  22.271  26.107   1.296
36260W        W 8685   1.386  40.807  12.374
36261W        W 8686  22.244  11.368  14.317
36262W        W 8687  19.909   1.204  11.492
36263W        W 8688  22.255  18.561   2.384
36264W        W 8689  20.775   3.982   2.693
36265W        W 8690   2.163  27.695   2.375
36266W        W 8691  44.750  29.146   1.542
36267W        W 8692  14.319  36.334   3.824
36268W        W 8693  17.338   0.109   2.897
36269W        W 8694   9.611   1.044   4.187
36270W        W 8695  10.693  44.884  11.650
36271W        W 8696  27.945  43.363   2.875
36272W        W 8697   5.319  15.115   4.502
36273W        W 8698  35.545   9.765   4.270
36274W        W 8699  22.239   7.290  12.401
36275W        W 8700  41.000  22.030  14.850
36276W        W 8701  41.949   1.068   3.172
36277W        W 8702  15.407  31.178   4.271
36278W        W 8703  23.512  24.738  14.331
36279W        W 8704   8.208  40.556  14.052
36280W        W 8705  27.470   7.365  13.089
36281W        W 8706  36.455  27.781   2.250
36282W        W 8707  18.807  33.880  14.385
36283W        W 8708  29.567  28.277  13.487
36284W        W 8709  39.810  30.595   3.626
36285W        W 8710  43.056  20.363   3.257
36286W        W 8711  25.920   0.245   0.798
36287W        W 8712  19.573   0.205   1.122
36288W        W 8713  28.938   4.144   1.674
36289W        W 8714   5.281  28.712  14.567
36290W        W 8715  25.059  44.855   3.112
36291W        W 8716  20.851  27.138   2.350
36292W        W 8717  31.544  41.319   0.648
36293W        W 8718  30.681   5.658   1.862
36294W        W 8719  15.259  43.004  12.004
36295W        W 8720   7.280  35.611   0.972
36296W        W 8721  24.984  21.237  14.916
36297W        W 8722  19.275  29.271   1.473
36298W        W 8723  13.439  37.990  13.985
36299W        W 8724  44.021  14.795   4.522
36300W        W 8725  22.500  12.280  13.826
36301W        W 8726  25.311  31.851   5.472
36302W        W 8727  36.622  19.282  12.443
36303W        W 8728  38.460  43.050   1.656
36304W        W 8729  10.280  41.104  12.550
36305W        W 8730  44.338  20.819   2.746
36306W        W 8731  19.609   0.172  10.658
36307W        W 8732  21.722  35.602  12.765
36308W        W 8733  36.323  22.643  11.117
36309W        W 8734   6.137   3.451  12.047
36310W        W 8735  18.502  38.400  12.973
36311W        W 8736   7.161  27.436  11.642
36312W        W 8737  38.249  30.280   2.709
36313W        W 8738  29.452  39.455  12.836
36314W        W 8739  35.497  20.998  14.916
36315W        W 8740  24.694  34.820  13.008
36316W        W 8741  16.433  37.816  13.087
36317W        W 8742  15.615  17.335   0.875
36318W        W 8743  23.470  41.709   0.905
36319W        W 8744  25.272  10.238  13.988
36320W        W 8745   3.479  21.732   1.049
36321W        W 8746  10.942  27.008   1.988
36322W        W 8747  31.894  44.773  13.564
36323W        W 8748  17.065  40.836  14.437
36324W        W 8749  25.571  18.496  14.456
36325W        W 8750   1.696  20.692   4.613
36326W        W 8751   8.398  30.145   0.805
36327W        W 8752  25.747   6.167  11.203
36328W        W 8753  41.961  30.607   2.159
36329W        W 8754  36.958  12.126  10.897
36330W        W 8755  24.055  35.444  13.547
36331W        W 8756  35.360  17.127  10.872
36332W        W 8757  19.621   8.523  11.646
36333W        W 8758   2.659  21.989  14.472
36334W        W 8759  44.003  33.605   4.890
36335W        W 8760  44.313  24.134   4.213
36336W        W 8761  18.576  29.183  11.893
36337W        W 8762  43.194   3.834  13.040
36338W        W 8763   0.842  26.600   1.847
36339W        W 8764  32.662  26.492  12.458
36340W        W 8765  35.931  19.124   0.371
36341W        W 8766   4.524   4.335  11.242
36342W        W 8767  17.027  22.987  12.343
36343W        W 8768  15.129   3.199   2.225
36344W        W 8769  14.928  19.033  14.467
36345W        W 8770  24.149  41.950   4.487
36346W        W 8771  27.565   9.325  11.619
36347W        W 8772  31.715   3.764   2.790
36348W        W 8773  30.714  12.236   4.695
36349W        W 8774  28.596  44.061   1.426
36350W        W 8775  16.165   8.212  10.689
36351W        W 8776  22.695  20.164   3.219
36352W        W 8777   7.877  33.533   4.586
36353W        W 8778  42.276  14.602  12.397
36354W        W 8779  40.498   3.298   0.252
36355W        W 8780  21.979  31.002   4.394
36356W        W 8781   5.419  17.831  11.150
36357W        W 8782  27.138  15.884  12.969
36358W        W 8783  39.800  20.618   3.682
36359W        W 8784  31.452  16.638   2.795
36360W        W 8785  16.759   5.272  12.643
36361W        W 8786  23.544  36.388   1.306
36362W        W 8787  29.127   3.446   2.157
36363W        W 8788  11.849  24.094   3.789
36364W        W 8789  25.105  41.414  12.249
36365W        W 8790  15.826  24.034   0.339
36366W        W 8791  40.399  16.490   3.661
36367W        W 8792  33.341  16.050  12.461
36368W        W 8793  29.668   3.366   3.688
36369W        W 8794  40.074  32.956   1.311
36370W        W 8795  25.991  24.989  11.639
36371W        W 8796  28.362  19.579  14.497
36372W        W 8797  25.685   5.486  13.448
36373W        W 8798  34.385   8.372  14.014
36374W        W 8799  21.265  24.608  13.300
36375W        W 8800  17.485  24.265   2.755
36376W        W 8801  28.934   2.243   3.218
36377W        W 8802  31.105   9.662  11.786
36378W        W 8803  30.605  13.816   2.329
36379W        W 8804  34.555  35.817   4.848
36380W        W 8805  38.864   7.914   1.938
36381W        W 8806  10.149  20.800   4.835
36382W        W 8807  38.277  26.129   0.368
36383W        W 8808  24.103  16.138  13.791
36384W        W 8809  28.094  23.170  14.809
36385W        W 8810   4.515  10.300   2.334
36386W        W 8811  25.325  22.688   2.764
36387W        W 8812  15.059  14.261  12.579
36388W        W 8813  41.357  18.389  10.681
36389W        W 8814  25.915  44.285  11.171
36390W        W 8815  31.220  43.491   4.581
36391W        W 8816  32.504  36.957   2.016
36392W        W 8817  10.905   0.144  11.264
36393W        W 8818  39.538  44.280   0.489
36394W        W 8819  31.402  31.001  11.508
36395W        W 8820  15.102  39.055   3.741
36396W        W 8821   2.954  37.020   4.244
36397W        W 8822  25.960  28.945  13.042
36398W        W 8823  31.317   0.480   0.015
36399W        W 8824  39.106  42.094   0.308
36400W        W 8825  28.984  25.706   0.940
36401W        W 8826  28.463   2.878   1.979
36402W        W 8827   3.626  30.719  12.615
36403W        W 8828   7.065   5.286   3.751
36404W        W 8829  10.602  42.924  14.583
36405W        W 8830  23.537  16.751  14.546
36406W        W 8831  33.406  19.943  13.440
36407W        W 8832   5.757  13.704   1.366
36408W        W 8833  36.117  39.467  11.513
36409W        W 8834  16.143  18.353  12.098
36410W        W 8835  36.379  37.767  11.390
36411W        W 8836  14.388  38.992  12.646
36412W        W 8837  12.002  19.534   2.257
36413W        W 8838  39.634  15.845   4.550
36414W        W 8839  44.409  12.128   0.102
36415W        W 8840  18.039  11.619   3.863
36416W        W 8841  20.301  36.652   0.230
36417W        W 8842  10.794  18.063  10.719
36418W        W 8843  31.165  24.230   4.116
36419W        W 8844  43.958  37.510  11.489
36420W        W 8845  23.704  12.726   2.739
36421W        W 8846  42.443  38.648  10.639
36422W        W 8847  38.823   8.923   2.764
36423W        W 8848   4.144  28.616  14.277
36424W        W 8849  11.811  30.053   4.304
36425W        W 8850  12.404  36.674   2.722
36426W        W 8851   4.839   9.231  13.418
36427W        W 8852  38.812   9.660   4.918
36428W        W 8853  21.729   3.920  12.971
36429W        W 8854   4.335  35.440   3.316
36430W        W 8855  11.553  44.798  13.804
36431W        W 8856   2.831  12.488   3.789
36432W        W 8857  16.026   4.785  14.445
36433W        W 8858  29.489   7.659   2.977
36434W        W 8859  30.002  36.298   3.725
36435W        W 8860   4.459  20.330  12.478
36436W        W 8861  17.562  30.467  10.621
36437W        W 8862  41.839   2.764   2.290
36438W        W 8863   0.831   4.501   5.073
36439W        W 8864  26.603   6.588   4.038
36440W        W 8865  23.277   3.801   3.161
36441W        W 8866  22.639   8.953  11.840
36442W        W 8867  14.285  25.321   1.389
36443W        W 8868  44.427  28.368   4.853
36444W        W 8869  29.184  32.575   4.334
36445W        W 8870  40.026  41.400   4.173
36446W        W 8871  15.680  40.302   3.119
36447W        W 8872  11.662   4.762   0.433
36448W        W 8873  40.932  16.397   2.850
36449W        W 8874  17.183  10.457  14.555
36450W        W 8875  38.390   5.420  11.667
36451W        W 8876   4.367   2.717   4.106
36452W        W 8877   7.133   0.033   3.390
36453W        W 8878  26.888   8.927   4.098
36454W        W 8879  17.770  22.159  12.309
36455W        W 8880  43.907  31.187   1.630
36456W        W 8881   0.872  22.163  13.908
36457W        W 8882  33.702  37.969  13.854
36458W        W 8883   2.797   7.927  14.416
36459W        W 8884  33.628  26.219  14.510
36460W        W 8885  44.870   9.229  14.042
36461W        W 8886  32.467  18.762   4.795
36462W        W 8887  30.502  21.022  13.459
36463W        W 8888  39.781  42.378   4.558
36464W        W 8889   8.298  44.975  12.581
36465W        W 8890  11.204  23.195   3.261
36466W        W 8891  32.606  21.235   4.410
36467W        W 8892  38.472   3.257   3.055
36468W        W 8893  44.320  31.140   2.267
36469W        W 8894  12.187  27.161   4.666
36470W        W 8895  37.255  26.169   4.821
36471W        W 8896  13.451  43.732   1.736
36472W        W 8897  27.083  27.677   4.573
36473W        W 8898  15.540  42.134  12.030
36474W        W 8899  26.046  31.983  12.098
36475W        W 8900  16.171   5.711  12.874
36476W        W 8901   7.977  40.489  11.093
36477W        W 8902  33.931   3.508   3.720
36478W        W 8903  36.856  16.321  11.682
36479W        W 8904   6.943  30.890   4.488
36480W        W 8905  30.873   7.253  11.246
36481W        W 8906  44.435  41.581  13.087
36482W        W 8907  40.923  33.622  11.466
36483W        W 8908  11.650   3.337   1.437
36484W        W 8909  20.924  20.215   2.829
36485W        W 8910  24.159  23.694  13.893
36486W        W 8911  11.803  12.121   0.343
36487W        W 8912  27.106  42.379   4.337
36488W        W 8913   9.216  41.844  14.790
36489W        W 8914  16.021  27.087   2.418
36490W        W 8915  21.050  37.958  11.490
36491W        W 8916   8.704  40.361   4.519
36492W        W 8917   8.389  21.370  12.926
36493W        W 8918   3.003  27.639  11.597
36494W        W 8919  22.637   7.202   4.798
36495W        W 8920  27.528  16.721  11.057
36496W        W 8921  17.506  23.370   3.163
36497W        W 8922  31.530  27.008  11.935
36498W        W 8923  10.668  13.926  12.062
36499W        W 8924  15.195  42.979   4.884
36500W        W 8925  41.006  26.578   1.703
36501W        W 8926  40.026  27.356   0.808
36502W        W 8927  17.787  19.306   1.698
36503W        W 8928  22.106  22.576   0.961
36504W        W 8929  25.623  40.040   2.836
36505W        W 8930   8.681  33.044   3.725
36506W        W 8931  16.858  17.681   4.600
36507W        W 8932   6.134  23.396  14.923
36508W        W 8933   7.674   9.004  10.596
36509W        W 8934   7.774  18.471   1.873
36510W        W 8935  38.980  37.966   2.822
36511W        W 8936   3.722  13.283  13.025
36512W        W 8937   7.912  18.845   4.451
36513W        W 8938  17.024  38.870   1.409
36514W        W 8939  38.069  40.306   3.145
36515W        W 8940   8.315  16.870   4.778
36516W        W 8941  42.395  22.598   9.646
36517W        W 8942   5.071  44.553  10.634
36518W        W 8943  17.114  31.584   0.274
36519W        W 8944  33.571  31.816   1.645
36520W        W 8945  11.015  15.156  11.621
36521W        W 8946   9.853  27.446  13.587
36522W        W 8947  38.067  31.529  13.869
36523W        W 8948  25.905   1.313   2.095
36524W        W 8949   8.871  21.239   3.310
36525W        W 8950  21.588  36.397  14.765
36526W        W 8951   1.824  10.177  11.541
36527W        W 8952  29.384  29.569  12.519
36528W        W 8953  32.928  12.331  10.721
36529W        W 8954  17.159  11.693  10.143
36530W        W 8955   5.883  44.338   0.390
36531W        W 8956   0.651  34.525  13.775
36532W        W 8957   4.317  23.964  14.423
36533W        W 8958  16.488   8.709  14.879
36534W        W 8959  20.419   7.814  11.661
36535W        W 8960  28.977  20.650   1.894
36536W        W 8961  27.405  24.943   3.381
36537W        W 8962  41.575  12.103   2.164
36538W        W 8963  21.989  34.501  10.708
36539W        W 8964  14.087  37.091   0.161
36540W        W 8965  21.234  38.485   2.129
36541W        W 8966  26.100  35.612  14.913
36542W        W 8967  36.989   6.679   1.650
36543W        W 8968  44.533  24.219   4.674
36544W        W 8969  36.644  27.115  14.801
36545W        W 8970   9.904   4.575   4.093
36546W        W 8971   7.343  26.471   0.439
36547W        W 8972   6.488  25.902  10.668
36548W        W 8973  41.769  11.180   2.803
36549W        W 8974  27.708  21.537  14.766
36550W        W 8975  41.627  27.077   4.111
36551W        W 8976  22.755  43.352   4.326
36552W        W 8977  22.679  33.144   4.302
36553W        W 8978  10.603  16.730  10.579
36554W        W 8979  10.837  39.870  12.430
36555W        W 8980   4.821  44.419   1.923
36556W        W 8981  26.607  10.763  10.738
36557W        W 8982  15.108  13.438  11.098
36558W        W 8983  44.546  22.190  13.413
36559W        W 8984  28.919   4.314  14.402
36560W        W 8985  18.768  17.346   1.654
36561W        W 8986  30.526  38.025   3.753
36562W        W 8987  25.606  10.890   4.772
36563W        W 8988  21.719  10.742   0.649
36564W        W 8989  19.801  43.738   3.644
36565W        W 8990   4.449  37.500  13.793
36566W        W 8991  34.638  41.819  13.944
36567W        W 8992   2.768  27.518   1.249
36568W        W 8993  12.747   4.246  10.397
36569W        W 8994  36.438   0.743  14.366
36570W        W 8995  42.815  29.598   2.634
36571W        W 8996  10.319  14.738  14.042
36572W        W 8997  44.445   4.793  13.059
36573W        W 8998  26.508   4.427  13.444
36574W        W 8999   8.447  18.586   1.014
36575W        W 9000  23.788  33.138  14.784
36576W        W 9001  35.348  10.231  12.930
36577W        W 9002  18.249  21.876  14.356
36578W        W 9003  29.628  32.598   4.072
36579W        W 9004  11.143  20.021   2.419
36580W        W 9005   6.773  43.945   2.108
36581W        W 9006  31.859  34.472   4.225
36582W        W 9007  20.737  27.433   3.656
36583W        W 9008   9.255  20.719  11.912
36584W        W 9009  36.494  37.039   1.672
36585W        W 9010  28.936  40.713   2.578
36586W        W 9011  35.852   6.646   4.512
36587W        W 9012  12.454   9.414   1.847
36588W        W 9013  20.296  40.495  10.523
36589W        W 9014   0.755  30.604   2.372
36590W        W 9015  34.059  19.281  11.438
36591W        W 9016  33.504  35.918   4.677
36592W        W 9017   8.664  11.601  12.837
36593W        W 9018  21.728  44.107   3.608
36594W        W 9019  25.343  15.605   1.713
36595W        W 9020   1.469   0.669   3.374
36596W        W 9021  29.907  33.659  13.520
36597W        W 9022  36.041  13.614  13.013
36598W        W 9023   5.001   0.352  10.933
36599W        W 9024  24.770  42.855   3.638
36600W        W 9025  26.567  44.489  11.498
36601W        W 9026  17.680   6.872   3.567
36602W        W 9027  34.093  16.372  11.612
36603W        W 9028  40.612  15.582  11.149
36604W        W 9029   4.879  29.871  12.067
36605W        W 9030  38.334  43.309   4.446
36606W        W 9031  26.993  22.722   3.725
36607W        W 9032  32.406  32.005   1.535
36608W        W 9033  37.976  38.511  14.510
36609W        W 9034  41.851  43.354  12.546
36610W        W 9035  31.875  28.836   4.707
36611W        W 9036  31.139  41.567   0.876
36612W        W 9037  40.623  27.970  11.990
36613W        W 9038   6.736  35.921  14.863
36614W        W 9039  39.417  38.181   2.592
36615W        W 9040  31.446   5.717  14.888
36616W        W 9041   8.966   2.405   4.569
36617W        W 9042   5.572   9.547  13.473
36618W        W 9043  23.233  23.573   3.181
36619W        W 9044  36.438   7.850   0.763
36620W        W 9045  21.639  33.393  10.543
36621W        W 9046  17.082  43.136   4.204
36622W        W 9047  37.092  44.884  13.288
36623W        W 9048  17.321  36.749  13.575
36624W        W 9049  11.085  41.877   3.223
36625W        W 9050  24.383  18.214   1.754
36626W        W 9051   9.446  25.550  11.899
36627W        W 9052  10.742  20.042  14.842
36628W        W 9053  40.416   3.378  10.741
36629W        W 9054   9.266   3.843  12.697
36630W        W 9055  36.031   1.896   3.381
36631W        W 9056  40.594  13.991  10.197
36632W        W 9057  44.791  29.238   2.843
36633W        W 9058  14.217  10.350  13.836
36634W        W 9059  35.890  13.684  14.918
36635W        W 9060   8.470  42.796   2.717
36636W        W 9061   2.631  25.118   9.850
36637W        W 9062  26.958   7.813  11.689
36638W        W 9063  12.883   4.899  14.844
36639W        W 9064  12.567  42.566  10.833
36640W        W 9065  33.011  12.514   2.844
36641W        W 9066  16.517  15.712  12.406
36642W        W 9067  15.732  28.591  11.206
36643W        W 9068  28.687  20.004  14.571
36644W        W 9069  18.027  21.684   4.457
36645W        W 9070  41.940   4.947  13.365
36646W        W 9071  21.315  30.443  13.019
36647W        W 9072  17.117   1.044   2.760
36648W        W 9073   8.874   5.681  14.954
36649W        W 9074  33.924  11.135  11.767
36650W        W 9075  31.362  39.098   3.636
36651W        W 9076  12.845  21.218   4.768
36652W        W 9077  39.113  13.660  11.916
36653W        W 9078  34.815  41.072  13.501
36654W        W 9079   6.213  22.055   4.677
36655W        W 9080   7.236  31.881  13.380
36656W        W 9081  36.938  33.006  14.028
36657W        W 9082  13.273  13.125  11.868
36658W        W 9083  38.948  43.278   4.310
36659W        W 9084  41.840   3.717   0.698
36660W        W 9085   4.884   2.418   2.247
36661W        W 9086  23.576  33.797  12.911
36662W        W 9087  43.185  41.160  12.030
36663W        W 9088   2.546   8.953  10.456
36664W        W 9089  10.682  29.468   3.928
36665W        W 9090   0.951   1.651   0.050
36666W        W 9091   7.682  18.324  12.976
36667W        W 9092  42.513  13.701  10.510
36668W        W 9093  38.648  16.653   1.901
36669W        W 9094  39.834   8.908  12.227
36670W        W 9095   5.784  23.164   3.803
36671W        W 9096   9.298  33.589  11.552
36672W        W 9097  21.690  31.187  14.933
36673W        W 9098   8.146  13.500   1.723
36674W        W 9099  15.181  38.381  11.823
36675W        W 9100  18.770   2.375   2.247
36676W        W 9101  42.446  37.392  12.368
36677W        W 9102  22.146  12.018   3.182
36678W        W 9103  11.064   5.972  12.134
36679W        W 9104  22.248  36.492   1.666
36680W        W 9105  33.634  24.414  11.281
36681W        W 9106   4.320   0.774   1.827
36682W        W 9107  37.341  35.553   2.291
36683W        W 9108   9.250  22.993   3.603
36684W        W 9109  30.515  34.260  14.049
36685W        W 9110   8.869   6.321   2.150
36686W        W 9111   0.862  20.104   2.165
36687W        W 9112   0.566  19.569  14.893
36688W        W 9113   2.722  13.140   0.022
36689W        W 9114  17.109  41.980  13.893
36690W        W 9115   8.194  44.436   2.352
36691W        W 9116  20.570  11.327   3.703
36692W        W 9117  37.294  26.089  12.585
36693W        W 9118  16.066  34.047  11.627
36694W        W 9119  28.048  44.013  11.068
36695W        W 9120   5.373  17.179  13.004
36696W        W 9121  10.347   7.186   1.251
36697W        W 9122  29.686  31.898   2.882
36698W        W 9123  22.589   2.854  13.983
36699W        W 9124  31.973   5.575   4.461
36700W        W 9125   2.232  44.921  11.203
36701W        W 9126  38.477  13.696  14.379
36702W        W 9127  24.674  32.384  11.083
36703W        W 9128  30.907  43.793   0.449
36704W        W 9129  25.799  21.448   5.010
36705W        W 9130  28.781  24.052   4.103
36706W        W 9131  24.104  35.082   3.563
36707W        W 9132  25.737   3.841  13.884
36708W        W 9133  27.311  19.241  13.513
36709W        W 9134  30.080  29.723  14.779
36710W        W 9135   5.796  40.498   3.460
36711W        W 9136  42.957   4.901  11.071
36712W        W 9137  44.065  40.591  11.019
36713W        W 9138  21.820  26.505  11.180
36714W        W 9139  14.741  31.546   3.655
36715W        W 9140   3.456  28.134   2.161
36716W        W 9141  36.493  42.383  11.492
36717W        W 9142  12.242  22.692  13.370
36718W        W 9143  22.282  37.369  12.333
36719W        W 9144  31.924  17.108   0.320
36720W        W 9145  33.887   9.146   0.747
36721W        W 9146   2.329  16.546  11.017
36722W        W 9147  14.052  43.221  13.333
36723W        W 9148  16.602   7.979   2.735
36724W        W 9149  26.143  39.210   1.343
36725W        W 9150  35.465  31.639  10.988
36726W        W 9151  15.747  42.410   0.438
36727W        W 9152   1.989   8.522   3.710
36728W        W 9153  16.318   6.200  12.111
36729W        W 9154   7.485   1.101  10.788
36730W        W 9155   2.205  44.346   0.324
36731W        W 9156  32.631  35.102  12.150
36732W        W 9157  15.147  43.974   4.893
36733W        W 9158  25.726   8.429  12.541
36734W        W 9159  30.899   6.722  14.433
36735W        W 9160  36.679  37.430   0.862
36736W        W 9161  23.630  41.224   2.933
36737W        W 9162  24.044  32.937  11.753
36738W        W 9163   2.379  12.411   1.310
36739W        W 9164  31.455   7.868   0.768
36740W        W 9165  14.917  22.438  13.662
36741W        W 9166  40.071  42.048   3.500
36742W        W 9167  29.270  17.316  12.876
36743W        W 9168  28.475  10.795  12.782
36744W        W 9169  13.857  13.684   2.999
36745W        W 9170  31.620  43.503   2.167
36746W        W 9171  26.964  10.531  10.421
36747W        W 9172   5.587  28.051  12.575
36748W        W 9173  10.278   8.915   0.476
36749W        W 9174  17.601  34.315   1.358
36750W        W 9175  42.068  41.946  12.069
36751W        W 9176   1.280  21.301  11.705
36752W        W 9177   6.797  14.061  10.806
36753W        W 9178  28.889  17.610  10.931
36754W        W 9179  28.200  20.668   0.007
36755W        W 9180  11.356  11.357   4.606
36756W        W 9181  22.526  33.860  13.506
36757W        W 9182   1.761   4.806  14.722
36758W        W 9183  44.852   9.193  10.661
36759W        W 9184  24.857   8.019   1.919
36760W        W 9185  37.592  37.096  14.877
36761W        W 9186  29.813  14.186   2.060
36762W        W 9187  38.547  35.447   1.646
36763W        W 9188  43.376  31.488  14.057
36764W        W 9189  28.490  24.814  10.693
36765W        W 9190   9.390  22.820  11.336
36766W        W 9191   1.156  16.284  11.426
36767W        W 9192   3.285  27.394   4.671
36768W        W 9193   1.517  38.253   2.516
36769W        W 9194  33.108  26.614  12.767
36770W        W 9195  34.842   2.997  11.632
36771W        W 9196  30.110  40.853  14.026
36772W        W 9197  33.514   1.271   0.373
36773W        W 9198  17.587  24.578   1.324
36774W        W 9199  23.199  44.812  12.015
36775W        W 9200  12.525  22.707  11.302
36776W        W 9201  15.669  15.457  14.203
36777W        W 9202   8.819  33.496   1.791
36778W        W 9203  20.707   5.725  10.624
36779W        W 9204  20.876   5.955   3.736
36780W        W 9205  40.857  33.384  13.411
36781W        W 9206   1.309  11.118   2.251
36782W        W 9207  39.363  40.096  11.083
36783W        W 9208  32.432  10.647   4.226
36784W        W 9209  23.614  33.002  11.473
36785W        W 9210  22.819   4.911   1.869
36786W        W 9211   8.805   5.807   2.352
36787W        W 9212  44.361   0.445   4.928
36788W        W 9213  33.009  24.654  12.503
36789W        W 9214  42.403   4.407   1.848
36790W        W 9215  15.897  30.422  10.224
36791W        W 9216   9.461   9.759   0.475
36792W        W 9217  16.807  36.890  14.862
36793W        W 9218  14.102   1.216  10.143
36794W        W 9219  28.606  11.507   4.450
36795W        W 9220  13.803  31.924   3.709
36796W        W 9221  18.565  12.126  10.772
36797W        W 9222  33.770  17.922  12.091
36798W        W 9223  39.909  38.092   1.744
36799W        W 9224  41.549  19.188  11.543
36800W        W 9225   3.729  27.291  12.159
36801W        W 9226  25.640  27.302  13.436
36802W        W 9227  36.031  30.935   3.813
36803W        W 9228  32.223  27.358  12.063
36804W        W 9229   3.741  13.559   1.424
36805W        W 9230   9.245  27.910   2.151
36806W        W 9231  35.656  33.031   2.451
36807W        W 9232  35.437   8.996  10.219
36808W        W 9233  30.926  18.557   3.202
36809W        W 9234   2.868  17.089  12.427
36810W        W 9235  41.527   6.159   2.123
36811W        W 9236  27.452   1.508  13.914
36812W        W 9237  21.036  27.388  11.056
36813W        W 9238  36.548   0.669  10.642
36814W        W 9239  31.893  15.012   1.342
36815W        W 9240  15.703  32.352  11.587
36816W        W 9241   4.430  40.393  13.369
36817W        W 9242  39.108  17.838   4.112
36818W        W 9243  18.731  41.051   0.855
36819W        W 9244  23.842  12.276   0.043
36820W        W 9245   4.792  36.062   1.537
36821W        W 9246  24.630  36.383   3.028
36822W        W 9247   7.670  18.677  11.055
36823W        W 9248   6.684  26.812  13.401
36824W        W 9249  33.955  38.590  14.362
36825W        W 9250   7.361   4.679  10.793
36826W        W 9251  18.730  17.591  11.547
36827W        W 9252   0.059   2.336  13.762
36828W        W 9253  31.493   5.589   3.537
36829W        W 9254  39.948  20.093  14.118
36830W        W 9255  10.107  39.749  14.425
36831W        W 9256  33.473  36.149  13.280
36832W        W 9257  28.924  20.214   1.250
36833W        W 9258  33.423  15.524   3.597
36834W        W 9259  20.118  32.502   4.519
36835W        W 9260  15.768  29.679   4.482
36836W        W 9261   6.799  25.694   0.001
36837W        W 9262  18.097  28.092   2.453
36838W        W 9263  16.997   9.758   1.489
36839W        W 9264  17.166  23.087   2.644
36840W        W 9265  44.066  33.862  14.893
36841W        W 9266  12.221  32.159   0.787
36842W        W 9267  21.959  27.191   4.548
36843W        W 9268  31.477  19.274   0.575
36844W        W 9269  28.061  44.271  11.513
36845W        W 9270  24.584   4.012  11.501
36846W        W 9271  24.149   0.516  11.147
36847W        W 9272  25.289   4.717   1.395
36848W        W 9273  32.179  35.535   3.652
36849W        W 9274  25.286  39.862  10.678
36850W        W 9275  33.353  10.660  14.463
36851W        W 9276  44.883  32.952  14.269
36852W        W 9277  18.475   7.604  11.766
36853W        W 9278  12.916  36.278   2.739
36854W        W 9279  37.768   5.212  13.012
36855W        W 9280  28.789  30.650  11.937
36856W        W 9281  12.629  10.937  13.091
36857W        W 9282  38.895   9.640   0.775
36858W        W 9283  10.495  32.922   0.065
36859W        W 9284   1.744  27.043  14.411
36860W        W 9285  36.892  23.156   2.327
36861W        W 9286  29.600  32.954   1.063
36862W        W 9287   7.857  22.697   3.148
36863W        W 9288  16.001  10.074   4.667
36864W        W 9289  10.766   1.031   2.683
36865W        W 9290  22.324   1.945   2.836
36866W        W 9291  18.617  21.062   1.329
36867W        W 9292  43.619  30.546   3.358
36868W        W 9293  15.764  32.824  13.796
36869W        W 9294  28.740  10.824   4.130
36870W        W 9295   9.033  28.960  12.892
36871W        W 9296  25.230   5.424  14.561
36872W        W 9297  25.580  35.550   3.856
36873W        W 9298  14.244  44.769   1.636
36874W        W 9299  31.508  14.308  14.911
36875W        W 9300   5.656  11.242   0.384
36876W        W 9301  37.873  16.174   4.109
36877W        W 9302  15.310   3.878   4.706
36878W        W 9303  20.630  16.145   0.912
36879W        W 9304  41.779  32.006  14.548
36880W        W 9305  38.187   8.460  10.467
36881W        W 9306  16.327  35.437  13.487
36882W        W 9307  15.695  10.361  14.009
36883W        W 9308   8.720  27.230  12.187
36884W        W 9309   2.611  35.082  13.036
36885W        W 9310  41.366   2.374   3.490
36886W        W 9311   5.467  23.741   2.440
36887W        W 9312  38.042  15.132   1.243
36888W        W 9313  35.877  43.017   3.180
36889W        W 9314  34.857  15.086  11.929
36890W        W 9315  16.392  29.415  12.174
36891W        W 9316  23.178  27.727  14.332
36892W        W 9317  44.197  22.154   1.201
36893W        W 9318  18.009  21.993  11.513
36894W        W 9319  37.464  20.474  14.040
36895W        W 9320  42.949  25.302   1.788
36896W        W 9321  25.722  18.813  14.080
36897W        W 9322   9.709  22.758   3.601
36898W        W 9323  12.642  18.584  10.596
36899W        W 9324   3.861  28.244  14.040
36900W        W 9325   2.515  16.616  14.138
36901W        W 9326   3.389   6.144   0.234
36902W        W 9327  36.360  14.117   3.433
36903W        W 9328   3.276  21.556  10.545
36904W        W 9329  30.990   3.499  11.838
36905W        W 9330  31.119  26.270  13.912
36906W        W 9331  30.458  41.399  11.424
36907W        W 9332   3.330  39.385   1.488
36908W        W 9333   4.663  36.294   2.132
36909W        W 9334  37.524  26.422   0.172
36910W        W 9335  26.864  10.790   0.370
36911W        W 9336   2.000  10.263   0.449
36912W        W 9337  10.075   4.122  14.226
36913W        W 9338  43.162  27.229  11.647
36914W        W 9339  21.732   4.969   2.806
36915W        W 9340  35.396  25.489  14.849
36916W        W 9341  41.223  14.544   3.647
36917W        W 9342  13.127  19.384  13.966
36918W        W 9343  33.660  37.739   0.283
36919W        W 9344  25.973   6.276  14.041
36920W        W 9345  19.238  42.935   4.670
36921W        W 9346  14.036  16.042   4.281
36922W        W 9347  36.288   2.892  13.717
36923W        W 9348  22.487  14.927  11.431
36924W        W 9349  42.123  16.879  12.541
36925W        W 9350  32.188  24.504   0.376
36926W        W 9351  29.427   9.266  14.680
36927W        W 9352  35.869  34.384   1.784
36928W        W 9353  23.015  37.291  14.140
36929W        W 9354   0.570  28.881   3.997
36930W        W 9355  19.724  24.466   0.472
36931W        W 9356  15.191  21.119   2.730
36932W        W 9357  31.926  13.757   3.686
36933W        W 9358  16.186  10.548  11.449
36934W        W 9359  25.947  39.305   4.994
36935W        W 9360   7.102  12.124   0.717
36936W        W 9361  16.474  10.728  13.074
36937W        W 9362  24.267  21.154  12.853
36938W        W 9363  43.518  29.215  12.959
36939W        W 9364  31.892  30.943   3.438
36940W        W 9365   8.129   3.453  10.946
36941W        W 9366  36.413  21.261   0.773
36942W        W 9367  10.935   4.224  11.494
36943W        W 9368  28.135   2.751   0.633
36944W        W 9369  43.034  24.664  12.601
36945W        W 9370  24.725  26.975   0.780
36946W        W 9371  29.430   5.187  14.258
36947W        W 9372   7.858  34.369   0.219
36948W        W 9373  22.287  35.446  10.952
36949W        W 9374  20.198  10.224  11.643
36950W        W 9375  35.144  19.296   2.962
36951W        W 9376  29.000  17.659  14.548
36952W        W 9377  29.394  28.816  10.617
36953W        W 9378  38.144  37.377  11.543
36954W        W 9379  14.345   6.461  13.399
36955W        W 9380  40.063  26.616  13.569
36956W        W 9381  35.461  41.553  13.063
36957W        W 9382   9.047  18.197   0.521
36958W        W 9383  29.600  27.909   1.696
36959W        W 9384  18.598  28.932  12.414
36960W        W 9385  11.811  23.995   2.039
36961W        W 9386  34.840   4.821  12.942
36962W        W 9387  22.984  10.501   2.219
36963W        W 9388   8.336  10.869  14.550
36964W        W 9389   8.528  43.335   0.645
36965W        W 9390  28.508   7.183   3.699
36966W        W 9391  27.053  13.746   1.268
36967W        W 9392  23.104  12.175   3.230
36968W        W 9393  22.841   3.393   5.144
36969W        W 9394  36.118  12.818  14.552
36970W        W 9395   2.082   2.611  12.647
36971W        W 9396  29.139  39.560   0.694
36972W        W 9397  37.324  42.734  11.988
36973W        W 9398  41.456  10.962   3.211
36974W        W 9399  23.535  22.717  13.905
36975W        W 9400  33.730  18.066   3.673
36976W        W 9401  43.475  27.482  12.030
36977W        W 9402  42.342   8.840   4.760
36978W        W 9403   7.382  22.149   1.802
36979W        W 9404  35.345   0.006  12.118
36980W        W 9405  38.424  20.489   3.543
36981W        W 9406  21.594  33.911   1.902
36982W        W 9407  14.377  35.489   3.787
36983W        W 9408   5.762  15.580  13.725
36984W        W 9409  43.495  16.098  14.910
36985W        W 9410  42.992  15.238   2.213
36986W        W 9411  24.937  32.458   3.746
36987W        W 9412  30.627  41.085  14.587
36988W        W 9413  20.646  35.418   0.262
36989W        W 9414  44.753   6.656   2.030
36990W        W 9415  21.654  27.691  14.332
36991W        W 9416   5.590   7.871   0.728
36992W        W 9417  43.773   9.109  13.430
36993W        W 9418  16.684  42.367   0.512
36994W        W 9419  37.203  16.601  11.102
36995W        W 9420  10.097  17.849   2.055
36996W        W 9421  38.069   8.692  12.406
36997W        W 9422  43.134  41.390  10.132
36998W        W 9423  40.508  41.468   1.793
36999W        W 9424  11.680  22.999   1.660
37000W        W 9425  38.540  16.185   1.725
37001W        W 9426  31.501  42.935  13.887
37002W        W 9427  33.257  26.506  11.736
37003W        W 9428  29.981   3.293   1.894
37004W        W 9429  25.760  40.923  13.461
37005W        W 9430   5.759   3.319  14.018
37006W        W 9431   2.746  34.456   4.609
37007W        W 9432   9.156  37.085  14.867
37008W        W 9433   1.763  44.480  14.030
37009W        W 9434  37.538   3.935   1.573
37010W        W 9435  25.526   4.358   1.820
37011W        W 9436   2.419  41.051  14.495
37012W        W 9437  43.177  10.797   4.473
37013W        W 9438   8.864  37.128   3.557
37014W        W 9439  13.893  26.068   1.457
37015W        W 9440  33.657  30.689  14.867
37016W        W 9441  18.522  29.388   2.361
37017W        W 9442  36.928  10.794   0.980
37018W        W 9443   8.141  41.938  14.941
37019W        W 9444  11.901  31.376   0.332
37020W        W 9445  38.262  39.314  11.003
37021W        W 9446   1.212  17.819  14.740
37022W        W 9447  22.624  13.210  13.990
37023W        W 9448  16.312  28.142   1.700
37024W        W 9449  21.007  21.560  10.965
37025W        W 9450  26.640  43.272  12.525
37026W        W 9451  37.422  10.279  12.467
37027W        W 9452  34.988   3.018  10.025
37028W        W 9453  38.808   8.579  13.884
37029W        W 9454  25.038  13.430   1.803
37030W        W 9455   5.902   6.371  14.300
37031W        W 9456  25.101  24.926   0.781
37032W        W 9457  32.914  37.574  13.941
37033W        W 9458  29.618  21.857  14.309
37034W        W 9459  11.614   7.824  14.842
37035W        W 9460  26.176  16.348  14.313
37036W        W 9461   8.842  42.271  10.340
37037W        W 9462  43.756  23.175  14.621
37038W        W 9463   7.327  13.901  14.455
37039W        W 9464  16.363  11.789   1.241
37040W        W 9465  30.845  26.773   3.213
37041W        W 9466   1.034  25.914   3.245
37042W        W 9467  21.921  22.710  13.628
37043W        W 9468  35.032  38.092   1.900
37044W        W 9469  44.955  17.117   2.924
37045W        W 9470  36.485   4.560  11.607
37046W        W 9471  42.107  24.639  13.316
37047W        W 9472  22.537  17.634  12.487
37048W        W 9473  23.189  36.810   1.969
37049W        W 9474  25.709   3.389   2.797
37050W        W 9475  36.668   5.338   3.066
37051W        W 9476  24.515  13.362  11.070
37052W        W 9477  37.967  11.585  10.604
37053W        W 9478  39.433  33.739  13.899
37054W        W 9479  25.723  25.677  14.441
37055W        W 9480   9.080  44.178   0.308
37056W        W 9481  10.724   8.887  10.691
37057W        W 9482  20.610  44.270   0.013
37058W        W 9483   0.939  24.500  11.171
37059W        W 9484   6.845  26.463  14.371
37060W        W 9485   9.434  31.338   2.136
37061W        W 9486  36.663  39.077   1.747
37062W        W 9487  40.547  28.001   0.464
37063W        W 9488  18.647  12.192   2.595
37064W        W 9489   7.742  17.092  14.438
37065W        W 9490   6.997   0.924  10.726
37066W        W 9491  14.141   5.549   1.917
37067W        W 9492   9.125  33.984  13.183
37068W        W 9493  28.619  37.312   2.874
37069W        W 9494  36.969  19.512  14.793
37070W        W 9495  31.211  33.312   0.869
37071W        W 9496   6.710  19.275   0.629
37072W        W 9497   5.726   4.478   1.256
37073W        W 9498   6.359  42.276  11.221
37074W        W 9499  19.028  23.229  10.637
37075W        W 9500  43.284  36.303   3.684
37076W        W 9501   9.607  33.418  14.797
37077W        W 9502  44.521  13.811  13.499
37078W        W 9503  22.784   8.285   0.429
37079W        W 9504  11.068  17.307   3.758
37080W        W 9505  20.106  22.663   2.722
37081W        W 9506  29.997  10.479   4.304
37082W        W 9507  26.407  38.921   3.247
37083W        W 9508  28.035  34.651   0.694
37084W        W 9509  23.992  28.442  14.741
37085W        W 9510  20.796  40.894   0.735
37086W        W 9511  30.665  30.456  11.636
37087W        W 9512   7.367  18.369   1.245
37088W        W 9513   8.204  20.280  14.358
37089W        W 9514  15.617  40.774  14.789
37090W        W 9515  12.085  41.205   4.609
37091W        W 9516  32.160  41.750   4.628
37092W        W 9517  20.564   9.853  10.450
37093W        W 9518  42.268  21.479  11.488
37094W        W 9519  28.061  21.501  10.270
37095W        W 9520  24.026  25.425   2.350
37096W        W 9521  30.872   4.820   4.802
37097W        W 9522  22.761  24.030  11.541
37098W        W 9523  26.449   0.440   4.381
37099W        W 9524  27.031  38.839  13.152
37100W        W 9525  19.707  37.949  14.270
37101W        W 9526  27.402  11.854   4.117
37102W        W 9527  13.108  40.879  12.491
37103W        W 9528  25.131  33.495  13.659
37104W        W 9529  27.151  32.583  10.205
37105W        W 9530  36.415  14.361  12.120
37106W        W 9531  31.029  40.599  11.854
37107W        W 9532   3.471  25.162   4.184
37108W        W 9533  18.050  22.844  11.677
37109W        W 9534  29.094  24.935  13.769
37110W        W 9535   7.719  44.996  13.508
37111W        W 9536  16.826  23.148   3.876
37112W        W 9537  35.800   9.160   2.840
37113W        W 9538   7.845  44.215   3.622
37114W        W 9539  25.098  30.740   0.043
37115W        W 9540  41.478  24.960   1.759
37116W        W 9541  31.826  12.892  10.721
37117W        W 9542  36.483  18.709   4.551
37118W        W 9543  44.673  36.610  13.892
37119W        W 9544   0.199  15.844  14.001
37120W        W 9545  38.921  16.231  11.832
37121W        W 9546  33.036  31.340   0.076
37122W        W 9547  40.591  43.906  12.643
37123W        W 9548   5.706  27.133   0.410
37124W        W 9549   9.618  29.692   4.608
37125W        W 9550   8.892   6.103  11.249
37126W        W 9551  22.955  35.544  11.987
37127W        W 9552  43.971   0.952  13.354
37128W        W 9553   5.641   3.885  14.519
37129W        W 9554   2.607  13.798   0.232
37130W        W 9555   3.785   6.924  11.998
37131W        W 9556   8.081  12.876  12.080
37132W        W 9557   1.424  34.379   2.787
37133W        W 9558  23.105   7.419   0.834
37134W        W 9559   6.210  17.370   4.574
37135W        W 9560   9.918  14.093   0.782
37136W        W 9561  11.415  17.580  13.021
37137W        W 9562  13.592  33.383   1.868
37138W        W 9563   3.633   8.073   1.272
37139W        W 9564  36.432  10.110   3.916
37140W        W 9565  28.051  17.774   1.245
37141W        W 9566  24.860  28.479  13.648
37142W        W 9567  25.714  26.230   2.809
37143W        W 9568  20.267  31.340   0.739
37144W        W 9569  10.648  33.180   3.781
37145W        W 9570  17.180  17.724  11.488
37146W        W 9571  23.526  29.839  12.563
37147W        W 9572  17.645  16.720  14.345
37148W        W 9573  14.981   3.106   9.775
37149W        W 9574   3.936  33.868   3.596
37150W        W 9575  10.424   6.592  12.523
37151W        W 9576  37.098   9.091   3.249
37152W        W 9577  13.713  31.598  11.600
37153W        W 9578  18.822  13.246  14.672
37154W        W 9579  38.320  18.596  14.419
37155W        W 9580  44.916  41.283   4.370
37156W        W 9581   4.560  26.609   2.380
37157W        W 9582  30.350  41.528   0.335
37158W        W 9583  20.076  12.786  11.298
37159W        W 9584  33.197  11.872  14.505
37160W        W 9585  38.866  23.058  10.947
37161W        W 9586  20.491  31.413   2.851
37162W        W 9587  38.480  18.192  12.040
37163W        W 9588  32.117  18.235   3.703
37164W        W 9589  27.215  15.389  12.947
37165W        W 9590  25.056  41.031   4.713
37166W        W 9591  29.657  39.371   3.927
37167W        W 9592  31.896  14.243   0.399
37168W        W 9593  11.448   9.200   0.914
37169W        W 9594  18.470   1.772  13.964
37170W        W 9595   4.821  37.352   4.102
37171W        W 9596  43.870  15.876   2.174
37172W        W 9597  22.534  35.062  11.181
37173W        W 9598  36.578  43.997   1.187
37174W        W 9599  23.766   4.773  13.066
37175W        W 9600  26.957   7.711   1.760
37176W        W 9601  25.290   9.248  13.338
37177W        W 9602  20.786  42.734   3.642
37178W        W 9603  12.124  14.097   0.795
37179W        W 9604   7.274  21.989  13.491
37180W        W 9605   7.526  40.411   2.403
37181W        W 9606  32.420   8.406   4.167
37182W        W 9607  23.465  31.243  12.128
37183W        W 9608  44.338  33.365   0.781
37184W        W 9609  22.664  35.112  14.445
37185W        W 9610  25.689  24.628   0.720
37186W        W 9611  12.884  31.539  12.497
37187W        W 9612  39.898  40.901  12.470
37188W        W 9613   4.391   8.689  14.369
37189W        W 9614  20.043  35.835  11.059
37190W        W 9615  21.704   6.881  11.613
37191W        W 9616  38.788   7.176  11.227
37192W        W 9617  24.468   1.765   2.885
37193W        W 9618   5.317  30.851   4.590
37194W        W 9619  33.343  26.976   1.370
37195W        W 9620  17.050  28.589   0.795
37196W        W 9621   7.753  32.259  11.504
37197W        W 9622  37.581  43.524  12.569
37198W        W 9623  35.454  30.806  12.392
37199W        W 9624  44.337  22.737   2.572
37200W        W 9625  26.636  33.515   0.830
37201W        W 9626  14.365  37.277  10.800
37202W        W 9627  24.642  29.134   3.763
37203W        W 9628   2.878  39.763  12.012
37204W        W 9629  30.273  30.625  13.947
37205W        W 9630  32.837  44.818  12.601
37206W        W 9631   4.350  37.848   1.726
37207W        W 9632  31.148  34.735   4.075
37208W        W 9633  16.371  20.745  12.480
37209W        W 9634   1.341  35.598   3.749
37210W        W 9635  24.186  21.569   4.566
37211W        W 9636   2.878  35.025  13.499
37212W        W 9637  14.665   8.250   1.945
37213W        W 9638   0.174  20.856  14.513
37214W        W 9639  14.821  20.679   3.587
37215W        W 9640  13.338  17.231  14.953
37216W        W 9641  37.221  31.281  12.119
37217W        W 9642  40.429  37.037  12.520
37218W        W 9643   0.272  34.502   1.679
37219W        W 9644   8.604   0.644   4.074
37220W        W 9645  10.628  34.938  13.870
37221W        W 9646  35.064  15.705  12.436
37222W        W 9647  13.788  23.139  11.481
37223W        W 9648   8.194  32.407   1.358
37224W        W 9649  43.719  27.680  10.570
37225W        W 9650  20.596  35.633   2.415
37226W        W 9651  23.657  44.467  13.479
37227W        W 9652  10.797  29.005   3.732
37228W        W 9653  39.498  17.337   3.422
37229W        W 9654   2.477  22.079   3.244
37230W        W 9655   8.235  30.269  10.548
37231W        W 9656  38.037  38.366  14.011
37232W        W 9657   1.941  33.098  11.127
37233W        W 9658   8.095   3.731   1.387
37234W        W 9659   4.458  33.927  13.789
37235W        W 9660   2.626  14.219   2.774
37236W        W 9661  32.512  35.554  11.915
37237W        W 9662  22.621   2.067   2.154
37238W        W 9663  36.973  20.717   2.628
37239W        W 9664  17.269  39.631   0.476
37240W        W 9665  39.919   8.194  12.418
37241W        W 9666  26.645   6.283   4.705
37242W        W 9667  32.912  40.323  11.592
37243W        W 9668  22.406  37.092  14.829
37244W        W 9669  41.009   1.811  14.310
37245W        W 9670  12.376  24.508  10.123
37246W        W 9671  29.171  36.997  13.576
37247W        W 9672  27.847  38.811  10.407
37248W        W 9673  36.365  18.590  14.834
37249W        W 9674   3.430   3.473  12.439
37250W        W 9675  34.523  39.749   2.032
37251W        W 9676  40.798  38.939   4.898
37252W        W 9677  36.348  37.329   1.245
37253W        W 9678  19.948   7.507   0.469
37254W        W 9679   6.633   3.206   3.784
37255W        W 9680  37.839  30.092  12.588
37256W        W 9681  34.736   8.171   5.506
37257W        W 9682  41.553   7.957  11.991
37258W        W 9683  11.423  42.296   4.672
37259W        W 9684  20.029  44.553   1.259
37260W        W 9685  42.229   6.749   4.018
37261W        W 9686   4.868  29.857  12.594
37262W        W 9687   2.210  39.884   2.817
37263W        W 9688  11.329  43.547   3.712
37264W        W 9689   3.012  21.703   3.037
37265W        W 9690   6.630  12.186   2.185
37266W        W 9691  33.611   6.182  13.406
37267W        W 9692  30.112  38.436   2.753
37268W        W 9693  12.705  19.446   0.185
37269W        W 9694   3.695   4.598  11.229
37270W        W 9695  39.839  39.421   4.184
37271W        W 9696   5.800  11.721  11.204
37272W        W 9697   8.131  41.803   2.848
37273W        W 9698   4.933  16.231   1.596
37274W        W 9699  13.379   4.204   3.972
37275W        W 9700   8.878  17.036   3.452
37276W        W 9701  38.547   4.707   3.821
37277W        W 9702  23.466   8.646  13.302
37278W        W 9703  21.591   4.705  10.932
37279W        W 9704  26.972  25.627   2.732
37280W        W 9705  20.762  10.856  14.374
37281W        W 9706  22.490   3.818   2.172
37282W        W 9707  18.971  28.038   4.066
37283W        W 9708  31.627   7.307   4.202
37284W        W 9709  18.602  24.748   2.170
37285W        W 9710  33.816  33.066   2.815
37286W        W 9711   6.218  37.909   0.263
37287W        W 9712  44.369   7.505   3.616
37288W        W 9713   8.701  21.850  11.916
37289W        W 9714   0.420   7.828  14.392
37290W        W 9715  35.308  26.206   1.889
37291W        W 9716  41.588   6.382   4.193
37292W        W 9717  44.139   5.268   3.112
37293W        W 9718  32.166   7.366  12.913
37294W        W 9719  30.931  19.782  13.548
37295W        W 9720  21.528  24.552  11.685
37296W        W 9721  10.227  34.050  14.036
37297W        W 9722  23.946  38.746  11.475
37298W        W 9723  31.583  26.497  13.900
37299W        W 9724  18.194  44.835   0.484
37300W        W 9725   2.849   6.233  13.405
37301W        W 9726  15.789  25.681  12.009
37302W        W 9727  16.759   6.642   1.909
37303W        W 9728   2.711  17.630  11.556
37304W        W 9729   5.032   8.152  13.044
37305W        W 9730   7.350  26.201   1.884
37306W        W 9731  31.467  35.325   0.771
37307W        W 9732   7.314   8.238   4.070
37308W        W 9733  37.348  15.657  14.673
37309W        W 9734  39.131  25.123  13.931
37310W        W 9735  44.470  17.728   0.277
37311W        W 9736  13.004  15.810  12.998
37312W        W 9737  23.542  34.740  13.287
37313W        W 9738  30.685  14.690   2.853
37314W        W 9739  38.291  34.050   1.979
37315W        W 9740  43.915  26.410   0.845
37316W        W 9741   9.622   2.881   1.728
37317W        W 9742  41.039  26.956   2.847
37318W        W 9743  16.714   7.674  13.403
37319W        W 9744  27.714  43.889   3.305
37320W        W 9745  20.256  35.605   2.812
37321W        W 9746  21.116  32.601   1.994
37322W        W 9747   0.223  30.945  11.137
37323W        W 9748  24.197  10.921  14.748
37324W        W 9749  30.175  35.562  13.442
37325W        W 9750  37.404  33.106  10.774
37326W        W 9751  35.623  42.071   4.274
37327W        W 9752  20.755   4.563   0.007
37328W        W 9753  43.245  35.799   1.324
37329W        W 9754  19.110  44.016  14.383
37330W        W 9755   8.283  21.271   3.323
37331W        W 9756  22.504  26.062  14.079
37332W        W 9757  25.193  10.768   0.811
37333W        W 9758  37.569   8.453   5.503
37334W        W 9759  19.996  27.189  14.094
37335W        W 9760   2.168  23.366  11.678
37336W        W 9761  41.009  22.945  14.747
37337W        W 9762  37.631  43.754  14.866
37338W        W 9763  11.708   9.869  14.177
37339W        W 9764   3.758  13.247   3.853
37340W        W 9765  42.593  18.638  11.956
37341W        W 9766  11.310   1.898  13.516
37342W        W 9767   5.116  41.874  11.175
37343W        W 9768  26.783   6.262  14.874
37344W        W 9769   9.816  27.172  10.400
37345W        W 9770  15.476  29.017   0.497
37346W        W 9771   8.834  29.516   3.643
37347W        W 9772  32.064  32.069  13.601
37348W        W 9773  38.738  19.207   1.942
37349W        W 9774  30.116   7.089   0.963
37350W        W 9775  14.923  35.351  12.214
37351W        W 9776   0.820  23.987  11.113
37352W        W 9777  27.631  26.654  14.255
37353W        W 9778  15.755  36.815   4.636
37354W        W 9779  31.282  16.142  12.573
37355W        W 9780   5.465  13.211  12.529
37356W        W 9781  41.531   1.129   3.709
37357W        W 9782  34.970  37.987  12.624
37358W        W 9783  31.132   2.148  11.251
37359W        W 9784  24.384   5.741  12.476
37360W        W 9785  14.258   6.245   2.894
37361W        W 9786  25.561  26.919   1.445
37362W        W 9787   6.833  20.559   3.243
37363W        W 9788  31.458  40.566   1.740
37364W        W 9789  39.051  43.974  14.452
37365W        W 9790   9.346  41.794   3.697
37366W        W 9791  37.491  37.585  12.543
37367W        W 9792  40.404   1.958  14.319
37368W        W 9793  14.767  27.507   1.110
37369W        W 9794  22.227  25.553  11.134
37370W        W 9795  33.428   4.499  12.125
37371W        W 9796  21.789  22.634  11.887
37372W        W 9797  25.958  25.475   1.269
37373W        W 9798   2.767   0.894   4.498
37374W        W 9799  27.177  31.004  11.078
37375W        W 9800  43.441  11.191  13.750
37376W        W 9801  13.797   6.466   2.795
37377W        W 9802  12.643  26.136   2.337
37378W        W 9803   0.749  19.175  13.936
37379W        W 9804  15.865   2.389  10.518
37380W        W 9805  24.453  21.763   4.172
37381W        W 9806  32.067  38.379  11.328
37382W        W 9807   2.470   6.661  11.502
37383W        W 9808  18.647  19.565   3.702
37384W        W 9809  33.088  21.081  11.080
37385W        W 9810  37.507  19.607  10.792
37386W        W 9811  13.285  25.657   1.429
37387W        W 9812  43.456  37.731  11.503
37388W        W 9813   9.338   7.405  12.497
37389W        W 9814  38.969   0.993   0.209
37390W        W 9815   9.397  16.877  11.053
37391W        W 9816  20.158  18.462   4.685
37392W        W 9817  42.530  25.246   2.491
37393W        W 9818   2.883  42.906   4.655
37394W        W 9819  27.748  44.384  12.472
37395W        W 9820  27.068  24.003   2.330
37396W        W 9821  35.615  11.884   2.813
37397W        W 9822  11.121  35.024   1.485
37398W        W 9823   4.521  43.317   0.954
37399W        W 9824  37.375   1.840   0.109
37400W        W 9825  43.810   8.154   0.028
37401W        W 9826  16.063  42.036  13.899
37402W        W 9827  26.866  10.463   4.218
37403W        W 9828   6.493  12.811   2.713
37404W        W 9829   8.414  43.091  11.578
37405W        W 9830  33.518  24.096   1.353
37406W        W 9831  41.521  29.880  12.079
37407W        W 9832  14.526  13.339   1.453
37408W        W 9833  16.188   3.795   1.815
37409W        W 9834   2.861   5.262  10.377
37410W        W 9835  30.549  42.507   2.664
37411W        W 9836  26.982  36.861   0.962
37412W        W 9837  27.899   1.223  13.935
37413W        W 9838   7.052   3.744  11.203
37414W        W 9839  23.485   3.810  14.780
37415W        W 9840  11.084  24.418  10.914
37416W        W 9841  32.037  35.849   0.042
37417W        W 9842  19.839  37.988   0.263
37418W        W 9843   2.494   4.386   3.838
37419W        W 9844  28.737  42.339   3.231
37420W        W 9845  26.544  21.329   3.811
37421W        W 9846  39.007  25.136  11.106
37422W        W 9847  42.004  22.150   0.285
37423W        W 9848   1.441  22.950   1.369
37424W        W 9849  17.473  43.613  12.143
37425W        W 9850  39.817  28.024  13.393
37426W        W 9851  40.392  37.543   3.194
37427W        W 9852  41.333   1.937   3.181
37428W        W 9853  32.951   6.344  11.082
37429W        W 9854  40.012  11.764   4.355
37430W        W 9855   5.821  24.325  10.717
37431W        W 9856  14.117  26.261  14.403
37432W        W 9857  15.720  11.200  13.427
37433W        W 9858  11.417   5.824   2.559
37434W        W 9859  16.317  11.044   4.747
37435W        W 9860   1.434   4.207   4.538
37436W        W 9861  42.277   5.896  14.500
37437W        W 9862   8.209   3.770  14.524
37438W        W 9863  24.105  18.399  12.122
37439W        W 9864  42.365  18.284  11.612
37440W        W 9865   2.833   8.950  10.884
37441W        W 9866  42.937  42.981  10.743
37442W        W 9867  34.938  39.309   1.386
37443W        W 9868  28.041  19.720  14.886
37444W        W 9869  38.804   8.742   4.639
37445W        W 9870  44.927  36.297  14.291
37446W        W 9871  30.584   4.393  14.833
37447W        W 9872  25.112  17.529  11.367
37448W        W 9873  12.348  36.113  12.589
37449W        W 9874  38.107  15.354  14.030
37450W        W 9875  16.092   5.440   1.811
37451W        W 9876   3.312  27.932  10.439
37452W        W 9877  44.903  26.384   4.257
37453W        W 9878  33.057  35.031  10.448
37454W        W 9879   0.978  19.579   3.312
37455W        W 9880   6.887   6.925  13.457
37456W        W 9881  24.295  40.437   4.646
37457W        W 9882  17.038  31.494   4.618
37458W        W 9883  19.994  25.028   1.782
37459W        W 9884   1.807   2.944   0.324
37460W        W 9885  18.120  20.727   4.555
37461W        W 9886  37.975  28.211  13.563
37462W        W 9887   8.141  28.506   3.239
37463W        W 9888  13.545  37.966  12.387
37464W        W 9889  26.084  43.891  13.686
37465W        W 9890  19.188  30.583  10.484
37466W        W 9891  44.267  26.645   1.179
37467W        W 9892  13.292  39.580  12.396
37468W        W 9893  14.540   3.426  13.513
37469W        W 9894  34.064  22.594   4.269
37470W        W 9895   5.362  34.034  12.819
37471W        W 9896  43.774  20.696  11.644
37472W        W 9897  30.369  20.841   2.054
37473W        W 9898  37.342   8.730  11.917
37474W        W 9899  33.476  31.087  11.545
37475W        W 9900  39.875   6.814  12.954
37476W        W 9901   4.314  29.919   2.369
37477W        W 9902  16.347  19.457  12.089
37478W        W 9903  15.957   6.612  12.436
37479W        W 9904   1.295  27.755  11.950
37480W        W 9905  11.738   8.829   4.099
37481W        W 9906  31.918  32.411  12.005
37482W        W 9907  44.876  23.502   3.208
37483W        W 9908  43.519  21.424   0.450
37484W        W 9909  35.377  34.807  13.948
37485W        W 9910  37.990   1.929   3.644
37486W        W 9911  31.428  13.312   1.530
37487W        W 9912  12.245  24.557   1.681
37488W        W 9913  17.633   6.819  14.273
37489W        W 9914  43.346  29.133  12.478
37490W        W 9915  37.067   3.521  14.047
37491W        W 9916  36.661  31.449  12.201
37492W        W 9917  36.217   8.317   3.737
37493W        W 9918  32.040  24.604   4.611
37494W        W 9919  15.651   3.552   5.014
37495W        W 9920  33.885  19.077   1.331
37496W        W 9921  22.208  14.683  14.908
37497W        W 9922   4.333  26.318   3.169
37498W        W 9923  26.614  34.990  14.313
37499W        W 9924   4.926  33.059   0.480
37500W        W 9925  31.965  12.829  14.957
37501W        W 9926  39.859  26.431   2.910
37502W        W 9927  41.274   7.791  12.546
37503W        W 9928   8.374  16.449  10.592
37504W        W 9929  14.427  28.598  14.745
37505W        W 9930  38.305  31.536  12.705
37506W        W 9931   5.780  43.793  13.440
37507W        W 9932  16.329  14.363  11.956
37508W        W 9933  11.447  29.472  14.715
37509W        W 9934  43.372   9.325   2.061
37510W        W 9935  43.281  20.064  10.580
37511W        W 9936  26.229   3.883  11.609
37512W        W 9937   9.430   3.379   1.649
37513W        W 9938  14.571  41.797  10.999
37514W        W 9939   1.294  10.865   3.603
37515W        W 9940  41.779  42.716   3.017
37516W        W 9941   1.765   9.030  13.474
37517W        W 9942  21.707  26.905  11.590
37518W        W 9943   0.529  22.158   2.291
37519W        W 9944  35.285  29.197  10.487
37520W        W 9945  10.238   0.319  14.869
37521W        W 9946  39.064  25.885   2.647
37522W        W 9947   1.838  32.421   1.342
37523W        W 9948   6.824  17.081  11.203
37524W        W 9949   7.915   8.671   3.437
37525W        W 9950  17.651  29.578   3.026
37526W        W 9951  14.202   2.656   1.711
37527W        W 9952   6.814  43.938  10.742
37528W        W 9953  41.917  24.451   4.595
37529W        W 9954   0.685  15.392  10.594
37530W        W 9955  17.507   9.740   3.156
37531W        W 9956  34.004  44.354  11.983
37532W        W 9957  29.550   2.408  11.537
37533W        W 9958   2.011  16.642   4.836
37534W        W 9959  17.841  22.107  13.308
37535W        W 9960   1.463  19.014  12.560
37536W        W 9961   9.162  22.984  14.996
37537W        W 9962  16.948  32.491  12.436
37538W        W 9963  39.380  20.456  10.672
37539W        W 9964  11.960  13.635   0.504
37540W        W 9965   7.905  24.310   1.953
37541W        W 9966  31.709  33.439   0.868
37542W        W 9967  13.182  33.003   1.708
37543W        W 9968  36.584  41.107   9.927
37544W        W 9969   2.681   8.370   1.187
37545W        W 9970  37.123  14.816   3.799
37546W        W 9971   0.463  27.967   1.848
37547W        W 9972  38.252   7.160   4.160
37548W        W 9973  25.918  36.969   3.332
37549W        W 9974  16.757  21.634  10.480
37550W        W 9975  17.554  11.874   0.740
37551W        W 9976  20.034  41.569   0.222
37552W        W 9977  19.446  33.267   2.277
37553W        W 9978  25.647  12.537   3.562
37554W        W 9979  14.738  18.908  13.598
37555W        W 9980  24.515  39.152   2.291
37556W        W 9981  24.636  17.747  13.199
37557W        W 9982  11.955  29.657  14.803
37558W        W 9983  39.427  10.667   0.433
37559W        W 9984   5.848  28.599   0.842
37560W        W 9985   3.314  13.323  14.267
37561W        W 9986  29.643  29.558   4.105
37562W        W 9987   1.435  22.656   1.803
37563W        W 9988  13.548   9.664  12.302
37564W        W 9989   4.809   2.469   3.223
37565W        W 9990   0.996  27.728  13.974
37566W        W 9991  44.941  43.113  10.746
37567W        W 9992  36.236  25.222  14.278
37568W        W 9993  21.051  37.386  12.908
37569W        W 9994   7.739  28.566  11.599
37570W        W 9995  12.660  19.569  13.338
37571W        W 9996  44.792   2.758   0.901
37572W        W 9997  31.450  13.823   1.678
37573W        W 9998  44.079  25.018   4.869
37574W        W 9999  17.248   5.502  14.933
37575W        W10000  32.807  31.019   4.173
37576W        W10001  22.173  17.640   4.662
37577W        W10002  31.278  40.594  10.247
37578W        W10003  38.046  31.168  13.477
37579W        W10004  34.474  19.034   0.470
37580W        W10005  28.902   8.271  14.295
37581W        W10006  44.967  11.744   2.918
37582W        W10007  41.875  24.415  11.169
37583W        W10008   9.565  26.128   2.739
37584W        W10009  33.564  40.744   1.814
37585W        W10010  44.438  38.151  12.882
37586W        W10011  36.404  36.261  14.371
37587W        W10012  30.442  27.738  12.839
37588W        W10013  41.509   5.780   0.065
37589W        W10014  34.543   4.362  14.550
37590W        W10015  39.366  12.188   0.245
37591W        W10016   5.438  31.004   0.443
37592W        W10017  43.212  40.584   2.799
37593W        W10018  37.415   0.981  14.307
37594W        W10019  13.063  17.284   0.404
37595W        W10020  36.978  31.325   0.929
37596W        W10021   0.581   7.347  14.534
37597W        W10022  44.969  16.131  13.203
37598W        W10023  22.616  30.829  11.654
37599W        W10024   7.147  33.586  11.121
37600W        W10025  26.177  34.396  12.496
37601W        W10026  34.510  21.205  13.402
37602W        W10027  28.118   8.061   1.743
37603W        W10028   2.279   4.485   3.335
37604W        W10029   7.669   0.086   1.739
37605W        W10030  40.589  39.585  11.978
37606W        W10031   8.884  31.508  11.154
37607W        W10032  20.582   3.858  13.985
37608W        W10033   0.301  33.514  10.358
37609W        W10034  18.728   5.351   0.148
37610W        W10035  38.616  18.611   1.543
37611W        W10036  25.229  29.903   5.197
37612W        W10037  33.437  30.447   3.147
37613W        W10038  33.768  32.100   1.262
37614W        W10039  30.515   6.360   2.205
37615W        W10040   7.971  19.305   0.558
37616W        W10041  35.659   2.742  11.865
37617W        W10042  39.298   6.453  10.175
37618W        W10043  28.446  10.973  10.440
37619W        W10044   5.797  12.298   1.370
37620W        W10045   9.924  32.224  14.511
37621W        W10046  18.444  15.080  12.446
37622W        W10047  29.439  35.258  12.577
37623W        W10048  18.546  10.378   5.053
37624W        W10049   3.691  40.761   1.858
37625W        W10050  22.557  33.559   1.876
37626W        W10051   7.526  34.852  10.725
37627W        W10052   2.360  14.996  11.032
37628W        W10053  19.360   0.560   4.599
37629W        W10054  28.163  35.344  11.261
37630W        W10055   8.640   7.776  11.474
37631W        W10056  22.510  37.844  12.031
37632W        W10057  42.384  34.569  14.977
37633W        W10058  22.132   0.925  11.146
37634W        W10059   6.467   7.552   2.163
37635W        W10060  30.036   9.826   3.359
37636W        W10061  41.600  37.386   4.553
37637W        W10062  29.491  41.507  10.548
37638W        W10063   0.117  40.467   0.517
37639W        W10064  15.318  18.836  14.848
37640W        W10065   3.410  27.198   4.202
37641W        W10066  32.507  30.858   1.384
37642W        W10067   4.010  19.345   3.694
37643W        W10068  35.042  16.894   1.653
37644W        W10069  35.588  31.111   2.149
37645W        W10070  33.523  14.827  14.809
37646W        W10071   9.268  42.422  12.655
37647W        W10072   1.865  41.971   2.842
37648W        W10073   6.651  35.369   3.180
37649W        W10074  36.553  11.957  12.451
37650W        W10075  35.964  30.092   0.368
37651W        W10076  34.324   0.493   2.214
37652W        W10077  24.105   9.380   0.008
37653W        W10078  23.403  40.829  13.842
37654W        W10079  19.405  44.250  10.792
37655W        W10080   9.830  34.071   0.494
37656W        W10081   8.610  29.571   4.161
37657W        W10082  29.740  41.801   4.660
37658W        W10083  42.081  39.096  10.851
37659W        W10084  28.922  24.044  14.308
37660W        W10085   2.745   5.261   1.317
37661W        W10086  26.137  12.077  12.909
37662W        W10087  36.169  17.281   0.942
37663W        W10088  31.869   1.676  14.373
37664W        W10089  21.490  25.996   3.152
37665W        W10090  11.960  29.385  12.379
37666W        W10091  18.155  34.627   4.714
37667W        W10092  42.096  15.801   2.060
37668W        W10093  32.566  20.680   1.769
37669W        W10094  26.716  24.567  11.167
37670W        W10095  36.280  22.434   2.762
37671W        W10096  41.500  10.609  12.006
37672W        W10097  41.579  34.169  11.647
37673W        W10098  34.704   6.925  10.499
37674W        W10099  19.445  28.198   1.920
37675W        W10100  26.147  41.949  10.713
37676W        W10101  14.108  44.025   3.691
37677W        W10102   5.159   8.631  13.765
37678W        W10103  11.817  19.481  13.854
37679W        W10104  28.648  14.976  12.031
37680W        W10105  25.238   9.350   2.852
37681W        W10106  39.842  24.445   3.016
37682W        W10107  42.520  38.911   2.780
37683W        W10108   2.953  23.584   3.116
37684W        W10109  34.597  43.924  11.460
37685W        W10110   1.216  11.240   1.288
37686W        W10111   0.382  36.044  13.946
37687W        W10112  20.697  43.319   3.603
37688W        W10113  13.240  41.224   1.261
37689W        W10114  28.049   1.370   0.354
37690W        W10115  43.130  32.963  10.195
37691W        W10116  31.673  39.984  10.943
37692W        W10117  21.222  20.113   3.250
37693W        W10118  27.585  24.475  12.547
37694W        W10119  41.953  17.736   3.669
37695W        W10120   8.903   7.360   4.099
37696W        W10121  29.415  40.986  12.109
37697W        W10122  32.425  18.173  12.224
37698W        W10123  41.009   4.836  13.776
37699W        W10124  28.953  15.872  11.017
37700W        W10125  32.493   3.363   4.263
37701W        W10126  16.019  10.187  12.240
37702W        W10127  24.641  17.105  11.848
37703W        W10128  11.642  22.153  12.072
37704W        W10129  13.089  21.661   4.696
37705W        W10130   1.364  44.118  10.649
37706W        W10131   8.296  36.783  11.434
37707W        W10132  13.432  31.602   4.532
37708W        W10133  10.504  13.768  14.337
37709W        W10134  10.292  28.645  12.023
37710W        W10135  16.071   2.357  12.557
37711W        W10136   7.559  27.897   1.902
37712W        W10137  42.277   3.065  12.117
37713W        W10138  44.233  42.709   4.096
37714W        W10139  18.019  31.544  12.462
37715W        W10140  27.614  32.051  12.381
37716W        W10141  28.386  36.075  14.880
37717W        W10142  38.609  29.875   4.081
37718W        W10143  24.162   6.184   1.999
37719W        W10144   6.738  14.725   3.196
37720W        W10145  19.657   6.354   3.179
37721W        W10146  32.384  11.136  14.371
37722W        W10147  30.589   8.389  12.411
37723W        W10148  18.454  12.174   1.563
37724W        W10149  17.814   3.280  13.085
37725W        W10150  14.734  19.407  11.619
37726W        W10151  24.507  13.358   1.758
37727W        W10152  40.852  25.720  11.717
37728W        W10153  36.116   0.373  11.651
37729W        W10154  10.152  44.017   2.316
37730W        W10155  34.038  35.386  14.294
37731W        W10156  16.925  36.057   0.702
37732W        W10157  23.919  20.116  13.418
37733W        W10158  20.249  42.793  11.679
37734W        W10159  25.711   7.192  11.423
37735W        W10160   6.313  12.792   1.737
37736W        W10161   3.735  42.093  11.316
37737W        W10162  12.970  39.762  11.221
37738W        W10163  27.954  37.494   0.561
37739W        W10164  39.061  20.204   1.383
37740W        W10165   9.400  28.864   0.752
37741W        W10166  12.133  44.296   0.270
37742W        W10167  10.972   8.231  14.473
37743W        W10168  24.275  12.305   4.098
37744W        W10169   4.829   5.611  13.621
37745W        W10170  34.542  23.242   2.212
37746W        W10171  25.629  21.695  13.832
37747W        W10172  38.620  19.484   3.216
37748W        W10173   7.717  39.469   0.069
37749W        W10174   8.839  42.875  13.934
37750W        W10175  21.711  15.354  11.810
37751W        W10176  30.071  41.113   4.291
37752W        W10177  29.609  37.271   0.568
37753W        W10178   8.382  14.623  14.802
37754W        W10179  40.983  13.929   0.460
37755W        W10180  26.241  22.492  13.196
37756W        W10181  16.233   3.679  13.923
37757W        W10182  24.764  16.771   2.877
37758W        W10183  41.421  44.063   0.082
37759W        W10184  28.276  14.393   1.488
37760W        W10185  11.153  37.582  13.872
37761W        W10186  13.864  20.549  10.352
37762W        W10187  18.117  30.517   1.911
37763W        W10188   3.729   2.250   0.866
37764W        W10189  20.116  16.794   3.174
37765W        W10190   6.699   1.887  10.489
37766W        W10191  26.942  11.622   2.754
37767W        W10192  21.749  36.908   2.890
37768W        W10193   9.865   0.498  12.543
37769W        W10194  12.910  36.661   3.648
37770W        W10195  15.366  16.211   0.285
37771W        W10196  23.876  21.331  10.113
37772W        W10197  35.958  16.043   2.455
37773W        W10198   3.236  32.470  11.652
37774W        W10199  27.243  37.767   1.405
37775W        W10200  16.086  20.430  12.188
37776W        W10201  32.995  40.337   3.182
37777W        W10202  13.385  42.412  11.951
37778W        W10203  11.787  33.879   4.465
37779W        W10204  27.187  17.447   4.153
37780W        W10205   5.112   1.294   3.319
37781W        W10206   7.443   5.072  14.493
37782W        W10207  40.053   1.454   1.481
37783W        W10208  36.046   7.360  10.381
37784W        W10209  19.297  44.032   3.183
37785W        W10210  44.747  38.315   2.394
37786W        W10211   7.796  32.410   4.088
37787W        W10212  35.097  28.139   0.256
37788W        W10213  28.802   9.932   2.125
37789W        W10214  24.755  42.896  13.910
37790W        W10215  37.248  19.150   0.741
37791W        W10216  19.223  18.825  11.508
37792W        W10217   7.615  19.125   0.918
37793W        W10218  43.530  42.302  12.543
37794W        W10219  15.576   6.683  11.040
37795W        W10220   3.753  14.035   1.586
37796W        W10221  20.566  30.581   4.726
37797W        W10222  21.376  35.249  10.036
37798W        W10223  22.495   8.760  10.002
37799W        W10224  42.267  30.455  11.589
37800W        W10225  34.015  21.536  12.801
37801W        W10226  31.590   7.431   1.891
37802W        W10227  17.520  28.016   3.326
37803W        W10228  37.642  39.335  10.778
37804W        W10229  44.891   1.550   3.734
37805W        W10230  18.851  19.625  10.204
37806W        W10231  42.265  38.560  13.808
37807W        W10232   2.758  40.140   3.278
37808W        W10233  29.422   5.948  10.552
37809W        W10234   2.847   2.697   3.121
37810W        W10235   4.164  11.623   2.812
37811W        W10236  28.113   5.978   4.144
37812W        W10237  14.803  44.473  11.442
37813W        W10238  28.565  22.570   2.354
37814W        W10239  28.942   1.160   3.826
37815W        W10240  23.213  26.908   4.294
37816W        W10241  22.019  11.671   1.845
37817W        W10242  10.138  21.295  11.905
37818W        W10243  20.948   3.589   5.021
37819W        W10244  16.810  31.136  11.102
37820W        W10245  22.664  30.649  12.142
37821W        W10246  14.229  13.323  14.541
37822W        W10247  37.569  38.580  12.385
37823W        W10248   1.157   0.268   1.356
37824W        W10249  19.523  27.510  10.960
37825W        W10250   5.074   6.249   4.894
37826W        W10251  24.637  29.959  11.938
37827W        W10252  19.945   7.080  14.499
37828W        W10253  38.236  36.442  12.985
37829W        W10254  23.064   0.503  12.800
37830W        W10255  32.430  16.960  11.475
37831W        W10256  38.023  15.823  13.370
37832W        W10257  34.821  24.434  14.947
37833W        W10258   2.765  39.535   2.208
37834W        W10259   0.372  21.154   1.761
37835W        W10260   6.334  43.710   4.510
37836W        W10261  38.544  24.997  13.511
37837W        W10262  25.783   2.070  11.515
37838W        W10263  10.824  31.257   1.258
37839W        W10264  21.237  23.749   2.005
37840W        W10265  43.381  19.478   3.321
37841W        W10266  38.958  33.789   4.057
37842W        W10267  40.344  22.632  13.115
37843W        W10268  32.451  23.063   1.457
37844W        W10269  14.498   5.294  11.243
37845W        W10270  28.479  29.179   2.426
37846W        W10271  14.112  26.122  10.640
37847W        W10272  21.740   5.750   0.402
37848W        W10273  32.494  42.379   1.018
37849W        W10274   9.398  10.368  14.811
37850W        W10275   9.398  42.389  13.958
37851W        W10276   6.721  28.655   2.191
37852W        W10277   3.487  30.355   3.609
37853W        W10278  18.911  10.941   3.164
37854W        W10279  25.319  31.587   4.586
37855W        W10280  44.482  14.583   4.721
37856W        W10281  14.057  41.408  13.805
37857W        W10282  33.696   9.821   4.821
37858W        W10283  16.696  15.647   0.315
37859W        W10284  35.095  44.881  13.514
37860W        W10285  40.936  43.953  14.902
37861W        W10286  33.774  20.764   0.419
37862W        W10287  29.913   5.324   2.316
37863W        W10288  19.521  29.969   4.277
37864W        W10289  31.709  13.267  12.487
37865W        W10290  18.659  37.453   3.742
37866W        W10291  18.807   2.927   2.430
37867W        W10292  13.130   7.849  13.463
37868W        W10293  25.548  28.958   3.139
37869W        W10294  29.576  13.832   2.399
37870W        W10295   9.285  40.474  11.507
37871W        W10296  26.048  14.130  10.811
37872W        W10297  34.463   0.804  13.328
37873W        W10298  13.507  14.189  12.835
37874W        W10299  15.780  27.470   1.298
37875W        W10300   4.947  25.332  10.790
37876W        W10301  40.883   5.975  12.676
37877W        W10302   5.845   3.668   3.662
37878W        W10303  29.011  12.773  13.916
37879W        W10304  18.022   8.927   3.579
37880W        W10305  15.210  19.494  13.928
37881W        W10306  37.159  23.144   1.858
37882W        W10307  43.235  34.673   3.263
37883W        W10308  10.866  20.642  13.525
37884W        W10309  20.316  35.899   3.243
37885W        W10310  20.795  36.149   3.287
37886W        W10311  23.645   8.745  14.490
37887W        W10312  26.560   6.216   5.358
37888W        W10313   1.469  13.712  14.998
37889W        W10314  17.042   4.301  11.206
37890W        W10315   0.674  29.972   3.466
37891W        W10316  14.297  40.111   0.186
37892W        W10317   5.696  21.968  11.677
37893W        W10318  15.651  16.580   4.299
37894W        W10319  43.063  35.037   3.633
37895W        W10320  23.060  10.369  12.512
37896W        W10321   1.864   6.364   0.208
37897W        W10322  26.540  18.243  12.112
37898W        W10323  25.468  18.674  10.676
37899W        W10324  26.428  43.428  12.976
37900W        W10325  40.515  17.228   5.017
37901W        W10326  23.125   9.882  12.404
37902W        W10327  34.828  32.927   1.647
37903W        W10328  43.766   7.382   4.334
37904W        W10329   6.667  44.401  10.582
37905W        W10330  12.396  29.069   4.601
37906W        W10331   6.191   5.968   0.889
37907W        W10332  37.398  33.588   3.394
37908W        W10333  15.937  42.384  11.828
37909W        W10334  13.612  18.222  10.634
37910W        W10335  22.764  38.746   2.485
37911W        W10336  22.519  10.191  11.897
37912W        W10337   5.625   1.045  14.844
37913W        W10338  34.579  31.925  14.817
37914W        W10339  24.169   9.293   2.689
37915W        W10340   7.943  34.484  10.739
37916W        W10341   8.990  29.665   4.590
37917W        W10342  33.107  15.165  14.807
37918W        W10343   0.393  27.719   1.381
37919W        W10344  16.064  17.527  12.472
37920W        W10345   8.942   3.811   2.165
37921W        W10346  34.868  16.299   2.306
37922W        W10347  41.936  30.055   0.316
37923W        W10348  27.093  30.100   4.703
37924W        W10349  28.067  10.811  11.919
37925W        W10350  36.786   0.339  14.568
37926W        W10351  41.821  21.241  14.922
37927W        W10352  39.959  23.972   4.347
37928W        W10353   7.995  11.353  10.876
37929W        W10354   4.784  29.029   2.393
37930W        W10355  31.186   1.227   2.839
37931W        W10356   8.681  19.842   0.176
37932W        W10357  32.620  44.881  10.688
37933W        W10358  40.815   3.588   4.810
37934W        W10359  26.196   6.597   4.710
37935W        W10360  32.592  25.158  12.003
37936W        W10361  39.351  15.848   1.379
37937W        W10362  32.061  28.648   2.617
37938W        W10363   7.515  23.474  12.300
37939W        W10364  24.620   3.994   3.227
37940W        W10365   5.481   9.817  12.532
37941W        W10366  35.342  12.133  10.823
37942W        W10367  15.087   0.504   0.785
37943W        W10368   7.995  37.410   3.003
37944W        W10369   6.296  11.820  12.065
37945W        W10370  23.657  22.445  12.874
37946W        W10371   3.820  31.384   1.738
37947W        W10372  18.788  33.082  11.509
37948W        W10373  29.170   2.814   3.524
37949W        W10374  39.163  10.287  13.761
37950W        W10375  17.940  31.558  14.683
37951W        W10376  35.479   6.805  12.668
37952W        W10377  19.881  22.599   0.277
37953W        W10378   1.233  39.948   1.394
37954W        W10379   2.330  24.529   4.599
37955W        W10380  29.610  39.298   0.813
37956W        W10381   5.351  14.260   3.716
37957W        W10382  11.772   5.900   3.354
37958W        W10383  44.685  34.705  10.928
37959W        W10384  29.192  20.572   0.932
37960W        W10385  40.747  26.726  12.487
37961W        W10386   0.754  37.843   4.075
37962W        W10387  39.773  32.078   4.761
37963W        W10388  24.057  14.129  14.074
37964W        W10389  17.352  23.441   5.036
37965W        W10390  37.146   4.362   4.017
37966W        W10391  35.829  18.221   2.854
37967W        W10392  10.112  36.575   3.152
37968W        W10393  31.474  28.417   3.911
37969W        W10394   4.877  21.518   1.376
37970W        W10395  44.297   6.951  12.448
37971W        W10396   3.853  20.174   3.556
37972W        W10397  21.329  15.688   5.074
37973W        W10398  12.627   1.735  12.853
37974W        W10399  11.523  16.571  14.909
37975W        W10400  43.312   1.353   2.462
37976W        W10401  20.175  25.921   0.949
37977W        W10402  38.322   4.757   0.265
37978W        W10403  31.482  13.712  12.463
37979W        W10404   1.348  30.436  12.491
37980W        W10405  28.182  13.195   4.496
37981W        W10406   0.412  27.434   1.818
37982W        W10407  35.549  23.983  13.989
37983W        W10408  19.627   3.488   2.314
37984W        W10409  40.002  31.970  14.311
37985W        W10410  36.100  11.852   0.033
37986W        W10411  21.025   6.269   0.739
37987W        W10412   5.662  26.048  12.925
37988W        W10413  34.897  40.011   3.756
37989W        W10414  11.236  38.363   0.159
37990W        W10415  18.886  11.473  12.067
37991W        W10416  43.588  21.147  12.121
37992W        W10417  20.072   9.160   4.509
37993W        W10418   2.200   5.360  13.459
37994W        W10419   3.049  30.697   2.339
37995W        W10420  29.165  20.661  11.046
37996W        W10421  34.911  40.495   3.285
37997W        W10422  38.858  34.080  12.886
37998W        W10423  22.976   5.236   1.343
37999W        W10424   4.718  10.672  12.150
38000W        W10425  37.992  20.837  10.880
38001W        W10426  42.570  43.424   0.659
38002W        W10427  19.507   8.122   3.358
38003W        W10428  25.508  39.375   2.249
38004W        W10429  33.699   9.884   3.820
38005W        W10430  17.926  44.808   3.647
38006W        W10431   0.074  31.590   4.190
38007W        W10432   7.787  26.454   2.886
38008W        W10433   0.071   5.911   3.680
38009W        W10434   0.941   5.193  10.748
38010W        W10435  14.929   2.076  11.004
38011W        W10436  41.725  39.134  14.880
38012W        W10437  13.983  33.915   0.111
38013W        W10438  44.832  29.616   3.823
38014W        W10439   3.962  41.336   4.056
38015W        W10440  43.499  43.490  14.223
38016W        W10441  37.305   1.258  13.089
38017W        W10442  36.328   9.274   4.624
38018W        W10443  30.478  20.564   4.470
38019W        W10444  19.600  43.205   1.453
38020W        W10445  31.412  29.470   3.136
38021W        W10446  13.608  26.508   0.238
38022W        W10447  13.610   8.928   2.713
38023W        W10448  44.735  23.022   1.258
38024W        W10449  27.788  39.405   4.227
38025W        W10450  27.692  11.148   0.873
38026W        W10451  43.190  43.068  10.293
38027W        W10452  20.266   8.310   0.457
38028W        W10453  27.034  40.472   2.505
38029W        W10454   4.492  36.047   4.218
38030W        W10455  10.164  42.425  13.489
38031W        W10456  37.563  12.710   1.718
38032W        W10457  25.611   1.298  14.170
38033W        W10458  28.080  23.151   0.499
38034W        W10459   7.757  14.107   2.788
38035W        W10460  34.015  19.637  14.237
38036W        W10461  33.335  22.147  14.830
38037W        W10462  35.911  29.078   3.871
38038W        W10463  24.077   2.402  10.805
38039W        W10464  20.710   3.161  13.400
38040W        W10465  14.234  27.560  13.929
38041W        W10466  23.522  42.465  12.016
38042W        W10467  24.086  27.102   2.529
38043W        W10468  37.666  25.103   3.203
38044W        W10469  16.620   9.966   3.807
38045W        W10470  11.641  14.041  13.122
38046W        W10471   3.457  26.542   2.877
38047W        W10472  31.632   8.744   4.555
38048W        W10473  12.558  25.510   0.312
38049W        W10474  30.638  39.389   1.179
38050W        W10475  44.052  31.714   3.092
38051W        W10476   1.505  44.563  12.436
38052W        W10477  33.696  44.354  12.487
38053W        W10478  10.295  17.227  12.611
38054W        W10479  41.223  34.182   0.367
38055W        W10480  11.085  37.259  13.050
38056W        W10481  37.752   0.046  12.528
38057W        W10482  10.206  18.180   3.213
38058W        W10483   9.894  21.993   1.911
38059W        W10484  37.982  15.290   2.915
38060W        W10485  40.028  19.134  11.396
38061W        W10486  23.761  43.530   2.621
38062W        W10487  26.398  34.115   0.513
38063W        W10488   0.791   4.190  13.900
38064W        W10489   1.314  32.425  12.837
38065W        W10490   6.936  37.501  12.909
38066W        W10491   5.313  10.403   4.114
38067W        W10492  33.815   1.126   1.956
38068W        W10493  42.866  22.582  10.570
38069W        W10494  23.359  12.682   4.921
38070W        W10495  10.868  26.155  14.432
38071W        W10496  41.042   7.314   0.766
38072W        W10497  23.960  31.788   2.630
38073W        W10498   2.394  39.765   3.285
38074W        W10499  14.722  10.198  12.766
38075W        W10500   9.517   2.427  13.683
38076W        W10501  44.887  18.710   2.398
38077W        W10502   8.436  29.495   3.282
38078W        W10503  22.065   1.480  10.466
38079W        W10504  16.587   3.811  12.444
38080W        W10505  19.595  14.147  10.960
38081W        W10506  35.099  20.635   0.868
38082W        W10507  21.107  26.360   0.802
38083W        W10508  23.777  25.764  13.324
38084W        W10509   3.302  44.100   4.847
38085W        W10510   0.355  24.419   1.446
38086W        W10511   8.647  19.985   0.986
38087W        W10512  29.338  26.607  11.508
38088W        W10513   2.973   6.765  13.105
38089W        W10514  24.789  27.817  11.134
38090W        W10515  22.467  22.683   2.342
38091W        W10516  12.267  18.157  13.815
38092W        W10517  11.753  44.805   1.987
38093W        W10518  34.588  42.480   2.423
38094W        W10519   2.460  37.565   0.739
38095W        W10520  15.096   8.329   4.536
38096W        W10521  17.510   3.355   1.644
38097W        W10522  20.164  21.345   4.109
38098W        W10523  22.249  31.027   1.504
38099W        W10524  40.557  12.820   4.041
38100W        W10525  10.800  44.211  14.013
38101W        W10526  22.457  32.520   3.143
38102W        W10527  28.109  23.121   3.337
38103W        W10528  15.597   3.028  12.058
38104W        W10529  38.087  16.169   3.113
38105W        W10530  13.647  13.396   1.230
38106W        W10531  22.556  35.510  12.418
38107W        W10532   4.463   1.786  12.586
38108W        W10533  25.933  24.099  13.807
38109W        W10534  26.626  18.552   3.673
38110W        W10535  36.679  17.032  10.319
38111W        W10536   5.043  11.801   4.460
38112W        W10537  26.712  20.006   4.083
38113W        W10538  29.625  35.960  13.034
38114W        W10539  21.537  19.721   1.875
38115W        W10540  12.305  33.071  10.626
38116W        W10541   3.612  43.442   3.652
38117W        W10542  37.899  34.667  13.315
38118W        W10543  31.536  18.598   1.305
38119W        W10544   0.731  23.796  11.574
38120W        W10545  13.518   2.198   2.340
38121W        W10546  21.553  28.477   3.372
38122W        W10547   2.869  27.340   2.138
38123W        W10548  20.484  41.899   3.822
38124W        W10549  27.985  23.500  14.071
38125W        W10550  16.788  29.157  11.476
38126W        W10551  24.068  27.259   4.511
38127W        W10552  21.612  37.943   1.155
38128W        W10553   2.288  30.109   2.222
38129W        W10554  14.433  24.722  12.369
38130W        W10555  17.513  42.367  13.926
38131W        W10556  32.587  24.341   1.111
38132W        W10557  29.385   0.587   2.762
38133W        W10558  17.362   6.701  10.628
38134W        W10559  38.616  16.578   4.751
38135W        W10560  24.165   5.726   1.623
38136W        W10561   6.856  35.934   4.352
38137W        W10562  40.411  44.544   3.129
38138W        W10563  24.732  15.262  12.498
38139W        W10564  25.226  37.171   4.507
38140W        W10565  15.661  29.715   1.692
38141W        W10566  19.861  42.483   2.142
38142W        W10567   3.801   9.921  12.840
38143W        W10568  32.883   9.539  12.956
38144W        W10569  40.543  15.784   3.175
38145W        W10570  24.541  31.831   1.356
38146W        W10571  10.648  16.067   0.891
38147W        W10572  40.209  29.010   4.373
38148W        W10573   0.718  30.219  11.512
38149W        W10574  36.569  23.621   3.619
38150W        W10575  40.713  30.802   4.472
38151W        W10576   7.645  26.063   1.221
38152W        W10577  33.538  29.696  13.055
38153W        W10578   1.332   9.284  11.688
38154W        W10579  32.047  27.497  14.913
38155W        W10580   8.336  36.395  12.410
38156W        W10581   8.193  27.116  11.046
38157W        W10582  17.843  39.043   1.793
38158W        W10583  39.753  28.096  14.386
38159W        W10584   6.925  41.550   4.268
38160W        W10585   6.163  21.243   4.356
38161W        W10586  32.181   8.120  11.788
38162W        W10587  18.529  13.021   3.707
38163W        W10588  13.812   1.343   1.452
38164W        W10589   1.929  26.221   4.313
38165W        W10590  44.483  32.096  12.863
38166W        W10591  19.742  38.337   2.555
38167W        W10592  44.025  34.503   0.355
38168W        W10593  10.310   8.789  13.315
38169W        W10594  39.942  12.644  12.015
38170W        W10595  19.346   3.646   0.983
38171W        W10596   6.673  18.718   1.486
38172W        W10597   9.905   2.234  10.665
38173W        W10598  27.482  31.119   4.883
38174W        W10599  40.039  24.998   4.659
38175W        W10600  33.480   5.755  12.596
38176W        W10601  24.246  33.556  13.934
38177W        W10602  33.497  11.659  10.567
38178W        W10603   5.906  12.882  13.928
38179W        W10604  44.511  24.209   2.598
38180W        W10605  32.099  33.991   4.292
38181W        W10606  33.953  11.623   3.765
38182W        W10607  10.661  24.954   3.136
38183W        W10608  22.656  30.425  12.618
38184W        W10609   3.237  41.379   1.397
38185W        W10610  22.105   4.846  14.452
38186W        W10611  10.764  36.063  10.631
38187W        W10612   4.405  29.152  11.158
38188W        W10613  25.032  16.304  14.335
38189W        W10614  38.043   1.382  11.346
38190W        W10615  39.689  34.380  11.156
38191W        W10616  25.661  35.386   2.137
38192W        W10617   7.761  39.292   1.490
38193W        W10618  44.832  21.014  12.961
38194W        W10619  12.109  19.056  14.033
38195W        W10620  24.716  34.159  13.437
38196W        W10621  33.554  12.787  13.332
38197W        W10622  28.470  35.788  11.596
38198W        W10623  26.068  41.342  11.487
38199W        W10624  35.012  21.774   0.046
38200W        W10625  26.144   0.293  11.352
38201W        W10626  11.761  40.813   0.207
38202W        W10627  14.368  37.395   4.248
38203W        W10628  40.554  39.873  10.383
38204W        W10629   2.657  39.950  14.320
38205W        W10630  32.425  38.834  13.003
38206W        W10631  27.259  17.569   1.085
38207W        W10632  19.290  34.018   1.760
38208W        W10633   8.407  25.154   1.856
38209W        W10634  36.917  30.358   1.162
38210W        W10635  43.492  23.563  14.810
38211W        W10636   2.442  10.722   1.814
38212W        W10637   8.303   5.295  10.632
38213W        W10638  29.303  16.887   3.649
38214W        W10639  44.782   6.897   3.891
38215W        W10640  28.968  19.682   0.421
38216W        W10641  19.454   2.962  12.393
38217W        W10642  43.083   1.906  12.599
38218W        W10643  25.081  26.107  14.047
38219W        W10644  16.837   2.153  11.258
38220W        W10645  21.743   2.800  13.561
38221W        W10646  41.428   8.348   3.278
38222W        W10647  27.232  19.839   3.202
38223W        W10648   0.347   1.251  13.944
38224W        W10649  10.433  19.390  11.209
38225W        W10650  14.687  14.287  10.732
38226W        W10651  13.136   0.432   2.916
38227W        W10652  41.756  35.718   4.181
38228W        W10653  34.511  40.887  12.986
38229W        W10654  35.765  40.824  14.337
38230W        W10655  33.647  44.662   4.564
38231W        W10656  16.298   7.225  13.071
38232W        W10657  28.210  26.025  13.053
38233W        W10658   0.443   9.693   4.785
38234W        W10659  34.342  15.408   0.893
38235W        W10660  41.723   1.131   0.318
38236W        W10661  12.150  18.788  11.047
38237W        W10662  17.268  38.542   3.312
38238W        W10663  44.448  17.214   2.353
38239W        W10664  35.332   6.910  13.998
38240W        W10665  15.272  28.033   0.856
38241W        W10666   7.159  35.340   1.470
38242W        W10667   0.977  32.333  10.626
38243W        W10668  20.581  16.018   2.428
38244W        W10669  19.302   1.806   0.601
38245W        W10670   1.919  39.358   4.051
38246W        W10671  29.608  11.610   2.326
38247W        W10672   9.919  44.395   4.587
38248W        W10673  33.288  37.369   3.300
38249W        W10674  33.927  31.866   4.788
38250W        W10675  43.828  20.759   4.934
38251W        W10676  31.149  23.648  10.585
38252W        W10677  40.850  31.071   4.915
38253W        W10678   2.639  18.383  14.461
38254W        W10679  20.771  38.820  11.222
38255W        W10680  34.430  18.544   1.833
38256W        W10681  37.856   7.162  14.837
38257W        W10682  35.978  33.273   3.342
38258W        W10683   3.074  36.155  14.934
38259W        W10684  23.679  16.748  13.054
38260W        W10685  25.929   6.535  10.898
38261W        W10686  36.506  12.483  14.493
38262W        W10687  11.874  13.146   4.062
38263W        W10688  20.133  35.877   4.560
38264W        W10689  42.301  14.191  12.081
38265W        W10690   0.213  32.045   2.220
38266W        W10691  42.847   8.123   2.099
38267W        W10692  20.002  15.753   1.787
38268W        W10693  15.671  34.409  12.543
38269W        W10694  28.414  32.599  12.543
38270W        W10695  39.955  28.188   3.279
38271W        W10696  35.760  20.210   2.220
38272W        W10697  44.823  13.504   0.459
38273W        W10698  38.787  30.995  14.796
38274W        W10699  19.460  20.611  13.130
38275W        W10700  36.624  20.552   1.741
38276W        W10701  13.966  13.401  14.996
38277W        W10702  12.913   4.881   5.099
38278W        W10703  27.088  10.131   0.885
38279W        W10704  39.789  16.342  12.364
38280W        W10705   3.294   4.727   2.931
38281W        W10706  15.527   8.715   1.538
38282W        W10707  34.612  43.542   1.378
38283W        W10708  44.581  25.177  11.097
38284W        W10709  41.044  18.885  11.102
38285W        W10710   4.740  17.128  10.418
38286W        W10711  33.873  26.724  14.743
38287W        W10712  30.180  28.883  10.979
38288W        W10713  23.314  30.198   1.818
38289W        W10714  22.357   3.790   3.183
38290W        W10715  35.567  23.248  12.576
38291W        W10716   2.374   7.589  14.511
38292W        W10717  34.149  41.832   0.339
38293W        W10718  39.100   5.198  10.989
38294W        W10719  24.517  36.686   0.729
38295W        W10720  24.931  33.572   4.011
38296W        W10721  30.956   9.682  12.680
38297W        W10722   1.080   2.366  13.874
38298W        W10723  44.700   8.790   2.741
38299W        W10724  10.660   8.218  11.963
38300W        W10725  32.489  31.219  14.047
38301W        W10726   1.590  20.880  13.952
38302W        W10727   1.210   5.287   3.144
38303W        W10728  37.532  32.592  13.538
38304W        W10729  16.651  17.596   0.075
38305W        W10730  14.273  36.434  13.590
38306W        W10731   6.823  11.604   0.435
38307W        W10732  27.070  33.658  11.492
38308W        W10733   1.251  12.199  10.300
38309W        W10734  26.523   4.380   2.697
38310W        W10735  29.829   8.969  11.455
38311W        W10736  13.750  35.543  13.431
38312W        W10737  22.457   3.842  14.987
38313W        W10738  26.118  38.930  13.115
38314W        W10739  21.043   7.291   4.772
38315W        W10740   4.500  30.897  14.540
38316W        W10741   6.872  14.148   2.169
38317W        W10742  36.369  20.709   3.263
38318W        W10743   7.179  33.045   4.339
38319W        W10744   5.044   7.704  14.992
38320W        W10745   9.441  19.753   5.077
38321W        W10746  26.425  27.333  10.308
38322W        W10747   7.478  38.452  14.302
38323W        W10748  22.112  13.816   0.846
38324W        W10749   5.001  16.222  14.495
38325W        W10750   1.481   0.434  11.876
38326W        W10751  19.183  44.511   0.751
38327W        W10752  40.808   5.327  13.816
38328W        W10753   7.321  19.254  14.949
38329W        W10754   0.959  12.297  13.887
38330W        W10755  38.371  26.435   4.294
38331W        W10756  42.498  27.110   3.194
38332W        W10757  31.938  14.746  14.257
38333W        W10758  13.797  41.607   2.822
38334W        W10759  42.097  23.680  12.443
38335W        W10760  21.804  38.894  10.293
38336W        W10761  31.093  21.253   4.728
38337W        W10762  40.752  22.540   5.003
38338W        W10763  21.013  22.124  13.059
38339W        W10764   8.791  20.474  11.135
38340W        W10765  17.174  12.268  13.698
38341W        W10766  41.320  44.921  11.404
38342W        W10767  43.747  21.587  14.983
38343W        W10768   9.101  26.983  12.998
38344W        W10769  32.119  18.267  10.353
38345W        W10770   4.917   4.512  12.026
38346W        W10771  35.256  15.899  11.081
38347W        W10772  22.943  18.033   0.026
38348W        W10773  35.805  35.415   2.361
38349W        W10774  15.582  20.983   1.408
38350W        W10775  44.405  26.974  12.158
38351W        W10776  17.736  41.884  12.636
38352W        W10777  10.378  30.937   5.007
38353W        W10778  24.314  31.918   0.516
38354W        W10779  19.482  10.350  10.357
38355W        W10780  23.550  43.288   2.191
38356W        W10781   0.828  42.144  12.426
38357W        W10782  37.482  16.378   1.691
38358W        W10783  38.718  24.402  11.124
38359W        W10784   7.846  21.567   4.567
38360W        W10785  12.756  31.712  11.123
38361W        W10786   7.618  21.300   1.379
38362W        W10787  42.256  28.437   3.077
38363W        W10788  30.556  44.915   3.609
38364W        W10789  11.649   7.967   1.302
38365W        W10790  10.634  17.532   4.663
38366W        W10791  36.519   8.510   9.850
38367W        W10792  18.142  40.549   1.876
38368W        W10793  40.096  10.754   4.655
38369W        W10794  22.481  14.773   1.019
38370W        W10795  24.764  34.035  11.661
38371W        W10796  34.361   5.709  13.517
38372W        W10797  22.580  34.362   1.485
38373W        W10798  43.308  44.988  11.462
38374W        W10799  17.755  41.310   4.077
38375W        W10800  18.236  25.817   3.696
38376W        W10801  30.331  39.466   0.207
38377W        W10802  29.571  15.460  12.131
38378W        W10803  39.565  18.976  12.597
38379W        W10804  33.889  16.800   4.798
38380W        W10805  42.717   6.074  13.251
38381W        W10806  43.287   6.790  14.810
38382W        W10807  12.008  17.828   1.800
38383W        W10808  32.871  10.685   1.710
38384W        W10809   3.236  39.547  11.145
38385W        W10810  39.623  35.593   0.732
38386W        W10811  17.075  25.072  14.051
38387W        W10812  24.594  22.606  11.280
38388W        W10813  28.477  41.886   4.153
38389W        W10814  19.107  19.825  14.037
38390W        W10815  38.570  22.478   4.163
38391W        W10816  37.886  33.140  10.983
38392W        W10817  28.653   3.258   1.671
38393W        W10818  23.699  15.341  12.096
38394W        W10819  30.683  23.976  13.839
38395W        W10820  17.304   2.291  14.562
38396W        W10821  25.099   9.328   3.867
38397W        W10822  44.368  21.792  12.441
38398W        W10823  17.274  34.545   4.638
38399W        W10824  20.147  15.237  11.365
38400W        W10825  44.343  20.841  12.309
38401W        W10826  12.235  21.170  12.214
38402W        W10827   1.605  35.345  14.855
38403W        W10828  40.839  28.892  14.850
38404W        W10829  14.712   7.947  13.566
38405W        W10830  10.268  27.035  11.158
38406W        W10831  35.767   7.263   2.867
38407W        W10832  26.674  34.497  11.126
38408W        W10833  32.035   8.760  10.505
38409W        W10834  14.743   7.712  13.082
38410W        W10835   3.842   9.895   3.814
38411W        W10836  38.529  30.869   4.272
38412W        W10837   2.031  25.001  10.709
38413W        W10838   8.911  32.354  11.185
38414W        W10839  21.444   0.780   0.951
38415W        W10840   1.369  42.959   1.452
38416W        W10841  15.808  32.068  10.659
38417W        W10842  34.149  20.745  14.517
38418W        W10843  34.520   9.684  11.128
38419W        W10844  20.650  39.568  12.496
38420W        W10845  25.934  37.557  13.449
38421W        W10846  22.991  20.496  10.860
38422W        W10847  33.012  30.531  11.942
38423W        W10848  25.226  35.562   1.350
38424W        W10849  15.933  37.797  13.015
38425W        W10850  33.820  32.952   1.394
38426W        W10851  33.143   6.153  14.297
38427W        W10852  44.585  27.904   4.051
38428W        W10853  42.633  27.062   0.482
38429W        W10854   1.380  12.143  14.759
38430W        W10855  41.948  22.035  11.256
38431W        W10856  41.072  33.632   4.110
38432W        W10857  26.012   4.769  13.393
38433W        W10858  22.031  33.490  14.370
38434W        W10859  27.459  21.023   2.917
38435W        W10860   7.657   2.358  11.209
38436W        W10861  32.574  38.088   4.375
38437W        W10862  14.415  24.395   3.230
38438W        W10863  40.921  14.241  12.362
38439W        W10864  33.834  12.302  14.866
38440W        W10865   8.752  29.085  12.448
38441W        W10866  35.942  35.037  12.481
38442W        W10867   1.904  41.272  10.738
38443W        W10868  25.452  30.952  12.846
38444W        W10869  19.486  25.675   2.330
38445W        W10870  32.452   8.588   0.240
38446W        W10871   9.759  28.064  10.653
38447W        W10872  34.513   9.883   2.805
38448W        W10873  31.596   7.101  12.906
38449W        W10874  35.624  43.330  12.174
38450W        W10875  32.163  24.060  13.648
38451W        W10876  44.832  34.638  13.458
38452W        W10877  42.846  38.435   0.434
38453W        W10878  17.693   1.843   0.803
38454W        W10879  17.508  41.574   4.473
38455W        W10880  21.054  18.273  14.915
38456W        W10881   0.661  41.874   2.914
38457W        W10882  11.679  41.225   2.340
38458W        W10883  17.550   3.484   4.755
38459W        W10884   4.987   1.540   2.784
38460W        W10885  42.786  32.163   4.601
38461W        W10886  20.322  29.433  14.697
38462W        W10887  17.283   9.458  12.835
38463W        W10888  42.780   2.321   0.680
38464W        W10889   0.700  23.160  10.762
38465W        W10890  41.138   5.374   3.268
38466W        W10891  40.719  29.078   2.092
38467W        W10892   4.043  33.446   2.447
38468W        W10893  27.621  32.970  12.418
38469W        W10894  13.392   5.892   1.267
38470W        W10895  10.735  28.023   1.931
38471W        W10896   7.072  24.179   2.239
38472W        W10897   9.096   5.213   3.788
38473W        W10898  13.568  37.513  12.050
38474W        W10899  44.287   6.547  13.380
38475W        W10900  40.882  12.776   4.691
38476W        W10901  18.494  39.001   4.155
38477W        W10902  20.474  10.206  10.855
38478W        W10903   7.115  28.232   4.552
38479W        W10904  30.926   7.717   3.334
38480W        W10905  14.347  43.563  11.524
38481W        W10906  37.456  26.725   1.199
38482W        W10907  16.384  19.651  10.885
38483W        W10908   4.808  10.485  14.083
38484W        W10909  38.861  21.059   4.604
38485W        W10910  38.967  26.092   0.555
38486W        W10911  33.571   1.909   3.735
38487W        W10912  10.144  29.601   4.620
38488W        W10913  36.930   6.869   0.156
38489W        W10914  12.750  31.045   4.091
38490W        W10915  13.555   4.687  10.863
38491W        W10916  24.541  32.874   4.623
38492W        W10917  39.473  27.113  12.927
38493W        W10918  14.551  42.204  11.313
38494W        W10919   7.512   7.812  12.479
38495W        W10920  33.060  12.217   3.332
38496W        W10921  27.211  32.971  12.084
38497W        W10922   0.049  36.952   4.527
38498W        W10923  21.480  39.068   4.453
38499W        W10924  44.327   3.425   3.202
38500W        W10925  40.831  31.886  13.414
38501W        W10926  30.541  15.154  11.973
38502W        W10927  10.865  36.475  13.159
38503W        W10928  38.104  28.752  12.263
38504W        W10929  21.873   2.801  14.883
38505W        W10930  33.382   4.774  13.105
38506W        W10931  36.070   2.806   4.576
38507W        W10932  11.692   1.846   2.094
38508W        W10933  28.021  18.078  12.343
38509W        W10934  23.749  17.090  12.373
38510W        W10935  30.376   5.269  10.954
38511W        W10936  14.240   4.847   2.429
38512W        W10937  12.445  32.608   1.545
38513W        W10938   7.097   5.208  13.571
38514W        W10939   3.180  38.587  12.939
38515W        W10940  33.465  38.314  11.236
38516W        W10941  35.141  33.830  13.906
38517W        W10942  12.343   8.179   2.303
38518W        W10943  10.204  36.564   2.194
38519W        W10944  41.848  13.663  14.460
38520W        W10945  11.495  28.717  14.985
38521W        W10946   9.751  18.749  14.568
38522W        W10947   7.644  43.790   3.866
38523W        W10948  18.053  12.690   0.771
38524W        W10949   8.701  30.041   0.249
38525W        W10950  16.733  18.689  10.411
38526W        W10951  31.023  21.262  10.134
38527W        W10952   9.900  34.981  11.746
38528W        W10953  26.736  16.911  13.635
38529W        W10954  33.532   5.149  13.450
38530W        W10955  15.361  39.352  13.334
38531W        W10956  26.167   3.962  13.015
38532W        W10957  34.504  35.533  11.461
38533W        W10958   3.416  30.967   1.425
38534W        W10959  41.106  30.736  13.964
38535W        W10960  39.132  40.121  14.939
38536W        W10961  13.196  19.557   3.546
38537W        W10962  10.385   3.411   0.735
38538W        W10963  22.958  27.546   3.810
38539W        W10964  16.165  26.604  13.559
38540W        W10965  39.603   4.678  14.827
38541W        W10966   6.852  22.851   0.315
38542W        W10967  27.260   8.209   2.640
38543W        W10968  19.553  27.806   0.468
38544W        W10969  18.013  41.651  13.025
38545W        W10970   9.295  34.131   1.226
38546W        W10971   7.133  18.111  13.856
38547W        W10972   9.378  37.475  12.532
38548W        W10973  42.807  26.204  14.898
38549W        W10974  33.598   5.581   3.431
38550W        W10975  40.119  20.716   3.271
38551W        W10976   7.668   3.713  10.934
38552W        W10977   4.963  17.991   3.123
38553W        W10978   2.840   3.200  13.150
38554W        W10979   5.374  11.180   3.251
38555W        W10980  35.969  28.032  10.719
38556W        W10981  33.935  40.897  13.925
38557W        W10982  22.038  12.948   2.696
38558W        W10983  19.330  15.177  14.284
38559W        W10984  25.681  26.087   4.605
38560W        W10985  10.137  39.017   2.349
38561W        W10986  30.193  20.776   2.523
38562W        W10987  20.465   6.600  11.047
38563W        W10988   8.291   3.826  13.110
38564W        W10989   8.681  34.560   0.392
38565W        W10990   7.365  27.648   0.588
38566W        W10991  13.574  32.083  11.487
38567W        W10992  27.997  38.546   0.007
38568W        W10993  35.947   4.292   3.125
38569W        W10994  18.340  12.872   1.851
38570W        W10995  30.942  14.408   4.233
38571W        W10996  44.400  16.337   2.624
38572W        W10997  34.993  19.554  13.078
38573W        W10998  29.208  11.593  10.447
38574W        W10999  35.544  25.723  14.314
38575W        W11000   9.801  31.229   3.059
38576W        W11001  38.313  36.832   2.688
38577W        W11002  31.343  20.018   1.235
38578W        W11003  10.103  32.100  13.063
38579W        W11004  15.572  41.275  12.925
38580W        W11005  35.889  37.010   0.501
38581W        W11006  25.804  15.222   2.683
38582W        W11007  34.608  39.515   3.171
38583W        W11008  31.590  43.997  11.189
38584W        W11009  28.713  15.210   4.200
38585W        W11010  43.308  19.211   1.831
38586W        W11011  41.076  35.746   3.552
38587W        W11012  20.726   7.394   3.627
38588W        W11013   2.613  19.298  12.402
38589W        W11014  31.847   1.933   3.312
38590W        W11015  43.143  44.706   0.254
38591W        W11016  18.803  23.544  14.332
38592W        W11017  25.722  27.472  11.105
38593W        W11018  32.540  12.570   4.246
38594W        W11019   0.371  19.266  11.404
38595W        W11020  21.233   0.059   3.941
38596W        W11021   7.414  24.514  14.053
38597W        W11022   1.112  32.415   1.762
38598W        W11023  16.788   7.361  10.266
38599W        W11024   6.433  37.393  13.036
38600W        W11025  34.533  29.684   0.487
38601W        W11026  29.092  32.041  12.650
38602W        W11027  13.326  43.083   2.731
38603W        W11028  30.832  42.973  11.791
38604W        W11029   7.464  21.232  12.782
38605W        W11030  44.915  21.138   3.071
38606W        W11031  17.719   0.912   1.368
38607W        W11032  31.230  34.876   1.319
38608W        W11033  10.736   3.162   4.149
38609W        W11034  35.034  22.716  12.557
38610W        W11035  17.544  32.355  14.412
38611W        W11036  26.853  30.539   4.538
38612W        W11037  44.666  19.663  13.482
38613W        W11038   0.270  31.042   4.572
38614W        W11039  42.484  33.622   0.939
38615W        W11040  24.594  33.175   2.828
38616W        W11041   2.208  36.253  11.324
38617W        W11042  18.859  14.691  12.008
38618W        W11043  23.479  27.444  11.628
38619W        W11044  21.757  44.084   1.878
38620W        W11045  14.762  41.512   3.598
38621W        W11046  17.175  16.153   3.162
38622W        W11047   4.683  10.209   4.876
38623W        W11048  22.139  30.273   3.194
38624W        W11049  31.017  43.642  13.881
38625W        W11050  18.626   2.183   3.755
38626W        W11051  15.290  43.294  12.439
38627W        W11052   8.302  27.453   2.297
38628W        W11053   2.416  43.277  11.211
38629W        W11054  30.715   3.836  11.396
38630W        W11055   2.294  29.706  13.828
38631W        W11056   1.978  20.072  14.455
38632W        W11057   4.760  23.997   3.196
38633W        W11058  41.871  34.497  14.404
38634W        W11059  20.758  35.944  12.584
38635W        W11060  43.433  42.758   3.748
38636W        W11061   9.571  20.614  14.573
38637W        W11062  42.790  37.847   3.119
38638W        W11063  13.196  32.982   4.448
38639W        W11064  30.645  31.950  11.409
38640W        W11065  11.871  40.162  11.071
38641W        W11066  24.066  16.794  14.599
38642W        W11067  18.704   4.910   1.759
38643W        W11068  24.273  41.546   0.750
38644W        W11069  13.222  17.079   0.861
38645W        W11070  29.225  26.496   2.831
38646W        W11071  37.294   1.694  12.834
38647W        W11072  33.339  11.215  10.294
38648W        W11073  15.599   9.795  10.612
38649W        W11074  34.093  25.593   0.424
38650W        W11075  41.512   1.915   2.185
38651W        W11076  27.736  14.618  11.907
38652W        W11077  33.632  38.897  13.886
38653W        W11078  42.911  26.005  13.778
38654W        W11079  14.028   3.205  10.139
38655W        W11080  16.541  16.713   3.047
38656W        W11081  30.122  40.020  13.404
38657W        W11082  40.480   8.518  11.581
38658W        W11083  40.967  35.010   2.808
38659W        W11084  31.639   1.317  11.733
38660W        W11085  39.973   7.167  13.402
38661W        W11086   8.122  32.638  11.550
38662W        W11087  35.517   2.039   0.486
38663W        W11088  30.847  23.566  13.568
38664W        W11089   2.730   7.803  11.622
38665W        W11090  11.887  14.267  10.629
38666W        W11091  12.315  38.788   0.265
38667W        W11092   3.251  25.103  13.012
38668W        W11093   7.580  24.070   2.289
38669W        W11094   3.766   2.753   2.441
38670W        W11095  34.560  18.832   1.441
38671W        W11096  18.162  23.705  12.175
38672W        W11097   0.700  32.575  11.029
38673W        W11098  23.621  16.141   0.515
38674W        W11099  21.188  18.018   0.368
38675W        W11100  16.771  40.973   3.279
38676W        W11101  14.149  22.917   9.981
38677W        W11102  31.543  28.855  13.055
38678W        W11103  37.324  10.352  13.321
38679W        W11104  36.516  35.566  12.251
38680W        W11105  43.505  10.345   1.467
38681W        W11106  31.486  16.627   1.932
38682W        W11107   5.307  29.117  12.814
38683W        W11108  44.078  29.174   2.317
38684W        W11109  29.758  13.846   0.212
38685W        W11110  10.805  32.855   4.146
38686W        W11111  30.402  13.711   4.651
38687W        W11112  23.716  42.399   3.363
38688W        W11113  17.572   6.434  12.528
38689W        W11114  41.602  38.632  14.942
38690W        W11115  32.490  16.227   4.058
38691W        W11116   2.537  44.572   2.762
38692W        W11117  28.485  39.528  14.920
38693W        W11118  36.670  27.051   4.485
38694W        W11119   6.168  41.429   2.716
38695W        W11120  14.555  26.567  11.911
38696W        W11121  17.964  33.134  10.726
38697W        W11122  40.243  19.492   3.950
38698W        W11123  39.011   1.033   4.666
38699W        W11124   0.175   2.292  13.019
38700W        W11125  25.970   7.739   2.717
38701W        W11126  18.405   0.332   0.486
38702W        W11127  33.699  23.614   1.236
38703W        W11128   6.641  27.314   0.518
38704W        W11129  35.333  16.352   0.420
38705W        W11130  37.796  25.935  13.470
38706W        W11131  35.063   5.669   1.387
38707W        W11132  15.620  35.668   2.462
38708W        W11133  40.861  13.182   1.485
38709W        W11134  19.146  32.973  13.361
38710W        W11135  25.402  14.748  11.519
38711W        W11136  38.324  32.190   4.851
38712W        W11137   6.850  29.065   4.237
38713W        W11138  26.689  43.342   0.488
38714W        W11139  38.477  11.852  11.884
38715W        W11140  11.094  14.610   3.370
38716W        W11141  32.610  35.646  11.414
38717W        W11142  24.696  13.285  14.270
38718W        W11143  29.901  25.936  11.063
38719W        W11144  41.409  37.846   4.707
38720W        W11145   2.349  42.476  10.692
38721W        W11146  15.087  44.082  11.232
38722W        W11147  22.109  44.961   2.140
38723W        W11148  37.773  26.055   0.474
38724W        W11149  40.356  28.339   0.886
38725W        W11150  38.538  27.938  11.114
38726W        W11151  23.509  30.035   1.283
38727W        W11152  30.534  32.445  11.634
38728W        W11153  21.030  14.623   3.532
38729W        W11154  35.088  35.616  14.953
38730W        W11155  29.630   2.897  12.810
38731W        W11156  24.958  12.024  14.350
38732W        W11157  26.403  15.215  14.080
38733W        W11158   3.191   5.192   0.294
38734W        W11159  11.862  21.176   3.847
38735W        W11160  43.983   8.697   3.381
38736W        W11161  28.021  37.347  11.155
38737W        W11162  34.090  26.592   1.746
38738W        W11163   3.462  13.348  11.938
38739W        W11164  15.075  17.795   2.283
38740W        W11165  42.499   3.778   3.629
38741W        W11166   5.137   4.076  14.378
38742W        W11167  32.820  35.451   2.589
38743W        W11168  40.553   5.581  11.612
38744W        W11169  43.874  23.051  11.058
38745W        W11170   5.178  33.361   0.139
38746W        W11171   7.308  42.824   4.288
38747W        W11172   4.311   7.608   4.295
38748W        W11173  41.373  43.949  10.972
38749W        W11174  24.455  10.842   0.553
38750W        W11175  12.941  26.097  13.399
38751W        W11176   4.216  18.147   0.333
38752W        W11177  23.096   4.363  11.191
38753W        W11178   9.852  26.034   2.320
38754W        W11179  34.087   7.981   4.145
38755W        W11180  26.122  40.915   3.485
38756W        W11181  20.300   4.414   1.325
38757W        W11182   0.679  22.639  13.823
38758W        W11183  19.207  42.431   4.845
38759W        W11184  40.202   9.233   4.527
38760W        W11185  12.609  29.451   1.945
38761W        W11186   3.110  28.655  12.679
38762W        W11187  30.732   9.754  13.154
38763W        W11188  15.564  38.288  11.380
38764W        W11189  38.576  14.749   2.415
38765W        W11190   5.389  27.751  13.383
38766W        W11191   6.834  10.336   1.044
38767W        W11192  31.889  41.900   2.383
38768W        W11193   0.879  28.971   2.209
38769W        W11194   2.428  36.551  12.648
38770W        W11195  20.239  26.180   4.602
38771W        W11196   1.677  11.194  12.292
38772W        W11197  15.385  15.674   0.929
38773W        W11198   8.231   8.246   4.159
38774W        W11199  26.570  19.351  14.194
38775W        W11200  21.617  12.543   4.589
38776W        W11201   0.709  33.193  10.263
38777W        W11202  31.425   6.389   1.234
38778W        W11203  21.092  34.058  12.382
38779W        W11204  34.533  12.269  12.442
38780W        W11205  31.680  39.379   1.254
38781W        W11206  12.692   4.447   2.176
38782W        W11207   1.252   6.950  13.388
38783W        W11208   4.924  15.473  13.884
38784W        W11209   5.261   8.184  12.556
38785W        W11210  21.280  11.189   1.285
38786W        W11211  23.611  34.967  14.083
38787W        W11212   5.401  26.021   0.736
38788W        W11213  30.028   1.652   0.226
38789W        W11214  17.325  40.012   0.862
38790W        W11215  28.205  38.389  11.639
38791W        W11216   4.623  33.376  12.921
38792W        W11217   7.182  42.910   2.797
38793W        W11218  39.351   4.770  11.663
38794W        W11219  16.315  40.776   2.387
38795W        W11220  29.609  23.560   4.237
38796W        W11221  39.351  42.143  13.961
38797W        W11222  10.661  42.711   1.383
38798W        W11223  42.710  31.122  13.528
38799W        W11224  23.990  39.273  11.530
38800W        W11225  19.694  24.659  12.130
38801W        W11226  10.449  37.432   4.102
38802W        W11227  24.112   0.492   0.476
38803W        W11228  18.675  21.971  14.062
38804W        W11229   6.566  27.655  13.448
38805W        W11230  43.211  25.999  11.202
38806W        W11231  37.296   2.530  11.050
38807W        W11232  32.531   3.511   3.659
38808W        W11233  24.445   4.967  14.305
38809W        W11234  30.726  31.635  13.880
38810W        W11235  14.277  18.465  12.114
38811W        W11236  26.283  20.622   3.365
38812W        W11237  32.649  34.902   4.119
38813W        W11238  20.584   2.369  10.897
38814W        W11239  18.302  42.011   2.248
38815W        W11240  25.763  22.662   5.013
38816W        W11241  14.783  21.240   2.123
38817W        W11242   0.259  40.043  11.980
38818W        W11243  15.549   5.985   0.299
38819W        W11244  22.692  38.954   5.064
38820W        W11245  11.606  43.015   3.017
38821W        W11246  40.602  17.018   4.526
38822W        W11247  27.104  30.991   4.548
38823W        W11248  30.457   3.810  14.910
38824W        W11249  17.746  20.621  11.445
38825W        W11250  32.869   2.367   0.694
38826W        W11251   2.219  36.741  11.130
38827W        W11252  39.050  44.074   4.622
38828W        W11253  14.621  23.635  10.017
38829W        W11254  25.119  16.624  12.111
38830W        W11255  35.146  21.674   2.892
38831W        W11256   3.338   2.380   4.139
38832W        W11257  25.991  24.311   4.501
38833W        W11258  17.229   4.526   4.370
38834W        W11259  35.850  23.024   3.696
38835W        W11260  32.565  21.324  12.488
38836W        W11261  15.831  35.394   4.644
38837W        W11262  13.404   9.059  11.063
38838W        W11263   5.976  33.355   4.057
38839W        W11264  32.020  10.859   0.103
38840W        W11265  17.144  40.956  10.563
38841W        W11266   4.067  16.067   1.241
38842W        W11267  18.010   6.852   0.059
38843W        W11268  33.974   1.034   0.201
38844W        W11269  10.578  37.009   4.366
38845W        W11270  33.219  28.693  12.639
38846W        W11271   2.921   4.637  12.049
38847W        W11272   1.490  20.726  12.456
38848W        W11273   1.275   5.666   2.753
38849W        W11274   7.591  29.487   4.264
38850W        W11275  24.294   9.114  12.664
38851W        W11276  40.025  20.653   4.547
38852W        W11277  22.153  16.008  14.524
38853W        W11278  12.324  25.944  12.987
38854W        W11279   1.843  37.800   3.107
38855W        W11280  11.811  17.133  10.796
38856W        W11281  44.984  31.190  14.466
38857W        W11282   9.743   9.474  13.831
38858W        W11283  30.555  16.243  12.093
38859W        W11284  39.991  39.161  13.768
38860W        W11285  24.685  43.733   2.729
38861W        W11286   8.323  28.243   4.456
38862W        W11287  27.943  15.360  12.984
38863W        W11288  27.975   2.764   1.658
38864W        W11289  15.054   8.729  12.629
38865W        W11290  33.861  25.111   4.583
38866W        W11291  30.938  37.622  13.938
38867W        W11292  42.619  24.955  14.589
38868W        W11293  17.676  31.220  11.638
38869W        W11294   6.166  44.023  13.156
38870W        W11295  39.319   6.913  11.374
38871W        W11296  17.091  11.326   2.765
38872W        W11297  31.628   1.329   1.300
38873W        W11298  21.461  18.216  10.617
38874W        W11299  32.177  20.442  11.067
38875W        W11300  34.231  26.906  14.356
38876W        W11301   7.804  10.264   2.306
38877W        W11302  31.151  25.462   1.316
38878W        W11303  18.306  17.809  12.467
38879W        W11304  12.554   1.320   9.781
38880W        W11305  24.282  30.175  13.538
38881W        W11306  17.069  29.324   3.911
38882W        W11307  39.413  42.995  12.374
38883W        W11308  36.679  43.300  13.479
38884W        W11309  39.211  39.803   4.172
38885W        W11310  15.014  20.236  10.501
38886W        W11311  11.372  22.195   2.776
38887W        W11312  24.059   2.919   0.553
38888W        W11313  15.299  24.963  11.248
38889W        W11314   0.352  25.293  12.053
38890W        W11315  33.148  16.644   0.430
38891W        W11316   5.762   3.930   2.219
38892W        W11317  33.705   4.725   3.729
38893W        W11318  40.800   4.772  13.304
38894W        W11319  22.170  44.961  10.758
38895W        W11320  35.463  10.806  12.359
38896W        W11321  16.834  17.726  14.105
38897W        W11322  29.390  42.289  14.761
38898W        W11323  24.730   7.429  14.367
38899W        W11324  10.034   4.920  13.811
38900W        W11325  36.947  39.422   5.061
38901W        W11326  41.862  29.000   1.381
38902W        W11327  40.880  10.780   4.053
38903W        W11328  32.631   5.782   3.674
38904W        W11329   4.754  26.002   0.395
38905W        W11330   4.207   9.910   2.140
38906W        W11331  44.792  23.985   2.188
38907W        W11332  42.772   7.380  12.550
38908W        W11333  32.400  41.231  10.328
38909W        W11334  27.037   8.383   0.402
38910W        W11335  27.488  27.549  12.500
38911W        W11336  35.578   8.660  10.600
38912W        W11337  23.221  10.645   4.549
38913W        W11338  14.662  18.714   0.837
38914W        W11339   7.957  42.263  10.539
38915W        W11340  38.786  27.548   0.513
38916W        W11341  26.540  12.871  10.621
38917W        W11342  17.386  26.971   4.152
38918W        W11343   8.515  12.818   1.350
38919W        W11344  28.115   7.575  11.413
38920W        W11345   3.345  23.164  13.822
38921W        W11346   5.808  40.379  11.632
38922W        W11347  24.650   0.307   4.132
38923W        W11348  43.898   1.722   3.608
38924W        W11349  19.965  18.180   0.782
38925W        W11350  10.871   2.448   1.852
38926W        W11351   1.673  44.268  14.500
38927W        W11352  42.715   3.132  11.175
38928W        W11353  43.448   6.548   4.540
38929W        W11354  27.492  13.351  12.572
38930W        W11355  42.481   6.876  14.166
38931W        W11356   3.965  38.018  14.959
38932W        W11357  33.678  39.812  14.240
38933W        W11358  27.741  40.785   2.262
38934W        W11359  33.859  44.817   4.101
38935W        W11360  25.657  38.846  14.778
38936W        W11361   3.918  31.810   0.867
38937W        W11362  11.666   6.808   3.375
38938W        W11363  43.901  12.280   3.391
38939W        W11364  41.759  33.681  11.570
38940W        W11365  42.833  15.171   1.717
38941W        W11366   8.811  30.036   1.215
38942W        W11367  20.066  41.132   3.716
38943W        W11368  14.259  30.860  13.276
38944W        W11369  41.427  39.908  11.945
38945W        W11370   1.763  16.767  14.680
38946W        W11371   8.923  32.039  11.591
38947W        W11372  40.398  35.169  12.993
38948W        W11373  18.517  39.917   1.281
38949W        W11374  15.578  37.370  11.648
38950W        W11375  20.471  35.085  11.084
38951W        W11376   9.375  15.312   1.167
38952W        W11377  10.813  12.729   2.302
38953W        W11378  23.517  14.493  13.839
38954W        W11379   5.272  28.496   4.909
38955W        W11380   1.985  32.687   3.698
38956W        W11381  40.310  17.273  14.933
38957W        W11382   4.038  16.663  10.483
38958W        W11383   2.445   9.378  12.533
38959W        W11384  34.033  24.043   1.267
38960W        W11385  43.242  23.323  11.177
38961W        W11386  37.251   6.126   4.969
38962W        W11387  14.107   3.866   3.377
38963W        W11388  10.372  18.624   2.590
38964W        W11389  30.616  12.310   1.776
38965W        W11390  16.095   2.322  14.531
38966W        W11391  17.804  21.987   3.312
38967W        W11392   3.171  34.623   4.334
38968W        W11393  38.271  25.704   1.207
38969W        W11394  23.529  37.234  14.314
38970W        W11395  11.829  44.664   0.023
38971W        W11396   0.744  27.025   3.608
38972W        W11397  32.449  41.574   2.845
38973W        W11398   1.867  30.529  11.186
38974W        W11399   3.417  12.132  12.871
38975W        W11400  18.319  22.069   1.147
38976W        W11401  23.185  21.939  14.022
38977W        W11402   5.592  44.800   0.322
38978W        W11403  43.962  35.835   4.550
38979W        W11404  43.548  43.883  12.442
38980W        W11405   8.227  40.111  11.409
38981W        W11406   0.498   0.318  13.964
38982W        W11407   3.780  21.491  12.626
38983W        W11408  25.788   2.416   2.900
38984W        W11409  27.440  28.490  10.932
38985W        W11410  25.445   7.155  13.847
38986W        W11411  11.692  32.301   4.219
38987W        W11412  44.595   6.714   1.340
38988W        W11413  44.223  23.715  11.119
38989W        W11414  39.872   0.480   4.641
38990W        W11415  38.846   3.093  13.282
38991W        W11416   6.178   5.205   1.695
38992W        W11417  29.415  30.378   2.760
38993W        W11418  11.324  27.885  12.574
38994W        W11419   8.247  30.449  12.655
38995W        W11420   9.629  28.177  13.998
38996W        W11421  13.665  35.568   0.697
38997W        W11422  16.163  24.466   1.314
38998W        W11423  13.736  12.166   3.152
38999W        W11424   2.348   7.460   3.948
39000W        W11425  28.742  44.967   0.330
39001W        W11426  33.949   5.004   1.370
39002W        W11427   9.742  21.111  12.990
39003W        W11428  20.194  18.599  11.610
39004W        W11429  25.721  34.635  10.759
39005W        W11430  16.334   9.712  14.810
39006W        W11431   6.815  28.154  13.176
39007W        W11432  25.195   4.257   1.145
39008W        W11433  11.085  26.371  13.016
39009W        W11434  38.508  13.665   4.426
39010W        W11435   0.326  12.081   3.114
39011W        W11436  17.807  27.466  12.115
39012W        W11437  41.528  33.536  10.931
39013W        W11438  37.090  29.185   2.710
39014W        W11439  20.163   9.658   0.407
39015W        W11440   8.513  27.605  13.795
39016W        W11441  33.696   4.276   3.481
39017W        W11442  31.009  25.679   4.082
39018W        W11443  30.584  33.860   4.047
39019W        W11444  42.893  31.931   2.358
39020W        W11445  28.237  35.337   4.126
39021W        W11446  26.080  40.093   1.190
39022W        W11447  36.862  42.555  13.863
39023W        W11448   4.698  41.461   0.226
39024W        W11449  22.525  35.385   2.236
39025W        W11450  12.723   4.751   3.824
39026W        W11451  38.285  39.521   2.127
39027W        W11452   2.267  25.991  13.145
39028W        W11453   7.110  34.436  13.976
39029W        W11454  44.759  34.420   4.447
39030W        W11455  21.473   2.577   2.157
39031W        W11456  24.701  12.799  11.442
39032W        W11457  13.199  41.982   2.341
39033W        W11458  40.980  10.791   1.484
39034W        W11459  24.537  33.063  10.575
39035W        W11460  26.608   7.574  14.272
39036W        W11461  17.630  18.182   2.201
39037W        W11462   4.920  41.809  12.019
39038W        W11463  43.787  15.150  14.760
39039W        W11464   8.725  41.988   4.713
39040W        W11465  38.159  18.103   0.792
39041W        W11466  13.830  43.497  10.675
39042W        W11467  19.083   5.776  12.937
39043W        W11468  29.088  31.406  14.862
39044W        W11469  20.365  12.554  13.947
39045W        W11470  10.124  35.062   0.073
39046W        W11471  15.275  29.492  11.134
39047W        W11472  14.135  34.936   2.246
39048W        W11473  13.076  24.693  13.452
39049W        W11474   0.378  12.063  11.681
39050W        W11475   7.522  38.133   0.729
39051W        W11476  31.973  38.631  12.859
39052W        W11477   0.124  20.838   0.757
39053W        W11478  30.450  41.037  10.204
39054W        W11479  33.021  41.032  10.740
39055W        W11480  16.763  23.875   2.273
39056W        W11481  41.977  29.060  13.025
39057W        W11482  34.939  35.307  10.653
39058W        W11483  41.538  10.171   0.324
39059W        W11484  27.092  41.384   1.484
39060W        W11485  31.999  23.234   0.970
39061W        W11486  18.263   6.434   0.772
39062W        W11487  23.068   1.270  11.296
39063W        W11488  43.546  38.091   1.766
39064W        W11489  40.582  31.808  12.513
39065W        W11490  30.587   3.430  14.056
39066W        W11491  26.292   1.825   2.235
39067W        W11492  18.808  16.063   2.233
39068W        W11493  41.048  26.486  13.412
39069W        W11494   1.004  19.019   0.401
39070W        W11495  33.767   4.484  11.496
39071W        W11496   2.508  39.560  14.986
39072W        W11497  34.569   4.938   4.358
39073W        W11498  15.143   1.002   3.605
39074W        W11499  31.250  23.325   9.695
39075W        W11500  30.368  19.026  13.501
39076W        W11501  38.344  13.894  10.783
39077W        W11502  21.727  38.505  11.485
39078W        W11503  11.855  17.117  13.824
39079W        W11504   2.242  30.592   5.019
39080W        W11505  41.240  37.721   1.532
39081W        W11506  19.976  20.542   2.730
39082W        W11507  37.439  35.101   3.568
39083W        W11508  44.719  13.332  13.477
39084W        W11509  27.579  24.758   0.316
39085W        W11510  15.090  36.052   0.390
39086W        W11511  32.866  13.612   4.654
39087W        W11512  25.956  14.042   0.412
39088W        W11513  37.031  15.689  10.097
39089W        W11514  29.962  12.243   3.472
39090W        W11515  32.920   3.204   0.488
39091W        W11516  23.667  31.851  12.769
39092W        W11517  10.985   1.165   3.169
39093W        W11518  10.861  34.661  13.371
39094W        W11519  26.795  15.528   9.753
39095W        W11520  25.369   9.729   1.247
39096W        W11521  18.224  37.418   2.423
39097W        W11522  32.941   8.348   4.031
39098W        W11523  10.164   0.799   1.841
39099W        W11524   3.989   6.784   0.136
39100W        W11525  29.367  29.237   0.306
39101W        W11526  35.946   7.543   2.026
39102W        W11527  41.428  21.735   3.310
39103W        W11528  15.391   7.285  11.398
39104W        W11529  17.508  33.573   2.612
39105W        W11530  22.011  13.797   2.402
39106W        W11531  35.761  22.722   1.924
39107W        W11532   8.688  15.074   0.464
39108W        W11533  31.172  12.862  12.145
39109W        W11534  20.505  25.023   1.841
39110W        W11535  31.005  13.435  14.037
39111W        W11536  14.741   1.317   3.082
39112W        W11537  12.756  15.824   4.032
39113W        W11538  24.190  17.251  14.354
39114W        W11539   6.332  41.103  14.290
39115W        W11540   8.627  21.530   3.667
39116W        W11541  16.299  32.022  10.554
39117W        W11542  12.533  33.190  14.331
39118W        W11543  12.156  23.949   0.716
39119W        W11544  25.574  15.222  11.606
39120W        W11545  13.656  23.884  10.938
39121W        W11546  18.235  39.679   3.995
39122W        W11547  32.084  14.596  12.614
39123W        W11548  44.692   9.783  13.342
39124W        W11549  42.232  23.678  12.982
39125W        W11550  42.944  12.290  12.662
39126W        W11551  35.524  20.989  13.954
39127W        W11552  34.589   5.847   2.271
39128W        W11553  38.335   4.695  13.489
39129W        W11554  23.283  34.241  12.566
39130W        W11555   0.606  38.298  12.608
39131W        W11556  30.866   9.180  13.435
39132W        W11557  14.586   7.458  13.495
39133W        W11558  14.036  42.296   2.510
39134W        W11559  27.160  43.156  12.491
39135W        W11560  43.783  10.800   1.430
39136W        W11561  33.594  22.927   2.333
39137W        W11562  38.114  12.824   3.693
39138W        W11563  10.535  13.434   2.858
39139W        W11564  19.088  36.520  14.835
39140W        W11565  32.786   6.376  14.702
39141W        W11566  14.306  25.656  11.112
39142W        W11567  32.090  41.008  14.750
39143W        W11568   0.791   1.094  11.976
39144W        W11569  20.674  35.888  13.356
39145W        W11570  32.129  10.674   4.727
39146W        W11571  28.706   1.354   2.019
39147W        W11572  20.871  15.819  11.612
39148W        W11573  43.426  44.385   4.876
39149W        W11574   8.720  18.228  13.291
39150W        W11575  23.417   8.940   0.333
39151W        W11576   5.244  40.382   4.764
39152W        W11577  26.397  18.512   4.136
39153W        W11578  12.897  11.755   0.064
39154W        W11579   5.517  33.191  10.761
39155W        W11580  14.072  35.335  13.847
39156W        W11581   5.003  22.946   1.325
39157W        W11582  26.592  10.707   5.150
39158W        W11583  23.349   5.186  13.092
39159W        W11584  42.219  39.266  14.804
39160W        W11585   7.160   8.674  14.437
39161W        W11586  43.872  38.617   2.231
39162W        W11587  23.947   7.813  10.858
39163W        W11588   4.861  19.094   1.411
39164W        W11589  12.587  26.444   0.358
39165W        W11590  30.168  29.445   3.911
39166W        W11591  39.309   4.848  10.643
39167W        W11592  26.198  24.533   0.962
39168W        W11593  43.315   5.397   2.974
39169W        W11594  40.910  16.925  12.512
39170W        W11595  32.225  28.419  14.021
39171W        W11596  44.244  22.107   0.242
39172W        W11597  11.910  19.611  11.134
39173W        W11598  31.797  27.121  13.729
39174W        W11599  17.174  26.550  14.840
39175W        W11600  36.224   0.365   2.740
39176W        W11601  33.159  14.006   3.574
39177W        W11602   4.002   5.127   0.907
39178W        W11603  25.936  42.429   1.177
39179W        W11604  40.859   1.929  13.338
39180W        W11605  36.762   8.354  13.068
39181W        W11606  14.097   1.113   2.229
39182W        W11607  24.586  30.686   0.466
39183W        W11608  40.418  36.569   1.073
39184W        W11609   2.349  26.816  13.724
39185W        W11610  15.498  37.775  11.130
39186W        W11611  21.020  42.834   4.215
39187W        W11612  33.760  26.484   3.467
39188W        W11613  13.545  38.297   3.570
39189W        W11614  20.135  42.497   1.232
39190W        W11615  24.720  10.781  11.132
39191W        W11616  13.037  11.917  10.249
39192W        W11617  25.084   3.296  14.561
39193W        W11618  22.400  13.155  11.530
39194W        W11619   3.814   6.676  12.448
39195W        W11620  21.258  15.630   2.820
39196W        W11621   9.701  26.636   4.014
39197W        W11622  12.855   2.849   2.629
39198W        W11623  22.938  18.860  13.028
39199W        W11624  20.636   6.591  11.810
39200W        W11625  35.690   6.183   0.905
39201W        W11626  42.877  34.790  10.871
39202W        W11627  30.566  26.679   4.943
39203W        W11628  17.708  26.707   1.516
39204W        W11629  11.425  29.681  11.537
39205W        W11630  19.800   0.813  10.570
39206W        W11631  34.448  22.997   2.657
39207W        W11632   8.374  37.752  14.918
39208W        W11633  26.780  18.920   3.337
39209W        W11634   0.150  17.224   1.233
39210W        W11635  43.757   5.884  10.948
39211W        W11636  37.878  33.012   1.783
39212W        W11637  32.056  35.009   2.601
39213W        W11638   0.675  29.922   0.324
39214W        W11639  42.879  30.367  14.874
39215W        W11640  40.043  11.238  10.649
39216W        W11641  38.455   1.437  13.786
39217W        W11642  40.765  16.876   2.763
39218W        W11643  11.403   4.326  12.779
39219W        W11644   9.407  32.102  14.445
39220W        W11645   6.452  30.412  11.662
39221W        W11646  33.441   2.785  10.576
39222W        W11647  27.638   3.473   1.796
39223W        W11648  31.091  23.155   2.866
39224W        W11649  26.334   9.626  12.946
39225W        W11650  31.990  10.109  10.867
39226W        W11651  12.583  22.490  14.395
39227W        W11652  24.871  21.756  14.895
39228W        W11653  39.046  31.770   3.306
39229W        W11654  22.291  39.901   0.449
39230W        W11655  35.524   1.208   4.630
39231W        W11656  31.157  31.960   4.161
39232W        W11657  35.779   6.660  13.990
39233W        W11658  43.080   7.254   0.644
39234W        W11659   0.285  28.231   0.688
39235W        W11660  27.759  32.105   2.806
39236W        W11661  27.010  35.207  12.511
39237W        W11662  17.126  14.697   2.369
39238W        W11663  11.115   8.219   4.114
39239W        W11664  16.571  22.692  14.367
39240W        W11665   9.273  24.861   4.478
39241W        W11666  41.413  33.091  14.371
39242W        W11667  22.956   6.474   4.203
39243W        W11668   6.353  16.597   2.014
39244W        W11669   9.892  24.943   4.231
39245W        W11670   5.896  26.602  11.107
39246W        W11671  40.683  40.729   5.154
39247W        W11672   6.889  40.857  10.633
39248W        W11673  16.103  38.290  11.593
39249W        W11674  38.847   1.744  10.674
39250W        W11675  19.682  41.145   0.404
39251W        W11676  30.450  35.836  12.042
39252W        W11677   8.107  23.148  14.470
39253W        W11678  37.866  12.679  10.759
39254W        W11679  26.155   1.411  12.450
39255W        W11680  19.815  18.090  11.093
39256W        W11681  19.102  16.114  11.985
39257W        W11682  20.104  36.479   4.348
39258W        W11683  28.237  26.219   2.776
39259W        W11684  43.369   8.347  10.889
39260W        W11685  31.529  13.683   3.270
39261W        W11686  39.578  22.214  12.049
39262W        W11687  16.310  36.921   2.876
39263W        W11688  30.231  28.053   2.295
39264W        W11689  26.865  29.959  11.416
39265W        W11690  39.884  24.536   0.188
39266W        W11691  12.769  35.835  12.405
39267W        W11692  29.319  26.634  13.105
39268W        W11693  31.577  27.889  13.026
39269W        W11694  21.642   5.282  11.051
39270W        W11695  30.538  43.740  11.565
39271W        W11696  39.939  37.336  13.585
39272W        W11697   3.197  20.263   0.403
39273W        W11698  28.707  35.599   0.025
39274W        W11699  31.854  36.482   3.640
39275W        W11700  15.105  29.358  11.670
39276W        W11701  28.218  16.468  14.762
39277W        W11702  12.615  41.042  11.503
39278W        W11703  44.060  17.781  12.441
39279W        W11704   7.988  24.625   4.998
39280W        W11705  40.056  19.038   0.915
39281W        W11706  26.543  43.223   2.375
39282W        W11707  21.544  29.444   0.425
39283W        W11708  34.196  42.905   3.717
39284W        W11709  40.561  39.996   4.236
39285W        W11710  23.787  18.549  13.985
39286W        W11711   0.319  30.420  12.574
39287W        W11712  18.299  27.063  11.009
39288W        W11713  23.584  29.547   4.686
39289W        W11714   6.566   7.765   0.429
39290W        W11715   3.445  18.861   1.049
39291W        W11716  13.989  11.185   2.867
39292W        W11717  14.265  21.706  10.868
39293W        W11718  14.845  21.799   2.698
39294W        W11719  40.592   5.291   1.516
39295W        W11720  19.611  25.034  10.925
39296W        W11721  15.163   6.743   1.435
39297W        W11722  10.719   6.925   0.760
39298W        W11723  39.465  20.968  10.808
39299W        W11724  16.617  25.510  13.000
39300W        W11725  39.370  34.699   0.586
39301W        W11726  33.069  41.612   4.868
39302W        W11727   0.277   7.795  12.884
39303W        W11728  15.089  15.210   0.878
39304W        W11729  18.250   5.223   2.506
39305W        W11730  25.667  36.417   4.121
39306W        W11731   8.404  20.656   2.452
39307W        W11732  27.313  17.673  14.760
39308W        W11733   3.589   4.113  10.915
39309W        W11734   0.909  40.936  12.491
39310W        W11735  19.907   3.249   1.387
39311W        W11736  25.648  31.043  14.317
39312W        W11737  25.265  23.357   0.741
39313W        W11738  22.316   4.580   4.083
39314W        W11739  12.984  21.278  10.964
39315W        W11740  44.618  24.234   3.751
39316W        W11741  37.799  34.762  12.806
39317W        W11742  33.664  21.593   0.514
39318W        W11743   4.227  37.461  14.253
39319W        W11744  41.236  31.943   3.385
39320W        W11745  12.283   0.439   4.469
39321W        W11746   2.427  43.344  12.212
39322W        W11747  33.472  44.584   3.815
39323W        W11748  34.204  25.441   2.933
39324W        W11749  22.576  43.482   3.865
39325W        W11750  19.245  41.817   0.009
39326W        W11751   5.115  27.073  11.563
39327W        W11752  43.241  28.016   1.404
39328W        W11753  43.968  10.365  13.869
39329W        W11754   3.998  29.978  12.421
39330W        W11755  37.660  21.771   2.781
39331W        W11756  44.965  37.557  11.607
39332W        W11757  22.980  19.055  11.522
39333W        W11758  30.859  37.935   2.876
39334W        W11759  17.412  44.888  13.416
39335W        W11760  31.317  20.790   2.262
39336W        W11761  38.478  25.033   4.364
39337W        W11762  21.788  26.181   0.329
39338W        W11763  32.550  40.847   4.390
39339W        W11764   4.818  34.598   2.805
39340W        W11765   9.721  24.060   4.099
39341W        W11766  43.190  43.927  10.734
39342W        W11767  42.079  39.880   2.680
39343W        W11768  25.028  23.080   4.102
39344W        W11769   7.773  30.403   0.430
39345W        W11770  19.647  21.140   1.297
39346W        W11771  27.926  10.262   2.339
39347W        W11772  42.922  25.593  11.048
39348W        W11773  18.047  18.069   1.914
39349W        W11774  30.473  18.698   1.266
39350W        W11775   5.843  41.525  14.708
39351W        W11776  28.278  17.127  12.675
39352W        W11777  43.893  36.287   0.914
39353W        W11778   6.211  29.969  10.354
39354W        W11779  28.668  10.778   2.224
39355W        W11780  32.467   6.004   4.149
39356W        W11781  29.907   4.161   1.710
39357W        W11782  14.954   0.355   4.171
39358W        W11783   2.507  44.424   5.097
39359W        W11784  37.103   5.238   2.803
39360W        W11785   8.369  21.789   3.279
39361W        W11786   4.716  11.830  13.861
39362W        W11787  33.539  26.925  12.548
39363W        W11788  27.181  42.746  14.310
39364W        W11789   2.834  27.086  11.623
39365W        W11790  15.864  36.076   3.138
39366W        W11791   2.772  34.876   3.367
39367W        W11792   9.605  23.029   2.747
39368W        W11793  18.301  42.338   1.293
39369W        W11794  31.571   2.450   1.012
39370W        W11795  25.938   5.347   4.286
39371W        W11796   9.014  34.206   4.287
39372W        W11797  27.984   5.528   5.100
39373W        W11798  22.812  15.628  12.814
39374W        W11799  15.544  40.081   2.393
39375W        W11800  20.923   2.028   4.011
39376W        W11801  30.668  13.770  11.932
39377W        W11802  43.193  17.530   4.872
39378W        W11803   7.345  41.865   3.869
39379W        W11804   3.869   7.335  13.908
39380W        W11805  37.906  27.490  10.760
39381W        W11806  34.349  15.602   1.853
39382W        W11807  37.482  17.564   1.242
39383W        W11808   1.260  24.540  11.578
39384W        W11809  21.566  27.865  13.853
39385W        W11810  28.557   0.125  10.412
39386W        W11811  29.084   1.614   4.663
39387W        W11812  22.035  33.797   0.914
39388W        W11813  16.709  30.430  14.813
39389W        W11814  33.535  33.870  11.973
39390W        W11815  17.850  37.333   4.397
39391W        W11816   5.763  10.554   4.411
39392W        W11817  39.156  37.504  11.482
39393W        W11818  39.762  30.160   1.995
39394W        W11819   7.174  13.201   3.761
39395W        W11820   8.084  10.599  13.408
39396W        W11821  11.601  28.879  13.437
39397W        W11822  27.854  29.075  13.861
39398W        W11823  26.702  32.411   1.742
39399W        W11824  32.431  12.212  11.139
39400W        W11825  23.443  10.701   2.345
39401W        W11826  32.899  36.621   4.136
39402W        W11827  17.218  21.597   0.055
39403W        W11828  22.005  28.013  12.038
39404W        W11829  26.040  35.492   4.134
39405W        W11830  39.610  41.354  12.939
39406W        W11831  31.069  19.569   0.514
39407W        W11832  15.191  22.040   2.321
39408W        W11833  19.124  39.460  11.606
39409W        W11834  15.464  11.954  11.195
39410W        W11835  14.190  28.683   1.436
39411W        W11836  32.017  17.811  13.954
39412W        W11837  24.472  21.417  14.934
39413W        W11838   1.970   7.148  12.855
39414W        W11839  31.889  39.054   3.688
39415W        W11840   9.720  23.542  13.370
39416W        W11841  36.599  29.164  14.713
39417W        W11842   3.324  18.235  12.049
39418W        W11843   9.946   3.996  12.076
39419W        W11844  43.280   2.169  13.140
39420W        W11845  29.657   7.779   1.731
39421W        W11846  26.122  37.886  13.039
39422W        W11847   9.796  23.791   1.297
39423W        W11848  29.008  13.054   0.759
39424W        W11849  35.645   1.624  11.219
39425W        W11850   1.232  22.066   4.556
39426W        W11851  42.040   3.962   2.429
39427W        W11852  23.363  11.860  13.452
39428W        W11853  37.873  37.137  11.063
39429W        W11854  31.489  20.671  10.563
39430W        W11855   4.925  36.326  13.866
39431W        W11856  25.051  21.153   3.568
39432W        W11857  16.170  11.922  10.329
39433W        W11858  22.696  28.221  10.828
39434W        W11859  25.448  37.586   1.835
39435W        W11860  43.933  22.444  10.417
39436W        W11861   9.639  28.592  11.543
39437W        W11862  12.826  34.793  10.809
39438W        W11863   4.957  17.837   1.366
39439W        W11864  12.133  15.606   2.901
39440W        W11865  10.768  28.412  12.018
39441W        W11866  29.112  21.957  14.011
39442W        W11867  15.697  44.843   0.945
39443W        W11868  18.404  42.925  13.857
39444W        W11869  42.349  12.638   4.382
39445W        W11870   7.397  18.265  11.169
39446W        W11871  33.776  35.507   4.528
39447W        W11872  13.562   1.114   2.232
39448W        W11873  39.305   1.674   2.279
39449W        W11874   6.465  17.228   3.704
39450W        W11875  14.227  18.444   4.974
39451W        W11876  29.453   7.762  13.197
39452W        W11877   7.971  10.341  13.876
39453W        W11878  19.074  21.801   4.516
39454W        W11879   0.117  44.010   4.191
39455W        W11880  42.823   0.388   0.892
39456W        W11881   6.836  31.332   0.661
39457W        W11882  30.176   3.628  10.934
39458W        W11883  26.556  10.458   1.008
39459W        W11884  14.655  18.284  14.438
39460W        W11885  12.880   8.304  13.556
39461W        W11886   6.983  27.609  12.542
39462W        W11887  11.156   2.017  13.989
39463W        W11888  24.734  14.385  14.866
39464W        W11889  26.160  12.854   2.040
39465W        W11890  41.264  32.549  12.380
39466W        W11891   8.188  36.495  11.032
39467W        W11892  23.619  37.388   0.365
39468W        W11893  33.666   3.844  10.910
39469W        W11894  34.875  24.659  14.063
39470W        W11895  44.217  26.732  13.606
39471W        W11896  34.773  23.497   2.821
39472W        W11897  43.311  23.694   2.303
39473W        W11898  10.342  37.015   1.957
39474W        W11899   7.381   7.653   2.640
39475W        W11900  13.420  15.314   2.232
39476W        W11901   1.378  12.206  10.804
39477W        W11902  15.630  24.623  11.543
39478W        W11903   7.796   7.333   4.245
39479W        W11904  17.763  24.425  10.766
39480W        W11905  43.545  11.369  13.283
39481W        W11906  35.071  40.325  10.516
39482W        W11907  30.666   0.486   2.652
39483W        W11908  37.356  39.090   4.114
39484W        W11909   0.613  13.615   1.214
39485W        W11910  33.359  41.649  10.539
39486W        W11911  44.599  16.595  14.280
39487W        W11912  39.121  20.174  10.051
39488W        W11913  35.858  16.211   4.027
39489W        W11914  40.897  28.524   2.590
39490W        W11915   5.782  30.024  14.863
39491W        W11916  40.642  40.720  13.525
39492W        W11917  36.800  23.686   1.623
39493W        W11918  37.094  17.258   0.400
39494W        W11919  17.090  22.626   0.930
39495W        W11920  21.519  22.078   2.970
39496W        W11921   0.687   3.312   4.071
39497W        W11922  31.898  32.864  12.975
39498W        W11923   1.944  36.787  11.960
39499W        W11924  17.138  28.447  13.795
39500W        W11925  10.584  22.007   4.060
39501W        W11926  23.505  28.151   1.912
39502W        W11927  16.490  12.594   2.739
39503W        W11928  31.988  14.774   1.815
39504W        W11929   1.762  14.099   0.265
39505W        W11930   8.180  18.081   0.275
39506W        W11931  10.528  36.932   2.432
39507W        W11932   8.667  41.833  14.853
39508W        W11933  26.167  41.952   1.365
39509W        W11934   2.281  21.621   1.019
39510W        W11935   4.435  18.386  12.130
39511W        W11936  23.990  32.339   2.465
39512W        W11937  21.129  27.705   3.354
39513W        W11938  44.609  44.429   3.773
39514W        W11939  21.827  13.068  10.050
39515W        W11940  30.392  30.881   4.551
39516W        W11941  23.563  29.744  13.812
39517W        W11942  27.130   3.494   0.656
39518W        W11943  35.582  17.675   2.091
39519W        W11944   7.685   8.672   5.251
39520W        W11945  40.606  40.996   1.546
39521W        W11946   8.299  26.120   5.112
39522W        W11947  38.976  32.630  13.431
39523W        W11948   9.842  11.609   0.346
39524W        W11949  17.792  32.472  11.092
39525W        W11950   6.775   4.720   2.611
39526W        W11951  28.699  29.996  11.909
39527W        W11952  20.145   9.928   3.301
39528W        W11953  41.876  40.372  14.526
39529W        W11954  41.731  34.262   5.101
39530W        W11955  12.033   6.682  14.461
39531W        W11956   3.786  18.452   1.149
39532W        W11957  22.476  42.640  12.049
39533W        W11958   5.418   1.371   4.476
39534W        W11959  33.988  22.285   3.695
39535W        W11960  40.969  27.001   3.368
39536W        W11961   2.196  35.973  14.389
39537W        W11962  14.797  42.823   4.543
39538W        W11963  20.658   0.003  14.358
39539W        W11964  27.721  24.944  10.747
39540W        W11965  16.973  43.226   3.249
39541W        W11966   7.784   2.798  14.368
39542W        W11967   9.209  22.174  12.455
39543W        W11968  17.977  31.457  11.967
39544W        W11969   5.281  29.576  13.035
39545W        W11970  41.653  15.389  13.308
39546W        W11971   9.385  15.098  12.854
39547W        W11972  14.732  35.838   4.553
39548W        W11973  36.858  35.877   2.803
39549W        W11974  27.462  26.629   1.704
39550W        W11975  16.923  44.760  13.350
39551W        W11976  25.281   5.738  10.702
39552W        W11977  39.507  32.159  12.871
39553W        W11978  19.065  17.648   0.074
39554W        W11979  28.808   6.637  12.946
39555W        W11980  14.316   5.021  13.992
39556W        W11981  30.259  33.152   0.360
39557W        W11982  28.412   3.399   5.113
39558W        W11983  28.480  28.443   3.323
39559W        W11984   3.753  42.363  13.005
39560W        W11985  33.992  42.346  10.775
39561W        W11986  39.201  28.627  14.062
39562W        W11987  25.024  13.147   4.129
39563W        W11988   1.712   4.205   1.438
39564W        W11989   8.679  39.728   4.226
39565W        W11990  27.633  38.204   0.245
39566W        W11991  18.557  26.733   2.147
39567W        W11992  34.874  36.620  11.596
39568W        W11993  24.032  28.883  12.067
39569W        W11994  26.016  12.776  11.182
39570W        W11995  43.327  25.069   0.871
39571W        W11996  19.976  35.278  11.896
39572W        W11997   2.986  27.660  10.766
39573W        W11998  32.050   0.797   2.523
39574W        W11999  14.171   5.740  13.248
39575W        W12000  22.077  24.113  10.684
39576W        W12001  17.497  39.784   2.210
39577W        W12002  38.095   9.677   2.321
39578W        W12003   4.711  14.550  11.131
39579W        W12004   6.011  15.176  13.961
39580W        W12005  37.629  12.794   2.720
39581W        W12006  15.829   9.313  12.428
39582W        W12007   5.510   4.896   1.940
39583W        W12008   0.892   1.804   1.973
39584W        W12009  24.532  44.544  12.106
39585W        W12010  19.502  16.098  14.114
39586W        W12011   9.857  24.145   3.066
39587W        W12012  41.895  39.392  10.439
39588W        W12013  31.033  23.249  13.953
39589W        W12014  42.020  31.400   4.630
39590W        W12015  37.620  43.326   2.764
39591W        W12016  39.012  28.386  11.587
39592W        W12017  19.639   8.289  12.511
39593W        W12018  33.988  14.830  11.661
39594W        W12019  17.163  35.799  13.554
39595W        W12020  15.347  43.834   2.399
39596W        W12021   0.919  20.246  12.459
39597W        W12022  39.357  29.012  11.967
39598W        W12023  26.954  40.872  14.145
39599W        W12024  14.661   6.834   0.716
39600W        W12025  11.787  44.165  14.841
39601W        W12026  25.695   5.814   0.311
39602W        W12027  13.790  30.846  13.077
39603W        W12028  16.244  27.598   0.016
39604W        W12029  44.106  18.647  11.110
39605W        W12030  12.456  22.479   5.065
39606W        W12031  26.630  23.167  14.519
39607W        W12032  28.061   6.119  13.078
39608W        W12033  20.027   7.858  12.060
39609W        W12034  18.299  10.521   4.613
39610W        W12035  19.830   0.953  11.951
39611W        W12036  38.401  15.754   1.451
39612W        W12037  25.145   0.791  13.968
39613W        W12038  31.048  22.425   4.062
39614W        W12039  42.202   3.746  12.092
39615W        W12040  17.677  36.656   3.791
39616W        W12041   2.953  28.119  13.170
39617W        W12042  11.754  10.235  13.152
39618W        W12043  20.175  32.727   4.052
39619W        W12044  18.093   1.638  10.666
39620W        W12045  22.486   8.871   2.405
39621W        W12046  29.414  24.919   0.806
39622W        W12047  34.988  16.708  14.772
39623W        W12048  38.586  22.118  12.803
39624W        W12049   0.872  41.618   1.883
39625W        W12050  40.859  19.289   2.682
39626W        W12051  14.834  20.291  13.004
39627W        W12052  32.815  31.748  14.799
39628W        W12053   8.644  15.659  12.446
39629W        W12054   0.316  12.831   3.941
39630W        W12055  44.910  41.640   4.755
39631W        W12056  34.804  14.075   0.766
39632W        W12057  17.815  15.329   2.273
39633W        W12058  18.412  33.659   4.611
39634W        W12059  17.698  34.911   4.756
39635W        W12060   3.730   5.770  12.415
39636W        W12061  15.169  35.059  14.412
39637W        W12062   4.872  33.246  13.375
39638W        W12063  33.970  22.683  14.486
39639W        W12064  10.664  16.777   4.856
39640W        W12065  20.227  35.119  10.632
39641W        W12066   8.694   0.986  12.532
39642W        W12067  29.454   1.536  11.205
39643W        W12068  17.081  41.546   0.367
39644W        W12069  34.855   3.316   2.182
39645W        W12070  37.768  24.785  12.059
39646W        W12071  36.449  19.399   0.095
39647W        W12072  22.310  43.554  12.437
39648W        W12073  44.360  36.093  12.574
39649W        W12074  23.197  40.428  13.002
39650W        W12075   1.533  16.604   2.870
39651W        W12076  35.165  44.780   4.635
39652W        W12077  40.967  26.444  11.206
39653W        W12078  20.964  16.335   3.872
39654W        W12079   6.726  28.074  10.871
39655W        W12080  44.407  32.998  13.905
39656W        W12081  24.806  40.097   3.185
39657W        W12082  26.243  19.020   3.307
39658W        W12083  23.104  26.081  10.350
39659W        W12084  10.826   7.345  11.431
39660W        W12085  26.022  10.451   2.694
39661W        W12086   2.239  26.723  12.333
39662W        W12087  28.204  25.619   0.402
39663W        W12088   9.709  34.338   1.443
39664W        W12089   0.699  37.475  10.932
39665W        W12090  40.691   3.260   4.018
39666W        W12091  13.627  44.008  13.294
39667W        W12092  16.726  42.558   3.689
39668W        W12093  13.801  27.950   4.556
39669W        W12094   1.734  15.402  12.896
39670W        W12095  29.018   1.673   3.696
39671W        W12096  14.315  31.888   3.826
39672W        W12097  32.083   5.230  14.542
39673W        W12098  12.632  29.122   4.132
39674W        W12099  29.124  20.823   4.269
39675W        W12100  37.475  13.354  11.122
39676W        W12101  26.106  19.628  14.839
39677W        W12102   1.882  13.048  13.612
39678W        W12103   5.725  17.890   2.956
39679W        W12104   3.188  20.663   0.767
39680W        W12105   2.792   4.304   4.701
39681W        W12106  20.635   4.374  12.902
39682W        W12107  34.339  23.777   3.813
39683W        W12108  28.558   1.641   0.357
39684W        W12109  12.097   4.737   4.631
39685W        W12110  33.096  20.088  12.437
39686W        W12111  40.921   0.916  10.547
39687W        W12112   0.478  24.685   2.776
39688W        W12113  26.524  14.856   4.275
39689W        W12114  31.606   3.966  12.892
39690W        W12115  19.867  32.654  11.988
39691W        W12116  20.049  41.212  12.161
39692W        W12117  34.387  20.153  13.454
39693W        W12118  35.543  23.652   1.327
39694W        W12119  13.286   4.904  13.186
39695W        W12120  20.758  31.451   0.845
39696W        W12121  27.333   3.899   2.723
39697W        W12122  23.727  16.107   3.196
39698W        W12123   9.699  43.708   1.432
39699W        W12124   1.393  27.874   2.779
39700W        W12125  23.092  18.686   1.776
39701W        W12126  10.218  41.368   0.464
39702W        W12127   4.408  21.183   3.203
39703W        W12128  30.883  22.364  11.250
39704W        W12129   4.846  23.522   1.744
39705W        W12130  23.256  13.714   0.291
39706W        W12131   2.975  19.033  11.629
39707W        W12132   0.879  18.195  14.890
39708W        W12133  23.987  26.813   3.756
39709W        W12134  37.275   7.084  13.849
39710W        W12135   2.702  27.564   0.706
39711W        W12136  42.699  15.718   0.408
39712W        W12137  15.305   0.551   4.563
39713W        W12138  44.274  24.070   2.153
39714W        W12139   2.287   3.674  12.477
39715W        W12140  22.749  25.149  12.048
39716W        W12141  31.557  44.731  10.607
39717W        W12142  26.975   9.666   3.611
39718W        W12143   9.077   4.382   0.063
39719W        W12144   1.922  36.999  14.814
39720W        W12145  19.745  29.436   0.770
39721W        W12146  29.953  31.965  14.104
39722W        W12147  20.662  39.580   2.733
39723W        W12148  37.264  39.735   4.750
39724W        W12149  15.842   4.437   3.789
39725W        W12150  21.905  17.672   3.705
39726W        W12151  22.769  18.137  14.469
39727W        W12152  26.509  19.300  13.702
39728W        W12153  10.528  33.361  10.744
39729W        W12154   8.957  28.650   4.649
39730W        W12155  24.503   8.359  11.542
39731W        W12156   9.481  13.425   4.119
39732W        W12157  18.980  30.508  13.506
39733W        W12158  34.284  16.355   4.117
39734W        W12159   5.715  39.934   1.482
39735W        W12160  30.841  25.512   2.712
39736W        W12161  11.223   9.780  10.703
39737W        W12162   0.781   7.720   1.224
39738W        W12163  35.788  22.522   3.527
39739W        W12164  23.029  26.345  12.939
39740W        W12165  40.396  33.549  14.560
39741W        W12166  32.637  18.148  14.794
39742W        W12167  33.010  36.458  13.113
39743W        W12168   8.595   4.209   4.562
39744W        W12169  28.160  18.706   1.675
39745W        W12170  11.636  18.578  13.445
39746W        W12171  16.662  23.196   0.938
39747W        W12172  40.405  21.785   2.772
39748W        W12173  42.076  38.738  14.733
39749W        W12174  29.191  40.307   3.851
39750W        W12175  13.074  32.441   2.859
39751W        W12176  11.868   3.331   3.371
39752W        W12177  27.184  44.766  13.531
39753W        W12178   0.575  32.063  13.830
39754W        W12179  29.289  35.289   0.740
39755W        W12180  10.602  16.094   3.337
39756W        W12181  40.229  29.969  12.469
39757W        W12182  16.630  13.645  13.760
39758W        W12183   6.400  19.261   3.971
39759W        W12184  15.802  34.167  12.066
39760W        W12185  38.465  16.003  11.688
39761W        W12186   9.898  27.742  14.015
39762W        W12187   8.773   7.679   4.482
39763W        W12188  36.906  24.156   4.302
39764W        W12189   0.426  41.212   1.277
39765W        W12190  14.945  27.121   3.235
39766W        W12191  42.720   2.930   2.468
39767W        W12192   9.746  24.298   1.128
39768W        W12193  20.275  26.682   4.657
39769W        W12194  16.125  36.516   3.142
39770W        W12195  12.845  18.088  13.418
39771W        W12196  21.551  44.836  11.562
39772W        W12197  10.711  25.987  12.221
39773W        W12198   8.570  39.151  13.862
39774W        W12199  13.312  19.269   4.653
39775W        W12200   0.368  42.247  14.890
39776W        W12201   4.947  27.134   5.056
39777W        W12202  30.561  10.645  10.796
39778W        W12203  38.971  39.261   4.793
39779W        W12204  23.456  31.980   4.117
39780W        W12205  24.474  30.577   2.710
39781W        W12206  11.194  15.311  12.473
39782W        W12207  21.272  44.326   2.692
39783W        W12208   3.846  22.790   2.205
39784W        W12209  44.747  31.645  14.528
39785W        W12210  13.397  39.620   4.629
39786W        W12211  25.571  34.820  11.229
39787W        W12212  21.542  12.294   9.819
39788W        W12213  18.174  23.238  10.939
39789W        W12214   2.995  34.579  11.044
39790W        W12215  25.658   5.267  12.410
39791W        W12216   6.348  24.692   2.452
39792W        W12217  44.008   3.981  12.729
39793W        W12218  26.047  33.921   1.811
39794W        W12219   8.676   3.198   0.259
39795W        W12220  16.559  29.606  11.723
39796W        W12221  16.273   3.837  14.426
39797W        W12222  39.247  20.606  14.469
39798W        W12223  35.824  38.622  11.409
39799W        W12224   3.936  34.048   2.611
39800W        W12225   5.102  27.682   4.538
39801W        W12226  38.810   2.751  10.394
39802W        W12227  38.960  15.229   2.931
39803W        W12228  22.209  24.192   2.804
39804W        W12229  10.777  14.047   0.638
39805W        W12230  28.576   3.851   1.414
39806W        W12231  29.520  32.666  13.775
39807W        W12232   0.508  24.146   4.713
39808W        W12233  20.557   4.454  14.540
39809W        W12234  39.922  25.061   1.253
39810W        W12235   7.604   2.809   2.691
39811W        W12236  11.256   1.904   5.000
39812W        W12237  25.527  13.736   1.305
39813W        W12238  29.801  11.857  12.089
39814W        W12239  43.239  18.625  10.804
39815W        W12240  11.179   9.178   2.776
39816W        W12241  17.558  12.917   0.888
39817W        W12242   4.348  29.322  14.979
39818W        W12243  39.920  20.027   5.270
39819W        W12244   2.887  33.687  10.520
39820W        W12245  15.296  39.973  11.984
39821W        W12246   3.145  34.570   2.416
39822W        W12247   8.650  33.596  12.366
39823W        W12248  27.111  11.709  10.276
39824W        W12249  16.659  39.940   0.238
39825W        W12250  21.157  26.839  13.549
39826W        W12251   7.896  17.690   3.675
39827W        W12252  35.558  44.284  11.995
39828W        W12253  40.312  33.956  10.432
39829W        W12254   9.831  10.194  12.154
39830W        W12255   3.288   9.629   2.037
39831W        W12256   3.467  30.086  10.896
39832W        W12257  31.054   7.399  12.643
39833W        W12258  35.644  13.021   0.147
39834W        W12259  24.563  31.559   4.074
39835W        W12260  40.034  28.950  12.431
39836W        W12261  12.754  23.420  11.974
39837W        W12262   8.584  44.215   0.166
39838W        W12263  27.498  12.588   0.650
39839W        W12264  23.057  36.338  11.625
39840W        W12265  27.555  37.172   0.399
39841W        W12266  26.470  21.032  11.042
39842W        W12267  32.125  44.915  14.903
39843W        W12268  34.650  42.709   1.750
39844W        W12269  11.221  40.930  12.338
39845W        W12270   0.762  19.551  11.541
39846W        W12271   8.864   7.175  12.504
39847W        W12272  26.181   5.885   0.385
39848W        W12273  44.251  42.098  11.408
39849W        W12274  32.507  18.147  13.206
39850W        W12275  26.812  44.942  14.845
39851W        W12276  24.120  42.976   2.921
39852W        W12277  34.412  19.291  13.555
39853W        W12278  21.694  21.048  14.136
39854W        W12279   4.714   7.373   0.330
39855W        W12280  19.825  39.863  12.999
39856W        W12281  29.560  26.429  14.540
39857W        W12282   6.306  20.228   0.960
39858W        W12283   0.978  30.631   5.016
39859W        W12284  20.117  11.402   0.050
39860W        W12285   0.938   5.661   4.117
39861W        W12286  38.244   6.522   2.741
39862W        W12287   1.237   6.698   1.996
39863W        W12288  23.949  41.954   0.893
39864W        W12289  41.415   8.727  13.146
39865W        W12290   9.634  39.892   0.393
39866W        W12291  38.897  38.326  14.042
39867W        W12292  27.260  37.431  13.015
39868W        W12293  39.877   8.766  13.448
39869W        W12294  27.707  42.376   0.893
39870W        W12295   2.140  34.507  13.660
39871W        W12296  42.523  19.877  13.906
39872W        W12297  42.046  25.951  12.133
39873W        W12298  23.155  17.810   2.929
39874W        W12299  23.435  22.276   4.417
39875W        W12300  15.058  41.953  12.151
39876W        W12301   5.818  28.084   4.266
39877W        W12302  23.204  26.897  14.794
39878W        W12303   7.294  43.306  13.485
39879W        W12304  30.482  42.265  11.334
39880W        W12305  11.057  19.790   4.519
39881W        W12306  22.212  20.242   1.261
39882W        W12307  33.208   8.678   4.679
39883W        W12308  20.022  32.103   0.825
39884W        W12309  29.103  28.164  13.797
39885W        W12310  28.388  43.067   2.747
39886W        W12311  21.790  21.217   5.167
39887W        W12312  14.037  21.835   3.620
39888W        W12313  29.281  31.884  14.827
39889W        W12314  17.658  29.144  10.464
39890W        W12315   5.636  25.943   3.631
39891W        W12316  19.655  28.554  13.521
39892W        W12317  36.938  38.505   0.164
39893W        W12318  20.795  43.231  12.488
39894W        W12319  18.136   4.651  12.487
39895W        W12320   1.293  16.226   4.911
39896W        W12321  36.210  17.615   4.121
39897W        W12322  35.223  43.512   3.407
39898W        W12323  21.633   6.394  11.775
39899W        W12324  14.708  26.177   1.293
39900W        W12325   8.169   0.753   4.360
39901W        W12326  41.048  42.472   3.648
39902W        W12327  41.541  14.103  14.547
39903W        W12328  32.398  16.366   2.324
39904W        W12329  21.295   2.117  11.555
39905W        W12330   8.821  11.853   1.888
39906W        W12331  41.437   0.544   4.758
39907W        W12332   2.238  15.860  14.763
39908W        W12333  43.943   6.698   0.488
39909W        W12334   7.599  25.243  14.399
39910W        W12335  23.109   0.956  13.054
39911W        W12336  22.470  26.118  13.557
39912W        W12337  10.143  13.653   1.940
39913W        W12338  19.768  14.524   3.816
39914W        W12339  33.251  20.023  12.941
39915W        W12340  41.998  35.308   3.820
39916W        W12341  42.465  40.713   1.271
39917W        W12342  30.376  40.006   2.526
39918W        W12343  16.574  15.227   1.803
39919W        W12344  31.340   9.739   1.212
39920W        W12345   8.988   9.430   2.693
39921W        W12346  23.666  12.761  13.218
39922W        W12347  43.402  22.543   3.673
39923W        W12348  15.776  37.001   3.148
39924W        W12349  27.539  30.111   3.555
39925W        W12350  10.520  24.440   9.750
39926W        W12351  13.357  16.299   0.585
39927W        W12352  44.901  26.234  14.410
39928W        W12353  32.021  28.970  13.335
39929W        W12354  16.691   7.824  11.193
39930W        W12355  18.516  41.502   2.145
39931W        W12356  28.415   0.387   4.297
39932W        W12357  39.447   0.215   0.154
39933W        W12358  21.581   0.678  13.080
39934W        W12359  42.699   8.301  12.495
39935W        W12360   9.329  41.792   4.678
39936W        W12361  39.256  26.618  11.738
39937W        W12362  32.511   8.379  11.002
39938W        W12363  12.361  26.914  12.525
39939W        W12364  35.478  32.158  11.100
39940W        W12365  39.976  10.474  14.356
39941W        W12366   5.185  24.075   0.265
39942W        W12367   9.828  41.569   1.405
39943W        W12368   2.293   5.630  13.883
39944W        W12369  41.987  25.196   3.314
39945W        W12370   7.017  30.914   0.384
39946W        W12371  39.996  43.408  13.894
39947W        W12372  13.000  38.921  13.988
39948W        W12373  27.107  32.119  12.527
39949W        W12374  18.852  33.395  12.398
39950W        W12375  44.970  44.170   3.529
39951W        W12376  31.543   9.651  11.526
39952W        W12377   4.757  16.750  14.477
39953W        W12378   8.932  15.525   1.331
39954W        W12379  42.996  44.346  10.467
39955W        W12380   0.330  37.420   0.776
39956W        W12381  41.804  18.298   2.301
39957W        W12382  10.157  13.817   0.391
39958W        W12383  37.781  22.527   3.735
39959W        W12384  16.057  14.660   3.215
39960W        W12385  32.110   8.436  13.241
39961W        W12386  11.415  40.171   5.207
39962W        W12387  23.899  15.761  10.209
39963W        W12388  39.415  44.310  12.184
39964W        W12389  13.089  30.074  10.916
39965W        W12390  33.452   1.171  10.655
39966W        W12391  19.238   4.311   2.132
39967W        W12392   8.209  11.816  14.047
39968W        W12393   6.483   8.985  11.585
39969W        W12394  16.109  39.826   3.027
39970W        W12395  13.471  23.557  14.426
39971W        W12396  15.806  11.729   4.562
39972W        W12397  17.885  26.453   5.016
39973W        W12398   6.983   2.823  12.113
39974W        W12399  31.702   7.824  11.197
39975W        W12400   2.087  13.643   0.245
39976W        W12401  19.379  22.355  14.010
39977W        W12402  21.943  22.531   3.264
39978W        W12403  13.308   9.080   0.842
39979W        W12404  13.112   2.767   4.237
39980W        W12405  42.521  44.979   3.453
39981W        W12406  34.881  32.499  13.585
39982W        W12407  32.180   7.543  13.689
39983W        W12408   3.257  41.029   1.852
39984W        W12409  22.774  18.206  11.010
39985W        W12410  36.059  14.515  14.208
39986W        W12411  16.564   3.282   1.208
39987W        W12412  26.136  34.823  14.455
39988W        W12413  37.401  28.585  13.991
39989W        W12414  12.583  17.147   2.129
39990W        W12415  37.744   4.863  10.838
39991W        W12416  44.459  32.991   0.396
39992W        W12417  23.677   5.393   1.760
39993W        W12418  19.575   8.246  14.753
39994W        W12419   1.671  14.089   3.370
39995W        W12420  37.973  29.880   0.392
39996W        W12421  24.891  37.468  12.425
39997W        W12422  31.238  14.761   4.513
39998W        W12423  36.450   3.275  11.169
39999W        W12424  17.087  12.319   1.747
40000W        W12425  34.706  30.968   4.566
40001W        W12426  15.727  40.349   3.920
40002W        W12427  30.649  16.911  14.374
40003W        W12428  30.020  13.105  12.773
40004W        W12429  21.557   6.938  13.019
40005W        W12430   6.937  29.433   0.925
40006W        W12431   4.471  40.775   2.822
40007W        W12432   1.116   0.026   4.891
40008W        W12433  24.126  20.685  13.963
40009W        W12434  12.886  29.460  12.660
40010W        W12435  44.896   7.825   0.970
40011W        W12436  15.426  26.011   2.810
40012W        W12437   2.663  31.948   0.354
40013W        W12438  30.487  10.430  13.348
40014W        W12439   3.502  21.676  12.048
40015W        W12440  29.188  10.294  10.640
40016W        W12441  40.339  11.771  12.145
40017W        W12442  28.196  25.514  12.953
40018W        W12443  29.612  43.709   2.711
40019W        W12444  31.943   4.947   2.315
40020W        W12445  14.789  22.992   3.690
40021W        W12446  24.110   8.358   2.639
40022W        W12447  14.320  20.896   2.413
40023W        W12448   5.752   8.916   1.516
40024W        W12449  35.789  33.683   4.168
40025W        W12450   9.586  29.991  11.948
40026W        W12451  13.883   3.371  13.752
40027W        W12452  24.437  14.244   4.748
40028W        W12453  21.733  37.874  11.130
40029W        W12454  18.292  27.931   0.717
40030W        W12455   2.825  40.769   0.390
40031W        W12456   6.117  30.999   1.208
40032W        W12457  32.028  41.191   4.997
40033W        W12458  40.763  44.174  13.062
40034W        W12459  18.586   4.918   2.829
40035W        W12460   0.141   9.938  12.989
40036W        W12461   7.880   8.163  12.659
40037W        W12462  42.837  18.348   4.278
40038W        W12463  39.772   1.522  13.066
40039W        W12464  34.827   3.332   1.272
40040W        W12465  26.681  15.565   2.014
40041W        W12466  30.458   3.819   3.382
40042W        W12467  25.564  13.491  14.926
40043W        W12468  23.487  28.553   3.599
40044W        W12469   7.539  12.350  11.990
40045W        W12470  15.071  30.619  13.879
40046W        W12471  34.363  35.278   3.190
40047W        W12472  35.534  31.638   1.296
40048W        W12473  19.100  28.657  14.928
40049W        W12474   0.331   8.822   4.311
40050W        W12475  21.018  15.072  10.797
40051W        W12476  38.783  35.866   0.904
40052W        W12477  28.205  31.546  12.880
40053W        W12478   9.818  40.920   4.223
40054W        W12479  33.404  38.404   2.429
40055W        W12480  41.309   5.713   2.367
40056W        W12481  13.188  41.240   0.304
40057W        W12482   1.067   1.234  14.708
40058W        W12483  14.272  29.417   2.416
40059W        W12484  19.205   3.214   2.215
40060W        W12485  34.446  14.206  11.149
40061W        W12486  24.365  21.176   4.052
40062W        W12487  37.467  18.251  10.832
40063W        W12488  41.909  37.883   4.572
40064W        W12489   1.043  22.706  12.465
40065W        W12490  30.523  13.800  14.460
40066W        W12491  10.175   0.170   4.114
40067W        W12492  36.515  18.602  11.222
40068W        W12493   4.807  33.311   5.019
40069W        W12494  21.946  34.505  14.208
40070W        W12495   3.417  16.583   3.065
40071W        W12496   2.702  21.161  13.397
40072W        W12497  14.559  17.586  11.725
40073W        W12498  28.427   9.669   1.646
40074W        W12499   1.877  26.241   0.399
40075W        W12500  23.748  10.758   4.381
40076W        W12501  35.621   3.685   0.649
40077W        W12502  13.238  16.707  14.947
40078W        W12503  29.139   6.408   3.151
40079W        W12504  42.859  14.397   3.849
40080W        W12505  26.763  42.864  13.625
40081W        W12506  29.689  42.810  13.494
40082W        W12507  14.161  37.600  14.484
40083W        W12508  36.902  36.643   1.337
40084W        W12509   1.841  27.814   3.596
40085W        W12510  25.630  39.644  12.048
40086W        W12511   1.466  34.152   3.250
40087W        W12512   2.876  36.299   1.691
40088W        W12513  36.632  43.325  10.725
40089W        W12514   1.919   0.081  11.681
40090W        W12515  35.385  16.577  11.250
40091W        W12516  26.796   9.163   1.646
40092W        W12517  13.141  15.994   0.932
40093W        W12518   1.353  28.743   4.678
40094W        W12519  20.591  11.665  13.408
40095W        W12520  35.059  33.269   4.503
40096W        W12521  19.644  19.585   2.704
40097W        W12522   7.709  12.776  11.749
40098W        W12523  32.456  20.518  11.924
40099W        W12524  24.176  44.325  14.925
40100W        W12525  33.320  37.451  13.441
40101W        W12526  25.383  38.008  10.746
40102W        W12527   4.206  18.489  11.283
40103W        W12528  10.501  35.705   1.884
40104W        W12529  16.062  26.667   1.887
40105W        W12530  37.719  38.529   2.823
40106W        W12531  11.439  42.650  12.506
40107W        W12532  29.980  41.906  13.531
40108W        W12533  23.798   7.450  12.230
40109W        W12534  44.611  35.916  11.613
40110W        W12535  28.548  40.044   1.660
40111W        W12536   5.711  11.592   0.022
40112W        W12537  35.457  27.709  10.511
40113W        W12538  43.251  27.735  11.636
40114W        W12539  37.106  18.752   3.439
40115W        W12540  32.849   6.277  12.411
40116W        W12541  35.653  27.382   2.746
40117W        W12542   6.649  33.651  11.233
40118W        W12543  39.391  14.366  11.600
40119W        W12544  41.591   0.321  13.793
40120W        W12545  13.609  18.593   3.225
40121W        W12546  17.580  11.128   0.037
40122W        W12547  38.598  14.514   3.839
40123W        W12548  38.468  23.071  10.607
40124W        W12549  32.883  34.237   0.707
40125W        W12550  42.883  31.660   4.423
40126W        W12551   6.364   2.737  10.792
40127W        W12552  32.708  18.991  13.944
40128W        W12553  29.009   3.085   4.820
40129W        W12554  30.468  18.524  10.968
40130W        W12555  20.168  33.940  11.642
40131W        W12556  38.323  28.629   4.642
40132W        W12557  25.235  36.405  13.976
40133W        W12558   0.723  26.532   0.842
40134W        W12559  17.771  14.262  14.286
40135W        W12560  37.416  17.032  14.836
40136W        W12561  13.819  32.963  12.892
40137W        W12562  26.116  16.645   3.676
40138W        W12563   1.288  13.620  11.714
40139W        W12564  18.622  41.968  13.360
40140W        W12565  41.247  36.051   3.905
40141W        W12566  34.166  28.897  14.792
40142W        W12567   7.261  39.670  13.704
40143W        W12568  23.982  43.891   3.158
40144W        W12569  35.580   7.198   1.901
40145W        W12570  17.299  31.039   4.765
40146W        W12571  13.829  10.816  11.966
40147W        W12572  31.912  39.769   2.943
40148W        W12573  10.523  29.631   2.854
40149W        W12574  14.130  40.460   1.549
40150W        W12575  21.149  44.765  14.457
40151W        W12576  40.484  20.973  11.490
40152W        W12577  22.681   4.771   4.615
40153W        W12578  10.611  38.911   0.634
40154W        W12579   2.355   4.541  11.208
40155W        W12580  35.843  17.771  12.026
40156W        W12581  19.218  35.371  12.577
40157W        W12582  10.915  23.969  13.006
40158W        W12583  13.635  27.137  13.462
40159W        W12584  30.155  18.562  12.390
40160W        W12585  22.808   8.309  12.859
40161W        W12586  32.226  23.530   1.321
40162W        W12587  38.430  19.598   1.922
40163W        W12588  39.284  13.703  10.802
40164W        W12589  43.342  43.950   3.695
40165W        W12590  16.599  34.420   0.772
40166W        W12591  23.026   1.911  11.027
40167W        W12592  25.754  39.987  12.391
40168W        W12593  29.743  29.927   2.199
40169W        W12594  23.162  34.999  14.330
40170W        W12595  12.109   7.183   2.269
40171W        W12596  38.958  10.283  10.607
40172W        W12597  35.245  21.767  11.010
40173W        W12598  26.579  35.981  12.835
40174W        W12599  24.769   8.732  13.926
40175W        W12600   7.649   3.969   2.457
40176W        W12601  21.401  31.479   4.113
40177W        W12602  21.269   9.998   5.103
40178W        W12603  25.011  33.988  13.875
40179W        W12604   7.821  18.798   0.481
40180W        W12605  15.376  27.538   2.864
40181W        W12606  26.690  34.113  10.283
40182W        W12607  37.354  13.594   1.331
40183W        W12608  35.930   2.267  13.471
40184W        W12609  44.718  23.814   4.930
40185W        W12610  18.740  25.175   4.462
40186W        W12611  19.919  17.970   1.642
40187W        W12612  26.967   8.397  13.064
40188W        W12613  36.762  18.955   5.126
40189W        W12614  44.285  36.477   2.667
40190W        W12615  17.869   6.394   2.200
40191W        W12616  27.038  33.488  12.780
40192W        W12617  42.365  12.832   0.959
40193W        W12618  16.574  41.693  12.874
40194W        W12619  19.780  23.482  11.499
40195W        W12620  26.473  10.106  11.660
40196W        W12621  37.023  12.193  12.312
40197W        W12622  42.500  22.123  12.050
40198W        W12623  27.724  28.494   2.040
40199W        W12624  31.201  28.703  12.565
40200W        W12625  32.160  41.591  12.844
40201W        W12626  29.938  42.473  13.815
40202W        W12627   2.253  34.470   2.899
40203W        W12628  23.592  22.453   1.872
40204W        W12629  39.059  37.497  14.313
40205W        W12630  32.046  16.564   3.202
40206W        W12631   1.677  21.224  13.565
40207W        W12632  10.886   6.381  11.556
40208W        W12633  20.971   8.724   3.389
40209W        W12634  35.809  31.027   2.772
40210W        W12635  14.713  36.468  10.697
40211W        W12636  15.257  13.223   2.559
40212W        W12637   7.451  18.306   3.209
40213W        W12638  21.802  26.051   4.181
40214W        W12639  14.766  18.264   1.497
40215W        W12640  13.833  13.866   0.364
40216W        W12641  31.092  30.331   1.022
40217W        W12642  34.407   6.872   2.856
40218W        W12643  11.536  21.096   0.365
40219W        W12644   1.873  22.079  13.777
40220W        W12645  29.203  22.370  10.637
40221W        W12646  22.024  13.572  12.432
40222W        W12647  26.889   1.965  13.627
40223W        W12648  39.384  22.460   3.754
40224W        W12649  34.084   5.493  11.530
40225W        W12650   5.352  37.852   1.954
40226W        W12651  16.597  23.668   0.600
40227W        W12652  19.012  32.526   0.291
40228W        W12653   5.714  24.753   0.307
40229W        W12654  28.135  44.465   4.331
40230W        W12655  44.036   2.315  11.145
40231W        W12656  22.784  42.057   3.703
40232W        W12657  36.885   1.000   0.870
40233W        W12658  22.697  20.203   0.951
40234W        W12659  15.195  41.962   2.377
40235W        W12660   9.965   7.853   3.732
40236W        W12661  29.405   0.884   3.751
40237W        W12662  37.551  22.774   1.864
40238W        W12663  13.654   3.808  13.972
40239W        W12664   3.704  10.451  14.524
40240W        W12665  29.007  36.641   0.828
40241W        W12666  37.682  26.965   0.797
40242W        W12667  44.390  20.555   4.698
40243W        W12668  36.215   5.499   4.660
40244W        W12669   1.892   5.589   3.291
40245W        W12670  14.639  15.714   4.586
40246W        W12671  25.693  38.408   2.644
40247W        W12672  28.630  33.941  14.089
40248W        W12673  41.594   6.650   2.784
40249W        W12674  17.587  39.795  12.479
40250W        W12675  37.487  13.784  10.507
40251W        W12676  43.271  32.679  13.367
40252W        W12677  11.155   5.969   2.150
40253W        W12678  28.590  33.389   1.356
40254W        W12679   4.016  30.124  11.532
40255W        W12680  22.029  44.196  14.305
40256W        W12681  41.507  18.606   4.245
40257W        W12682  34.259  18.105   3.691
40258W        W12683  43.425   0.011   1.367
40259W        W12684   5.750  20.311  13.038
40260W        W12685   0.753   5.885  11.565
40261W        W12686  14.758  11.446   2.076
40262W        W12687   7.967  34.847   0.403
40263W        W12688   7.106   2.930   1.842
40264W        W12689  42.387  21.992  11.532
40265W        W12690  33.174  18.804   1.714
40266W        W12691  22.813  21.093   4.127
40267W        W12692  27.571   2.888   4.080
40268W        W12693  24.618   5.663   3.271
40269W        W12694  44.810  19.774   3.431
40270W        W12695  17.502  28.577  12.394
40271W        W12696  40.005  32.576  11.579
40272W        W12697  25.572   6.174  10.729
40273W        W12698  10.082  20.731  12.886
40274W        W12699  33.810   4.709  10.301
40275W        W12700  21.285  41.746   0.841
40276W        W12701   9.180   0.725  11.868
40277W        W12702  13.507   3.514  11.665
40278W        W12703   5.794  20.135   4.125
40279W        W12704  28.058  13.010   2.717
40280W        W12705  40.704  23.026  11.170
40281W        W12706  26.739  22.065  13.979
40282W        W12707  25.470  12.797  13.432
40283W        W12708   9.882   6.778   4.761
40284W        W12709  17.207  10.944  14.405
40285W        W12710  29.457  37.409   3.298
40286W        W12711   6.359  38.338   2.511
40287W        W12712  29.906   2.036   0.618
40288W        W12713  15.352  33.478   1.062
40289W        W12714  27.581  15.047  12.789
40290W        W12715  30.530   1.916  12.877
40291W        W12716  34.022  38.113  10.643
40292W        W12717  37.255   5.863  10.305
40293W        W12718  40.234  29.731   3.952
40294W        W12719  19.408  38.985  13.380
40295W        W12720   6.600  12.105  14.441
40296W        W12721  30.539   8.847  12.634
40297W        W12722  24.352   7.160  13.051
40298W        W12723  13.006  17.797  11.191
40299W        W12724  30.047  13.628   4.249
40300W        W12725  42.308  33.071  13.322
40301W        W12726  43.445  11.199   2.080
40302W        W12727  25.667  18.489   4.608
40303W        W12728  42.365  29.007  13.824
40304W        W12729   2.309  32.270   3.640
40305W        W12730  14.277  33.109  13.000
40306W        W12731  36.610  17.050  12.878
40307W        W12732  18.228  17.689  11.579
40308W        W12733  20.006  25.892   3.171
40309W        W12734  18.235  36.814  12.019
40310W        W12735  39.483  31.883   0.698
40311W        W12736   3.439   5.028  13.848
40312W        W12737  32.369   0.791  10.159
40313W        W12738   9.979  20.318   2.488
40314W        W12739  44.828  27.426  13.876
40315W        W12740  32.180  31.207   3.784
40316W        W12741  35.851  27.694   4.472
40317W        W12742   1.410  40.435   1.375
40318W        W12743  21.238  41.444  12.533
40319W        W12744  27.968  41.108  12.556
40320W        W12745  35.400  28.950  12.483
40321W        W12746  33.617  28.893  11.183
40322W        W12747   2.837  30.903   0.666
40323W        W12748  33.928  12.634   4.310
40324W        W12749   9.441  24.418   4.712
40325W        W12750   1.862  34.591   2.570
40326W        W12751   2.149   4.464  14.601
40327W        W12752  15.819  16.669  14.924
40328W        W12753  42.499  21.305  10.214
40329W        W12754  18.946  21.074   3.571
40330W        W12755  40.914  32.107   0.299
40331W        W12756  35.812  44.429   1.255
40332W        W12757   4.360  39.414  14.068
40333W        W12758  42.226   1.911  13.862
40334W        W12759   4.694  26.742  10.164
40335W        W12760  38.868   8.731  12.081
40336W        W12761  15.843  22.010   1.396
40337W        W12762  14.693  19.704   3.715
40338W        W12763  34.557   9.673  11.634
40339W        W12764  10.189  22.317  11.944
40340W        W12765  35.121  10.439   4.136
40341W        W12766  29.890  42.842   2.302
40342W        W12767   7.158  20.121  11.682
40343W        W12768  10.419   4.728  13.511
40344W        W12769  18.150  33.731   5.060
40345W        W12770  13.164  34.834  11.210
40346W        W12771  21.075  13.278  13.825
40347W        W12772  30.674   9.770   4.857
40348W        W12773   9.300  21.801  12.907
40349W        W12774   1.166   2.677   3.836
40350W        W12775  39.512   6.376  10.678
40351W        W12776  28.074  12.823  13.062
40352W        W12777   5.726  35.871  13.800
40353W        W12778   8.063  22.737  12.536
40354W        W12779  37.329  36.452   0.316
40355W        W12780  44.492   1.577  12.683
40356W        W12781  33.450  20.407  12.652
40357W        W12782  32.048  32.526   5.113
40358W        W12783  30.598  16.981  13.505
40359W        W12784  27.147  24.579  13.732
40360W        W12785  23.277  41.426   4.436
40361W        W12786  21.046   0.307   1.891
40362W        W12787  44.323  27.699  11.047
40363W        W12788  43.026   9.703  11.159
40364W        W12789  15.537  14.608   2.412
40365W        W12790  13.584  29.396  11.205
40366W        W12791  18.828  21.636  14.445
40367W        W12792   6.352  25.700   1.161
40368W        W12793  43.144  41.889  14.866
40369W        W12794   6.914   3.408   1.830
40370W        W12795  27.933  30.655  13.468
40371W        W12796  36.695  15.287  11.814
40372W        W12797   7.967  14.076  11.701
40373W        W12798   9.178  16.204   3.893
40374W        W12799   4.909  15.200   0.340
40375W        W12800  25.617  24.933  12.934
40376W        W12801   9.181  17.398   0.727
40377W        W12802   6.653  42.723  11.181
40378W        W12803  29.132  23.190  13.576
40379W        W12804  42.187  44.763   0.524
40380W        W12805  13.023   5.697  12.092
40381W        W12806  22.580   8.855   2.909
40382W        W12807  17.279  33.010   9.936
40383W        W12808   5.098  12.283   4.806
40384W        W12809  34.062  18.057  14.469
40385W        W12810  43.471  24.221   1.444
40386W        W12811  21.292  29.478  12.996
40387W        W12812  29.575  41.858   3.646
40388W        W12813  18.175  15.300   1.912
40389W        W12814  16.680   3.164  14.763
40390W        W12815  10.358   3.792   0.372
40391W        W12816   0.694  15.445  12.858
40392W        W12817  12.732   3.413   4.828
40393W        W12818   5.939  15.023  12.232
40394W        W12819  35.485  19.342   2.444
40395W        W12820  41.769  22.633   9.716
40396W        W12821  31.707  41.820   1.862
40397W        W12822  44.288  13.055  13.514
40398W        W12823   3.360  14.032   3.107
40399W        W12824  35.968  30.830  12.443
40400W        W12825  30.044  20.307   2.689
40401W        W12826   4.055   2.274   3.656
40402W        W12827  21.136  25.893  14.585
40403W        W12828  35.424  28.521   1.845
40404W        W12829  25.531  30.542  10.132
40405W        W12830   0.985  12.179   0.084
40406W        W12831  14.500  32.089   0.044
40407W        W12832  20.548  35.918   1.984
40408W        W12833  40.163  28.834  10.302
40409W        W12834  11.287   8.155  10.646
40410W        W12835  44.301   9.827   4.030
40411W        W12836  17.621   8.935   4.465
40412W        W12837  31.930   2.990  10.610
40413W        W12838   5.829  44.280   2.425
40414W        W12839  40.525  42.865   0.459
40415W        W12840  36.245  14.569   1.492
40416W        W12841   4.000  38.446  14.016
40417W        W12842  44.009  32.981  11.905
40418W        W12843  41.024   2.275   1.138
40419W        W12844   3.702  10.332  10.377
40420W        W12845  16.128   8.158  14.008
40421W        W12846  32.936  16.182  13.861
40422W        W12847  28.935  15.657   1.223
40423W        W12848  41.023  23.912  11.091
40424W        W12849  34.632  40.332  10.777
40425W        W12850   1.204  14.317  14.369
40426W        W12851  39.239  18.643  12.368
40427W        W12852   6.368  12.564   4.018
40428W        W12853   9.095   1.916  10.734
40429W        W12854  27.170  21.496   4.528
40430W        W12855  39.076  29.652  13.158
40431W        W12856  22.675  37.844   2.928
40432W        W12857   5.857   1.367   3.792
40433W        W12858  20.051   7.402   4.525
40434W        W12859   6.204  26.687   1.080
40435W        W12860  27.692   7.849  11.566
40436W        W12861  29.591  20.038  12.461
40437W        W12862  24.786  29.959  14.831
40438W        W12863  33.573  29.710   1.823
40439W        W12864  19.096  34.018   2.685
40440W        W12865   1.843   2.570  11.655
40441W        W12866   5.483  25.960  14.742
40442W        W12867   5.472  26.610   3.688
40443W        W12868  40.570  19.133   2.230
40444W        W12869   3.469  36.324  14.628
40445W        W12870   0.248  42.208   2.853
40446W        W12871   1.555  32.465   4.541
40447W        W12872   2.839  17.862  12.891
40448W        W12873   2.300   9.121  13.550
40449W        W12874   6.357  24.111  14.246
40450W        W12875  12.619  13.282  13.104
40451W        W12876  13.154   6.396  12.484
40452W        W12877  31.330  11.281   1.242
40453W        W12878  36.488  38.426   0.886
40454W        W12879  23.749  29.993   4.119
40455W        W12880  12.265  44.721  14.276
40456W        W12881  14.746  32.566  14.359
40457W        W12882  38.971  23.124   1.353
40458W        W12883  15.407   7.396   3.314
40459W        W12884   2.828  19.690   0.819
40460W        W12885   1.810  27.628   1.864
40461W        W12886  39.560  14.064  13.589
40462W        W12887  43.742   7.792   3.398
40463W        W12888  26.556  29.769   0.357
40464W        W12889  44.157  13.277  14.406
40465W        W12890  24.886  24.148  11.162
40466W        W12891  16.322  27.518  14.510
40467W        W12892  11.055  30.447  12.872
40468W        W12893  21.117   9.533   2.837
40469W        W12894   5.863   8.367  10.753
40470W        W12895   6.205   8.586   3.751
40471W        W12896  29.152   5.192   2.747
40472W        W12897  40.537  13.171  14.246
40473W        W12898  37.538  37.514   4.556
40474W        W12899   9.156  18.100   3.837
40475W        W12900  28.824  24.690   0.873
40476W        W12901  34.428  24.118   0.045
40477W        W12902  31.443  31.397   3.592
40478W        W12903  34.117   6.293  14.652
40479W        W12904  40.690  39.313  11.133
40480W        W12905  25.398  15.028   4.108
40481W        W12906   6.969  44.308   0.338
40482W        W12907  34.435  18.064  11.085
40483W        W12908  30.083  30.429   4.921
40484W        W12909  38.773  11.398   4.236
40485W        W12910  34.542  36.066   3.780
40486W        W12911  27.218   5.389  11.205
40487W        W12912  34.193  40.535   2.559
40488W        W12913  25.402  29.111  14.756
40489W        W12914  26.676  39.144  12.566
40490W        W12915  36.305  28.397  12.386
40491W        W12916  30.483  33.425   3.618
40492W        W12917  27.511  32.044   3.310
40493W        W12918  34.038   2.990  14.341
40494W        W12919  10.673  22.997   3.676
40495W        W12920   4.879  24.532  11.708
40496W        W12921   6.465  21.676  11.994
40497W        W12922  11.409  33.422  12.090
40498W        W12923  19.717  11.356   5.284
40499W        W12924  43.084   5.145   0.353
40500W        W12925  28.575   8.938  14.795
40501W        W12926  18.496   7.462  11.256
40502W        W12927  22.370  13.250  10.180
40503W        W12928  40.603  35.930   3.636
40504W        W12929  21.590  32.873   1.920
40505W        W12930  33.543  43.727   3.230
40506W        W12931  33.837  33.940   0.454
40507W        W12932  35.695  38.770   1.905
40508W        W12933  13.642   2.330   0.284
40509W        W12934   7.566   3.911   0.212
40510W        W12935   1.698  21.672   4.205
40511W        W12936  16.811   0.459   0.371
40512W        W12937  13.222  16.114  10.526
40513W        W12938   2.238   1.516   1.759
40514W        W12939   9.169  26.248   1.788
40515W        W12940   0.396   6.065  14.911
40516W        W12941  34.581  21.702  12.597
40517W        W12942  31.573  37.709  12.900
40518W        W12943  44.056  31.131  13.041
40519W        W12944  25.121  32.115  13.490
40520W        W12945  16.742  44.837   0.905
40521W        W12946  39.106  16.959  14.525
40522W        W12947  43.480   4.218   0.108
40523W        W12948  20.059  40.375   4.585
40524W        W12949   6.351  38.360   3.821
40525W        W12950  37.369   6.998  12.550
40526W        W12951  42.369  25.709  12.651
40527W        W12952  31.227  17.041  12.836
40528W        W12953  42.388  18.039   4.646
40529W        W12954  37.203  30.876  13.401
40530W        W12955  19.063  15.877  11.510
40531W        W12956  25.041   8.255  14.244
40532W        W12957  20.119  16.321   4.136
40533W        W12958   4.415  35.464   4.827
40534W        W12959  33.970  13.461  12.143
40535W        W12960  41.501  23.590   4.554
40536W        W12961  35.055   2.317  11.341
40537W        W12962  12.572  35.613   1.346
40538W        W12963  10.313  24.645  12.484
40539W        W12964  19.355  32.690  14.319
40540W        W12965   5.412  31.039  12.726
40541W        W12966   9.407   0.831  10.378
40542W        W12967  28.123  15.635   0.081
40543W        W12968  18.086   8.143   3.239
40544W        W12969  40.692   8.309  13.033
40545W        W12970  28.048   0.320  14.864
40546W        W12971  33.493  21.647  11.574
40547W        W12972  42.464  29.504  13.792
40548W        W12973  17.647  16.857   1.909
40549W        W12974  13.803  30.371  14.315
40550W        W12975  22.100  41.259  11.068
40551W        W12976  38.124   9.365   0.868
40552W        W12977   6.364  38.837   1.715
40553W        W12978  21.183  16.220   1.485
40554W        W12979   3.265  36.864  14.491
40555W        W12980  44.163  42.822   3.353
40556W        W12981  34.907  29.430  13.134
40557W        W12982  13.143  11.894  13.837
40558W        W12983  24.742  21.969   3.788
40559W        W12984  25.453  34.302  13.127
40560W        W12985   4.650  20.182  12.021
40561W        W12986  39.468  36.501  10.758
40562W        W12987   5.186   6.427  12.058
40563W        W12988  36.235   4.759  13.418
40564W        W12989  19.661  43.526   0.411
40565W        W12990  23.099  37.378   0.582
40566W        W12991  16.240  20.518   3.074
40567W        W12992   5.982  16.017  11.896
40568W        W12993  13.267  18.312  13.153
40569W        W12994   7.842  23.650  11.441
40570W        W12995  26.917  20.137  11.009
40571W        W12996   8.891  42.850  11.484
40572W        W12997  41.095  32.889  11.046
40573W        W12998  24.114   1.211   1.731
40574W        W12999  32.637  43.904  11.151
40575W        W13000  24.719   1.473  10.619
40576W        W13001  40.824   2.037   3.224
40577W        W13002   8.698  35.040   3.779
40578W        W13003   8.009   9.691   2.339
40579W        W13004  38.923  44.986  11.626
40580W        W13005  32.507   5.831  14.049
40581W        W13006  17.612  20.699  14.360
40582W        W13007  23.057   6.879   0.367
40583W        W13008  23.345   0.375   2.285
40584W        W13009   6.561   1.767  12.117
40585W        W13010  35.060  36.611   0.859
40586W        W13011  39.077  11.900  13.346
40587W        W13012  11.519  23.813   5.100
40588W        W13013  41.287  18.751  11.575
40589W        W13014  15.813   4.072  11.909
40590W        W13015  35.964  30.416   4.700
40591W        W13016  29.023   6.389  11.518
40592W        W13017   6.828   6.433  13.723
40593W        W13018  30.650   3.440  11.085
40594W        W13019   0.348  20.290  13.095
40595W        W13020  23.601  33.374   0.206
40596W        W13021  14.671  44.480  14.324
40597W        W13022  30.954  42.259   2.468
40598W        W13023  28.949  37.463   1.904
40599W        W13024  34.583  43.821  13.825
40600W        W13025  26.421  11.118  13.582
40601W        W13026  37.192  30.178  13.888
40602W        W13027  43.289   7.457  12.474
40603W        W13028  44.546   2.821  13.478
40604W        W13029  33.992  18.540   3.644
40605W        W13030   4.267  10.775   2.286
40606W        W13031  34.526   9.301  13.616
40607W        W13032  22.943  28.393   1.364
40608W        W13033   3.209   8.634  11.064
40609W        W13034   5.473  27.124   3.686
40610W        W13035  15.278   2.432  11.160
40611W        W13036  44.465  30.009   2.632
40612W        W13037  12.566  41.846  14.703
40613W        W13038  29.893   7.648   4.812
40614W        W13039  16.589  28.013   2.169
40615W        W13040  25.871  42.562   2.272
40616W        W13041  15.277  18.697  11.873
40617W        W13042  31.128  19.386  12.410
40618W        W13043  24.577  17.757   4.523
40619W        W13044   8.244  40.818  14.973
40620W        W13045  43.914  44.585  14.767
40621W        W13046   2.634  26.083   3.699
40622W        W13047  19.705   6.435  13.055
40623W        W13048  40.522  32.235  10.700
40624W        W13049  41.743  23.834  11.556
40625W        W13050  25.189   7.083  12.548
40626W        W13051  41.264  32.570  12.900
40627W        W13052  23.174  43.387  12.231
40628W        W13053   7.593  29.848   5.177
40629W        W13054   3.439  25.995  13.582
40630W        W13055  37.696   0.444  14.770
40631W        W13056  16.264  14.050   2.615
40632W        W13057  38.375  32.132   4.330
40633W        W13058  39.873  15.273   3.414
40634W        W13059  16.936  38.533   1.023
40635W        W13060  32.576  30.999   4.651
40636W        W13061  42.751  16.621   1.807
40637W        W13062  26.686   2.989   0.290
40638W        W13063  20.560  30.090  11.004
40639W        W13064  34.452   3.040  10.738
40640W        W13065   8.849  42.116   2.259
40641W        W13066  15.667  24.274   2.256
40642W        W13067  11.908   0.896   0.070
40643W        W13068  41.039   3.120   0.562
40644W        W13069  24.071  37.853   3.023
40645W        W13070  21.498  40.460  13.424
40646W        W13071  28.395   3.867   2.410
40647W        W13072   7.814  32.589   4.585
40648W        W13073   2.249  33.043  11.519
40649W        W13074  31.910  32.374   2.243
40650W        W13075  13.338  13.749   1.708
40651W        W13076  12.223  11.667  11.618
40652W        W13077  44.166  28.824   4.130
40653W        W13078   4.962  33.407  11.181
40654W        W13079   1.168  44.966  11.192
40655W        W13080  30.193  34.863   3.989
40656W        W13081  44.305   9.743  12.184
40657W        W13082  33.402  33.621  11.132
40658W        W13083  30.497  21.599   0.954
40659W        W13084  41.943  41.239  12.511
40660W        W13085  30.406  30.350   2.918
40661W        W13086  39.891  21.221  12.242
40662W        W13087   0.854   8.487  10.880
40663W        W13088  13.057  19.481   2.170
40664W        W13089  43.428   5.293  14.967
40665W        W13090  33.918   7.842  12.920
40666W        W13091  10.397  23.807  12.622
40667W        W13092  29.419  29.038   4.022
40668W        W13093  26.279  28.028  13.805
40669W        W13094  43.521  12.361  14.022
40670W        W13095  23.773   1.359  12.588
40671W        W13096   0.108  35.939  11.353
40672W        W13097  40.463   4.806   0.218
40673W        W13098   9.331  20.578   2.386
40674W        W13099  23.359  38.379   0.091
40675W        W13100  29.320  10.131   2.224
40676W        W13101  42.448  42.313   3.789
40677W        W13102  19.477  15.980   3.606
40678W        W13103  17.176  43.732   1.696
40679W        W13104  43.767  17.787   3.447
40680W        W13105  14.158  26.806   0.919
40681W        W13106  28.493  39.970   4.149
40682W        W13107  42.861  43.912  13.464
40683W        W13108  37.987  17.586  11.141
40684W        W13109  44.924  22.756   0.817
40685W        W13110  10.815  34.859   0.552
40686W        W13111  16.365  16.864  11.916
40687W        W13112  26.970  30.692  10.725
40688W        W13113  15.365   7.425   2.371
40689W        W13114   1.095   5.750   2.189
40690W        W13115  34.081  28.150  12.492
40691W        W13116  23.032  34.931   4.147
40692W        W13117   8.780  44.245   1.516
40693W        W13118   1.907  10.900   3.404
40694W        W13119  30.044  43.484   3.392
40695W        W13120  12.824  12.801  13.067
40696W        W13121  32.602   2.172  12.006
40697W        W13122  16.631  13.562   1.292
40698W        W13123  17.715  43.463  11.052
40699W        W13124  42.967  22.604   1.717
40700W        W13125  24.474  40.928   4.626
40701W        W13126  19.033  31.531  10.818
40702W        W13127  40.564  27.920   2.279
40703W        W13128  28.465   6.144  13.632
40704W        W13129  12.230   9.785   3.167
40705W        W13130   9.816  35.065  13.550
40706W        W13131  43.746  26.962   2.288
40707W        W13132  34.127   9.935   1.804
40708W        W13133  44.945  42.480   2.464
40709W        W13134  14.410   9.478  11.782
40710W        W13135  28.398  35.437   0.420
40711W        W13136  37.153   0.203   3.683
40712W        W13137  14.864   9.621  12.130
40713W        W13138   0.511  42.628   4.176
40714W        W13139   7.398   6.422   2.179
40715W        W13140  17.222  44.558  11.673
40716W        W13141  42.095  11.381   0.971
40717W        W13142   1.269  14.267  13.061
40718W        W13143   7.442  33.464   1.655
40719W        W13144  15.866  18.623  14.119
40720W        W13145  33.735   1.272   1.257
40721W        W13146   1.374   4.018   2.256
40722W        W13147  16.162  20.337  14.292
40723W        W13148  23.118  40.734  12.491
40724W        W13149  17.049   5.886   3.774
40725W        W13150   7.207  15.859  12.548
40726W        W13151  32.900  40.974  13.888
40727W        W13152  14.093  38.399   3.051
40728W        W13153  38.311  40.001   2.800
40729W        W13154  43.571  26.169   1.432
40730W        W13155  31.236  26.108  14.804
40731W        W13156  12.250   6.532  10.515
40732W        W13157  28.571   2.097  14.569
40733W        W13158  15.170  25.088   2.666
40734W        W13159  16.314  21.735  12.128
40735W        W13160  41.417  30.025   3.741
40736W        W13161  25.274  24.150  13.033
40737W        W13162  31.154  32.724  11.580
40738W        W13163  38.533   4.259   2.231
40739W        W13164  41.244   4.481   3.256
40740W        W13165   3.372  17.306   0.702
40741W        W13166  15.190  35.989  13.470
40742W        W13167  37.078  12.807  12.089
40743W        W13168  31.998  33.678   3.877
40744W        W13169   1.879   2.082   4.142
40745W        W13170  44.158  16.817  14.163
40746W        W13171  29.036  35.579   3.742
40747W        W13172  23.468  30.424   5.010
40748W        W13173  37.673   7.292  14.111
40749W        W13174  38.322  11.222  13.034
40750W        W13175  12.078   8.293  12.384
40751W        W13176  13.341  33.944  11.670
40752W        W13177  32.118   7.231   3.586
40753W        W13178  25.445  17.084   4.042
40754W        W13179  42.805  20.679   5.061
40755W        W13180   8.807  29.837  12.880
40756W        W13181  21.998  28.520   0.364
40757W        W13182  23.547   4.970   0.323
40758W        W13183   3.847  27.746  10.382
40759W        W13184  18.685  37.252  11.200
40760W        W13185   7.654  30.870  13.040
40761W        W13186   8.025  37.208  11.544
40762W        W13187   0.263  12.935  13.939
40763W        W13188  40.409  43.054  13.130
40764W        W13189  27.970  25.084   0.562
40765W        W13190  12.414  36.435   0.950
40766W        W13191  41.474  40.953  14.218
40767W        W13192  26.602   8.728   1.478
40768W        W13193   1.873  23.982  11.144
40769W        W13194  35.358   0.270   4.761
40770W        W13195  38.360   5.868   1.679
40771W        W13196   0.505  18.266   0.242
40772W        W13197  44.713   1.228   0.357
40773W        W13198  12.849  34.521   2.204
40774W        W13199  16.732   7.144   1.797
40775W        W13200   7.257  36.651   1.935
40776W        W13201  40.109   9.664  11.149
40777W        W13202   2.657  31.891   3.774
40778W        W13203  36.788  31.623   4.618
40779W        W13204  29.441  23.001   3.980
40780W        W13205   6.613  37.641  10.593
40781W        W13206  28.416  33.411   0.863
40782W        W13207   2.308   0.580   3.706
40783W        W13208  20.805  20.326  12.661
40784W        W13209  38.103  15.704  10.778
40785W        W13210  15.863  13.610   1.664
40786W        W13211  40.935  20.714  11.546
40787W        W13212  15.422  26.802   5.056
40788W        W13213  16.703  33.489   2.613
40789W        W13214  43.586  29.777  10.393
40790W        W13215   7.009  12.676   1.335
40791W        W13216  32.496  37.193  14.870
40792W        W13217  14.621   5.667  12.978
40793W        W13218  35.931  34.583  14.727
40794W        W13219  19.684  33.674  13.462
40795W        W13220  43.791  10.118  13.439
40796W        W13221   8.054  43.964   2.215
40797W        W13222  26.816  35.765   3.598
40798W        W13223  27.960  37.643   3.571
40799W        W13224  41.268  30.859  13.448
40800W        W13225   7.888   4.431  11.455
40801W        W13226  39.601  33.877  14.433
40802W        W13227   9.090   3.353  14.931
40803W        W13228   1.895  10.337   2.267
40804W        W13229   8.440   9.285  13.397
40805W        W13230  26.660  18.644   1.646
40806W        W13231  26.605   3.471   1.396
40807W        W13232  28.552  30.002   3.411
40808W        W13233  18.521  44.332   4.162
40809W        W13234  43.474  33.045   3.775
40810W        W13235  13.866   0.561   4.080
40811W        W13236  27.704  11.286   0.338
40812W        W13237  10.987   2.331  11.458
40813W        W13238  22.118  35.928  14.352
40814W        W13239  38.300  43.050  12.057
40815W        W13240  44.145  18.404   9.898
40816W        W13241  29.605  36.208   0.519
40817W        W13242  24.496  34.631  13.481
40818W        W13243  43.029   1.959  11.930
40819W        W13244   0.782  44.528  14.029
40820W        W13245  15.577  38.051   3.236
40821W        W13246  15.392   4.504  12.722
40822W        W13247   0.803   6.538   1.695
40823W        W13248  17.952  15.250  12.573
40824W        W13249  35.945  30.448   3.640
40825W        W13250  39.546  22.478  10.704
40826W        W13251   8.260  43.863  11.197
40827W        W13252  40.502  40.261  14.949
40828W        W13253  30.722  12.147   2.731
40829W        W13254  39.837   2.617  14.238
40830W        W13255  38.536  22.553  10.626
40831W        W13256  11.929  26.140  13.521
40832W        W13257  13.856  15.855  11.020
40833W        W13258  35.901  20.316   3.382
40834W        W13259  28.654  20.080   0.362
40835W        W13260   1.200  30.660   4.535
40836W        W13261  21.307  13.605  14.432
40837W        W13262   6.139  34.399   2.125
40838W        W13263  37.992  27.406   1.489
40839W        W13264  18.497  23.774  11.472
40840W        W13265   2.410  33.841  14.555
40841W        W13266  31.966   9.902   2.621
40842W        W13267  31.939  27.897  10.643
40843W        W13268  18.993   6.662   1.665
40844W        W13269  22.172  37.523  14.003
40845W        W13270  20.280  13.106   3.501
40846W        W13271  37.744   0.263  12.061
40847W        W13272   1.441   0.694  14.609
40848W        W13273  25.715  21.641   1.425
40849W        W13274   0.707  17.786   2.687
40850W        W13275  19.133   3.588   4.016
40851W        W13276  33.885   0.923  11.550
40852W        W13277   8.836  36.964   0.675
40853W        W13278   1.873  28.365   3.603
40854W        W13279  22.693  10.634  14.217
40855W        W13280  27.101   3.797   4.620
40856W        W13281  15.005   6.878   1.900
40857W        W13282  32.850  43.987  10.677
40858W        W13283   7.307  15.779   3.918
40859W        W13284   5.002  12.655  13.852
40860W        W13285  27.591   9.967   4.189
40861W        W13286  29.755  21.602  12.912
40862W        W13287  30.716   9.701   0.400
40863W        W13288  26.448  43.736   0.154
40864W        W13289  32.455   3.816  10.525
40865W        W13290  33.193  19.086  14.092
40866W        W13291  17.224  24.735   1.696
40867W        W13292  15.496   8.254   1.300
40868W        W13293  11.773  26.119  14.031
40869W        W13294  14.716  17.906   2.894
40870W        W13295   6.908  28.392   3.116
40871W        W13296   5.406  43.065  11.638
40872W        W13297   5.406  26.995  14.395
40873W        W13298  27.123   8.841   1.339
40874W        W13299   9.666  39.651   2.302
40875W        W13300  24.705  36.817  13.195
40876W        W13301  42.580  10.087  11.200
40877W        W13302  18.190  31.109  11.026
40878W        W13303  30.800   5.898  12.499
40879W        W13304   1.529  41.520   4.588
40880W        W13305  25.503  44.778   3.395
40881W        W13306  17.059  23.572   4.607
40882W        W13307  16.222  33.922   2.839
40883W        W13308   1.707  24.769  12.881
40884W        W13309  32.860   2.493  11.654
40885W        W13310  19.513  37.513   2.561
40886W        W13311  31.761   6.719   1.463
40887W        W13312  41.566  33.625  10.434
40888W        W13313  33.400  32.845  12.127
40889W        W13314  28.707   2.454   1.245
40890W        W13315  28.378   7.404  13.138
40891W        W13316  11.158  11.495   1.181
40892W        W13317   4.393  19.480   3.366
40893W        W13318  15.695  35.878   0.202
40894W        W13319   9.782  27.094  10.923
40895W        W13320  17.841  22.498  11.350
40896W        W13321   8.501  12.215  10.472
40897W        W13322  30.750  31.550  12.583
40898W        W13323  29.193  15.560  13.419
40899W        W13324  22.725   0.183   3.423
40900W        W13325  16.066  36.536  14.766
40901W        W13326  40.731  11.244   3.316
40902W        W13327  28.055  11.294  12.073
40903W        W13328  43.051  32.762  12.016
40904W        W13329  21.139  30.630  12.579
40905W        W13330  24.601  39.618   3.210
40906W        W13331   1.549  12.569   2.275
40907W        W13332  14.703   2.210  11.453
40908W        W13333  13.789   2.982   1.785
40909W        W13334  20.775  31.013  13.443
40910W        W13335   3.313  43.760  11.843
40911W        W13336  37.779   4.288   3.849
40912W        W13337  43.320  10.178  14.489
40913W        W13338  35.014  17.102   3.215
40914W        W13339  15.864   3.190   3.340
40915W        W13340  28.060  38.421   1.014
40916W        W13341  12.341   0.014  13.373
40917W        W13342   4.104   8.723  13.486
40918W        W13343   4.352  36.990  10.648
40919W        W13344  20.242  14.552   3.618
40920W        W13345  34.669  44.606  13.505
40921W        W13346  21.994  33.640  12.633
40922W        W13347   4.207  36.597   2.268
40923W        W13348  44.530  24.979   1.166
40924W        W13349  15.623  37.758   1.478
40925W        W13350  23.726  42.859   4.984
40926W        W13351   1.001  23.209   0.198
40927W        W13352  40.235  37.832  11.507
40928W        W13353  32.478  13.434   2.901
40929W        W13354   3.984   9.503   2.425
40930W        W13355   9.732  44.789   4.138
40931W        W13356  30.814  13.721  12.427
40932W        W13357  15.759  10.874   0.285
40933W        W13358  37.792  16.849   1.927
40934W        W13359  32.459  24.006   1.480
40935W        W13360   1.533  31.961  14.505
40936W        W13361   9.782  15.513   1.928
40937W        W13362  32.179  37.013  11.492
40938W        W13363  10.134  41.985   1.379
40939W        W13364   7.887  28.958  13.754
40940W        W13365   1.387  37.879  11.904
40941W        W13366  32.162  41.018   1.876
40942W        W13367  12.872  40.811   2.419
40943W        W13368  40.140  15.670  11.300
40944W        W13369  15.861  10.702  11.058
40945W        W13370  14.731   1.933  12.985
40946W        W13371  33.310  33.031   1.475
40947W        W13372  13.115   6.327   0.254
40948W        W13373  43.804  25.897  14.040
40949W        W13374   2.200   8.244  13.105
40950W        W13375  18.231  32.482  12.036
40951W        W13376  31.419  23.526   3.380
40952W        W13377  36.210   1.618   2.979
40953W        W13378  22.298  13.800  11.134
40954W        W13379  15.337  25.128  14.362
40955W        W13380  11.788   7.009  12.215
40956W        W13381  17.707  27.571   2.692
40957W        W13382   7.117   9.344  13.047
40958W        W13383   7.473  31.595  13.792
40959W        W13384   9.731   7.901   4.674
40960W        W13385   4.567  17.674   3.185
40961W        W13386  35.585  43.404   0.771
40962W        W13387   0.005  43.832  11.872
40963W        W13388  18.086  35.643  14.475
40964W        W13389   5.285  14.141   0.871
40965W        W13390  22.905  24.714   1.593
40966W        W13391   5.363  30.345  10.684
40967W        W13392   0.568  32.895   0.377
40968W        W13393   6.685  33.957  10.609
40969W        W13394  27.648  35.911   4.776
40970W        W13395  26.267  22.802  12.286
40971W        W13396   7.706  20.080  14.375
40972W        W13397  44.543   6.387  14.373
40973W        W13398  29.906  38.937  13.451
40974W        W13399   6.193  25.615   4.402
40975W        W13400  25.717  22.633   1.956
40976W        W13401  10.678  26.111  14.924
40977W        W13402  30.591  29.662  10.950
40978W        W13403  20.642  24.461   0.055
40979W        W13404   3.969   1.369   1.353
40980W        W13405  24.956  35.907  12.449
40981W        W13406  44.022   9.545   3.019
40982W        W13407  27.433   7.096  11.999
40983W        W13408  40.740  28.610  13.387
40984W        W13409  21.035   0.955   4.708
40985W        W13410  43.388   2.087   1.449
40986W        W13411  30.583  29.044  10.675
40987W        W13412   5.960  44.056   4.495
40988W        W13413   0.991  24.681   1.836
40989W        W13414   2.467  28.165  12.163
40990W        W13415  28.021  36.612   4.451
40991W        W13416  27.602  31.571   0.825
40992W        W13417  38.301  37.481   1.370
40993W        W13418  10.346   8.394   3.171
40994W        W13419  24.185  19.730  13.647
40995W        W13420   0.456  17.751   0.435
40996W        W13421  35.449  23.689   4.857
40997W        W13422   3.380  34.898  11.068
40998W        W13423  28.729  37.804   0.893
40999W        W13424  21.211  20.286  14.421
41000W        W13425  43.331  26.978  12.060
41001W        W13426   0.017  24.964   3.391
41002W        W13427  22.840   7.371   0.391
41003W        W13428   7.689  31.548   2.817
41004W        W13429  29.351  31.653  11.131
41005W        W13430  14.078  10.604  13.342
41006W        W13431  15.164   0.010   1.812
41007W        W13432  31.124   9.048  11.200
41008W        W13433  21.224  41.849  11.095
41009W        W13434  29.700   7.402  12.581
41010W        W13435  27.050  42.412  12.056
41011W        W13436   9.524  30.996   0.466
41012W        W13437  35.051  32.483  14.596
41013W        W13438   0.306  42.705   2.771
41014W        W13439  27.274  26.017   3.978
41015W        W13440   0.666  39.304  14.404
41016W        W13441  14.671  41.305   3.112
41017W        W13442  42.302   3.472   4.201
41018W        W13443   3.751   4.744   2.227
41019W        W13444  44.214  21.638  14.491
41020W        W13445  23.188  10.011   2.256
41021W        W13446  26.574  40.747  13.815
41022W        W13447  10.757   4.600   0.328
41023W        W13448  23.693  12.072  13.094
41024W        W13449  42.439   6.440  14.498
41025W        W13450  31.734  24.402   3.167
41026W        W13451  29.126  22.019  14.867
41027W        W13452   0.778  21.236  10.185
41028W        W13453  30.055  15.050  14.984
41029W        W13454  16.278  25.778  11.227
41030W        W13455  19.473  34.525  13.034
41031W        W13456  38.958  31.900   1.961
41032W        W13457  40.319   0.988   1.431
41033W        W13458  30.931   0.214   3.795
41034W        W13459   4.688  18.073   0.100
41035W        W13460  23.973  31.953  12.004
41036W        W13461  26.935  44.752  13.967
41037W        W13462  39.996  28.690   3.135
41038W        W13463  44.187  37.827   3.403
41039W        W13464  31.815  24.889  12.550
41040W        W13465  24.172  15.215   0.789
41041W        W13466  41.015  11.718   4.231
41042W        W13467   0.393  26.615  11.675
41043W        W13468  23.912  20.695  14.820
41044W        W13469  14.575  44.059  10.484
41045W        W13470  42.018   5.953  13.848
41046W        W13471   6.277  25.662  13.345
41047W        W13472  20.827   8.465  12.097
41048W        W13473   0.804  17.901   3.725
41049W        W13474   5.814   0.248   3.077
41050W        W13475  33.548  15.846  11.962
41051W        W13476  18.056  19.802   2.452
41052W        W13477  42.811  18.020   0.822
41053W        W13478  28.638  23.354  11.047
41054W        W13479  41.470  10.726   2.725
41055W        W13480  12.408  19.189   0.952
41056W        W13481   7.265  11.832  14.374
41057W        W13482  27.102  42.819   1.836
41058W        W13483  21.977  44.862   0.679
41059W        W13484  12.049  12.134   2.118
41060W        W13485  32.993   3.245  13.548
41061W        W13486  31.497  32.212   1.447
41062W        W13487  37.891   8.866  10.204
41063W        W13488  13.593   5.894  11.638
41064W        W13489  44.398   3.931   3.143
41065W        W13490  43.378  40.977  12.498
41066W        W13491  31.526   9.669   2.559
41067W        W13492  12.286  37.359   0.686
41068W        W13493   9.641  37.161   0.035
41069W        W13494  16.592   6.243  11.671
41070W        W13495  43.179  14.825   3.787
41071W        W13496  37.001  14.664  12.424
41072W        W13497  15.102  30.119  10.559
41073W        W13498  14.349   6.096  12.090
41074W        W13499  24.651  29.552   0.270
41075W        W13500  44.433  15.770  10.119
41076W        W13501  16.607  42.906  11.566
41077W        W13502  23.070  34.410   2.872
41078W        W13503   4.573   1.424  13.780
41079W        W13504  16.518  39.383   0.897
41080W        W13505  28.456  39.515   1.777
41081W        W13506   8.162  13.096   3.815
41082W        W13507  14.630  30.115  14.750
41083W        W13508  22.441  26.613  12.900
41084W        W13509  32.792   8.187   0.856
41085W        W13510  17.356  30.525   2.673
41086W        W13511  17.104  34.874  13.532
41087W        W13512  12.566  26.453   4.784
41088W        W13513  20.225  11.346   1.964
41089W        W13514  40.326   6.729  11.685
41090W        W13515  25.620  32.699   9.707
41091W        W13516  25.251  31.715  12.374
41092W        W13517   7.525  22.069   0.983
41093W        W13518  27.073  16.724   2.235
41094W        W13519  30.613  35.807   2.104
41095W        W13520  38.536   0.374  11.652
41096W        W13521  31.489  44.807   0.405
41097W        W13522  15.733  28.217   4.873
41098W        W13523  43.370   2.368   2.357
41099W        W13524  21.811  27.136   2.256
41100W        W13525  44.583  28.933  14.323
41101W        W13526  23.692  21.541   0.393
41102W        W13527  17.427  25.172   4.492
41103W        W13528   1.251  23.640  13.817
41104W        W13529  37.059  30.621  10.541
41105W        W13530  37.907  32.437  14.995
41106W        W13531   4.300  22.512   2.170
41107W        W13532  26.593  33.629  12.308
41108W        W13533  40.353   5.450   3.038
41109W        W13534  22.788  38.446  12.902
41110W        W13535  27.395   0.256   1.260
41111W        W13536  17.439  10.591   3.596
41112W        W13537  12.257  41.271  13.451
41113W        W13538  19.104  27.958   2.708
41114W        W13539   4.928   9.125   3.730
41115W        W13540  16.854  21.045   4.489
41116W        W13541  38.345  41.259   1.300
41117W        W13542   9.241  33.312  11.122
41118W        W13543   7.483  10.168  11.195
41119W        W13544   0.657  21.712   4.267
41120W        W13545  14.748   1.909  12.059
41121W        W13546  17.652  35.653   2.501
41122W        W13547   2.775  18.599   0.752
41123W        W13548  21.650  14.476  13.265
41124W        W13549  26.708  27.934  11.529
41125W        W13550   8.065  20.918  13.886
41126W        W13551  22.364   4.433  10.561
41127W        W13552  33.005  15.640  13.788
41128W        W13553  34.385   1.324   2.897
41129W        W13554  17.028  32.829   2.368
41130W        W13555  38.532  25.619  10.766
41131W        W13556  16.111  32.414  11.917
41132W        W13557  39.609  40.853  13.424
41133W        W13558  40.293   2.750   2.404
41134W        W13559  34.270  35.489   4.560
41135W        W13560  39.473   0.676   4.082
41136W        W13561  32.261  32.520   2.703
41137W        W13562  40.237   7.362  10.844
41138W        W13563  19.264   0.699   2.444
41139W        W13564  18.717  42.103   4.091
41140W        W13565  21.155  11.474  10.810
41141W        W13566  13.205  13.998   4.596
41142W        W13567  20.237   1.436  14.773
41143W        W13568  28.890  10.806  12.223
41144W        W13569  14.825  34.641  13.933
41145W        W13570  14.810  31.523   2.654
41146W        W13571  17.158  14.287  14.043
41147W        W13572  12.681  32.354   0.243
41148W        W13573  13.249   6.266  14.698
41149W        W13574   9.909  25.737   2.747
41150W        W13575  20.871  17.238  13.058
41151W        W13576  34.199  33.167   2.417
41152W        W13577  11.776  24.169  12.423
41153W        W13578  30.911  31.667   0.939
41154W        W13579   4.188   6.216  11.867
41155W        W13580  26.199   1.324   1.669
41156W        W13581  31.697   4.840  11.183
41157W        W13582  42.330  23.153  10.148
41158W        W13583  37.362   5.679   2.790
41159W        W13584  29.180  42.394  12.580
41160W        W13585  13.412  23.526  11.704
41161W        W13586   9.140  11.721  13.975
41162W        W13587  29.501  42.821  11.695
41163W        W13588  19.004  17.666   1.287
41164W        W13589   0.979  24.330   4.602
41165W        W13590   3.969  42.336  13.479
41166W        W13591  43.808  39.827   4.611
41167W        W13592  43.109   3.576  14.484
41168W        W13593  37.961   0.749  12.038
41169W        W13594   2.703  23.464   4.069
41170W        W13595  23.591   4.474  12.614
41171W        W13596   5.396  30.865   3.202
41172W        W13597  18.950  23.718   1.338
41173W        W13598  37.022  22.677  13.845
41174W        W13599  39.363  20.734   0.370
41175W        W13600  20.210   2.436   1.296
41176W        W13601   5.010  18.129   4.440
41177W        W13602  13.735  20.635  11.956
41178W        W13603  23.235   1.913   0.310
41179W        W13604  12.618  25.000  14.272
41180W        W13605  30.953  37.319  10.764
41181W        W13606  22.187  21.666  14.302
41182W        W13607  44.551  27.208  12.583
41183W        W13608   6.781  17.184  12.395
41184W        W13609   1.246  24.381   1.490
41185W        W13610  35.601  27.157  11.614
41186W        W13611  17.619  31.702  10.696
41187W        W13612  39.802  34.542   0.363
41188W        W13613  32.989   2.954   0.962
41189W        W13614  10.176  41.919  14.548
41190W        W13615  12.625  21.918   9.856
41191W        W13616  17.091  24.989  11.068
41192W        W13617  15.801  15.558  11.951
41193W        W13618  30.877  37.582   3.256
41194W        W13619  34.748  19.637   2.928
41195W        W13620   1.755  30.349   1.393
41196W        W13621  19.296  22.415   2.264
41197W        W13622  24.966  42.048  11.121
41198W        W13623  33.724  18.206   1.462
41199W        W13624   8.625  42.210   1.164
41200W        W13625  22.024  20.746  14.756
41201W        W13626  13.608  40.195   4.088
41202W        W13627  43.928  21.583   2.872
41203W        W13628   8.644  14.131  10.841
41204W        W13629  12.018  31.113  13.358
41205W        W13630   1.513   1.158  14.450
41206W        W13631  31.022  40.402   9.854
41207W        W13632  36.026  36.499  13.767
41208W        W13633  28.095  16.143  10.583
41209W        W13634  38.111  17.132  14.311
41210W        W13635  28.955  21.704  13.578
41211W        W13636  42.753  22.754   5.034
41212W        W13637   8.151   1.708   2.422
41213W        W13638  39.066  22.217  10.799
41214W        W13639   4.018  13.641   1.852
41215W        W13640  41.267   4.896   0.547
41216W        W13641  38.874   4.651  10.303
41217W        W13642   7.779  38.012   4.437
41218W        W13643  38.975  22.384  14.893
41219W        W13644  17.729  41.117   3.596
41220W        W13645   1.813  17.541   4.751
41221W        W13646  40.029  31.387  13.022
41222W        W13647  41.318   5.873  13.121
41223W        W13648  25.467  10.170  14.905
41224W        W13649   6.760   2.217   0.423
41225W        W13650  23.615  40.831   1.718
41226W        W13651  31.221  39.044  13.831
41227W        W13652  43.607  20.216   2.172
41228W        W13653  20.735  29.100   3.183
41229W        W13654  35.504   3.180   0.743
41230W        W13655   8.532  41.771   1.400
41231W        W13656   9.092  20.171   2.694
41232W        W13657  29.373  34.942  11.327
41233W        W13658  29.016   5.239   2.249
41234W        W13659   8.111   3.193   3.693
41235W        W13660  34.912  15.651   1.781
41236W        W13661  19.835  43.469   4.160
41237W        W13662  11.320  22.529  11.395
41238W        W13663  18.631  39.876  11.276
41239W        W13664  38.028   4.449   3.419
41240W        W13665   4.301  25.545  13.470
41241W        W13666   9.261   3.781  14.377
41242W        W13667   6.684  43.322   4.563
41243W        W13668  43.850  23.445  11.953
41244W        W13669  24.536  33.356   4.777
41245W        W13670  12.179  24.449  13.784
41246W        W13671  21.255  32.861   1.351
41247W        W13672  13.074  20.702   0.397
41248W        W13673  35.178   3.692   1.401
41249W        W13674  30.534  10.003   1.642
41250W        W13675  31.946  19.564  14.499
41251W        W13676  29.733  14.222  10.373
41252W        W13677  44.290  35.967   3.382
41253W        W13678  26.075  34.888  12.377
41254W        W13679  33.075  42.171   3.665
41255W        W13680  22.543  43.039   0.375
41256W        W13681  11.035  21.837  13.153
41257W        W13682  31.465  32.393   4.317
41258W        W13683   4.545   6.243   2.726
41259W        W13684  26.740  16.760  14.794
41260W        W13685   4.003  26.389  14.925
41261W        W13686  13.305  15.440  11.001
41262W        W13687  41.488  33.994   0.760
41263W        W13688   6.349  36.622   1.634
41264W        W13689  29.180  37.548   0.982
41265W        W13690  20.221  24.159   1.173
41266W        W13691  10.937  14.271  10.775
41267W        W13692  32.125   1.235  13.877
41268W        W13693  41.229  42.847  14.560
41269W        W13694  33.479  17.648  11.555
41270W        W13695   7.738  38.667  12.524
41271W        W13696  34.269  39.817   0.545
41272W        W13697   7.754   3.403   0.282
41273W        W13698  39.339  23.198   3.159
41274W        W13699  39.629  34.517  12.816
41275W        W13700  25.493   7.822  14.860
41276W        W13701  42.998  10.952  13.530
41277W        W13702  44.525  18.992   3.193
41278W        W13703  15.138  10.789   3.557
41279W        W13704   5.712  39.346  10.712
41280W        W13705  22.885   9.633   4.647
41281W        W13706   6.480   1.775   0.537
41282W        W13707  30.746  44.122  14.560
41283W        W13708   7.320  16.958  13.964
41284W        W13709  35.887   5.886  13.012
41285W        W13710   2.438  43.984   3.642
41286W        W13711   9.649  37.580   0.349
41287W        W13712  33.515  12.546  10.767
41288W        W13713  26.480  42.434  13.750
41289W        W13714  28.125  27.756  11.571
41290W        W13715  31.638  40.056   0.331
41291W        W13716  24.760   2.326  13.994
41292W        W13717  33.856  43.032  10.680
41293W        W13718  24.306   3.536  12.090
41294W        W13719   0.295  16.759  10.664
41295W        W13720  16.151  25.168   4.190
41296W        W13721  23.248  11.191   2.240
41297W        W13722  36.876  22.018  11.658
41298W        W13723   5.785  21.790   0.494
41299W        W13724  39.791  24.748   4.022
41300W        W13725  22.887  29.388  12.835
41301W        W13726   4.367  25.666   4.223
41302W        W13727  29.555  44.308   4.662
41303W        W13728  12.664  39.355  13.957
41304W        W13729  34.189  42.998  12.472
41305W        W13730  10.870  18.522   4.567
41306W        W13731  35.817  34.104   1.328
41307W        W13732  25.156  19.480   4.252
41308W        W13733   3.432  20.841   5.048
41309W        W13734  15.330  28.539  14.697
41310W        W13735  29.892  42.497   1.040
41311W        W13736  41.075   6.378   4.196
41312W        W13737  26.646   7.403   4.300
41313W        W13738  34.391  30.483   0.704
41314W        W13739  35.313   2.321   3.728
41315W        W13740   0.852  11.880  11.603
41316W        W13741  25.740   1.918   0.372
41317W        W13742  37.291   0.451  14.462
41318W        W13743  12.361  32.681  12.402
41319W        W13744   5.981  40.944   2.665
41320W        W13745  35.065  39.965  14.369
41321W        W13746  35.365  34.912  11.740
41322W        W13747  11.411  24.672  13.434
41323W        W13748  32.699   3.748  11.876
41324W        W13749   2.853   1.484   1.578
41325W        W13750  12.334   1.807   4.976
41326W        W13751  15.594  20.521  12.160
41327W        W13752  35.408  11.698   4.143
41328W        W13753   1.794  42.880   4.892
41329W        W13754  19.306  33.862   4.342
41330W        W13755  35.800  20.826   4.167
41331W        W13756  40.144  30.888   2.273
41332W        W13757  18.823  39.001   4.560
41333W        W13758  25.240  12.276   4.281
41334W        W13759  17.990  25.200  12.845
41335W        W13760   9.128  11.340  12.926
41336W        W13761  44.737  27.980  11.170
41337W        W13762  27.411  33.854   0.356
41338W        W13763  27.145  33.458  10.504
41339W        W13764  14.616  23.962   3.496
41340W        W13765  24.135  40.753   1.794
41341W        W13766  15.699  14.093   1.792
41342W        W13767  23.932  16.745   2.381
41343W        W13768  11.774  11.651   2.155
41344W        W13769  16.730  11.789  10.847
41345W        W13770   6.394  15.222  13.563
41346W        W13771  34.050  13.369  13.033
41347W        W13772  43.921   6.285   3.828
41348W        W13773  32.170   4.578  13.570
41349W        W13774   7.882  40.840  11.811
41350W        W13775  32.684  14.609  11.512
41351W        W13776  40.273  16.177   4.062
41352W        W13777  41.598  22.161  10.009
41353W        W13778  44.779  40.038  12.347
41354W        W13779  18.103  41.483   3.694
41355W        W13780   0.762  39.905  10.686
41356W        W13781  35.477  11.160   0.268
41357W        W13782  18.700  34.898   3.311
41358W        W13783  44.348  34.991  10.439
41359W        W13784  37.790  40.852  13.758
41360W        W13785  10.749  13.385  13.989
41361W        W13786  10.226  25.694  13.943
41362W        W13787  27.683  32.470   1.949
41363W        W13788  36.353  33.437   2.447
41364W        W13789  17.995  30.109   4.428
41365W        W13790  21.566  35.088   3.180
41366W        W13791  24.510  43.714  11.167
41367W        W13792  38.959  32.035   3.731
41368W        W13793  38.113   6.928  12.400
41369W        W13794  31.333  41.123  10.246
41370W        W13795   3.245  33.172   3.854
41371W        W13796  34.986  22.271  12.109
41372W        W13797   9.534  13.086   1.889
41373W        W13798  29.218  18.198  13.833
41374W        W13799   1.864   7.879  14.284
41375W        W13800   2.820  41.591   4.724
41376W        W13801  10.480   1.026   1.484
41377W        W13802  24.378   7.143   4.117
41378W        W13803  12.380  14.920   0.103
41379W        W13804   9.198  16.663   4.610
41380W        W13805  43.257  13.774  14.594
41381W        W13806  19.695  39.077  12.567
41382W        W13807  14.696   2.379   3.650
41383W        W13808   7.937  34.950   2.816
41384W        W13809   7.805  26.476  12.473
41385W        W13810  12.322  34.043   1.933
41386W        W13811  18.195   7.661   2.962
41387W        W13812  23.532  39.575  13.040
41388W        W13813  39.057  18.118   3.373
41389W        W13814   2.279  31.669  12.101
41390W        W13815   1.856  18.660  14.233
41391W        W13816  44.447  18.551  11.497
41392W        W13817  43.496   6.980  10.767
41393W        W13818  38.992  44.349  10.962
41394W        W13819  15.099  21.591   0.407
41395W        W13820   8.105  16.900  11.986
41396W        W13821  39.023  12.147  13.835
41397W        W13822  32.852  20.252   2.501
41398W        W13823  17.361  22.347   1.265
41399W        W13824  31.238  14.876   1.196
41400W        W13825  11.545   8.375   2.720
41401W        W13826  18.186  21.982   4.063
41402W        W13827  22.826   0.692   3.746
41403W        W13828  20.534  14.614   0.850
41404W        W13829  30.113  32.108   1.288
41405W        W13830  42.549  17.868   1.774
41406W        W13831  14.715  38.624   0.590
41407W        W13832  34.626  30.630  13.852
41408W        W13833  33.669  27.388   1.416
41409W        W13834  36.666   3.165  13.985
41410W        W13835  13.333  38.855   3.293
41411W        W13836  41.464  18.527  13.950
41412W        W13837   2.324  36.685  11.621
41413W        W13838   3.878   6.711  11.062
41414W        W13839  28.490   9.990  13.312
41415W        W13840  13.261  44.834   0.323
41416W        W13841  15.288  37.496   2.747
41417W        W13842  15.715  43.061  14.305
41418W        W13843  17.607   9.852  13.498
41419W        W13844   0.505  35.880   2.850
41420W        W13845  43.984  23.956  13.384
41421W        W13846  36.011  25.869  14.514
41422W        W13847   1.765  39.319  14.452
41423W        W13848  21.179  28.042   0.424
41424W        W13849   2.744  31.841   3.264
41425W        W13850  25.807  22.069   4.337
41426W        W13851  21.717  12.179  13.329
41427W        W13852  35.228  30.324   9.821
41428W        W13853  12.730  13.239   1.288
41429W        W13854  42.040  11.243   0.461
41430W        W13855  43.790  29.580   3.722
41431W        W13856   5.156  26.609  14.119
41432W        W13857  43.797  29.921  11.028
41433W        W13858  32.020  27.591   1.891
41434W        W13859  27.743  20.991  13.327
41435W        W13860   4.224   9.245   0.903
41436W        W13861   3.379  28.425  13.062
41437W        W13862  17.993   0.873   1.812
41438W        W13863  14.077  19.079  14.800
41439W        W13864   3.775  18.904  14.035
41440W        W13865  28.155  22.501   1.126
41441W        W13866  40.047   1.929   3.636
41442W        W13867  19.142   3.999   3.638
41443W        W13868   9.171  39.817   3.953
41444W        W13869  13.098  24.509  14.300
41445W        W13870  21.123  40.769  12.077
41446W        W13871  20.186  18.415  12.466
41447W        W13872  44.781  44.278  14.509
41448W        W13873  21.292  12.187   1.792
41449W        W13874  26.581  17.642  12.955
41450W        W13875  35.868  39.375   2.748
41451W        W13876  30.888   6.696   2.259
41452W        W13877  25.161   0.271   4.092
41453W        W13878  26.961  32.374  14.798
41454W        W13879   7.343   8.305  12.500
41455W        W13880   8.591  37.137   4.037
41456W        W13881  16.180  21.895   0.724
41457W        W13882  31.496  12.784   4.548
41458W        W13883   1.352  20.842   3.695
41459W        W13884  16.867  40.810  12.733
41460W        W13885  14.623  37.748  13.304
41461W        W13886  24.521   1.358   2.007
41462W        W13887  19.884  11.159   1.553
41463W        W13888   3.000  34.510  14.955
41464W        W13889  14.662   1.344  12.451
41465W        W13890  43.300  18.002   4.641
41466W        W13891  14.356  18.637  10.720
41467W        W13892  41.959   8.373  14.379
41468W        W13893  12.797  33.209   2.009
41469W        W13894  34.991  39.347   2.795
41470W        W13895   8.419  13.160  12.398
41471W        W13896  10.365  21.703   0.816
41472W        W13897  43.992  39.324  14.505
41473W        W13898  10.962  31.601  10.569
41474W        W13899   6.971   9.457  11.137
41475W        W13900  40.347  20.041   0.396
41476W        W13901  14.939  29.736   0.030
41477W        W13902  26.928   7.414   1.325
41478W        W13903   4.044  19.499  13.946
41479W        W13904  31.552  21.405  13.397
41480W        W13905  31.482  22.713   0.125
41481W        W13906  28.036  23.618   2.512
41482W        W13907  44.363   9.399  13.410
41483W        W13908  18.841  40.740   1.942
41484W        W13909  23.451  31.134   4.589
41485W        W13910  23.607  44.260   3.196
41486W        W13911  12.902  17.052   1.717
41487W        W13912  42.832  36.291  12.188
41488W        W13913  23.940  20.402   3.733
41489W        W13914  22.741   2.575  13.580
41490W        W13915   0.407  17.792   2.232
41491W        W13916  37.862  18.783   3.315
41492W        W13917  42.868  25.840   1.727
41493W        W13918  29.493   5.041   2.385
41494W        W13919   3.194  28.450   4.732
41495W        W13920  35.434  17.828  14.423
41496W        W13921  28.128  43.519   4.616
41497W        W13922  20.247  25.261  12.869
41498W        W13923  23.914  32.947  12.247
41499W        W13924   0.879  27.656   1.771
41500W        W13925  18.862  38.753  12.059
41501W        W13926   0.113  33.322   3.089
41502W        W13927  18.304  39.311  14.139
41503W        W13928  33.610  12.381   1.420
41504W        W13929   1.142  33.647   9.826
41505W        W13930   5.139  12.029   0.213
41506W        W13931  43.849   5.855   4.139
41507W        W13932  44.958   3.793   4.375
41508W        W13933  31.605  39.019  12.856
41509W        W13934  36.927  19.327   1.125
41510W        W13935  32.000  30.831  14.256
41511W        W13936  38.747   3.746  14.283
41512W        W13937  24.010  13.139   2.752
41513W        W13938  26.292   2.556  13.978
41514W        W13939  12.288  12.849   3.308
41515W        W13940  24.162  17.054   0.386
41516W        W13941   1.815  25.137   2.651
41517W        W13942  40.335  43.726   2.745
41518W        W13943   3.415   6.179   0.732
41519W        W13944  21.721  23.200  13.568
41520W        W13945  35.999  39.302  11.987
41521W        W13946  21.732   8.222   3.664
41522W        W13947  10.853  11.446   4.508
41523W        W13948  12.148  33.675   3.248
41524W        W13949  28.941  12.728   3.601
41525W        W13950  11.419  44.906   0.189
41526W        W13951   8.572  37.107  11.707
41527W        W13952  33.161  35.386   3.444
41528W        W13953   3.780  21.744  13.962
41529W        W13954  32.532   8.625  10.538
41530W        W13955  31.397   5.405   2.287
41531W        W13956  39.329  30.409   3.706
41532W        W13957  20.247  13.919  13.486
41533W        W13958   8.719  15.536   0.787
41534W        W13959  32.654   6.766  13.589
41535W        W13960  14.557  28.046  10.208
41536W        W13961  38.869  21.204   1.275
41537W        W13962  24.468   2.678   2.738
41538W        W13963   6.311  30.042  11.321
41539W        W13964   4.941  12.664   4.203
41540W        W13965  42.546  18.684   3.319
41541W        W13966  40.934  41.768  12.893
41542W        W13967  34.601   9.821   1.016
41543W        W13968  44.744   2.732   4.551
41544W        W13969  32.574  38.629  13.449
41545W        W13970  43.449  40.023   0.831
41546W        W13971   2.018  24.238   0.820
41547W        W13972  36.284  10.612   3.764
41548W        W13973  18.210  29.851  12.698
41549W        W13974  37.464  27.711  10.578
41550W        W13975   7.665  40.246   4.637
41551W        W13976  20.990  17.438  14.574
41552W        W13977  11.563   1.974   4.577
41553W        W13978  12.183  11.669   2.852
41554W        W13979  31.976  41.602   0.608
41555W        W13980  24.146  13.753   0.261
41556W        W13981  29.529  35.070  10.582
41557W        W13982  29.407  29.493  14.382
41558W        W13983  14.404  26.109   2.798
41559W        W13984  30.378   2.468   3.452
41560W        W13985  28.170   4.877  13.491
41561W        W13986  38.833  43.044   1.298
41562W        W13987  39.060  26.907   2.664
41563W        W13988   0.427   2.145   3.339
41564W        W13989  37.586  34.992  14.339
41565W        W13990  35.880  19.683  10.969
41566W        W13991  10.650  24.107   5.128
41567W        W13992  12.932   4.227   3.716
41568W        W13993   1.529  37.008   4.709
41569W        W13994  40.896  10.347  10.624
41570W        W13995  14.409  11.587   1.688
41571W        W13996  25.709   9.364  13.611
41572W        W13997  28.148  24.727   0.222
41573W        W13998  24.107  36.339  10.707
41574W        W13999  12.825  19.295   1.721
41575W        W14000   1.680   1.466   2.905
41576W        W14001  37.106  36.116  14.014
41577W        W14002  19.230  34.947  13.782
41578W        W14003   5.181  29.123  13.323
41579W        W14004  10.821   8.881   2.387
41580W        W14005  18.825   3.431  13.957
41581W        W14006  40.070   5.865  13.950
41582W        W14007  42.438   3.035   3.200
41583W        W14008  35.280  40.523  11.499
41584W        W14009  23.542  26.238   5.096
41585W        W14010  30.689  25.123   4.828
41586W        W14011  36.853   4.817  10.673
41587W        W14012  43.468  44.313  14.724
41588W        W14013   8.411  36.985   2.159
41589W        W14014   5.959  10.958  14.429
41590W        W14015  16.616  38.829  14.805
41591W        W14016  41.037  16.769  13.320
41592W        W14017  15.261  13.084  14.470
41593W        W14018  15.219  30.372   4.165
41594W        W14019  39.060  43.779   4.199
41595W        W14020  44.420  19.330  12.534
41596W        W14021  39.430  39.032   2.586
41597W        W14022   8.889   7.421  10.762
41598W        W14023  42.104  44.481  14.809
41599W        W14024  25.640  25.968  12.335
41600W        W14025  29.973  20.606  11.616
41601W        W14026   4.838  43.522  12.156
41602W        W14027  33.539  20.655  14.958
41603W        W14028  12.340  41.414   3.269
41604W        W14029  33.794  16.762  14.167
41605W        W14030  25.989   6.278  13.081
41606W        W14031  25.284  28.570   2.906
41607W        W14032  17.072   1.839   5.125
41608W        W14033   2.994  15.839  12.389
41609W        W14034  18.749  44.451   0.411
41610W        W14035  20.681  22.160   0.901
41611W        W14036  13.577  10.664  13.471
41612W        W14037   5.067  18.587   1.288
41613W        W14038  14.873   7.696   0.176
41614W        W14039  41.582  36.116   3.476
41615W        W14040  28.527  33.516  12.525
41616W        W14041  34.567   5.178  10.406
41617W        W14042   4.488  34.745   2.081
41618W        W14043  38.211  21.156  10.056
41619W        W14044  32.850  13.661   0.399
41620W        W14045  30.139  17.547   4.238
41621W        W14046  16.609   0.906   2.744
41622W        W14047   9.342  30.987   0.970
41623W        W14048  23.432  41.886   4.258
41624W        W14049   7.931  24.039   3.217
41625W        W14050  32.639  19.021   1.755
41626W        W14051  28.190   0.298   3.720
41627W        W14052  10.699  25.644   0.186
41628W        W14053  30.489  38.593   0.214
41629W        W14054  29.084  11.774   1.279
41630W        W14055  41.853  28.160   1.882
41631W        W14056  27.610  35.878   4.258
41632W        W14057   4.427  19.866   1.035
41633W        W14058   5.116  23.792   0.993
41634W        W14059  20.540  43.857   0.825
41635W        W14060  19.538  34.906   0.825
41636W        W14061  10.212  42.609  12.067
41637W        W14062  27.541  37.277  12.136
41638W        W14063   6.445  31.413   0.311
41639W        W14064  43.235   0.790   0.054
41640W        W14065   1.017   3.858  13.041
41641W        W14066   6.455  20.847   3.456
41642W        W14067  14.839  24.512  10.658
41643W        W14068  17.087  37.827   0.297
41644W        W14069  20.989  41.269  12.106
41645W        W14070  42.346  21.236  14.590
41646W        W14071  16.310  32.544   1.931
41647W        W14072   0.378  29.946   2.606
41648W        W14073   5.304   9.153  14.574
41649W        W14074  44.829  15.166   3.522
41650W        W14075   1.888  16.090   2.818
41651W        W14076  24.976  13.749  13.884
41652W        W14077  15.002   8.924   2.941
41653W        W14078  36.481   7.365   2.268
41654W        W14079  21.629  38.353  10.993
41655W        W14080   7.237   1.250   4.169
41656W        W14081  38.471  21.031   0.557
41657W        W14082  26.120  18.783  14.424
41658W        W14083   9.093  35.328  11.184
41659W        W14084  20.629  10.394  13.097
41660W        W14085  20.421  31.402   4.337
41661W        W14086   2.067  18.955  12.475
41662W        W14087   5.649  10.256  14.975
41663W        W14088  19.165  31.128   3.937
41664W        W14089   5.294  34.694  10.564
41665W        W14090  10.168  43.013  14.309
41666W        W14091   5.906  10.444  14.328
41667W        W14092  37.464  37.089  12.638
41668W        W14093  11.851  28.656  14.552
41669W        W14094  39.873  36.672  13.752
41670W        W14095   0.227  39.339   3.330
41671W        W14096  20.961  36.321  10.705
41672W        W14097  25.732   8.947  13.322
41673W        W14098  38.120   2.317  14.799
41674W        W14099   2.228   6.881  13.268
41675W        W14100   3.068  36.431  13.438
41676W        W14101  20.398  32.895   0.182
41677W        W14102   8.427  22.496   0.218
41678W        W14103  36.056   8.835  11.497
41679W        W14104  30.071  36.801   3.865
41680W        W14105  27.228   6.324  12.131
41681W        W14106  24.159   7.969  12.995
41682W        W14107  18.585  18.624  14.742
41683W        W14108  13.790  39.947   0.251
41684W        W14109  41.333  16.546   0.827
41685W        W14110   6.453  21.929  11.088
41686W        W14111   4.236  41.123   0.428
41687W        W14112  28.650  29.511  11.641
41688W        W14113  26.358   2.330  12.658
41689W        W14114  43.574  20.941   4.125
41690W        W14115  20.188  43.893  13.937
41691W        W14116  11.241  28.745  11.937
41692W        W14117  26.147  21.533   0.509
41693W        W14118  42.335   6.262  13.546
41694W        W14119  16.372  21.316  11.805
41695W        W14120  11.247  39.998   0.139
41696W        W14121  24.845  12.331  11.637
41697W        W14122  26.293   0.265   3.615
41698W        W14123  35.375  17.672  10.723
41699W        W14124  15.286  10.293   3.667
41700W        W14125  21.102   0.008   2.344
41701W        W14126  41.982  30.394   2.645
41702W        W14127   5.691   3.205   0.829
41703W        W14128  25.097  18.495  12.508
41704W        W14129  35.832  12.070  11.992
41705W        W14130  32.905  34.819  14.915
41706W        W14131   1.998  16.370  13.028
41707W        W14132  24.568  44.232  11.137
41708W        W14133  12.697  13.615   3.086
41709W        W14134   9.060  12.189   3.700
41710W        W14135  28.363   1.793  14.925
41711W        W14136   3.013   7.393   2.281
41712W        W14137  23.522  32.855   3.797
41713W        W14138  24.659  24.655   3.410
41714W        W14139  34.077  39.116   0.245
41715W        W14140  39.901   9.330   1.865
41716W        W14141   1.028  33.878  14.910
41717W        W14142  34.518  40.621   2.949
41718W        W14143  19.798  29.557  12.068
41719W        W14144  17.592  16.056   3.625
41720W        W14145  24.266  16.652  13.780
41721W        W14146  30.676  33.342  14.495
41722W        W14147  23.764  33.530  10.626
41723W        W14148   9.710   8.684  14.219
41724W        W14149  37.126   1.991   4.295
41725W        W14150  24.305   1.418   0.709
41726W        W14151  16.300  15.310  11.937
41727W        W14152  29.788  22.620  13.771
41728W        W14153  31.566  40.717   5.618
41729W        W14154   1.293  41.324  12.459
41730W        W14155  14.297  13.116   4.965
41731W        W14156  38.372  32.394  14.305
41732W        W14157  27.738  33.276   1.906
41733W        W14158  37.887  37.068   4.622
41734W        W14159  29.472  39.827   4.093
41735W        W14160  15.652  14.381   0.796
41736W        W14161  44.702   1.836  14.867
41737W        W14162  21.956  41.474  11.542
41738W        W14163  29.708  20.024   0.417
41739W        W14164  30.863   1.829  11.545
41740W        W14165  18.561  21.622   1.338
41741W        W14166  37.419  43.017  10.430
41742W        W14167  11.710  25.184   4.902
41743W        W14168  13.819  19.353   4.662
41744W        W14169  37.543   6.783  13.532
41745W        W14170   5.267   7.287   3.816
41746W        W14171   1.459   5.759   4.814
41747W        W14172  12.513  36.009  13.394
41748W        W14173  40.055  43.346  12.176
41749W        W14174  40.904  31.144   4.138
41750W        W14175   9.637  25.603   1.338
41751W        W14176  37.853  20.101  12.510
41752W        W14177  38.529  15.682  10.439
41753W        W14178  19.511  18.896  14.541
41754W        W14179   1.648  18.065  14.519
41755W        W14180  28.150   6.886  14.050
41756W        W14181  32.364  22.180  12.095
41757W        W14182   8.692  24.354  14.897
41758W        W14183   1.454  43.053  13.388
41759W        W14184  15.221  34.508  12.015
41760W        W14185  23.026  28.367   0.438
41761W        W14186  23.477  32.360  12.805
41762W        W14187   1.405  44.107  11.706
41763W        W14188  41.931   2.191   1.699
41764W        W14189  28.518  35.164  13.665
41765W        W14190  22.728  23.601   2.280
41766W        W14191  31.183  25.195   4.096
41767W        W14192   8.497  36.275  11.423
41768W        W14193  44.735  36.271  13.120
41769W        W14194   3.815   2.600   3.976
41770W        W14195  19.620   6.353  10.801
41771W        W14196  16.201  33.623  14.923
41772W        W14197  23.254  18.312  14.566
41773W        W14198  16.822   6.484  13.635
41774W        W14199  13.215  22.418   2.650
41775W        W14200  44.256  42.517  11.874
41776W        W14201  31.005   3.015  11.689
41777W        W14202  36.212   0.528   0.787
41778W        W14203  43.957   4.772  14.441
41779W        W14204  34.698  27.099  14.517
41780W        W14205  36.106  23.151   4.163
41781W        W14206  12.846  28.104  13.394
41782W        W14207  36.097  41.972   0.382
41783W        W14208   0.488  43.139   1.322
41784W        W14209  11.863  39.782   0.349
41785W        W14210  34.911   4.169  11.018
41786W        W14211  19.223  21.055  13.024
41787W        W14212  32.493  30.650   5.045
41788W        W14213  39.268  13.371  12.369
41789W        W14214  39.728  37.746  11.670
41790W        W14215  10.222  43.028   0.408
41791W        W14216  18.173  35.520   1.695
41792W        W14217  22.368  35.519   3.737
41793W        W14218  20.591   0.519  13.475
41794W        W14219   5.518  33.430   2.205
41795W        W14220  14.192  24.771   1.460
41796W        W14221  30.944  42.456   3.418
41797W        W14222  18.977   4.697   0.768
41798W        W14223  41.908  36.633  12.429
41799W        W14224  40.794  22.029   5.024
41800W        W14225  34.167  41.590   1.139
41801W        W14226  39.805   4.389   0.587
41802W        W14227  22.938  33.054  12.039
41803W        W14228  31.416   7.487  14.983
41804W        W14229  41.319   5.318   0.240
41805W        W14230  12.644  15.167  14.711
41806W        W14231  38.215  16.539  10.962
41807W        W14232  33.905  35.960  13.530
41808W        W14233  17.300  40.566  12.703
41809W        W14234  22.754  15.165   4.135
41810W        W14235   7.789  40.351  11.561
41811W        W14236  28.100   3.329  14.836
41812W        W14237  36.620  38.672  11.551
41813W        W14238   6.736  17.741   0.682
41814W        W14239  32.142   7.946   4.222
41815W        W14240  39.726  37.220  10.676
41816W        W14241   0.822  18.193  10.721
41817W        W14242  39.411  24.972  14.389
41818W        W14243  31.726  38.986  13.756
41819W        W14244   7.626  10.266  12.914
41820W        W14245  21.409  36.903  14.037
41821W        W14246   5.701  12.417   2.433
41822W        W14247  30.080  16.573   4.064
41823W        W14248  20.060  33.019   0.995
41824W        W14249  32.816  17.189   1.541
41825W        W14250   9.175  37.812  14.341
41826W        W14251  19.738  36.171  14.544
41827W        W14252  34.935  11.625   0.894
41828W        W14253  32.566  36.554   0.764
41829W        W14254  38.852  30.383  12.908
41830W        W14255  28.203  20.551   3.633
41831W        W14256   5.550   8.322  12.991
41832W        W14257  15.562  36.606  14.834
41833W        W14258  34.099  26.782  12.994
41834W        W14259  35.402  34.033   2.443
41835W        W14260   9.109  13.851   1.875
41836W        W14261   3.118  26.495   5.031
41837W        W14262  44.785  40.766  11.020
41838W        W14263  22.307   3.789   4.517
41839W        W14264   5.185  26.578  10.619
41840W        W14265  40.096  19.089   3.167
41841W        W14266   0.426  32.881   3.851
41842W        W14267  20.696  26.143  12.896
41843W        W14268  40.798  28.041  14.293
41844W        W14269  18.221  33.169   4.655
41845W        W14270  32.171  16.985  12.879
41846W        W14271  18.403  44.468  14.023
41847W        W14272  16.998  30.001   4.569
41848W        W14273   2.279  14.716  12.973
41849W        W14274  18.299   3.257  12.118
41850W        W14275  27.429  35.075   1.709
41851W        W14276  41.760  25.967  10.806
41852W        W14277  14.871  39.069  12.794
41853W        W14278  20.282   3.752  10.671
41854W        W14279   5.420   8.640  10.660
41855W        W14280  39.551  42.767  12.829
41856W        W14281  24.676  21.465   0.976
41857W        W14282   0.419  20.059   0.705
41858W        W14283  41.771  40.356   2.661
41859W        W14284  40.321  13.795  14.909
41860W        W14285  14.483  43.758   3.456
41861W        W14286  20.368   5.479  12.578
41862W        W14287   7.416  38.982   2.644
41863W        W14288   4.108  19.051   3.258
41864W        W14289  10.785  31.181  11.475
41865W        W14290  25.582  35.068   4.091
41866W        W14291  30.917  21.349  11.019
41867W        W14292  44.748  11.614   2.411
41868W        W14293  31.427  13.204   0.990
41869W        W14294  27.201  22.218  11.174
41870W        W14295  26.020  39.392   2.202
41871W        W14296  44.897  21.701  12.442
41872W        W14297  18.875   7.277  13.993
41873W        W14298   3.967  18.953   1.180
41874W        W14299  29.935  34.716   0.562
41875W        W14300  15.016  19.470   4.281
41876W        W14301   2.291   2.437  14.777
41877W        W14302   0.976  42.855   4.247
41878W        W14303  13.547  35.895   4.603
41879W        W14304  27.602  27.088   1.471
41880W        W14305  44.029  11.882   4.719
41881W        W14306  41.567  39.608  11.195
41882W        W14307  27.923  30.964   1.880
41883W        W14308  29.434  40.840   2.584
41884W        W14309  28.548  19.088  14.426
41885W        W14310  32.946   0.550  11.711
41886W        W14311  25.196  17.524   4.137
41887W        W14312  29.464  14.248   0.018
41888W        W14313  22.244  10.303  11.486
41889W        W14314  13.312  22.259  14.240
41890W        W14315   6.410  39.018  11.539
41891W        W14316   9.751  13.719   4.474
41892W        W14317  26.415  32.159   5.468
41893W        W14318  22.174  21.276   1.492
41894W        W14319   8.831  37.515  14.933
41895W        W14320   4.395  39.248   3.686
41896W        W14321   7.222  37.752   3.202
41897W        W14322  24.016  13.352   0.543
41898W        W14323  25.815  20.566   4.255
41899W        W14324  23.015   3.200   1.492
41900W        W14325  44.160  23.406  14.905
41901W        W14326  10.778  12.906  13.778
41902W        W14327  22.932  24.221  13.772
41903W        W14328  32.189  39.987  13.447
41904W        W14329  18.333  11.177   3.652
41905W        W14330  37.132  32.801  14.471
41906W        W14331  31.106  15.879  13.584
41907W        W14332   8.221   1.515   3.264
41908W        W14333   7.825  22.687   2.566
41909W        W14334  30.358  39.817   1.515
41910W        W14335   7.398  38.838   1.659
41911W        W14336  15.355  10.844  12.578
41912W        W14337   2.497  12.895  13.342
41913W        W14338  40.916  18.584  13.351
41914W        W14339  31.142  10.308  14.478
41915W        W14340   3.020  32.200  14.232
41916W        W14341  26.057  40.917   4.002
41917W        W14342  34.880  32.020   1.210
41918W        W14343  16.270  32.886   3.770
41919W        W14344   3.448  24.689   2.268
41920W        W14345  14.053  10.411  14.322
41921W        W14346  41.924  13.872  12.983
41922W        W14347   7.432  13.185  11.559
41923W        W14348  21.802   4.302  10.544
41924W        W14349  15.377   5.286  12.292
41925W        W14350  43.555  11.651   4.747
41926W        W14351   0.929  28.625  14.722
41927W        W14352  34.859  20.374   2.158
41928W        W14353  10.415  41.023  13.465
41929W        W14354   6.450   5.453  14.740
41930W        W14355  21.162   4.924  14.306
41931W        W14356  24.144  14.234  11.551
41932W        W14357  20.580   3.410  10.938
41933W        W14358  38.123  14.059  12.874
41934W        W14359   3.560  18.459   2.855
41935W        W14360  13.703   8.652  11.185
41936W        W14361  10.865  16.335   0.235
41937W        W14362  20.580  30.197  12.975
41938W        W14363  32.585  40.000  11.188
41939W        W14364  40.705  35.775   4.573
41940W        W14365  35.889   6.865   0.990
41941W        W14366  20.635  14.897   3.747
41942W        W14367  14.255  26.633   5.248
41943W        W14368   3.900  20.532  11.461
41944W        W14369  32.977  40.243  14.265
41945W        W14370   1.420  40.508   4.710
41946W        W14371  11.099   9.883  12.259
41947W        W14372  22.558   3.405  12.000
41948W        W14373  35.487  30.163  10.735
41949W        W14374  34.716   3.243  14.897
41950W        W14375   1.938  33.057  12.973
41951W        W14376  29.363   2.072  14.871
41952W        W14377  21.560  39.690  10.742
41953W        W14378   1.283   7.632   0.494
41954W        W14379  41.329  14.763   1.265
41955W        W14380  39.813   8.332   1.955
41956W        W14381  24.170  33.029   3.109
41957W        W14382  25.569  33.322  12.354
41958W        W14383  29.133  20.746   2.904
41959W        W14384  19.809  23.608   2.682
41960W        W14385   0.232  11.068   4.210
41961W        W14386  13.583   0.265  10.716
41962W        W14387  40.578   5.320  10.758
41963W        W14388  31.467  28.581   1.918
41964W        W14389  37.425   1.900  14.065
41965W        W14390  15.602   2.718   3.192
41966W        W14391  14.609   2.963   3.330
41967W        W14392   5.214  42.617   4.825
41968W        W14393  40.564  22.050  11.454
41969W        W14394  40.327  19.498   5.083
41970W        W14395   4.721  44.048   3.241
41971W        W14396   1.345  11.880   1.763
41972W        W14397   8.398  19.284  11.942
41973W        W14398   7.529  31.016   1.707
41974W        W14399  31.432  28.642   4.387
41975W        W14400  35.958  26.226  14.059
41976W        W14401   5.032  20.002   2.524
41977W        W14402   3.676   7.579   0.400
41978W        W14403  42.351   6.903  11.349
41979W        W14404  16.267   8.701   2.367
41980W        W14405  37.667  20.041  11.027
41981W        W14406  23.082  25.149  12.487
41982W        W14407  34.482   6.205  11.487
41983W        W14408   0.742  14.090  14.371
41984W        W14409   2.292  28.647  12.592
41985W        W14410  20.703  25.960  10.694
41986W        W14411  12.257  28.402   4.151
41987W        W14412  30.303  19.612  14.299
41988W        W14413   0.158  15.550   2.738
41989W        W14414  25.536   2.213  11.089
41990W        W14415  34.603   9.815  10.621
41991W        W14416  15.684  34.979   4.381
41992W        W14417  41.071  39.458   1.047
41993W        W14418   9.262  13.427   0.426
41994W        W14419   7.770  36.446   1.243
41995W        W14420   5.927  38.997  12.467
41996W        W14421  42.944  42.568   9.913
41997W        W14422   4.816   9.026  12.915
41998W        W14423  40.037  36.468   0.745
41999W        W14424  15.116  40.821   1.838
42000W        W14425  11.547  10.222   4.131
42001W        W14426  35.044  22.787  13.088
42002W        W14427  35.850  17.482   1.315
42003W        W14428   9.750  25.985  14.437
42004W        W14429  41.212  25.644  13.278
42005W        W14430   3.519   5.432   2.505
42006W        W14431  10.161  18.652  10.699
42007W        W14432  12.193  26.660   3.961
42008W        W14433  26.703  35.672  12.398
42009W        W14434  21.836  11.119  10.258
42010W        W14435  38.964  40.980  14.615
42011W        W14436  13.662  39.413  13.572
42012W        W14437  11.982  35.415  12.570
42013W        W14438  31.907  39.634   4.788
42014W        W14439  41.927  30.340   9.609
42015W        W14440  29.227   1.315   1.943
42016W        W14441  30.476  27.434   0.882
42017W        W14442  37.557   0.308   4.696
42018W        W14443  34.190   8.279  10.321
42019W        W14444   5.266   7.681   4.187
42020W        W14445  39.586  42.940   2.583
42021W        W14446   4.271  40.300   0.959
42022W        W14447  22.594  30.972   0.197
42023W        W14448  30.204  15.232  12.942
42024W        W14449  18.686  25.327  14.947
42025W        W14450   6.370  41.777   0.707
42026W        W14451  24.151  22.907   1.345
42027W        W14452  29.597   5.284  12.771
42028W        W14453  13.692  22.042   4.278
42029W        W14454  33.125  39.874  12.487
42030W        W14455  27.896  26.999   1.906
42031W        W14456  10.767  36.997  13.883
42032W        W14457  32.109  41.981  14.519
42033W        W14458  39.028  27.037  12.635
42034W        W14459  14.862  36.374  13.535
42035W        W14460  36.777  22.495  10.947
42036W        W14461  35.376  41.884   1.953
42037W        W14462  15.849  14.310   2.835
42038W        W14463  25.506  14.049   3.135
42039W        W14464  41.841  17.828   0.913
42040W        W14465  19.704  31.164   4.670
42041W        W14466  34.006  35.384  10.775
42042W        W14467  20.712  27.032  10.799
42043W        W14468   3.783  15.732  12.094
42044W        W14469   1.617  24.688  11.985
42045W        W14470  37.345  43.952   2.865
42046W        W14471  28.046  22.425   4.252
42047W        W14472   4.321  10.857   4.078
42048W        W14473  19.288  37.934  13.262
42049W        W14474  44.236  30.661  14.946
42050W        W14475  20.225  29.360   3.668
42051W        W14476   1.342  20.312   1.970
42052W        W14477  44.290  32.930   4.525
42053W        W14478  27.673   8.887  10.468
42054W        W14479   2.894  21.918   2.590
42055W        W14480  38.309  25.514   4.620
42056W        W14481  22.782  43.059  12.136
42057W        W14482   0.750  40.979   3.882
42058W        W14483  18.703  37.768  12.019
42059W        W14484  11.865  16.699  14.518
42060W        W14485  40.610  33.583  10.803
42061W        W14486   0.867  37.308  12.617
42062W        W14487  15.121  36.952   1.949
42063W        W14488  41.324  38.181   0.796
42064W        W14489  10.770  34.648  10.965
42065W        W14490  24.665   9.655  11.980
42066W        W14491  27.048  25.170  11.502
42067W        W14492  22.596   0.377  11.673
42068W        W14493   4.486  19.308  14.998
42069W        W14494  26.797  17.118  12.556
42070W        W14495  44.570  13.712  11.468
42071W        W14496  34.072  32.467  14.317
42072W        W14497  40.782   7.302   0.277
42073W        W14498  13.702   3.845   5.425
42074W        W14499  34.853  33.005  14.822
42075W        W14500  19.265   8.716   1.536
42076W        W14501  30.372  11.741  11.432
42077W        W14502  40.850   3.671   4.291
42078W        W14503  10.608  33.399   1.753
42079W        W14504  17.766  22.186   3.791
42080W        W14505  17.141  15.277   2.669
42081W        W14506  33.451  27.023  14.875
42082W        W14507  37.895  17.196   1.534
42083W        W14508  31.487  40.063   1.508
42084W        W14509  28.205  40.526   2.384
42085W        W14510   4.245  28.571   3.208
42086W        W14511   2.494  20.450  13.862
42087W        W14512  31.430  30.989   4.279
42088W        W14513  15.602  28.409   3.675
42089W        W14514   3.400  25.704   2.867
42090W        W14515  22.495  39.481   0.725
42091W        W14516  12.072  30.426   3.217
42092W        W14517  32.152  22.084   3.457
42093W        W14518  25.237  29.276   3.391
42094W        W14519  39.777  23.525  11.738
42095W        W14520  44.416  38.059  14.229
42096W        W14521   4.719  27.709  10.563
42097W        W14522  16.155  15.496   0.392
42098W        W14523  36.095   8.860  14.248
42099W        W14524  21.971  12.405   5.486
42100W        W14525  24.720  11.892  11.390
42101W        W14526  10.738  29.924  12.058
42102W        W14527  17.110  20.730  14.504
42103W        W14528  10.607  29.184   3.244
42104W        W14529  22.828   4.463   4.212
42105W        W14530  23.279  34.095   4.470
42106W        W14531   8.229  39.045  12.024
42107W        W14532  29.652   1.870  13.336
42108W        W14533  11.664  20.140   2.366
42109W        W14534  20.670  20.706  10.914
42110W        W14535  10.828  22.766   2.381
42111W        W14536  26.015  21.538   2.284
42112W        W14537  31.112  40.134  12.124
42113W        W14538  20.587  13.613   3.286
42114W        W14539  19.016  40.896   0.399
42115W        W14540   2.551  12.406  13.103
42116W        W14541   9.855  40.603   0.915
42117W        W14542  26.778  20.982  12.605
42118W        W14543  34.318  23.140   4.627
42119W        W14544  22.290  37.686   5.000
42120W        W14545  15.817  13.712   0.255
42121W        W14546  22.285  14.681   3.269
42122W        W14547   9.845  11.921   4.060
42123W        W14548   0.846   2.267   4.170
42124W        W14549  35.194  23.334   1.554
42125W        W14550  26.832  41.383   2.323
42126W        W14551   5.371  12.026   2.325
42127W        W14552  13.582  23.141   3.138
42128W        W14553  28.156  44.650   3.318
42129W        W14554   2.117  34.729  14.149
42130W        W14555   4.340   3.229   4.097
42131W        W14556   1.848   8.186  12.027
42132W        W14557  31.652  38.953   3.244
42133W        W14558  11.095  13.314   1.830
42134W        W14559  34.695  38.982   2.223
42135W        W14560  13.186  14.384  13.195
42136W        W14561   2.891   5.721  11.157
42137W        W14562  38.900  18.819  11.088
42138W        W14563  15.961  20.682   1.680
42139W        W14564  40.590   7.450  12.895
42140W        W14565   9.202  28.307  11.477
42141W        W14566  29.904   8.949   2.843
42142W        W14567  11.592  34.351  12.068
42143W        W14568   7.961  29.122   1.475
42144W        W14569   2.198   7.707  11.553
42145W        W14570   2.997  34.003   3.954
42146W        W14571  17.188   1.796   4.143
42147W        W14572  35.891  37.981  10.682
42148W        W14573  12.048   3.781   4.645
42149W        W14574   3.283  33.014  11.547
42150W        W14575  27.191  24.568  11.876
42151W        W14576   1.126   0.512   5.094
42152W        W14577  27.755  11.393   2.919
42153W        W14578  16.179  18.711  13.422
42154W        W14579  33.096  27.126   3.279
42155W        W14580  33.335  11.712   0.905
42156W        W14581  18.333  19.351   2.418
42157W        W14582  37.428  29.145   3.637
42158W        W14583  35.095   2.857   2.183
42159W        W14584  14.603  10.177  14.818
42160W        W14585  40.396  31.036  14.796
42161W        W14586  36.347  30.122   3.777
42162W        W14587  38.877  10.274  12.853
42163W        W14588  18.848  42.754   5.099
42164W        W14589   6.351  37.526   1.879
42165W        W14590  42.943   0.233  10.713
42166W        W14591  15.669  42.694  12.144
42167W        W14592   7.255  10.856  10.746
42168W        W14593   4.149  16.895  13.001
42169W        W14594   5.241  24.031   4.612
42170W        W14595  26.668   0.419  14.127
42171W        W14596  11.746   7.989   0.766
42172W        W14597  15.938   4.240   4.245
42173W        W14598   7.329  24.569  13.513
42174W        W14599  34.813  44.579   2.304
42175W        W14600   2.904  25.152   0.842
42176W        W14601   3.410  24.674  14.817
42177W        W14602  20.245  36.108  10.674
42178W        W14603  26.460  21.904  14.779
42179W        W14604  24.144  41.394  11.899
42180W        W14605  35.939  35.640  14.798
42181W        W14606   7.436  11.663   4.713
42182W        W14607  24.230  11.751  11.368
42183W        W14608   3.505   6.833  13.167
42184W        W14609  36.564  24.919  14.906
42185W        W14610  16.223  40.832   0.945
42186W        W14611  15.278  35.085  10.231
42187W        W14612  25.045   8.882  12.080
42188W        W14613  19.092  34.257   4.661
42189W        W14614  14.650  25.000  10.663
42190W        W14615  41.370  27.089  13.419
42191W        W14616   8.370  20.831   1.033
42192W        W14617   0.897  37.069  13.069
42193W        W14618   8.430   9.200   1.209
42194W        W14619  42.707   3.799  14.753
42195W        W14620   2.911  17.424  14.231
42196W        W14621  24.568  14.421  11.283
42197W        W14622  10.376  43.741   4.040
42198W        W14623  26.945  40.004   0.214
42199W        W14624  43.956   0.575  12.425
42200W        W14625   7.842  21.744  12.148
42201W        W14626  10.105  26.133   4.610
42202W        W14627  38.138  42.466  12.079
42203W        W14628  17.941  18.683  11.259
42204W        W14629  37.885  13.587  10.841
42205W        W14630  21.344  14.809   2.566
42206W        W14631  19.711   4.665   5.165
42207W        W14632  15.775  43.047  12.546
42208W        W14633  42.210  22.552  14.859
42209W        W14634  39.009  26.464  10.403
42210W        W14635   1.348  34.319  14.785
42211W        W14636  35.948  19.193  13.109
42212W        W14637  39.888   7.267   0.157
42213W        W14638  18.256  30.798   2.791
42214W        W14639  11.108  43.526   2.273
42215W        W14640  16.223  13.422  13.531
42216W        W14641  29.841  12.644   2.363
42217W        W14642  38.802  35.306  12.059
42218W        W14643  13.812  18.816  13.601
42219W        W14644  31.421  39.565   1.655
42220W        W14645  19.762  18.325  14.373
42221W        W14646  18.240  36.284  12.028
42222W        W14647  44.401  29.345  10.529
42223W        W14648  13.802  38.423   2.572
42224W        W14649  29.338  26.895  12.648
42225W        W14650  40.365  11.832   2.295
42226W        W14651  35.827  22.717  14.081
42227W        W14652  21.591  12.287  13.835
42228W        W14653  38.774  10.617  13.864
42229W        W14654  34.876   6.194  10.237
42230W        W14655  11.816   5.957  13.983
42231W        W14656  40.511   0.513   1.362
42232W        W14657  17.283  38.972  13.303
42233W        W14658  39.583  44.473   1.415
42234W        W14659  32.782  36.379  11.115
42235W        W14660   1.350   2.279   4.263
42236W        W14661   0.074  10.639   0.760
42237W        W14662  11.154  23.687  13.527
42238W        W14663  24.293  32.917  14.673
42239W        W14664  28.946  12.261   1.467
42240W        W14665  21.001  25.159  10.871
42241W        W14666   9.813   5.922   1.428
42242W        W14667  44.412  13.760   4.166
42243W        W14668  25.534  28.681   1.245
42244W        W14669   5.425  14.684  11.955
42245W        W14670   0.888  35.296   2.145
42246W        W14671  33.407   4.884   4.721
42247W        W14672  13.391  41.820  13.434
42248W        W14673  37.036  29.880   0.941
42249W        W14674  12.693  23.879   1.444
42250W        W14675  28.981  33.040   4.135
42251W        W14676   7.698  15.491   4.639
42252W        W14677  36.397   7.853  12.323
42253W        W14678  22.167  40.836   0.959
42254W        W14679  44.944   5.912  14.030
42255W        W14680  22.023  35.456  14.121
42256W        W14681  32.478  11.172  12.448
42257W        W14682  35.835  10.197  11.190
42258W        W14683  24.506  13.547   0.563
42259W        W14684  24.060  22.999  14.450
42260W        W14685  10.231  29.089   0.561
42261W        W14686   2.386  10.622   0.492
42262W        W14687  42.296  37.937   2.401
42263W        W14688   3.325   3.213   2.633
42264W        W14689  26.603  39.144   0.497
42265W        W14690   8.653  38.056   4.972
42266W        W14691  37.373  37.522   2.497
42267W        W14692  36.800   7.600  12.539
42268W        W14693   8.820  44.086   1.007
42269W        W14694  13.555   4.305   5.226
42270W        W14695  11.412  32.167  11.408
42271W        W14696   5.373  15.092  11.636
42272W        W14697  16.902   6.947   0.900
42273W        W14698  19.185  19.374   2.511
42274W        W14699  37.390  20.243   0.211
42275W        W14700  27.588  43.017   1.868
42276W        W14701  11.228  19.715   0.828
42277W        W14702  15.328   5.608   3.616
42278W        W14703  17.170  31.097  11.703
42279W        W14704  20.444  23.163  12.176
42280W        W14705  26.842  33.168  12.388
42281W        W14706  24.969  26.397   4.582
42282W        W14707  37.065   8.296  12.069
42283W        W14708  24.114  16.820  12.107
42284W        W14709  35.960  21.041   3.606
42285W        W14710   4.670  29.434  11.861
42286W        W14711  22.997  30.871   4.560
42287W        W14712  32.196  33.628  12.501
42288W        W14713   8.327   1.450   0.372
42289W        W14714  31.208  23.605   1.385
42290W        W14715   5.569   7.891   2.696
42291W        W14716  42.885  14.714  13.038
42292W        W14717  31.955  39.397   0.798
42293W        W14718  10.213  37.674  10.476
42294W        W14719  25.849  13.310   2.435
42295W        W14720  16.580  34.171  12.500
42296W        W14721  13.638   0.537  12.538
42297W        W14722   4.876  22.197   3.816
42298W        W14723  18.563  17.902  12.953
42299W        W14724  37.426   8.194  13.904
42300W        W14725  31.204  30.010   4.908
42301W        W14726  28.170  44.419   3.819
42302W        W14727  25.077  20.021   2.315
42303W        W14728  21.196  37.777  14.889
42304W        W14729  21.728  28.052  14.706
42305W        W14730  42.656  41.499   2.811
42306W        W14731  38.036   3.248   3.332
42307W        W14732   6.700   8.688   3.711
42308W        W14733  24.576  30.889  12.407
42309W        W14734  12.701  41.795   3.315
42310W        W14735  19.709  39.839   0.793
42311W        W14736   8.735  26.046   3.881
42312W        W14737   7.660  20.729   2.687
42313W        W14738  22.008   9.673   3.266
42314W        W14739   6.471   6.945  13.101
42315W        W14740  42.076  25.138   2.816
42316W        W14741  33.319   5.975   4.266
42317W        W14742   1.497  13.178   3.193
42318W        W14743  24.227  32.602  12.482
42319W        W14744  15.367   3.554  12.575
42320W        W14745  23.139  30.727  14.086
42321W        W14746  16.063   6.602  10.875
42322W        W14747  18.087  29.551  14.665
42323W        W14748  38.156  27.143  13.057
42324W        W14749  32.567  25.651  11.833
42325W        W14750  29.154  24.309   4.372
42326W        W14751   6.490   9.244  11.126
42327W        W14752  10.106  15.930   0.130
42328W        W14753  35.523   6.235   0.415
42329W        W14754  37.311  34.571   3.373
42330W        W14755  20.699  33.960   3.829
42331W        W14756  38.092  29.309   3.780
42332W        W14757  35.865   3.244   2.474
42333W        W14758  12.325  43.365  12.950
42334W        W14759  11.062  14.076  11.357
42335W        W14760  41.585  29.663  10.702
42336W        W14761  24.496   3.914  12.406
42337W        W14762   3.404  30.566  10.745
42338W        W14763  41.204  12.260  14.102
42339W        W14764  31.347  34.994  11.597
42340W        W14765   7.722  25.443   3.742
42341W        W14766  37.452  42.857   2.654
42342W        W14767  13.565  18.804  11.733
42343W        W14768   2.215  29.469   2.912
42344W        W14769  19.965  14.298   4.313
42345W        W14770  23.358  10.699  11.001
42346W        W14771  17.755  37.849  10.680
42347W        W14772  33.557  33.498   1.308
42348W        W14773  15.059  24.977   0.644
42349W        W14774  22.979   0.366  10.872
42350W        W14775  40.347  21.301   0.937
42351W        W14776  42.934  24.207  12.794
42352W        W14777  36.443  26.869   3.107
42353W        W14778  36.385  39.287   0.147
42354W        W14779  25.487  14.224   4.380
42355W        W14780   3.784   4.601   3.103
42356W        W14781   6.895  23.185   3.369
42357W        W14782  37.519  16.534   4.019
42358W        W14783  19.601   9.644  14.971
42359W        W14784  12.813  25.473  14.415
42360W        W14785  33.929   9.883   2.933
42361W        W14786   9.650  23.456  13.894
42362W        W14787  36.107  15.257   3.052
42363W        W14788  16.695  13.696  10.901
42364W        W14789   6.530  36.585  11.445
42365W        W14790  37.041  42.086  14.009
42366W        W14791  12.892   2.961  11.146
42367W        W14792  13.118  27.186  13.480
42368W        W14793  20.045  17.945   4.528
42369W        W14794   1.289  31.378   2.768
42370W        W14795  10.136  17.636  12.917
42371W        W14796  17.169   5.486  11.194
42372W        W14797   5.123  44.421  12.518
42373W        W14798  28.645  25.215   3.924
42374W        W14799   0.218  14.776  12.765
42375W        W14800  17.227  19.448  10.280
42376W        W14801  26.237  17.086  13.554
42377W        W14802  44.670  19.109  12.937
42378W        W14803   8.620   9.673   0.992
42379W        W14804   5.437  19.561   1.484
42380W        W14805  43.611   4.977   2.914
42381W        W14806  11.685   2.734   2.328
42382W        W14807   2.477   2.045  13.514
42383W        W14808  14.260  35.189   1.840
42384W        W14809  38.719  18.324  10.730
42385W        W14810  29.354  29.062  11.184
42386W        W14811   8.204  14.860   1.241
42387W        W14812  17.295  38.956   0.943
42388W        W14813   5.899  35.382  13.131
42389W        W14814  34.012  41.066  12.062
42390W        W14815  36.619  39.002   2.728
42391W        W14816  44.604   4.910   2.495
42392W        W14817  34.913  40.456  14.549
42393W        W14818  16.750  27.005  10.449
42394W        W14819  36.028  27.627  13.263
42395W        W14820  13.678   2.446   0.805
42396W        W14821   4.785  36.061   0.330
42397W        W14822  37.039  27.483  11.659
42398W        W14823  21.815  24.608  10.737
42399W        W14824  13.281  22.091   3.050
42400W        W14825  40.866  10.792  11.562
42401W        W14826  20.693  17.209  14.950
42402W        W14827  24.448  38.981   1.223
42403W        W14828  35.892   3.389  12.956
42404W        W14829  25.393  21.543  14.969
42405W        W14830  14.996   4.750  11.969
42406W        W14831   5.621  29.641   4.299
42407W        W14832   3.239  11.680  14.085
42408W        W14833  38.069  36.434  10.477
42409W        W14834  14.122  35.973  13.010
42410W        W14835  38.544  19.088  14.368
42411W        W14836   3.465  16.574   3.553
42412W        W14837  37.887  37.907   4.471
42413W        W14838  19.200  11.405   4.892
42414W        W14839  44.802   7.832  13.842
42415W        W14840  11.192  26.106  12.096
42416W        W14841  16.615   8.831  13.091
42417W        W14842  16.078  13.642  13.988
42418W        W14843   1.587  25.949  12.020
42419W        W14844   9.675   0.228   3.854
42420W        W14845   1.972  43.784  13.416
42421W        W14846  41.651   0.298  14.884
42422W        W14847  40.028  42.557  13.458
42423W        W14848  12.976  21.932   2.644
42424W        W14849  18.754  44.865   3.301
42425W        W14850  16.253  23.824  10.581
42426W        W14851   2.340   5.892   3.174
42427W        W14852  12.277  35.914  13.938
42428W        W14853  36.037  32.685  11.209
42429W        W14854   2.511   8.729  11.835
42430W        W14855  26.041   1.882  14.899
42431W        W14856  28.354  35.874   2.202
42432W        W14857  36.918   9.764   1.298
42433W        W14858  10.580   6.700  11.278
42434W        W14859   0.772  34.964   4.119
42435W        W14860   8.347  27.586  10.973
42436W        W14861  40.601   1.488  14.256
42437W        W14862  29.986  21.933  13.417
42438W        W14863  13.181  12.362  14.030
42439W        W14864  23.379  40.998   4.738
42440W        W14865  14.342  10.000  10.210
42441W        W14866  28.110  19.632  10.190
42442W        W14867  34.427   2.196   2.695
42443W        W14868  20.297   2.684   3.749
42444W        W14869   0.702  40.012  12.235
42445W        W14870   9.795  26.033   0.819
42446W        W14871  39.988  16.197  12.853
42447W        W14872  28.018   0.529  14.397
42448W        W14873   6.963  31.154   1.189
42449W        W14874  43.154  12.729  11.471
42450W        W14875  21.931  19.591   3.426
42451W        W14876  36.219  14.263  11.183
42452W        W14877   6.251   1.381   5.058
42453W        W14878   8.204  14.621   3.302
42454W        W14879  24.709  20.509   0.193
42455W        W14880  24.116   6.307  14.862
42456W        W14881  23.578  43.512   1.278
42457W        W14882   4.299  40.864  12.544
42458W        W14883  31.903  18.755   4.129
42459W        W14884  11.333  40.284  13.009
42460W        W14885   0.196  38.610   2.343
42461W        W14886  37.823   3.398   4.597
42462W        W14887  34.482  19.852  14.415
42463W        W14888   8.651  37.486   2.045
42464W        W14889  44.031  28.419  14.922
42465W        W14890  28.885   9.510  13.809
42466W        W14891   2.542  12.676  11.025
42467W        W14892   1.522   6.760   3.192
42468W        W14893   8.853   2.753   0.483
42469W        W14894   9.593  25.976   3.257
42470W        W14895  30.124  11.613   2.239
42471W        W14896   2.962  40.332  10.697
42472W        W14897  11.117  41.449  11.165
42473W        W14898  17.971   3.637  12.698
42474W        W14899  22.861  29.496   4.211
42475W        W14900  27.679   6.897  13.275
42476W        W14901  15.660  11.103  10.258
42477W        W14902  32.015  42.483  10.528
42478W        W14903  13.578  35.434   2.892
42479W        W14904  14.296  26.810  14.882
42480W        W14905  26.649  23.169  11.476
42481W        W14906  38.911  14.475  11.089
42482W        W14907  18.845  27.196   0.125
42483W        W14908  39.009  11.126   4.613
42484W        W14909  29.929  38.990   1.142
42485W        W14910  29.146  40.189   4.351
42486W        W14911   3.580  25.678   2.367
42487W        W14912  25.998  32.392   2.350
42488W        W14913  28.914  28.070  11.649
42489W        W14914  43.485  32.511  14.045
42490W        W14915  11.074  30.452   1.413
42491W        W14916   2.755  26.550   1.660
42492W        W14917  16.819  31.129   2.773
42493W        W14918  24.843  27.558   2.770
42494W        W14919  10.430  14.162  10.625
42495W        W14920  22.586  17.249   4.038
42496W        W14921  23.367  12.893  12.493
42497W        W14922  26.159  40.540  14.385
42498W        W14923  17.330  31.303   2.898
42499W        W14924  31.318   0.876   1.313
42500W        W14925  40.248  10.090   3.645
42501W        W14926   2.745  30.439   2.663
42502W        W14927   9.768  22.278   0.977
42503W        W14928   5.765  44.398  14.859
42504W        W14929  16.974  23.311   0.282
42505W        W14930   0.817  17.753  13.601
42506W        W14931   5.196   8.692  14.785
42507W        W14932  18.324  33.341  12.307
42508W        W14933  12.834  39.150  11.742
42509W        W14934   2.024  32.955   0.425
42510W        W14935  15.595   5.403   2.702
42511W        W14936  30.040  44.855   3.625
42512W        W14937  17.967   9.060  14.709
42513W        W14938  32.218  37.518   0.858
42514W        W14939   6.373  26.575   4.807
42515W        W14940  33.879  18.637  12.583
42516W        W14941  29.437  12.704   0.849
42517W        W14942   5.090  20.877  12.432
42518W        W14943   5.416  32.124   1.938
42519W        W14944  40.758   8.478   1.229
42520W        W14945  44.230  16.724  11.585
42521W        W14946  11.631  12.375  11.560
42522W        W14947  34.551   7.867   3.319
42523W        W14948  33.516  41.919  14.329
42524W        W14949  15.900   4.703   1.605
42525W        W14950   0.249  33.496  10.864
42526W        W14951  43.539  25.948  12.108
42527W        W14952  16.093   0.900  13.388
42528W        W14953  30.818  32.158  13.902
42529W        W14954  26.695   1.435   0.257
42530W        W14955  13.808   7.876  14.108
42531W        W14956  43.892  31.409  10.249
42532W        W14957  41.759   9.816   2.631
42533W        W14958   7.761   7.899  14.832
42534W        W14959  34.616  35.088   1.213
42535W        W14960  25.416  28.086  11.886
42536W        W14961  33.955   0.960  10.649
42537W        W14962  35.778   9.241   5.471
42538W        W14963  14.244  17.864   2.101
42539W        W14964  36.839   8.193  10.180
42540W        W14965  29.950  35.421  13.907
42541W        W14966   7.756  35.990   2.621
42542W        W14967  14.844  31.305   4.199
42543W        W14968  32.978  35.897  11.114
42544W        W14969  37.566  10.653   3.957
42545W        W14970   7.879   0.723   9.772
42546W        W14971   0.821  44.769  13.393
42547W        W14972   6.357  16.649  13.730
42548W        W14973  43.417  35.085  13.773
42549W        W14974  23.822   4.434   2.201
42550W        W14975   8.333   5.261  11.686
42551W        W14976  34.895  25.155  14.350
42552W        W14977  23.317  35.088   0.420
42553W        W14978   4.691  27.458  13.891
42554W        W14979  40.114  27.429   3.702
42555W        W14980  11.617  36.335   4.939
42556W        W14981  23.962  27.646   1.768
42557W        W14982  15.680  11.334   0.079
42558W        W14983  43.701   7.371  11.033
42559W        W14984   7.822   4.772  13.057
42560W        W14985  39.912   3.832  11.656
42561W        W14986   9.286  10.705  13.999
42562W        W14987  21.200  31.743   4.711
42563W        W14988   6.437   8.767   3.267
42564W        W14989   7.766  39.315  11.479
42565W        W14990  34.744  35.390  12.845
42566W        W14991  37.766  34.956   5.109
42567W        W14992  18.520   3.570  14.807
42568W        W14993  23.518  38.132   1.461
42569W        W14994  16.487  31.568  13.415
42570W        W14995  39.322   9.318   3.613
42571W        W14996  32.398  32.170   3.479
42572W        W14997  41.903   4.889  12.522
42573W        W14998   4.493   3.033  10.649
42574W        W14999  33.989   0.815   4.247
42575W        W15000   5.981  19.356  10.234
42576W        W15001  29.335   0.058  13.744
42577W        W15002  44.345  38.663  10.171
42578W        W15003  22.811   9.493  14.955
42579W        W15004   8.476  11.161   2.401
42580W        W15005  37.270  17.970   0.977
42581W        W15006  41.931  22.992  11.024
42582W        W15007   0.910  20.644  11.149
42583W        W15008  16.747  12.490   4.664
42584W        W15009  15.328  34.791  13.985
42585W        W15010  35.013  22.478  11.644
42586W        W15011  25.452   2.767  12.043
42587W        W15012   3.691   7.184  12.446
42588W        W15013  24.098  29.591   4.619
42589W        W15014   4.935   3.178  13.419
42590W        W15015  21.777  29.602   4.178
42591W        W15016  29.093  34.498  12.007
42592W        W15017  39.180  33.933  13.296
42593W        W15018  39.567  13.413  11.954
42594W        W15019  37.495  17.332   1.850
42595W        W15020   9.132  25.944   2.990
42596W        W15021  17.435  14.630  13.321
42597W        W15022  38.394  34.476   2.273
42598W        W15023  29.513  30.905  11.576
42599W        W15024  13.701  40.814  14.938
42600W        W15025  12.071   5.268   1.919
42601W        W15026  22.035  24.455  14.317
42602W        W15027   1.541  30.145  13.872
42603W        W15028  34.951  25.923   1.219
42604W        W15029  40.075  39.876  10.697
42605W        W15030  22.215  43.019   0.833
42606W        W15031  26.070  29.664   2.824
42607W        W15032  26.772  14.364  13.939
42608W        W15033   4.484  17.586  12.590
42609W        W15034   1.706  33.499   1.724
42610W        W15035   1.764  10.001   3.227
42611W        W15036  31.310  16.543   0.075
42612W        W15037  15.106  42.088   3.213
42613W        W15038  10.366  12.814   0.212
42614W        W15039  25.008  26.097  12.127
42615W        W15040  42.549  30.547   1.448
42616W        W15041   0.783   2.046  14.180
42617W        W15042  42.706  14.206  10.450
42618W        W15043  34.295  26.110   1.709
42619W        W15044  31.878  24.716   3.591
42620W        W15045   8.672  32.777  11.328
42621W        W15046  32.955  23.003   1.586
42622W        W15047  23.907  17.133   3.207
42623W        W15048  14.304  41.978  12.314
42624W        W15049  33.089  19.442  11.475
42625W        W15050   8.158  22.714  12.037
42626W        W15051   0.018  32.948  11.958
42627W        W15052  10.293  41.054  10.848
42628W        W15053   2.201  30.626   1.294
42629W        W15054  17.612  32.195   2.147
42630W        W15055  18.528  16.639  13.984
42631W        W15056  44.190  30.360   4.766
42632W        W15057  18.983   0.294  14.008
42633W        W15058  25.079  30.393  14.645
42634W        W15059   4.337  20.288   1.331
42635W        W15060  40.759  32.599  12.248
42636W        W15061  40.992  40.751  13.088
42637W        W15062  20.432   8.752   4.731
42638W        W15063  10.433  13.621  11.103
42639W        W15064  31.896  19.796  12.631
42640W        W15065  14.143  27.170  11.964
42641W        W15066  23.582  23.677  10.711
42642W        W15067   1.430   2.544  13.521
42643W        W15068   4.496  20.905   0.304
42644W        W15069  26.939  24.546   4.278
42645W        W15070   0.422  35.305   0.325
42646W        W15071  23.078  37.804   2.282
42647W        W15072  10.671  22.068   4.957
42648W        W15073   0.832  23.648   2.640
42649W        W15074  35.302  23.752  13.578
42650W        W15075  15.602  14.631  11.487
42651W        W15076  22.699  18.636   0.872
42652W        W15077  11.097  29.034   3.318
42653W        W15078  13.867   3.913  11.678
42654W        W15079   0.768  31.298  13.379
42655W        W15080  36.611  38.978   5.125
42656W        W15081  35.875  25.691  14.989
42657W        W15082  27.357   6.744   4.753
42658W        W15083   2.964  13.017  11.128
42659W        W15084   1.019   4.420   1.762
42660W        W15085  28.262  36.143  13.349
42661W        W15086  43.038  37.999   0.206
42662W        W15087  38.932   2.891   0.719
42663W        W15088  16.322  26.107   2.251
42664W        W15089  20.817   5.814   1.915
42665W        W15090  25.141  30.748   4.085
42666W        W15091  32.652  15.621  10.557
42667W        W15092   2.413  27.235   2.380
42668W        W15093  28.055  15.256  10.904
42669W        W15094  40.456  17.276  11.527
42670W        W15095  44.150  41.325   5.051
42671W        W15096  25.298  29.669  14.321
42672W        W15097   6.491  44.418  14.406
42673W        W15098  25.521  38.944   3.451
42674W        W15099  24.921  43.750   3.597
42675W        W15100   2.257  21.617  10.731
42676W        W15101   2.354  20.616  12.443
42677W        W15102  14.163  16.378  10.631
42678W        W15103  25.193  35.429   2.313
42679W        W15104  24.624  23.834   2.785
42680W        W15105  20.974  30.101   3.287
42681W        W15106   4.111  43.080  12.094
42682W        W15107  42.745  12.347   4.559
42683W        W15108  43.208  24.474  14.068
42684W        W15109  22.707  13.675   3.605
42685W        W15110  25.483  42.450  14.695
42686W        W15111  24.518  37.591   2.372
42687W        W15112  39.471  20.228   3.710
42688W        W15113  11.727  22.280  14.897
42689W        W15114  11.595  14.671  12.577
42690W        W15115   8.404  25.323  13.817
42691W        W15116  20.138  22.004  14.374
42692W        W15117  18.545  42.053  10.712
42693W        W15118  13.156  27.144   4.540
42694W        W15119   8.628  29.978   2.147
42695W        W15120  26.068  20.164   2.161
42696W        W15121   9.352  25.045   0.942
42697W        W15122  15.494  37.574   9.826
42698W        W15123  33.759  43.201   9.923
42699W        W15124  39.843   2.356   4.562
42700W        W15125  28.908  12.886  11.947
42701W        W15126  12.705  31.217  13.873
42702W        W15127   3.119   4.897   5.334
42703W        W15128   2.370  44.754   4.087
42704W        W15129  32.868  27.923  10.484
42705W        W15130  12.171  30.664  14.772
42706W        W15131   4.908  18.787  11.543
42707W        W15132   5.164  12.234  12.802
42708W        W15133   4.258  35.202   1.230
42709W        W15134  14.622  20.215  11.235
42710W        W15135  37.859  18.799   1.787
42711W        W15136  15.819   9.583   4.635
42712W        W15137  43.375  32.036  10.696
42713W        W15138  27.558   1.179  12.125
42714W        W15139   0.772  41.553  11.762
42715W        W15140  22.783  24.739  10.829
42716W        W15141  27.866   6.446  13.419
42717W        W15142   6.168  35.556   0.004
42718W        W15143  42.950  44.338  14.949
42719W        W15144  42.885  34.934  12.451
42720W        W15145  13.385  19.880   2.159
42721W        W15146  44.826  37.786  14.341
42722W        W15147  10.780  31.981   4.514
42723W        W15148  37.770  18.572   3.771
42724W        W15149  31.667  18.656   2.717
42725W        W15150  19.051  36.937   3.881
42726W        W15151  44.139  16.623   3.978
42727W        W15152  12.714  22.178  10.437
42728W        W15153   9.811  35.378  10.668
42729W        W15154  16.932  33.039  11.963
42730W        W15155   0.384  13.737   2.952
42731W        W15156   4.203  26.783   0.686
42732W        W15157   5.632  20.523   0.883
42733W        W15158  21.821  36.054   0.519
42734W        W15159  12.583  29.613   0.887
42735W        W15160  24.769  24.219  12.912
42736W        W15161  29.234  37.080   3.620
42737W        W15162  39.234  20.977   5.008
42738W        W15163   0.075   9.109  13.040
42739W        W15164  24.229  25.565  13.522
42740W        W15165  23.462   5.646  14.893
42741W        W15166  12.654  20.469  14.236
42742W        W15167  13.824   4.229   0.454
42743W        W15168   5.225   5.797  13.347
42744W        W15169  10.669  39.296   2.253
42745W        W15170  42.130  43.809   1.704
42746W        W15171   3.328  20.190  10.443
42747W        W15172  39.732   9.719  13.912
42748W        W15173  39.558  36.341   0.023
42749W        W15174   2.504  22.615  10.722
42750W        W15175  31.080  30.521  10.647
42751W        W15176  14.762   0.768   3.857
42752W        W15177  34.277  40.280  11.660
42753W        W15178  29.437  12.404  13.887
42754W        W15179  17.623  33.764   5.018
42755W        W15180   9.280  18.135   3.197
42756W        W15181  24.192   4.392   0.237
42757W        W15182  21.900   9.486  13.677
42758W        W15183  20.533  11.117   4.506
42759W        W15184  35.450   4.620   3.750
42760W        W15185  24.689  17.284   2.010
42761W        W15186  30.118  28.961  14.443
42762W        W15187  42.475  29.632   0.801
42763W        W15188  26.072  33.561  13.516
42764W        W15189  34.348   8.393  13.140
42765W        W15190  38.483  14.352   1.002
42766W        W15191  24.562  24.642   0.033
42767W        W15192  15.399   3.652   4.179
42768W        W15193  25.481   9.062  10.448
42769W        W15194   5.477  22.292  11.355
42770W        W15195  15.751  29.866  11.561
42771W        W15196  30.505  39.030   3.450
42772W        W15197  31.841  20.202   4.071
42773W        W15198  34.570  10.277   1.917
42774W        W15199  24.890  43.011   3.114
42775W        W15200  29.997  31.758   4.919
42776W        W15201   5.320  18.471   4.143
42777W        W15202   6.213  35.864   0.441
42778W        W15203  37.076  19.417  10.514
42779W        W15204  28.625   8.306   4.555
42780W        W15205  32.619  33.221  13.389
42781W        W15206  16.064  13.739  14.505
42782W        W15207  25.273   4.776  11.516
42783W        W15208  44.913  36.915  10.458
42784W        W15209  43.867  42.247  14.549
42785W        W15210  27.385  11.209  13.904
42786W        W15211  16.271   9.330   4.353
42787W        W15212  13.684  44.538   1.378
42788W        W15213  42.250   0.718  13.502
42789W        W15214  20.141  22.228  12.995
42790W        W15215  42.278  25.384   4.208
42791W        W15216   8.178   0.929  12.603
42792W        W15217  19.413  34.109   0.813
42793W        W15218  11.285  42.762   3.691
42794W        W15219   6.240   4.739  10.641
42795W        W15220  20.745  27.958   3.701
42796W        W15221  20.637  18.377   4.949
42797W        W15222  28.295   8.245  12.100
42798W        W15223  38.608  33.380  11.906
42799W        W15224   6.876  14.239  14.379
42800W        W15225  38.667  43.332   3.592
42801W        W15226  12.690   3.333   2.708
42802W        W15227  14.646   5.109  14.425
42803W        W15228  10.634  29.050  13.041
42804W        W15229  24.268  10.426   1.713
42805W        W15230   2.690  11.155  14.800
42806W        W15231  40.834  20.661   1.728
42807W        W15232  16.781  27.103  13.431
42808W        W15233  42.962  40.701   1.115
42809W        W15234  41.573  35.388   0.646
42810W        W15235   7.064  27.576   3.103
42811W        W15236  42.454  28.116  13.791
42812W        W15237  31.373  22.598  11.275
42813W        W15238  35.451  37.158  12.250
42814W        W15239   4.361   5.039  10.580
42815W        W15240   3.942  11.221  11.157
42816W        W15241   9.744  43.492  12.619
42817W        W15242  37.059  37.463  13.707
42818W        W15243   5.741  28.854  11.618
42819W        W15244  44.923  12.429   1.378
42820W        W15245  21.964   0.452   2.295
42821W        W15246  31.477   9.608   3.057
42822W        W15247  28.615  40.438  12.519
42823W        W15248  22.535  19.955   4.983
42824W        W15249  21.199  27.430  14.325
42825W        W15250  40.728   8.214  13.944
42826W        W15251  14.401   0.087  14.780
42827W        W15252  21.500  21.531   2.197
42828W        W15253  15.058  14.327  14.973
42829W        W15254  27.175   2.213   1.341
42830W        W15255   0.730   9.826  14.339
42831W        W15256   5.272   1.283   0.212
42832W        W15257  22.119  15.676  11.669
42833W        W15258  14.543  17.260  12.334
42834W        W15259   9.637   6.271  12.505
42835W        W15260  39.079  36.125   3.058
42836W        W15261  41.874  44.366  14.345
42837W        W15262   8.469  42.979  12.438
42838W        W15263  42.777  16.119  14.401
42839W        W15264   8.497  35.531   2.690
42840W        W15265  19.364  13.699   4.572
42841W        W15266  26.682   1.437  14.335
42842W        W15267  40.707  15.860   3.688
42843W        W15268  43.546  18.615   3.508
42844W        W15269  44.730  26.314  13.070
42845W        W15270  31.079  14.740  13.834
42846W        W15271  39.315  21.739  12.942
42847W        W15272   6.196  29.159  12.522
42848W        W15273  26.014  43.853  11.908
42849W        W15274  29.722  34.043  13.883
42850W        W15275  30.086   8.782  14.591
42851W        W15276  17.116  16.100  10.446
42852W        W15277  23.258  24.049   2.864
42853W        W15278  38.350  31.371   1.707
42854W        W15279  15.799  41.996  12.470
42855W        W15280  31.386  16.116  13.973
42856W        W15281  21.457   1.406   1.970
42857W        W15282   7.602  43.199  13.899
42858W        W15283  29.986  19.861  13.230
42859W        W15284   6.251  18.538  13.522
42860W        W15285  22.489   5.366  10.506
42861W        W15286  39.778  27.281   4.126
42862W        W15287   4.684  27.228  10.343
42863W        W15288   0.524  44.924  14.298
42864W        W15289   3.203  29.394   3.698
42865W        W15290  22.311  14.929  10.776
42866W        W15291   9.054  28.568  13.236
42867W        W15292  10.139  16.878   4.172
42868W        W15293  15.662  25.451  13.464
42869W        W15294  42.893  34.995  14.428
42870W        W15295  10.030  18.755   1.702
42871W        W15296  33.333  42.413  13.940
42872W        W15297  37.935  25.944  14.996
42873W        W15298   9.090  12.308   0.782
42874W        W15299   3.338  38.461  11.987
42875W        W15300  40.443  43.213   2.780
42876W        W15301  44.018   1.266   4.773
42877W        W15302  35.526   9.596   5.174
42878W        W15303  42.224  27.430  11.290
42879W        W15304  22.602  36.011  11.144
42880W        W15305  44.468   3.325  14.762
42881W        W15306  30.825  37.046  11.183
42882W        W15307  37.927  31.596   0.488
42883W        W15308  13.266  32.978  13.576
42884W        W15309  37.886  41.917   0.917
42885W        W15310  18.228  35.539   3.842
42886W        W15311   1.884  13.596   4.308
42887W        W15312  20.177  10.208  12.949
42888W        W15313  16.523  21.287   0.443
42889W        W15314  43.798  24.537   0.754
42890W        W15315   6.200   5.280  10.598
42891W        W15316  24.195  10.164   0.450
42892W        W15317  32.180  39.873   0.947
42893W        W15318  39.014  25.612  10.566
42894W        W15319  37.890   4.343  14.441
42895W        W15320  27.912  14.682  12.612
42896W        W15321  23.001  27.265   1.748
42897W        W15322   5.757   1.508  10.726
42898W        W15323  40.985  41.190   2.306
42899W        W15324  42.019   0.477   2.603
42900W        W15325  27.241  42.640   1.019
42901W        W15326  38.970  35.217   4.700
42902W        W15327   2.440  17.163  10.710
42903W        W15328   8.417   5.718   2.743
42904W        W15329  11.608  22.605  12.382
42905W        W15330  15.606  42.062  14.232
42906W        W15331  28.479  31.686  14.409
42907W        W15332   8.680   5.212   4.604
42908W        W15333  14.739  16.831  13.046
42909W        W15334  27.938   9.409  13.971
42910W        W15335  28.490  14.095   2.139
42911W        W15336  19.428  14.415   4.180
42912W        W15337  40.406  16.231  14.866
42913W        W15338  12.254  41.111  12.946
42914W        W15339  22.996  42.806  13.276
42915W        W15340  33.711  33.955   4.030
42916W        W15341  41.955  32.566   4.751
42917W        W15342  30.941  20.697  10.586
42918W        W15343  43.616   3.791   0.970
42919W        W15344  22.567  20.885  12.813
42920W        W15345  16.249  31.757  14.785
42921W        W15346  34.905  41.798   4.516
42922W        W15347  13.336  37.590  14.917
42923W        W15348  21.576  41.407  11.192
42924W        W15349  33.866  39.390  13.977
42925W        W15350  31.127   9.833  14.208
42926W        W15351   7.923   3.037  13.889
42927W        W15352  30.486  36.684   0.391
42928W        W15353  30.736  27.941   2.255
42929W        W15354  10.823  44.270  13.105
42930W        W15355  15.144   6.888   0.938
42931W        W15356  36.169  10.152  11.957
42932W        W15357  15.542   8.224   1.843
42933W        W15358   1.662  27.520  13.918
42934W        W15359  39.278  36.564  12.930
42935W        W15360  12.178   5.747   3.656
42936W        W15361   8.373  16.340   4.843
42937W        W15362  11.633  33.626   1.651
42938W        W15363  22.583  40.555  13.516
42939W        W15364  43.442  40.297   3.816
42940W        W15365   3.739  18.051  12.958
42941W        W15366  29.571   2.395   0.855
42942W        W15367  16.664  13.089  13.542
42943W        W15368  15.833  36.574  12.071
42944W        W15369  20.132   0.742   1.606
42945W        W15370  36.929  12.159   3.253
42946W        W15371  34.521   2.184  12.952
42947W        W15372   7.332  26.037  14.866
42948W        W15373  20.711  26.106  14.370
42949W        W15374   2.949  26.526  11.977
42950W        W15375  40.536  10.145   2.819
42951W        W15376  38.314  22.278  12.413
42952W        W15377  31.375  36.373  12.125
42953W        W15378  29.075   7.117  13.613
42954W        W15379   6.565  11.613  11.605
42955W        W15380   8.979  34.729   4.121
42956W        W15381  14.344  11.707   2.212
42957W        W15382  29.654  31.390   4.547
42958W        W15383   5.264  43.751   3.208
42959W        W15384  19.670  40.097  12.497
42960W        W15385  33.725   7.378  11.893
42961W        W15386  43.591  16.618  11.155
42962W        W15387  40.395  26.467   1.272
42963W        W15388  24.080  22.780  10.679
42964W        W15389  12.778  30.050   3.092
42965W        W15390  22.635  20.614   4.167
42966W        W15391  22.232   7.501   3.840
42967W        W15392  44.413  33.778   2.285
42968W        W15393  21.779  16.089   2.280
42969W        W15394  37.817  42.853  12.029
42970W        W15395  10.188  23.485  13.984
42971W        W15396  33.490  17.229  10.556
42972W        W15397  38.244  38.112   2.285
42973W        W15398  30.650   5.355   0.961
42974W        W15399  28.136  17.455   1.665
42975W        W15400   9.958  10.332  12.619
42976W        W15401  11.304   8.135  14.077
42977W        W15402  38.838  19.947   3.209
42978W        W15403   9.357  10.891   2.852
42979W        W15404  39.502  37.343   1.415
42980W        W15405   8.464   5.356  12.647
42981W        W15406  24.592  14.881  14.859
42982W        W15407  37.288  36.311  11.525
42983W        W15408  38.125  35.718   3.288
42984W        W15409   0.872  42.320   1.225
42985W        W15410  12.091  28.168  14.476
42986W        W15411  27.601  25.755  13.893
42987W        W15412  43.462  31.602   0.048
42988W        W15413  43.554  33.735   2.274
42989W        W15414   9.286   8.770  10.398
42990W        W15415  19.894   4.217  10.508
42991W        W15416  21.778  30.498  11.641
42992W        W15417   2.766   7.777  12.146
42993W        W15418  10.059  13.086  12.936
42994W        W15419  26.410  16.862   2.009
42995W        W15420   6.391   9.199  13.277
42996W        W15421   1.804  28.576   3.132
42997W        W15422   2.984  12.574  14.054
42998W        W15423  41.413  21.667  11.904
42999W        W15424  10.148   4.811  10.473
43000W        W15425  21.065  12.227   4.696
43001W        W15426  24.582  17.570  12.061
43002W        W15427  29.696  30.716   5.060
43003W        W15428  18.171  33.469   4.186
43004W        W15429  39.833  12.675  11.527
43005W        W15430  19.066  38.554  10.750
43006W        W15431   8.266  20.118   0.687
43007W        W15432  22.016  16.184   4.579
43008W        W15433  10.698   4.590   1.953
43009W        W15434  15.637  39.283   3.727
43010W        W15435   2.523  27.055  10.969
43011W        W15436  40.037  35.119  12.609
43012W        W15437   0.512  36.896  11.144
43013W        W15438  24.731  30.934   1.499
43014W        W15439  17.198  44.932  11.009
43015W        W15440  36.205  23.625  11.021
43016W        W15441  19.846  44.859   4.187
43017W        W15442  21.059  26.757   3.102
43018W        W15443  31.919  10.001  11.372
43019W        W15444  32.507  16.042   3.582
43020W        W15445  15.287  12.560   1.781
43021W        W15446  34.099  23.028  10.686
43022W        W15447   7.556  13.645   2.756
43023W        W15448  20.137  21.064  12.977
43024W        W15449  13.632   7.961   0.009
43025W        W15450  17.551  19.978   3.240
43026W        W15451   5.464  18.329  14.846
43027W        W15452   2.715  34.927  12.141
43028W        W15453  37.886  26.930  11.640
43029W        W15454  37.142  25.699  11.303
43030W        W15455  28.195  11.177   0.472
43031W        W15456  30.917  35.293  10.752
43032W        W15457  24.701  23.333   2.839
43033W        W15458  25.810  26.124  14.676
43034W        W15459  10.307  44.549  11.885
43035W        W15460  29.213  25.627   3.389
43036W        W15461  12.201  38.920   4.830
43037W        W15462  18.410  17.309   0.430
43038W        W15463  41.152   8.725  11.050
43039W        W15464  35.096  24.865  11.471
43040W        W15465   9.799  14.506   4.685
43041W        W15466  37.507  34.555  14.615
43042W        W15467   9.628  29.115  11.514
43043W        W15468  23.983  14.650  11.268
43044W        W15469  19.269  18.204   4.180
43045W        W15470  35.902  30.567   1.687
43046W        W15471   6.342  36.672   0.793
43047W        W15472  35.846  25.618   2.112
43048W        W15473   0.423  23.020   0.657
43049W        W15474  34.649  39.087  12.889
43050W        W15475   0.867   3.537   2.813
43051W        W15476  22.539  20.414   3.714
43052W        W15477  10.872  34.201   4.025
43053W        W15478  34.311  14.158   0.695
43054W        W15479  15.636  12.828  13.511
43055W        W15480  18.766   8.087   3.898
43056W        W15481  37.469  20.009  14.258
43057W        W15482  16.057  36.512   4.122
43058W        W15483  35.939  18.200   3.386
43059W        W15484   4.950   5.217  14.345
43060W        W15485   7.083   2.901   2.687
43061W        W15486  26.162  15.227   4.313
43062W        W15487  44.811  25.997  12.261
43063W        W15488  37.265  15.689   3.131
43064W        W15489   5.759  34.389  13.501
43065W        W15490   3.740  13.612   2.315
43066W        W15491  21.781  14.855  13.598
43067W        W15492  13.053  21.335   2.469
43068W        W15493   1.251  33.962   2.327
43069W        W15494  34.362   4.019  12.972
43070W        W15495   9.383  16.702   3.674
43071W        W15496  16.668   7.462   2.799
43072W        W15497  21.602   5.981  12.076
43073W        W15498  39.883  15.988  13.331
43074W        W15499   8.293  11.614  11.571
43075W        W15500  43.801  36.225   1.823
43076W        W15501  19.110  31.526  12.534
43077W        W15502  34.076  13.360   2.216
43078W        W15503   1.848  17.387   0.528
43079W        W15504  33.021  40.610  12.045
43080W        W15505  24.818  24.419  12.406
43081W        W15506  42.395  31.378  14.512
43082W        W15507  25.850  16.557  13.993
43083W        W15508  31.510   5.824   4.536
43084W        W15509  42.378   0.819   3.377
43085W        W15510  16.262  27.351   1.457
43086W        W15511  37.907  37.372  12.767
43087W        W15512  14.374   3.802   0.899
43088W        W15513  14.587  38.923  14.239
43089W        W15514  12.276  34.681  14.522
43090W        W15515  31.401  30.149   1.537
43091W        W15516  37.373   1.867  11.518
43092W        W15517  29.573  20.750  14.439
43093W        W15518   8.915  21.224  12.623
43094W        W15519  38.383  10.345  13.606
43095W        W15520  12.665  14.936   3.885
43096W        W15521  36.448  19.552   1.231
43097W        W15522  41.417  24.488   0.267
43098W        W15523  34.854   4.650   1.304
43099W        W15524  42.528  24.653  10.551
43100W        W15525  37.520  14.990  13.520
43101W        W15526  38.604  42.084   0.391
43102W        W15527  10.860  12.567   0.280
43103W        W15528  28.023  28.137  14.559
43104W        W15529   4.478  22.189  11.457
43105W        W15530  39.735   5.480   3.744
43106W        W15531  21.037  18.117   4.741
43107W        W15532  19.267   2.982   2.689
43108W        W15533   7.908   8.926  12.974
43109W        W15534   7.685  24.706   2.904
43110W        W15535  15.198  22.492   0.950
43111W        W15536  13.623  14.207   0.793
43112W        W15537  32.871   9.817   1.343
43113W        W15538   4.219   3.175  12.796
43114W        W15539  41.461  14.100   3.671
43115W        W15540  28.054  24.443  11.942
43116W        W15541  15.718  35.947  13.668
43117W        W15542   9.585  19.650  13.717
43118W        W15543  39.094  16.138  13.824
43119W        W15544  39.804  26.216   2.277
43120W        W15545  28.447   3.945  12.020
43121W        W15546   1.497  20.104   1.508
43122W        W15547  23.453  35.041  12.451
43123W        W15548  11.544  27.630   1.556
43124W        W15549  11.136  43.997  11.917
43125W        W15550  23.801  14.612   2.208
43126W        W15551  27.896  41.164   4.529
43127W        W15552  20.207  35.968  14.448
43128W        W15553  36.941  26.627   4.672
43129W        W15554  23.684  35.350   3.710
43130W        W15555   9.698  14.277  11.116
43131W        W15556  40.570  18.796   1.801
43132W        W15557  22.148  20.081  13.527
43133W        W15558  29.060  19.897   3.213
43134W        W15559  16.243  12.308   2.334
43135W        W15560   0.659  36.870  14.280
43136W        W15561   5.366  17.101  12.491
43137W        W15562  32.380   9.849   5.002
43138W        W15563  39.102   0.827   2.700
43139W        W15564  44.053  21.669   1.340
43140W        W15565  23.528   5.528  14.391
43141W        W15566  11.292  44.917  10.987
43142W        W15567   2.819  17.913  14.327
43143W        W15568  23.414  17.243  14.835
43144W        W15569  35.052  23.570   0.522
43145W        W15570  23.769  18.249   0.413
43146W        W15571  40.571  22.120  10.934
43147W        W15572  41.438  22.971  13.867
43148W        W15573   5.858  34.627  11.343
43149W        W15574  13.053  23.854  11.497
43150W        W15575   0.437  37.932   3.125
43151W        W15576  26.624  28.208  14.484
43152W        W15577  30.926  18.456   4.018
43153W        W15578  29.027  40.894  10.543
43154W        W15579  23.952  37.799   0.700
43155W        W15580  23.067   2.311  14.372
43156W        W15581   6.188  36.939  11.580
43157W        W15582   2.474  37.313   0.288
43158W        W15583  16.744  43.413  12.574
43159W        W15584  18.826   5.802  10.519
43160W        W15585  14.682  17.036   2.381
43161W        W15586  28.566  42.736   4.755
43162W        W15587   0.853  25.265  13.174
43163W        W15588  44.390  27.844  11.545
43164W        W15589  25.998  27.054   3.607
43165W        W15590  10.435  43.527   0.497
43166W        W15591  17.060  38.075  14.405
43167W        W15592   7.345  15.376   0.283
43168W        W15593  17.816  36.986  14.879
43169W        W15594  27.575  35.885  12.994
43170W        W15595  12.786  13.849  12.019
43171W        W15596  43.857  11.676  11.021
43172W        W15597  27.623  13.398   3.386
43173W        W15598  22.316  21.342   0.429
43174W        W15599  31.538  38.460  13.620
43175W        W15600  26.928  16.860  14.148
43176W        W15601   5.807  27.221  12.624
43177W        W15602  24.089  39.361  14.690
43178W        W15603   1.068   0.664  10.183
43179W        W15604  41.785  20.972   2.159
43180W        W15605  28.259   3.736   0.992
43181W        W15606  24.923  14.901  11.633
43182W        W15607   1.733  16.416  12.577
43183W        W15608   9.978  19.162  11.083
43184W        W15609  22.062  25.144  11.487
43185W        W15610  19.694  17.126  12.384
43186W        W15611  26.078  42.948  11.012
43187W        W15612  29.398   7.141  11.944
43188W        W15613  14.844  19.273   3.460
43189W        W15614   0.754  36.327  14.740
43190W        W15615  34.337  33.078   4.979
43191W        W15616  41.791  27.256   0.294
43192W        W15617  21.589  39.393   1.751
43193W        W15618   5.257  29.179   1.282
43194W        W15619  35.871  33.075  13.678
43195W        W15620  39.223  34.115  11.097
43196W        W15621  36.631  19.582   4.100
43197W        W15622   8.824  28.132   2.597
43198W        W15623  25.758   2.195   4.303
43199W        W15624  16.097   3.277   0.993
43200W        W15625  33.514  20.717   0.887
43201W        W15626   9.323  35.878   4.469
43202W        W15627  26.058  21.621  13.092
43203W        W15628  33.197  31.930   4.149
43204W        W15629   5.433  30.357  11.615
43205W        W15630  15.576  23.889  12.247
43206W        W15631  34.751  32.942   0.600
43207W        W15632  26.242   1.751  14.364
43208W        W15633  11.650  43.390  11.468
43209W        W15634  19.105  43.790  12.274
43210W        W15635  14.319  40.727   2.382
43211W        W15636  13.853  11.605   2.333
43212W        W15637   9.725  42.518  11.931
43213W        W15638  38.390  26.962   2.018
43214W        W15639  12.599   3.247   0.534
43215W        W15640  37.322  24.221  12.828
43216W        W15641   7.724   1.983  14.823
43217W        W15642  15.902   5.981  13.873
43218W        W15643  40.597  30.567   2.322
43219W        W15644  25.655  33.193   0.859
43220W        W15645   3.011  41.527  11.284
43221W        W15646  36.331  31.594   2.923
43222W        W15647  19.676  30.748  10.546
43223W        W15648  10.802  14.990   4.061
43224W        W15649   7.657  23.559   2.205
43225W        W15650   8.264  38.302   3.410
43226W        W15651  33.530   7.955   2.656
43227W        W15652  18.665  44.961  12.897
43228W        W15653  39.920   5.497  11.531
43229W        W15654   0.301  28.961  11.410
43230W        W15655  27.098  33.168   4.931
43231W        W15656  22.587  24.939  12.573
43232W        W15657   7.182   6.110   2.781
43233W        W15658   8.991  17.212  11.110
43234W        W15659  34.421   8.389   4.597
43235W        W15660  21.996   5.791   1.797
43236W        W15661   6.778  32.174   4.033
43237W        W15662  11.420   6.892   0.289
43238W        W15663  42.652  22.451  13.314
43239W        W15664  36.111  38.453   1.238
43240W        W15665  20.773  17.096  13.851
43241W        W15666  31.698   1.243  13.065
43242W        W15667  31.135   4.262  10.739
43243W        W15668  21.314   3.599  11.625
43244W        W15669  25.061  37.646   4.431
43245W        W15670  22.076  41.250  13.427
43246W        W15671  15.556  36.625   4.169
43247W        W15672  34.144   4.595   0.840
43248W        W15673   9.981  39.488   4.088
43249W        W15674  27.154  26.538  12.170
43250W        W15675   6.428   0.917   1.002
43251W        W15676  39.564  19.479  11.339
43252W        W15677  23.255   0.570   0.830
43253W        W15678  39.963  10.910  13.563
43254W        W15679  13.691  18.562   2.347
43255W        W15680  28.554  21.478  10.809
43256W        W15681  34.539   9.659   0.002
43257W        W15682  18.220   5.856  13.127
43258W        W15683  34.593  26.521  14.478
43259W        W15684  34.212  17.879   2.262
43260W        W15685  13.779  44.251   3.344
43261W        W15686  18.708  14.706   0.464
43262W        W15687  34.819  27.530   3.637
43263W        W15688  19.631  42.215  13.592
43264W        W15689  29.915   2.948   2.397
43265W        W15690  42.371  43.789   2.638
43266W        W15691   2.909  18.673   3.385
43267W        W15692  28.639  36.456   1.176
43268W        W15693   1.992  25.500   1.311
43269W        W15694   8.490  34.883  10.768
43270W        W15695  36.118  44.045   1.404
43271W        W15696  27.247  13.268   3.708
43272W        W15697  40.063  28.745   3.632
43273W        W15698  39.098  27.351   0.920
43274W        W15699  34.072  15.569  12.643
43275W        W15700  24.614  11.110  10.724
43276W        W15701  40.783  32.508  12.742
43277W        W15702   1.829  36.633  11.467
43278W        W15703  30.105  34.338   1.906
43279W        W15704  19.305  21.808   3.163
43280W        W15705  11.995  11.320  13.209
43281W        W15706  23.708   1.527   4.087
43282W        W15707  28.405   9.204   1.885
43283W        W15708  24.464  37.209   1.999
43284W        W15709  40.590   2.390  12.458
43285W        W15710   7.455   4.774  12.698
43286W        W15711   1.975  10.412   4.086
43287W        W15712   1.970  23.584   0.347
43288W        W15713   9.371  22.468   1.266
43289W        W15714  26.941   6.640   4.447
43290W        W15715  23.917  32.921  14.302
43291W        W15716  19.587  35.616   2.191
43292W        W15717  40.418   0.724  14.513
43293W        W15718   2.647  25.612   4.233
43294W        W15719  34.525  13.047   4.789
43295W        W15720  11.676  11.703  12.963
43296W        W15721  41.380  41.558  12.731
43297W        W15722  43.533  22.004   2.303
43298W        W15723   1.786  43.816  11.968
43299W        W15724  20.026  34.935  12.941
43300W        W15725  19.557  43.036   4.047
43301W        W15726  27.807  14.707   2.400
43302W        W15727  14.330  24.554   1.917
43303W        W15728  22.010  15.085   1.162
43304W        W15729  14.738  13.684  13.925
43305W        W15730   6.707  12.101   0.372
43306W        W15731  29.723  21.110  10.416
43307W        W15732   9.849   0.784   2.777
43308W        W15733   5.744  42.914  10.544
43309W        W15734   5.921  18.632  11.935
43310W        W15735  24.351  32.278   5.203
43311W        W15736  10.324  40.174  14.185
43312W        W15737  37.057   9.951   0.832
43313W        W15738   8.714  39.996  10.883
43314W        W15739  16.686  15.786  13.052
43315W        W15740  32.743  19.295  12.591
43316W        W15741   4.225  12.167  10.636
43317W        W15742  43.343  17.230  10.041
43318W        W15743  11.915  27.074   4.189
43319W        W15744  40.104  25.622   3.821
43320W        W15745  10.812  43.022  10.950
43321W        W15746  12.718  40.614  10.737
43322W        W15747   3.898  29.634   2.466
43323W        W15748  22.250  22.784   3.681
43324W        W15749   0.953  18.703   2.827
43325W        W15750  32.513  40.387  10.871
43326W        W15751  29.354  19.298   4.970
43327W        W15752  29.018  30.561   1.285
43328W        W15753   5.811  16.897  12.842
43329W        W15754  34.998  42.452  13.408
43330W        W15755  37.770   7.444   5.455
43331W        W15756  43.899  15.285   3.439
43332W        W15757  17.236  21.942  14.137
43333W        W15758   6.667  26.653  14.822
43334W        W15759   5.483  42.456   4.413
43335W        W15760   5.446  28.992   1.725
43336W        W15761  21.940  40.939  12.986
43337W        W15762  41.540  16.585   4.081
43338W        W15763  38.218  18.550   0.309
43339W        W15764  13.561  17.523   1.739
43340W        W15765  31.421  23.186   2.259
43341W        W15766   2.667  23.568  13.850
43342W        W15767  29.263   8.125   2.996
43343W        W15768  39.412  20.214  11.970
43344W        W15769  44.890  11.108  13.880
43345W        W15770  39.333  29.976  10.784
43346W        W15771  28.899  40.462  10.956
43347W        W15772   4.234  17.137  10.296
43348W        W15773  18.772  12.388  12.552
43349W        W15774   0.225   8.638  12.482
43350W        W15775  40.047  25.477  11.097
43351W        W15776  40.005   3.198   1.762
43352W        W15777   6.499  24.524   3.705
43353W        W15778  40.651  10.440   1.196
43354W        W15779   9.916  38.148   3.690
43355W        W15780   5.848  24.420   1.712
43356W        W15781  33.486  16.314  14.879
43357W        W15782  13.310  24.763   0.295
43358W        W15783  10.608   1.418  13.482
43359W        W15784  22.658  41.465   1.960
43360W        W15785  13.536  31.589  13.977
43361W        W15786  39.696  24.619   1.466
43362W        W15787  43.977  35.673   3.830
43363W        W15788  22.940  40.834  13.266
43364W        W15789   0.497   6.957  13.833
43365W        W15790  29.242  19.258  11.954
43366W        W15791  27.735   3.854  10.574
43367W        W15792  38.550  34.987  14.973
43368W        W15793   4.373  25.346   3.322
43369W        W15794  26.414  41.921   2.603
43370W        W15795  24.960  23.250  11.122
43371W        W15796  43.455  41.708   3.786
43372W        W15797  34.895  44.820   0.565
43373W        W15798  16.587   7.409  12.175
43374W        W15799   9.487  24.297  11.168
43375W        W15800  24.886   1.609   3.878
43376W        W15801  13.936   3.880   9.886
43377W        W15802  20.115  19.541   3.607
43378W        W15803  21.485   9.959  11.184
43379W        W15804   2.742   2.388  14.467
43380W        W15805  18.270   7.885  12.867
43381W        W15806  23.231  34.070   1.663
43382W        W15807  33.973  13.067  14.479
43383W        W15808  19.948  12.776   0.183
43384W        W15809  24.007  10.306   2.134
43385W        W15810   4.589  14.174  10.021
43386W        W15811  10.571  34.416   0.730
43387W        W15812  23.180  11.692  14.159
43388W        W15813  18.715  23.584  12.335
43389W        W15814  41.493  38.127   1.279
43390W        W15815  11.419  23.217  12.643
43391W        W15816   3.970   8.386   1.485
43392W        W15817  21.606  21.588  11.465
43393W        W15818  27.254  11.203   2.789
43394W        W15819  13.031  17.678  11.889
43395W        W15820  25.567   5.925  12.016
43396W        W15821  44.831  43.510   0.022
43397W        W15822  40.650  18.189   3.228
43398W        W15823  31.421  41.413   3.107
43399W        W15824   1.183  26.005   1.388
43400W        W15825  10.086  14.715  14.525
43401W        W15826   2.508  41.679  11.204
43402W        W15827  24.139  23.962   3.173
43403W        W15828  35.551  16.030  14.961
43404W        W15829  43.346  14.773  14.349
43405W        W15830  43.350   6.210  13.032
43406W        W15831   3.374  18.836   2.567
43407W        W15832  27.096  41.361   0.959
43408W        W15833  14.320  44.517  11.198
43409W        W15834  11.792   6.897  12.741
43410W        W15835  42.485   2.950   1.717
43411W        W15836  25.520  27.016  12.038
43412W        W15837  43.076   5.734  14.852
43413W        W15838   6.231  14.401   4.999
43414W        W15839  38.286  19.108   3.397
43415W        W15840  18.036  33.923   2.392
43416W        W15841   4.275  41.434   4.472
43417W        W15842  37.615   3.495   4.142
43418W        W15843  43.442   5.608   4.347
43419W        W15844  19.464  11.878  13.282
43420W        W15845  42.923   8.181   0.934
43421W        W15846  18.170  12.251   2.389
43422W        W15847  11.859  10.689   4.230
43423W        W15848  20.720  16.690  12.550
43424W        W15849   1.126  16.590  14.528
43425W        W15850  15.513  28.930  10.888
43426W        W15851   0.323  33.373   0.433
43427W        W15852  19.560   5.705  14.018
43428W        W15853  24.153  23.831  12.517
43429W        W15854  38.303   6.674   0.231
43430W        W15855  22.169  13.314   2.316
43431W        W15856  22.400  31.472  11.103
43432W        W15857  25.915   1.963   1.302
43433W        W15858  32.663  22.079   4.864
43434W        W15859  38.408   7.450  13.505
43435W        W15860  36.140   1.283   1.346
43436W        W15861  13.453  12.148  14.404
43437W        W15862  29.921  43.697  13.285
43438W        W15863   9.113  14.913  11.047
43439W        W15864  30.626   1.027   0.318
43440W        W15865  24.311   4.023  11.926
43441W        W15866  42.323  22.012  12.586
43442W        W15867   3.670  44.382  13.130
43443W        W15868  10.352   4.720  12.568
43444W        W15869  37.510  17.751  12.464
43445W        W15870   1.864  10.842   0.241
43446W        W15871   9.184  22.039   0.160
43447W        W15872  11.203  38.277  12.940
43448W        W15873  42.903   5.838  12.415
43449W        W15874  19.740  28.216  10.907
43450W        W15875  28.498  24.704   2.658
43451W        W15876  39.203  26.813   0.816
43452W        W15877  12.520  17.676   1.802
43453W        W15878  15.695  10.234  10.296
43454W        W15879  20.113  39.506  10.839
43455W        W15880  13.536  19.126  14.652
43456W        W15881  12.546   9.953   3.539
43457W        W15882  14.659   5.121  11.710
43458W        W15883   6.619  28.661   4.019
43459W        W15884  42.286   2.413   0.818
43460W        W15885  22.346  27.402  11.093
43461W        W15886   8.613  43.304   0.129
43462W        W15887  16.634   8.170  13.315
43463W        W15888  18.994   4.950   4.344
43464W        W15889  31.464   3.676  14.780
43465W        W15890  43.559  18.625   0.737
43466W        W15891  10.286   9.545  12.495
43467W        W15892   9.695   2.851   4.613
43468W        W15893  19.330   9.364  11.138
43469W        W15894   0.671   9.916  13.083
43470W        W15895   2.799  35.644   1.279
43471W        W15896  15.254  19.974   2.030
43472W        W15897   0.812  11.351   4.587
43473W        W15898  11.895  15.108  11.892
43474W        W15899  43.945  43.833  11.726
43475W        W15900  25.289  17.991  11.197
43476W        W15901  39.329  41.768  13.072
43477W        W15902  14.261  26.607  11.116
43478W        W15903  41.216  29.192   1.226
43479W        W15904   5.473  24.108  12.909
43480W        W15905  13.315  22.257   3.528
43481W        W15906  43.019   6.485   0.746
43482W        W15907  30.165   9.434  11.184
43483W        W15908  17.025  34.097   4.586
43484W        W15909  40.366  20.636   1.944
43485W        W15910  41.432   1.872   3.682
43486W        W15911  27.121  21.684  11.072
43487W        W15912   0.576  20.220  10.474
43488W        W15913   6.940  18.791  11.766
43489W        W15914  15.245  33.934   2.545
43490W        W15915  36.625  11.903   2.899
43491W        W15916  33.440  28.579  13.539
43492W        W15917  29.818  36.129  11.085
43493W        W15918   0.526  38.681  13.455
43494W        W15919   1.704  16.180  12.134
43495W        W15920   1.700  13.378  11.880
43496W        W15921  38.549  23.770  10.509
43497W        W15922  32.049  44.790  11.191
43498W        W15923  10.565  15.170   2.248
43499W        W15924  14.660  34.328   1.936
43500W        W15925  42.866  36.378  14.101
43501W        W15926   6.889   7.853   1.993
43502W        W15927  23.152  32.578  11.140
43503W        W15928  27.425   0.439   4.156
43504W        W15929  14.827  40.986   3.576
43505W        W15930  34.953  41.887  10.732
43506W        W15931  21.719  38.842  10.815
43507W        W15932  18.330  13.254  11.196
43508W        W15933  34.240   1.484   1.107
43509W        W15934   4.287  42.878   1.717
43510W        W15935  41.518   6.495  14.513
43511W        W15936  23.012  23.052   1.091
43512W        W15937   3.806  34.594   0.408
43513W        W15938  31.062  30.206  14.787
43514W        W15939  23.653  44.283  11.443
43515W        W15940  29.936  27.195   2.353
43516W        W15941  13.279  32.938   2.727
43517W        W15942  40.995  34.991  13.750
43518W        W15943   9.272  40.677   1.437
43519W        W15944  42.925  39.611  13.299
43520W        W15945  16.123  30.461   4.263
43521W        W15946  18.811  37.400   1.140
43522W        W15947  11.713  10.460   9.978
43523W        W15948  27.406  10.325  11.649
43524W        W15949   8.088  37.382   2.087
43525W        W15950  30.597  42.709   3.126
43526W        W15951  22.495  44.453  14.139
43527W        W15952   1.946  29.137   2.604
43528W        W15953  19.962   2.909   0.074
43529W        W15954  39.957  32.843  13.340
43530W        W15955  40.451  41.187   5.076
43531W        W15956  35.112   7.441  12.577
43532W        W15957  30.035  39.132   3.212
43533W        W15958  42.859  30.702   1.845
43534W        W15959  36.361  37.143  10.751
43535W        W15960   7.431  15.822  14.366
43536W        W15961  39.197  42.126   2.045
43537W        W15962  25.714   0.738  14.887
43538W        W15963  27.754  13.552   0.916
43539W        W15964  32.035  16.548  12.621
43540W        W15965  44.795  10.111   2.236
43541W        W15966  22.080  17.096   0.479
43542W        W15967  42.767   8.081  12.997
43543W        W15968  23.575  20.159   4.418
43544W        W15969  32.531  23.773  14.720
43545W        W15970  11.331  28.465  12.678
43546W        W15971  33.395  18.523  11.571
43547W        W15972  27.724  14.002  13.863
43548W        W15973  33.166  25.728   2.114
43549W        W15974  37.073  19.050  12.390
43550W        W15975  33.008  41.259   0.578
43551W        W15976  33.888  35.078  13.028
43552W        W15977  26.013  16.042   1.332
43553W        W15978  24.330   1.637  13.337
43554W        W15979  31.071   6.999  12.060
43555W        W15980  14.056   2.221  14.335
43556W        W15981  39.521  23.752  11.013
43557W        W15982  32.170  34.571   0.573
43558W        W15983  40.968  43.709  13.037
43559W        W15984  11.390  25.607   1.517
43560W        W15985  25.168   7.313  14.666
43561W        W15986  24.416  17.214  14.933
43562W        W15987   5.570  28.658   2.866
43563W        W15988  19.048   6.459  12.609
43564W        W15989  23.597  44.026   1.203
43565W        W15990  20.053  25.427  14.467
43566W        W15991  43.973  34.123  10.625
43567W        W15992  30.627   8.701   4.465
43568W        W15993  31.662  37.022  11.586
43569W        W15994  33.548  13.258  14.277
43570W        W15995  12.431  16.494   2.670
43571W        W15996   5.763   5.875  11.177
43572W        W15997  43.975  28.643   2.348
43573W        W15998  35.997  20.361   4.278
43574W        W15999  34.824   7.166   1.319
43575W        W16000  13.744  11.075  12.570
43576W        W16001  23.634  33.154   3.306
43577W        W16002  31.256   1.348   4.120
43578W        W16003  24.687  43.006   1.412
43579W        W16004  32.779  25.140  12.588
43580W        W16005  10.369   2.898   0.533
43581W        W16006  17.748  37.065  12.045
43582W        W16007  30.943  25.983   3.636
43583W        W16008  35.099   1.448   2.373
43584W        W16009  33.023   4.329  12.440
43585W        W16010   5.364  36.269  11.519
43586W        W16011  32.023  42.076  12.936
43587W        W16012  10.798  39.941  14.084
43588W        W16013  11.457  21.639  11.084
43589W        W16014   3.083  27.863   0.448
43590W        W16015  40.763   7.901  12.444
43591W        W16016  15.117  40.252   0.948
43592W        W16017  40.356   2.249   4.494
43593W        W16018   7.612   1.443   1.877
43594W        W16019  16.731  27.610   0.905
43595W        W16020  20.667  23.272   3.028
43596W        W16021  31.994   7.810   1.825
43597W        W16022  15.046  28.037  14.510
43598W        W16023   3.112  38.897  12.133
43599W        W16024  37.386   6.474   3.026
43600W        W16025  43.912   4.874  11.187
43601W        W16026  28.358  37.625   4.324
43602W        W16027  14.964  33.006  11.192
43603W        W16028  26.655   1.358   4.619
43604W        W16029  37.426   6.587   4.080
43605W        W16030   1.617  22.565   0.106
43606W        W16031   0.922   0.390   2.610
43607W        W16032   7.013  43.348   0.912
43608W        W16033  18.749  37.473   4.758
43609W        W16034  14.636   9.046   4.863
43610W        W16035  27.048  43.385   2.434
43611W        W16036  25.205  28.153  13.420
43612W        W16037  20.613  34.629  14.076
43613W        W16038  39.029  35.453  13.094
43614W        W16039  38.990  39.767  11.226
43615W        W16040  41.990   6.380   1.842
43616W        W16041  41.477   4.892  13.570
43617W        W16042  38.607  27.150   2.530
43618W        W16043  18.513  26.865  13.995
43619W        W16044  17.525  21.204  14.303
43620W        W16045  31.147  29.534   2.208
43621W        W16046   8.638  16.567   0.838
43622W        W16047  16.097  32.451   9.834
43623W        W16048  21.782   3.953  11.630
43624W        W16049  24.120  33.483  11.088
43625W        W16050  17.313  24.718   2.213
43626W        W16051   8.659  26.610   5.175
43627W        W16052  15.846  20.823   3.201
43628W        W16053  43.283  30.721  13.878
43629W        W16054  32.096  34.944  10.579
43630W        W16055  35.545  15.535   3.689
43631W        W16056  26.696  26.580   3.577
43632W        W16057  14.728   6.462   2.832
43633W        W16058  43.278   6.186   2.649
43634W        W16059   6.317  23.263   2.285
43635W        W16060  37.913  24.560  12.531
43636W        W16061   9.804  33.533   2.865
43637W        W16062  28.612  35.003   2.553
43638W        W16063  43.758  31.372   4.213
43639W        W16064   0.871  36.792  13.490
43640W        W16065   4.953  15.195  13.204
43641W        W16066  11.107  25.699   3.324
43642W        W16067  33.641  39.936   3.281
43643W        W16068   8.158  24.677   1.695
43644W        W16069  12.829  34.213   3.552
43645W        W16070  21.744  42.909   3.750
43646W        W16071   5.701  13.198   4.897
43647W        W16072  12.228   8.429  13.300
43648W        W16073   3.686  12.132  11.552
43649W        W16074  40.041  30.882  13.478
43650W        W16075  20.595  40.887  13.533
43651W        W16076  42.534   4.598  11.081
43652W        W16077   1.411  27.208  12.124
43653W        W16078  37.037  24.175  13.929
43654W        W16079  11.545  35.907   1.570
43655W        W16080  44.848  41.942  13.109
43656W        W16081  29.111   6.377   4.600
43657W        W16082  23.087   3.697   3.631
43658W        W16083  18.668  37.558   2.109
43659W        W16084  33.792   9.770   4.306
43660W        W16085  40.073   7.803  11.071
43661W        W16086  12.539   2.381  14.065
43662W        W16087  30.619   1.826   2.242
43663W        W16088  37.919  44.725  14.531
43664W        W16089  44.964   6.829  11.169
43665W        W16090  13.591  19.238   4.207
43666W        W16091  37.450  11.277  10.362
43667W        W16092  19.259  42.562  13.562
43668W        W16093   7.283  10.764   2.808
43669W        W16094  37.517   7.455   2.261
43670W        W16095  27.421  14.233  11.671
43671W        W16096  44.869  33.475   4.605
43672W        W16097  10.387  31.488   4.206
43673W        W16098  20.586  37.964  11.315
43674W        W16099   0.863   6.164  13.319
43675W        W16100  26.987  24.463  13.240
43676W        W16101  34.565  34.586  14.460
43677W        W16102  31.655  35.553  13.561
43678W        W16103  42.917  17.015   2.122
43679W        W16104   5.147   2.396  11.942
43680W        W16105  40.891   4.257  11.631
43681W        W16106   9.311  13.076  12.412
43682W        W16107  43.025   4.315  12.133
43683W        W16108  44.495  16.883  13.246
43684W        W16109  20.130  13.747   4.090
43685W        W16110  11.714  43.665  14.716
43686W        W16111  15.290   9.905  14.893
43687W        W16112   2.512   0.418   4.513
43688W        W16113  40.570  14.857   4.165
43689W        W16114  38.546  15.740  12.128
43690W        W16115  33.024  43.181  11.698
43691W        W16116  42.278   3.706  11.177
43692W        W16117   8.405  10.406   4.261
43693W        W16118  11.268   1.393   3.548
43694W        W16119  23.424  10.881   1.376
43695W        W16120  30.196  15.937   4.959
43696W        W16121  32.682  10.184   1.746
43697W        W16122  32.424  39.580  11.531
43698W        W16123  27.752  19.753  12.983
43699W        W16124  35.580   5.152   3.651
43700W        W16125  21.980  25.226   2.753
43701W        W16126  18.339  39.382   1.321
43702W        W16127  28.651  31.581   2.204
43703W        W16128   9.839   8.484  10.968
43704W        W16129  16.152  11.255   2.542
43705W        W16130  24.877  38.429  13.344
43706W        W16131  23.111   2.385  11.845
43707W        W16132  32.239  19.421  12.511
43708W        W16133  38.606  40.473  14.282
43709W        W16134  11.206   5.204   0.972
43710W        W16135  26.469  25.031  14.323
43711W        W16136  31.450  32.652  12.009
43712W        W16137  23.468  24.101  11.017
43713W        W16138   2.376  42.025   2.957
43714W        W16139   9.291  26.794  13.466
43715W        W16140   0.846  21.287   1.924
43716W        W16141  36.937   3.203  14.436
43717W        W16142  12.390   5.382   0.449
43718W        W16143   0.754   1.929   2.470
43719W        W16144  23.477   0.983  14.314
43720W        W16145  28.129  40.020   2.627
43721W        W16146   0.292  26.190   4.568
43722W        W16147   8.921   9.782  12.685
43723W        W16148  16.603  25.785   1.772
43724W        W16149  44.364  39.785   3.432
43725W        W16150  10.291   9.073  14.745
43726W        W16151  41.102   5.772   0.418
43727W        W16152   9.985  18.614   4.738
43728W        W16153   0.490  13.114   1.129
43729W        W16154  18.521  23.437  11.862
43730W        W16155  38.525  14.913   3.497
43731W        W16156   7.297  36.005   4.960
43732W        W16157  36.859  33.204  10.786
43733W        W16158   0.681  32.236   0.539
43734W        W16159  11.554  28.278   3.549
43735W        W16160  25.533  31.076  11.401
43736W        W16161  39.781  34.924   3.181
43737W        W16162   0.653  40.028  12.981
43738W        W16163  11.564  44.446   4.985
43739W        W16164  15.845   0.711   2.373
43740W        W16165  26.905  11.010  13.376
43741W        W16166   4.362  16.541  12.157
43742W        W16167  34.919   0.332  11.973
43743W        W16168   3.400  38.414   2.626
43744W        W16169   0.310  44.245   1.330
43745W        W16170   8.600  15.069   3.757
43746W        W16171  41.552  15.748   1.378
43747W        W16172  44.220  10.019  12.620
43748W        W16173  14.474  23.535  14.849
43749W        W16174  41.319   0.860   0.014
43750W        W16175  13.727   8.844  12.199
43751W        W16176  18.348  34.049   3.357
43752W        W16177  13.161   7.141  14.002
43753W        W16178  31.126   6.832  13.501
43754W        W16179   8.118  13.423  13.817
43755W        W16180  24.148  43.378  13.378
43756W        W16181  27.248  31.606   3.724
43757W        W16182   7.451  27.369   1.399
43758W        W16183  18.804  36.943   0.002
43759W        W16184   5.010  35.127  10.542
43760W        W16185  10.625  39.994  11.577
43761W        W16186  27.587  19.058  11.668
43762W        W16187   2.875  13.300  10.691
43763W        W16188   0.296  33.146  14.005
43764W        W16189   3.703  16.620  14.441
43765W        W16190  19.849  19.029  14.985
43766W        W16191  14.632  28.982  14.444
43767W        W16192  37.914  12.616   0.423
43768W        W16193  10.073   8.743  13.796
43769W        W16194  13.166  17.358  10.991
43770W        W16195  33.933  22.545   2.351
43771W        W16196  18.657  13.182   4.317
43772W        W16197  30.930  31.632  13.114
43773W        W16198  30.389   4.889  10.601
43774W        W16199  35.800  31.422  13.311
43775W        W16200  30.072  43.913   2.782
43776W        W16201  34.617  20.545   2.722
43777W        W16202  33.488  10.386   3.689
43778W        W16203  29.700  34.573  14.060
43779W        W16204  34.341  22.807   0.325
43780W        W16205  11.718  27.659   2.060
43781W        W16206  44.411  33.478   9.811
43782W        W16207  42.894   2.787   4.727
43783W        W16208  43.785  14.740  12.849
43784W        W16209   8.282  25.763  14.067
43785W        W16210   6.517  36.871  14.402
43786W        W16211  24.661  38.537  11.031
43787W        W16212  41.231  29.597  11.654
43788W        W16213   4.655  44.782  13.549
43789W        W16214   0.307  11.841   1.740
43790W        W16215  39.628  40.991  11.159
43791W        W16216  41.897  37.938  12.054
43792W        W16217  24.962  10.275  10.576
43793W        W16218  32.751  29.949   2.850
43794W        W16219  19.810  29.475  14.779
43795W        W16220  32.141   3.013  11.988
43796W        W16221   2.183   2.652  10.920
43797W        W16222  40.539  16.012   2.705
43798W        W16223  28.098  21.551   1.909
43799W        W16224  37.369  38.019   4.594
43800W        W16225  37.924  41.347  13.844
43801W        W16226   7.990  30.466  14.599
43802W        W16227   7.120  33.384  14.672
43803W        W16228  20.466  12.123  10.655
43804W        W16229  24.003  20.700  11.523
43805W        W16230  23.415  24.768   1.559
43806W        W16231  40.348  36.359   3.769
43807W        W16232  10.875  40.366   0.172
43808W        W16233  28.787  37.822   4.579
43809W        W16234  33.582  31.615   2.736
43810W        W16235   4.063  34.676   4.521
43811W        W16236  44.297  13.681   2.768
43812W        W16237   5.970  24.039  12.986
43813W        W16238   3.651  11.667  11.163
43814W        W16239  39.822  10.632   0.076
43815W        W16240  39.492  15.190   0.036
43816W        W16241  19.809  43.441   2.769
43817W        W16242  15.776  39.782   0.001
43818W        W16243  21.068  17.597   3.013
43819W        W16244   8.321  35.310  11.119
43820W        W16245   0.418   2.738   2.747
43821W        W16246  42.100  33.439   3.243
43822W        W16247  16.746  22.832   1.297
43823W        W16248   0.006  20.972   0.019
43824W        W16249  40.400  37.375   2.681
43825W        W16250   9.964  19.543  13.396
43826W        W16251   5.220  37.311   9.947
43827W        W16252  13.018   2.334   2.484
43828W        W16253  30.399  30.496   2.429
43829W        W16254  12.643  28.500  14.144
43830W        W16255  32.785  17.939   4.015
43831W        W16256  23.121  26.507   3.980
43832W        W16257  22.044   6.577   2.207
43833W        W16258  29.787  40.046   1.838
43834W        W16259  41.348  42.590   0.002
43835W        W16260  26.071   6.760   4.209
43836W        W16261   4.365  11.598   3.293
43837W        W16262   1.755   9.458  11.176
43838W        W16263  19.506  17.798   1.302
43839W        W16264   8.814  23.516  12.402
43840W        W16265   0.290  10.820   2.768
43841W        W16266  11.667  33.438  10.377
43842W        W16267   1.625  34.916  14.201
43843W        W16268  36.170  20.369  14.743
43844W        W16269  26.655  43.032  10.482
43845W        W16270   4.268  18.171  14.353
43846W        W16271  15.108  15.327  11.228
43847W        W16272  18.611  37.671  13.559
43848W        W16273  31.485   9.389  12.000
43849W        W16274   6.937  32.898  14.840
43850W        W16275   6.382  13.109  11.603
43851W        W16276  24.074   4.061  13.241
43852W        W16277  37.803   2.725   2.685
43853W        W16278  35.304   3.157  10.469
43854W        W16279  38.490   8.944   0.322
43855W        W16280  44.945   7.985  11.143
43856W        W16281  39.902   0.087   0.394
43857W        W16282   7.267  25.691   3.728
43858W        W16283   3.259  28.193  12.471
43859W        W16284  33.926  31.475   1.461
43860W        W16285  28.050  41.403  13.905
43861W        W16286  16.397  24.356   2.145
43862W        W16287   5.358  16.567   0.299
43863W        W16288  36.755   6.189  12.101
43864W        W16289  27.520   8.629   1.779
43865W        W16290   0.487  34.159  12.986
43866W        W16291  34.653   0.103  12.349
43867W        W16292  43.765  25.538   4.455
43868W        W16293  14.649  44.699   4.627
43869W        W16294  11.225  34.439   2.193
43870W        W16295  34.558   9.273  10.303
43871W        W16296  32.141   5.921   1.477
43872W        W16297  37.090  35.437  11.092
43873W        W16298  21.885  24.191  11.713
43874W        W16299  23.021  27.530  10.620
43875W        W16300  12.728  32.187  11.343
43876W        W16301  40.362  12.076   3.636
43877W        W16302  18.654  38.291  12.019
43878W        W16303  32.582  37.999  11.658
43879W        W16304  44.720  28.108  14.529
43880W        W16305  24.276  34.430   0.777
43881W        W16306  25.564  15.709   3.308
43882W        W16307  29.052  30.920   3.721
43883W        W16308  21.664  41.912   1.176
43884W        W16309  14.733  28.067   5.144
43885W        W16310  21.956  39.446   2.139
43886W        W16311  42.507  25.691   2.236
43887W        W16312   3.039  39.508  12.461
43888W        W16313  24.161  33.193  10.217
43889W        W16314   4.193   4.907   2.945
43890W        W16315  44.984  14.887   1.171
43891W        W16316  26.448  38.562  11.145
43892W        W16317  14.351  13.178   4.106
43893W        W16318   6.913  21.064  10.743
43894W        W16319   1.742  38.257  11.117
43895W        W16320  39.814  13.872   3.733
43896W        W16321   1.680  16.431   2.402
43897W        W16322  14.165  16.092   3.341
43898W        W16323   7.832  28.346  13.283
43899W        W16324  17.139   2.309  10.624
43900W        W16325  34.935  43.045   3.373
43901W        W16326  26.472   8.306   3.241
43902W        W16327   7.204  12.769  11.732
43903W        W16328  43.976   0.937   2.937
43904W        W16329  18.840  34.485   2.757
43905W        W16330  27.230  17.168  10.918
43906W        W16331  10.259  16.545   4.623
43907W        W16332  25.507  24.431   4.682
43908W        W16333  22.689   7.428  12.739
43909W        W16334  42.910   7.757   4.612
43910W        W16335  13.718  35.398   4.549
43911W        W16336  14.271   7.727   2.873
43912W        W16337  13.098   8.198   2.751
43913W        W16338   9.899  38.652   4.641
43914W        W16339   3.132  12.805   4.544
43915W        W16340  21.664  35.597   1.366
43916W        W16341  28.700  17.959   2.146
43917W        W16342  24.872  16.155  12.032
43918W        W16343  11.722  43.545   3.004
43919W        W16344   0.943   0.029  13.846
43920W        W16345  14.341  11.854   3.722
43921W        W16346   1.859  17.875   0.330
43922W        W16347   7.817  26.422  10.938
43923W        W16348   7.929  26.455  13.424
43924W        W16349   5.064  40.250  14.191
43925W        W16350  11.354   7.901   1.730
43926W        W16351   7.311  20.434   0.440
43927W        W16352  31.064  23.413   3.742
43928W        W16353  35.042  10.197   2.206
43929W        W16354  21.691  41.781  10.827
43930W        W16355  18.634  23.730  14.807
43931W        W16356  29.801  11.803   5.416
43932W        W16357  37.875  16.188  14.332
43933W        W16358  42.556  38.314  13.464
43934W        W16359  17.282  26.167   2.878
43935W        W16360  25.194   6.665   0.279
43936W        W16361  36.919  25.726  12.966
43937W        W16362  17.010   5.314   0.377
43938W        W16363   6.327  13.000  12.827
43939W        W16364   1.724  24.756  11.481
43940W        W16365  12.675  39.849  14.854
43941W        W16366  35.502  10.139   3.908
43942W        W16367  38.948   2.276  11.132
43943W        W16368  37.589  27.803   2.734
43944W        W16369  14.348  13.206   0.966
43945W        W16370  23.201  29.173   0.889
43946W        W16371  33.426   4.339   4.646
43947W        W16372  31.133  14.297  10.720
43948W        W16373   9.069  42.052  11.387
43949W        W16374   0.864  24.703   1.248
43950W        W16375  29.661  35.598  13.395
43951W        W16376   6.233  28.751   2.369
43952W        W16377  33.735  13.912  12.176
43953W        W16378  13.090   5.871  11.613
43954W        W16379  24.258   7.199  12.187
43955W        W16380  31.055  28.126  13.593
43956W        W16381  28.756  35.797   3.324
43957W        W16382  44.276   1.784   4.824
43958W        W16383  19.307  13.628  13.812
43959W        W16384  20.264  39.296   4.983
43960W        W16385   2.394  12.230   3.731
43961W        W16386   6.385   6.338  12.431
43962W        W16387  25.975  26.536   4.727
43963W        W16388  30.165  10.933   3.996
43964W        W16389  16.755  15.148  12.213
43965W        W16390  17.233   9.277  11.913
43966W        W16391  43.820  24.094  13.848
43967W        W16392   5.661  21.652   3.891
43968W        W16393   2.200  17.042  11.144
43969W        W16394  39.079  18.748   4.162
43970W        W16395  15.666  27.617  12.999
43971W        W16396   7.338  21.047  13.262
43972W        W16397   0.328  41.246   3.748
43973W        W16398  17.017  38.098   3.198
43974W        W16399  27.498  19.480   1.370
43975W        W16400  18.732  23.088   4.341
43976W        W16401  17.214   9.215   2.355
43977W        W16402  40.342  40.298  13.600
43978W        W16403  11.230  26.628   0.064
43979W        W16404  11.307  28.217  13.595
43980W        W16405  12.341   8.849  13.628
43981W        W16406  39.339   8.941   2.815
43982W        W16407   5.786  31.833  12.397
43983W        W16408  26.326  13.757   1.824
43984W        W16409  43.976  21.193   1.172
43985W        W16410  40.547   8.018  11.454
43986W        W16411  12.327   1.682   1.371
43987W        W16412  37.346  16.521  12.079
43988W        W16413  39.844  44.485  11.610
43989W        W16414   0.657  19.750  12.001
43990W        W16415  12.420  20.085  13.972
43991W        W16416  35.950  10.728  10.705
43992W        W16417   0.190   0.341  13.543
43993W        W16418  11.721  21.553  13.844
43994W        W16419  43.919  42.504   3.750
43995W        W16420  25.992  41.084   4.948
43996W        W16421  32.954   7.612  10.895
43997W        W16422  19.095  24.561  13.349
43998W        W16423  16.696   6.920  14.340
43999W        W16424  42.244  22.644  11.971
44000W        W16425  19.810   7.219  11.569
44001W        W16426  40.924  11.789  12.382
44002W        W16427  19.262  40.480  14.779
44003W        W16428  28.774  21.532  14.050
44004W        W16429  36.108  36.413   1.181
44005W        W16430  38.097  20.696  14.814
44006W        W16431  11.143  30.935   3.062
44007W        W16432  43.441  29.952  14.215
44008W        W16433  20.748  39.131  12.760
44009W        W16434   7.350  12.296   1.433
44010W        W16435  25.205  29.086  10.668
44011W        W16436  37.677  12.590   3.766
44012W        W16437  18.622  44.937  14.184
44013W        W16438   3.824  29.182  12.110
44014W        W16439  37.560  39.002   3.155
44015W        W16440  29.906  31.840   4.380
44016W        W16441   8.539  17.095  12.535
44017W        W16442  40.614  23.458  11.977
44018W        W16443  38.875  40.879   4.516
44019W        W16444  26.668   6.751   4.926
44020W        W16445   8.133   4.017   3.303
44021W        W16446  44.864  28.504   4.595
44022W        W16447  31.680  21.744   1.775
44023W        W16448  16.253  21.649  12.634
44024W        W16449  17.275  42.248  13.468
44025W        W16450  24.634  31.917  13.480
44026W        W16451  10.934  25.887   2.858
44027W        W16452  16.550   3.857   0.368
44028W        W16453  23.014  38.570  13.406
44029W        W16454  25.044  21.533   0.348
44030W        W16455  22.238  15.090   4.165
44031W        W16456  13.941  20.028   3.992
44032W        W16457  26.931  34.317  14.760
44033W        W16458  32.464  32.339  12.903
44034W        W16459  35.235   3.829  14.412
44035W        W16460   0.861  36.538   1.515
44036W        W16461  37.525  41.547   0.065
44037W        W16462   7.668  40.502  13.467
44038W        W16463  25.160  20.009  13.985
44039W        W16464  22.851  27.888   1.149
44040W        W16465  25.995   2.762   1.863
44041W        W16466  13.325  35.834   0.398
44042W        W16467   9.714  10.791   0.940
44043W        W16468  42.953  34.901  13.930
44044W        W16469  41.414  23.749   3.643
44045W        W16470  36.632   3.991   0.767
44046W        W16471  36.832  24.146  12.995
44047W        W16472  27.630  35.310  13.836
44048W        W16473  12.191  41.875   2.389
44049W        W16474  18.473  43.988   0.787
44050W        W16475   5.212  27.154   0.275
44051W        W16476   1.784  41.401  13.545
44052W        W16477   5.668  44.385  12.565
44053W        W16478  14.113  21.236  14.594
44054W        W16479  43.564  20.278   0.905
44055W        W16480  40.285  30.175   2.736
44056W        W16481  44.910  25.048  13.814
44057W        W16482  35.568  17.272   5.066
44058W        W16483  24.813  37.451   2.796
44059W        W16484  27.667  40.892  10.738
44060W        W16485  26.695   7.271   0.869
44061W        W16486  39.031  16.268   0.853
44062W        W16487  13.420  15.630  13.773
44063W        W16488  29.882  13.724  10.628
44064W        W16489  18.705  33.019  14.043
44065W        W16490  31.406   6.725  11.665
44066W        W16491  33.613  31.084  11.055
44067W        W16492  39.342   8.420   2.851
44068W        W16493  18.320  43.226  13.403
44069W        W16494  41.865  15.864  14.254
44070W        W16495  17.764  34.373  14.767
44071W        W16496  29.715   7.840   1.227
44072W        W16497  42.068  21.854  13.056
44073W        W16498  39.529   7.252  12.104
44074W        W16499   8.272  36.145   4.423
44075W        W16500  25.755  34.584   1.317
44076W        W16501  33.408  25.136  13.016
44077W        W16502   5.403  13.697  14.488
44078W        W16503  17.806  10.709  10.836
44079W        W16504   5.911   7.924  13.011
44080W        W16505   2.300  27.937  11.270
44081W        W16506  42.857  17.494   0.909
44082W        W16507  13.162  34.914  13.601
44083W        W16508  37.057  11.745  10.524
44084W        W16509  32.662  26.754  11.120
44085W        W16510  21.451  33.336  13.495
44086W        W16511  30.191   2.378   4.496
44087W        W16512  10.390  33.386  13.714
44088W        W16513  16.354  23.947  14.356
44089W        W16514  12.120  13.055   2.660
44090W        W16515  15.657  32.477   1.322
44091W        W16516  44.295  19.192  10.663
44092W        W16517  14.112  41.593  12.002
44093W        W16518   4.408  20.756   1.157
44094W        W16519  35.313  35.376   3.227
44095W        W16520  44.079  17.366   0.397
44096W        W16521  17.622  18.858   3.933
44097W        W16522  31.887  10.823   4.164
44098W        W16523  38.019  44.365   0.471
44099W        W16524  24.523  28.687   1.119
44100W        W16525  37.508  39.001   2.641
44101W        W16526  25.477   4.843  12.639
44102W        W16527  36.690  26.646  14.581
44103W        W16528  15.955  16.719   4.717
44104W        W16529  41.407   9.881  13.433
44105W        W16530   5.984   0.019  12.962
44106W        W16531  20.771  44.296   3.917
44107W        W16532  21.625   2.412   1.250
44108W        W16533   1.900  32.664   0.890
44109W        W16534  12.933  41.978   2.796
44110W        W16535  19.639  19.634  12.949
44111W        W16536  16.770  12.087  13.977
44112W        W16537  14.960   5.471  12.607
44113W        W16538   3.998  29.671  11.990
44114W        W16539  16.705   2.486  10.863
44115W        W16540  27.767  36.722   2.624
44116W        W16541  17.737  32.147   2.750
44117W        W16542   6.356  16.568  14.254
44118W        W16543   9.243   9.091   2.325
44119W        W16544  26.042  10.249  10.446
44120W        W16545  32.883  17.967   0.214
44121W        W16546  31.550  33.022  13.316
44122W        W16547  17.126  24.953   4.117
44123W        W16548  39.230  26.408   2.675
44124W        W16549  12.423   7.868  13.867
44125W        W16550   1.364  14.806   3.897
44126W        W16551  33.382   9.775   1.278
44127W        W16552   8.074  19.037  14.285
44128W        W16553   1.178  24.386  12.061
44129W        W16554  31.524  43.025   2.412
44130W        W16555   0.867  43.021  14.034
44131W        W16556   8.448   9.741   0.480
44132W        W16557  40.897  11.870   2.359
44133W        W16558  18.797  12.029   0.309
44134W        W16559  37.794  30.627   2.547
44135W        W16560  12.284  12.686   1.877
44136W        W16561   7.184   2.929   3.614
44137W        W16562   2.311  34.026  11.539
44138W        W16563  39.310  18.036   1.483
44139W        W16564  15.040  14.671   2.382
44140W        W16565  34.512  36.466   2.343
44141W        W16566  20.535  40.219  13.577
44142W        W16567   2.155  14.710   1.339
44143W        W16568  32.865  21.595  14.511
44144W        W16569  25.156   0.813   5.016
44145W        W16570  30.847   2.212  11.915
44146W        W16571   3.502  27.733  11.678
44147W        W16572  35.362   8.892   3.226
44148W        W16573  38.727   5.209   3.664
44149W        W16574  31.796  18.626   3.610
44150W        W16575  44.991   4.857   0.910
44151W        W16576  42.485  17.840  12.626
44152W        W16577   9.290  19.809  11.664
44153W        W16578  22.956  25.881  14.881
44154W        W16579  12.115  36.592  10.999
44155W        W16580  21.560  18.516   3.187
44156W        W16581   5.769  26.003  11.932
44157W        W16582  13.355  11.304  13.379
44158W        W16583  13.402  22.353   5.405
44159W        W16584   9.601  44.159   0.479
44160W        W16585  10.895  38.885  14.334
44161W        W16586  12.367  33.443   3.691
44162W        W16587   4.383  16.542   3.732
44163W        W16588  22.747  39.573   4.911
44164W        W16589   1.402  37.876   2.175
44165W        W16590  23.156   0.207   1.819
44166W        W16591   6.126  31.444  12.292
44167W        W16592  39.544  28.905  11.127
44168W        W16593   1.514   6.298   3.802
44169W        W16594  10.369   2.880   3.497
44170W        W16595  28.939  19.602  12.647
44171W        W16596  42.753  30.121   3.250
44172W        W16597  29.863  24.593  10.431
44173W        W16598  13.064  20.928   1.214
44174W        W16599  15.994  11.331   1.538
44175W        W16600   7.355  42.864   3.766
44176W        W16601  26.926  21.122   3.101
44177W        W16602   4.964  11.104   3.578
44178W        W16603  17.051   3.390   4.642
44179W        W16604  18.781  35.752  13.307
44180W        W16605  16.151  28.957   4.149
44181W        W16606   6.749  35.133  11.100
44182W        W16607   7.978   5.030  14.512
44183W        W16608  40.804  15.582   4.565
44184W        W16609  35.968  21.370   0.048
44185W        W16610   2.664   2.797  11.044
44186W        W16611  23.094  15.697  14.282
44187W        W16612  25.211  35.825  14.925
44188W        W16613   6.838  12.862  13.043
44189W        W16614  29.026  14.271  13.806
44190W        W16615  12.337  28.517  10.770
44191W        W16616  16.801  39.053   1.863
44192W        W16617  27.264   5.124  14.435
44193W        W16618   2.270  14.800   3.168
44194W        W16619  28.337  12.769   3.096
44195W        W16620  34.299  19.234   2.257
44196W        W16621  22.078  12.644  12.399
44197W        W16622   8.797  42.417  10.831
44198W        W16623  29.598  29.659   4.610
44199W        W16624  11.275  11.992  14.966
44200W        W16625  41.244  40.285   2.673
44201W        W16626  39.863   1.979   0.775
44202W        W16627  40.856  20.360   1.271
44203W        W16628  35.494  11.292  13.715
44204W        W16629   2.411  21.857   3.707
44205W        W16630  24.023   9.613  14.531
44206W        W16631  28.610  39.118   3.347
44207W        W16632  37.420  26.251   1.414
44208W        W16633  44.783  13.849   2.819
44209W        W16634  21.485  24.258   4.199
44210W        W16635  35.119  24.203  10.268
44211W        W16636  31.932  12.045  13.052
44212W        W16637  28.405  34.441   3.599
44213W        W16638  43.113   3.927   0.876
44214W        W16639  43.905   6.824  13.093
44215W        W16640  33.800   9.169  14.915
44216W        W16641  37.680  27.123   4.845
44217W        W16642   1.886   7.157  13.863
44218W        W16643  31.489  33.170  12.821
44219W        W16644  30.502  29.520   4.693
44220W        W16645  43.329  44.833  12.342
44221W        W16646  41.421   2.982   0.914
44222W        W16647  35.814  38.434   2.713
44223W        W16648  42.814  41.421  13.014
44224W        W16649  11.176  18.358  10.901
44225W        W16650  16.798  35.629  11.878
44226W        W16651  25.213   2.225  10.651
44227W        W16652  31.660  26.984   2.500
44228W        W16653  33.644  23.406   2.097
44229W        W16654  38.814  34.256  13.412
44230W        W16655  15.546  44.561  12.441
44231W        W16656   4.388  20.862  13.889
44232W        W16657   2.669  16.144   2.212
44233W        W16658  19.131  33.386  11.201
44234W        W16659  23.528  21.701  11.362
44235W        W16660   5.584   8.198  13.930
44236W        W16661   9.120  20.787  14.422
44237W        W16662  13.714  29.596  11.655
44238W        W16663  22.071  34.242   1.760
44239W        W16664   9.406  33.390   2.534
44240W        W16665   9.332  24.013   1.289
44241W        W16666  36.297  26.635  14.187
44242W        W16667  43.166  41.927  12.575
44243W        W16668  10.212  24.298   2.718
44244W        W16669  41.403  15.605   4.394
44245W        W16670  26.959  26.662   5.028
44246W        W16671  11.905  37.000  12.060
44247W        W16672  12.125  37.041   4.243
44248W        W16673  29.122  34.914  10.879
44249W        W16674  14.567  15.789  10.521
44250W        W16675  12.273  43.580   3.282
44251W        W16676  30.519  44.433  13.382
44252W        W16677   0.431   2.342   2.411
44253W        W16678  18.671  24.560  13.046
44254W        W16679  27.714  25.584   4.086
44255W        W16680  24.011  16.532   1.285
44256W        W16681  10.021   6.726  14.998
44257W        W16682   0.383  23.453   2.451
44258W        W16683  11.190   3.259  11.623
44259W        W16684  39.230  22.355  14.365
44260W        W16685  18.880  38.977  13.567
44261W        W16686  18.158  22.939   0.803
44262W        W16687  29.271  26.471  14.967
44263W        W16688  18.054  23.731  11.166
44264W        W16689  17.789  19.201  11.113
44265W        W16690  22.099  24.758  12.857
44266W        W16691  11.801  44.536  14.493
44267W        W16692  28.233  42.790   5.158
44268W        W16693  24.516  30.041   1.925
44269W        W16694  31.161  34.511  11.461
44270W        W16695  11.151  30.429  10.977
44271W        W16696  36.624  43.913  13.872
44272W        W16697  37.877   2.462   0.227
44273W        W16698  22.107  14.608   4.068
44274W        W16699   9.763  24.015   4.631
44275W        W16700  36.894   8.072   4.339
44276W        W16701  38.426   3.422   4.505
44277W        W16702   5.367   2.272  13.326
44278W        W16703  40.059   5.206  13.318
44279W        W16704  19.564  39.864   3.563
44280W        W16705  36.125   4.974   1.650
44281W        W16706   6.388   0.818  11.534
44282W        W16707   0.562  25.293  14.910
44283W        W16708   4.252  25.149   3.792
44284W        W16709  21.036   8.157  14.840
44285W        W16710   0.404  33.421  12.114
44286W        W16711   8.604  23.531  13.842
44287W        W16712  20.122  13.324   3.067
44288W        W16713   9.639  18.905  11.393
44289W        W16714  10.835  10.283  12.547
44290W        W16715  21.181   3.335   1.255
44291W        W16716  35.483  35.046   3.584
44292W        W16717  18.194  40.970   3.718
44293W        W16718  10.596   2.206   1.061
44294W        W16719   0.248  26.719   3.730
44295W        W16720  44.002  10.621  13.416
44296W        W16721  16.581  24.892  11.048
44297W        W16722  14.545  12.101   2.535
44298W        W16723  25.047  19.585   2.068
44299W        W16724  23.422  43.510  11.552
44300W        W16725   9.827  44.480   1.822
44301W        W16726  37.108  10.647  11.421
44302W        W16727   3.785  10.341  11.388
44303W        W16728   7.381  38.037   1.208
44304W        W16729  19.586  41.802   1.359
44305W        W16730   9.345  10.128   3.645
44306W        W16731  41.755  25.697  13.996
44307W        W16732  38.842  11.751   1.266
44308W        W16733  32.565   7.674  13.249
44309W        W16734  20.542  41.382   3.738
44310W        W16735  44.837  10.263  11.546
44311W        W16736  43.297  39.151   1.981
44312W        W16737  37.114   7.323  12.879
44313W        W16738  29.679   1.573   2.074
44314W        W16739  33.391  39.174  14.786
44315W        W16740  17.457  19.596  11.272
44316W        W16741  28.122  41.177  10.713
44317W        W16742  19.604  22.648   0.801
44318W        W16743  23.146  20.314   0.381
44319W        W16744   5.497   2.388  13.830
44320W        W16745  28.978  24.114  11.663
44321W        W16746  37.744  15.009  12.890
44322W        W16747  10.165  37.910   1.543
44323W        W16748  36.489  17.788   2.352
44324W        W16749  34.039   8.678  10.639
44325W        W16750   7.116  10.357  11.502
44326W        W16751  34.006  13.347  14.035
44327W        W16752  41.093   6.220  13.887
44328W        W16753  21.828  38.437   2.744
44329W        W16754  19.138  30.545   0.708
44330W        W16755   2.768  44.824  13.087
44331W        W16756  37.992   1.777  13.381
44332W        W16757  43.891   7.778  14.585
44333W        W16758   9.399  24.329  14.254
44334W        W16759   1.913   6.978   4.559
44335W        W16760  27.374  44.359   1.049
44336W        W16761  27.359  42.371   4.901
44337W        W16762  26.062  22.037  13.437
44338W        W16763  16.642  25.113   4.149
44339W        W16764  42.280  20.065  12.066
44340W        W16765  41.422  34.978   0.948
44341W        W16766   0.308  26.702   1.168
44342W        W16767  12.244   4.690  14.428
44343W        W16768  27.046  10.001  13.467
44344W        W16769  20.345  43.372  13.386
44345W        W16770  16.904  40.094   4.274
44346W        W16771  20.054  22.190   4.155
44347W        W16772   7.733   8.880   1.318
44348W        W16773  29.201   4.628   3.160
44349W        W16774  21.588  21.094  12.095
44350W        W16775  17.108  44.446   3.707
44351W        W16776   6.333   8.681  10.565
44352W        W16777  38.816  35.337   0.292
44353W        W16778   9.827  14.017   2.111
44354W        W16779  25.953  22.111   1.383
44355W        W16780  33.481  44.322   1.458
44356W        W16781  12.674  36.940  10.867
44357W        W16782   6.643   1.229   1.752
44358W        W16783  27.555  43.185  12.161
44359W        W16784   6.295   4.720  14.560
44360W        W16785  14.802  43.690   4.594
44361W        W16786  20.427  25.567   3.192
44362W        W16787  15.086   3.897   3.245
44363W        W16788  18.091  32.967   2.917
44364W        W16789   7.493  35.542  13.800
44365W        W16790   7.906  31.075  10.490
44366W        W16791  37.898  42.886  14.537
44367W        W16792  43.665  28.940   4.178
44368W        W16793   1.315  44.806  14.977
44369W        W16794  14.599   5.311   5.054
44370W        W16795   7.639   5.272   0.311
44371W        W16796   4.698  39.794  10.142
44372W        W16797   9.764  42.399   4.094
44373W        W16798  31.110  44.291   2.212
44374W        W16799  38.324  24.518  13.575
44375W        W16800  14.611  26.100  14.258
44376W        W16801  42.986  35.870  12.454
44377W        W16802  11.443  14.035   4.209
44378W        W16803  42.539  22.086   1.051
44379W        W16804   5.993   6.161  14.780
44380W        W16805  41.316   2.214  10.707
44381W        W16806   2.871  17.980   3.507
44382W        W16807  11.867  15.675  13.905
44383W        W16808  27.029   5.169  12.598
44384W        W16809   5.312  11.271   1.366
44385W        W16810  32.967   3.842  12.635
44386W        W16811  13.294  18.600   9.961
44387W        W16812  42.596  30.631  11.202
44388W        W16813  12.343   2.326   3.223
44389W        W16814   5.465  44.806   0.840
44390W        W16815  14.924  16.028   4.183
44391W        W16816   5.720  17.784   4.091
44392W        W16817  15.923   1.291  13.720
44393W        W16818  12.253  35.754  11.307
44394W        W16819  31.678  26.393   3.944
44395W        W16820   5.397  42.047  11.543
44396W        W16821   7.555  28.081   3.665
44397W        W16822  35.056  19.123   2.148
44398W        W16823  31.061  10.688   0.413
44399W        W16824   6.908   0.724   0.307
44400W        W16825  32.590  19.866   2.279
44401W        W16826  19.301  27.586   4.829
44402W        W16827  35.654  20.505   1.821
44403W        W16828  12.154   5.798  14.376
44404W        W16829  31.986  22.000  15.000
44405W        W16830   7.653  32.732   2.183
44406W        W16831  42.184  24.954   3.921
44407W        W16832  14.850  29.486   4.102
44408W        W16833  40.273  10.407  14.782
44409W        W16834  18.787  43.705  14.082
44410W        W16835  27.632  26.218  12.224
44411W        W16836   9.304  14.306   3.617
44412W        W16837  39.951  40.510   4.512
44413W        W16838  43.978  29.000   0.090
44414W        W16839  13.052  14.948  12.499
44415W        W16840  41.592  17.877   2.815
44416W        W16841   0.543  34.292   4.632
44417W        W16842  23.261  14.596  14.306
44418W        W16843  43.246  40.480   4.613
44419W        W16844   3.182  29.263   2.055
44420W        W16845   0.859   4.043   0.385
44421W        W16846  12.805  31.221  12.960
44422W        W16847  43.583  19.968  14.148
44423W        W16848  27.085   5.921  13.096
44424W        W16849  39.401   3.309   1.928
44425W        W16850  36.874   2.321   1.703
44426W        W16851   2.635  15.968   1.190
44427W        W16852  35.201  10.280  14.062
44428W        W16853  13.899  19.719  13.463
44429W        W16854  18.935  23.608  11.261
44430W        W16855  17.038   2.787  13.876
44431W        W16856  40.820  44.844   3.255
44432W        W16857  29.835  10.240   2.253
44433W        W16858  29.996   6.379  13.906
44434W        W16859  27.534  12.249  14.126
44435W        W16860  41.587  32.302   4.475
44436W        W16861   8.377  42.578  13.199
44437W        W16862  38.408  18.575  10.399
44438W        W16863   1.795   4.697  13.028
44439W        W16864   0.503  37.298   1.833
44440W        W16865   7.246  30.447   0.233
44441W        W16866  23.674  26.207   4.593
44442W        W16867  40.113  15.652  14.377
44443W        W16868  18.304  28.469   0.137
44444W        W16869   2.348  14.805  14.980
44445W        W16870  44.507  42.582   2.222
44446W        W16871   1.450   7.166  14.601
44447W        W16872  36.001  12.359   1.368
44448W        W16873   7.135  23.065   4.266
44449W        W16874   8.402  41.885   1.889
44450W        W16875  21.985  34.734   1.648
44451W        W16876  19.518  11.033  12.970
44452W        W16877  19.769  40.588   3.276
44453W        W16878  37.407  32.394  11.051
44454W        W16879   1.081  41.764  13.317
44455W        W16880  44.730  32.541   0.479
44456W        W16881  26.244  37.961  11.160
44457W        W16882   9.681  11.082  14.691
44458W        W16883  17.164  29.287   2.915
44459W        W16884  10.841  40.843   3.813
44460W        W16885  28.672  27.011   2.788
44461W        W16886  40.031  17.557   4.061
44462W        W16887  19.639  28.614   3.748
44463W        W16888   1.986  22.252  12.785
44464W        W16889  22.594  29.342   1.840
44465W        W16890  35.798  44.792   3.373
44466W        W16891  14.596   3.282   2.876
44467W        W16892  30.606  29.110  10.151
44468W        W16893  29.922  43.840   0.295
44469W        W16894  12.600   9.221   4.171
44470W        W16895  11.704  10.249  11.597
44471W        W16896  24.515  18.213  12.919
44472W        W16897  35.095  41.588   1.597
44473W        W16898   5.241   7.824   3.098
44474W        W16899   2.734  30.011   1.289
44475W        W16900  35.231   0.882  12.858
44476W        W16901  21.826  17.531   3.192
44477W        W16902  22.021  34.474   0.253
44478W        W16903  42.450  30.042   0.099
44479W        W16904  22.582   1.406  14.631
44480W        W16905   8.908   3.968  14.038
44481W        W16906   7.177  24.974  14.501
44482W        W16907  21.190  35.372   1.278
44483W        W16908  34.066  36.913   4.613
44484W        W16909  29.947   7.398   0.557
44485W        W16910  30.759  37.026   1.345
44486W        W16911   3.951  43.827   3.577
44487W        W16912  18.790  12.853  13.386
44488W        W16913  13.651  15.617   4.337
44489W        W16914  43.908   4.844   1.332
44490W        W16915  27.718  31.411   3.941
44491W        W16916  13.896  26.710   2.810
44492W        W16917   3.591  30.615   2.301
44493W        W16918  24.496  42.484   1.876
44494W        W16919  13.792  42.798  12.964
44495W        W16920  27.625  22.470  14.899
44496W        W16921   6.224  40.499  10.057
44497W        W16922  16.237   3.282   2.001
44498W        W16923   3.225  28.609  12.172
44499W        W16924  38.892  22.436  11.582
44500W        W16925  42.852   7.353  10.894
44501W        W16926  27.759  22.208  10.159
44502W        W16927  29.637  33.931   0.785
44503W        W16928  34.061  18.266  11.822
44504W        W16929  20.048  21.045   1.870
44505W        W16930  25.220  42.595   3.083
44506W        W16931  19.729  24.507   4.169
44507W        W16932   6.312  10.616  14.617
44508W        W16933   9.079  16.288   0.807
44509W        W16934  13.875  27.139  11.534
44510W        W16935  30.625   5.886   1.227
44511W        W16936  18.012  37.879   0.534
44512W        W16937   7.899  41.291  12.996
44513W        W16938  11.105  27.458   1.335
44514W        W16939   5.329  17.396  14.861
44515W        W16940  24.769  14.650   0.321
44516W        W16941  23.351   2.017  13.504
44517W        W16942  16.160  33.052  14.075
44518W        W16943  15.435   3.340   9.618
44519W        W16944  22.551  33.297  14.310
44520W        W16945  32.539  11.720  11.208
44521W        W16946  22.733  40.268  13.919
44522W        W16947  39.214  30.454  12.545
44523W        W16948   4.090   7.886   3.873
44524W        W16949  41.894   5.440   1.420
44525W        W16950  26.673  25.478   3.233
44526W        W16951   5.896  24.210  11.607
44527W        W16952   9.901   5.688   2.751
44528W        W16953  17.129  33.425  11.678
44529W        W16954  20.098   5.632   0.402
44530W        W16955   2.766  33.526   0.266
44531W        W16956  33.074  34.438  11.204
44532W        W16957   0.490  34.922  11.905
44533W        W16958  14.790  28.202  14.094
44534W        W16959  42.273  28.663   4.579
44535W        W16960  13.740  23.753  13.117
44536W        W16961  13.099  26.384   1.710
44537W        W16962  19.851  28.224   2.257
44538W        W16963  41.595  19.674   1.841
44539W        W16964  36.015  11.347  11.754
44540W        W16965   8.752  38.604  14.897
44541W        W16966   4.798  36.542  14.356
44542W        W16967  42.869  16.257   3.858
44543W        W16968  35.879  13.148   1.958
44544W        W16969   0.007  32.701  10.732
44545W        W16970  44.963  20.294   2.119
44546W        W16971  23.957  39.653  11.884
44547W        W16972  39.874  38.592  11.940
44548W        W16973  10.737   8.755  14.471
44549W        W16974  17.644   2.337   0.957
44550W        W16975  31.046  37.494   4.149
44551W        W16976  16.104  21.515   4.785
44552W        W16977   7.240  43.783   2.230
44553W        W16978  11.635  14.741   4.667
44554W        W16979   6.109  35.615  13.539
44555W        W16980  29.712  15.621  13.440
44556W        W16981  15.206   4.898  11.485
44557W        W16982   3.589  42.527   1.211
44558W        W16983  33.953  35.990   2.447
44559W        W16984  37.152  42.765   4.171
44560W        W16985  13.597  36.549   3.291
44561W        W16986  22.566  25.204  13.641
44562W        W16987  22.305  10.797  12.357
44563W        W16988  31.431  44.242  10.713
44564W        W16989  16.108  15.549  11.513
44565W        W16990  30.957  18.276  14.423
44566W        W16991  12.604  20.464   4.153
44567W        W16992  39.980  10.110   3.181
44568W        W16993  43.883   3.838  13.845
44569W        W16994  10.681  11.070  10.496
44570W        W16995  15.691  13.165   1.428
44571W        W16996  11.014   4.829  11.090
44572W        W16997   7.261   9.464   4.572
44573W        W16998  29.655  17.884  10.850
44574W        W16999   6.642  31.534   1.269
44575W        W17000  43.818  13.461   2.677
44576W        W17001  15.873   5.186   1.407
44577W        W17002   7.613  15.529  12.433
44578W        W17003  43.359  39.567  10.960
44579W        W17004  24.974  28.391  11.833
44580W        W17005  25.577  25.074   0.960
44581W        W17006  21.041  16.672   5.151
44582W        W17007  39.834   9.533  12.371
44583W        W17008  24.654   5.774   3.782
44584W        W17009  28.584  41.548  14.426
44585W        W17010  30.483  18.238   3.226
44586W        W17011  34.390  17.598   4.312
44587W        W17012  44.364   5.467  10.764
44588W        W17013  27.658  30.900  10.765
44589W        W17014  44.947   3.200  14.920
44590W        W17015  39.541  13.641  13.262
44591W        W17016  22.213   5.755  10.712
44592W        W17017  28.603  15.745   2.104
44593W        W17018  23.616  12.275   3.245
44594W        W17019  20.795  32.035   3.814
44595W        W17020  13.526   3.222  10.324
44596W        W17021  11.118  32.165   4.862
44597W        W17022   3.556  22.566   1.809
44598W        W17023  24.032  20.238   0.494
44599W        W17024  12.725  44.628  11.547
44600W        W17025  24.170  41.776   1.336
44601W        W17026  19.675  24.907   3.241
44602W        W17027  34.251  28.338  14.012
44603W        W17028  43.161   7.164   2.331
44604W        W17029   3.937  39.045  12.897
44605W        W17030  13.470   9.764  13.580
44606W        W17031   2.129  26.355   3.819
44607W        W17032  40.728  12.177  14.319
44608W        W17033  23.500  24.061   2.385
44609W        W17034   4.480  31.674   1.148
44610W        W17035  37.614  15.343   3.281
44611W        W17036  11.734  22.001   4.781
44612W        W17037  40.808  40.598   3.878
44613W        W17038  30.756  42.550  11.026
44614W        W17039  36.536  44.310  14.342
44615W        W17040  15.894  44.553  11.560
44616W        W17041  23.938  39.436  12.732
44617W        W17042  43.772  33.080   4.608
44618W        W17043  16.586  13.076   1.468
44619W        W17044  43.249   5.512  12.585
44620W        W17045  14.192  25.783   4.987
44621W        W17046   8.908  20.745  14.902
44622W        W17047  20.170   3.268  14.716
44623W        W17048  11.883   1.778  12.182
44624W        W17049  29.945  12.634  14.001
44625W        W17050   6.296  42.020  13.476
44626W        W17051  29.505  15.600   2.889
44627W        W17052  38.832  13.663   1.606
44628W        W17053  39.122  14.873   2.178
44629W        W17054  33.567   6.400   1.413
44630W        W17055  43.984  40.259   1.256
44631W        W17056  37.801  17.864  10.742
44632W        W17057  20.041   2.545   2.813
44633W        W17058  43.085  40.894   3.680
44634W        W17059  41.772  36.237   1.225
44635W        W17060  24.312  20.024   3.750
44636W        W17061  29.314   6.743  12.969
44637W        W17062  40.414  27.710  14.855
44638W        W17063   2.704  34.928  11.619
44639W        W17064  40.905  36.585   4.606
44640W        W17065   8.456  28.108   3.334
44641W        W17066  43.788   4.332  14.643
44642W        W17067  24.994  13.874  12.488
44643W        W17068  37.407  16.050   2.290
44644W        W17069  15.103   9.092   0.326
44645W        W17070  43.783  12.962   2.801
44646W        W17071   3.077  43.840  11.382
44647W        W17072  11.619  28.068   1.226
44648W        W17073   1.845   1.874   0.963
44649W        W17074  26.851  15.285   3.703
44650W        W17075  34.924  12.839  13.715
44651W        W17076  39.786  33.870   1.396
44652W        W17077  42.124   0.303   1.715
44653W        W17078  41.892  39.633   0.835
44654W        W17079   4.488  15.191   2.527
44655W        W17080  16.104  14.078  12.603
44656W        W17081  17.850  41.461  11.729
44657W        W17082  18.323   8.631   3.905
44658W        W17083  24.661   6.912   2.645
44659W        W17084   3.214  25.638   1.988
44660W        W17085  13.853  28.229  13.260
44661W        W17086  42.445  30.893   4.493
44662W        W17087  16.665  15.683   3.083
44663W        W17088  42.341   0.299   4.692
44664W        W17089  20.092   3.255   2.267
44665W        W17090  19.983  10.283  10.625
44666W        W17091  32.429  41.895   2.278
44667W        W17092  11.183  41.410   3.413
44668W        W17093  40.346   1.882  13.444
44669W        W17094   3.509  31.582  13.548
44670W        W17095  26.416   3.003   1.663
44671W        W17096   8.403   2.279   4.605
44672W        W17097  30.722  38.506  14.265
44673W        W17098  25.600  37.489   0.283
44674W        W17099  39.075  21.767  13.419
44675W        W17100  39.541  15.366  12.529
44676W        W17101  24.192  20.202  10.670
44677W        W17102  20.563  35.419  14.735
44678W        W17103   0.987   4.454   4.589
44679W        W17104   6.700  12.700   2.220
44680W        W17105  21.024  37.053   0.059
44681W        W17106  36.661  15.725   4.049
44682W        W17107  22.225  19.958   3.176
44683W        W17108  27.731  35.702  12.531
44684W        W17109  17.360  37.513   4.261
44685W        W17110  30.665  40.930   5.662
44686W        W17111  12.146  32.923   4.596
44687W        W17112   0.962  39.834   1.808
44688W        W17113  16.253  35.096  13.894
44689W        W17114  19.537  13.134  13.958
44690W        W17115  18.706  17.769   2.677
44691W        W17116  36.175  38.915  11.689
44692W        W17117   0.695  22.244   3.634
44693W        W17118   7.689  40.270   1.917
44694W        W17119  36.631  31.888  14.363
44695W        W17120  21.317   4.899   4.913
44696W        W17121  13.265   5.384   2.829
44697W        W17122   4.873   4.776   3.596
44698W        W17123  41.507  23.167  10.751
44699W        W17124   0.671  38.882   4.004
44700W        W17125   4.839  12.059   1.386
44701W        W17126   5.614  37.210  12.660
44702W        W17127  20.664  31.416  14.391
44703W        W17128  11.711  10.857  10.925
44704W        W17129  39.349  14.794   1.295
44705W        W17130  44.321  17.117   3.784
44706W        W17131   8.172  29.229   1.009
44707W        W17132  29.201  36.494   0.371
44708W        W17133  23.009  11.345   2.710
44709W        W17134  42.594   4.759   3.674
44710W        W17135   8.114  12.947   1.683
44711W        W17136  13.150  10.717   3.121
44712W        W17137  42.284  24.632  14.344
44713W        W17138  36.204  31.749   4.209
44714W        W17139   6.537  33.513   1.757
44715W        W17140  12.637  12.422  11.436
44716W        W17141  16.778  19.126  14.405
44717W        W17142  44.925   6.928  12.918
44718W        W17143  43.274  36.396   2.724
44719W        W17144  19.892   5.023  11.106
44720W        W17145   9.023   8.159   3.728
44721W        W17146  27.315  11.353  13.393
44722W        W17147  10.686   5.732  13.884
44723W        W17148  38.542  18.709  13.034
44724W        W17149  23.997  22.976  13.928
44725W        W17150  15.531  38.495   1.040
44726W        W17151  40.629  30.807  10.698
44727W        W17152  29.532  25.325  11.078
44728W        W17153  19.342  18.051   3.102
44729W        W17154  17.370  32.133  11.622
44730W        W17155  23.628  42.441  10.690
44731W        W17156   2.681   4.450  12.474
44732W        W17157  20.419  29.940  14.585
44733W        W17158  21.956  17.537  14.272
44734W        W17159  25.769  37.456   1.080
44735W        W17160  25.385   7.161   1.352
44736W        W17161  17.642  35.811   1.135
44737W        W17162  13.675  12.360  13.892
44738W        W17163  39.407  21.782   2.367
44739W        W17164  18.389  20.239   3.727
44740W        W17165   4.298   9.695  10.619
44741W        W17166  42.555  30.559   0.896
44742W        W17167  39.444  31.544  13.498
44743W        W17168  36.095  36.942   2.016
44744W        W17169   8.874  19.991   4.569
44745W        W17170  15.148  26.611   1.888
44746W        W17171  38.011  44.433   4.537
44747W        W17172   1.925  39.445   1.737
44748W        W17173  28.253   4.494   2.235
44749W        W17174  10.393  13.966   2.908
44750W        W17175  23.200   5.025   0.909
44751W        W17176  26.995  30.279   3.833
44752W        W17177  11.009  14.851   0.348
44753W        W17178  43.494  22.520   4.583
44754W        W17179   8.649  35.438  11.494
44755W        W17180  13.199  36.313  11.485
44756W        W17181  18.648   4.784  10.630
44757W        W17182  41.480  18.462   3.397
44758W        W17183   5.432  11.827   9.951
44759W        W17184   2.266   0.279   3.297
44760W        W17185  26.900  20.134   2.846
44761W        W17186  15.023  12.152  11.479
44762W        W17187   7.773  21.105  14.302
44763W        W17188  25.694   0.757   9.906
44764W        W17189   3.715  20.809  13.501
44765W        W17190  29.892  18.032   2.897
44766W        W17191  40.588  14.802  11.053
44767W        W17192   6.130   6.497   0.939
44768W        W17193   1.802  29.829  11.109
44769W        W17194  40.380  25.295   0.891
44770W        W17195  31.005  26.951   0.915
44771W        W17196  15.538  36.422  13.804
44772W        W17197  43.090  41.669   0.795
44773W        W17198  25.993  15.137   3.414
44774W        W17199  44.826  11.459   3.401
44775W        W17200  28.559  19.261  13.436
44776W        W17201  25.650  42.363   1.854
44777W        W17202  13.372  43.856   4.086
44778W        W17203   2.388   0.839  14.788
44779W        W17204  21.823  14.809  10.564
44780W        W17205  40.341   7.023  13.075
44781W        W17206   7.374  40.729   1.833
44782W        W17207   7.245  12.607   0.854
44783W        W17208  26.450  39.067   3.828
44784W        W17209  16.716   9.284   1.194
44785W        W17210  39.472  27.651   4.338
44786W        W17211  15.192   3.279  10.935
44787W        W17212   0.022  24.232   4.554
44788W        W17213  16.326  34.158   3.275
44789W        W17214   7.674  31.541  10.734
44790W        W17215  37.567  23.764   3.278
44791W        W17216  12.624  30.504   0.466
44792W        W17217  29.666   8.242  13.046
44793W        W17218  28.761  11.909   4.164
44794W        W17219  12.096  39.370  11.299
44795W        W17220  33.931  41.337   3.109
44796W        W17221   3.142   4.945   3.372
44797W        W17222  34.038   6.445  14.142
44798W        W17223  27.656  29.469  14.867
44799W        W17224  26.150  36.948  11.206
44800W        W17225   0.247   1.754  13.093
44801W        W17226  11.170  16.106   2.217
44802W        W17227  13.950   0.907   1.759
44803W        W17228   7.843  11.993   1.861
44804W        W17229  43.726  23.564  11.089
44805W        W17230   1.334  13.800   3.642
44806W        W17231  12.151  28.245   2.268
44807W        W17232  21.981  10.100  11.075
44808W        W17233  22.710   0.239   3.946
44809W        W17234  24.971   5.751  14.229
44810W        W17235   3.502  20.273  14.017
44811W        W17236   0.796   2.740   0.949
44812W        W17237  42.235  24.118  14.486
44813W        W17238  16.556  10.062  14.270
44814W        W17239  22.524  28.440  11.265
44815W        W17240   4.795  18.674   0.779
44816W        W17241  41.010  13.608   4.343
44817W        W17242   8.125   5.292   0.498
44818W        W17243  38.895  19.784  10.830
44819W        W17244  23.836   7.405   0.236
44820W        W17245  27.412  29.531   2.809
44821W        W17246   9.228   3.068   0.351
44822W        W17247   6.476  10.620   1.309
44823W        W17248   3.737  28.090  12.160
44824W        W17249  10.903  35.926  11.944
44825W        W17250  41.008   1.715   4.900
44826W        W17251  32.310  37.783  12.100
44827W        W17252   3.860  13.246   0.412
44828W        W17253  27.649  28.115  13.241
44829W        W17254  15.279  24.470   4.076
44830W        W17255   0.715  26.144   0.022
44831W        W17256  26.575  42.122   3.607
44832W        W17257  26.005  30.212  11.739
44833W        W17258   7.852  28.193   2.189
44834W        W17259   3.119   7.753   1.444
44835W        W17260  42.514  13.862   2.949
44836W        W17261  29.279  14.656  13.542
44837W        W17262  27.521  16.135   3.297
44838W        W17263  29.057  40.043   0.876
44839W        W17264  17.483  11.318   2.325
44840W        W17265  11.297  41.529  12.461
44841W        W17266  12.966  30.947  10.579
44842W        W17267  42.867  31.260  11.170
44843W        W17268  11.455  36.362   3.757
44844W        W17269  29.679  18.581   0.738
44845W        W17270  32.648  42.814   1.764
44846W        W17271  19.014  42.057  12.931
44847W        W17272  38.784   7.151  12.494
44848W        W17273   9.474  37.987  12.507
44849W        W17274  11.844  16.297   4.777
44850W        W17275   8.309  24.508   4.593
44851W        W17276  15.796  25.236   2.362
44852W        W17277   3.417  31.524  14.468
44853W        W17278  28.025   6.090   1.353
44854W        W17279  32.593   8.205  11.492
44855W        W17280  27.070  18.250  14.020
44856W        W17281  35.411   7.686   3.750
44857W        W17282   5.831  17.987  13.407
44858W        W17283  36.674  30.297   4.943
44859W        W17284  36.438  20.481  12.921
44860W        W17285  13.137  34.942   3.221
44861W        W17286  18.817  18.151  13.350
44862W        W17287  43.512  26.044  14.544
44863W        W17288  29.153  29.506  13.037
44864W        W17289  33.388  43.559  11.825
44865W        W17290  24.968  26.186   3.510
44866W        W17291  44.832  22.315   1.723
44867W        W17292  21.247   9.217  12.947
44868W        W17293  27.022  26.513  14.436
44869W        W17294  34.604  35.563   2.808
44870W        W17295  18.726  39.486   0.965
44871W        W17296  44.406   9.862  11.128
44872W        W17297   7.376  16.357   0.378
44873W        W17298  31.091  19.092   0.251
44874W        W17299  23.677  19.056   0.009
44875W        W17300   5.073  40.802  11.973
44876W        W17301  28.046  21.924   4.385
44877W        W17302   9.014  20.043  11.031
44878W        W17303  29.877  42.800   0.435
44879W        W17304  24.898   2.880   1.665
44880W        W17305  31.761  42.210   3.696
44881W        W17306  36.741  27.940   0.788
44882W        W17307  28.496   6.773  11.906
44883W        W17308   0.392   1.740  12.541
44884W        W17309   4.460  34.176   2.698
44885W        W17310   9.790   4.767  12.773
44886W        W17311  19.602  28.514  14.838
44887W        W17312   9.277  15.640   2.046
44888W        W17313  42.951  44.448   4.675
44889W        W17314  37.469   5.580   4.131
44890W        W17315  25.546  43.963   0.070
44891W        W17316  30.054  17.968   3.394
44892W        W17317  38.794  20.340  14.516
44893W        W17318  42.014  19.297   0.766
44894W        W17319  13.859  41.262  10.642
44895W        W17320   4.207  27.607   2.748
44896W        W17321   4.425   9.292   4.452
44897W        W17322   7.717  16.607   0.670
44898W        W17323  12.878  43.536  10.604
44899W        W17324  12.154   2.935  11.958
44900W        W17325  14.332  24.588  10.619
44901W        W17326  34.187  24.928  12.012
44902W        W17327  24.448  34.476   1.632
44903W        W17328  37.311  44.508  12.478
44904W        W17329   0.995  34.061  12.899
44905W        W17330   5.064  15.587   0.837
44906W        W17331  18.933  38.477  11.624
44907W        W17332  25.478  13.100  12.644
44908W        W17333  24.418   7.196  14.000
44909W        W17334  14.059   2.594  12.150
44910W        W17335  28.593  22.047   2.322
44911W        W17336  11.273  29.096   2.833
44912W        W17337  10.925  42.811  12.450
44913W        W17338  19.807  44.854  11.020
44914W        W17339   8.891  33.161  12.244
44915W        W17340   2.752  25.038   3.740
44916W        W17341  19.551  33.975  12.652
44917W        W17342  28.426  18.263   2.477
44918W        W17343  14.864   3.921  13.137
44919W        W17344  44.155  28.029  12.989
44920W        W17345  29.422   5.882   4.211
44921W        W17346  15.641  43.886   4.738
44922W        W17347  20.924  18.137   1.843
44923W        W17348  20.762  13.288   1.209
44924W        W17349  18.765   1.667  14.505
44925W        W17350   4.694  21.146  11.951
44926W        W17351  18.227  15.730  14.907
44927W        W17352  28.580  17.378  11.846
44928W        W17353  35.470  27.145  10.705
44929W        W17354  29.503  34.650   2.870
44930W        W17355  40.788   1.613   1.926
44931W        W17356  38.431  10.107  10.522
44932W        W17357  15.262  32.648  14.475
44933W        W17358  44.030  12.313   4.337
44934W        W17359  25.157  39.659   0.362
44935W        W17360  13.795  23.574   0.714
44936W        W17361  12.517  31.131  13.413
44937W        W17362  32.398   1.276   1.778
44938W        W17363  24.212   5.122   2.802
44939W        W17364  15.347  35.607  13.181
44940W        W17365  15.065   9.850   4.212
44941W        W17366  12.711  27.244   2.848
44942W        W17367   9.845  12.119   3.129
44943W        W17368  26.055  28.309   3.161
44944W        W17369  42.466  10.710   3.375
44945W        W17370  21.346  42.124   3.771
44946W        W17371  15.751  21.193  11.208
44947W        W17372  33.389  31.385   1.399
44948W        W17373  33.606  33.083   3.626
44949W        W17374  44.268  21.933  11.526
44950W        W17375  22.357  24.059   4.121
44951W        W17376  35.605  23.086   4.198
44952W        W17377  26.160  39.524   0.492
44953W        W17378  30.065  18.359  11.244
44954W        W17379  26.842  31.650  12.578
44955W        W17380  20.139  43.772   0.478
44956W        W17381  38.514  12.356  10.658
44957W        W17382  27.627  40.535   5.063
44958W        W17383  35.438  39.368   0.586
44959W        W17384  34.666  41.496   1.234
44960W        W17385   2.572  22.308   2.423
44961W        W17386  43.132  29.514   4.640
44962W        W17387  22.961  11.654  12.182
44963W        W17388  31.776  27.945  14.814
44964W        W17389  12.840  29.087  14.827
44965W        W17390  21.067  39.500  10.729
44966W        W17391  16.239  43.278  12.623
44967W        W17392  10.886  29.479  10.136
44968W        W17393  40.824  12.261   4.727
44969W        W17394  30.199  39.313   1.430
44970W        W17395  34.260  36.083  12.029
44971W        W17396   1.663  30.491   1.889
44972W        W17397  40.356   5.250   3.878
44973W        W17398  34.465  42.035   1.255
44974W        W17399  16.967  18.207  10.350
44975W        W17400  31.031  18.192   0.773
44976W        W17401  41.772  22.584   2.317
44977W        W17402   0.797  43.552  12.884
44978W        W17403  19.071  15.178   2.834
44979W        W17404  38.001  42.752  12.498
44980W        W17405  10.156  13.193  11.209
44981W        W17406  38.519  14.161   4.601
44982W        W17407  36.311  35.473   3.238
44983W        W17408  44.399  20.765  13.834
44984W        W17409  14.152  42.079  10.998
44985W        W17410  28.018  18.572   2.685
44986W        W17411   1.816  30.607   0.936
44987W        W17412  25.678  38.044  13.468
44988W        W17413  18.248  24.203  13.540
44989W        W17414  41.282   0.330  12.833
44990W        W17415  13.140  44.265  14.438
44991W        W17416  14.038   9.743  12.442
44992W        W17417   2.014  30.678   0.420
44993W        W17418  29.688   2.109   1.935
44994W        W17419  37.198   3.324  14.884
44995W        W17420  20.635  28.883  11.060
44996W        W17421  33.283   9.832   4.495
44997W        W17422  24.762  41.379  14.770
44998W        W17423   9.745  19.171  14.866
44999W        W17424  14.934  15.213   4.585
45000W        W17425  32.451  44.834  12.168
45001W        W17426   4.504  19.979   2.358
45002W        W17427  14.848  16.317   0.310
45003W        W17428  11.358  19.739  12.706
45004W        W17429  20.367  32.632   3.165
45005W        W17430  41.856  32.084   0.048
45006W        W17431  27.049  39.378  12.325
45007W        W17432  19.361   4.159  14.815
45008W        W17433  10.675  24.285   4.653
45009W        W17434  33.409  35.798   3.208
45010W        W17435   8.120  12.168   4.748
45011W        W17436  19.020  21.855   1.425
45012W        W17437   0.408  27.871  11.581
45013W        W17438  35.978   5.204  13.416
45014W        W17439  28.068  43.716  10.661
45015W        W17440  39.068  32.711   4.578
45016W        W17441  29.030   8.271  13.806
45017W        W17442   1.713  10.830   2.389
45018W        W17443  38.549  11.257  11.137
45019W        W17444  43.182  44.737  14.566
45020W        W17445   3.269   1.193   1.594
45021W        W17446  32.287   6.226   3.716
45022W        W17447   2.224  40.172  14.539
45023W        W17448  19.370  25.745  13.079
45024W        W17449  23.035  43.028  10.905
45025W        W17450  20.559  40.611   4.480
45026W        W17451  39.487  24.017  13.277
45027W        W17452   3.660  21.047   3.700
45028W        W17453  25.415  33.432   3.729
45029W        W17454  14.757  13.831  13.411
45030W        W17455  22.105  30.074   1.151
45031W        W17456   9.878  28.523   4.429
45032W        W17457  35.863   6.123  12.180
45033W        W17458  43.813   9.907  12.328
45034W        W17459   9.350   1.774  12.087
45035W        W17460   4.209  25.024   0.754
45036W        W17461  15.790   5.429  10.952
45037W        W17462  20.790   9.882   2.704
45038W        W17463  44.974   5.379   0.733
45039W        W17464  26.751   6.394  12.591
45040W        W17465  38.980   6.438  11.956
45041W        W17466  41.956  34.250  12.464
45042W        W17467  25.202  22.572  12.466
45043W        W17468  31.943  31.530   3.439
45044W        W17469  38.513  40.037   3.306
45045W        W17470  15.171  12.198  14.992
45046W        W17471   1.375  35.412  12.054
45047W        W17472  36.919  14.675   2.537
45048W        W17473   0.928  21.069  10.680
45049W        W17474   4.577  23.597  13.822
45050W        W17475  43.493  33.876  14.830
45051W        W17476   0.799   2.614  14.954
45052W        W17477  37.059  42.516  14.331
45053W        W17478  19.038   6.385  11.281
45054W        W17479   7.130  23.771   3.426
45055W        W17480  19.194  18.721  12.869
45056W        W17481  13.872  44.427  11.428
45057W        W17482  41.994  30.932  11.124
45058W        W17483  20.136   8.193  13.879
45059W        W17484  21.576  28.674  13.315
45060W        W17485  43.626  17.689  13.585
45061W        W17486  32.143  34.186   1.894
45062W        W17487   5.574  34.346   3.276
45063W        W17488  14.738  26.135   2.335
45064W        W17489  35.562   4.652  14.030
45065W        W17490  29.159  20.318   4.336
45066W        W17491   2.997  36.972  11.118
45067W        W17492  38.556  22.380   0.887
45068W        W17493  14.655  17.113  11.515
45069W        W17494  13.990   2.726   4.121
45070W        W17495   0.453   9.246   4.033
45071W        W17496  21.208  24.910   3.089
45072W        W17497  11.895   1.341   0.356
45073W        W17498  23.495   9.824  11.437
45074W        W17499   8.247  10.226  14.731
45075W        W17500  18.593  32.169   2.749
45076W        W17501   6.677  10.805   0.865
45077W        W17502  30.909   4.790   2.413
45078W        W17503  29.618  40.502   3.640
45079W        W17504  27.240  13.134   4.519
45080W        W17505  29.107  12.395   3.203
45081W        W17506  24.651  36.729  14.846
45082W        W17507  39.388  30.658  11.199
45083W        W17508  14.665   7.179   0.275
45084W        W17509  21.493  12.755   1.319
45085W        W17510   7.309   7.167   4.137
45086W        W17511  16.500  23.085  10.906
45087W        W17512  34.449   5.710   3.818
45088W        W17513  38.727   1.266  10.456
45089W        W17514   9.466   2.861  13.951
45090W        W17515  12.912  44.699   3.728
45091W        W17516  41.747  44.422   3.233
45092W        W17517   6.760  20.741  12.038
45093W        W17518  39.983  14.075   3.261
45094W        W17519  21.142  34.152   1.855
45095W        W17520  12.811  44.323  12.977
45096W        W17521   5.208  15.343  14.924
45097W        W17522  24.308  17.498   2.340
45098W        W17523  32.679  38.271  10.703
45099W        W17524  31.390   2.259  12.991
45100W        W17525  22.781  28.345   0.882
45101W        W17526  40.445  36.279   0.433
45102W        W17527  43.421  41.993  12.132
45103W        W17528  17.374  26.531   3.332
45104W        W17529  30.870  10.427  11.579
45105W        W17530   8.749  29.193   4.531
45106W        W17531  18.159  22.820  12.999
45107W        W17532  38.775  44.690  14.999
45108W        W17533  25.954  36.885  13.903
45109W        W17534  34.006  41.542   1.690
45110W        W17535  18.272   1.693   0.315
45111W        W17536  36.391  12.690   1.443
45112W        W17537   7.676   9.242  13.884
45113W        W17538  32.603  14.505  12.833
45114W        W17539   0.026   3.432   1.828
45115W        W17540  36.210  13.962   4.115
45116W        W17541  30.979  28.790   2.097
45117W        W17542  42.811  36.932  13.886
45118W        W17543  13.884  43.364   0.029
45119W        W17544   3.435   3.696   4.565
45120W        W17545  36.760  39.530   0.461
45121W        W17546  23.246  11.640   4.108
45122W        W17547  38.317  27.456  11.073
45123W        W17548  14.488   2.540   2.416
45124W        W17549  15.373  26.251  10.566
45125W        W17550  33.627  12.517  13.782
45126W        W17551  24.552  11.944   5.342
45127W        W17552  18.963  25.595  12.510
45128W        W17553  21.126   2.478  14.718
45129W        W17554   1.206  42.724  11.252
45130W        W17555   4.221  44.428  12.811
45131W        W17556   8.129   6.226  12.150
45132W        W17557  34.379  44.772  14.315
45133W        W17558  23.289  23.417   1.309
45134W        W17559  28.546  29.169  10.943
45135W        W17560   5.827  16.894  11.842
45136W        W17561  10.276  14.182   1.857
45137W        W17562   3.496  15.206   3.417
45138W        W17563  22.049  24.145   1.799
45139W        W17564   0.322  32.381   3.762
45140W        W17565  31.697  12.407  10.678
45141W        W17566  13.476  14.650  11.061
45142W        W17567  44.759  33.082   4.976
45143W        W17568  35.175  44.731  14.444
45144W        W17569  19.972   3.908   4.306
45145W        W17570  38.515   3.791   0.377
45146W        W17571   8.890  10.205  10.030
45147W        W17572  16.190  44.745  11.175
45148W        W17573  11.399  42.363  14.276
45149W        W17574  21.092  42.829  14.451
45150W        W17575  40.127  17.168   2.278
45151W        W17576  31.166  37.977   0.161
45152W        W17577   4.423   2.660   1.266
45153W        W17578  24.496  44.694   4.853
45154W        W17579  20.740  42.830  11.497
45155W        W17580   6.428  18.707   0.957
45156W        W17581   1.770  24.484   4.267
45157W        W17582  16.551  28.001   1.239
45158W        W17583   0.901  31.223   3.845
45159W        W17584  10.707  15.140   1.741
45160W        W17585  34.380   2.791   1.810
45161W        W17586   0.682  40.839  12.029
45162W        W17587  21.846  20.786   0.876
45163W        W17588  27.442  15.030  11.821
45164W        W17589  20.807   4.199  11.403
45165W        W17590   3.899  28.237   1.852
45166W        W17591  40.128   6.191   2.680
45167W        W17592  42.918   2.849   0.514
45168W        W17593  18.063  24.546   1.522
45169W        W17594  17.438  15.363   1.193
45170W        W17595  17.248  16.108   4.121
45171W        W17596  41.840  25.726   4.125
45172W        W17597  40.316  25.588  12.853
45173W        W17598  20.111  20.827   4.135
45174W        W17599  29.706  38.457  13.550
45175W        W17600  18.810  17.313   3.281
45176W        W17601  34.180  44.509  13.433
45177W        W17602  34.094  14.611   1.005
45178W        W17603   2.299  42.824  12.010
45179W        W17604  28.972  11.828   1.806
45180W        W17605  15.143   7.389  10.960
45181W        W17606  13.895  38.996  12.474
45182W        W17607  14.885  10.718  12.086
45183W        W17608  16.256  37.867   3.766
45184W        W17609  43.244   7.757  12.977
45185W        W17610  36.673  26.266   4.926
45186W        W17611  25.114  11.093  11.120
45187W        W17612  15.680  19.741  13.838
45188W        W17613   4.297  40.334  14.964
45189W        W17614  13.028  10.379  11.917
45190W        W17615  26.217  38.084  13.512
45191W        W17616  20.130  39.573  13.333
45192W        W17617  32.804   7.780   0.096
45193W        W17618  16.826  31.869  13.095
45194W        W17619  25.213   1.899   3.155
45195W        W17620  18.838  11.006  14.104
45196W        W17621  30.682  18.946  11.168
45197W        W17622  43.595  34.407   1.403
45198W        W17623   7.252  24.123  14.331
45199W        W17624  39.056  24.075   1.209
45200W        W17625   5.101  40.838  14.814
45201W        W17626  39.466  27.282  12.437
45202W        W17627  35.869  41.825   2.701
45203W        W17628  32.884   7.513   1.387
45204W        W17629  30.116   5.106  11.479
45205W        W17630  44.128  19.726  12.061
45206W        W17631  12.596  16.630   4.629
45207W        W17632  29.061  25.154  10.893
45208W        W17633  21.111   0.352  11.260
45209W        W17634  42.405  14.792   1.307
45210W        W17635   3.942  20.688   2.909
45211W        W17636   0.284  41.105   3.209
45212W        W17637  38.001   6.943  13.737
45213W        W17638   8.736  33.463  13.238
45214W        W17639  24.524  43.477  12.160
45215W        W17640  43.491  30.712  11.577
45216W        W17641  15.678  37.416   5.032
45217W        W17642  22.313   7.762   0.833
45218W        W17643  33.330  19.785   4.956
45219W        W17644  13.803   7.492   2.831
45220W        W17645  20.669  18.084  14.141
45221W        W17646  28.338  26.500  13.278
45222W        W17647  32.490   4.461   3.961
45223W        W17648   7.483  15.082  12.696
45224W        W17649  13.217  20.539   3.108
45225W        W17650  32.972  41.962  10.286
45226W        W17651  16.993  29.531  10.764
45227W        W17652  29.622  36.297  12.133
45228W        W17653  44.426  39.959   2.459
45229W        W17654  18.495   1.075   3.062
45230W        W17655  38.178  13.026   5.167
45231W        W17656   6.892  22.550   2.150
45232W        W17657  14.365  19.302  12.782
45233W        W17658  30.835  11.671  11.196
45234W        W17659  17.737  39.429   0.451
45235W        W17660  23.063  37.307  11.476
45236W        W17661  13.230  31.675  10.904
45237W        W17662  18.105  16.428   3.777
45238W        W17663  20.770   7.181  12.105
45239W        W17664  15.603  15.755  13.056
45240W        W17665  35.136  23.855   1.584
45241W        W17666  12.187  17.863   2.794
45242W        W17667  41.236   9.463   4.021
45243W        W17668  42.421   1.256   4.949
45244W        W17669  41.801  38.286  10.624
45245W        W17670  28.418  21.436   9.856
45246W        W17671  21.350  11.378   3.386
45247W        W17672   6.370  30.970  12.345
45248W        W17673  42.519  39.130   3.252
45249W        W17674  32.452  37.710  14.843
45250W        W17675  30.147  41.343   2.356
45251W        W17676  43.546  44.299   2.214
45252W        W17677  20.030  22.438  14.795
45253W        W17678  22.963   4.981  12.186
45254W        W17679  44.714  22.777  11.528
45255W        W17680  33.131   2.399  10.793
45256W        W17681  11.296  41.023   2.626
45257W        W17682  31.646  24.136   2.608
45258W        W17683  42.882  33.020  11.612
45259W        W17684  32.966  41.490   2.929
45260W        W17685  19.590  37.968  13.738
45261W        W17686  30.249   2.908  10.471
45262W        W17687  43.183  33.144   4.661
45263W        W17688  26.588  27.164  13.166
45264W        W17689  24.109   6.351  13.465
45265W        W17690  35.249  43.568   2.214
45266W        W17691   4.175  34.981  13.047
45267W        W17692  34.645  17.590  11.106
45268W        W17693  19.656   1.877  10.750
45269W        W17694   8.116  27.923  13.941
45270W        W17695   0.549   9.767  11.776
45271W        W17696   4.685   8.527  13.964
45272W        W17697  23.122  23.539  11.506
45273W        W17698  44.939  25.585   3.723
45274W        W17699   0.266  23.858  11.126
45275W        W17700  18.053  10.158   2.179
45276W        W17701  28.474   2.766  14.059
45277W        W17702   5.177  38.797  11.154
45278W        W17703  23.708   9.119  13.371
45279W        W17704  35.348  11.630  14.516
45280W        W17705  33.042  33.472   1.389
45281W        W17706   3.229   5.259  13.428
45282W        W17707  24.442  34.024  10.617
45283W        W17708  15.303   3.529   0.536
45284W        W17709  43.629  14.679  13.875
45285W        W17710  15.786  26.118   2.407
45286W        W17711  32.924  19.441  14.710
45287W        W17712  40.792   6.011   2.750
45288W        W17713  18.172  26.123  11.727
45289W        W17714  39.957  41.259   3.103
45290W        W17715   3.206  20.942   3.488
45291W        W17716   3.076  29.535  14.497
45292W        W17717  29.837  44.968  13.962
45293W        W17718   5.777  39.275   3.738
45294W        W17719   0.546  17.539   1.342
45295W        W17720  16.585   3.480   1.674
45296W        W17721  40.101  40.480   0.927
45297W        W17722  44.481   2.643   0.475
45298W        W17723  33.366   6.764   1.077
45299W        W17724  19.294   2.939  11.065
45300W        W17725  39.367   4.748   3.121
45301W        W17726  13.278   2.850   1.669
45302W        W17727   5.178  27.703  13.886
45303W        W17728  41.946  41.507   2.328
45304W        W17729   7.783  18.193   3.639
45305W        W17730  32.585  28.943   0.374
45306W        W17731  33.161  44.851  14.868
45307W        W17732  30.200  33.312  13.022
45308W        W17733  25.656  41.357   0.236
45309W        W17734  29.162  29.926   2.765
45310W        W17735  36.882  41.808  11.816
45311W        W17736  10.930  23.195   0.312
45312W        W17737  37.640  18.841  13.370
45313W        W17738  28.230  44.009  13.244
45314W        W17739  30.658  14.707   2.344
45315W        W17740  32.580  15.188   3.006
45316W        W17741   6.216   1.108  14.361
45317W        W17742  44.208   4.939  11.619
45318W        W17743  20.723  42.548   4.609
45319W        W17744  20.540  30.150  10.506
45320W        W17745   2.283  29.582  14.837
45321W        W17746  11.854  41.902   0.503
45322W        W17747  24.436  26.144  12.173
45323W        W17748   3.539  40.237   3.598
45324W        W17749  33.924  42.952  11.780
45325W        W17750  42.855  39.851   4.549
45326W        W17751   9.733  15.812   0.471
45327W        W17752  20.077   1.905  13.992
45328W        W17753  26.925  16.322  12.101
45329W        W17754  14.497   8.944   2.873
45330W        W17755  38.148  19.694   3.245
45331W        W17756  25.991  23.380   3.353
45332W        W17757  25.506  30.483  11.051
45333W        W17758  38.579  31.177  12.471
45334W        W17759  27.291  39.036   2.274
45335W        W17760  22.195  44.755  11.580
45336W        W17761  14.925  14.430  12.025
45337W        W17762  32.297  12.184  13.421
45338W        W17763  43.610  28.710  14.872
45339W        W17764  15.306  23.527   0.854
45340W        W17765  14.389  21.057   5.031
45341W        W17766  41.059  32.436   4.570
45342W        W17767  19.662  30.114   3.740
45343W        W17768  16.281  37.808  11.507
45344W        W17769  29.276  18.700   3.896
45345W        W17770  31.972  35.415  12.666
45346W        W17771  43.444  38.355   3.801
45347W        W17772  42.300  42.111   3.341
45348W        W17773  38.962   3.312   1.013
45349W        W17774  18.126  35.896   1.282
45350W        W17775  24.886  24.861  11.217
45351W        W17776  12.753  13.852  14.387
45352W        W17777  38.106   1.281  13.341
45353W        W17778   0.061   8.380  12.070
45354W        W17779  17.516  37.128   3.682
45355W        W17780  19.699  44.023   0.276
45356W        W17781  19.165  31.316  11.258
45357W        W17782  44.838   2.072  11.509
45358W        W17783  12.851  42.282  12.309
45359W        W17784  21.335  41.401  10.719
45360W        W17785  18.295   8.134   2.777
45361W        W17786  27.444  40.221  14.764
45362W        W17787   9.365  34.868   0.314
45363W        W17788  10.870  31.988   2.762
45364W        W17789  40.354  43.591  11.388
45365W        W17790  32.886   8.507  13.026
45366W        W17791  29.373  24.464   9.688
45367W        W17792   5.184  15.627  12.994
45368W        W17793  20.539  32.412  13.486
45369W        W17794  42.316   4.444  11.531
45370W        W17795  31.559  37.105   2.904
45371W        W17796  33.944  33.126   4.239
45372W        W17797   1.271  10.443   0.885
45373W        W17798  19.542  20.960   1.830
45374W        W17799  31.092  28.472  11.173
45375W        W17800  15.276  19.143   0.286
45376W        W17801   7.826  16.752   4.606
45377W        W17802  26.539  35.622   1.871
45378W        W17803  11.823  13.975   5.135
45379W        W17804   3.891   5.252   4.490
45380W        W17805  37.386   5.137  12.659
45381W        W17806   3.422  40.428  14.308
45382W        W17807  28.240  33.964   3.774
45383W        W17808  28.150   8.749   4.649
45384W        W17809  21.539  14.678   0.645
45385W        W17810  24.930  11.109   1.436
45386W        W17811  18.835  41.104   3.274
45387W        W17812  35.168   7.169  10.308
45388W        W17813  24.592  23.530  11.865
45389W        W17814  24.646   1.051  13.077
45390W        W17815  35.362  36.592   2.242
45391W        W17816  40.076   6.180  12.087
45392W        W17817  29.172  21.011  14.265
45393W        W17818  17.605   2.459   4.668
45394W        W17819  10.453   7.624   3.496
45395W        W17820  33.982  35.816   4.912
45396W        W17821  40.068  29.671  11.168
45397W        W17822  43.514   7.189  12.006
45398W        W17823  41.954  17.164  13.936
45399W        W17824  11.487  15.819  10.698
45400W        W17825  37.079   6.509  11.509
45401W        W17826  28.224  32.376  13.908
45402W        W17827  21.510  14.067   3.251
45403W        W17828   8.709  29.689  10.705
45404W        W17829  34.594  12.267   0.348
45405W        W17830   0.502   7.701   0.772
45406W        W17831  25.541  10.497   2.430
45407W        W17832  14.758   6.903  12.540
45408W        W17833  24.313  14.688   2.110
45409W        W17834  11.980   9.764   4.764
45410W        W17835  41.071  15.896  12.434
45411W        W17836   8.623  40.559   3.598
45412W        W17837   7.343  32.979   3.861
45413W        W17838  33.511  18.248  13.761
45414W        W17839   0.847  16.508  14.011
45415W        W17840  12.524  34.037  12.164
45416W        W17841  41.321   1.022  13.480
45417W        W17842   1.652  26.843   1.487
45418W        W17843  43.762  15.524  11.478
45419W        W17844   1.067  39.929  13.266
45420W        W17845   0.882  27.546  11.199
45421W        W17846  30.184  44.221   0.028
45422W        W17847  38.069  35.070  12.495
45423W        W17848  10.895  18.347  13.960
45424W        W17849  37.899   1.949   0.196
45425W        W17850  30.892  36.088  12.076
45426W        W17851  43.370  20.826   1.699
45427W        W17852   5.402  15.149  10.626
45428W        W17853  15.724  23.028  13.303
45429W        W17854  24.123  20.158  13.985
45430W        W17855  25.554  27.330   0.206
45431W        W17856  40.619  31.686   0.308
45432W        W17857   6.911  37.219  14.341
45433W        W17858   5.730   2.212   2.784
45434W        W17859  43.197   9.824  14.835
45435W        W17860  38.760  10.720   3.309
45436W        W17861  29.712  15.170   1.644
45437W        W17862  31.867  25.952   3.153
45438W        W17863   1.109  11.800  12.046
45439W        W17864  44.541  23.141   3.873
45440W        W17865  23.672  38.833   0.772
45441W        W17866  34.094  15.082   1.229
45442W        W17867  35.081  36.152  11.528
45443W        W17868  43.343  29.655  12.395
45444W        W17869  10.567  33.035  11.726
45445W        W17870  20.223  42.169  11.979
45446W        W17871  19.551   8.234  14.246
45447W        W17872   7.123  26.907  13.696
45448W        W17873   2.667  22.107  12.057
45449W        W17874   5.293  32.082   0.804
45450W        W17875  10.438  38.519  10.362
45451W        W17876  22.058  12.814   4.552
45452W        W17877  32.426  19.221   1.351
45453W        W17878  34.001  29.007  11.508
45454W        W17879  37.760  16.757  12.278
45455W        W17880  25.154   1.428   0.254
45456W        W17881  29.364   6.295   2.684
45457W        W17882  12.789  22.875   0.351
45458W        W17883  37.136  37.281   3.614
45459W        W17884   5.823  39.006  11.112
45460W        W17885  13.519  22.655  11.431
45461W        W17886  16.797  42.340  13.033
45462W        W17887  37.946  40.883  14.265
45463W        W17888  23.670  15.817  11.869
45464W        W17889  33.054  32.503  11.019
45465W        W17890   2.649  43.866  12.290
45466W        W17891  22.043  42.926   4.343
45467W        W17892  40.059  20.057   0.830
45468W        W17893   0.490  39.377  11.574
45469W        W17894  32.139  25.699   2.301
45470W        W17895   1.842  44.797   1.239
45471W        W17896  37.848  11.673  11.610
45472W        W17897  31.479  20.320   2.161
45473W        W17898  21.285  34.311   0.965
45474W        W17899  30.532  30.015  14.717
45475W        W17900  22.986  21.995   1.507
45476W        W17901   6.676  31.340   4.570
45477W        W17902  11.402  29.071  13.882
45478W        W17903  14.285   4.215   3.030
45479W        W17904  43.061  44.142  12.465
45480W        W17905  19.978  10.108   4.170
45481W        W17906  16.032  38.606   2.650
45482W        W17907   7.137   9.363  14.705
45483W        W17908   9.131  13.907   0.535
45484W        W17909  37.421  19.694   1.837
45485W        W17910  26.707   3.886   4.933
45486W        W17911  17.339  22.868   4.161
45487W        W17912   6.251  37.882  12.983
45488W        W17913   2.390  43.307   3.307
45489W        W17914  25.056  21.444  12.535
45490W        W17915  16.341  30.329   2.932
45491W        W17916  11.665  36.438  13.652
45492W        W17917  13.184   6.646   1.714
45493W        W17918  29.444  11.260   0.412
45494W        W17919  19.536   4.807   1.312
45495W        W17920   5.758  28.536   2.383
45496W        W17921  34.915  42.845  12.154
45497W        W17922  16.327  31.243   9.251
45498W        W17923  29.077  20.028  12.357
45499W        W17924  41.485   8.379   4.184
45500W        W17925  36.856  20.693   1.301
45501W        W17926  22.481  43.954  14.261
45502W        W17927  19.071   1.923   3.671
45503W        W17928  31.256   8.772  14.319
45504W        W17929  18.202  15.066   4.146
45505W        W17930  23.097  40.052   2.921
45506W        W17931  42.809  36.896  14.799
45507W        W17932  21.041  14.172  11.970
45508W        W17933  11.274   4.204   4.621
45509W        W17934  40.067  30.360  13.415
45510W        W17935  40.820   6.794   0.409
45511W        W17936  17.413  15.232  10.914
45512W        W17937  33.267  31.538   1.943
45513W        W17938  34.818  33.920  11.327
45514W        W17939  23.077  18.205  10.593
45515W        W17940  36.386  12.632  10.741
45516W        W17941  42.350  23.242  11.235
45517W        W17942   0.888  10.127  12.660
45518W        W17943  18.765   9.846  11.132
45519W        W17944  38.860   6.472   4.103
45520W        W17945   3.732  13.105   1.221
45521W        W17946   8.421  23.933   1.312
45522W        W17947   4.896   6.025   1.230
45523W        W17948   8.725  43.212   1.349
45524W        W17949  26.149  20.328  10.712
45525W        W17950  41.482  11.729  13.782
45526W        W17951  20.522  31.442   3.372
45527W        W17952  28.211  37.810  12.828
45528W        W17953  20.184  29.767   1.886
45529W        W17954  36.771  31.644  12.868
45530W        W17955  27.037  18.512   4.959
45531W        W17956  26.456  12.812   4.178
45532W        W17957  28.403  11.230   4.029
45533W        W17958  33.008  13.245   2.195
45534W        W17959  19.598  18.557  12.061
45535W        W17960   1.354  43.560   1.789
45536W        W17961  44.783  19.802  11.591
45537W        W17962  23.454  12.531   3.981
45538W        W17963  24.920   0.802   2.865
45539W        W17964  11.347   2.786  14.413
45540W        W17965  12.531  12.754  12.172
45541W        W17966  17.237  38.990   2.655
45542W        W17967  17.061  43.706   0.769
45543W        W17968  12.201  23.967  11.501
45544W        W17969   7.443  23.842   0.440
45545W        W17970  40.221   8.699  13.821
45546W        W17971  26.448  22.785   0.786
45547W        W17972  36.380  25.720  11.672
45548W        W17973   3.970  26.376  12.509
45549W        W17974  28.012   1.325   4.204
45550W        W17975  26.128  32.269  11.698
45551W        W17976  25.926  34.531   0.007
45552W        W17977  19.167  32.876  11.102
45553W        W17978   2.826  14.808   3.953
45554W        W17979  38.489  26.411  11.082
45555W        W17980  32.441  21.245   2.162
45556W        W17981  44.242  18.755   1.852
45557W        W17982  18.078  41.752   1.234
45558W        W17983  25.402  36.869   3.202
45559W        W17984  36.528  29.640  13.069
45560W        W17985  40.280  29.892   0.790
45561W        W17986   3.732  11.683  13.922
45562W        W17987  32.084  13.791   0.185
45563W        W17988  22.638   5.789   3.684
45564W        W17989  21.271  25.468   4.828
45565W        W17990  37.955  24.948   3.619
45566W        W17991   9.669   8.674  11.939
45567W        W17992   3.279  38.598   2.141
45568W        W17993  42.052  26.609  10.691
45569W        W17994  43.276  12.090   4.630
45570W        W17995  19.772  31.216  10.757
45571W        W17996  19.370  39.552   2.630
45572W        W17997  15.770   4.954   3.842
45573W        W17998   6.120  37.936  13.499
45574W        W17999  37.784   9.566  10.144
45575W        W18000  16.657   4.479   0.770
45576W        W18001  29.452  11.471  12.154
45577W        W18002   8.739  43.718   1.422
45578W        W18003  39.360  22.604   0.275
45579W        W18004  29.388  13.778  10.776
45580W        W18005  18.116  28.662  13.640
45581W        W18006   6.640  37.919   3.851
45582W        W18007   0.269  33.978  10.111
45583W        W18008  27.223  25.172   2.593
45584W        W18009  12.463   3.585   9.706
45585W        W18010  19.701  17.813  10.677
45586W        W18011  29.933   8.642  13.326
45587W        W18012  38.364  38.882  10.761
45588W        W18013  24.153  26.498   2.364
45589W        W18014  19.277  26.449   1.877
45590W        W18015  19.624  20.147  10.531
45591W        W18016  19.551  42.046  11.945
45592W        W18017  43.282  27.014  13.028
45593W        W18018   5.790  14.813  10.554
45594W        W18019  41.438  34.356  14.870
45595W        W18020   8.503  12.080  10.997
45596W        W18021  14.233  36.376   0.542
45597W        W18022  35.908   0.192  14.523
45598W        W18023   1.968  10.460   3.146
45599W        W18024  14.115  19.226   1.825
45600W        W18025  23.701  23.152   1.439
45601W        W18026   6.389  37.066  11.151
45602W        W18027  22.915   4.877  11.100
45603W        W18028  31.162  27.335   1.214
45604W        W18029  11.588   2.879  11.961
45605W        W18030   2.960   4.835  13.351
45606W        W18031  24.136  36.852  10.731
45607W        W18032  33.922  23.655  12.338
45608W        W18033  43.897  33.095  14.680
45609W        W18034  36.670   7.505   2.747
45610W        W18035  14.322   4.427   0.641
45611W        W18036  35.143  26.578   2.597
45612W        W18037  40.867  27.602  13.542
45613W        W18038  20.794  12.673   3.065
45614W        W18039  23.057  25.117  13.449
45615W        W18040   9.286  16.610   1.628
45616W        W18041  37.456  19.881  14.761
45617W        W18042  22.477  13.343  11.036
45618W        W18043  28.050   6.598   9.875
45619W        W18044  41.871  17.024   4.048
45620W        W18045   5.343  13.787  11.987
45621W        W18046   5.668  40.392   1.229
45622W        W18047  15.028  25.558   2.878
45623W        W18048  27.554  15.739   1.259
45624W        W18049   5.827  23.697  11.645
45625W        W18050  36.277  27.889  12.162
45626W        W18051  44.819  26.527   0.504
45627W        W18052  29.182  39.538   3.591
45628W        W18053  36.524   8.789   1.169
45629W        W18054  19.288  21.155   0.921
45630W        W18055   1.381  39.964   4.641
45631W        W18056  16.315  42.146  13.456
45632W        W18057  24.511   9.328   0.332
45633W        W18058  44.759   3.603  14.439
45634W        W18059  30.792  23.782   5.256
45635W        W18060   7.725  10.667  12.085
45636W        W18061   9.610  37.158  11.717
45637W        W18062  38.378  29.731   1.342
45638W        W18063  42.859  34.789  10.344
45639W        W18064  20.635   3.298  10.433
45640W        W18065  12.877  18.557   4.343
45641W        W18066  14.802  39.870  11.838
45642W        W18067  21.483   5.460  12.005
45643W        W18068  29.504   1.695   4.999
45644W        W18069  24.927  43.967   0.561
45645W        W18070   8.584  12.134  12.881
45646W        W18071  33.060  15.470   0.745
45647W        W18072  41.399  28.208   1.348
45648W        W18073  21.492  16.099   4.610
45649W        W18074   5.456  15.646   3.762
45650W        W18075  15.822  44.141  13.727
45651W        W18076  42.050  33.836   4.491
45652W        W18077  41.709  16.652  10.220
45653W        W18078   8.829  16.338   1.746
45654W        W18079  24.097  27.747  14.474
45655W        W18080  24.007  43.195   1.228
45656W        W18081  43.513   0.793  13.162
45657W        W18082  26.002  23.781   4.497
45658W        W18083  21.668  33.088  14.430
45659W        W18084   9.407  34.063   1.758
45660W        W18085  39.969  14.272  13.892
45661W        W18086   2.732  38.095  13.741
45662W        W18087   4.868  10.342   0.642
45663W        W18088  13.930  15.376  12.580
45664W        W18089   0.169  31.063  11.634
45665W        W18090  21.492   9.353  10.531
45666W        W18091   5.950  27.686  12.481
45667W        W18092  43.665  38.401   4.257
45668W        W18093  29.090  32.086   4.606
45669W        W18094  16.830  35.776  12.372
45670W        W18095  29.002  26.969  13.616
45671W        W18096  24.751  40.471   4.393
45672W        W18097  38.862  22.720   2.395
45673W        W18098  25.531  27.764  13.294
45674W        W18099  37.875  16.192  10.610
45675W        W18100  18.952  40.091  14.926
45676W        W18101   3.594  29.381  10.270
45677W        W18102  16.080   4.802  12.500
45678W        W18103  39.817  40.967   1.745
45679W        W18104  17.676  36.780  14.426
45680W        W18105  33.575  13.632  11.361
45681W        W18106   6.133  41.542  10.727
45682W        W18107  14.791  34.869  12.418
45683W        W18108  31.024  10.648  12.125
45684W        W18109  38.465  37.991   1.354
45685W        W18110   8.512  40.410  12.270
45686W        W18111  39.555  35.047  11.172
45687W        W18112  27.582  17.639  12.955
45688W        W18113  26.576  35.033   4.599
45689W        W18114  22.332  25.605   2.696
45690W        W18115  31.614  10.101  14.555
45691W        W18116  30.917  40.933  10.016
45692W        W18117  19.333  41.984   4.622
45693W        W18118  39.904  14.298  11.789
45694W        W18119  38.809   4.807  10.800
45695W        W18120  43.850  10.031  10.007
45696W        W18121   5.702  15.347   3.410
45697W        W18122  37.422  40.951   2.974
45698W        W18123  25.689  42.524   4.701
45699W        W18124  32.001   0.943  11.864
45700W        W18125  12.349  18.726  12.947
45701W        W18126  30.580  41.308   3.170
45702W        W18127  44.007  38.985  14.927
45703W        W18128  22.033   5.510  12.518
45704W        W18129   7.891  13.697   0.192
45705W        W18130  22.730  39.586   4.304
45706W        W18131  31.529  23.127   4.173
45707W        W18132  18.878   2.847  12.439
45708W        W18133  23.779  29.051   2.054
45709W        W18134  42.849  36.577   3.574
45710W        W18135  13.598   0.414   2.651
45711W        W18136  10.372   0.678   2.694
45712W        W18137  20.212  42.974  13.105
45713W        W18138  11.603   7.635   3.196
45714W        W18139   1.081  10.394   0.015
45715W        W18140  38.052   4.713  11.221
45716W        W18141  43.430   9.951   2.854
45717W        W18142  25.138  32.032   1.834
45718W        W18143  32.333  15.744  11.930
45719W        W18144  11.258  39.937   3.185
45720W        W18145  21.955  17.040   3.289
45721W        W18146  24.403  30.996   1.910
45722W        W18147   0.372  33.370   3.690
45723W        W18148  24.179  30.506   3.132
45724W        W18149  37.954  28.360   2.734
45725W        W18150   8.681  16.703  10.000
45726W        W18151   9.614  25.074  11.162
45727W        W18152  19.730   0.994  11.049
45728W        W18153  19.226   9.821  10.899
45729W        W18154  18.301  43.414  12.478
45730W        W18155   5.768   4.469   0.372
45731W        W18156   4.837  16.079   2.119
45732W        W18157  36.445   8.224   1.202
45733W        W18158  10.069  14.898   1.388
45734W        W18159   9.007  18.724  11.615
45735W        W18160   3.321  19.805  14.170
45736W        W18161  38.729   0.340  13.851
45737W        W18162  23.103   2.055   3.045
45738W        W18163   6.105  26.740  10.650
45739W        W18164  17.497  10.162  10.142
45740W        W18165  44.503   9.642   0.263
45741W        W18166  14.716  30.988  11.108
45742W        W18167  21.246  40.969   0.493
45743W        W18168  20.700  39.864  10.675
45744W        W18169  27.215  25.001  10.604
45745W        W18170  25.083  24.476   3.156
45746W        W18171  10.553  29.074  10.179
45747W        W18172  42.502  37.959   1.353
45748W        W18173  22.762  33.702  14.988
45749W        W18174   0.681  38.652   1.288
45750W        W18175  17.470  22.807   1.867
45751W        W18176  17.805  32.420   5.386
45752W        W18177  38.959  42.833  12.569
45753W        W18178  23.118  24.782  12.105
45754W        W18179   0.689  39.598   3.301
45755W        W18180  42.699  39.651  11.565
45756W        W18181  31.005   0.185   2.885
45757W        W18182  15.596   4.393   1.946
45758W        W18183  30.501  30.159   0.669
45759W        W18184   0.342   4.700  11.944
45760W        W18185  22.211   1.749  11.231
45761W        W18186  21.665  24.426  13.037
45762W        W18187  40.944  23.144  11.637
45763W        W18188   5.209   7.806  11.102
45764W        W18189  10.700  21.891   3.107
45765W        W18190  21.210  42.295  14.491
45766W        W18191  25.593   9.687   1.699
45767W        W18192  40.351  18.001   4.592
45768W        W18193  27.642  19.303   4.069
45769W        W18194  30.940   8.366  14.381
45770W        W18195  37.452  43.819   0.789
45771W        W18196  30.641   8.199  13.964
45772W        W18197  10.226  22.827  12.002
45773W        W18198   4.332  42.814  13.867
45774W        W18199  34.370  31.444   0.708
45775W        W18200  14.629  35.203  13.575
45776W        W18201  28.868  22.155   3.739
45777W        W18202  41.449  35.903   1.470
45778W        W18203  38.513   4.655  11.604
45779W        W18204  31.069   5.344  12.140
45780W        W18205  44.780  39.343  14.491
45781W        W18206  32.508  10.214   2.794
45782W        W18207  35.347  27.467   3.679
45783W        W18208  31.925  27.965  11.610
45784W        W18209  29.119  27.267   4.054
45785W        W18210  32.711  30.002  14.284
45786W        W18211  37.110  13.057   4.695
45787W        W18212  24.216  36.566   3.832
45788W        W18213  36.604  27.597  14.977
45789W        W18214  31.569   8.612  12.979
45790W        W18215  24.471   5.408   0.022
45791W        W18216  11.049  17.729  13.373
45792W        W18217  32.683  23.098   3.487
45793W        W18218  14.529  36.473   4.276
45794W        W18219   3.218  16.260  14.941
45795W        W18220   6.360  17.686   1.666
45796W        W18221  43.765  23.452   2.403
45797W        W18222   4.475   1.867   0.254
45798W        W18223  18.306   0.220   1.462
45799W        W18224  37.593   1.381   3.649
45800W        W18225  20.575  39.295  12.066
45801W        W18226  41.567  34.810  11.106
45802W        W18227  33.124  24.889  10.409
45803W        W18228  39.409   8.002  13.370
45804W        W18229  24.571   3.958  10.720
45805W        W18230  18.866  31.956   3.555
45806W        W18231  39.245   1.637  12.920
45807W        W18232  21.470  39.321  13.011
45808W        W18233   3.250   4.376  10.632
45809W        W18234  43.190  39.561  14.745
45810W        W18235   5.032  17.892   2.341
45811W        W18236  31.137  29.038   2.963
45812W        W18237  43.548  25.814   3.524
45813W        W18238   5.788  12.846   1.638
45814W        W18239  32.618  31.864  11.484
45815W        W18240  43.988  20.128  12.349
45816W        W18241  12.341   4.942  10.638
45817W        W18242  15.227  22.114  10.763
45818W        W18243  34.500   2.687  13.019
45819W        W18244   2.843  39.416   4.575
45820W        W18245  44.045  16.268  11.212
45821W        W18246  28.972  12.054  12.495
45822W        W18247   8.866   9.590   4.452
45823W        W18248   1.315   6.592  12.493
45824W        W18249   7.249   8.140   1.205
45825W        W18250   8.875   9.437  10.761
45826W        W18251  25.108   7.173   0.174
45827W        W18252  19.367  15.358   4.155
45828W        W18253  32.520  22.627   3.683
45829W        W18254  26.062   7.661  12.096
45830W        W18255  43.349  22.426  11.452
45831W        W18256  19.954  31.021   0.459
45832W        W18257  22.216  11.246   0.727
45833W        W18258  19.711  21.064   2.301
45834W        W18259  32.698  40.985  11.143
45835W        W18260  32.190   9.720  10.573
45836W        W18261  11.767  14.265   1.217
45837W        W18262  11.388   9.753  11.532
45838W        W18263   3.261   1.869  10.644
45839W        W18264  11.903   5.217   4.587
45840W        W18265   4.640  24.523   0.347
45841W        W18266  16.715  12.886   2.375
45842W        W18267   5.604  16.356  12.050
45843W        W18268  10.372  19.209   3.337
45844W        W18269  11.855  12.128  13.429
45845W        W18270  21.003   9.758  11.268
45846W        W18271  43.108  15.806   0.118
45847W        W18272  42.924   1.204   1.130
45848W        W18273  13.185  34.941   4.546
45849W        W18274  34.342  28.026  13.488
45850W        W18275  16.088  21.618   3.605
45851W        W18276  40.829  16.063  11.138
45852W        W18277  30.036  29.605   4.918
45853W        W18278  37.997  41.796  10.645
45854W        W18279   8.738  20.803  12.106
45855W        W18280  30.411  20.758  13.017
45856W        W18281   3.438  18.064  11.219
45857W        W18282  31.085   3.822  11.031
45858W        W18283  37.944  11.568   0.027
45859W        W18284  29.852  11.788  11.574
45860W        W18285  44.471   7.352  11.522
45861W        W18286  22.703  19.054  12.562
45862W        W18287  43.775  22.455   1.907
45863W        W18288  11.455  42.904   0.949
45864W        W18289  26.223  35.981   4.849
45865W        W18290  29.245  16.794   2.791
45866W        W18291   9.391  38.084   3.641
45867W        W18292   8.322  20.603  11.854
45868W        W18293  10.455  39.525  12.494
45869W        W18294   3.322  22.819   2.227
45870W        W18295   9.423  39.821   1.405
45871W        W18296  31.081  43.954  12.462
45872W        W18297  27.376   8.840   2.236
45873W        W18298  37.871  37.291   2.180
45874W        W18299  25.112  14.156   2.173
45875W        W18300  38.851  32.957   0.249
45876W        W18301   9.574  38.861  12.026
45877W        W18302  28.909  44.246  11.888
45878W        W18303   1.033   7.824   5.065
45879W        W18304  44.997  21.436  11.846
45880W        W18305  35.564   5.126  11.588
45881W        W18306   6.787  10.593  14.365
45882W        W18307  13.184  10.330   4.380
45883W        W18308  16.745  30.000  11.464
45884W        W18309  21.698  22.859   4.266
45885W        W18310  43.537  14.750  11.847
45886W        W18311  34.418   5.696  14.034
45887W        W18312  22.517  31.970  14.919
45888W        W18313  29.612   8.205  12.017
45889W        W18314  41.898  25.063  12.940
45890W        W18315  28.641  38.336  11.393
45891W        W18316   8.217   0.303   4.066
45892W        W18317  13.322  34.429   4.623
45893W        W18318  11.461  18.106  13.320
45894W        W18319  40.009  24.269   3.948
45895W        W18320   7.271  19.299  13.037
45896W        W18321   4.864   1.344   2.301
45897W        W18322  16.814  36.842   2.745
45898W        W18323   2.812  19.832  13.262
45899W        W18324  31.533  23.100   3.663
45900W        W18325  39.053  21.818  10.446
45901W        W18326   0.202   7.305  12.660
45902W        W18327  10.538  39.007  10.557
45903W        W18328  25.397   1.143   2.027
45904W        W18329   3.686  36.085  13.969
45905W        W18330  34.731  33.213  14.355
45906W        W18331  38.586  31.890  13.941
45907W        W18332   5.355  42.719  12.018
45908W        W18333  42.396  37.406   5.147
45909W        W18334  27.263  28.173   2.208
45910W        W18335   9.292  38.414  13.092
45911W        W18336  36.643  33.900   3.769
45912W        W18337  20.153  38.145  13.558
45913W        W18338  35.819   7.308  14.812
45914W        W18339   0.730  40.846   9.845
45915W        W18340   3.467  15.744   2.133
45916W        W18341   6.926  18.263   1.500
45917W        W18342  25.869  29.196   0.907
45918W        W18343  33.741  14.520   4.198
45919W        W18344  34.030   1.495   4.576
45920W        W18345  31.614   8.292  13.465
45921W        W18346   1.476  34.278  12.948
45922W        W18347  37.865   0.689   1.054
45923W        W18348   9.360   3.777   4.258
45924W        W18349   3.431  14.865   0.755
45925W        W18350  29.437  33.439   0.934
45926W        W18351   5.866  18.610  10.929
45927W        W18352   4.656  23.576   0.737
45928W        W18353  12.591   6.166   0.241
45929W        W18354  41.817   6.979   3.103
45930W        W18355  34.196  15.101  13.532
45931W        W18356  44.702   8.262   2.808
45932W        W18357  36.949  33.462   3.606
45933W        W18358  38.379  11.693  10.905
45934W        W18359  42.486   8.217  13.457
45935W        W18360  27.937  25.274  11.586
45936W        W18361  37.165  27.109   4.660
45937W        W18362   9.144   8.937  12.585
45938W        W18363  36.132  20.709   2.721
45939W        W18364  22.535   8.194  14.252
45940W        W18365  34.902   8.876  10.274
45941W        W18366  12.720  23.820   3.360
45942W        W18367   4.964  32.084   3.223
45943W        W18368  26.117   7.750  14.120
45944W        W18369  39.058  12.598  11.978
45945W        W18370  29.135   4.200   2.335
45946W        W18371  19.186  16.576  12.906
45947W        W18372  32.944   0.357  10.791
45948W        W18373  19.734   2.627   0.443
45949W        W18374  27.253  20.769   3.328
45950W        W18375  31.679   8.697  14.654
45951W        W18376   9.203  18.737  11.124
45952W        W18377   7.202  23.986  11.654
45953W        W18378  27.456   1.317   2.686
45954W        W18379   5.895   6.866   4.944
45955W        W18380  21.699  27.433  11.671
45956W        W18381  25.165   1.017   4.540
45957W        W18382  36.479  41.919  10.677
45958W        W18383   9.894   4.422   3.177
45959W        W18384   2.456  18.483   3.500
45960W        W18385  18.666  20.208  11.519
45961W        W18386  28.378  39.805  11.544
45962W        W18387  34.894  14.203  10.341
45963W        W18388  13.094  19.173   2.670
45964W        W18389  17.700  25.075   1.371
45965W        W18390  40.003  33.372   3.258
45966W        W18391  37.022  39.889   3.078
45967W        W18392  19.670   8.346   0.238
45968W        W18393  39.543  44.271   2.283
45969W        W18394  40.850  39.477  13.531
45970W        W18395  36.288  34.963  12.071
45971W        W18396   9.384  31.479   3.579
45972W        W18397   3.737  19.447  11.024
45973W        W18398  19.976  22.180   4.660
45974W        W18399  19.616  25.475   0.329
45975W        W18400  43.556   1.486   4.596
45976W        W18401  24.070  15.094  14.878
45977W        W18402  38.409  32.642  12.301
45978W        W18403  12.266  23.435   0.593
45979W        W18404  25.344   1.988  14.532
45980W        W18405   3.941  17.213  13.346
45981W        W18406   0.259   2.236   1.490
45982W        W18407  13.404   7.837  12.562
45983W        W18408  41.874  37.437  13.458
45984W        W18409  24.603  13.374  13.750
45985W        W18410  43.894  37.552  13.676
45986W        W18411  29.018  14.679   4.748
45987W        W18412  22.754  11.347   2.259
45988W        W18413   9.349   7.192  11.146
45989W        W18414  20.395  36.313  13.358
45990W        W18415  22.306  36.077  11.572
45991W        W18416  25.971  44.465   1.171
45992W        W18417  25.863  29.073  14.985
45993W        W18418  41.047  38.471   2.591
45994W        W18419  39.088  31.126  14.383
45995W        W18420  25.798   8.674   4.552
45996W        W18421  13.452  25.260   0.434
45997W        W18422  24.025   5.798  12.060
45998W        W18423   6.865  26.678  12.702
45999W        W18424  26.055  15.597   3.171
46000W        W18425  35.305  37.081  13.827
46001W        W18426  43.046  44.257  14.425
46002W        W18427  21.354  40.290   4.026
46003W        W18428  15.539  32.032   0.978
46004W        W18429  27.928  42.918  11.236
46005W        W18430   2.748  19.537   2.857
46006W        W18431  28.615   6.807  14.292
46007W        W18432  39.026  25.674   0.883
46008W        W18433  26.494  40.613   3.763
46009W        W18434  37.206  15.630  12.425
46010W        W18435  42.008  20.166  11.053
46011W        W18436  25.010  19.987   3.206
46012W        W18437   7.246  17.783  11.368
46013W        W18438  35.999  32.460   0.026
46014W        W18439  44.543  39.993   4.287
46015W        W18440  28.592   2.389  13.539
46016W        W18441  41.510  42.660   1.846
46017W        W18442   0.727  28.054  11.212
46018W        W18443  30.458  22.677   0.258
46019W        W18444  21.161  30.987   2.369
46020W        W18445  35.924   9.676  10.013
46021W        W18446  10.327  40.783   2.807
46022W        W18447  17.664  19.502   2.270
46023W        W18448   4.339  44.227   1.742
46024W        W18449  22.071   3.918  11.207
46025W        W18450   3.352  18.828   3.166
46026W        W18451  37.335  24.735  12.987
46027W        W18452  15.325   4.318   5.006
46028W        W18453  35.981  37.032   1.008
46029W        W18454  13.298  27.710  11.355
46030W        W18455  17.161  43.580  11.223
46031W        W18456   0.302  13.332   2.142
46032W        W18457  35.983  16.373  11.946
46033W        W18458  17.594  37.597  13.411
46034W        W18459   6.816   2.044  11.711
46035W        W18460  31.591   8.469  11.994
46036W        W18461   8.903  28.719  14.556
46037W        W18462  20.988  11.784   0.913
46038W        W18463  30.652  41.320  12.910
46039W        W18464  19.853  14.297  14.393
46040W        W18465  20.846  13.736  12.137
46041W        W18466   5.690  36.806  13.977
46042W        W18467  18.038  29.047   1.901
46043W        W18468  38.305  23.645   1.309
46044W        W18469  12.117  21.379   5.477
46045W        W18470  11.656   9.832   1.865
46046W        W18471  10.380  20.775  14.308
46047W        W18472  21.255  13.178  14.744
46048W        W18473  35.553   0.622  13.311
46049W        W18474  36.363   5.961   0.982
46050W        W18475  20.816  11.327   4.161
46051W        W18476  30.653  15.239  11.470
46052W        W18477   8.561  21.024   4.468
46053W        W18478  20.343  44.396   4.735
46054W        W18479  12.636   2.397   1.770
46055W        W18480  33.846  15.798   3.718
46056W        W18481   3.511  13.691   1.868
46057W        W18482  40.910   7.216  11.953
46058W        W18483   1.217  11.441   4.253
46059W        W18484  22.799   3.819  13.961
46060W        W18485   3.733  16.704  13.308
46061W        W18486  19.971  43.417  13.007
46062W        W18487  21.162  11.259  14.338
46063W        W18488  15.210  42.594  13.884
46064W        W18489  35.907  33.594   1.371
46065W        W18490   1.011  42.792  13.560
46066W        W18491  32.299  37.718   3.774
46067W        W18492  22.510  39.934   4.616
46068W        W18493   5.332  22.201  13.599
46069W        W18494   0.102   0.261  11.741
46070W        W18495  13.712   4.872  12.841
46071W        W18496  43.544  13.326  12.365
46072W        W18497  32.127  26.513   5.126
46073W        W18498  19.352  16.073  10.676
46074W        W18499  39.246  10.224   3.628
46075W        W18500  30.792  22.466  13.800
46076W        W18501  12.309   1.288   3.192
46077W        W18502   1.222   8.175   4.676
46078W        W18503  14.622   9.722   1.897
46079W        W18504  20.345   8.685  12.039
46080W        W18505   4.031   9.311  13.879
46081W        W18506   0.270  39.764  10.801
46082W        W18507  33.667  41.427  13.938
46083W        W18508   3.333  37.366  11.596
46084W        W18509   4.915  21.415   4.065
46085W        W18510  26.483  42.702  12.751
46086W        W18511  38.484  19.766   2.791
46087W        W18512   8.456  41.394   2.651
46088W        W18513  36.492  20.615   0.364
46089W        W18514  39.017  38.019  12.210
46090W        W18515  11.273  17.246   0.940
46091W        W18516  18.067  38.493   3.651
46092W        W18517  11.702  25.960   1.970
46093W        W18518  24.962  17.829   3.698
46094W        W18519  10.690   8.252   2.794
46095W        W18520  21.796  36.523   4.149
46096W        W18521   1.705   3.482   0.302
46097W        W18522  23.140  35.567   4.884
46098W        W18523  41.460  27.659  11.974
46099W        W18524  30.892  35.648   4.983
46100W        W18525   4.436  29.690  12.250
46101W        W18526  17.967  33.983  11.111
46102W        W18527  26.723   8.792  10.543
46103W        W18528  19.903  41.998   0.721
46104W        W18529   4.666  32.205  14.926
46105W        W18530  32.607   9.397   1.213
46106W        W18531  13.149  38.061  14.866
46107W        W18532  40.541  27.087  13.976
46108W        W18533  11.298   2.295   3.219
46109W        W18534   8.425   8.289  11.401
46110W        W18535  19.631  16.535  13.180
46111W        W18536  13.084  18.872  10.520
46112W        W18537  13.057  12.690  10.758
46113W        W18538   8.193  11.839  12.825
46114W        W18539  43.443   8.275  13.324
46115W        W18540  22.699   3.237  10.738
46116W        W18541  38.994  26.124   4.238
46117W        W18542   9.708  28.133  12.515
46118W        W18543   6.706  25.098  13.911
46119W        W18544  15.681  30.708   1.440
46120W        W18545   7.310  25.529   0.637
46121W        W18546  40.080  22.166   3.644
46122W        W18547  36.025  18.005   2.205
46123W        W18548   5.936  43.086   5.137
46124W        W18549  24.594  37.915   3.718
46125W        W18550  22.267  28.970   1.980
46126W        W18551   4.114  36.689  11.928
46127W        W18552  43.248  15.152  14.958
46128W        W18553  40.349  20.743  12.025
46129W        W18554  40.267  28.707   0.487
46130W        W18555  36.204  22.137   0.433
46131W        W18556  33.259  39.906   0.921
46132W        W18557  38.044  35.505  12.760
46133W        W18558  44.763  25.405   0.983
46134W        W18559  37.033  32.233   3.856
46135W        W18560   2.148   3.362  13.299
46136W        W18561  15.590   9.955   4.309
46137W        W18562  22.259   5.717   1.360
46138W        W18563  36.556  20.550   5.011
46139W        W18564  22.523  15.587   2.673
46140W        W18565   4.810  39.268  14.309
46141W        W18566   5.929  30.706   1.640
46142W        W18567  39.295   8.302   0.454
46143W        W18568  21.000  25.617  14.989
46144W        W18569  42.789   6.322  12.320
46145W        W18570  13.015  26.275   5.037
46146W        W18571  33.842  31.067   3.347
46147W        W18572   9.967   0.872  10.798
46148W        W18573  33.947  34.018   4.529
46149W        W18574  20.589  19.832  10.456
46150W        W18575  13.406  17.032   1.794
46151W        W18576  31.893  33.080   4.624
46152W        W18577  44.682  42.327   1.799
46153W        W18578   8.279  27.902   1.267
46154W        W18579  10.672  30.724   3.205
46155W        W18580  36.883  17.511   2.497
46156W        W18581  44.053  37.477  13.091
46157W        W18582  26.798  18.329  10.262
46158W        W18583  15.305  27.387   0.193
46159W        W18584  31.286  24.472  10.970
46160W        W18585  10.142  39.616  13.441
46161W        W18586   6.477  13.165   3.284
46162W        W18587  28.629  29.522  12.141
46163W        W18588  37.568   3.689  10.716
46164W        W18589  36.402  44.273   4.095
46165W        W18590  38.216  37.347  12.343
46166W        W18591  40.791  20.927   0.219
46167W        W18592  28.240  11.974   1.069
46168W        W18593  37.279  25.637   4.765
46169W        W18594  19.971  31.645   1.057
46170W        W18595  25.760   1.242  13.363
46171W        W18596  20.741   6.460   4.639
46172W        W18597   4.061   4.287  11.055
46173W        W18598  38.950  38.912   1.394
46174W        W18599   2.309  29.665   1.942
46175W        W18600  33.787  32.546  10.454
46176W        W18601  13.046  35.962   3.927
46177W        W18602  44.054  20.326   1.093
46178W        W18603   2.206  10.856   0.917
46179W        W18604  11.501  42.874  12.999
46180W        W18605  13.707   1.938   0.645
46181W        W18606  19.636   6.249  14.856
46182W        W18607  35.809  24.582   0.784
46183W        W18608  40.913  35.224  12.378
46184W        W18609  10.772  24.476  14.487
46185W        W18610   8.979  35.027   2.019
46186W        W18611  30.687   7.093   1.989
46187W        W18612  42.055  44.334  13.432
46188W        W18613  27.463  44.733   3.249
46189W        W18614  12.630  33.615   0.756
46190W        W18615   6.361   2.946  14.826
46191W        W18616  40.603  15.119  11.459
46192W        W18617  30.376  13.191   0.748
46193W        W18618  10.295  11.283   0.302
46194W        W18619   8.666  39.405  11.700
46195W        W18620  12.098  19.135   0.108
46196W        W18621  24.507  17.681   0.975
46197W        W18622   6.786  28.706  11.502
46198W        W18623  43.374  16.292  13.918
46199W        W18624  30.085  26.523  12.839
46200W        W18625  25.460  24.187   3.377
46201W        W18626  17.772  34.650  11.466
46202W        W18627  28.490   6.292   1.525
46203W        W18628  28.921  24.998   1.739
46204W        W18629   9.773   0.188  11.130
46205W        W18630  23.524  17.676  14.088
46206W        W18631   7.635  20.215  11.902
46207W        W18632  34.344  35.046   2.275
46208W        W18633  25.227   6.825   2.791
46209W        W18634   7.411   2.207   4.301
46210W        W18635  18.000  20.611  14.866
46211W        W18636  31.186  22.140   3.192
46212W        W18637   5.429   1.254   2.908
46213W        W18638  39.863  35.559  13.681
46214W        W18639   0.341   9.375   1.729
46215W        W18640  20.199  19.797   3.158
46216W        W18641  28.387  38.634   1.942
46217W        W18642  22.122  14.059   1.731
46218W        W18643  14.489   4.838   0.335
46219W        W18644  31.614  19.756  10.778
46220W        W18645   9.834  27.906   3.747
46221W        W18646   7.201  38.910   4.652
46222W        W18647  34.188   9.542   0.900
46223W        W18648  13.234   0.710   4.651
46224W        W18649  28.985   1.264  14.341
46225W        W18650  20.632  30.553  12.550
46226W        W18651  22.062  16.536   2.233
46227W        W18652  44.073  23.330   3.741
46228W        W18653  16.691  14.688  13.930
46229W        W18654  14.604   8.921  12.518
46230W        W18655   7.607  43.323  14.958
46231W        W18656  26.097  17.694  11.146
46232W        W18657  43.079  36.999  12.859
46233W        W18658  21.733   8.523   3.227
46234W        W18659  24.828  34.782  11.166
46235W        W18660   7.906  14.202   4.209
46236W        W18661  41.330  19.037  14.032
46237W        W18662  19.370  15.686   5.089
46238W        W18663  30.884  16.707   3.613
46239W        W18664   3.363  43.488  12.330
46240W        W18665  25.891   8.148   3.695
46241W        W18666   6.286  17.448   9.996
46242W        W18667  22.077  23.028   3.250
46243W        W18668  21.520  35.444  14.297
46244W        W18669  38.665  37.127  12.261
46245W        W18670  19.527  10.639   0.508
46246W        W18671   0.173  28.713   4.243
46247W        W18672  27.123   2.050   4.284
46248W        W18673  24.215  30.910   5.059
46249W        W18674  30.993   5.266  14.586
46250W        W18675  26.393  28.997  14.930
46251W        W18676  23.579   9.126   0.775
46252W        W18677  17.718  28.365  14.398
46253W        W18678  16.459   1.589  11.052
46254W        W18679   4.701   8.537  13.040
46255W        W18680  42.486   9.380   3.817
46256W        W18681  44.058  10.799   4.703
46257W        W18682  37.781  12.303   2.798
46258W        W18683  15.264  12.290   4.206
46259W        W18684  24.719  27.541  12.013
46260W        W18685   0.344  16.851  13.449
46261W        W18686   4.828   4.914   2.751
46262W        W18687  26.693  21.805   3.639
46263W        W18688   2.437  33.496   4.125
46264W        W18689   6.151  10.308   3.394
46265W        W18690  42.790  18.571  14.521
46266W        W18691  19.445  34.899  14.800
46267W        W18692  15.320  18.586   0.331
46268W        W18693   7.808  44.971  11.493
46269W        W18694  22.806  41.531   0.289
46270W        W18695  35.117   6.659  10.317
46271W        W18696   4.255  42.207  13.025
46272W        W18697  33.359  17.262  11.051
46273W        W18698   5.293   4.066  14.858
46274W        W18699  18.244  35.640   0.821
46275W        W18700  26.677  19.669  12.938
46276W        W18701  22.757   3.714   2.642
46277W        W18702   7.590  20.300  13.010
46278W        W18703  30.199   9.562   0.317
46279W        W18704  42.573  18.650   0.860
46280W        W18705   5.580  28.863  13.555
46281W        W18706   7.256  25.067   0.350
46282W        W18707  31.078   9.152  11.688
46283W        W18708  15.619   4.416   2.984
46284W        W18709   5.707   8.672   3.778
46285W        W18710  16.185  20.597  12.947
46286W        W18711  34.336  10.257  12.834
46287W        W18712  29.636  42.289  13.453
46288W        W18713  28.698  18.700   3.703
46289W        W18714   5.024  23.989   2.732
46290W        W18715  16.605  42.477   1.761
46291W        W18716   2.823  18.132  10.727
46292W        W18717   9.782  35.153   0.473
46293W        W18718  16.968  26.096   1.092
46294W        W18719  41.539  19.815   0.876
46295W        W18720  35.558  44.797   0.751
46296W        W18721  15.073  20.217  13.438
46297W        W18722  13.790   1.794  14.225
46298W        W18723  41.400  42.091  14.904
46299W        W18724   9.340  30.074   4.869
46300W        W18725  26.350  32.818   5.530
46301W        W18726  21.948  43.913  14.867
46302W        W18727  10.811  13.815  14.732
46303W        W18728  37.016   4.429   0.310
46304W        W18729  37.214  43.464  13.485
46305W        W18730  15.430  34.367   4.986
46306W        W18731  30.279  40.633   2.909
46307W        W18732  37.488  19.019   2.224
46308W        W18733  16.712  24.403  14.578
46309W        W18734  38.148   8.916  10.671
46310W        W18735  29.668  10.407  10.771
46311W        W18736  44.725  30.614   0.786
46312W        W18737  43.241  15.254   2.694
46313W        W18738   4.828  26.217  11.933
46314W        W18739   5.437  20.603  12.071
46315W        W18740  20.883  10.242   1.220
46316W        W18741  43.819   7.917  11.711
46317W        W18742   1.894  13.378  14.851
46318W        W18743  44.299   0.024  14.354
46319W        W18744  39.719  12.308   1.946
46320W        W18745   0.493  15.472  13.827
46321W        W18746  43.983  32.457  11.932
46322W        W18747  39.422  19.056  11.079
46323W        W18748  20.510  35.461  10.357
46324W        W18749  37.506   9.913   2.780
46325W        W18750  16.340  26.972  11.474
46326W        W18751  43.942  38.882   1.337
46327W        W18752   8.653  14.083   2.881
46328W        W18753  24.557  25.437  11.653
46329W        W18754  25.227  13.421  14.431
46330W        W18755   6.599   4.539  10.964
46331W        W18756  44.142  31.125  14.283
46332W        W18757  16.649   6.468  14.621
46333W        W18758  38.860  41.283   1.345
46334W        W18759   9.781  31.574  11.143
46335W        W18760  34.913  39.475   2.280
46336W        W18761  21.722   7.456  10.711
46337W        W18762  10.253  21.808   4.822
46338W        W18763   3.769  19.440  13.167
46339W        W18764  44.318  25.940  13.827
46340W        W18765  28.157  36.018  11.970
46341W        W18766  18.746   9.849   0.554
46342W        W18767  25.702  36.451   2.250
46343W        W18768  36.285   5.833  11.486
46344W        W18769  25.084  15.592   3.151
46345W        W18770   2.661  11.244  14.288
46346W        W18771  36.583  11.585  10.707
46347W        W18772  14.013  14.060  12.880
46348W        W18773  44.910  14.370   2.909
46349W        W18774  44.682   3.452   4.102
46350W        W18775   8.889  19.903  10.531
46351W        W18776   5.815  36.618   0.736
46352W        W18777   1.754  13.162   1.747
46353W        W18778   4.684  23.960  13.323
46354W        W18779  16.669  43.580  10.980
46355W        W18780  40.242  36.420   2.852
46356W        W18781   1.246   7.883  14.992
46357W        W18782  17.595  23.459   2.192
46358W        W18783  29.846  25.128  13.486
46359W        W18784  22.529  43.945   0.746
46360W        W18785   2.967  10.727   1.768
46361W        W18786  41.480  44.144   0.959
46362W        W18787   6.737  24.935   0.837
46363W        W18788  33.415   7.355   1.317
46364W        W18789  16.110  17.664   3.557
46365W        W18790  22.472   3.814  13.553
46366W        W18791  34.847   4.287   1.698
46367W        W18792  14.038  38.439  10.624
46368W        W18793   3.039   4.308   3.713
46369W        W18794  42.493  23.260  13.141
46370W        W18795  27.389  22.798  11.909
46371W        W18796  34.985  21.133   3.557
46372W        W18797  42.874  17.192   4.030
46373W        W18798  11.600  30.493   0.216
46374W        W18799   0.009  27.964  10.730
46375W        W18800   2.664  35.892   4.606
46376W        W18801  33.391  44.423   0.100
46377W        W18802   2.260  19.143   0.373
46378W        W18803   9.678  39.477  13.240
46379W        W18804  13.156   0.129   4.747
46380W        W18805  27.280  43.504  10.357
46381W        W18806  23.005  22.712   0.174
46382W        W18807  39.422  25.549  14.957
46383W        W18808  36.519  40.373  12.279
46384W        W18809   6.225  28.220   2.466
46385W        W18810  34.485  16.637   0.498
46386W        W18811  44.271  23.942  14.033
46387W        W18812  27.561  16.316   1.886
46388W        W18813  42.982  11.613   2.671
46389W        W18814  23.551  38.024   2.440
46390W        W18815  14.687  10.802  11.599
46391W        W18816  12.250  42.986  10.758
46392W        W18817  16.616  20.570   4.263
46393W        W18818  39.510  29.549   0.878
46394W        W18819  44.943  14.070  13.717
46395W        W18820  30.198  28.695  13.932
46396W        W18821  44.392   4.692  11.115
46397W        W18822  39.120  27.867   0.216
46398W        W18823  13.048  10.684  11.491
46399W        W18824  38.818  12.779  11.570
46400W        W18825  14.589  22.632  10.160
46401W        W18826  23.245   9.361   2.884
46402W        W18827  33.255  23.029  12.578
46403W        W18828  30.051  37.373  12.995
46404W        W18829   9.773   6.233  13.911
46405W        W18830  29.166   5.818  13.316
46406W        W18831  19.706   5.873  12.080
46407W        W18832  18.018  10.914  11.884
46408W        W18833  26.156  13.780   0.008
46409W        W18834   0.699  41.912   4.594
46410W        W18835  15.134  41.531  13.020
46411W        W18836  18.968   5.949  12.473
46412W        W18837  34.802  37.522   0.372
46413W        W18838  20.666  39.403   2.232
46414W        W18839  16.886   7.892   2.197
46415W        W18840  27.639  10.216  10.817
46416W        W18841   3.423  13.804  14.776
46417W        W18842  41.977   1.510   4.872
46418W        W18843  43.290  15.745   0.931
46419W        W18844  29.557  16.046   3.132
46420W        W18845  14.174  15.297  11.509
46421W        W18846  15.756  20.220   4.947
46422W        W18847  19.548  16.595   1.918
46423W        W18848  32.737  15.528  14.817
46424W        W18849  27.228  26.541   3.603
46425W        W18850  27.714  10.003  11.935
46426W        W18851  36.908  19.788   2.034
46427W        W18852  21.586   3.343   2.703
46428W        W18853  41.422  37.105   0.300
46429W        W18854   4.341   6.119   0.441
46430W        W18855   0.754  29.975  12.939
46431W        W18856  23.065   3.304   0.453
46432W        W18857  18.750  16.124   0.358
46433W        W18858  13.669  29.345   3.187
46434W        W18859   6.949  36.399  14.997
46435W        W18860   3.210  35.475   2.869
46436W        W18861   4.975  19.169   0.886
46437W        W18862  19.601   9.470   3.703
46438W        W18863  19.219  44.557   1.711
46439W        W18864  43.287  32.736   2.345
46440W        W18865  12.758  24.153  10.114
46441W        W18866  30.700   1.457  13.014
46442W        W18867  19.689  38.146   3.234
46443W        W18868   9.629   6.483  12.009
46444W        W18869  11.834  24.295  11.449
46445W        W18870   2.330   9.308   0.498
46446W        W18871   0.974   6.891   4.633
46447W        W18872   3.740  31.706  12.874
46448W        W18873   4.300  23.770   3.080
46449W        W18874  41.933  10.957   9.906
46450W        W18875  34.731  18.307  10.749
46451W        W18876  19.990   3.847   4.829
46452W        W18877  37.630  11.626  14.490
46453W        W18878  44.923  40.361   0.034
46454W        W18879   3.000  28.005  14.952
46455W        W18880  16.658   5.582  13.023
46456W        W18881  18.822  44.950   0.174
46457W        W18882  30.464  24.042   5.603
46458W        W18883  29.245   1.412   4.171
46459W        W18884  38.053  22.733  10.682
46460W        W18885  26.495   0.015  13.879
46461W        W18886  43.589  31.824   3.304
46462W        W18887  13.520  24.072  11.400
46463W        W18888  17.564  11.019  10.465
46464W        W18889  28.886  19.717   1.404
46465W        W18890  27.349  22.939  12.429
46466W        W18891  32.125   2.369  11.143
46467W        W18892  20.109  34.348   2.334
46468W        W18893  14.465  21.643  12.451
46469W        W18894  32.915  27.717   2.380
46470W        W18895  22.134   5.608   2.316
46471W        W18896  34.171  30.671   3.285
46472W        W18897  20.817  13.015   4.353
46473W        W18898  23.755  31.489   5.302
46474W        W18899  38.905   2.032   1.562
46475W        W18900  15.152   8.864  14.874
46476W        W18901   5.110  29.684  14.498
46477W        W18902  25.477  42.656  13.376
46478W        W18903  24.512  44.003  12.026
46479W        W18904  18.216   2.144  13.690
46480W        W18905  28.201   3.697  10.743
46481W        W18906  17.212  19.739   2.225
46482W        W18907  24.668   9.737   3.238
46483W        W18908  44.872   0.166  12.176
46484W        W18909  24.069  43.669  10.389
46485W        W18910  29.956   3.061  12.461
46486W        W18911   8.174  16.348   2.285
46487W        W18912  12.190  12.109  12.546
46488W        W18913  39.362  34.482   0.081
46489W        W18914   7.164  26.069   2.373
46490W        W18915  16.549  11.173   4.012
46491W        W18916  13.116  21.045  14.756
46492W        W18917  29.796  18.818   3.802
46493W        W18918  17.337  31.927   4.623
46494W        W18919  14.753  17.582   3.282
46495W        W18920   1.449  11.950   4.323
46496W        W18921  42.815  18.658   0.423
46497W        W18922  39.579  11.747  13.018
46498W        W18923  35.035  24.305   4.353
46499W        W18924  44.280   0.826   3.322
46500W        W18925  32.202  34.619   3.626
46501W        W18926  20.967  10.407  14.940
46502W        W18927   6.306  28.077  13.355
46503W        W18928  30.450  10.136  11.672
46504W        W18929  15.302   8.936   3.363
46505W        W18930  33.368   7.194  13.323
46506W        W18931   0.737  37.492   0.443
46507W        W18932  18.159  31.388   1.890
46508W        W18933  14.609   5.629   3.312
46509W        W18934  44.785  42.445  12.908
46510W        W18935  32.926  15.736   0.302
46511W        W18936  39.104  25.075  11.979
46512W        W18937  14.920   9.341  12.583
46513W        W18938  28.115  15.337   0.501
46514W        W18939  26.638  33.738  14.022
46515W        W18940  29.591  17.316   1.917
46516W        W18941  13.388  11.189   3.127
46517W        W18942   4.612   9.585   0.845
46518W        W18943  12.080  12.677  14.408
46519W        W18944  28.624  36.778  11.502
46520W        W18945   5.132   6.588  10.594
46521W        W18946  36.842  24.751   0.929
46522W        W18947  27.849   9.148   0.937
46523W        W18948  25.055  36.486   1.345
46524W        W18949  18.706  43.001  10.164
46525W        W18950  21.774   4.214  13.380
46526W        W18951  19.855  38.987   4.535
46527W        W18952  13.957  18.054  12.122
46528W        W18953  18.610  43.817  11.079
46529W        W18954  40.960  44.865  11.978
46530W        W18955  24.987   5.373   0.039
46531W        W18956  38.386  38.553  12.018
46532W        W18957  24.062  18.980   1.370
46533W        W18958  29.455  22.647   1.818
46534W        W18959  29.475   7.685   4.508
46535W        W18960   2.726  31.478   4.188
46536W        W18961  34.059  23.811   0.274
46537W        W18962  17.316   1.516  12.791
46538W        W18963  28.677  38.194  13.494
46539W        W18964  23.013  35.480   0.535
46540W        W18965   2.874  39.977   4.610
46541W        W18966  38.313  34.397  14.313
46542W        W18967   8.774  12.676   2.908
46543W        W18968  15.466  39.374   0.733
46544W        W18969  39.983  30.133   3.738
46545W        W18970   9.561   0.211  14.075
46546W        W18971  27.513   0.832   2.814
46547W        W18972  21.141  38.006   0.892
46548W        W18973   9.017  29.011  11.993
46549W        W18974  12.101  23.470  11.624
46550W        W18975  14.337   5.820   2.346
46551W        W18976  26.900  23.481   4.234
46552W        W18977  15.864  33.673  10.102
46553W        W18978  41.513  10.283  13.808
46554W        W18979   9.492  15.506   3.287
46555W        W18980   5.353  38.232  11.124
46556W        W18981  35.298  27.720  13.444
46557W        W18982  16.410  17.954  13.920
46558W        W18983   7.232  19.193  11.615
46559W        W18984  26.955  37.373  14.337
46560W        W18985  13.377  11.705   4.146
46561W        W18986  26.222  13.527   2.768
46562W        W18987  23.663  14.378  12.450
46563W        W18988  22.553   5.019   4.181
46564W        W18989  38.000   7.958  13.541
46565W        W18990  20.308  31.983   2.235
46566W        W18991  39.513  21.474  14.215
46567W        W18992   5.153  16.728  13.174
46568W        W18993  37.572  10.901   1.805
46569W        W18994   1.364  37.917  11.395
46570W        W18995  10.342  23.851  14.322
46571W        W18996   2.152  17.221   3.124
46572W        W18997  10.929  12.759   1.714
46573W        W18998  25.494  31.352  10.807
46574W        W18999  39.138   3.452   1.474
46575W        W19000  25.297   1.433   1.205
46576W        W19001  22.530  26.900  14.088
46577W        W19002   3.006  26.370  11.078
46578W        W19003   2.549  20.513   1.991
46579W        W19004  35.093  16.535  11.680
46580W        W19005  32.970  32.488   2.272
46581W        W19006  26.720  38.030  11.961
46582W        W19007  15.643  29.473  13.369
46583W        W19008  33.907   4.459   4.418
46584W        W19009  19.586  43.416  12.042
46585W        W19010   8.733  29.688  11.502
46586W        W19011  42.693  17.437   4.986
46587W        W19012  34.866  12.636   4.041
46588W        W19013  32.083  29.393  14.028
46589W        W19014   7.861   6.009   1.269
46590W        W19015  40.265  20.340  10.662
46591W        W19016  23.582  37.992   2.932
46592W        W19017  26.048  25.482  13.623
46593W        W19018   3.680  16.236  12.023
46594W        W19019   4.381   7.156   4.036
46595W        W19020   8.002  28.474   0.412
46596W        W19021  31.997   9.230  13.321
46597W        W19022  15.847  44.264   2.133
46598W        W19023  39.408  22.725  12.111
46599W        W19024   6.476  41.726  12.104
46600W        W19025  29.297  16.961  13.350
46601W        W19026   9.440   8.726  12.977
46602W        W19027  13.468   7.180   4.918
46603W        W19028  22.628  12.987  11.980
46604W        W19029   5.727  31.488   0.425
46605W        W19030   2.140  10.211  14.560
46606W        W19031  32.276  42.050   2.750
46607W        W19032  10.610  44.831   2.240
46608W        W19033  10.906   3.823  11.142
46609W        W19034   8.768  28.613  14.084
46610W        W19035  37.230   4.500   2.341
46611W        W19036  21.863  30.581   4.126
46612W        W19037   5.204   0.708  12.578
46613W        W19038  31.973  11.226  12.195
46614W        W19039  42.947  35.442   0.526
46615W        W19040  16.562  31.884   1.904
46616W        W19041  36.008  42.941   1.256
46617W        W19042  25.851  43.223   4.219
46618W        W19043  17.844   7.380   4.299
46619W        W19044  39.984  43.407   3.057
46620W        W19045   8.985  27.489   4.687
46621W        W19046  17.754  15.785   1.257
46622W        W19047  23.298   9.804   1.774
46623W        W19048  21.828  14.848  14.543
46624W        W19049  42.953  12.255   0.395
46625W        W19050  32.585  26.434   4.375
46626W        W19051  10.414  33.424  12.065
46627W        W19052  42.408  34.888  10.592
46628W        W19053   7.830  36.332   0.753
46629W        W19054   9.290   4.808  12.919
46630W        W19055  15.213  23.484   1.923
46631W        W19056  36.415  25.814  14.863
46632W        W19057   0.501   4.371   1.853
46633W        W19058  15.246  12.559   0.421
46634W        W19059   6.682  33.349  14.949
46635W        W19060  12.667  24.535  14.572
46636W        W19061   9.335  15.359  10.239
46637W        W19062  25.474  32.865   2.847
46638W        W19063   3.738  21.740   4.145
46639W        W19064  24.232  28.059  13.536
46640W        W19065  33.165   8.274   3.074
46641W        W19066   0.454  21.176  14.825
46642W        W19067   5.371  25.689  12.010
46643W        W19068  40.023  31.372   4.280
46644W        W19069  15.173   4.992   2.110
46645W        W19070  31.750  27.875   4.923
46646W        W19071  22.144   0.910   1.637
46647W        W19072  15.283  32.443   5.046
46648W        W19073  20.177   9.597  11.199
46649W        W19074  38.531  11.718  12.377
46650W        W19075  39.283  16.605  12.903
46651W        W19076  34.072   3.183   0.695
46652W        W19077   2.129   2.202  12.342
46653W        W19078  37.493   3.272  10.393
46654W        W19079  13.601  13.200   1.700
46655W        W19080  21.945  40.770  11.826
46656W        W19081  17.848  12.739  13.813
46657W        W19082  19.380   0.472  11.669
46658W        W19083  24.932  44.944  13.766
46659W        W19084  31.630  41.537  14.305
46660W        W19085  34.471  16.952   0.920
46661W        W19086  40.535  11.656   1.846
46662W        W19087   6.155  17.742   3.209
46663W        W19088  17.534  24.771   2.683
46664W        W19089  43.865   8.738  10.668
46665W        W19090  38.750  17.676   0.795
46666W        W19091  30.489  41.886  10.031
46667W        W19092  15.721  39.233  12.966
46668W        W19093  13.352  34.416   0.291
46669W        W19094  12.299  26.139   0.796
46670W        W19095  36.629   5.343   0.410
46671W        W19096  21.104  25.612   0.509
46672W        W19097  16.574  15.795   1.149
46673W        W19098  34.546  20.296   1.317
46674W        W19099  26.792   9.729  10.734
46675W        W19100   1.420  32.578  13.808
46676W        W19101   2.019  16.228  11.262
46677W        W19102   5.825  19.278  13.874
46678W        W19103  33.663  22.798  12.777
46679W        W19104  25.946  11.113  12.978
46680W        W19105  26.515  33.357  12.730
46681W        W19106  17.134  21.894  12.765
46682W        W19107  38.591  21.637   1.425
46683W        W19108  12.854  26.959   0.373
46684W        W19109  15.619  22.725   4.599
46685W        W19110  15.635   3.814  10.464
46686W        W19111  30.090   4.969   0.237
46687W        W19112  27.235  21.245   4.080
46688W        W19113  10.564   2.943  12.110
46689W        W19114   8.412  13.166  11.852
46690W        W19115  10.016  32.378  11.666
46691W        W19116  19.538  44.476   3.255
46692W        W19117  34.947   5.217   4.110
46693W        W19118  10.279  39.919  10.735
46694W        W19119  35.760  43.930  12.844
46695W        W19120  27.386  28.508  13.437
46696W        W19121  16.141  37.797  13.513
46697W        W19122  10.896  27.017   1.494
46698W        W19123   2.252  34.343  14.481
46699W        W19124   1.481  33.620  11.457
46700W        W19125  16.978  31.958   1.612
46701W        W19126   5.763   0.888  13.396
46702W        W19127   9.783  32.672   0.682
46703W        W19128  28.986  14.789   1.224
46704W        W19129  16.755  14.060   1.341
46705W        W19130  39.778  23.098  12.128
46706W        W19131  37.596  25.043  14.809
46707W        W19132   5.777  17.242   2.320
46708W        W19133   4.410  35.033  12.578
46709W        W19134  36.615  24.665   3.495
46710W        W19135  37.433  11.383   0.921
46711W        W19136  35.985  26.619   3.022
46712W        W19137   3.813  20.776   1.929
46713W        W19138  16.135  21.036   2.769
46714W        W19139  41.936   1.895   3.580
46715W        W19140  36.869  42.742   4.985
46716W        W19141  24.930  33.048  10.048
46717W        W19142  24.050   3.519  13.418
46718W        W19143   8.609  23.944  12.669
46719W        W19144  30.426  44.475  14.316
46720W        W19145  24.480  28.235  13.968
46721W        W19146  25.626  14.000  14.987
46722W        W19147   3.841  44.428  11.791
46723W        W19148   6.467  33.105   2.859
46724W        W19149  16.030  35.451   2.238
46725W        W19150  30.704  23.765   3.593
46726W        W19151  10.320  33.820   0.196
46727W        W19152  28.493  20.601   4.213
46728W        W19153  41.419  20.051   2.735
46729W        W19154   9.237  17.096   1.827
46730W        W19155  15.010  13.928   4.916
46731W        W19156  30.386  24.511  10.536
46732W        W19157  42.573   3.159   4.852
46733W        W19158  27.882  26.880   3.828
46734W        W19159  12.761  37.497  14.427
46735W        W19160  36.576  31.207   2.174
46736W        W19161  42.967  43.745   0.844
46737W        W19162  18.710  30.057   0.463
46738W        W19163  28.967   3.445   0.370
46739W        W19164  29.376  20.420   2.167
46740W        W19165  19.986   8.370   3.233
46741W        W19166  42.977  38.430   2.412
46742W        W19167   0.492  24.790   0.491
46743W        W19168   3.367  39.750   4.532
46744W        W19169  22.735  27.984   3.404
46745W        W19170   2.259  15.519  13.670
46746W        W19171  40.301  35.871   2.665
46747W        W19172  10.616  42.290  12.110
46748W        W19173  39.880  21.102  14.807
46749W        W19174  19.308  27.716   1.839
46750W        W19175   2.502  29.019   4.111
46751W        W19176  18.236  16.944   2.668
46752W        W19177   7.263  25.707   2.834
46753W        W19178  40.834   1.276   3.733
46754W        W19179   1.238  29.408   2.856
46755W        W19180  32.592  43.922   4.666
46756W        W19181  31.425   6.192  14.465
46757W        W19182  23.951  29.838  11.529
46758W        W19183  24.481   0.508   1.337
46759W        W19184  21.008   2.513   1.912
46760W        W19185  10.158  41.300   4.347
46761W        W19186  13.745  20.811   4.088
46762W        W19187  22.740  43.900   3.587
46763W        W19188  33.743   3.269   5.140
46764W        W19189  36.074  13.878   0.367
46765W        W19190  37.939  15.476  12.986
46766W        W19191  37.068   2.568   2.423
46767W        W19192  44.371  34.833   3.205
46768W        W19193  10.338  43.603  12.080
46769W        W19194   6.308   2.503   0.525
46770W        W19195  30.841   0.222  12.044
46771W        W19196  12.204  37.850  12.922
46772W        W19197  13.801  30.662  12.468
46773W        W19198   1.217  16.615  11.007
46774W        W19199  33.575  13.746  10.350
46775W        W19200  26.987  44.021   4.558
46776W        W19201  22.569  10.910   3.902
46777W        W19202  39.799  22.304   4.045
46778W        W19203   2.755  23.512  13.329
46779W        W19204  14.181   5.943   3.322
46780W        W19205  16.333  12.793   4.814
46781W        W19206  30.452  40.314   0.733
46782W        W19207  42.544  17.336  11.679
46783W        W19208   5.219   5.423   3.263
46784W        W19209  25.764  33.840  11.547
46785W        W19210  19.573  32.185  14.978
46786W        W19211   8.731  39.611  12.178
46787W        W19212  29.460  14.113   3.700
46788W        W19213  42.126  37.286   3.600
46789W        W19214  12.208  10.172   1.386
46790W        W19215  30.279  35.073  12.400
46791W        W19216  10.592   1.313   1.055
46792W        W19217  11.085   6.721  11.186
46793W        W19218  37.035  39.331   4.496
46794W        W19219   1.783  28.861   3.594
46795W        W19220  10.122   3.394   2.803
46796W        W19221  28.266  44.487  12.440
46797W        W19222  12.254  25.256   2.264
46798W        W19223  23.522   4.296   2.627
46799W        W19224   9.105  26.177   0.117
46800W        W19225  43.227  32.522   0.561
46801W        W19226  12.256  22.129  10.225
46802W        W19227   3.309   5.782   2.927
46803W        W19228  33.116  33.980   3.221
46804W        W19229   9.134  11.762  12.639
46805W        W19230   5.380  40.241   3.730
46806W        W19231  33.576  44.445  14.068
46807W        W19232  11.642  13.346   1.774
46808W        W19233  16.113   6.873   1.234
46809W        W19234  20.615   6.296   0.268
46810W        W19235   7.351  20.867  14.499
46811W        W19236  40.875   9.287   1.745
46812W        W19237   3.002  10.758   3.178
46813W        W19238  21.433  40.718  12.984
46814W        W19239  32.418  29.891   1.660
46815W        W19240  10.606  25.096  11.550
46816W        W19241  26.708  43.054   3.183
46817W        W19242  44.463  28.488  12.109
46818W        W19243  24.168  42.296  11.541
46819W        W19244  31.001  29.130   2.474
46820W        W19245  39.794  39.373   1.375
46821W        W19246  42.272  34.782  14.506
46822W        W19247  26.426  24.512   3.363
46823W        W19248  28.027  42.125   4.089
46824W        W19249  39.085  38.401   1.255
46825W        W19250  14.516  44.838   0.615
46826W        W19251  38.234  43.051   0.826
46827W        W19252  40.371  31.838   0.821
46828W        W19253  36.095  31.363  14.270
46829W        W19254  39.101  37.071   4.130
46830W        W19255  42.449   7.376  13.938
46831W        W19256  31.196  16.341   3.781
46832W        W19257  31.139  30.869  13.597
46833W        W19258  40.365  24.944   2.296
46834W        W19259   7.843  20.002   3.771
46835W        W19260  41.551   7.308   4.680
46836W        W19261  12.282  43.315   4.610
46837W        W19262  40.806  23.657   1.515
46838W        W19263  43.951   6.898  13.604
46839W        W19264  42.946  10.774   2.077
46840W        W19265  25.695  31.628   2.193
46841W        W19266   5.144  36.486   2.705
46842W        W19267  41.895  20.314  14.985
46843W        W19268  23.441  16.624   3.246
46844W        W19269  33.518  34.441  12.841
46845W        W19270   1.507  38.433  13.512
46846W        W19271   9.447  34.512  10.531
46847W        W19272  29.451  14.203   0.536
46848W        W19273  41.929   8.024   3.061
46849W        W19274  23.115   0.303  11.801
46850W        W19275  26.044  41.387  13.470
46851W        W19276  18.015   9.410   1.744
46852W        W19277   6.099  23.545   4.521
46853W        W19278  26.659  12.091   1.864
46854W        W19279  37.284  37.491  11.100
46855W        W19280  31.365  38.088  11.104
46856W        W19281   7.887  25.130   5.036
46857W        W19282  17.218  36.472   2.648
46858W        W19283  23.699  24.526   1.948
46859W        W19284  22.429  20.799   4.595
46860W        W19285  38.551  29.049   4.428
46861W        W19286   1.697  27.314   3.697
46862W        W19287   5.200   7.268  14.297
46863W        W19288  44.030  26.490  12.722
46864W        W19289  32.462  22.437   0.826
46865W        W19290  34.569  36.046  10.736
46866W        W19291  15.248   0.218   1.332
46867W        W19292  33.778  26.297   5.072
46868W        W19293  28.425  12.365   1.379
46869W        W19294  22.108  41.789   4.730
46870W        W19295  42.809  27.638  10.514
46871W        W19296  35.382  31.569   3.865
46872W        W19297  39.332  27.538   1.400
46873W        W19298  19.149  20.261  13.325
46874W        W19299   1.354  17.646   4.532
46875W        W19300   3.753   1.783  10.745
46876W        W19301  29.813  44.345   3.796
46877W        W19302  29.594  14.201  13.484
46878W        W19303   9.778  16.728  11.390
46879W        W19304   9.162  35.995   2.834
46880W        W19305   8.985  14.641   0.726
46881W        W19306   0.442  41.300  11.459
46882W        W19307  27.900  42.482   1.368
46883W        W19308  26.595   9.281  14.704
46884W        W19309  35.015   2.442   4.947
46885W        W19310  35.321  37.749   3.696
46886W        W19311  19.124  37.308   4.483
46887W        W19312  26.122  35.856   0.947
46888W        W19313  21.839  39.860   2.400
46889W        W19314  15.071  29.381  12.794
46890W        W19315  10.147  35.514   0.377
46891W        W19316  16.827  25.100  11.486
46892W        W19317  23.181   5.732  13.863
46893W        W19318  22.498  41.587   4.143
46894W        W19319   6.217  44.801  13.590
46895W        W19320   0.687  43.026   0.008
46896W        W19321  34.970   9.873   0.246
46897W        W19322   5.142  35.955   0.740
46898W        W19323   4.457   3.864  11.060
46899W        W19324  39.489  13.938   4.176
46900W        W19325  42.855  11.356  11.749
46901W        W19326  16.178  11.987  13.338
46902W        W19327  33.086  21.780  13.541
46903W        W19328  26.514   8.650   0.924
46904W        W19329  37.910  27.128  11.153
46905W        W19330   5.437  41.239  14.849
46906W        W19331  13.381  10.678   1.631
46907W        W19332  26.275   3.826   1.972
46908W        W19333  44.541  10.562   4.559
46909W        W19334   4.460  11.693  14.534
46910W        W19335  10.827  23.752   4.080
46911W        W19336  33.158  39.056  13.961
46912W        W19337  35.251  13.247   2.856
46913W        W19338  26.725   3.707  11.670
46914W        W19339  28.506   6.068  10.654
46915W        W19340  11.372  16.252   3.188
46916W        W19341  40.585  41.935  14.748
46917W        W19342  18.351   5.706  14.417
46918W        W19343  30.405   6.900  11.599
46919W        W19344  37.543   7.764  13.340
46920W        W19345  26.591   5.024   3.121
46921W        W19346   5.232  14.797   4.103
46922W        W19347  23.687  26.201   1.395
46923W        W19348  32.942   8.496   2.111
46924W        W19349  21.699  27.193  13.028
46925W        W19350  41.200  28.274  11.051
46926W        W19351   5.080  18.250   3.564
46927W        W19352  40.762   5.674  14.516
46928W        W19353  41.558  39.449   1.185
46929W        W19354  21.765  16.700  14.600
46930W        W19355  43.944  43.565  12.577
46931W        W19356  22.113  38.970  11.500
46932W        W19357  36.924   9.725  10.432
46933W        W19358   4.302   1.330  12.413
46934W        W19359  18.782   5.907  11.980
46935W        W19360  10.909   6.158   3.229
46936W        W19361  10.808  29.226  10.815
46937W        W19362  19.517   5.979   1.894
46938W        W19363  28.576  26.108   3.978
46939W        W19364   5.236  23.296   0.953
46940W        W19365  26.937   3.251  13.860
46941W        W19366  14.772  10.869   1.397
46942W        W19367  44.711  31.769   3.876
46943W        W19368  23.756  44.978   2.778
46944W        W19369   3.204  41.800   2.732
46945W        W19370  36.859  43.913   4.422
46946W        W19371  15.063   7.428   1.941
46947W        W19372   0.317  17.842  10.731
46948W        W19373  20.234   2.318   3.231
46949W        W19374   7.106  19.515   0.355
46950W        W19375  35.408   4.149  10.796
46951W        W19376   5.053  16.652  11.034
46952W        W19377  41.197  19.682  10.844
46953W        W19378  41.518  39.306   3.689
46954W        W19379   7.688  36.589   2.250
46955W        W19380  19.530  10.235   1.911
46956W        W19381   3.747  42.196   0.834
46957W        W19382  44.960  34.329  11.880
46958W        W19383   9.914  42.938   1.881
46959W        W19384  41.840  40.046  11.114
46960W        W19385  12.204  22.042  11.637
46961W        W19386  35.395  33.626  12.162
46962W        W19387  38.803  31.580  10.659
46963W        W19388  44.095  30.708   1.559
46964W        W19389  19.173  22.822   4.835
46965W        W19390  13.324  39.309   2.864
46966W        W19391   8.301  15.133  10.790
46967W        W19392  13.603   8.133  11.127
46968W        W19393  24.645  16.783  14.726
46969W        W19394  35.425  27.718  14.343
46970W        W19395  22.642  15.274  13.577
46971W        W19396  26.552  44.819   2.737
46972W        W19397  27.271   2.861  14.045
46973W        W19398  32.919   3.462  14.536
46974W        W19399   0.029  32.443  12.048
46975W        W19400  11.590  17.229   4.608
46976W        W19401  24.593   8.685   3.680
46977W        W19402  12.864  16.808   4.221
46978W        W19403  32.448  13.832   3.827
46979W        W19404  30.918  29.416   0.781
46980W        W19405  17.994  26.172   0.809
46981W        W19406  10.789   2.845   2.750
46982W        W19407  11.195   3.344  13.524
46983W        W19408  44.265   7.772  12.902
46984W        W19409  35.928  31.083   0.443
46985W        W19410  39.600  37.615  13.836
46986W        W19411   0.247  28.894  12.415
46987W        W19412   0.891  16.975  14.244
46988W        W19413   7.309  29.862  13.829
46989W        W19414  12.343   3.431   0.945
46990W        W19415  16.077  38.545  12.098
46991W        W19416   3.837  42.073   1.348
46992W        W19417  15.293   0.747   0.344
46993W        W19418   0.753  44.015   1.169
46994W        W19419  16.548  29.165  13.503
46995W        W19420   9.402  10.754   4.889
46996W        W19421   9.513   8.615  11.366
46997W        W19422   3.175  26.038   3.681
46998W        W19423   7.222   6.144  12.484
46999W        W19424  14.598  22.418  12.479
47000W        W19425  19.795   7.669   0.958
47001W        W19426  22.977   2.804   1.153
47002W        W19427   5.739  33.964  10.529
47003W        W19428  18.198  42.444  11.209
47004W        W19429  42.710  18.268  14.918
47005W        W19430  42.417  10.430   0.872
47006W        W19431   4.617  44.815  12.037
47007W        W19432   2.796  17.805  13.793
47008W        W19433  26.478  33.376  13.242
47009W        W19434  28.009  16.158  12.044
47010W        W19435  28.119  23.684   0.455
47011W        W19436  31.860  10.695  13.395
47012W        W19437   9.757   7.867   0.783
47013W        W19438  13.559   1.914  11.362
47014W        W19439  23.711  20.391  10.672
47015W        W19440  24.002  37.085  11.170
47016W        W19441  38.602   3.370   1.407
47017W        W19442  40.450  44.024  11.130
47018W        W19443  29.269  34.970  12.191
47019W        W19444   6.229  29.100  14.421
47020W        W19445   3.170  41.111   0.145
47021W        W19446  37.513   3.284  13.474
47022W        W19447   2.728   3.948  12.399
47023W        W19448  30.891   4.036   0.949
47024W        W19449   8.513  37.407   2.907
47025W        W19450  12.181   7.685   0.769
47026W        W19451  11.936  23.166   0.173
47027W        W19452   9.793   5.348  14.587
47028W        W19453   4.375  28.101   2.977
47029W        W19454  43.753  14.557   2.086
47030W        W19455  36.431  35.893   1.500
47031W        W19456  21.678  23.599   1.281
47032W        W19457  14.784   9.775   4.658
47033W        W19458  28.593  10.646   1.724
47034W        W19459  20.306  25.675   4.535
47035W        W19460  10.269  15.602   2.152
47036W        W19461  27.988  39.429  14.837
47037W        W19462  16.774   1.175  11.004
47038W        W19463  37.332   6.286  11.075
47039W        W19464  27.909  18.978   2.054
47040W        W19465  41.566  37.436  13.023
47041W        W19466   2.424  43.571  12.660
47042W        W19467  37.370  14.094  11.472
47043W        W19468  36.330  32.484   3.375
47044W        W19469  21.567  38.407  13.440
47045W        W19470   2.550  41.084   3.506
47046W        W19471  24.642   9.767  13.338
47047W        W19472  32.591  30.675   2.382
47048W        W19473   2.498  22.607   1.676
47049W        W19474  42.714  15.709  11.375
47050W        W19475  43.994   4.142   0.063
47051W        W19476  29.110  38.751   2.254
47052W        W19477  41.262  14.309   2.163
47053W        W19478  25.748  41.526   1.310
47054W        W19479  41.924  17.242  12.922
47055W        W19480  39.717  23.481  12.566
47056W        W19481  14.113  41.411   4.741
47057W        W19482  22.748  43.617  13.598
47058W        W19483  24.104  16.993  10.588
47059W        W19484   7.172  43.999   4.729
47060W        W19485  35.013  23.337   2.374
47061W        W19486  15.238  43.553  13.298
47062W        W19487  43.786   6.368  12.792
47063W        W19488  11.842   8.017   2.463
47064W        W19489  43.834  33.491  11.993
47065W        W19490  40.565  35.452   3.332
47066W        W19491  38.454  35.932   4.525
47067W        W19492  19.421   8.611   2.429
47068W        W19493   1.895  42.497  12.925
47069W        W19494  16.433  21.942  13.451
47070W        W19495  12.562   2.426   0.997
47071W        W19496  29.030  28.995   3.580
47072W        W19497  39.380  21.571   3.772
47073W        W19498  17.618  31.297   2.319
47074W        W19499  44.675   4.670  14.996
47075W        W19500  33.656   7.921  12.051
47076W        W19501   3.161  16.112   1.943
47077W        W19502   2.785  17.817  12.021
47078W        W19503  26.213  13.869   0.885
47079W        W19504  12.124  26.562   3.480
47080W        W19505  40.303  25.317  12.403
47081W        W19506  32.644  22.483  13.565
47082W        W19507  43.975  38.150   2.056
47083W        W19508   6.194  42.048   0.300
47084W        W19509   6.254   1.859   3.871
47085W        W19510   6.702  27.995   4.781
47086W        W19511  31.127  13.487   5.148
47087W        W19512  36.788  26.134  12.466
47088W        W19513   4.480   9.091   4.970
47089W        W19514   7.760  30.110  11.452
47090W        W19515  22.562  14.346  12.067
47091W        W19516   0.275   3.126   4.735
47092W        W19517  28.971  38.029  11.146
47093W        W19518   3.839  26.285   3.318
47094W        W19519   8.899  41.826   1.749
47095W        W19520  18.738   1.815   1.476
47096W        W19521   9.535  42.768  12.355
47097W        W19522  24.975  37.472  11.548
47098W        W19523  30.731  41.804  13.045
47099W        W19524  41.226  44.523  11.697
47100W        W19525  19.517  19.799   1.264
47101W        W19526   9.535  18.857   1.800
47102W        W19527  23.024  27.894   4.203
47103W        W19528  15.644  39.952   1.444
47104W        W19529  18.094  43.901  11.136
47105W        W19530  12.287   0.253  13.821
47106W        W19531  11.703  17.808   0.003
47107W        W19532   4.945   9.896   3.248
47108W        W19533  26.602   0.709  12.060
47109W        W19534  12.870  29.563  14.490
47110W        W19535   8.262  35.997   3.920
47111W        W19536  15.630  39.348  13.782
47112W        W19537  32.093  34.684   1.708
47113W        W19538  35.966  37.417   2.200
47114W        W19539  36.699   9.875  13.458
47115W        W19540  32.291  27.985  14.855
47116W        W19541  13.056  23.811  12.484
47117W        W19542  20.104  38.543   1.670
47118W        W19543  15.032  37.582  12.986
47119W        W19544  42.487  24.552  11.461
47120W        W19545  25.265  33.944  11.604
47121W        W19546  30.324  39.510  12.896
47122W        W19547  23.666  40.511   1.313
47123W        W19548   1.463  44.816   3.951
47124W        W19549  13.339  30.155  14.387
47125W        W19550   7.429  27.009  14.744
47126W        W19551   4.803  39.229   2.928
47127W        W19552  27.003   8.366   2.217
47128W        W19553  31.827  27.184  13.170
47129W        W19554  30.132  20.236   1.793
47130W        W19555  29.479  31.979  10.704
47131W        W19556  35.237  30.490  11.058
47132W        W19557  40.033  27.755   0.496
47133W        W19558  39.334  17.815  13.345
47134W        W19559  17.488  25.404  12.463
47135W        W19560  33.838  16.328   3.224
47136W        W19561  43.694  35.091   2.197
47137W        W19562  21.156   1.546   0.096
47138W        W19563   2.560   9.483   2.402
47139W        W19564  42.136  14.185   0.127
47140W        W19565  15.187  39.861   1.898
47141W        W19566  37.376  11.434  12.848
47142W        W19567  38.929  44.309  11.949
47143W        W19568  38.767  39.736   1.854
47144W        W19569  13.258  27.866   1.829
47145W        W19570   3.909  34.122  11.987
47146W        W19571  10.677   7.799   1.212
47147W        W19572  16.873   6.776   4.735
47148W        W19573  25.508   2.930   1.732
47149W        W19574   8.790  29.071  10.691
47150W        W19575  10.126   1.127   4.151
47151W        W19576  34.043  27.614  12.550
47152W        W19577  23.914  33.854  14.248
47153W        W19578  13.740  14.328  12.399
47154W        W19579   7.610   6.197   0.822
47155W        W19580  17.206   5.539  12.648
47156W        W19581  15.282   2.243   4.304
47157W        W19582  17.323  22.361  11.487
47158W        W19583   4.473  21.245  11.282
47159W        W19584  10.368   7.455   1.707
47160W        W19585   7.337  39.054   0.229
47161W        W19586  11.210  34.273  11.649
47162W        W19587  40.380  32.074   2.591
47163W        W19588  40.471   6.654   0.767
47164W        W19589  16.257  19.046  14.825
47165W        W19590  12.862  23.158  14.835
47166W        W19591   0.360  42.217  12.688
47167W        W19592  33.946  18.461  10.833
47168W        W19593   5.619   2.815   1.756
47169W        W19594   4.745   4.222  10.777
47170W        W19595  38.024  19.062  14.410
47171W        W19596  13.625  31.029  13.526
47172W        W19597  40.255  44.826   0.091
47173W        W19598  17.698  20.221  13.553
47174W        W19599  44.687  10.052   4.471
47175W        W19600   0.320   9.352  14.295
47176W        W19601   9.363  10.372  11.612
47177W        W19602   6.806  14.294   0.900
47178W        W19603  12.839  38.524  13.457
47179W        W19604   1.396  15.220   2.477
47180W        W19605  14.102  41.829   3.432
47181W        W19606   1.350  24.537   0.037
47182W        W19607  24.702  28.394   0.716
47183W        W19608  20.876   0.763  14.740
47184W        W19609  12.384   2.798  14.363
47185W        W19610   8.191   7.724  14.397
47186W        W19611  10.738  24.737   4.431
47187W        W19612  23.768  36.063   0.326
47188W        W19613   7.591  43.231   2.730
47189W        W19614  34.104   2.551   1.456
47190W        W19615  26.445  44.417   2.360
47191W        W19616  11.685  18.294  14.740
47192W        W19617   6.503  26.067  13.110
47193W        W19618  35.810  11.877  14.474
47194W        W19619  20.141   0.872   3.605
47195W        W19620  21.720   5.476   2.719
47196W        W19621   3.453  43.769   0.294
47197W        W19622   9.309  24.464  10.720
47198W        W19623  11.673  36.511   2.706
47199W        W19624  37.584   4.464  11.130
47200W        W19625  37.531   4.885   4.661
47201W        W19626  34.971  12.825   0.424
47202W        W19627  11.260  20.267  12.522
47203W        W19628  11.836  13.805   2.006
47204W        W19629   9.774   8.400  13.231
47205W        W19630  43.058  44.163   2.025
47206W        W19631  10.336  27.656   1.788
47207W        W19632  11.745   9.092  13.091
47208W        W19633  38.537  10.718  14.324
47209W        W19634  34.478   0.543  12.507
47210W        W19635  20.158  34.346  14.889
47211W        W19636   1.906  37.481   0.743
47212W        W19637  35.414   9.266   4.310
47213W        W19638  16.913  17.231   0.311
47214W        W19639  28.078  17.500  11.555
47215W        W19640   4.726   4.592  13.806
47216W        W19641  15.634   6.441  11.626
47217W        W19642   8.886  39.325  14.340
47218W        W19643   3.722  18.014   2.680
47219W        W19644  31.343  10.669  13.315
47220W        W19645  44.857  29.376  13.039
47221W        W19646   3.415  11.904  10.481
47222W        W19647   4.998   6.230  12.504
47223W        W19648   2.946  42.810   3.611
47224W        W19649   1.898  20.390  12.595
47225W        W19650  32.435  17.829   3.643
47226W        W19651  24.519  44.444  10.109
47227W        W19652  23.632   1.886  12.460
47228W        W19653  25.007   8.865  10.264
47229W        W19654  20.423  15.185   0.361
47230W        W19655   2.793  36.849   2.825
47231W        W19656   0.942  21.754   0.814
47232W        W19657  24.070  32.486  14.906
47233W        W19658  20.936   5.837   4.230
47234W        W19659  37.568  31.518   0.895
47235W        W19660  21.465  37.334   2.217
47236W        W19661  38.426  42.220   1.290
47237W        W19662   9.805   7.989  10.803
47238W        W19663  34.857  15.371   0.258
47239W        W19664  35.445  21.322  12.608
47240W        W19665   5.410  30.933  10.680
47241W        W19666  27.649  21.535  12.581
47242W        W19667  11.410  21.744  14.954
47243W        W19668  22.240  25.264  12.825
47244W        W19669   7.230  16.844  11.007
47245W        W19670   2.929   0.017  11.497
47246W        W19671  33.927  23.479   4.553
47247W        W19672  35.288   3.099   1.257
47248W        W19673  32.389  10.501   3.259
47249W        W19674   6.020  31.875   2.894
47250W        W19675  36.409   9.331   9.432
47251W        W19676  32.029  20.563   4.365
47252W        W19677  40.412  37.539  14.358
47253W        W19678  36.794  21.088  12.523
47254W        W19679   0.803  33.115  13.343
47255W        W19680  27.991  25.513   2.789
47256W        W19681  38.904  11.404   2.094
47257W        W19682  26.584  23.115  12.555
47258W        W19683  15.489   0.204   3.345
47259W        W19684  24.703  33.538   0.786
47260W        W19685  16.077  19.088   0.355
47261W        W19686  28.927  11.823   4.787
47262W        W19687   4.965   5.079  13.831
47263W        W19688   9.241  23.556   0.248
47264W        W19689  29.107  43.761   3.185
47265W        W19690  26.042  40.802   2.081
47266W        W19691  12.033  33.119  11.556
47267W        W19692  17.041  43.349  12.152
47268W        W19693  16.815   2.426   3.807
47269W        W19694   9.052  30.113   1.864
47270W        W19695  38.956   4.697   2.602
47271W        W19696  35.860  19.538   4.705
47272W        W19697   3.885  41.844  13.740
47273W        W19698  15.796  30.700  12.016
47274W        W19699  22.057  15.725  10.199
47275W        W19700  11.131  20.999   1.192
47276W        W19701  29.604  32.868   4.521
47277W        W19702  20.865  20.268  11.278
47278W        W19703  23.536   1.713  14.905
47279W        W19704  33.085  25.206  14.770
47280W        W19705  35.603  14.475  14.819
47281W        W19706  36.201  16.855  12.563
47282W        W19707  30.136   2.815  12.928
47283W        W19708   4.910  14.469  13.934
47284W        W19709  30.955  20.976  13.844
47285W        W19710  35.891  32.058   2.198
47286W        W19711   6.382  41.449   3.706
47287W        W19712  15.603   0.492   2.772
47288W        W19713  42.042   7.704  11.154
47289W        W19714  25.815  14.303   4.783
47290W        W19715  11.733  42.356   0.263
47291W        W19716  22.973  20.507  13.552
47292W        W19717  20.778  28.691  14.361
47293W        W19718  40.398   9.141   1.900
47294W        W19719  25.545   8.373   0.763
47295W        W19720  17.505   2.876  12.013
47296W        W19721  25.196   3.454   2.867
47297W        W19722  29.865  17.286   4.584
47298W        W19723  38.027   0.539   4.737
47299W        W19724  17.625  25.225  12.003
47300W        W19725  30.721  42.996  14.959
47301W        W19726  15.048  30.016  11.997
47302W        W19727  17.005  18.541  12.719
47303W        W19728  16.625  33.503  12.021
47304W        W19729   9.722  42.167  14.338
47305W        W19730   5.958   7.239  11.595
47306W        W19731  29.942  41.395  11.410
47307W        W19732  37.292  34.942   1.865
47308W        W19733  13.876  26.920  10.558
47309W        W19734  12.208  31.866   1.217
47310W        W19735  37.136   7.436  10.643
47311W        W19736  42.286  21.735   3.076
47312W        W19737   4.075  37.658   3.333
47313W        W19738  23.584  14.181  14.296
47314W        W19739   2.184  35.498  10.641
47315W        W19740  24.850  43.398  13.987
47316W        W19741  32.984  30.930   3.705
47317W        W19742  14.790  16.867   0.865
47318W        W19743  23.329  21.547   0.774
47319W        W19744  42.429  11.931  13.367
47320W        W19745   9.693   9.839   2.479
47321W        W19746  41.097  39.815  12.733
47322W        W19747  20.128  37.176  13.417
47323W        W19748  25.958   0.518   4.557
47324W        W19749  36.151   5.268   1.027
47325W        W19750  26.869   6.284   3.691
47326W        W19751  28.828  32.617  11.165
47327W        W19752  24.613  32.890  11.053
47328W        W19753  14.373  22.531  13.114
47329W        W19754  24.143  37.328   0.516
47330W        W19755  13.658   4.214  14.961
47331W        W19756  18.305  26.249   2.078
47332W        W19757   2.250  30.420   2.753
47333W        W19758  38.839  19.053   4.610
47334W        W19759  33.509  12.612   2.719
47335W        W19760   2.485  11.957   1.528
47336W        W19761  10.145   9.463   2.592
47337W        W19762  35.903  42.066   0.864
47338W        W19763  21.316  35.720   5.301
47339W        W19764   9.667  33.276  11.764
47340W        W19765  24.984  14.698  11.165
47341W        W19766  44.921  19.425  11.259
47342W        W19767  43.496  42.748   5.086
47343W        W19768  32.442  44.996   3.356
47344W        W19769   2.238  27.606  10.482
47345W        W19770  33.616  42.218  12.463
47346W        W19771  10.583  25.947   4.773
47347W        W19772   2.007  15.192   2.947
47348W        W19773  18.095   7.237  11.629
47349W        W19774  15.847  38.956  10.729
47350W        W19775  15.213  36.642  12.806
47351W        W19776  38.516  29.557  11.948
47352W        W19777   2.300  29.509   3.875
47353W        W19778   7.685   7.689  11.941
47354W        W19779  42.153   7.357   0.414
47355W        W19780  42.206  18.228  14.970
47356W        W19781   3.107  23.450   0.167
47357W        W19782   8.429  17.341   2.154
47358W        W19783  27.703  22.088   5.025
47359W        W19784  28.426  13.396  12.640
47360W        W19785  11.371   0.313   2.729
47361W        W19786   2.959  41.835   1.756
47362W        W19787   6.160  21.543   3.930
47363W        W19788   9.076  21.039  13.971
47364W        W19789  21.765  13.981  13.348
47365W        W19790  19.100  29.531   1.927
47366W        W19791  43.007  42.201   0.697
47367W        W19792  41.270  33.452  14.720
47368W        W19793  12.042  42.460  10.737
47369W        W19794  28.968  22.332   4.217
47370W        W19795  42.717   0.730   1.255
47371W        W19796  34.392  24.269  12.932
47372W        W19797  20.069  26.783  13.023
47373W        W19798   2.920  27.408  12.435
47374W        W19799  17.790  30.896   1.034
47375W        W19800  38.151  11.642  13.310
47376W        W19801  32.213  24.907  13.325
47377W        W19802  26.448   3.562   2.404
47378W        W19803  31.554  44.067  12.678
47379W        W19804  33.507  32.174   0.259
47380W        W19805  40.317  25.429  10.568
47381W        W19806  25.131  16.795   1.152
47382W        W19807  40.501   2.407   3.043
47383W        W19808  30.358   6.882  13.085
47384W        W19809  32.031   6.266  10.627
47385W        W19810  44.293  36.469  10.990
47386W        W19811  19.577  18.159  12.894
47387W        W19812  15.706  34.681  10.776
47388W        W19813  33.595  17.072  10.031
47389W        W19814   5.981  44.437   3.994
47390W        W19815  17.744  29.174  12.976
47391W        W19816  27.188  31.148  13.449
47392W        W19817   7.875   1.939   1.456
47393W        W19818   0.860  31.175   0.564
47394W        W19819  31.972  13.608   4.588
47395W        W19820  28.664  41.866   4.642
47396W        W19821  40.186  22.691   1.851
47397W        W19822  28.565  34.564  11.991
47398W        W19823  32.827  16.333   1.414
47399W        W19824  12.629  32.713  11.974
47400W        W19825  36.123   3.926   2.280
47401W        W19826  43.828   6.423  14.184
47402W        W19827  15.771  14.826   1.042
47403W        W19828  37.435  40.284  14.645
47404W        W19829  44.860   7.180   4.329
47405W        W19830  24.123  40.248   0.011
47406W        W19831  23.428   3.656   0.920
47407W        W19832   9.380  44.053  13.360
47408W        W19833  27.021  12.663   1.386
47409W        W19834  26.235   8.580   3.655
47410W        W19835  14.380  11.827  10.804
47411W        W19836  30.008  31.147  10.470
47412W        W19837  44.984   1.393   0.754
47413W        W19838  19.418   1.052  11.622
47414W        W19839  22.201  11.503   3.148
47415W        W19840  33.929  13.078   4.051
47416W        W19841  24.171  39.763   0.531
47417W        W19842  18.081  23.736  14.881
47418W        W19843  21.027  27.179  12.251
47419W        W19844   1.334  40.523  10.763
47420W        W19845  28.081   3.520  13.981
47421W        W19846  33.709  29.219   1.859
47422W        W19847   2.215  14.128  14.218
47423W        W19848  31.178   3.453  12.578
47424W        W19849  25.550   3.265   4.165
47425W        W19850  15.234  34.758   5.265
47426W        W19851  39.652  25.237  13.974
47427W        W19852  16.557  25.036  13.243
47428W        W19853   9.737  20.840   3.215
47429W        W19854  42.906  16.152  11.241
47430W        W19855  32.142  32.925  10.304
47431W        W19856  41.064  27.963   0.334
47432W        W19857  40.292   6.200   1.066
47433W        W19858  18.668   3.848   0.701
47434W        W19859  35.028   6.961  12.422
47435W        W19860  11.670  22.470  14.401
47436W        W19861  38.874  24.926  12.434
47437W        W19862  38.705   1.037  12.486
47438W        W19863  16.873  15.563  14.317
47439W        W19864  21.646  21.643  10.419
47440W        W19865  16.835  17.711   0.642
47441W        W19866  32.798  11.545   1.814
47442W        W19867   0.217  16.648  12.973
47443W        W19868  18.518   8.479  13.370
47444W        W19869   5.898  25.992   0.895
47445W        W19870  12.849  33.997  10.711
47446W        W19871  18.825  27.905   3.595
47447W        W19872  41.807  23.604   0.329
47448W        W19873  24.443   2.824  12.098
47449W        W19874   1.777   0.372  10.901
47450W        W19875  41.321   3.931  13.542
47451W        W19876  23.693  23.195  12.485
47452W        W19877  12.211  37.916   3.801
47453W        W19878   8.206  19.806   1.229
47454W        W19879  36.551  34.904  11.599
47455W        W19880  24.095  24.234   1.736
47456W        W19881  27.074  30.605   0.334
47457W        W19882  14.638  34.360   4.624
47458W        W19883   4.196  44.992   2.289
47459W        W19884  30.683  28.242  11.478
47460W        W19885  37.171  42.490   4.631
47461W        W19886  39.853   4.673  12.071
47462W        W19887   4.784  16.017   0.746
47463W        W19888  44.318   4.812   0.362
47464W        W19889  33.115  28.532  13.119
47465W        W19890   9.131   7.202  12.968
47466W        W19891  37.799  28.990  12.668
47467W        W19892  33.021  35.602  14.816
47468W        W19893  33.061  42.883  13.998
47469W        W19894  15.862  32.585  13.325
47470W        W19895   2.657  44.375   1.306
47471W        W19896  36.911  29.783  11.072
47472W        W19897  29.593  40.946  12.588
47473W        W19898  41.922  22.893   3.542
47474W        W19899  33.149  22.646  14.728
47475W        W19900  24.732  35.719   2.255
47476W        W19901   2.204  17.121  10.239
47477W        W19902  22.920  24.640   0.728
47478W        W19903  19.565  32.175  13.525
47479W        W19904  20.437  35.855   1.487
47480W        W19905  23.064  31.017  11.417
47481W        W19906  43.878  25.926   2.388
47482W        W19907  23.037  42.791   0.320
47483W        W19908  26.162  29.054   1.307
47484W        W19909  29.510  12.774  10.716
47485W        W19910  24.136   5.631   4.582
47486W        W19911   8.412   8.365   0.283
47487W        W19912  32.484  19.964  13.373
47488W        W19913  23.473  20.234   3.554
47489W        W19914  10.838   7.181   3.343
47490W        W19915  31.920  16.747  10.365
47491W        W19916  44.375  39.598  14.313
47492W        W19917  32.146  24.168   2.718
47493W        W19918  18.012  17.747   1.508
47494W        W19919  28.079  19.274  13.687
47495W        W19920  23.312  39.845   2.459
47496W        W19921   4.805   8.592   2.851
47497W        W19922   8.903  29.164   4.027
47498W        W19923  20.559  42.684  13.386
47499W        W19924  36.499  41.788   0.005
47500W        W19925  43.255  34.465   2.773
47501W        W19926   0.507  36.952  12.753
47502W        W19927  34.984  10.234   1.192
47503W        W19928  44.992   9.753  14.265
47504W        W19929   9.749   8.628   1.640
47505W        W19930  12.591  34.954   4.038
47506W        W19931  14.344  44.988  10.989
47507W        W19932  16.151   7.739   4.579
47508W        W19933  11.212  24.167   0.340
47509W        W19934   7.226   4.455   0.805
47510W        W19935  27.023  18.732   0.331
47511W        W19936  33.559  34.987   1.632
47512W        W19937   5.031   6.725   1.746
47513W        W19938  41.846  35.344  12.926
47514W        W19939  40.312  20.501  12.485
47515W        W19940  31.218   9.888   2.097
47516W        W19941  34.873  26.408  13.995
47517W        W19942   7.904   8.178   3.341
47518W        W19943  43.200  33.402   5.146
47519W        W19944  10.318   6.407   1.766
47520W        W19945  27.670   4.844  13.200
47521W        W19946  17.191  16.846  14.038
47522W        W19947  17.106  17.281  11.778
47523W        W19948  40.317  20.113  11.131
47524W        W19949   8.487  33.479   3.051
47525W        W19950  33.739  22.821  10.986
47526W        W19951  28.757  12.202  11.721
47527W        W19952  29.734  33.407  10.368
47528W        W19953   6.322  43.901  14.591
47529W        W19954  21.050  14.608  11.069
47530W        W19955  39.479  33.904   2.791
47531W        W19956  38.885   0.980  11.643
47532W        W19957  16.595  42.743  13.773
47533W        W19958  15.004  18.510  13.759
47534W        W19959  24.261  39.092  13.427
47535W        W19960  18.694   0.864   3.941
47536W        W19961   3.168  11.329   1.921
47537W        W19962   9.573   7.668  11.151
47538W        W19963  41.353   7.645  13.088
47539W        W19964  39.402  11.924  14.794
47540W        W19965  15.833  42.007  13.391
47541W        W19966  18.081  23.108   0.263
47542W        W19967  17.252   7.257   0.446
47543W        W19968  23.100  42.493   0.730
47544W        W19969  11.327  14.840  11.248
47545W        W19970  24.651  32.561   5.534
47546W        W19971  21.655  31.917   4.198
47547W        W19972   6.855  32.839   4.671
47548W        W19973   9.978  14.087  14.925
47549W        W19974  34.078  43.487  14.503
47550W        W19975  21.280  40.749   0.952
47551W        W19976  42.011  30.374  12.480
47552W        W19977  33.019  27.911   2.848
47553W        W19978  13.807  28.614   1.992
47554W        W19979  43.628  39.210  12.171
47555W        W19980  36.898  30.085   3.668
47556W        W19981  41.309   2.992  14.053
47557W        W19982   3.872  19.683   5.007
47558W        W19983  30.029  32.061   3.911
47559W        W19984  27.503  16.340   2.785
47560W        W19985  41.063  41.460  13.855
47561W        W19986  29.346  44.937  13.240
47562W        W19987   4.723  24.995  12.668
47563W        W19988  43.542  35.399   1.233
47564W        W19989  28.935  42.386   1.112
47565W        W19990   1.799  17.045   2.792
47566W        W19991  42.485  39.925  13.282
47567W        W19992  24.701  31.104   2.781
47568W        W19993   0.218  15.131  12.045
47569W        W19994  11.180   8.786   1.704
47570W        W19995  18.499  34.156  14.960
47571W        W19996   4.866  13.768  12.871
47572W        W19997  18.149   4.941   3.087
47573W        W19998  41.043   0.352  13.804
47574W        W19999  27.467  23.742  14.236
47575W        W20000  27.543  20.425   2.373
47576W        W20001   5.408  24.576   2.000
47577W        W20002  41.393  30.749  14.888
47578W        W20003   9.345  43.351   0.860
47579W        W20004  13.223  13.083   1.356
47580W        W20005  41.369  14.873   2.433
47581W        W20006  19.243  42.259   2.908
47582W        W20007   8.571  36.168  10.914
47583W        W20008  37.499  40.652  11.142
47584W        W20009  43.330  21.147  10.688
47585W        W20010   9.360   2.805   0.794
47586W        W20011  30.173  30.078  12.523
47587W        W20012  36.944  18.695  12.014
47588W        W20013   0.820  35.426  14.328
47589W        W20014   3.668  24.648  13.013
47590W        W20015   3.178  39.441  12.963
47591W        W20016  20.773  26.894  12.613
47592W        W20017  38.719   5.539  13.094
47593W        W20018  15.157  15.771  11.446
47594W        W20019  41.746   9.710   0.743
47595W        W20020  42.738  25.708   3.241
47596W        W20021  17.685  11.442   3.166
47597W        W20022  42.939  15.148  14.544
47598W        W20023  24.285  32.077  12.538
47599W        W20024   9.366  11.113   2.187
47600W        W20025  36.626  24.286   0.881
47601W        W20026   2.558   8.864   0.396
47602W        W20027   6.407   2.128  14.341
47603W        W20028  16.063   8.756  14.549
47604W        W20029   7.692   4.308   0.543
47605W        W20030   9.289  12.134   1.495
47606W        W20031  25.342   0.265   0.831
47607W        W20032  20.539  11.167  14.805
47608W        W20033  42.130  41.604  14.816
47609W        W20034  11.560  20.275  13.547
47610W        W20035  42.082   2.969  10.762
47611W        W20036   5.928  19.131   4.159
47612W        W20037   8.400   7.862   0.430
47613W        W20038  26.976  36.598  13.360
47614W        W20039   0.959  39.663  11.916
47615W        W20040   2.497  22.088  10.779
47616W        W20041  17.204  37.508   2.871
47617W        W20042  27.451   0.067  14.582
47618W        W20043   9.118  38.869  10.367
47619W        W20044  37.842   8.969   1.020
47620W        W20045  35.332  27.080  11.189
47621W        W20046  10.389  25.253  13.011
47622W        W20047  42.911  42.429  11.484
47623W        W20048  37.148  29.496   0.227
47624W        W20049  38.012  35.528   3.821
47625W        W20050   6.981  31.798   4.618
47626W        W20051  12.921  42.510   4.760
47627W        W20052  28.129  23.144  10.440
47628W        W20053  19.210  11.369   0.823
47629W        W20054  42.801  40.223  14.260
47630W        W20055  15.674   8.341  13.087
47631W        W20056   3.828  18.147   0.685
47632W        W20057  25.434  13.480   3.660
47633W        W20058  12.025  32.835  12.005
47634W        W20059  25.388  25.017  11.231
47635W        W20060  31.232  30.052   2.842
47636W        W20061  14.298  31.565   3.376
47637W        W20062  39.508  29.273  14.062
47638W        W20063   1.273   0.468  12.332
47639W        W20064   9.106  25.208  11.703
47640W        W20065   7.170  30.671  14.068
47641W        W20066  12.487  26.172  11.751
47642W        W20067  26.982  31.534  14.316
47643W        W20068   2.491  31.532  13.287
47644W        W20069  10.906  17.598  12.679
47645W        W20070  44.715  34.277   0.830
47646W        W20071  10.362  42.676   1.824
47647W        W20072  38.038  41.297  10.501
47648W        W20073   3.330  33.272  13.931
47649W        W20074  32.432  26.616   0.140
47650W        W20075  17.863   1.430  14.401
47651W        W20076  35.522  18.319  14.575
47652W        W20077  35.061  32.855   3.113
47653W        W20078  12.939   9.680  13.483
47654W        W20079  25.723  20.258   4.830
47655W        W20080  23.077  24.007   0.866
47656W        W20081   9.932  39.825   2.761
47657W        W20082  22.031  28.692   1.213
47658W        W20083  39.258   3.807  14.316
47659W        W20084  41.842  19.600  11.563
47660W        W20085  11.839   3.327   4.742
47661W        W20086   9.701  29.725   3.215
47662W        W20087  40.499  29.679  13.922
47663W        W20088  34.914  31.493   4.786
47664W        W20089  23.010  40.859   3.242
47665W        W20090  32.002  25.076  10.929
47666W        W20091  34.921  29.431   0.227
47667W        W20092   3.368  10.040   3.635
47668W        W20093  29.258  31.181  14.448
47669W        W20094  11.655  18.989  13.762
47670W        W20095   3.384  27.685  12.436
47671W        W20096  36.683  32.138  13.890
47672W        W20097   4.162  42.766   3.390
47673W        W20098  41.498   4.761   3.715
47674W        W20099  44.654  11.725   5.183
47675W        W20100   4.869  11.792  11.100
47676W        W20101  44.504   0.018   1.844
47677W        W20102  22.929   1.553  13.629
47678W        W20103  21.516   1.409   4.157
47679W        W20104   3.499   8.468  10.680
47680W        W20105  39.929  17.634  14.713
47681W        W20106  29.678   7.298   1.909
47682W        W20107  20.159  14.843   2.365
47683W        W20108   4.594  25.147  13.235
47684W        W20109  17.267  36.254  10.700
47685W        W20110  13.724  12.665  11.813
47686W        W20111   4.399  24.826   3.400
47687W        W20112   5.344  40.572  12.534
47688W        W20113   3.608  16.924  14.001
47689W        W20114  19.251  39.087  11.949
47690W        W20115  34.710  26.921   1.406
47691W        W20116   4.957  38.447  13.774
47692W        W20117  32.097  41.102   0.663
47693W        W20118  34.991  31.046   0.770
47694W        W20119  39.461   6.881   3.544
47695W        W20120  20.282  24.564   1.716
47696W        W20121   3.703  38.584  12.932
47697W        W20122  28.049  33.456   1.235
47698W        W20123   9.239  30.583  12.768
47699W        W20124  12.284  23.923  13.063
47700W        W20125  38.051  34.902   0.159
47701W        W20126  30.249  38.006   4.185
47702W        W20127  38.428  35.077  10.802
47703W        W20128  11.431  20.804   4.028
47704W        W20129  44.975   0.278   1.830
47705W        W20130  17.620  19.774   1.343
47706W        W20131   7.947  42.763  14.019
47707W        W20132  32.043  36.486   0.797
47708W        W20133  39.316  20.691  13.717
47709W        W20134   0.761  31.558   1.384
47710W        W20135  42.810  29.878  11.005
47711W        W20136  26.945  32.211   0.688
47712W        W20137   7.199  30.137  14.259
47713W        W20138   5.657   0.995  11.959
47714W        W20139  30.450   9.616  11.572
47715W        W20140  36.647  21.344  13.340
47716W        W20141   2.730  35.859  12.546
47717W        W20142   9.801  30.680  10.681
47718W        W20143  26.634  34.754  13.862
47719W        W20144  14.620   1.756  13.847
47720W        W20145  40.068  42.451  14.357
47721W        W20146  39.430  21.827  13.823
47722W        W20147  29.388   9.855  11.575
47723W        W20148   0.905   0.485  10.651
47724W        W20149   3.353  25.248   1.122
47725W        W20150  25.514  21.104  10.093
47726W        W20151  27.098  30.885   1.405
47727W        W20152  18.709  14.175  13.340
47728W        W20153  15.315   3.028  13.379
47729W        W20154  21.124  23.044  14.942
47730W        W20155  32.129   5.308   2.757
47731W        W20156  28.997  44.459  14.411
47732W        W20157  30.357  17.728  11.128
47733W        W20158  10.575  37.431   3.593
47734W        W20159  35.418  10.294  12.357
47735W        W20160   5.260  18.621   4.645
47736W        W20161  24.231  41.819  10.637
47737W        W20162  27.974  37.529  10.621
47738W        W20163  10.243  18.344  11.959
47739W        W20164  38.854  33.575   3.598
47740W        W20165  40.519  44.517   2.103
47741W        W20166  37.294  29.031   0.435
47742W        W20167  11.592   8.859   2.873
47743W        W20168   7.066  41.130   1.993
47744W        W20169  36.001  31.515   1.062
47745W        W20170   4.874  12.478  10.411
47746W        W20171   9.199   8.729  14.378
47747W        W20172   8.280  25.982   4.118
47748W        W20173   0.735  15.226  14.231
47749W        W20174  24.042  15.527  10.672
47750W        W20175  34.612   8.806   3.843
47751W        W20176  36.880  36.162  11.148
47752W        W20177  11.289  44.272   1.885
47753W        W20178  32.082  11.553   4.679
47754W        W20179  40.375  19.094   3.603
47755W        W20180   7.053   1.774   2.298
47756W        W20181  25.483  14.449  11.118
47757W        W20182   4.371   2.496   2.217
47758W        W20183  12.998  27.727  12.893
47759W        W20184  12.147   4.406   0.300
47760W        W20185  35.664   0.623   3.846
47761W        W20186   0.683  17.870  11.116
47762W        W20187  18.195  40.448  12.444
47763W        W20188  21.710  17.577  11.151
47764W        W20189  22.223  33.657  13.122
47765W        W20190  42.467   0.466   4.217
47766W        W20191   0.839  13.969  12.957
47767W        W20192  35.798  27.506   0.854
47768W        W20193   2.561  11.717  10.310
47769W        W20194  33.041   3.565   1.798
47770W        W20195   6.970  27.907  14.470
47771W        W20196   9.657  43.435   2.751
47772W        W20197  38.587   3.017   4.210
47773W        W20198   5.843  39.974   3.385
47774W        W20199  12.797  32.369   2.327
47775W        W20200  23.696  24.151  10.550
47776W        W20201   0.783  38.484  12.080
47777W        W20202  12.363  14.532  11.231
47778W        W20203   8.755  15.260  13.066
47779W        W20204  35.292   7.174   1.031
47780W        W20205   4.705  39.059  11.136
47781W        W20206   6.557  30.466   2.643
47782W        W20207  21.643   8.153  13.737
47783W        W20208  21.225  27.500  11.888
47784W        W20209  13.137   8.411   4.584
47785W        W20210   3.607   7.232  11.082
47786W        W20211   5.730  24.782  12.531
47787W        W20212  11.719  12.808  14.767
47788W        W20213   1.767   6.855  12.481
47789W        W20214   0.206   6.920  13.398
47790W        W20215  30.410  36.860  14.757
47791W        W20216   0.773  42.044  11.896
47792W        W20217  37.659  39.721  13.912
47793W        W20218  37.410  38.413   0.374
47794W        W20219   7.152  23.743  12.587
47795W        W20220   8.429  17.849  12.004
47796W        W20221  41.341  19.707  12.294
47797W        W20222  10.749   3.627  13.526
47798W        W20223   7.295  34.840   3.063
47799W        W20224  36.154   0.872  11.552
47800W        W20225  41.535   8.470   0.791
47801W        W20226   0.363  38.361   2.770
47802W        W20227  38.879  17.116  13.282
47803W        W20228  19.879  15.332   4.047
47804W        W20229  40.130  23.123   4.878
47805W        W20230  25.693  15.182   4.508
47806W        W20231   3.670  34.127   1.168
47807W        W20232   1.363   9.384   2.036
47808W        W20233   1.371  31.968  10.639
47809W        W20234  16.721  16.409   3.979
47810W        W20235   1.911  42.210  14.761
47811W        W20236  42.555  38.476   3.092
47812W        W20237  28.188  41.522  10.305
47813W        W20238  43.735  32.038   0.785
47814W        W20239  36.946  41.492  13.395
47815W        W20240  15.363  36.586  11.273
47816W        W20241  19.683   4.896  13.623
47817W        W20242  23.714  29.203   0.740
47818W        W20243  10.900  30.149  14.376
47819W        W20244   9.565  17.050   0.848
47820W        W20245   8.216   4.959   1.829
47821W        W20246   4.397  39.981  10.736
47822W        W20247  39.858  20.546  12.030
47823W        W20248  17.097   6.450   0.896
47824W        W20249  25.011  14.644   1.256
47825W        W20250   1.499  12.721   0.991
47826W        W20251   6.219   6.839   3.355
47827W        W20252  37.040  36.378   0.840
47828W        W20253  24.216   7.500   1.072
47829W        W20254  28.855  22.562   4.727
47830W        W20255  22.214   1.930  10.255
47831W        W20256   2.316  23.954   0.478
47832W        W20257  39.313  32.554   4.147
47833W        W20258   1.140   1.821  13.049
47834W        W20259  12.608  23.619  13.728
47835W        W20260  27.427  38.491  14.870
47836W        W20261  41.368  41.250   4.456
47837W        W20262   4.985  33.570   4.135
47838W        W20263  34.703   1.758   2.809
47839W        W20264  39.372  15.359  13.014
47840W        W20265  25.411  24.171  12.069
47841W        W20266  44.254   9.196  12.139
47842W        W20267  33.471  18.934  11.890
47843W        W20268   0.308  35.947  14.526
47844W        W20269  23.505  15.762  10.535
47845W        W20270  25.213  39.234  13.479
47846W        W20271  32.703  11.263  11.033
47847W        W20272  32.174  39.007   3.231
47848W        W20273  24.206  17.798  12.931
47849W        W20274   8.219  25.177  10.451
47850W        W20275  44.045  27.022  12.587
47851W        W20276  21.712   0.409   1.258
47852W        W20277  27.585  16.223   3.814
47853W        W20278  13.833   2.944  10.647
47854W        W20279   2.981  14.832  12.720
47855W        W20280   9.814  15.029   4.540
47856W        W20281  27.953  41.264   1.686
47857W        W20282  13.682  19.505   3.772
47858W        W20283  12.068  28.056   0.496
47859W        W20284   3.643  24.453   4.064
47860W        W20285   8.363   1.450   1.327
47861W        W20286  36.763   3.615  13.103
47862W        W20287  13.916  24.616  12.359
47863W        W20288   7.147   2.621   4.470
47864W        W20289   0.329  29.649  14.077
47865W        W20290   4.967  19.055   4.620
47866W        W20291   0.276  12.250  10.696
47867W        W20292  31.026   8.332   0.237
47868W        W20293  20.137  12.596   2.342
47869W        W20294  30.004  22.003   3.723
47870W        W20295   4.903  28.076   2.270
47871W        W20296   5.339  35.332   0.503
47872W        W20297  16.678  26.036  13.978
47873W        W20298  23.623   3.859   1.364
47874W        W20299  20.027  21.922  10.936
47875W        W20300  36.138  26.503   3.897
47876W        W20301  12.271   6.151   4.368
47877W        W20302  10.218  31.140  13.079
47878W        W20303  17.861  21.184   4.484
47879W        W20304  37.156  39.182   0.422
47880W        W20305  41.823  30.504  10.543
47881W        W20306  11.106  13.831  11.827
47882W        W20307  32.944   7.458   2.356
47883W        W20308  37.918   8.827  14.318
47884W        W20309  24.366  32.060   2.777
47885W        W20310  35.724  29.413  10.706
47886W        W20311  16.685  36.406  10.645
47887W        W20312  19.848  17.089   1.910
47888W        W20313  32.987  38.334  11.413
47889W        W20314   4.543  25.942   4.635
47890W        W20315  35.632  14.225   0.281
47891W        W20316   5.025   4.530   1.121
47892W        W20317  19.368  34.789   5.105
47893W        W20318  32.885  36.153   2.333
47894W        W20319   3.060   7.272   3.221
47895W        W20320  18.608  34.362  14.477
47896W        W20321  30.698  28.426   0.851
47897W        W20322  26.715   2.384   5.102
47898W        W20323  22.247  34.963  10.720
47899W        W20324  29.303  14.766  14.624
47900W        W20325  25.010   1.044   1.408
47901W        W20326  26.693  44.409   4.365
47902W        W20327  30.634  27.526  14.370
47903W        W20328  17.943   0.685  11.631
47904W        W20329  11.257  35.358  13.038
47905W        W20330   0.789  20.484   4.294
47906W        W20331  20.963  14.097  11.192
47907W        W20332  31.123   0.032  10.612
47908W        W20333  38.330  27.696  11.527
47909W        W20334   1.152  16.575   2.486
47910W        W20335  38.941  36.425   0.771
47911W        W20336  41.827  18.650  12.552
47912W        W20337  32.823  12.063   2.693
47913W        W20338   8.421   4.448   3.354
47914W        W20339  31.597  22.620   3.894
47915W        W20340  23.926  31.638  13.196
47916W        W20341   6.682  38.941   0.328
47917W        W20342   5.524  39.986   0.925
47918W        W20343  14.438  33.739   5.655
47919W        W20344  43.670  14.857   3.646
47920W        W20345  43.570  22.281  10.093
47921W        W20346   0.293  19.561   1.467
47922W        W20347   9.730  43.329  11.490
47923W        W20348   8.344  18.585  14.481
47924W        W20349  35.340  22.452  13.933
47925W        W20350  32.621   9.734  14.860
47926W        W20351  22.193  36.832   3.314
47927W        W20352  21.301  34.879   1.378
47928W        W20353  12.054  41.491   3.736
47929W        W20354  20.071  43.770  12.436
47930W        W20355  38.771   5.391  12.593
47931W        W20356  39.939  32.387  13.035
47932W        W20357  16.095  13.356  13.018
47933W        W20358  42.441  41.713  11.788
47934W        W20359  25.265  34.324   0.779
47935W        W20360  33.869  29.831  13.930
47936W        W20361   3.377  19.338  12.835
47937W        W20362  17.218  38.543  11.141
47938W        W20363  17.213   7.879   3.833
47939W        W20364  25.032  19.677   1.280
47940W        W20365  44.308   7.174   4.984
47941W        W20366   4.174  13.875   1.318
47942W        W20367  20.327  30.684   2.042
47943W        W20368  34.051  30.469  11.709
47944W        W20369  43.231  15.740  11.486
47945W        W20370  37.460   1.036  11.322
47946W        W20371  39.897   0.415   2.386
47947W        W20372  23.806  35.593  11.171
47948W        W20373  33.113  22.245   0.709
47949W        W20374  37.357   1.552   1.770
47950W        W20375  24.632  15.536  12.039
47951W        W20376  21.340  25.933   2.110
47952W        W20377   0.675  25.459   2.380
47953W        W20378  44.100  13.660  14.900
47954W        W20379  42.854  26.348   4.613
47955W        W20380  36.288  37.842   2.330
47956W        W20381   9.639  21.072  12.007
47957W        W20382  19.740   0.580   2.639
47958W        W20383  24.685  11.439   5.174
47959W        W20384   0.339  30.209   4.145
47960W        W20385  28.673  23.077  14.381
47961W        W20386  42.895  42.915  11.630
47962W        W20387  41.978  36.572   4.785
47963W        W20388  42.533  38.887   3.748
47964W        W20389  22.587  36.817  13.554
47965W        W20390  29.239   2.805   2.996
47966W        W20391   5.874  29.994  12.900
47967W        W20392  44.162   3.711   1.800
47968W        W20393  43.366   2.805   4.545
47969W        W20394  35.855   0.724   2.798
47970W        W20395  26.650  29.970  10.769
47971W        W20396  22.062   4.395  10.983
47972W        W20397   5.709  24.218   0.305
47973W        W20398   7.209  29.751   3.100
47974W        W20399  30.019   7.749  10.839
47975W        W20400   8.701   0.497   0.742
47976W        W20401   7.522  32.592   0.884
47977W        W20402  15.881  37.261  13.303
47978W        W20403  42.328  17.313  14.834
47979W        W20404  30.033  24.919   1.511
47980W        W20405  35.431  40.342  13.385
47981W        W20406  20.580   7.577  11.217
47982W        W20407  18.709   4.507  11.098
47983W        W20408  11.807   3.321  14.105
47984W        W20409  28.899  43.784   4.128
47985W        W20410   5.751  36.082   1.231
47986W        W20411  24.040  23.705   4.513
47987W        W20412  19.742  27.275   3.031
47988W        W20413  41.902   3.147   4.151
47989W        W20414   5.403   2.203  12.791
47990W        W20415  16.602  21.540   0.871
47991W        W20416  19.149  36.429  10.698
47992W        W20417  24.287  39.017  12.392
47993W        W20418  19.134  17.820   0.557
47994W        W20419  17.257  21.368  12.578
47995W        W20420  13.637  31.974   1.281
47996W        W20421  42.073  14.683  13.876
47997W        W20422   9.475  27.119   2.032
47998W        W20423   1.414  29.888  11.887
47999W        W20424  29.557  15.673  14.965
48000W        W20425  16.997   4.113   4.146
48001W        W20426  33.101  14.490   0.962
48002W        W20427  15.610  31.981   1.973
48003W        W20428  40.005  20.180  11.657
48004W        W20429  25.068  23.942   3.069
48005W        W20430  37.999  12.196  13.855
48006W        W20431  20.041  25.496   4.131
48007W        W20432   3.279  31.599   0.884
48008W        W20433   9.178   9.670   0.910
48009W        W20434  30.247  29.242   1.896
48010W        W20435   1.905   8.229   0.770
48011W        W20436   4.363  13.578  11.012
48012W        W20437  19.308  14.161   0.922
48013W        W20438  20.139  30.947  10.442
48014W        W20439  30.391  34.695   4.961
48015W        W20440  25.171   8.816  10.779
48016W        W20441   1.889  25.707   0.397
48017W        W20442  16.845  26.101   2.107
48018W        W20443  20.125  14.348   2.216
48019W        W20444  37.879   0.914  10.137
48020W        W20445  20.297  37.650  13.532
48021W        W20446  18.902  13.337  13.289
48022W        W20447  34.294  43.681   1.813
48023W        W20448  26.615  11.014   3.380
48024W        W20449  11.403  26.716   2.942
48025W        W20450  38.103   9.926   1.873
48026W        W20451  36.053  23.371  12.430
48027W        W20452  22.561  37.435  11.632
48028W        W20453  15.240  17.272  10.644
48029W        W20454  35.685  37.555  11.965
48030W        W20455  13.594  30.453  11.998
48031W        W20456  43.763  24.729   4.137
48032W        W20457   4.310  30.180  11.113
48033W        W20458  37.395  16.089   4.286
48034W        W20459  10.386  39.067   3.709
48035W        W20460  32.174  14.675  11.607
48036W        W20461  26.806   6.762  10.701
48037W        W20462  21.626  35.549   0.393
48038W        W20463  33.061  12.952  12.543
48039W        W20464  28.657   1.566  14.590
48040W        W20465  39.808  26.724   2.407
48041W        W20466  19.456  35.393  13.242
48042W        W20467  24.939  37.849  13.532
48043W        W20468  26.369   9.604   4.525
48044W        W20469  39.357  10.160   0.809
48045W        W20470   6.153  42.931   1.873
48046W        W20471  18.618   9.135   4.783
48047W        W20472  16.440  39.937   4.139
48048W        W20473  19.139   4.092   0.808
48049W        W20474  18.260  14.197   2.391
48050W        W20475  31.658  14.195  13.911
48051W        W20476  39.517  23.148  14.869
48052W        W20477   1.618  44.845   2.936
48053W        W20478  18.281   6.410  14.904
48054W        W20479  42.245  22.202   4.146
48055W        W20480   9.278  16.780  13.055
48056W        W20481  26.013  12.303   2.190
48057W        W20482  42.406  38.237  14.212
48058W        W20483  29.381  25.302  13.531
48059W        W20484  14.098  31.967  14.735
48060W        W20485  14.271   1.451   3.281
48061W        W20486  38.160  16.775  11.415
48062W        W20487  39.061  23.944   0.505
48063W        W20488   6.814  35.114   0.350
48064W        W20489  32.620  13.894  14.137
48065W        W20490   1.567  38.576   2.943
48066W        W20491  24.894   7.334   1.347
48067W        W20492  19.132  26.990   3.634
48068W        W20493  15.772  37.853  11.602
48069W        W20494  39.870  20.655  10.732
48070W        W20495   4.241  26.936   4.716
48071W        W20496  15.486  29.859   3.562
48072W        W20497   0.582  32.533   3.314
48073W        W20498  44.433   0.463  14.072
48074W        W20499  25.443  11.857   4.902
48075W        W20500  22.438  36.800   4.224
48076W        W20501  39.714  11.778  11.666
48077W        W20502   0.035  28.944   3.181
48078W        W20503  32.344  13.588   3.394
48079W        W20504  39.828  30.441  10.759
48080W        W20505   7.859  32.982  10.762
48081W        W20506  44.344  41.755   0.835
48082W        W20507  30.160   5.611   1.859
48083W        W20508  28.993  17.070  11.904
48084W        W20509  34.421  34.634   1.426
48085W        W20510  20.918  34.445   3.656
48086W        W20511   7.468  35.674   2.899
48087W        W20512  14.307  26.873  11.557
48088W        W20513  26.706  33.114   0.042
48089W        W20514  34.023  33.360   3.751
48090W        W20515  13.783  23.143   1.832
48091W        W20516  16.185  20.585   1.212
48092W        W20517  43.763  34.266  12.517
48093W        W20518  29.165  12.396   1.916
48094W        W20519   7.168  25.815  13.877
48095W        W20520   7.238  22.199  12.516
48096W        W20521  28.138  18.040   0.790
48097W        W20522  13.323  21.965  13.487
48098W        W20523  37.176  24.462  11.190
48099W        W20524   1.569  34.807   2.124
48100W        W20525   5.258  22.435   4.076
48101W        W20526  14.787  39.394  14.450
48102W        W20527  39.078  33.415   0.527
48103W        W20528   9.634  12.538  10.876
48104W        W20529  39.304  31.167   4.673
48105W        W20530   2.307  23.701  11.126
48106W        W20531  29.494  44.372  14.507
48107W        W20532   2.325  14.616  14.034
48108W        W20533  36.097  33.864  13.624
48109W        W20534  40.984  28.437  12.962
48110W        W20535  16.276  21.801   4.061
48111W        W20536  31.955  28.593   2.076
48112W        W20537  28.577  31.500  14.879
48113W        W20538   8.460  15.125   4.243
48114W        W20539  13.812  12.173  11.965
48115W        W20540  21.009  15.760  14.282
48116W        W20541  44.572  26.281   1.376
48117W        W20542   0.929  32.251   0.061
48118W        W20543  40.099  42.014   4.775
48119W        W20544   0.875   6.873   0.755
48120W        W20545  30.992  22.785  14.209
48121W        W20546   3.928  24.167  13.018
48122W        W20547  16.202  41.024   4.896
48123W        W20548   6.958  21.614   4.349
48124W        W20549  32.511  19.732  14.873
48125W        W20550  17.159  22.610  13.002
48126W        W20551  33.259  18.187  10.552
48127W        W20552  24.466  13.214  14.742
48128W        W20553  22.306   2.095  11.982
48129W        W20554  35.904   9.373  14.874
48130W        W20555  28.660  32.818   2.820
48131W        W20556  17.386  15.033   0.791
48132W        W20557  24.641  28.908   4.229
48133W        W20558  25.576  39.942  13.987
48134W        W20559  31.898  24.146   4.839
48135W        W20560  15.539  44.034  14.575
48136W        W20561   3.661   0.465  12.443
48137W        W20562   1.447  13.815   4.578
48138W        W20563  44.213   1.942   3.065
48139W        W20564  28.153   6.221  14.461
48140W        W20565  36.299  36.481   2.208
48141W        W20566  35.114  30.877  14.643
48142W        W20567  24.037   4.060  13.771
48143W        W20568  44.944  40.329   1.384
48144W        W20569  30.966  44.236   3.607
48145W        W20570   7.372  28.218  14.441
48146W        W20571  31.093  40.771   5.418
48147W        W20572  14.396   7.991  12.836
48148W        W20573  29.135  25.984   1.695
48149W        W20574  24.969  24.386   0.789
48150W        W20575  29.663   2.446  14.020
48151W        W20576  24.144  10.384  12.065
48152W        W20577   5.116  31.118  11.527
48153W        W20578  37.815  25.093  14.345
48154W        W20579  30.083  30.437  11.011
48155W        W20580  17.577  23.618   4.570
48156W        W20581  44.794  19.604   3.918
48157W        W20582  44.003  34.206   1.700
48158W        W20583  33.465  11.174   2.468
48159W        W20584  23.204  16.421  11.001
48160W        W20585   4.494   9.746  11.109
48161W        W20586   8.297  10.987   0.940
48162W        W20587  42.560  20.173  11.646
48163W        W20588  36.487  20.276  12.459
48164W        W20589   0.936  13.455  12.703
48165W        W20590   5.964  20.663  12.324
48166W        W20591  33.665   3.482   4.211
48167W        W20592  12.869  17.696   4.238
48168W        W20593   9.792  25.286   0.217
48169W        W20594  19.784   5.940  14.434
48170W        W20595  36.120  13.156  11.183
48171W        W20596   0.877  22.754   0.695
48172W        W20597  27.686  18.323   0.811
48173W        W20598  10.684  40.424   2.728
48174W        W20599  15.545   7.167  13.763
48175W        W20600  37.141  25.044   3.179
48176W        W20601  18.130  24.481   0.468
48177W        W20602   6.238  22.019   0.258
48178W        W20603  38.680   3.720   0.888
48179W        W20604   9.677   3.658  12.383
48180W        W20605  14.011  22.509  11.381
48181W        W20606   8.869  13.185  12.086
48182W        W20607  39.544   1.424  13.542
48183W        W20608  29.653  14.740   0.008
48184W        W20609  22.943  40.261   2.444
48185W        W20610  18.700  42.932   1.342
48186W        W20611   6.194  34.264  10.581
48187W        W20612  13.331   6.272   2.910
48188W        W20613   7.324  22.297   2.588
48189W        W20614  14.159  13.643  10.704
48190W        W20615  32.922  10.053  13.040
48191W        W20616   1.188  38.441   1.372
48192W        W20617   2.462  23.403  14.333
48193W        W20618  13.832   1.248  12.851
48194W        W20619   0.451   5.269   1.946
48195W        W20620  10.821  33.076  13.633
48196W        W20621  17.139  24.529  14.293
48197W        W20622  12.892  11.406  13.123
48198W        W20623  22.184   5.748  13.444
48199W        W20624  16.036   9.361  13.940
48200W        W20625  19.636  32.680  10.962
48201W        W20626  11.855  30.020   1.321
48202W        W20627  37.140   2.047  11.094
48203W        W20628  27.020  23.988  14.378
48204W        W20629   8.318  33.390  11.993
48205W        W20630   8.825  23.751   0.536
48206W        W20631  12.886   6.773   0.361
48207W        W20632   2.518  15.255  10.587
48208W        W20633  24.219  21.845   2.360
48209W        W20634  34.695  15.622  13.414
48210W        W20635   0.522   7.661   5.007
48211W        W20636  11.640  43.709  11.907
48212W        W20637  35.463   2.995  10.979
48213W        W20638  21.994  10.855  11.514
48214W        W20639   5.485  43.823   4.488
48215W        W20640   2.564  11.169   3.218
48216W        W20641   6.776  40.898  13.604
48217W        W20642  22.064  35.821   3.459
48218W        W20643  11.168  32.907  12.083
48219W        W20644  27.504  24.137  14.592
48220W        W20645   0.036  21.206  12.502
48221W        W20646  39.365  25.348   4.131
48222W        W20647   3.237   4.266   0.405
48223W        W20648  20.167  21.314   2.335
48224W        W20649  13.161  39.514  13.819
48225W        W20650  27.534  43.507  12.619
48226W        W20651   5.475   7.697  12.426
48227W        W20652  26.010  24.795  14.360
48228W        W20653   6.321  32.854   0.349
48229W        W20654  19.535  25.552   4.155
48230W        W20655  12.611  27.994   2.196
48231W        W20656  23.675  26.791   2.341
48232W        W20657   0.241   5.846  10.672
48233W        W20658  30.555  10.109   2.596
48234W        W20659  28.015  19.302  10.857
48235W        W20660   8.852  38.779  14.379
48236W        W20661   8.719  14.684   4.139
48237W        W20662   6.051  23.946  13.780
48238W        W20663   6.475  19.575   4.873
48239W        W20664  21.717  41.997   0.680
48240W        W20665  43.801  17.836   1.275
48241W        W20666  30.428   7.896  13.539
48242W        W20667   9.632  24.643   0.775
48243W        W20668  20.000  24.924   0.749
48244W        W20669  23.212  24.493   2.174
48245W        W20670  40.389  29.309  10.451
48246W        W20671  40.569  27.939  13.814
48247W        W20672  34.162  26.651  10.748
48248W        W20673   2.133  39.794   4.187
48249W        W20674   6.942   2.926  10.765
48250W        W20675  24.196  39.724  10.659
48251W        W20676  17.663  39.873   3.166
48252W        W20677   3.844   1.671   2.183
48253W        W20678  23.071   6.476  14.395
48254W        W20679  22.746  40.842   3.695
48255W        W20680  23.059  43.281   1.229
48256W        W20681   2.967  28.403  11.160
48257W        W20682  25.244   7.441   3.082
48258W        W20683  24.562  41.474  11.508
48259W        W20684   3.806  30.722   3.737
48260W        W20685   6.021  25.280   9.946
48261W        W20686  22.281   3.882  14.029
48262W        W20687  17.146  44.221   0.739
48263W        W20688  40.682  25.706   2.550
48264W        W20689   8.573  17.421  11.667
48265W        W20690  43.487  11.342   2.600
48266W        W20691   9.820  16.046   4.127
48267W        W20692  13.342  41.375  12.415
48268W        W20693   9.679  29.657  10.753
48269W        W20694   3.328  37.012  13.952
48270W        W20695  10.010  30.421  13.476
48271W        W20696   7.659  34.675  12.012
48272W        W20697  26.243  16.576   2.835
48273W        W20698  17.795   1.343  11.145
48274W        W20699  14.650  25.184  12.012
48275W        W20700  19.302  13.114   1.245
48276W        W20701  26.240  38.600  14.386
48277W        W20702  25.677  10.599   1.890
48278W        W20703  20.864  11.246   3.292
48279W        W20704  36.749   4.865  13.358
48280W        W20705  17.848  42.417  14.339
48281W        W20706  24.187  11.925   1.789
48282W        W20707   2.327  17.722  12.761
48283W        W20708   5.825  24.646   1.232
48284W        W20709  40.485  16.293   0.714
48285W        W20710  37.429  18.689  12.306
48286W        W20711   2.033  33.865  12.312
48287W        W20712  22.462   5.550   4.127
48288W        W20713   2.413  34.001   0.543
48289W        W20714  32.740   2.466   2.404
48290W        W20715   7.292  31.435  11.632
48291W        W20716  37.672  19.665   2.367
48292W        W20717  22.725  11.711   4.055
48293W        W20718  25.222  12.429   1.852
48294W        W20719  33.004  27.069   0.151
48295W        W20720  17.007  36.391  14.889
48296W        W20721  35.412  30.628   1.419
48297W        W20722   1.124   7.566  11.113
48298W        W20723   9.154   2.447  14.083
48299W        W20724  12.217  14.269  12.832
48300W        W20725   7.999  24.029   3.717
48301W        W20726  29.748   0.954  14.786
48302W        W20727  35.979  28.460  12.797
48303W        W20728   1.865  37.973  10.693
48304W        W20729  34.373   3.443  14.514
48305W        W20730  16.496   9.749   1.537
48306W        W20731  23.544  34.222   2.899
48307W        W20732  19.051  12.043  12.875
48308W        W20733  33.211  24.728  12.027
48309W        W20734  29.404  25.054   0.011
48310W        W20735  39.124  12.180   1.459
48311W        W20736   6.838  30.033   2.880
48312W        W20737  43.866  29.591  13.868
48313W        W20738   9.200  30.481   4.580
48314W        W20739   7.980   5.640   0.136
48315W        W20740   7.853  25.810   5.010
48316W        W20741   4.669  35.094  13.024
48317W        W20742  17.246  12.117  13.225
48318W        W20743   4.454  44.065   1.238
48319W        W20744  28.930  37.477   0.531
48320W        W20745  24.671  44.986   2.292
48321W        W20746  10.208  29.598  12.975
48322W        W20747  26.934  18.173  12.465
48323W        W20748  12.149  19.200  11.368
48324W        W20749  42.911  31.100  11.653
48325W        W20750  22.231   3.662  11.641
48326W        W20751  28.133   3.246   1.776
48327W        W20752   7.382  15.759  11.193
48328W        W20753   2.306  15.305  11.463
48329W        W20754   0.903  11.325   2.505
48330W        W20755   9.772  35.449   0.008
48331W        W20756  41.567  18.079   4.925
48332W        W20757  19.258  11.483   4.369
48333W        W20758  43.953   8.487   4.038
48334W        W20759  42.377  24.624   0.239
48335W        W20760  44.818  18.225   1.528
48336W        W20761  11.636  25.884  11.961
48337W        W20762  38.852   5.557   1.696
48338W        W20763  20.929  25.769  12.439
48339W        W20764  40.856  25.113  14.453
48340W        W20765  13.246  25.117  12.023
48341W        W20766  44.338  33.458  10.756
48342W        W20767  29.749  29.419   1.985
48343W        W20768  28.310   6.398   1.023
48344W        W20769   5.692   7.419  12.942
48345W        W20770  43.189  14.192  14.289
48346W        W20771  28.447  12.646   3.809
48347W        W20772  29.897  16.864   1.269
48348W        W20773  40.086  19.544   0.907
48349W        W20774   9.664  19.550   3.761
48350W        W20775  42.812  20.612   3.644
48351W        W20776  42.426  21.511   4.583
48352W        W20777  30.438  40.492   4.660
48353W        W20778  17.038  31.120   1.330
48354W        W20779  34.523   3.442  12.572
48355W        W20780  16.286   3.907   4.667
48356W        W20781  17.833  14.586  14.687
48357W        W20782  29.529  31.655   0.757
48358W        W20783  17.305  40.159  11.469
48359W        W20784  36.082  32.638   0.510
48360W        W20785   2.877  20.191  12.592
48361W        W20786   6.701  42.501   2.191
48362W        W20787   0.315  33.993   2.294
48363W        W20788  44.744  24.673   4.720
48364W        W20789  27.909  40.654  11.112
48365W        W20790  13.837  42.969   2.179
48366W        W20791  21.636  35.929   2.720
48367W        W20792   4.273  14.539  14.280
48368W        W20793  29.145  12.536  11.641
48369W        W20794   0.321  42.848  10.932
48370W        W20795  43.461  38.594   1.919
48371W        W20796  26.715  14.573  11.966
48372W        W20797  26.504  10.693  13.320
48373W        W20798  24.663  31.536  10.935
48374W        W20799   8.849  25.108   3.757
48375W        W20800  40.634   8.856  11.931
48376W        W20801   3.340  19.524  14.696
48377W        W20802  15.589  25.064  14.819
48378W        W20803  28.706  37.706  13.135
48379W        W20804  44.430   2.785  14.525
48380W        W20805  22.132  32.294  13.350
48381W        W20806  40.450  42.469   3.315
48382W        W20807  20.733   9.756  12.296
48383W        W20808  19.290  17.507   3.149
48384W        W20809  10.286   2.720   4.513
48385W        W20810  40.534   2.565  14.817
48386W        W20811  43.309  27.583   0.520
48387W        W20812  18.653  29.871   2.209
48388W        W20813  18.337  26.554  12.467
48389W        W20814  22.580  41.713   0.733
48390W        W20815  41.650  42.508  12.298
48391W        W20816   2.755  12.487  13.576
48392W        W20817   6.808   4.222   2.879
48393W        W20818  41.006  42.234  11.460
48394W        W20819  20.445  44.678  12.362
48395W        W20820  20.619  31.518   3.876
48396W        W20821  30.489  11.773   1.061
48397W        W20822  15.842   6.289   2.371
48398W        W20823  27.210  24.588   3.827
48399W        W20824   0.966   6.997  12.938
48400W        W20825   3.156  11.381   4.068
48401W        W20826  17.081  16.188   3.660
48402W        W20827  35.265  31.120  10.609
48403W        W20828   7.274  29.439   3.837
48404W        W20829   0.774   0.307  11.139
48405W        W20830  13.647   3.779  12.139
48406W        W20831  23.665  43.966  13.405
48407W        W20832  33.444  41.760  12.838
48408W        W20833  25.443  11.352  12.213
48409W        W20834  18.594  42.095  11.221
48410W        W20835  13.781   4.270   3.249
48411W        W20836  34.526  21.227  14.595
48412W        W20837  14.866   8.730   2.109
48413W        W20838   6.218  42.961  12.058
48414W        W20839  22.837  17.982  10.141
48415W        W20840  30.563  44.984   2.694
48416W        W20841  31.115  19.151  11.616
48417W        W20842  28.611  39.077  12.034
48418W        W20843  18.214  35.019   0.949
48419W        W20844  32.915  28.672   3.271
48420W        W20845  22.308  13.443  14.389
48421W        W20846  16.013  35.799  12.878
48422W        W20847  23.194   4.148  12.407
48423W        W20848  15.565   0.362   0.933
48424W        W20849   9.636  29.917  14.636
48425W        W20850  12.838   1.975   5.041
48426W        W20851  34.024  28.003   1.860
48427W        W20852   9.077  16.671   4.102
48428W        W20853  44.757  35.368  12.612
48429W        W20854  36.276  18.327   2.539
48430W        W20855  28.585  32.554  10.707
48431W        W20856   7.511  13.614  14.841
48432W        W20857  24.114  23.739  14.947
48433W        W20858  29.347  41.925   5.085
48434W        W20859  36.037   4.841   0.766
48435W        W20860  16.507  17.803  10.722
48436W        W20861  29.601  12.894  10.202
48437W        W20862  25.490  35.566   4.905
48438W        W20863  35.810   1.392   0.953
48439W        W20864   0.872  18.537   1.304
48440W        W20865  15.851  20.345   0.840
48441W        W20866  34.588  19.630  10.409
48442W        W20867  32.480  25.492   0.891
48443W        W20868  16.512  16.262  13.052
48444W        W20869  41.029  35.575   2.234
48445W        W20870  27.201  36.027  13.479
48446W        W20871  32.425  27.527   0.723
48447W        W20872  13.395  38.355   4.168
48448W        W20873  25.044  23.547  12.522
48449W        W20874   0.793   1.242   3.045
48450W        W20875  35.244  32.963   0.828
48451W        W20876  10.700  32.226  13.616
48452W        W20877  31.053  18.624   4.475
48453W        W20878  25.754   6.862   2.768
48454W        W20879   1.910  36.191   4.075
48455W        W20880  44.649  33.463  11.425
48456W        W20881  15.643  36.052  13.155
48457W        W20882  40.128  41.930  14.482
48458W        W20883   0.216  18.153   0.655
48459W        W20884  37.296   3.282  10.884
48460W        W20885  40.565  13.756  11.614
48461W        W20886  40.018   7.808  14.448
48462W        W20887  31.663  42.291  12.300
48463W        W20888  27.413   2.674   3.225
48464W        W20889  13.394  21.223   1.485
48465W        W20890  26.646  40.192   5.057
48466W        W20891  37.391   6.012  12.884
48467W        W20892  30.458   9.791  14.048
48468W        W20893  40.858  14.304   4.456
48469W        W20894  28.160  39.357  10.671
48470W        W20895  25.858  15.781   1.776
48471W        W20896  40.301  38.890   0.944
48472W        W20897  38.890  44.873  13.999
48473W        W20898  34.020  37.143  10.833
48474W        W20899  30.918  11.390   0.822
48475W        W20900  28.496  24.811  11.204
48476W        W20901  40.506   2.403   1.223
48477W        W20902  25.211  18.123  14.319
48478W        W20903  43.555  13.609  13.569
48479W        W20904  14.693  22.914  12.362
48480W        W20905  20.550  26.238  13.383
48481W        W20906  26.894  28.509  13.287
48482W        W20907  37.022  43.114   4.554
48483W        W20908  35.345  39.522   0.109
48484W        W20909  15.159  32.456  12.996
48485W        W20910  13.188  35.506  13.751
48486W        W20911  15.019  14.868  14.012
48487W        W20912   7.154   0.156  14.881
48488W        W20913   3.665  11.419   1.832
48489W        W20914  43.993  11.898  12.550
48490W        W20915  29.190  34.209  12.526
48491W        W20916   5.226  31.627  11.445
48492W        W20917  37.510  26.709  13.371
48493W        W20918  33.351  40.042   2.831
48494W        W20919  13.688  13.384   2.175
48495W        W20920  14.567   1.909   0.482
48496W        W20921  32.833  27.034  10.716
48497W        W20922  23.657  10.641  14.945
48498W        W20923   2.499  36.821  13.933
48499W        W20924  23.208  27.420  14.917
48500W        W20925   0.578  11.354  13.981
48501W        W20926  37.368   2.378   1.489
48502W        W20927  30.839  42.096  12.605
48503W        W20928   8.783  35.757  11.123
48504W        W20929  40.016   8.804   1.900
48505W        W20930  40.922  28.962   1.611
48506W        W20931  23.783   7.339   0.836
48507W        W20932  10.871  18.484   3.320
48508W        W20933  20.411   2.744  13.345
48509W        W20934   7.919   2.315   4.360
48510W        W20935  23.264  31.333   5.557
48511W        W20936  19.539   4.556   1.774
48512W        W20937  33.914  11.790  14.880
48513W        W20938  36.046  33.744   3.136
48514W        W20939  23.974  41.288  11.437
48515W        W20940  24.931  34.447   4.101
48516W        W20941   3.126  40.892  11.214
48517W        W20942  28.224  39.772   5.382
48518W        W20943   1.490   2.319   0.256
48519W        W20944  10.741  44.453  12.542
48520W        W20945  33.923   6.001   1.252
48521W        W20946  28.890  17.850   3.617
48522W        W20947  34.545  23.794  13.079
48523W        W20948   7.745  38.879  11.970
48524W        W20949  41.234  22.307   5.088
48525W        W20950  19.097  34.883   3.706
48526W        W20951   0.877  34.905  10.319
48527W        W20952  10.599  38.307  13.574
48528W        W20953  20.763  32.881  14.199
48529W        W20954   8.838  16.273   4.555
48530W        W20955  17.371   7.600  13.936
48531W        W20956  31.628   7.019  14.869
48532W        W20957  28.227  32.462   2.793
48533W        W20958  40.528  13.334  14.774
48534W        W20959  39.232  21.233  12.859
48535W        W20960  41.349   6.963  14.398
48536W        W20961  14.464  37.917  12.837
48537W        W20962  40.418  28.042  12.492
48538W        W20963  22.170  28.886  11.178
48539W        W20964   9.065  42.118   5.108
48540W        W20965  35.084  13.836   4.482
48541W        W20966  14.719  17.328  10.652
48542W        W20967  25.231  15.816  13.180
48543W        W20968  21.760   4.991  12.027
48544W        W20969   1.832  29.617   1.680
48545W        W20970   0.478  41.979  14.406
48546W        W20971  25.234  24.605  13.936
48547W        W20972  31.684   5.389  12.427
48548W        W20973   4.953  23.707  12.070
48549W        W20974  44.460  31.656  14.976
48550W        W20975  35.375  29.140  10.996
48551W        W20976  16.585  40.964   2.785
48552W        W20977  27.195   8.726  14.120
48553W        W20978  35.428   1.039   4.083
48554W        W20979  16.444  22.946   1.696
48555W        W20980   6.433   7.938  13.095
48556W        W20981  13.303  44.363   4.616
48557W        W20982   6.158  20.558   1.882
48558W        W20983  14.655  10.663  10.709
48559W        W20984  34.369  43.750   3.856
48560W        W20985  34.974  35.357  14.426
48561W        W20986  30.115  12.140   1.080
48562W        W20987   0.416  28.608  12.966
48563W        W20988  27.670  34.137  13.394
48564W        W20989  35.891  20.982  11.365
48565W        W20990   3.342  44.742   0.415
48566W        W20991  24.757  25.744   4.239
48567W        W20992  29.943  39.771   3.734
48568W        W20993  15.647  20.892   2.700
48569W        W20994  29.030   1.118  13.580
48570W        W20995   3.388   2.323  14.779
48571W        W20996  23.075  12.221   0.397
48572W        W20997  13.175  43.565  14.898
48573W        W20998  19.912  15.824   0.758
48574W        W20999  28.725   9.928   3.495
48575W        W21000  25.853  23.911   3.570
48576W        W21001  30.664  39.561   2.619
48577W        W21002  37.103  32.403   1.731
48578W        W21003  41.371  20.144  11.955
48579W        W21004   5.814  35.366  14.500
48580W        W21005  31.379  40.038  10.062
48581W        W21006  32.205   8.961   2.697
48582W        W21007  24.207  24.615  13.982
48583W        W21008  40.036   3.594  11.192
48584W        W21009  21.791   8.990   5.160
48585W        W21010  26.684  31.407   0.009
48586W        W21011  22.863   9.258   5.410
48587W        W21012  33.205   6.657  14.302
48588W        W21013   7.869  14.848   1.651
48589W        W21014  19.311  18.118  11.244
48590W        W21015  10.555  17.645  10.556
48591W        W21016  26.231  21.562   1.371
48592W        W21017   1.894  30.490  14.936
48593W        W21018  30.716  26.454  10.124
48594W        W21019   4.582   3.449  14.863
48595W        W21020  12.392  13.551  12.178
48596W        W21021  25.181  36.136  12.883
48597W        W21022   0.234  35.229   5.024
48598W        W21023   3.915  40.473   4.351
48599W        W21024  24.992  11.005  11.971
48600W        W21025  19.157  33.798   3.844
48601W        W21026  14.767  34.535   9.678
48602W        W21027  29.344  36.429   4.346
48603W        W21028  27.920  40.172   5.272
48604W        W21029  11.340  13.779   1.820
48605W        W21030  14.158  35.414   0.830
48606W        W21031  44.487  44.854   0.353
48607W        W21032   6.824   2.661   1.440
48608W        W21033  26.171  43.735   4.148
48609W        W21034  26.460  16.065  14.628
48610W        W21035  18.538  37.877   1.327
48611W        W21036  14.262  34.857   0.363
48612W        W21037   0.530  24.893  11.128
48613W        W21038   7.567  17.672  12.331
48614W        W21039  28.157  12.953  10.881
48615W        W21040  20.901  35.399  11.076
48616W        W21041  25.827   9.787  12.796
48617W        W21042   7.263  32.666  14.051
48618W        W21043   7.738  42.766   4.579
48619W        W21044   9.817  13.790   3.966
48620W        W21045  33.000  42.959   4.995
48621W        W21046  33.513  14.649  13.394
48622W        W21047  12.586   0.884   0.908
48623W        W21048  17.253  31.561   1.478
48624W        W21049  14.699  21.995  10.814
48625W        W21050  25.503  41.269   3.243
48626W        W21051  38.953  18.275   1.770
48627W        W21052   8.557  22.839  10.704
48628W        W21053  20.146  13.614   3.553
48629W        W21054   7.262  14.642   3.194
48630W        W21055  33.550  37.450   4.113
48631W        W21056  13.546  21.138   0.993
48632W        W21057  34.411  35.803   3.251
48633W        W21058  25.990  44.897  10.400
48634W        W21059   4.367   7.752   2.836
48635W        W21060  44.310  28.585   1.835
48636W        W21061  43.284  33.358  11.663
48637W        W21062  13.215  19.200   3.175
48638W        W21063   2.028  28.944  12.275
48639W        W21064  11.614  16.580   4.358
48640W        W21065   1.290  35.356   0.267
48641W        W21066  13.880   4.526   0.906
48642W        W21067  23.784  34.181   3.404
48643W        W21068  35.934  16.779   3.865
48644W        W21069  28.485  25.270  12.111
48645W        W21070   8.659  34.103  12.459
48646W        W21071  33.108  24.693  14.985
48647W        W21072   2.859   9.320   0.313
48648W        W21073  14.692  44.442   0.224
48649W        W21074  40.844  33.123  10.622
48650W        W21075  17.831  25.227  14.500
48651W        W21076  21.559  26.139  14.461
48652W        W21077  44.806  35.791  14.468
48653W        W21078  32.677  15.281  12.696
48654W        W21079  36.330  15.236   3.975
48655W        W21080  41.051  36.036  10.758
48656W        W21081   6.732   5.885   1.825
48657W        W21082   0.209  32.456  12.533
48658W        W21083  32.018  15.825   0.995
48659W        W21084  16.855  31.059  12.106
48660W        W21085   5.860  32.119  11.952
48661W        W21086  29.114   4.246   0.826
48662W        W21087  28.885  44.385  11.012
48663W        W21088  23.990  17.387  11.272
48664W        W21089   7.815  11.587  12.590
48665W        W21090   5.846  13.389   0.933
48666W        W21091  20.677   0.502  10.473
48667W        W21092  12.157  32.923  11.100
48668W        W21093  39.638  35.558  11.079
48669W        W21094  11.555  31.533   0.785
48670W        W21095  44.079  44.786   0.725
48671W        W21096  39.336  10.401   1.289
48672W        W21097  20.538  14.528  13.867
48673W        W21098   5.475  13.297   2.202
48674W        W21099   1.170  10.290   1.760
48675W        W21100   3.818   9.188   2.825
48676W        W21101  12.277  12.591   2.393
48677W        W21102  31.273   2.195   3.685
48678W        W21103   9.401  31.070  12.182
48679W        W21104  37.382  26.231  13.536
48680W        W21105  39.462  22.989  10.492
48681W        W21106   6.884  42.267  11.164
48682W        W21107   4.890  40.260   3.074
48683W        W21108  13.264  36.618   1.814
48684W        W21109  20.054  26.441  11.168
48685W        W21110  43.023  24.217  13.308
48686W        W21111  32.067  18.711  12.912
48687W        W21112  43.364   6.882   1.901
48688W        W21113  23.413  22.580  10.422
48689W        W21114  38.500  17.060  11.671
48690W        W21115  37.969  23.469   0.195
48691W        W21116  20.617   9.569  12.791
48692W        W21117   8.185  29.190   4.611
48693W        W21118  21.979  14.864  13.103
48694W        W21119  18.125  35.480  11.425
48695W        W21120  38.107  27.344   2.856
48696W        W21121  40.538  33.880   1.769
48697W        W21122   4.759  38.739   2.763
48698W        W21123  32.391  19.785  14.364
48699W        W21124   1.964   4.507   2.892
48700W        W21125  22.454  40.650   3.285
48701W        W21126  40.084  38.410   1.362
48702W        W21127  21.680  41.871   5.001
48703W        W21128  37.244  20.394  11.811
48704W        W21129  10.876  32.482   4.483
48705W        W21130  25.059  41.928   0.926
48706W        W21131  26.514  33.868  11.521
48707W        W21132  24.635   6.392   2.738
48708W        W21133  31.830   2.848   3.770
48709W        W21134  40.502   8.832   3.177
48710W        W21135   7.862  42.800   3.553
48711W        W21136  19.384  14.752   2.807
48712W        W21137  18.355  19.077   1.893
48713W        W21138   1.960  25.404  14.935
48714W        W21139  40.334  27.521  10.968
48715W        W21140   2.926   3.519  12.605
48716W        W21141  38.996  24.946   2.684
48717W        W21142   4.281  44.920   3.461
48718W        W21143  41.081  13.251  13.358
48719W        W21144  16.804  30.711   0.231
48720W        W21145   5.087  24.392  11.240
48721W        W21146  31.630  29.163  14.535
48722W        W21147  29.009  17.749  14.037
48723W        W21148   2.903   5.170  11.393
48724W        W21149  36.065   3.912   4.550
48725W        W21150   6.823  36.440   1.762
48726W        W21151  32.113   1.019   0.735
48727W        W21152  15.568   1.776   3.003
48728W        W21153  32.834   4.205   3.260
48729W        W21154  44.326  38.984   2.152
48730W        W21155  30.724  14.800  13.471
48731W        W21156   8.717  39.805   3.687
48732W        W21157  18.641  37.013   0.839
48733W        W21158   6.250   6.065  10.299
48734W        W21159  43.041  21.080   2.010
48735W        W21160  23.153  43.514  10.736
48736W        W21161  10.513   2.406   3.702
48737W        W21162  38.448  26.300  12.501
48738W        W21163   5.451  18.513  12.105
48739W        W21164  44.187   5.767   2.770
48740W        W21165  39.376  32.952   2.020
48741W        W21166  29.042  40.911   5.406
48742W        W21167   7.798   6.993  13.599
48743W        W21168   0.264   0.364  14.453
48744W        W21169  15.319  20.031   2.554
48745W        W21170  25.605  23.435   5.204
48746W        W21171   6.938  15.190  13.390
48747W        W21172  18.889  18.638   1.161
48748W        W21173   0.461  39.067  11.996
48749W        W21174  35.993  33.832   0.920
48750W        W21175  26.511  27.616   3.796
48751W        W21176  38.020  40.398   2.616
48752W        W21177  36.655  36.024  12.014
48753W        W21178  34.155  31.116   1.904
48754W        W21179  36.116  16.956   2.143
48755W        W21180  27.494  35.902  14.381
48756W        W21181   6.386  28.896   1.878
48757W        W21182  22.659  43.407  10.863
48758W        W21183  13.186  31.179   4.715
48759W        W21184  12.569  16.561   0.559
48760W        W21185   1.999   3.986   2.873
48761W        W21186  36.486  10.469   5.156
48762W        W21187  32.384  28.490   1.744
48763W        W21188  24.950  15.323   1.903
48764W        W21189  11.410   4.959   3.239
48765W        W21190  20.308  29.504  13.885
48766W        W21191  32.318  16.287  13.946
48767W        W21192  11.955  44.911   3.784
48768W        W21193  16.026  26.466   4.537
48769W        W21194  20.999   8.247   4.282
48770W        W21195  31.932  31.844  12.647
48771W        W21196  16.916  26.355   5.072
48772W        W21197  16.124  26.271  12.072
48773W        W21198  22.050   8.526  13.519
48774W        W21199  22.588   8.425  11.286
48775W        W21200  12.921  31.583   2.764
48776W        W21201  15.099  29.039  11.235
48777W        W21202  10.250   4.844   1.940
48778W        W21203  26.203  29.926   3.697
48779W        W21204   2.017  24.642   2.668
48780W        W21205  13.495  36.005  13.599
48781W        W21206  12.309  38.690   2.083
48782W        W21207  20.428  22.461  14.417
48783W        W21208  18.654  29.076  14.399
48784W        W21209   6.163  43.046  10.820
48785W        W21210  24.479  29.689  10.670
48786W        W21211  13.181   5.204   1.916
48787W        W21212  23.426  19.581  11.209
48788W        W21213   1.636   4.898  11.369
48789W        W21214   9.112  32.784   3.678
48790W        W21215  30.673   7.180  12.342
48791W        W21216  19.160  15.661  14.447
48792W        W21217  17.596  36.648   0.294
48793W        W21218  38.237  15.575  14.498
48794W        W21219   7.729   0.685  14.408
48795W        W21220  14.679   4.217   3.393
48796W        W21221  42.264   9.720   2.613
48797W        W21222   1.512   7.023   2.303
48798W        W21223  39.180  18.089  10.739
48799W        W21224  26.131  35.990  13.098
48800W        W21225  12.893   2.754  14.313
48801W        W21226   2.638  10.501   0.934
48802W        W21227   8.562  13.642   2.638
48803W        W21228   6.388  39.617  13.536
48804W        W21229  39.583   7.910   2.787
48805W        W21230   4.716  24.008   4.547
48806W        W21231  28.946  24.652  10.983
48807W        W21232   9.697  34.768  12.730
48808W        W21233  20.279  36.036   0.907
48809W        W21234  41.697   0.604   0.306
48810W        W21235   3.194  34.591   3.419
48811W        W21236  41.072  36.676   4.133
48812W        W21237  15.601   8.900   0.360
48813W        W21238   2.434  34.918   1.691
48814W        W21239  36.148   9.395  13.020
48815W        W21240  41.353  42.032   4.536
48816W        W21241   0.356  34.955  11.384
48817W        W21242  40.275  15.464   1.887
48818W        W21243  16.166  19.581   0.557
48819W        W21244  36.631  13.889  12.084
48820W        W21245   7.185  11.161  13.064
48821W        W21246  22.582  19.940   1.414
48822W        W21247  21.253  43.457   4.357
48823W        W21248  26.839  44.361  10.210
48824W        W21249  23.090  14.125  14.519
48825W        W21250  43.879   9.854   2.618
48826W        W21251  34.108  29.392   2.689
48827W        W21252  15.374  43.860   3.893
48828W        W21253  26.884   1.868  13.134
48829W        W21254  25.470  26.571   4.586
48830W        W21255  22.138  34.387   3.063
48831W        W21256  20.210  12.837  10.356
48832W        W21257  44.799  41.516  12.515
48833W        W21258  31.580  18.685  12.679
48834W        W21259   2.246  30.192  11.070
48835W        W21260  29.166  40.498   2.173
48836W        W21261   0.792   9.383   1.379
48837W        W21262  44.559  37.511   3.266
48838W        W21263  28.937  12.744   4.501
48839W        W21264   6.699  11.241  11.206
48840W        W21265  18.601  27.712  14.830
48841W        W21266  34.368  38.354  13.469
48842W        W21267   8.932   1.968  14.004
48843W        W21268   5.332  36.628  10.659
48844W        W21269  36.751  11.952  12.992
48845W        W21270  34.272  37.431  12.436
48846W        W21271  22.399  25.914   4.163
48847W        W21272  32.668  41.118   2.765
48848W        W21273  22.450  39.949   0.952
48849W        W21274  43.541   3.374  13.787
48850W        W21275  23.633   1.418   2.858
48851W        W21276   4.527  30.916  11.552
48852W        W21277  16.548  32.207  14.420
48853W        W21278  17.237  43.205   1.233
48854W        W21279  15.204   2.253   2.283
48855W        W21280  29.120  17.851   1.862
48856W        W21281   4.945  10.520  10.657
48857W        W21282   4.092  37.420   2.726
48858W        W21283  44.782  30.854   4.587
48859W        W21284  41.641  36.753   1.097
48860W        W21285  35.959  23.221   0.239
48861W        W21286  24.314   8.757   1.791
48862W        W21287  41.215  11.349  14.402
48863W        W21288  36.753  31.043  13.564
48864W        W21289  21.854  15.618  10.691
48865W        W21290  26.791  31.824   3.656
48866W        W21291   7.133  31.332  13.488
48867W        W21292  30.922  16.250   4.238
48868W        W21293  44.003  35.555  13.191
48869W        W21294  26.595  40.854   4.249
48870W        W21295  40.965  16.223   1.912
48871W        W21296  28.409  34.876   3.293
48872W        W21297  38.584   7.734  12.045
48873W        W21298   0.255  37.929  12.585
48874W        W21299  28.419  27.112   1.961
48875W        W21300   4.947  35.452   0.819
48876W        W21301  24.308  36.116   2.141
48877W        W21302  12.608  44.024  12.169
48878W        W21303   6.817   7.763  14.983
48879W        W21304  24.437  20.509   3.618
48880W        W21305  20.160  36.336  11.128
48881W        W21306   5.897  17.120  14.918
48882W        W21307  11.823  15.837   3.842
48883W        W21308  42.014  36.823  13.161
48884W        W21309   0.788  17.026  14.821
48885W        W21310  43.873  32.087  13.478
48886W        W21311  17.319  24.902   0.231
48887W        W21312  31.805  22.110   0.522
48888W        W21313  19.906  39.046   1.596
48889W        W21314  39.825  21.758  12.935
48890W        W21315  38.040  21.906   0.330
48891W        W21316  41.058  37.185   4.175
48892W        W21317  35.061   0.055  11.571
48893W        W21318  43.931  38.861   2.850
48894W        W21319  22.288  12.899   3.133
48895W        W21320  28.575  17.228   4.143
48896W        W21321   5.968  38.824  10.647
48897W        W21322  40.626  30.797  12.370
48898W        W21323   1.143   6.997   4.149
48899W        W21324  35.167  17.674   2.462
48900W        W21325  30.557  27.391  14.907
48901W        W21326   1.035  42.275  13.432
48902W        W21327  34.596  26.540   1.725
48903W        W21328  43.016  38.041   3.826
48904W        W21329  28.064  41.141  11.259
48905W        W21330  17.865  39.086  11.150
48906W        W21331  44.201  31.378  12.457
48907W        W21332  11.880   5.553  12.621
48908W        W21333  13.137  31.975  12.638
48909W        W21334  22.639  39.097   1.500
48910W        W21335  38.417  29.118   0.026
48911W        W21336  22.218   6.209  10.969
48912W        W21337   7.181  23.838   3.948
48913W        W21338  35.899  19.639  12.001
48914W        W21339  25.005  35.539   1.828
48915W        W21340  27.586  25.776  12.005
48916W        W21341   9.370   3.291   4.042
48917W        W21342  11.944  18.079  14.328
48918W        W21343  10.130   7.925   3.222
48919W        W21344  15.816  40.491  11.305
48920W        W21345  36.128  39.546  14.256
48921W        W21346  20.625  26.419   2.778
48922W        W21347  27.565  43.948  11.159
48923W        W21348  19.268   2.300   0.942
48924W        W21349  23.191  33.109  11.163
48925W        W21350  13.205   9.690   4.198
48926W        W21351  24.647  41.360   4.922
48927W        W21352  29.618  10.345   2.769
48928W        W21353  21.015  28.693   0.528
48929W        W21354  21.029  31.328   0.409
48930W        W21355  16.344   2.546  11.233
48931W        W21356  23.580  34.717  14.515
48932W        W21357  19.769   4.012  12.972
48933W        W21358   7.840  25.953  13.309
48934W        W21359  18.074  14.990  11.582
48935W        W21360  22.688   4.157  14.341
48936W        W21361  10.112  16.684  13.976
48937W        W21362   6.631  38.970   4.609
48938W        W21363  16.638  31.062  13.387
48939W        W21364  20.952  34.547  10.647
48940W        W21365  33.399   7.370   4.302
48941W        W21366   7.299  33.366  12.890
48942W        W21367  21.317  30.115  13.410
48943W        W21368   8.273  42.948   3.864
48944W        W21369  40.687  26.552   0.348
48945W        W21370  20.008  28.692   4.727
48946W        W21371  25.751  28.992   1.590
48947W        W21372   7.919  30.980  13.811
48948W        W21373  41.002  43.658  14.468
48949W        W21374  42.534  31.084  10.415
48950W        W21375  17.669  40.923  13.490
48951W        W21376  19.716  27.380   1.707
48952W        W21377  18.887   0.749  14.258
48953W        W21378   4.419  25.153   0.265
48954W        W21379  42.951  14.152   0.670
48955W        W21380   6.251  13.663   1.165
48956W        W21381  42.468  19.232  10.452
48957W        W21382  26.058   5.880  14.817
48958W        W21383  43.641   3.279   0.281
48959W        W21384   8.818  19.456  12.858
48960W        W21385  34.524  11.318   0.804
48961W        W21386   8.861  13.150   0.630
48962W        W21387  23.259  41.893  13.852
48963W        W21388  15.563   5.934   4.071
48964W        W21389  42.093  23.050   9.686
48965W        W21390  26.181  25.699  11.221
48966W        W21391  31.429  13.310  12.054
48967W        W21392  12.730   6.376   1.614
48968W        W21393  15.555  34.661   2.138
48969W        W21394  42.735   4.768   2.762
48970W        W21395  29.015  34.349   2.737
48971W        W21396   4.127  38.998   1.366
48972W        W21397  28.486  38.137  10.948
48973W        W21398  24.141   2.547   2.327
48974W        W21399  41.913  12.323   2.478
48975W        W21400   7.773  36.222   4.709
48976W        W21401  27.638  21.888   9.738
48977W        W21402  44.663  31.614   4.970
48978W        W21403  38.105   0.862   2.550
48979W        W21404  33.925  27.045  11.819
48980W        W21405  43.736   2.397  13.297
48981W        W21406  23.196  17.114   3.685
48982W        W21407  35.054  23.939   2.725
48983W        W21408  13.240  15.745  14.255
48984W        W21409   8.198  34.790   3.793
48985W        W21410  41.479  22.759  11.070
48986W        W21411  18.109  15.721   4.743
48987W        W21412  25.650  18.566   1.004
48988W        W21413  11.600   6.517  12.036
48989W        W21414   6.284  19.948  11.196
48990W        W21415   4.011   6.841  13.355
48991W        W21416  11.746  22.212   2.156
48992W        W21417  39.735  38.967  14.699
48993W        W21418  15.865  37.916   4.923
48994W        W21419  44.248  15.840   2.621
48995W        W21420  17.786  16.178   4.144
48996W        W21421  34.536  16.532  10.694
48997W        W21422  22.980  42.848   3.138
48998W        W21423  29.213  33.553  12.064
48999W        W21424  19.663  14.522  13.140
49000W        W21425   1.201  20.061   3.402
49001W        W21426   9.203  10.365  12.833
49002W        W21427   6.758  39.496   3.558
49003W        W21428  42.478  14.837   3.015
49004W        W21429  11.705  16.093   2.168
49005W        W21430  15.439  17.121  11.078
49006W        W21431  16.297  23.958   0.917
49007W        W21432  43.881  29.107  11.674
49008W        W21433  19.548  43.886   2.746
49009W        W21434  28.473  43.211   0.937
49010W        W21435   0.490  20.632   1.475
49011W        W21436  29.904  35.358   2.809
49012W        W21437  27.955   2.738  14.203
49013W        W21438  22.470  26.481  14.381
49014W        W21439  28.053  25.683  13.446
49015W        W21440  33.289  42.787  14.459
49016W        W21441  35.528   8.312   5.106
49017W        W21442  23.853  44.354   3.661
49018W        W21443  19.204  36.089  11.094
49019W        W21444  41.238  16.526  14.392
49020W        W21445  22.440   9.688   2.777
49021W        W21446  30.878  19.141   4.542
49022W        W21447   6.191  10.172  10.897
49023W        W21448  44.867  22.233  14.388
49024W        W21449  42.842  40.269   2.185
49025W        W21450  25.164  33.104  14.981
49026W        W21451  44.751  10.332   1.773
49027W        W21452  20.187  22.656   4.488
49028W        W21453  19.554  15.368   1.282
49029W        W21454  15.836  23.210   2.921
49030W        W21455  24.765  21.259  12.918
49031W        W21456  30.519  11.672  12.809
49032W        W21457  25.210  27.306   1.358
49033W        W21458   4.643   5.480  12.960
49034W        W21459  37.601  15.686  12.064
49035W        W21460  32.261  24.469   5.064
49036W        W21461   4.373  26.724   2.837
49037W        W21462  14.973  26.410  14.449
49038W        W21463  40.177  21.193  11.825
49039W        W21464  37.062   0.717   1.297
49040W        W21465  43.285  13.273  14.858
49041W        W21466   7.674  23.725   2.725
49042W        W21467  23.740   8.007  11.340
49043W        W21468   8.734  32.875  14.801
49044W        W21469  40.756  20.130   2.296
49045W        W21470  21.973  26.688   3.668
49046W        W21471   9.373  41.514   2.786
49047W        W21472  40.031   4.113  11.230
49048W        W21473  38.443  41.541  10.720
49049W        W21474  35.988  26.181   2.667
49050W        W21475  11.706  20.445   0.792
49051W        W21476  37.689  38.304  11.498
49052W        W21477  38.154  42.893  14.991
49053W        W21478  44.382  18.873   4.913
49054W        W21479   1.230  16.066   0.745
49055W        W21480  34.465   0.664   0.844
49056W        W21481  38.308  31.136   4.686
49057W        W21482  20.040  12.631   1.420
49058W        W21483  35.334  13.210   0.520
49059W        W21484  12.987  22.445   5.067
49060W        W21485  42.392  11.572  12.005
49061W        W21486  29.991   2.291  13.427
49062W        W21487  11.853  14.758  13.829
49063W        W21488  10.750  21.090  13.806
49064W        W21489  25.524  38.978  10.718
49065W        W21490  24.219   2.684  12.533
49066W        W21491  34.516  39.153   3.610
49067W        W21492  24.633  14.044  11.639
49068W        W21493  34.962   8.880   0.732
49069W        W21494  37.271  14.868  10.660
49070W        W21495   8.856   6.295  10.771
49071W        W21496  22.929  13.160   0.937
49072W        W21497  21.956  24.352  14.806
49073W        W21498   4.954  41.851  14.496
49074W        W21499   9.639  11.856  12.633
49075W        W21500  10.293  25.936   0.845
49076W        W21501  40.506  16.140  12.987
49077W        W21502  28.374  16.710   4.482
49078W        W21503  21.600   1.054   2.874
49079W        W21504   5.963  25.229   1.365
49080W        W21505   6.429   4.833  12.849
49081W        W21506   6.145  44.710   4.649
49082W        W21507  22.001  26.397   4.980
49083W        W21508   9.028  19.760   1.903
49084W        W21509  38.493   2.713  11.781
49085W        W21510   1.748  14.292  12.115
49086W        W21511  31.169  12.942   1.794
49087W        W21512  16.314  23.098  14.983
49088W        W21513   0.908  40.581   4.163
49089W        W21514  35.837  24.174   0.300
49090W        W21515  40.368  19.485  12.602
49091W        W21516  12.676  18.578  12.106
49092W        W21517  27.957  30.006  14.040
49093W        W21518  37.281  11.269  14.327
49094W        W21519  26.574  37.535   2.385
49095W        W21520  22.343  23.026  13.527
49096W        W21521  19.618  34.055  11.667
49097W        W21522  41.472  31.816  10.351
49098W        W21523  13.100  26.884  14.858
49099W        W21524   1.820  18.360  10.723
49100W        W21525  10.373  16.203   2.827
49101W        W21526  27.764  28.185  14.113
49102W        W21527  19.559  22.005  12.173
49103W        W21528  25.076  43.397   2.807
49104W        W21529  14.650  20.484  10.800
49105W        W21530  13.372  26.455   0.843
49106W        W21531  41.482  24.684  13.457
49107W        W21532  42.382  26.554  14.236
49108W        W21533   9.228  23.631   2.192
49109W        W21534  26.346  18.196   1.670
49110W        W21535   6.446   7.489   0.861
49111W        W21536  32.844  23.137   1.096
49112W        W21537  34.147  22.181  14.442
49113W        W21538  22.932  16.320  12.368
49114W        W21539   3.448   9.179  12.655
49115W        W21540  11.630  44.413  13.476
49116W        W21541   1.555  21.611  13.876
49117W        W21542   9.734  15.606  14.944
49118W        W21543  16.585  38.914  11.435
49119W        W21544  37.118  27.779  11.248
49120W        W21545  30.380  38.797   1.405
49121W        W21546  30.321  31.683   4.108
49122W        W21547   7.982  27.626  14.977
49123W        W21548  30.738  25.981  13.418
49124W        W21549  44.797   0.795   4.215
49125W        W21550   9.987  15.073   4.055
49126W        W21551  39.358  21.008   2.594
49127W        W21552  23.041  11.146   4.631
49128W        W21553  30.419  23.966   2.345
49129W        W21554  38.597  31.438  14.179
49130W        W21555  36.839  40.705   2.087
49131W        W21556   8.803  26.456  10.367
49132W        W21557  40.493   6.386   1.906
49133W        W21558  33.122   6.445  13.822
49134W        W21559  31.478  21.723   3.106
49135W        W21560  19.320  40.344   4.260
49136W        W21561   9.838  20.174   2.004
49137W        W21562  23.674  18.021   2.850
49138W        W21563   0.535  39.867   3.821
49139W        W21564  33.361  16.328   1.398
49140W        W21565   1.526  44.972  12.129
49141W        W21566  25.976  42.351  10.425
49142W        W21567  40.083  11.809   0.867
49143W        W21568  18.453  37.511  10.350
49144W        W21569   9.123  11.274  14.899
49145W        W21570  20.035  21.154   0.335
49146W        W21571  11.895  27.797  14.152
49147W        W21572  34.626  31.606  13.963
49148W        W21573  30.566  41.078  14.082
49149W        W21574  23.030  28.869   4.299
49150W        W21575  44.783  32.106   0.750
49151W        W21576  42.423  41.791  12.992
49152W        W21577   2.732   8.154  14.883
49153W        W21578  41.995  40.542  11.124
49154W        W21579   5.491  36.808  12.296
49155W        W21580  26.436   3.099  13.959
49156W        W21581  12.610  37.087   4.492
49157W        W21582  44.469   2.945   4.140
49158W        W21583   6.396  16.488  10.678
49159W        W21584   3.218  15.729   2.826
49160W        W21585  20.514  15.925  14.349
49161W        W21586   7.991  12.785   3.418
49162W        W21587  36.183  35.383  10.796
49163W        W21588  30.329   9.138   2.616
49164W        W21589  40.962  34.705  12.278
49165W        W21590   8.874   2.811   3.889
49166W        W21591  39.502  17.335   2.896
49167W        W21592   6.744  30.919  13.314
49168W        W21593  20.657  10.800   9.604
49169W        W21594  34.910  19.724  11.665
49170W        W21595   5.485  23.216   3.358
49171W        W21596  22.758  34.185   3.717
49172W        W21597  41.522   9.443  10.685
49173W        W21598  38.933  15.788   2.321
49174W        W21599  42.402   2.400  14.932
49175W        W21600  22.956   6.235  11.501
49176W        W21601   1.880  11.194   1.181
49177W        W21602  22.503   2.732   0.736
49178W        W21603   5.937  16.323  14.579
49179W        W21604   8.356  15.066   1.722
49180W        W21605   8.004  17.455  14.217
49181W        W21606  12.716   4.612  12.271
49182W        W21607  16.357  21.063   1.805
49183W        W21608  37.726  34.603   2.647
49184W        W21609  19.458  13.660  11.670
49185W        W21610  37.553  34.621   2.165
49186W        W21611  35.015  25.718   4.861
49187W        W21612  44.839   1.052   1.384
49188W        W21613  28.007  14.928  14.487
49189W        W21614  39.484   8.330  10.767
49190W        W21615  22.108  11.155   1.869
49191W        W21616   7.735  22.177  13.354
49192W        W21617  16.204   9.657  13.010
49193W        W21618   4.010  24.243  11.206
49194W        W21619   4.652  44.533   3.392
49195W        W21620  33.404   7.427   2.616
49196W        W21621  44.462  44.116  12.484
49197W        W21622  41.983  12.551  14.296
49198W        W21623  34.057  34.078  12.888
49199W        W21624  13.959  38.922  12.987
49200W        W21625  32.003  18.873   1.343
49201W        W21626  23.207   1.614   0.783
49202W        W21627  40.622  37.011  14.859
49203W        W21628  28.031  11.592   0.752
49204W        W21629  37.265   3.710  13.037
49205W        W21630  19.665  28.284  14.386
49206W        W21631  27.275   7.943  11.304
49207W        W21632  20.141  11.165   2.847
49208W        W21633   5.887  19.676  11.955
49209W        W21634  18.333  38.702   0.518
49210W        W21635  43.267  30.599  12.939
49211W        W21636  10.669  20.810  11.045
49212W        W21637  27.869   4.021   2.509
49213W        W21638  26.646   7.859   1.297
49214W        W21639   0.050  24.981   0.774
49215W        W21640  40.726   7.210  10.712
49216W        W21641  39.354  14.950   4.637
49217W        W21642   2.300   5.823   3.672
49218W        W21643  37.910   5.090   1.278
49219W        W21644  27.179  27.676  13.857
49220W        W21645  34.433  37.009   2.378
49221W        W21646  40.982  43.379   1.772
49222W        W21647  33.854  25.177  11.570
49223W        W21648   6.258  16.384   0.199
49224W        W21649  28.623  33.688   2.318
49225W        W21650  41.308  22.589   5.523
49226W        W21651  31.961  43.420  14.122
49227W        W21652  18.029  16.028  11.646
49228W        W21653  34.645  21.568  11.135
49229W        W21654  33.828  26.999   1.869
49230W        W21655  43.292   6.865   0.943
49231W        W21656  23.098   5.956  13.354
49232W        W21657  15.003  19.614  12.581
49233W        W21658  16.071  11.344  12.943
49234W        W21659  12.179  27.086   3.672
49235W        W21660  38.690  38.541  11.546
49236W        W21661   6.744  37.219   1.148
49237W        W21662  24.143  14.981  13.427
49238W        W21663  18.090   4.879   2.174
49239W        W21664   8.304  25.424   3.340
49240W        W21665  37.396   2.970  14.493
49241W        W21666  37.022   0.065  11.069
49242W        W21667  35.895  33.154  11.066
49243W        W21668  22.690  43.319   0.817
49244W        W21669  26.413   9.244  11.950
49245W        W21670  33.402  19.997   3.660
49246W        W21671  10.840  20.009  10.512
49247W        W21672  11.734  41.024  10.837
49248W        W21673  15.246  12.777   4.443
49249W        W21674  18.266  39.250  11.665
49250W        W21675  40.717  26.660   2.500
49251W        W21676  35.666  24.374  12.154
49252W        W21677  41.827  21.498  10.730
49253W        W21678  34.947  15.049  14.279
49254W        W21679  29.587  16.148   0.772
49255W        W21680  35.075  39.429  12.924
49256W        W21681   2.696   4.786   3.132
49257W        W21682   8.718   1.436   3.089
49258W        W21683  25.714  38.547  13.643
49259W        W21684  14.603  13.838   1.248
49260W        W21685  30.724  13.485   0.427
49261W        W21686   3.333   9.660  12.818
49262W        W21687  14.662  41.952  14.561
49263W        W21688  17.472  31.807   2.460
49264W        W21689   4.895  15.327   2.826
49265W        W21690  12.825  26.256   0.784
49266W        W21691  13.806   5.892   4.215
49267W        W21692  10.793   4.736   4.210
49268W        W21693  28.960  33.417  14.728
49269W        W21694  44.179  20.208  10.567
49270W        W21695  24.660  36.459   0.299
49271W        W21696  30.901  42.959   5.216
49272W        W21697  13.387  13.143   4.096
49273W        W21698  13.809  28.622  14.120
49274W        W21699   7.385  11.672  12.950
49275W        W21700  44.211  39.951   3.903
49276W        W21701  24.035  33.401   0.478
49277W        W21702  21.513  32.528   2.318
49278W        W21703  19.614  19.605   0.799
49279W        W21704  39.967  43.601  14.388
49280W        W21705  43.086  37.677  12.003
49281W        W21706  11.627   7.337   0.502
49282W        W21707  25.517  21.657   2.412
49283W        W21708   9.764  34.424   4.656
49284W        W21709  39.963  14.229   0.304
49285W        W21710  28.055   1.003   5.301
49286W        W21711  42.744  37.427  14.025
49287W        W21712  23.673  12.993  13.700
49288W        W21713  29.381  17.122   4.528
49289W        W21714  15.682  41.924  14.730
49290W        W21715   2.729  36.417  11.791
49291W        W21716  44.673  38.512   4.671
49292W        W21717  19.927  24.998   3.678
49293W        W21718  28.691  21.013  11.477
49294W        W21719  32.116   6.441   3.238
49295W        W21720  10.168  39.733  11.645
49296W        W21721  40.967   3.559   0.285
49297W        W21722   7.282  11.146   3.506
49298W        W21723  44.285   9.695  13.013
49299W        W21724  26.164  31.193  13.466
49300W        W21725  17.466   8.150   4.805
49301W        W21726  17.056  33.052  13.079
49302W        W21727  16.549  43.934  11.333
49303W        W21728  21.981  34.347  14.716
49304W        W21729  13.523  26.568  11.833
49305W        W21730   4.738  12.052  10.668
49306W        W21731  40.980  38.853   1.705
49307W        W21732   3.701  38.136  11.199
49308W        W21733  33.990  25.301  14.949
49309W        W21734  26.003  17.105  13.062
49310W        W21735  33.922  15.999   4.173
49311W        W21736  10.191  28.830   4.012
49312W        W21737  10.104  42.150   3.127
49313W        W21738  41.338   2.186  12.133
49314W        W21739   0.488  21.616   1.548
49315W        W21740   9.962  17.403  14.501
49316W        W21741  19.761  40.323  14.809
49317W        W21742  18.738  28.498  11.143
49318W        W21743  29.075  30.581  10.395
49319W        W21744  37.847   1.941  12.494
49320W        W21745  35.425  26.825   0.241
49321W        W21746  17.299  42.474  13.015
49322W        W21747  30.933  23.721  11.377
49323W        W21748  19.129  37.648   0.796
49324W        W21749  42.524  29.488  14.327
49325W        W21750  19.541  16.516  11.175
49326W        W21751  12.302  33.565  12.274
49327W        W21752  34.897  23.020   1.859
49328W        W21753  38.714   6.802   2.843
49329W        W21754  23.357  40.548  14.547
49330W        W21755  33.413  42.814  10.002
49331W        W21756  39.952  25.991   3.183
49332W        W21757  37.089   1.239   1.414
49333W        W21758   1.745  43.951  13.977
49334W        W21759  40.934   9.345   3.584
49335W        W21760   8.711   7.792  14.508
49336W        W21761  39.656  42.144  14.511
49337W        W21762  20.477  20.112  13.015
49338W        W21763  22.023  23.614   1.706
49339W        W21764  23.559  28.666  12.048
49340W        W21765  25.766  38.485   4.145
49341W        W21766  28.056  36.435   2.934
49342W        W21767  25.091   5.165  12.515
49343W        W21768  16.251  36.795  14.333
49344W        W21769   0.792  17.259  13.332
49345W        W21770  11.730  11.412  13.944
49346W        W21771  33.483  39.365   2.051
49347W        W21772   2.889  41.774  13.761
49348W        W21773   7.154  39.881   2.725
49349W        W21774  10.620  21.788   0.361
49350W        W21775   6.687   3.925  13.437
49351W        W21776  26.981  25.716  11.643
49352W        W21777   3.449  15.263   2.914
49353W        W21778   2.102   1.822   4.560
49354W        W21779  29.563  32.378   2.571
49355W        W21780  39.925  37.772   3.277
49356W        W21781   6.368   9.604   0.447
49357W        W21782  19.802  16.221  10.843
49358W        W21783  34.447  20.157   1.812
49359W        W21784  36.135  27.445  11.553
49360W        W21785  24.633  22.722   4.234
49361W        W21786  30.404  20.151  10.538
49362W        W21787  19.579  19.146  12.722
49363W        W21788  44.215  38.938  13.781
49364W        W21789  28.758  27.513   1.926
49365W        W21790   0.817  34.723   4.575
49366W        W21791  28.060  20.718  12.618
49367W        W21792   2.925  39.474  11.570
49368W        W21793  41.701  13.801   4.919
49369W        W21794  31.246   8.296   3.421
49370W        W21795  35.012  21.277   0.376
49371W        W21796  22.756  27.662   4.649
49372W        W21797  35.098  40.123   1.707
49373W        W21798  18.879  38.820  10.331
49374W        W21799   8.703  20.482   0.832
49375W        W21800   2.876  10.555  10.998
49376W        W21801  20.320  20.096  14.729
49377W        W21802  24.562  26.662  14.708
49378W        W21803   2.839  13.858   4.035
49379W        W21804  24.554  17.333  13.515
49380W        W21805  37.267   8.548  13.110
49381W        W21806  10.631  41.056  14.470
49382W        W21807  39.950   2.435   3.192
49383W        W21808  21.995  32.902   2.777
49384W        W21809   7.430   1.520  12.004
49385W        W21810   5.876  24.423   0.761
49386W        W21811  38.444  13.619   3.368
49387W        W21812  26.934   3.888  14.901
49388W        W21813  26.233  34.603   4.613
49389W        W21814  19.165  33.539  14.159
49390W        W21815   4.115  31.200  13.924
49391W        W21816  24.615   0.299  11.027
49392W        W21817  26.844  29.990  14.977
49393W        W21818   6.425  39.708   2.094
49394W        W21819  36.942  20.127   4.768
49395W        W21820   0.253  32.945   3.395
49396W        W21821   6.678  17.344  12.875
49397W        W21822  10.919  39.319  11.106
49398W        W21823  28.676  34.464  13.341
49399W        W21824  19.694   7.955  12.938
49400W        W21825  43.006  23.767  13.546
49401W        W21826   8.568  21.012   3.693
49402W        W21827  42.834  12.268  13.192
49403W        W21828  32.282  26.342   3.431
49404W        W21829  33.595  36.344   2.315
49405W        W21830   4.523  34.951   1.608
49406W        W21831   9.951   4.280  13.356
49407W        W21832  19.225  20.252   4.128
49408W        W21833  42.558  16.737   3.976
49409W        W21834  34.851   7.780  13.188
49410W        W21835  44.436  11.148  13.237
49411W        W21836  40.652  20.718   4.428
49412W        W21837   9.802  35.848   1.353
49413W        W21838  14.585  25.160  12.803
49414W        W21839  24.493  26.652  12.970
49415W        W21840   7.600  23.575   4.707
49416W        W21841  15.288  33.518   4.597
49417W        W21842  25.678  27.868   4.361
49418W        W21843  17.372   8.206  14.557
49419W        W21844   2.813  36.716   3.672
49420W        W21845  11.623  33.487  11.599
49421W        W21846  14.749  23.767   2.102
49422W        W21847  17.087  18.982   4.628
49423W        W21848   2.719   8.612  10.083
49424W        W21849  25.429   4.988  14.367
49425W        W21850  25.039   8.201   0.732
49426W        W21851   7.424  44.336   3.937
49427W        W21852  12.462   1.673   2.232
49428W        W21853  23.327  28.352   2.625
49429W        W21854   9.462   4.414   2.321
49430W        W21855   1.034  39.129   3.700
49431W        W21856  22.064  36.650  13.446
49432W        W21857  32.008  37.864   2.577
49433W        W21858  29.129   1.748   3.173
49434W        W21859  29.607  17.323   3.636
49435W        W21860  35.958   4.881  10.735
49436W        W21861  37.881  14.803   4.318
49437W        W21862  43.506  19.609   0.012
49438W        W21863  37.926  12.445   4.732
49439W        W21864  21.713  24.690   3.918
49440W        W21865  11.593   8.147  12.836
49441W        W21866  36.445   9.743  10.266
49442W        W21867  14.765   0.005  14.349
49443W        W21868   4.235  34.921  13.971
49444W        W21869  23.766  10.196   3.809
49445W        W21870   6.720   4.655  14.278
49446W        W21871   9.133   7.260   1.735
49447W        W21872   9.492   1.697  14.712
49448W        W21873  24.075  11.186   0.407
49449W        W21874  40.125   1.721  11.215
49450W        W21875   9.342  11.523   3.167
49451W        W21876  29.511  32.353  14.784
49452W        W21877  29.402   0.363   4.603
49453W        W21878  34.179  41.368  13.919
49454W        W21879  39.879  27.602  14.496
49455W        W21880   2.490  25.978  12.585
49456W        W21881  18.680  32.456   1.380
49457W        W21882  21.663  19.472   0.400
49458W        W21883  38.306  25.019  11.583
49459W        W21884  17.357  39.480  14.197
49460W        W21885  10.772  40.610   0.608
49461W        W21886  15.359  14.599   1.918
49462W        W21887   3.723  16.356  14.911
49463W        W21888  13.851   9.867   2.871
49464W        W21889  42.484  29.899   2.043
49465W        W21890   7.251  44.748  13.533
49466W        W21891   2.168  23.204   3.213
49467W        W21892  32.424  24.105   1.999
49468W        W21893   0.833   1.376   1.657
49469W        W21894   4.983  40.017  13.116
49470W        W21895  30.454  31.365  10.701
49471W        W21896  42.046  14.687  11.934
49472W        W21897  18.139  23.194  10.429
49473W        W21898   4.569  38.286   2.602
49474W        W21899  10.709  44.502  13.557
49475W        W21900  24.537  33.405  13.034
49476W        W21901  34.557  13.808   1.620
49477W        W21902  34.338  43.913  14.770
49478W        W21903  26.147  41.267   4.404
49479W        W21904  44.724  23.456   4.240
49480W        W21905  20.143  28.579  11.130
49481W        W21906   1.919   7.468  14.891
49482W        W21907  44.835  42.255  11.068
49483W        W21908  27.002  38.559   1.961
49484W        W21909   8.676  36.402   1.375
49485W        W21910  22.501  36.480  12.494
49486W        W21911  29.677   5.701  12.464
49487W        W21912  16.620  20.581  14.365
49488W        W21913  22.212   5.977   4.378
49489W        W21914  29.275  23.719   5.149
49490W        W21915  32.718   7.047   1.352
49491W        W21916  27.107  44.052  10.546
49492W        W21917  26.642  31.670   0.459
49493W        W21918  33.458  33.426  12.965
49494W        W21919  31.458  39.518  12.893
49495W        W21920   8.236  28.902  11.551
49496W        W21921  25.939  20.670   3.760
49497W        W21922  26.343  12.578  10.230
49498W        W21923  44.462   9.201   4.113
49499W        W21924  32.130   7.504  12.074
49500W        W21925  22.615  25.140  13.142
49501W        W21926   7.481  34.938   0.606
49502W        W21927  25.796  43.435   1.686
49503W        W21928  21.020   4.773   2.286
49504W        W21929  24.505  31.494   1.763
49505W        W21930  18.330  22.438  11.517
49506W        W21931  30.020  27.134  14.593
49507W        W21932   4.406  18.564   2.373
49508W        W21933  44.247  11.463  12.340
49509W        W21934   3.030  20.180   0.875
49510W        W21935  21.226  27.922   4.594
49511W        W21936   0.853  35.103   1.232
49512W        W21937   4.533  10.525  13.297
49513W        W21938  21.769  36.840   3.729
49514W        W21939  15.180  16.040  12.926
49515W        W21940  42.839  19.140   0.214
49516W        W21941   8.684  41.370  13.411
49517W        W21942  31.937  26.899  12.265
49518W        W21943  30.681   5.707  12.044
49519W        W21944   2.712  14.901  14.260
49520W        W21945  39.644   3.786   1.945
49521W        W21946   8.073  25.007  14.434
49522W        W21947  41.701   3.851  11.937
49523W        W21948  19.543  28.389   3.183
49524W        W21949  36.334  35.632   4.725
49525W        W21950  40.557  27.933   3.196
49526W        W21951  42.672  12.283  13.674
49527W        W21952  35.580  24.755  13.496
49528W        W21953  41.907  37.837  12.993
49529W        W21954  36.848  25.120   2.203
49530W        W21955  44.220  13.983  11.216
49531W        W21956  26.789  10.699   3.768
49532W        W21957  19.154  15.342  11.040
49533W        W21958  15.157  24.976   4.076
49534W        W21959   3.811  17.157   2.243
49535W        W21960   7.975  20.084   3.276
49536W        W21961  16.222   4.649   4.081
49537W        W21962  29.907  23.099  12.861
49538W        W21963  20.640  41.420   0.751
49539W        W21964  27.143  17.914   1.453
49540W        W21965  11.239  37.359   1.485
49541W        W21966  43.763   6.404  11.023
49542W        W21967   8.942   2.932  14.017
49543W        W21968  23.212   2.333   4.344
49544W        W21969  30.562  27.193  11.429
49545W        W21970  10.599  12.804  10.413
49546W        W21971  28.935  41.390  11.238
49547W        W21972  22.623  43.129  13.513
49548W        W21973  39.826   2.544   2.445
49549W        W21974  26.539  26.701  12.324
49550W        W21975   6.322  38.537  14.423
49551W        W21976   8.696   7.283   2.174
49552W        W21977  29.075  39.092  10.936
49553W        W21978  33.862  33.506   2.208
49554W        W21979  39.414  14.589  13.544
49555W        W21980  22.110  11.562  10.264
49556W        W21981   9.061   4.598  13.806
49557W        W21982  33.181   1.321   1.359
49558W        W21983  17.093  25.744  12.462
49559W        W21984  21.579  39.279  12.136
49560W        W21985   1.880   1.745  12.372
49561W        W21986   9.291  29.010   2.937
49562W        W21987  22.700  26.165   3.271
49563W        W21988  40.838  26.670  13.864
49564W        W21989  23.793  22.780   3.613
49565W        W21990  42.489  43.948   0.829
49566W        W21991  22.034   0.681   4.409
49567W        W21992  11.137  40.398   1.725
49568W        W21993  19.665  40.436  11.628
49569W        W21994  26.705  40.541   1.350
49570W        W21995  26.717  35.586   1.374
49571W        W21996  15.766  30.014   2.113
49572W        W21997  13.173   7.339  13.398
49573W        W21998   8.604  24.120   2.400
49574W        W21999   3.194   2.830  12.302
49575W        W22000   2.977   6.128   0.986
49576W        W22001  34.512   6.632  14.970
49577W        W22002  31.846   1.372  12.597
49578W        W22003  27.540  37.868   3.126
49579W        W22004   1.190  36.113   4.630
49580W        W22005  19.682  12.694   2.610
49581W        W22006  42.755  21.170   0.998
49582W        W22007  24.664  39.477   0.452
49583W        W22008  22.968   6.990   2.283
49584W        W22009  30.684  12.615  14.413
49585W        W22010  28.406  23.213   3.757
49586W        W22011   0.603  25.643  12.921
49587W        W22012  40.368  17.714  13.395
49588W        W22013  15.411  34.356  13.026
49589W        W22014  25.592  26.964  11.074
49590W        W22015  39.529  29.913   3.682
49591W        W22016  19.129  23.996   3.034
49592W        W22017  38.332  29.763   2.638
49593W        W22018  34.694  34.006  10.824
49594W        W22019  41.378   2.468   0.779
49595W        W22020  35.136  22.102   3.195
49596W        W22021  28.622  39.409   2.352
49597W        W22022   1.368  11.839   0.868
49598W        W22023  43.462  32.146   2.916
49599W        W22024  23.620   7.832  13.180
49600W        W22025   8.151  25.942   2.130
49601W        W22026  42.520  41.854   4.624
49602W        W22027   7.951  34.223  10.286
49603W        W22028   9.087  32.562  11.636
49604W        W22029  40.929  14.717   2.129
49605W        W22030  33.589  25.006   2.383
49606W        W22031  30.945   5.392  14.082
49607W        W22032  34.098  41.408  12.428
49608W        W22033  42.243   1.852   0.830
49609W        W22034  19.285  39.287   2.182
49610W        W22035  30.125  12.604  13.103
49611W        W22036   9.415  21.258   3.357
49612W        W22037   8.952  40.061  13.082
49613W        W22038  37.942  21.172  14.885
49614W        W22039  30.449  36.104  12.506
49615W        W22040  10.835  44.531   0.778
49616W        W22041  22.163  34.880  12.077
49617W        W22042   3.543   8.568  11.499
49618W        W22043  15.202  38.889   0.874
49619W        W22044  44.103   1.557  10.485
49620W        W22045   3.939   3.878  14.242
49621W        W22046  24.865  43.440   0.634
49622W        W22047  41.262  11.931   3.282
49623W        W22048   2.305  37.823   4.274
49624W        W22049  39.991  11.355   3.639
49625W        W22050   3.699  32.889  12.412
49626W        W22051  30.698  23.998   4.054
49627W        W22052  13.629   3.173  14.816
49628W        W22053  42.537  22.527   0.807
49629W        W22054  19.697  31.060  14.459
49630W        W22055  41.221  42.821  12.128
49631W        W22056  30.654   5.294   0.035
49632W        W22057  16.051  25.112  11.895
49633W        W22058  38.064  24.446   0.490
49634W        W22059   0.377  41.297   0.768
49635W        W22060   2.271  11.596  13.526
49636W        W22061  12.581   1.920  13.789
49637W        W22062  22.427  37.912   1.963
49638W        W22063  28.909  32.965  14.974
49639W        W22064  43.103  18.596  11.987
49640W        W22065  20.927  39.808   1.755
49641W        W22066  42.874  28.967   1.245
49642W        W22067  32.561  14.681   4.938
49643W        W22068  32.163  36.095  14.047
49644W        W22069  37.472  39.045  14.628
49645W        W22070  25.727  15.627   2.316
49646W        W22071  26.978  21.547  14.261
49647W        W22072  39.861  26.413  12.531
49648W        W22073  33.358  11.861   2.277
49649W        W22074  20.751  33.589  12.918
49650W        W22075  16.793   4.539  14.297
49651W        W22076  40.336  17.559  11.032
49652W        W22077   3.524  19.228   3.861
49653W        W22078  27.496   1.027  14.270
49654W        W22079  40.063  23.053  12.565
49655W        W22080   9.181  33.806   4.595
49656W        W22081  38.015   6.940  10.579
49657W        W22082   8.458  26.158  11.683
49658W        W22083   0.434   3.229   0.503
49659W        W22084  28.120  44.059   1.192
49660W        W22085   7.424  24.067   3.059
49661W        W22086  44.985  20.081  11.958
49662W        W22087   7.614   0.952  14.822
49663W        W22088   5.918  41.504   3.477
49664W        W22089  34.091  35.099   4.220
49665W        W22090  32.651   6.758  10.970
49666W        W22091   3.232  29.073  13.849
49667W        W22092  25.672  36.673  12.069
49668W        W22093  29.719   5.249   4.648
49669W        W22094   5.853  37.905  14.837
49670W        W22095  11.698  19.677   2.661
49671W        W22096  22.571  10.226   1.486
49672W        W22097  42.997   9.411  11.619
49673W        W22098  27.952  42.505   0.127
49674W        W22099  25.466  20.096   3.459
49675W        W22100  24.932  29.026   0.246
49676W        W22101  40.257  37.832   0.456
49677W        W22102  31.013  31.848  10.652
49678W        W22103  36.674  19.057  14.789
49679W        W22104  13.894   0.244  14.833
49680W        W22105  24.473  19.312   3.772
49681W        W22106  41.294  12.176   1.284
49682W        W22107  43.682  15.657  13.729
49683W        W22108   1.185   9.625  14.481
49684W        W22109  44.263  24.630   4.472
49685W        W22110  35.611  34.791   2.686
49686W        W22111  27.926  26.777  13.367
49687W        W22112  29.974  41.112   5.122
49688W        W22113  14.342  23.228   1.871
49689W        W22114  36.722   1.115  12.459
49690W        W22115  25.565  35.114   4.637
49691W        W22116  14.119  40.340   3.284
49692W        W22117  18.911  42.627   1.837
49693W        W22118   4.511  38.429  14.051
49694W        W22119  30.624  28.472   2.325
49695W        W22120  43.939   5.819   3.617
49696W        W22121  31.518  42.172   0.210
49697W        W22122  41.567  22.606   1.844
49698W        W22123  15.875   6.381   0.443
49699W        W22124  17.820  38.895  11.952
49700W        W22125  26.846  40.494   1.877
49701W        W22126  33.163   8.871   0.480
49702W        W22127  42.905   8.690   0.715
49703W        W22128   6.686  18.837   4.107
49704W        W22129  35.252  27.649   4.565
49705W        W22130  31.434  38.378  11.985
49706W        W22131  42.889  10.222   2.948
49707W        W22132  33.629  23.469   0.333
49708W        W22133   6.048  40.213   3.815
49709W        W22134   2.737  35.896   0.782
49710W        W22135  41.450   9.291   2.434
49711W        W22136  24.485  19.988   3.269
49712W        W22137  12.709  39.885  13.940
49713W        W22138  10.170  20.078   5.067
49714W        W22139  16.670  25.046  12.728
49715W        W22140  14.370  24.160  12.437
49716W        W22141  13.519  39.891  13.359
49717W        W22142  13.584  11.434   3.728
49718W        W22143  26.228  41.499   2.821
49719W        W22144  12.262  15.023  12.243
49720W        W22145  37.750  20.728   2.418
49721W        W22146   3.070   0.413  11.127
49722W        W22147  33.183  16.524   4.206
49723W        W22148   1.452  14.147  12.585
49724W        W22149  23.744  44.862  11.550
49725W        W22150  25.082  40.015   2.755
49726W        W22151   2.931  23.217  14.118
49727W        W22152  16.625   8.259   0.860
49728W        W22153  16.189  32.944  13.530
49729W        W22154  26.012   7.552  11.183
49730W        W22155  38.914  35.347   4.193
49731W        W22156  43.734  13.721   0.923
49732W        W22157   2.781  42.221  13.204
49733W        W22158   2.577  35.456  11.493
49734W        W22159   4.312  15.607   1.360
49735W        W22160  13.123  38.968   0.674
49736W        W22161  31.783   7.846  12.032
49737W        W22162  25.508   9.832   3.572
49738W        W22163  37.507   0.318   3.320
49739W        W22164  18.111  28.698  11.656
49740W        W22165  26.446  40.440   2.245
49741W        W22166  42.775  10.659   0.238
49742W        W22167   4.281   0.667  11.333
49743W        W22168  40.558  32.373   4.419
49744W        W22169  37.381   3.721   4.633
49745W        W22170  14.152  13.185   0.476
49746W        W22171  32.991   0.703   0.935
49747W        W22172  11.935  25.737   2.357
49748W        W22173  18.049  11.065  14.856
49749W        W22174   3.279   2.825   0.521
49750W        W22175  18.501  23.599   4.107
49751W        W22176   3.418  43.715  14.303
49752W        W22177  39.830  25.678   2.302
49753W        W22178  38.557  27.576   2.832
49754W        W22179  38.286  26.639  13.814
49755W        W22180   7.654  26.921   1.224
49756W        W22181  19.575   5.814   3.936
49757W        W22182   0.205   3.959   1.751
49758W        W22183  25.158   3.297  13.556
49759W        W22184   8.178  19.284  10.604
49760W        W22185  22.255  31.897   1.317
49761W        W22186   9.493  39.753  11.981
49762W        W22187   9.209   7.529  14.790
49763W        W22188  36.949  44.288  11.583
49764W        W22189  12.452  44.915   1.952
49765W        W22190  40.407   1.794   2.280
49766W        W22191  26.082  33.895  11.160
49767W        W22192  39.765  14.888  12.466
49768W        W22193  38.529  24.657   1.894
49769W        W22194  10.227  26.545   3.186
49770W        W22195   0.833  43.165   4.913
49771W        W22196  30.567  31.007  12.057
49772W        W22197  17.797  41.998   2.069
49773W        W22198  31.323  29.572  14.424
49774W        W22199  19.198   0.540   1.962
49775W        W22200  31.441  31.870  12.424
49776W        W22201  37.827  34.480   4.019
49777W        W22202  12.409   9.909   2.707
49778W        W22203  15.093  11.819  14.616
49779W        W22204  39.011  34.832   2.757
49780W        W22205  29.059   7.787   0.593
49781W        W22206  10.276  39.469   2.572
49782W        W22207   2.861   0.348   0.225
49783W        W22208  44.421  18.823  12.339
49784W        W22209   6.158  17.067  11.428
49785W        W22210  12.252  10.233   0.351
49786W        W22211  14.193   5.372  13.600
49787W        W22212  23.000  25.993  13.967
49788W        W22213  14.333  30.006   3.058
49789W        W22214  40.482  33.813  14.126
49790W        W22215   6.706  38.493   0.631
49791W        W22216  26.717  33.339  14.323
49792W        W22217  21.414  12.499  13.042
49793W        W22218   2.774  17.575  12.480
49794W        W22219  29.535  27.413   3.294
49795W        W22220  34.646   7.901  10.734
49796W        W22221  42.710  14.751   2.069
49797W        W22222  26.582  40.043   1.092
49798W        W22223  40.527  22.567   3.127
49799W        W22224  13.373  28.097  13.420
49800W        W22225  21.781   2.146  11.768
49801W        W22226  29.283  21.542  14.943
49802W        W22227   9.696  15.984   3.257
49803W        W22228   5.706  21.159   1.891
49804W        W22229   5.244  16.273   0.727
49805W        W22230  18.085  12.149  10.440
49806W        W22231   3.895  15.821  11.042
49807W        W22232   0.185  38.444   0.868
49808W        W22233  14.821  18.682   1.841
49809W        W22234  30.420  16.159   4.130
49810W        W22235  34.980  15.877   0.400
49811W        W22236  17.872   3.173  13.801
49812W        W22237  18.467  34.043  11.126
49813W        W22238  26.976  10.448  12.508
49814W        W22239  18.580  20.716  11.410
49815W        W22240  13.183  41.023   0.787
49816W        W22241  41.693  19.946  12.885
49817W        W22242   5.917  19.085   3.090
49818W        W22243  37.214  17.326  11.566
49819W        W22244  42.248  33.211   2.226
49820W        W22245   6.222   1.317   0.411
49821W        W22246   0.967  36.460  14.293
49822W        W22247  39.365  33.564  12.971
49823W        W22248  34.527   4.951  10.944
49824W        W22249  41.162  39.906   3.118
49825W        W22250  10.225  26.979  10.657
49826W        W22251  29.460  36.107   1.886
49827W        W22252  30.036  19.737   4.430
49828W        W22253  34.838  16.152  12.493
49829W        W22254  31.118  15.370   3.795
49830W        W22255  13.203  26.659   1.291
49831W        W22256   1.356  36.823   4.141
49832W        W22257  21.061   3.703  12.815
49833W        W22258   2.089  31.410   3.221
49834W        W22259  10.020   8.456   0.447
49835W        W22260  18.026  36.058  12.634
49836W        W22261  24.536   0.452  12.990
49837W        W22262  12.366  17.376  13.303
49838W        W22263   6.279  31.833  11.194
49839W        W22264  43.107  10.549  14.829
49840W        W22265   0.531  32.388  12.088
49841W        W22266  12.691  29.896   1.669
49842W        W22267   1.315  37.941   2.889
49843W        W22268  16.581   4.225   1.230
49844W        W22269  30.635  33.765  14.173
49845W        W22270  31.706  43.423  11.984
49846W        W22271  43.612   1.414  11.554
49847W        W22272   2.995  40.283   2.851
49848W        W22273   0.060  11.181  11.576
49849W        W22274  23.295  12.695   3.202
49850W        W22275  42.312  21.218  10.689
49851W        W22276  31.626  29.856  11.181
49852W        W22277  39.446  23.301   2.646
49853W        W22278   6.418   3.323   3.286
49854W        W22279  22.117  44.439  13.811
49855W        W22280  13.743  29.895   4.686
49856W        W22281  12.158  19.258  12.907
49857W        W22282  26.559  11.654   1.563
49858W        W22283   4.797  13.448   3.203
49859W        W22284  36.118  44.745  13.441
49860W        W22285   3.492  10.314  12.135
49861W        W22286  22.601  27.176   4.525
49862W        W22287  17.139  24.381   3.115
49863W        W22288  31.455  20.033  11.637
49864W        W22289   7.711   4.102   4.393
49865W        W22290  28.939  20.204  10.984
49866W        W22291  40.303  28.852   1.867
49867W        W22292  28.459  37.548   3.352
49868W        W22293   0.028  37.090  12.920
49869W        W22294  35.493  41.901   3.309
49870W        W22295  18.127  17.617   4.605
49871W        W22296  23.836  16.252  12.092
49872W        W22297  13.684   4.994   4.687
49873W        W22298   8.896  43.033   0.881
49874W        W22299  23.497   3.359   1.379
49875W        W22300  38.434  16.743  13.936
49876W        W22301   1.879  16.671  11.960
49877W        W22302  18.713  37.959   2.963
49878W        W22303  23.561  23.511  12.084
49879W        W22304   2.198  25.987   1.347
49880W        W22305   2.269  14.643  13.505
49881W        W22306   8.251   7.739   4.430
49882W        W22307  32.470   6.247  10.889
49883W        W22308   2.018   5.298   2.310
49884W        W22309  11.333  37.435   2.890
49885W        W22310  15.141  44.138   1.113
49886W        W22311  12.758   3.225   0.045
49887W        W22312  24.525  13.789   3.153
49888W        W22313   2.763  28.186  12.675
49889W        W22314   6.755   6.849  14.534
49890W        W22315  26.765  28.551   3.901
49891W        W22316  33.868   7.870  14.508
49892W        W22317   2.875  34.045   0.273
49893W        W22318  32.412  11.446  10.633
49894W        W22319  22.178  38.471  11.786
49895W        W22320   9.924  22.372   1.494
49896W        W22321   3.347   2.729   3.757
49897W        W22322   4.608  29.489  14.485
49898W        W22323   2.519  32.002   1.727
49899W        W22324  23.030   3.897  11.424
49900W        W22325  23.406  13.707   4.719
49901W        W22326  24.671  29.478  12.140
49902W        W22327   2.807  39.804   3.665
49903W        W22328  27.231   4.676   2.287
49904W        W22329  19.665  23.184   1.457
49905W        W22330  36.325  42.923  11.888
49906W        W22331   0.804  35.354  14.866
49907W        W22332  31.639   3.673  12.461
49908W        W22333  36.761  27.773  12.133
49909W        W22334  12.597  23.563  14.236
49910W        W22335  40.288  26.813   1.666
49911W        W22336  18.060   0.733  12.122
49912W        W22337  14.725   3.027  10.837
49913W        W22338  33.463   3.309   3.199
49914W        W22339  43.261   6.442  12.506
49915W        W22340  25.163  44.601   3.773
49916W        W22341  18.629  32.550   1.905
49917W        W22342  41.560  13.854  13.343
49918W        W22343  34.090   3.967   3.559
49919W        W22344  37.476  25.914  10.971
49920W        W22345  18.496  36.710   0.421
49921W        W22346  43.990  37.424   2.667
49922W        W22347   1.978  38.211   2.813
49923W        W22348  12.880  30.504  13.447
49924W        W22349  17.720  22.341  14.867
49925W        W22350  41.929  17.693  14.077
49926W        W22351  42.545  18.278   2.552
49927W        W22352  10.494  15.786   0.455
49928W        W22353  22.266  26.349  12.310
49929W        W22354  39.478   5.602  14.998
49930W        W22355  23.211   8.604  13.779
49931W        W22356  14.150  26.558  13.073
49932W        W22357   9.414   4.424   4.206
49933W        W22358  32.383  19.140  12.947
49934W        W22359  29.741  14.152  10.879
49935W        W22360   9.402  14.083  13.457
49936W        W22361  21.213  12.346  13.492
49937W        W22362   2.212  38.765   3.283
49938W        W22363  39.645  43.286   0.537
49939W        W22364  16.790  16.628  14.282
49940W        W22365  44.384  18.092   1.263
49941W        W22366   0.831  32.624   2.675
49942W        W22367  38.452   6.242   5.161
49943W        W22368  13.235  37.267  14.492
49944W        W22369  33.765   8.957  13.199
49945W        W22370   3.188  35.518  10.606
49946W        W22371   8.858  13.421  12.547
49947W        W22372   8.363  38.869   2.765
49948W        W22373  29.576   6.147   3.224
49949W        W22374   0.901  32.643  13.103
49950W        W22375   6.163  19.685  14.400
49951W        W22376   5.940  22.383   2.266
49952W        W22377  44.427   6.240  12.506
49953W        W22378   7.486  10.896  13.511
49954W        W22379   6.084  22.875  10.971
49955W        W22380  28.189  20.367  10.620
49956W        W22381  34.017  18.413   0.144
49957W        W22382  14.375  26.677   4.081
49958W        W22383   9.833  35.539  13.307
49959W        W22384  18.099   8.869   2.650
49960W        W22385  16.976  37.515   9.836
49961W        W22386   9.902  20.340  12.603
49962W        W22387  39.409  15.754   0.181
49963W        W22388  39.995  26.574  12.015
49964W        W22389  33.340   7.728  14.442
49965W        W22390  20.239  13.831  11.271
49966W        W22391  40.488  30.857   0.688
49967W        W22392   9.206  10.431   2.627
49968W        W22393  25.056   3.815  11.560
49969W        W22394   9.382  27.697  13.976
49970W        W22395  32.527  42.045  12.583
49971W        W22396  13.611   8.604   1.441
49972W        W22397  22.151  38.516  14.299
49973W        W22398  35.660  36.441   1.462
49974W        W22399  18.210  44.832  11.649
49975W        W22400  44.359   5.764  12.672
49976W        W22401  21.530  35.732   2.262
49977W        W22402   7.301  38.367  12.462
49978W        W22403  39.392  28.919  10.262
49979W        W22404  10.068  12.539  12.033
49980W        W22405  31.172  43.371  11.097
49981W        W22406  24.870  39.038   1.874
49982W        W22407  41.061  25.617   0.491
49983W        W22408  13.891   0.361   5.391
49984W        W22409   4.221  37.531  13.314
49985W        W22410  23.479   8.645   2.194
49986W        W22411  31.249  42.550  11.250
49987W        W22412  43.065  25.957  11.957
49988W        W22413  39.010  30.137  11.967
49989W        W22414  15.808  38.580  13.672
49990W        W22415  41.584   2.755  13.030
49991W        W22416  14.333  20.750  10.452
49992W        W22417  41.123   2.398  11.626
49993W        W22418  20.589   4.800   0.452
49994W        W22419  37.993  21.870  12.473
49995W        W22420   2.974  21.659  11.974
49996W        W22421  16.272   0.024   2.225
49997W        W22422  16.621  26.592  10.731
49998W        W22423  41.090  44.031  11.649
49999W        W22424  29.894   2.036  14.902
50000W        W22425  41.510  31.659  10.843
50001W        W22426  27.272   5.395   4.002
50002W        W22427  14.126   9.894   4.608
50003W        W22428  18.684  19.643  13.721
50004W        W22429  37.282  12.383   2.885
50005W        W22430  43.916   5.038   0.122
50006W        W22431   8.966  43.335   1.812
50007W        W22432   2.449  35.479  13.473
50008W        W22433   9.815   3.563   4.200
50009W        W22434  13.625   0.699  14.892
50010W        W22435  11.763  15.422  13.449
50011W        W22436  22.014  12.413  10.630
50012W        W22437  35.402  32.416  13.752
50013W        W22438  21.980  21.454   4.245
50014W        W22439  28.591  24.460  14.421
50015W        W22440  36.621  36.198  10.689
50016W        W22441  29.056  31.817  13.100
50017W        W22442  22.021  40.636  13.414
50018W        W22443   9.261  22.552   0.399
50019W        W22444  26.595  32.308   3.697
50020W        W22445  37.353   7.205  11.056
50021W        W22446  18.815  25.097  14.520
50022W        W22447  24.612  11.755   3.800
50023W        W22448   9.764   9.702  12.379
50024W        W22449  25.858  23.964  11.951
50025W        W22450  16.609   5.263   3.828
50026W        W22451  12.668  13.023  14.775
50027W        W22452  23.618  25.919   3.710
50028W        W22453  11.409  16.949  12.169
50029W        W22454  43.209  37.959  13.237
50030W        W22455   9.716  14.684  12.762
50031W        W22456   5.396  41.025  12.333
50032W        W22457  15.550  33.772  12.928
50033W        W22458  36.391  33.387   1.370
50034W        W22459  30.994  10.289  13.423
50035W        W22460  20.442  43.984  13.464
50036W        W22461  20.855  36.788   4.963
50037W        W22462  43.292  35.829  12.036
50038W        W22463   4.147  14.760   2.656
50039W        W22464   4.825  33.651  10.747
50040W        W22465   5.802  36.520  13.230
50041W        W22466   8.769  36.827   3.139
50042W        W22467  17.298   1.347  14.300
50043W        W22468  34.023  32.700   2.477
50044W        W22469   3.515  35.875  14.901
50045W        W22470  24.592  24.081   2.342
50046W        W22471  36.087  29.625   2.269
50047W        W22472   1.485   6.070  13.208
50048W        W22473  19.763  30.064  13.380
50049W        W22474  16.117  30.085   1.193
50050W        W22475  31.383  27.157  13.415
50051W        W22476  31.066  39.612  11.934
50052W        W22477  42.742  33.521   3.581
50053W        W22478  19.171  13.331  14.270
50054W        W22479  31.114   3.396  14.074
50055W        W22480  29.909  42.951   4.651
50056W        W22481   6.180  20.095  13.254
50057W        W22482  23.949  33.880   1.459
50058W        W22483  36.559  25.684   2.148
50059W        W22484   2.774  27.539  13.299
50060W        W22485  16.061  41.541   3.193
50061W        W22486  29.370  17.080   1.468
50062W        W22487  30.818   7.315  14.351
50063W        W22488  22.639  10.087  12.377
50064W        W22489  22.390   0.950   3.683
50065W        W22490  24.235  37.488  12.064
50066W        W22491   4.995   1.367   1.436
50067W        W22492  32.000   5.966   2.457
50068W        W22493  27.704   3.156  14.030
50069W        W22494  35.939  25.270  12.975
50070W        W22495  17.177  42.575   0.483
50071W        W22496  34.498  13.078   0.743
50072W        W22497  13.882  21.144   2.226
50073W        W22498  27.932  12.834   0.755
50074W        W22499  37.568  36.814  11.654
50075W        W22500  17.589   4.948  13.406
50076W        W22501   3.699  33.886  13.313
50077W        W22502   7.831  30.139   0.891
50078W        W22503  32.228  44.703  13.962
50079W        W22504  27.726   0.876   4.081
50080W        W22505  21.123   7.792   4.568
50081W        W22506   5.158   4.736  11.655
50082W        W22507  38.336  21.923   1.817
50083W        W22508  11.965  33.924   0.618
50084W        W22509   7.709   1.762   3.621
50085W        W22510   4.264  41.966   4.536
50086W        W22511  30.610  41.224  10.660
50087W        W22512   1.912  36.511  14.530
50088W        W22513  36.451  10.550   1.891
50089W        W22514   5.758  15.655  13.199
50090W        W22515   1.115  10.754  10.622
50091W        W22516  37.388  14.643   2.902
50092W        W22517  10.933   7.335  10.494
50093W        W22518  40.121  24.233  13.848
50094W        W22519  24.514  44.209   4.685
50095W        W22520  29.014   1.621   1.006
50096W        W22521  13.343   8.431   2.327
50097W        W22522  15.213  32.862  14.959
50098W        W22523  11.789  24.129  10.006
50099W        W22524  30.656  40.065  11.148
50100W        W22525  43.995  34.664   2.242
50101W        W22526  12.877  28.610   0.909
50102W        W22527   4.989  42.458   4.249
50103W        W22528  18.675  27.362  13.941
50104W        W22529  22.607   2.293   3.095
50105W        W22530  43.880   3.053   3.795
50106W        W22531  44.035  35.033  14.419
50107W        W22532  19.054  35.878  13.846
50108W        W22533   2.007  17.129   5.037
50109W        W22534  36.349  21.032   2.379
50110W        W22535  21.492  33.819   0.965
50111W        W22536   2.427  42.421  12.861
50112W        W22537  11.078  32.346   3.059
50113W        W22538  22.668  27.061  13.081
50114W        W22539  25.074  37.265   2.391
50115W        W22540  21.499  11.794  14.581
50116W        W22541  40.529  32.080  13.804
50117W        W22542  33.431  33.711  14.639
50118W        W22543  28.298  41.913   5.062
50119W        W22544   2.863   3.902   0.306
50120W        W22545  38.517   8.103  10.615
50121W        W22546  26.984  10.504  13.444
50122W        W22547  18.697  30.664  10.262
50123W        W22548  26.011  11.214  10.871
50124W        W22549  12.828  43.037  13.943
50125W        W22550  36.572  20.460   2.795
50126W        W22551   4.901  22.200   4.363
50127W        W22552  22.328  38.807   3.780
50128W        W22553   1.656   9.480  14.305
50129W        W22554  38.450  23.717  11.858
50130W        W22555  43.977  14.154  14.764
50131W        W22556  15.084  11.654  12.936
50132W        W22557   7.417  35.104   1.087
50133W        W22558  27.962   8.460  14.308
50134W        W22559  33.601   5.090  12.650
50135W        W22560   2.840  43.008  11.134
50136W        W22561  20.951   3.674   4.518
50137W        W22562  16.395  30.155  13.506
50138W        W22563  18.005  27.349  13.463
50139W        W22564   3.757  19.038   2.240
50140W        W22565  41.872  11.626   4.638
50141W        W22566  43.482  31.624   0.978
50142W        W22567  43.562  22.243  13.597
50143W        W22568  43.813   5.835   1.220
50144W        W22569  34.437  14.217  12.205
50145W        W22570  43.770   4.244   3.206
50146W        W22571  12.864  31.697  12.004
50147W        W22572  35.620  16.782   3.416
50148W        W22573  21.716   6.627  13.431
50149W        W22574  42.185   1.277  10.928
50150W        W22575  21.707  16.773   3.827
50151W        W22576  44.488  14.583  12.117
50152W        W22577  18.200  27.509   2.509
50153W        W22578   9.833  13.243  14.061
50154W        W22579  42.873  25.995   1.219
50155W        W22580   9.935  31.730  10.674
50156W        W22581   1.879  11.627  11.492
50157W        W22582  21.124  28.653  13.630
50158W        W22583  34.195  38.955  13.113
50159W        W22584  43.046  35.367   4.771
50160W        W22585  17.321  39.370  12.568
50161W        W22586   2.986   7.190   1.764
50162W        W22587   8.899  13.885  13.415
50163W        W22588  29.866   0.662   1.620
50164W        W22589  29.416  18.695  10.767
50165W        W22590   2.323  43.466   2.804
50166W        W22591  21.693  35.462  14.788
50167W        W22592   7.719  44.380  14.885
50168W        W22593  40.133  35.550   0.708
50169W        W22594  14.172   3.584   5.355
50170W        W22595  39.946  17.495  11.587
50171W        W22596  34.713  18.425   4.457
50172W        W22597  16.750  30.165  10.451
50173W        W22598   0.979  27.964   3.118
50174W        W22599  19.779  27.573   3.689
50175W        W22600  16.193  15.542  14.293
50176W        W22601  17.570  15.210   0.326
50177W        W22602  30.481  28.768   1.917
50178W        W22603  23.608  22.193  13.885
50179W        W22604  19.532  23.770  13.793
50180W        W22605  33.599   6.275  13.922
50181W        W22606   2.103  38.749   1.324
50182W        W22607  38.015  34.377  11.912
50183W        W22608  39.464  30.008   0.452
50184W        W22609  14.666  24.168   4.439
50185W        W22610  36.230  41.295  14.929
50186W        W22611  43.590  18.760   4.014
50187W        W22612  15.232   7.644   0.549
50188W        W22613   4.521  28.775  13.909
50189W        W22614  11.211  20.522   2.597
50190W        W22615  25.024  44.670  12.379
50191W        W22616  44.869   2.259   3.265
50192W        W22617  38.548  27.829  14.320
50193W        W22618  14.368  36.572   2.918
50194W        W22619   5.866  16.432  11.605
50195W        W22620  35.519   6.380   3.072
50196W        W22621  28.501   7.335   1.186
50197W        W22622  22.159  15.208  14.941
50198W        W22623  25.168  41.355   3.746
50199W        W22624  26.529  40.950   1.028
50200W        W22625   4.778  17.767  11.604
50201W        W22626   1.260  15.310   3.969
50202W        W22627  23.881   8.899   2.413
50203W        W22628   2.988  36.889   0.385
50204W        W22629  35.636  38.526  14.806
50205W        W22630  10.119   0.573  13.392
50206W        W22631  42.800  44.485  13.210
50207W        W22632  19.277  18.892  12.395
50208W        W22633  43.362  42.380  11.179
50209W        W22634  24.584  38.808  12.029
50210W        W22635  37.921  30.058  14.911
50211W        W22636  16.095  29.171   2.281
50212W        W22637  23.015  20.464  11.380
50213W        W22638  31.431  33.126   0.440
50214W        W22639  28.955   7.632   2.894
50215W        W22640  24.198  28.089  10.478
50216W        W22641  26.086   7.959   3.198
50217W        W22642  12.838  34.511  14.724
50218W        W22643  21.608   6.132  13.427
50219W        W22644   9.648   7.161  10.092
50220W        W22645  21.580  24.207  14.400
50221W        W22646  13.285  11.464   0.267
50222W        W22647  10.472   9.851   0.306
50223W        W22648  41.363   8.934  10.624
50224W        W22649  27.683  39.313  14.416
50225W        W22650  41.802  23.568   1.262
50226W        W22651   1.425   8.641  14.220
50227W        W22652   0.804   0.359   3.627
50228W        W22653  44.919  43.057   2.906
50229W        W22654   5.834  28.027  13.531
50230W        W22655  17.729  12.849   4.982
50231W        W22656  39.402  15.052   3.209
50232W        W22657  19.126  22.448  14.869
50233W        W22658  36.238  33.437  11.825
50234W        W22659   4.343  40.848   3.633
50235W        W22660  19.372  20.960  11.216
50236W        W22661  25.896  33.562   0.008
50237W        W22662  12.724  25.699   2.695
50238W        W22663   9.249  19.792  12.175
50239W        W22664  24.740  25.936   4.726
50240W        W22665   2.761  14.662   2.447
50241W        W22666  30.703  15.614  13.790
50242W        W22667  17.376  29.378  11.932
50243W        W22668   5.380  29.910  11.850
50244W        W22669  13.473  27.151   3.345
50245W        W22670  32.579  39.613   4.078
50246W        W22671  19.147  23.989  14.520
50247W        W22672  43.394   8.850   4.603
50248W        W22673  32.136  20.569   4.892
50249W        W22674   0.543  43.038   4.495
50250W        W22675  42.022  15.454   2.424
50251W        W22676  26.877  10.441  11.687
50252W        W22677  21.312  26.953   2.238
50253W        W22678  39.537   4.224  14.478
50254W        W22679  29.362  37.290   2.409
50255W        W22680  32.926  40.049  10.717
50256W        W22681   8.408  19.574   0.782
50257W        W22682   5.150  15.284   3.565
50258W        W22683  12.894  29.161   2.786
50259W        W22684   0.291  29.041   3.603
50260W        W22685  28.260  37.110  10.679
50261W        W22686  16.934  24.191   1.879
50262W        W22687  25.873  27.022   2.608
50263W        W22688  21.631   0.770  11.785
50264W        W22689   9.152  21.467   2.945
50265W        W22690   0.825  12.445  10.995
50266W        W22691  30.717  40.982  11.620
50267W        W22692  40.834  25.621  14.572
50268W        W22693  29.660  41.376   9.537
50269W        W22694  28.578  14.599  11.321
50270W        W22695  29.013  13.189  12.786
50271W        W22696  40.503   7.428   4.559
50272W        W22697  24.109  43.526   0.805
50273W        W22698  22.897  23.267   0.212
50274W        W22699  36.597   1.205   0.443
50275W        W22700  30.648  41.930   1.742
50276W        W22701  10.804  42.960   1.823
50277W        W22702   6.012   6.986  12.867
50278W        W22703  18.649  10.161  10.649
50279W        W22704  18.370  41.600  11.697
50280W        W22705  41.135  12.301  12.384
50281W        W22706  12.721  36.455   4.441
50282W        W22707  37.293  37.970  11.550
50283W        W22708  20.459  30.205   3.340
50284W        W22709  21.169  25.661   1.411
50285W        W22710  38.305  19.618   0.305
50286W        W22711  16.230  38.955   2.965
50287W        W22712  14.730  12.400  12.113
50288W        W22713   4.778  23.385   1.210
50289W        W22714  16.636  28.472   1.445
50290W        W22715  26.600   2.898  11.650
50291W        W22716  19.153  34.661   3.197
50292W        W22717  24.973  13.167   3.622
50293W        W22718  42.392   9.651   0.365
50294W        W22719  41.814  37.898   2.192
50295W        W22720  33.161  36.628   2.397
50296W        W22721  19.659  37.010  13.576
50297W        W22722  10.312  19.249  12.039
50298W        W22723  12.688  25.763   0.763
50299W        W22724  36.760   8.720   3.274
50300W        W22725  41.007   0.776  12.000
50301W        W22726  40.971  27.155  10.654
50302W        W22727  35.979  25.271   1.367
50303W        W22728  24.007  13.782   2.261
50304W        W22729  22.203   3.428  14.302
50305W        W22730  44.979  28.538  14.379
50306W        W22731   0.229  14.306   0.188
50307W        W22732  35.374  38.356  14.360
50308W        W22733   4.701  19.084   0.430
50309W        W22734   4.410   7.166   1.813
50310W        W22735   8.783  14.555   4.633
50311W        W22736  16.425  44.747   2.683
50312W        W22737  25.951  41.779   4.148
50313W        W22738  38.398  10.623   1.403
50314W        W22739  40.794  24.291   3.232
50315W        W22740   4.124  34.495   3.018
50316W        W22741  43.041  18.925   2.264
50317W        W22742  33.711  27.433   0.077
50318W        W22743   3.333  25.826  14.592
50319W        W22744   3.768  43.441  11.039
50320W        W22745  34.171  26.614   5.003
50321W        W22746  33.398   3.351  14.354
50322W        W22747   4.885  18.404  14.750
50323W        W22748  29.339  28.547  14.531
50324W        W22749   2.903  38.047  13.259
50325W        W22750  16.536  39.309  11.108
50326W        W22751   4.365   2.207   4.090
50327W        W22752  21.381  28.682   2.888
50328W        W22753   6.327  15.702   1.710
50329W        W22754   3.718  24.278  14.510
50330W        W22755   3.164   4.423  14.421
50331W        W22756  13.612  30.120  13.363
50332W        W22757  20.016  24.979  10.579
50333W        W22758  40.074  28.050   2.336
50334W        W22759  15.282   3.930  13.555
50335W        W22760   8.901  23.681   4.275
50336W        W22761  37.795  11.237  14.196
50337W        W22762  25.162  15.751  14.999
50338W        W22763  15.198  36.116   4.448
50339W        W22764   1.257  20.735  12.969
50340W        W22765  11.253  30.691   4.546
50341W        W22766  41.805  16.780  11.598
50342W        W22767  35.679  33.045   3.941
50343W        W22768  28.023  38.412  12.123
50344W        W22769  14.848  33.251   3.569
50345W        W22770  39.657  20.257   0.538
50346W        W22771  21.970  33.350  13.510
50347W        W22772   4.296   4.797  12.379
50348W        W22773  41.499  11.079  10.606
50349W        W22774   2.184  39.770   1.396
50350W        W22775  34.513  28.932  11.092
50351W        W22776   0.569   1.394  10.784
50352W        W22777  26.661  42.595   3.396
50353W        W22778  40.359  25.457  13.388
50354W        W22779   6.636  39.309  14.314
50355W        W22780  11.737   3.654   4.140
50356W        W22781  20.644  38.290  13.419
50357W        W22782  20.211  25.220   2.248
50358W        W22783  24.269  24.998   3.266
50359W        W22784   6.137   3.352   1.045
50360W        W22785  31.129  33.079  13.629
50361W        W22786  30.162  19.451   0.627
50362W        W22787  30.753  20.596  14.833
50363W        W22788  25.226  20.658   0.506
50364W        W22789  17.638   6.641   1.813
50365W        W22790  18.853  44.425  12.226
50366W        W22791   0.863   1.893   5.386
50367W        W22792  40.432  22.119   0.523
50368W        W22793   7.958  33.349  14.296
50369W        W22794  26.753  40.757  12.494
50370W        W22795  27.921  20.055   2.772
50371W        W22796   9.712  36.418  12.024
50372W        W22797   5.935  24.568  11.994
50373W        W22798  35.463  14.202  11.129
50374W        W22799  43.061  16.727  12.277
50375W        W22800  11.366   3.541  13.985
50376W        W22801  35.396  22.959  13.967
50377W        W22802  27.156  28.971  14.420
50378W        W22803  30.021  11.402   1.729
50379W        W22804   6.466  27.083   4.705
50380W        W22805  42.526  35.156  10.999
50381W        W22806  24.369  15.663   4.500
50382W        W22807   6.772  24.841   4.602
50383W        W22808  35.875   5.889   2.740
50384W        W22809  11.203  14.731   3.862
50385W        W22810   0.465  10.677  14.440
50386W        W22811  14.029   4.711  14.318
50387W        W22812  19.683  15.128  11.621
50388W        W22813  41.807  44.354   2.239
50389W        W22814  11.738  24.034  14.505
50390W        W22815  30.867  40.237   4.568
50391W        W22816  20.458  27.135   0.922
50392W        W22817  15.590  33.035  13.340
50393W        W22818  27.162  32.425  13.006
50394W        W22819  22.428  26.681   3.913
50395W        W22820   8.907  22.648   3.398
50396W        W22821  36.751   3.485   3.647
50397W        W22822  22.716  25.186   2.335
50398W        W22823  12.573  19.540  12.788
50399W        W22824  24.608  24.202  14.303
50400W        W22825  21.280   2.985   1.901
50401W        W22826  33.355  23.193   1.209
50402W        W22827   2.265  22.906  14.356
50403W        W22828   7.204  24.301  12.515
50404W        W22829  26.382  41.822   0.876
50405W        W22830  31.503  40.495   4.028
50406W        W22831  33.851  10.658   4.345
50407W        W22832  20.035  43.205   5.003
50408W        W22833  28.047  21.235   4.936
50409W        W22834  41.507  32.663   4.107
50410W        W22835  37.573  32.425   1.244
50411W        W22836  26.956  26.573  12.640
50412W        W22837  28.424   7.202   1.991
50413W        W22838  39.417  22.639  14.748
50414W        W22839  40.267  20.121   2.086
50415W        W22840  19.409  33.044  10.668
50416W        W22841   9.826  37.261   3.176
50417W        W22842  14.737  22.287   2.354
50418W        W22843  17.729   4.678   1.891
50419W        W22844  34.945  28.835  11.652
50420W        W22845  36.635  23.762  11.294
50421W        W22846  17.253   8.593   4.950
50422W        W22847  17.632  25.922  14.335
50423W        W22848  22.527  17.131  13.320
50424W        W22849  28.217  29.574   3.060
50425W        W22850  14.666  16.796  12.527
50426W        W22851  29.383  36.384   3.020
50427W        W22852  16.423   1.856  12.902
50428W        W22853  18.592   5.675  12.820
50429W        W22854  44.401  33.124  14.415
50430W        W22855  22.098  23.053  13.985
50431W        W22856  44.392   0.294  11.944
50432W        W22857  29.527  27.421   1.865
50433W        W22858  41.443  22.394  12.343
50434W        W22859  16.837  38.900  14.357
50435W        W22860  32.290  21.221  10.702
50436W        W22861   1.911  13.555  13.520
50437W        W22862  28.354  13.048  13.444
50438W        W22863   5.424  12.814   0.468
50439W        W22864  34.972  30.220   2.849
50440W        W22865  39.429   4.243   0.984
50441W        W22866  14.437  17.971   5.076
50442W        W22867   7.216  27.076   2.338
50443W        W22868  26.554  10.832  12.815
50444W        W22869  12.722  32.716  14.335
50445W        W22870  16.729  12.519   0.556
50446W        W22871  23.849  18.669   2.274
50447W        W22872  33.394   5.014  12.172
50448W        W22873  19.661  36.767   0.945
50449W        W22874  34.171  40.040   1.060
50450W        W22875  15.590  14.930  14.972
50451W        W22876  30.426   6.972  14.422
50452W        W22877  27.731  16.534  11.505
50453W        W22878   3.202  42.945   4.248
50454W        W22879   8.876  13.733   1.383
50455W        W22880  16.687  38.555   4.155
50456W        W22881  19.448  36.220  12.951
50457W        W22882  29.622  11.415   4.520
50458W        W22883   0.779  22.044   1.393
50459W        W22884   7.542  43.483   0.954
50460W        W22885   4.780  17.292   3.853
50461W        W22886  11.404  34.672  12.430
50462W        W22887  25.613  19.810  12.078
50463W        W22888  21.254  31.474  14.937
50464W        W22889   0.249   7.655  11.419
50465W        W22890  13.423  27.433  10.937
50466W        W22891  36.031   8.384  14.462
50467W        W22892  20.764  29.496  13.016
50468W        W22893  17.016  24.319  12.371
50469W        W22894  30.723  20.042  14.835
50470W        W22895  34.797  23.856  13.578
50471W        W22896   2.870  22.875  11.192
50472W        W22897  44.291   4.874  12.539
50473W        W22898  12.174   4.867  11.586
50474W        W22899   5.391   2.173  11.544
50475W        W22900  21.534  21.543   1.251
50476W        W22901  17.807   6.197  14.922
50477W        W22902   5.942   5.576   1.337
50478W        W22903  12.310  31.555  10.727
50479W        W22904  11.545   1.710   2.622
50480W        W22905  30.395  20.562  12.006
50481W        W22906  36.209   7.917  14.321
50482W        W22907  34.875  38.056   0.943
50483W        W22908  17.555   6.878   2.271
50484W        W22909  27.324  29.875  14.867
50485W        W22910   2.821  24.918   4.650
50486W        W22911  14.446  38.418  12.870
50487W        W22912  36.251  16.440   2.670
50488W        W22913  41.522  17.958   3.440
50489W        W22914  12.338  15.373   4.678
50490W        W22915   7.657  14.066   4.674
50491W        W22916   6.195  25.231   2.743
50492W        W22917   7.905   1.276   2.283
50493W        W22918  24.064  19.705   1.834
50494W        W22919  15.213  35.144  12.642
50495W        W22920  39.954   4.472   2.322
50496W        W22921  21.495  13.893   2.418
50497W        W22922   2.248  42.999   1.418
50498W        W22923  16.582   5.732   3.608
50499W        W22924  32.826  21.057  10.637
50500W        W22925  15.788  38.760   3.775
50501W        W22926  37.620  24.038  11.085
50502W        W22927  26.849  33.563   3.753
50503W        W22928  43.677  26.526  14.361
50504W        W22929   0.098   1.816   3.083
50505W        W22930   0.257  17.331  12.454
50506W        W22931  10.697  16.304  13.830
50507W        W22932  10.696   5.441  14.813
50508W        W22933  16.831  44.918   2.938
50509W        W22934  21.633  37.000  13.565
50510W        W22935  28.373  19.171   1.672
50511W        W22936   2.506   9.387   3.322
50512W        W22937  44.379   7.879  14.219
50513W        W22938   4.745  26.411   1.922
50514W        W22939  37.985  12.631   1.998
50515W        W22940   9.839  29.196   4.752
50516W        W22941  23.215  24.990  10.626
50517W        W22942  42.545   5.330   2.265
50518W        W22943  13.654  10.263   4.565
50519W        W22944   8.325   1.308   2.758
50520W        W22945  15.560  10.344  14.923
50521W        W22946  36.491  21.080  12.055
50522W        W22947   2.887  17.482   4.264
50523W        W22948  23.618  37.088   3.379
50524W        W22949  31.107  21.494   0.280
50525W        W22950  34.566   0.801  14.412
50526W        W22951   7.266  25.769  12.449
50527W        W22952  33.148  13.487   1.402
50528W        W22953  38.453  10.217  14.377
50529W        W22954  24.196  20.257   0.982
50530W        W22955  41.859  29.491  11.097
50531W        W22956  32.004  21.166   3.754
50532W        W22957  14.895  21.772  11.234
50533W        W22958   9.130  33.905   2.651
50534W        W22959  33.714  17.791   3.155
50535W        W22960  26.688  34.368  13.392
50536W        W22961  38.838  28.190   9.894
50537W        W22962   8.266  25.933   3.066
50538W        W22963   8.902  41.087  11.137
50539W        W22964  12.842  32.425  14.737
50540W        W22965  14.498   4.581  10.053
50541W        W22966  36.975  18.745   4.708
50542W        W22967  17.259  25.055   4.969
50543W        W22968  19.029   9.578   4.177
50544W        W22969  10.624  43.837  11.682
50545W        W22970  17.711  26.171   0.370
50546W        W22971  44.802  20.438  11.094
50547W        W22972  38.587   3.889   4.319
50548W        W22973   9.908  41.586  14.238
50549W        W22974  29.987   3.781   3.605
50550W        W22975  12.854  30.448  11.823
50551W        W22976  16.163   4.911   4.976
50552W        W22977   0.438   9.492  12.913
50553W        W22978  26.128  17.059   0.372
50554W        W22979  22.237  19.985   4.103
50555W        W22980  10.907  32.610  14.992
50556W        W22981  10.524   4.212  14.461
50557W        W22982  44.172  36.003   1.543
50558W        W22983  33.068  41.463   1.521
50559W        W22984  19.206  33.876  11.404
50560W        W22985  21.055  24.445  11.506
50561W        W22986  25.259  30.719   3.156
50562W        W22987   1.384  33.682  10.618
50563W        W22988  32.602   1.402  13.787
50564W        W22989   5.455  20.050   2.202
50565W        W22990  30.023  17.750   1.252
50566W        W22991  30.225  36.498   4.761
50567W        W22992  22.759   2.268   4.062
50568W        W22993  24.688  15.905   1.032
50569W        W22994  39.308  24.394  12.970
50570W        W22995   2.501  25.565   1.229
50571W        W22996   9.230  24.128  12.858
50572W        W22997  15.057   0.039  11.521
50573W        W22998   2.048  31.928  14.492
50574W        W22999  33.855   2.818  11.327
50575W        W23000  44.427  24.241  13.431
50576W        W23001  17.792   1.149   2.255
50577W        W23002  38.843  43.006  11.536
50578W        W23003  24.068  12.883  10.604
50579W        W23004  27.436  35.244   0.256
50580W        W23005  33.597   9.377   0.370
50581W        W23006  30.593  11.117   2.865
50582W        W23007  20.303  44.024   3.257
50583W        W23008  18.215  10.051   4.826
50584W        W23009   7.295   0.871   2.784
50585W        W23010   7.847   4.347   2.789
50586W        W23011  36.224  28.132   4.793
50587W        W23012  36.319  25.504   3.030
50588W        W23013   8.224  16.083   3.171
50589W        W23014   5.625   1.472   3.328
50590W        W23015  31.881  41.903   4.212
50591W        W23016  13.578  42.027  11.699
50592W        W23017  26.539   8.879  13.767
50593W        W23018  41.059  44.094  13.479
50594W        W23019  16.191  39.521  14.620
50595W        W23020  31.028  39.999   0.543
50596W        W23021  25.175  42.809  10.470
50597W        W23022  35.621  41.812   3.802
50598W        W23023  32.639   3.443  12.517
50599W        W23024  38.842  16.217   3.868
50600W        W23025  41.880   8.207  13.012
50601W        W23026   4.120   9.733   0.739
50602W        W23027  14.114   0.758   4.514
50603W        W23028  19.013  16.710  12.046
50604W        W23029   3.273   7.709  14.406
50605W        W23030   1.764  32.080   2.306
50606W        W23031   1.843  28.171   2.710
50607W        W23032   1.793  25.474   3.686
50608W        W23033  29.167   3.629   0.812
50609W        W23034  33.088   0.342   4.370
50610W        W23035  36.685  20.310  14.710
50611W        W23036  24.606  37.331   1.527
50612W        W23037  20.767  34.982  14.455
50613W        W23038   2.219  30.118   1.291
50614W        W23039  24.763  19.241  13.852
50615W        W23040  19.553  30.889   1.290
50616W        W23041  36.656  30.145   0.775
50617W        W23042  11.161  29.606   4.043
50618W        W23043  26.038  24.027   1.261
50619W        W23044   0.332  37.753  14.450
50620W        W23045  18.584  15.637   0.256
50621W        W23046  22.658  37.634   0.631
50622W        W23047  40.038  31.459  11.658
50623W        W23048  42.376  40.825  14.713
50624W        W23049  34.043  15.588  10.524
50625W        W23050  26.667   2.880   4.954
50626W        W23051  39.057  36.534  13.966
50627W        W23052  34.864   3.486  11.822
50628W        W23053  15.964  35.903   4.764
50629W        W23054   2.529   3.986  12.877
50630W        W23055  28.387  31.994  11.447
50631W        W23056  11.715  21.675   2.166
50632W        W23057  19.648  11.463   3.652
50633W        W23058  37.952   8.920   1.836
50634W        W23059  42.884  34.368  12.167
50635W        W23060   1.288  10.910  13.910
50636W        W23061  25.752  19.218   3.311
50637W        W23062  15.852   7.649  10.876
50638W        W23063  36.313  34.404   0.089
50639W        W23064  20.662   6.062  11.815
50640W        W23065  26.239   6.309  12.634
50641W        W23066   1.108  44.751   3.012
50642W        W23067  14.990  37.268   3.126
50643W        W23068  33.384   2.343   1.810
50644W        W23069  25.076  29.464  14.966
50645W        W23070  32.436   7.617  14.768
50646W        W23071  30.097   7.302   3.318
50647W        W23072  17.151  34.392   2.254
50648W        W23073  14.811  42.309  14.904
50649W        W23074  28.161  15.643  13.337
50650W        W23075  43.970  11.684   2.787
50651W        W23076  41.934  32.974   3.939
50652W        W23077   7.353  19.243   4.620
50653W        W23078  29.881  30.621   1.239
50654W        W23079  37.185   9.692  12.571
50655W        W23080  37.284  33.437   0.449
50656W        W23081  41.064  17.321   0.338
50657W        W23082  42.408  17.430  13.933
50658W        W23083  21.261  37.743   4.442
50659W        W23084   9.126   1.012   3.211
50660W        W23085  13.382  34.121  13.944
50661W        W23086   9.343   9.197  10.727
50662W        W23087  39.256  23.965   3.676
50663W        W23088  24.494   0.724   0.238
50664W        W23089  16.839  42.285  14.489
50665W        W23090  17.993   8.906   1.734
50666W        W23091  31.508   4.732   1.739
50667W        W23092   6.907  32.309  13.379
50668W        W23093  41.495  34.883   2.014
50669W        W23094   8.439  22.027   1.914
50670W        W23095  30.488   2.777   4.641
50671W        W23096   7.862  36.069  11.057
50672W        W23097  29.153  15.177  12.087
50673W        W23098  44.934  44.959   4.392
50674W        W23099   2.263  16.163   0.424
50675W        W23100  40.878   9.766   0.611
50676W        W23101  38.419   1.375   0.037
50677W        W23102  44.009  37.900   2.930
50678W        W23103  20.831  29.400  12.138
50679W        W23104  44.354  41.441  12.052
50680W        W23105  35.414   8.474  11.124
50681W        W23106  38.967  29.934   0.342
50682W        W23107  25.632   6.676  11.283
50683W        W23108  17.328   3.734   1.337
50684W        W23109   2.506   7.545   2.259
50685W        W23110  42.061  44.608   1.364
50686W        W23111  41.855  41.940   0.099
50687W        W23112  37.884  32.913   0.919
50688W        W23113  16.085  19.070  11.399
50689W        W23114  15.314  26.714  10.258
50690W        W23115  37.940  42.889   2.468
50691W        W23116  38.464  23.164   1.312
50692W        W23117  26.496  17.638   3.587
50693W        W23118  12.244  38.911  11.008
50694W        W23119  13.472  33.411  14.493
50695W        W23120  34.792  18.491  13.403
50696W        W23121  16.382   7.786  13.784
50697W        W23122   1.476  42.534  13.462
50698W        W23123  40.555  41.240  13.531
50699W        W23124  13.149  25.389  13.988
50700W        W23125  25.499  23.467  14.913
50701W        W23126  40.234  36.828   3.300
50702W        W23127  22.279  28.961   3.759
50703W        W23128   4.261  44.498   3.743
50704W        W23129   2.852  37.519  10.707
50705W        W23130  44.401  43.822   0.945
50706W        W23131  25.173  21.970   2.159
50707W        W23132  24.394  39.454  14.271
50708W        W23133  17.963  17.232  11.500
50709W        W23134  35.296  44.496   2.118
50710W        W23135  28.969  21.172   2.652
50711W        W23136  12.248   3.702  13.618
50712W        W23137  17.235  10.509  12.658
50713W        W23138  24.015  24.609  14.932
50714W        W23139  15.809  15.052   3.434
50715W        W23140  38.313   3.348   1.900
50716W        W23141   3.450  19.644  10.217
50717W        W23142  15.358  21.552  14.049
50718W        W23143  24.832  20.938   3.152
50719W        W23144   0.689  18.833   1.690
50720W        W23145  37.053   0.843  11.642
50721W        W23146  26.442  44.698  12.972
50722W        W23147  17.571  32.045  13.626
50723W        W23148  41.442  12.769   2.231
50724W        W23149  26.698  37.355  13.884
50725W        W23150  14.028  35.075  14.948
50726W        W23151  38.025   9.546  12.855
50727W        W23152  32.031  19.691  13.964
50728W        W23153  15.747  41.022   3.606
50729W        W23154  27.398  40.867  11.856
50730W        W23155   8.267   8.866   2.850
50731W        W23156  29.843   2.227  11.912
50732W        W23157  21.604  35.828   0.909
50733W        W23158  34.704  21.006   0.036
50734W        W23159  30.909  33.219   0.468
50735W        W23160   2.817  15.690   4.891
50736W        W23161  38.428  36.572  11.694
50737W        W23162  44.345  36.733  14.877
50738W        W23163  29.954  41.658  14.536
50739W        W23164  14.220  34.643   2.665
50740W        W23165  31.420  33.483  13.470
50741W        W23166   9.291   6.688  12.772
50742W        W23167  18.488  10.094   1.846
50743W        W23168  23.074  26.880  11.952
50744W        W23169  27.088  25.092   3.811
50745W        W23170   7.221  41.035   0.891
50746W        W23171  22.484   8.252   0.893
50747W        W23172   8.260   7.761  11.158
50748W        W23173  10.285  32.930  13.484
50749W        W23174  36.721  14.133   4.122
50750W        W23175   0.458  38.790  10.902
50751W        W23176  38.242  16.831   2.206
50752W        W23177  39.647  29.663   4.988
50753W        W23178  24.605  44.312   1.826
50754W        W23179  26.038  22.759   1.197
50755W        W23180   1.239  26.716  13.608
50756W        W23181  39.528   0.876   4.603
50757W        W23182   0.800  11.753  12.482
50758W        W23183   7.673  16.053   4.509
50759W        W23184   8.645   8.898  12.525
50760W        W23185  35.541   1.292  14.086
50761W        W23186  18.136   0.885  13.048
50762W        W23187  29.155  40.686   4.185
50763W        W23188  44.792   0.053  14.966
50764W        W23189  20.211  39.709   2.952
50765W        W23190  42.501  33.106   2.678
50766W        W23191  29.392  22.045   4.306
50767W        W23192   2.774  27.190   4.651
50768W        W23193  19.766  32.443   4.139
50769W        W23194   2.728  25.292  13.488
50770W        W23195  43.364  38.384   0.368
50771W        W23196  24.753   8.635   0.882
50772W        W23197  14.826   8.078   3.383
50773W        W23198   1.640  25.470   4.184
50774W        W23199  35.286  19.009  13.938
50775W        W23200  24.017  30.983  10.659
50776W        W23201  26.225   9.139   0.860
50777W        W23202   4.816   1.197   0.964
50778W        W23203   2.389  31.982  10.138
50779W        W23204  41.251  16.729  12.848
50780W        W23205  39.816  31.200   1.859
50781W        W23206  41.992  15.573  13.842
50782W        W23207  20.734   7.728  12.619
50783W        W23208   8.311  33.399  12.931
50784W        W23209  25.670   7.113   4.171
50785W        W23210  24.753  38.542  10.491
50786W        W23211  28.613  27.455   4.299
50787W        W23212  11.292   9.783   4.154
50788W        W23213  31.403   4.885   2.240
50789W        W23214   7.391   7.370  13.545
50790W        W23215  25.949   5.847   1.782
50791W        W23216   1.191   7.955   2.128
50792W        W23217   4.064  43.844  11.197
50793W        W23218  33.540  29.434  13.950
50794W        W23219  34.471  39.447   0.169
50795W        W23220  17.732  22.306  11.806
50796W        W23221  21.157   8.791   1.440
50797W        W23222   7.337  12.870  13.179
50798W        W23223  12.692  11.408  13.868
50799W        W23224  38.134  33.394   1.990
50800W        W23225  34.048   9.724  11.548
50801W        W23226  37.805  20.529  11.255
50802W        W23227  30.968  25.590   0.250
50803W        W23228  17.320   7.217  13.362
50804W        W23229   6.761  36.346  13.465
50805W        W23230   3.009   9.266   3.181
50806W        W23231  14.396  21.159  11.565
50807W        W23232  43.549  25.439  12.064
50808W        W23233  41.301  31.643  14.056
50809W        W23234  41.262  38.007   1.963
50810W        W23235   0.403  32.019   1.719
50811W        W23236  18.834  31.703  12.959
50812W        W23237  38.072   3.589  14.962
50813W        W23238   6.252   2.666   3.457
50814W        W23239  36.102  43.299   4.563
50815W        W23240  14.847  20.419   3.138
50816W        W23241  41.826   0.310   0.703
50817W        W23242  43.700  27.954  11.967
50818W        W23243  39.108   6.854   3.167
50819W        W23244  11.547  12.526  14.354
50820W        W23245  25.110  27.749  14.622
50821W        W23246  24.949  11.655  14.754
50822W        W23247  27.707  32.277  13.829
50823W        W23248  23.508  40.997   1.224
50824W        W23249  12.564  42.437   3.797
50825W        W23250  17.360  25.786   1.274
50826W        W23251   9.849  39.059  13.493
50827W        W23252   1.182  22.518   2.232
50828W        W23253  10.785  26.908   4.562
50829W        W23254  18.792  14.303  14.522
50830W        W23255  40.241  32.418  14.057
50831W        W23256  26.960  23.225  11.042
50832W        W23257  40.923  41.591  13.380
50833W        W23258  25.277  33.746  10.675
50834W        W23259  15.801  32.152   3.605
50835W        W23260  30.056  21.271   2.710
50836W        W23261  44.535  28.959   3.197
50837W        W23262  25.662  35.119  12.169
50838W        W23263   3.728  33.611   2.814
50839W        W23264  21.139  18.818   2.364
50840W        W23265  12.411   8.731  14.155
50841W        W23266   7.649   9.935  11.608
50842W        W23267  23.157  26.417   4.509
50843W        W23268  18.930  26.106   3.874
50844W        W23269  22.590  32.366   3.659
50845W        W23270  24.220  41.057  13.489
50846W        W23271   5.822  27.468  12.012
50847W        W23272  12.604  35.881   4.213
50848W        W23273  21.235  36.425  11.120
50849W        W23274  17.164  16.848   0.064
50850W        W23275  43.984  25.721  12.016
50851W        W23276  27.072  37.869   0.222
50852W        W23277  37.035  15.285   3.374
50853W        W23278   3.192  32.941   1.164
50854W        W23279  21.540   0.755   2.380
50855W        W23280  17.211  23.138  14.819
50856W        W23281  14.368   0.892   2.583
50857W        W23282  28.936   9.541   4.581
50858W        W23283  33.909  37.368  14.960
50859W        W23284  33.361  31.117   4.143
50860W        W23285  11.436  30.115   2.953
50861W        W23286  11.804  39.773   0.888
50862W        W23287  10.893  19.694   0.431
50863W        W23288  20.966  36.508  11.542
50864W        W23289  31.903  15.346  12.011
50865W        W23290  10.270  34.327   2.039
50866W        W23291  18.617   7.369   1.696
50867W        W23292  19.111  26.105   1.527
50868W        W23293  21.072  29.215   0.565
50869W        W23294   3.873  36.698  13.256
50870W        W23295  12.621   7.458   3.071
50871W        W23296  31.856  19.098  10.727
50872W        W23297  20.089  17.757  12.030
50873W        W23298  41.444   7.768  14.903
50874W        W23299  43.821  42.551  12.173
50875W        W23300  12.046  25.002   2.757
50876W        W23301  10.577   6.275  10.072
50877W        W23302  12.247  39.393  10.809
50878W        W23303  21.664  28.752   2.249
50879W        W23304  40.121  32.069  10.365
50880W        W23305   1.360  28.713   3.809
50881W        W23306  30.753  22.109   1.873
50882W        W23307  42.691  44.522  14.107
50883W        W23308  14.278  18.636  13.777
50884W        W23309  35.115  11.261   4.471
50885W        W23310  27.077  44.842   1.500
50886W        W23311  19.234  20.836  10.323
50887W        W23312  33.033  43.546   3.204
50888W        W23313  13.326   6.153   1.703
50889W        W23314  30.079   7.856  13.894
50890W        W23315  42.762  19.009   3.735
50891W        W23316  20.365   0.228   0.761
50892W        W23317  16.835  20.482  11.680
50893W        W23318  34.486  20.959   3.295
50894W        W23319  31.071  13.996   3.338
50895W        W23320  28.360  23.318  12.576
50896W        W23321  41.974  30.629  12.048
50897W        W23322  28.006  26.282  14.288
50898W        W23323  24.042  37.136  12.414
50899W        W23324   0.986  28.519  12.150
50900W        W23325  42.013   4.211  12.835
50901W        W23326  23.501   6.882   1.317
50902W        W23327   3.812  14.971   4.216
50903W        W23328  17.957  43.205   0.338
50904W        W23329   4.633   6.404   5.107
50905W        W23330  22.530  39.291   3.898
50906W        W23331  32.354   4.918  10.107
50907W        W23332   6.130  20.318  11.570
50908W        W23333  43.274  11.699   4.290
50909W        W23334  37.176  16.935  12.340
50910W        W23335  34.286   7.628  14.782
50911W        W23336  33.386  22.697   4.585
50912W        W23337  20.820  43.440   0.931
50913W        W23338  19.441  21.168   3.611
50914W        W23339  38.819  18.541   4.597
50915W        W23340  17.753   9.908   4.499
50916W        W23341  17.163   2.072   0.429
50917W        W23342  28.443  30.016  10.562
50918W        W23343  13.293  41.003   3.182
50919W        W23344  20.961  32.170  14.961
50920W        W23345   1.738   7.781   0.281
50921W        W23346  44.796  22.082   2.610
50922W        W23347  15.242  27.599  10.717
50923W        W23348  31.445  23.116  14.241
50924W        W23349  26.434  33.591  10.970
50925W        W23350  44.309  30.367   3.864
50926W        W23351  15.600  21.593   4.824
50927W        W23352   0.408  31.931  10.679
50928W        W23353  39.986  39.571   1.910
50929W        W23354  12.704  11.916   1.835
50930W        W23355  32.722  29.251  11.560
50931W        W23356  28.378  10.949  12.296
50932W        W23357   2.779  32.206  13.453
50933W        W23358  38.506  21.554  12.533
50934W        W23359  27.429  33.116   2.632
50935W        W23360  21.558  20.835  11.108
50936W        W23361   7.843  24.217   2.744
50937W        W23362  14.355  23.205   2.671
50938W        W23363  11.832   7.323   3.551
50939W        W23364  33.080  12.087   3.882
50940W        W23365  11.173   7.263  14.535
50941W        W23366  23.389  13.205  11.502
50942W        W23367  41.565  13.335  13.469
50943W        W23368  31.133  38.381   2.943
50944W        W23369  23.132  24.980  14.866
50945W        W23370  32.438   9.832  12.918
50946W        W23371  11.707  41.063  13.581
50947W        W23372  30.722   1.524   4.174
50948W        W23373  33.545  18.048   1.956
50949W        W23374   5.912  28.166   1.776
50950W        W23375  23.841   1.832  13.402
50951W        W23376  31.077   0.770  12.563
50952W        W23377  12.275   6.851   1.899
50953W        W23378  16.432   4.106   4.201
50954W        W23379   1.231  36.581   1.891
50955W        W23380  25.037  33.783  12.042
50956W        W23381  31.954  13.337   3.156
50957W        W23382  23.579  44.502   2.692
50958W        W23383   3.831  18.162   1.615
50959W        W23384  25.990  14.676   3.688
50960W        W23385   2.357  39.582  11.960
50961W        W23386   2.230  25.876  11.697
50962W        W23387  35.928   6.793   2.692
50963W        W23388  35.848  44.877  13.027
50964W        W23389   7.378  18.651  13.787
50965W        W23390  22.025  26.781  12.488
50966W        W23391  17.195   9.282   1.397
50967W        W23392  31.558  21.788  11.868
50968W        W23393  22.946  40.785   2.384
50969W        W23394   4.931  40.453  12.836
50970W        W23395  28.990   6.987   3.712
50971W        W23396  41.756  38.420   4.668
50972W        W23397  24.538  39.928   2.764
50973W        W23398  38.328  26.669  11.515
50974W        W23399  34.261  33.013   0.912
50975W        W23400   3.887   8.996   0.593
50976W        W23401  21.072  32.638   4.601
50977W        W23402   9.346   1.480  13.916
50978W        W23403  24.259  30.030   4.817
50979W        W23404  16.584  34.574   0.240
50980W        W23405   9.010   8.672  11.241
50981W        W23406   0.804   1.448   3.512
50982W        W23407  13.669  26.492   1.692
50983W        W23408  36.033  26.178  14.950
50984W        W23409  19.133  28.598  13.475
50985W        W23410  36.299  16.221  14.539
50986W        W23411  35.048  34.569  10.323
50987W        W23412  41.800  30.937   4.683
50988W        W23413  42.712  25.502  13.723
50989W        W23414   0.739  13.587  14.313
50990W        W23415   2.541  41.362  12.850
50991W        W23416  29.464  30.583  13.529
50992W        W23417  22.794  38.922   2.977
50993W        W23418  42.516  15.943   4.608
50994W        W23419  40.464  42.286  13.375
50995W        W23420   3.767  34.355  12.471
50996W        W23421  38.835   4.691   0.280
50997W        W23422  17.712   9.722   2.108
50998W        W23423   5.197  31.519  14.554
50999W        W23424  32.596  35.877   0.342
51000W        W23425  17.719  30.951  10.785
51001W        W23426  13.099  36.855  13.172
51002W        W23427  33.076  23.067  11.529
51003W        W23428   4.731  17.198   4.346
51004W        W23429  20.727  23.655   2.092
51005W        W23430  43.986  16.510   0.734
51006W        W23431  27.232  37.052  13.389
51007W        W23432  35.760  39.240  12.429
51008W        W23433  41.890  28.717  11.591
51009W        W23434  25.127   7.780   1.534
51010W        W23435  43.254  20.626  11.374
51011W        W23436  31.144   5.970  12.082
51012W        W23437  30.031  30.669   3.369
51013W        W23438  13.297  37.589   0.882
51014W        W23439  20.842  15.582   3.142
51015W        W23440  23.102  12.880   3.798
51016W        W23441  28.269   2.251   4.139
51017W        W23442  18.162   5.683  13.592
51018W        W23443  34.596  18.036   4.101
51019W        W23444  38.769  25.441   2.692
51020W        W23445   6.271   6.030  11.193
51021W        W23446  24.122  10.853  12.752
51022W        W23447  31.124   9.389   0.178
51023W        W23448  27.505  35.407   4.657
51024W        W23449  37.695  18.635   0.400
51025W        W23450  16.648  12.140   0.991
51026W        W23451  42.527  44.936   4.336
51027W        W23452   3.042  44.967   3.274
51028W        W23453   6.789  12.753   4.307
51029W        W23454  34.155   7.628   4.535
51030W        W23455  39.408  34.178   0.516
51031W        W23456  16.806  41.985  11.728
51032W        W23457  44.344  10.505  10.752
51033W        W23458   3.772   3.130  13.907
51034W        W23459  30.868  15.612  10.560
51035W        W23460  32.961   8.915   2.415
51036W        W23461  16.290   1.934   1.963
51037W        W23462  38.819   1.967  11.562
51038W        W23463  16.540  29.486  13.052
51039W        W23464  32.984  33.898  11.237
51040W        W23465  43.816  16.884   4.274
51041W        W23466  25.219  25.636  12.793
51042W        W23467  27.092  24.533  10.390
51043W        W23468  11.233  37.362   2.025
51044W        W23469  29.743  30.046   4.902
51045W        W23470  16.998  42.259   0.891
51046W        W23471  11.809  29.468   0.301
51047W        W23472   8.832  12.553   4.408
51048W        W23473  19.483  33.878  13.902
51049W        W23474  28.467   9.951  12.425
51050W        W23475   3.242  15.341   2.437
51051W        W23476   6.337  20.470  12.015
51052W        W23477  11.327  29.173   3.803
51053W        W23478  20.020   5.736   3.657
51054W        W23479  22.798  16.072   3.479
51055W        W23480  31.422  39.348   0.795
51056W        W23481   9.213  13.309   4.564
51057W        W23482  37.518   2.722   3.686
51058W        W23483  28.832   5.139   1.780
51059W        W23484   9.423  35.687   0.981
51060W        W23485  21.756  37.787  14.233
51061W        W23486  33.199  15.751  14.850
51062W        W23487  19.116  35.321  10.609
51063W        W23488  19.889   6.925  13.416
51064W        W23489   7.258  29.692   1.293
51065W        W23490  12.238  13.127  11.946
51066W        W23491  38.916  22.570  13.965
51067W        W23492  17.658   5.150   4.517
51068W        W23493   5.895  22.023  13.060
51069W        W23494   6.395  15.259  10.923
51070W        W23495  10.995  25.731  10.420
51071W        W23496  37.964  13.118  11.058
51072W        W23497  28.495  22.470  13.388
51073W        W23498   1.371  20.555  11.979
51074W        W23499  29.912  25.193  14.855
51075W        W23500  25.688  26.624   3.318
51076W        W23501  32.090   3.890  12.578
51077W        W23502  17.115   7.420  14.834
51078W        W23503  31.890   5.893   4.876
51079W        W23504  11.774   3.230   5.237
51080W        W23505  27.224  12.098  14.926
51081W        W23506  18.153  37.908  11.523
51082W        W23507  19.517  30.017   1.957
51083W        W23508   2.784  38.509   0.890
51084W        W23509  39.273  44.766   4.162
51085W        W23510  33.786   3.252  14.724
51086W        W23511  12.744   7.162  13.634
51087W        W23512  14.753  23.490   1.669
51088W        W23513  28.000  19.769  11.578
51089W        W23514  15.373  41.262   0.871
51090W        W23515  26.642  41.114   1.526
51091W        W23516  17.985  21.041  13.504
51092W        W23517  25.587  15.661  13.558
51093W        W23518  42.403   9.224  14.090
51094W        W23519  29.902  12.942   0.797
51095W        W23520   5.600  28.881   3.682
51096W        W23521  37.106   1.773  11.952
51097W        W23522   6.353  30.895   4.796
51098W        W23523   9.380  30.064  13.985
51099W        W23524  43.922  32.575  14.962
51100W        W23525  32.650  36.495  14.433
51101W        W23526  22.643  23.760  13.097
51102W        W23527   1.017  37.529   1.930
51103W        W23528  27.376  30.990  10.335
51104W        W23529  16.088  25.110  14.696
51105W        W23530  27.941  31.989  12.817
51106W        W23531  23.019   5.437  13.395
51107W        W23532   2.250  35.783   1.297
51108W        W23533   8.525  26.200  14.966
51109W        W23534   4.146  21.189   2.757
51110W        W23535  22.698  18.096   1.294
51111W        W23536  42.512  39.344  14.010
51112W        W23537  13.202  28.447  13.848
51113W        W23538  37.633  41.528  12.723
51114W        W23539  40.512  38.037  14.470
51115W        W23540  41.528  26.600  13.182
51116W        W23541  29.230  23.666   2.659
51117W        W23542   5.872  39.051   2.374
51118W        W23543  15.134  19.638   4.985
51119W        W23544  15.307   9.740   4.674
51120W        W23545  21.057  12.141   3.336
51121W        W23546  24.263  42.770   3.817
51122W        W23547  19.126  33.691   2.267
51123W        W23548  11.357  40.248  10.695
51124W        W23549  15.148  28.488   3.471
51125W        W23550  33.321  29.646   3.546
51126W        W23551  22.824  41.021  12.799
51127W        W23552  26.251   6.315  13.541
51128W        W23553  36.066  41.319  12.154
51129W        W23554  25.975   2.506  11.193
51130W        W23555  33.184   9.071   4.336
51131W        W23556  32.654  36.096   1.861
51132W        W23557   2.569  12.371   2.529
51133W        W23558  22.601  11.468  10.084
51134W        W23559   6.313  38.867   0.696
51135W        W23560  38.420  10.332  13.094
51136W        W23561   8.286   9.926   3.301
51137W        W23562  39.927  35.070  14.983
51138W        W23563  43.763  41.576   0.424
51139W        W23564  19.776  26.084   3.595
51140W        W23565  44.980  19.489  13.085
51141W        W23566  29.013  14.109   3.939
51142W        W23567  29.449  36.028   0.982
51143W        W23568   8.805  35.776  13.940
51144W        W23569  37.583  39.757   2.105
51145W        W23570  26.213  33.883  12.535
51146W        W23571  16.292   6.761  12.821
51147W        W23572  27.039  37.032   3.271
51148W        W23573  10.696   2.035  12.315
51149W        W23574  34.069  30.411  13.121
51150W        W23575  19.961  22.681   3.654
51151W        W23576  19.610  17.067   1.029
51152W        W23577  25.205  26.556  13.312
51153W        W23578  11.698  30.922   2.863
51154W        W23579  23.247  32.961  13.367
51155W        W23580   9.186  21.014   2.690
51156W        W23581  30.451   8.827   2.210
51157W        W23582  31.562  19.748  14.223
51158W        W23583  30.118  42.960   0.867
51159W        W23584  13.660   1.918  10.381
51160W        W23585  11.300  34.026   1.677
51161W        W23586  23.643  11.086  12.256
51162W        W23587  25.521  42.338  12.100
51163W        W23588   9.425   0.576   4.150
51164W        W23589  12.676   6.096   2.760
51165W        W23590  28.885  26.216   3.572
51166W        W23591  38.781  15.322   4.443
51167W        W23592  43.728  16.656  11.670
51168W        W23593  18.799   9.676   1.969
51169W        W23594  34.475   0.296   4.405
51170W        W23595   2.212  11.205  11.470
51171W        W23596  14.565  23.476   5.495
51172W        W23597  14.495  32.514  13.892
51173W        W23598  33.991  27.966   2.769
51174W        W23599  36.697  32.506   1.349
51175W        W23600  23.123  24.504   2.679
51176W        W23601  29.349  19.902   1.296
51177W        W23602  33.614  34.939   0.349
51178W        W23603  14.079   3.423  14.962
51179W        W23604   6.847  28.680   4.573
51180W        W23605  27.408  38.801  13.527
51181W        W23606  37.616   1.646   0.523
51182W        W23607  35.763  37.060  13.065
51183W        W23608  12.670  11.344  12.202
51184W        W23609  20.554  44.701  11.544
51185W        W23610  27.494  35.629  10.912
51186W        W23611  26.581  14.629  11.471
51187W        W23612  36.110  30.349   3.158
51188W        W23613   9.370  35.307  13.449
51189W        W23614   8.905  35.649  12.470
51190W        W23615  25.467   5.813  14.281
51191W        W23616  30.391  25.000  14.766
51192W        W23617  30.111   1.426  13.829
51193W        W23618  30.649  24.523  13.898
51194W        W23619   4.284  41.747   4.058
51195W        W23620  34.563   8.275   1.356
51196W        W23621  25.462  11.481   2.220
51197W        W23622   9.653   7.273   4.545
51198W        W23623  33.505  30.186  14.914
51199W        W23624  32.145  26.326   4.643
51200W        W23625  25.037   2.990  12.897
51201W        W23626  16.628  30.364  13.918
51202W        W23627  16.103  38.812  11.631
51203W        W23628  13.771  37.943   4.499
51204W        W23629  42.761  27.074  12.017
51205W        W23630  22.415   4.990  10.857
51206W        W23631  39.614   5.352   4.533
51207W        W23632   3.375  35.429  11.068
51208W        W23633   3.320  44.988  12.521
51209W        W23634  36.951  40.071  13.748
51210W        W23635  11.635  19.290   2.996
51211W        W23636   9.566  27.967   1.730
51212W        W23637   4.983  35.800  10.993
51213W        W23638  10.241  18.813   5.110
51214W        W23639  38.832  32.534  14.476
51215W        W23640  23.645   6.733   3.678
51216W        W23641  38.760  41.793  14.390
51217W        W23642  31.549  42.354  13.115
51218W        W23643  41.871  31.048   3.144
51219W        W23644  17.677   8.665  14.515
51220W        W23645  18.513  16.042   3.650
51221W        W23646  35.897  26.431  14.528
51222W        W23647  12.711   6.664  12.430
51223W        W23648  23.808  11.131   9.671
51224W        W23649  44.468  17.318   2.870
51225W        W23650  24.551  43.418  14.957
51226W        W23651   3.341   6.084  10.050
51227W        W23652  26.581  28.487   3.206
51228W        W23653  18.107  16.712  10.735
51229W        W23654  30.042  42.288  12.820
51230W        W23655  27.897  37.543   4.094
51231W        W23656  22.328   2.215  14.406
51232W        W23657  21.600  23.967  10.864
51233W        W23658  33.283  25.351  14.286
51234W        W23659  23.133  23.527  12.413
51235W        W23660  33.092   7.951   0.472
51236W        W23661  32.293  36.296  14.884
51237W        W23662  22.307   7.784  13.926
51238W        W23663  25.062  23.034   3.048
51239W        W23664  17.793  26.466  10.608
51240W        W23665  10.633  40.533   1.102
51241W        W23666  30.119   7.328  11.638
51242W        W23667  16.796  41.436   2.647
51243W        W23668  38.454  25.445   4.085
51244W        W23669  13.235  31.991   2.628
51245W        W23670   1.354  40.141  11.119
51246W        W23671   6.812  16.416   1.882
51247W        W23672   9.216   1.850  13.437
51248W        W23673   1.992  10.226   3.603
51249W        W23674   1.797  28.896   2.166
51250W        W23675  15.810  29.500  10.218
51251W        W23676  38.537  10.735  11.122
51252W        W23677  42.879  11.357  12.761
51253W        W23678   0.288  29.667   4.105
51254W        W23679  33.816  13.266   1.783
51255W        W23680  20.601  34.852   3.767
51256W        W23681   2.932  11.700  14.876
51257W        W23682  10.700  28.214   3.306
51258W        W23683  12.302  23.729   2.765
51259W        W23684   2.511  13.724   3.637
51260W        W23685  10.518   4.743   4.641
51261W        W23686  25.316  18.400   2.894
51262W        W23687  19.528  20.463   1.797
51263W        W23688  23.552  43.371   3.560
51264W        W23689  33.366  43.291   1.918
51265W        W23690  40.840  27.523   2.918
51266W        W23691   2.512  31.137  11.201
51267W        W23692  25.485  11.997   2.271
51268W        W23693   6.344  10.205  10.412
51269W        W23694  23.925  27.480   0.806
51270W        W23695  39.932  23.818  13.068
51271W        W23696   6.239  21.733   1.169
51272W        W23697  29.008  20.110   4.794
51273W        W23698  15.697  17.882   2.683
51274W        W23699  31.112  32.725   0.680
51275W        W23700  37.039  21.956  14.953
51276W        W23701   1.377   5.395  10.530
51277W        W23702   7.862   0.902   1.140
51278W        W23703  38.329  13.197   0.224
51279W        W23704  28.446  32.037   4.429
51280W        W23705  43.086  16.229   1.738
51281W        W23706  15.784  33.121   3.682
51282W        W23707   4.433  37.038   4.202
51283W        W23708  41.544  16.146  13.568
51284W        W23709  15.188  41.479  13.881
51285W        W23710  36.528   5.020   0.785
51286W        W23711  17.129   0.902   0.495
51287W        W23712   7.775  12.087  12.629
51288W        W23713  17.993  35.841  12.167
51289W        W23714  24.484  23.280  13.830
51290W        W23715   8.543  23.518   1.686
51291W        W23716  39.471   7.244   3.166
51292W        W23717   1.820   4.692   1.615
51293W        W23718  38.714   3.175  12.079
51294W        W23719  34.711   1.657   0.227
51295W        W23720  21.502  33.001  14.952
51296W        W23721  39.041  25.993   3.546
51297W        W23722  10.655  38.759   4.876
51298W        W23723   5.269  39.289   3.841
51299W        W23724  13.699  18.774  12.623
51300W        W23725  16.359  13.566   1.740
51301W        W23726  36.923  43.364   3.257
51302W        W23727  11.751  39.390   0.013
51303W        W23728   6.948  27.719  11.203
51304W        W23729   3.529  29.050   0.878
51305W        W23730  20.342  31.653  11.555
51306W        W23731  21.565  10.139   4.098
51307W        W23732  25.505  26.516  12.869
51308W        W23733  33.407  10.844  13.962
51309W        W23734  44.393  43.040   1.967
51310W        W23735  23.481  26.495  14.373
51311W        W23736  27.699  10.773   4.120
51312W        W23737  19.967  25.508  11.605
51313W        W23738  41.526   6.819   4.811
51314W        W23739  17.125  13.807  11.165
51315W        W23740  27.096  41.937  11.881
51316W        W23741  38.163  29.373   0.411
51317W        W23742   0.979   8.758  12.074
51318W        W23743  38.155  14.927   1.871
51319W        W23744  22.094   7.285   4.803
51320W        W23745   1.758  21.123  11.790
51321W        W23746  26.727  43.530   3.385
51322W        W23747  44.910  18.761   4.956
51323W        W23748  17.644  21.687   0.934
51324W        W23749  13.155  41.987   4.160
51325W        W23750  13.317  44.710  12.090
51326W        W23751  35.992  24.900  11.600
51327W        W23752  23.331  16.096  12.146
51328W        W23753   2.796  31.465   0.738
51329W        W23754  21.169   8.015   1.317
51330W        W23755   8.604   4.021   1.772
51331W        W23756  23.559  33.404   4.894
51332W        W23757   4.644  23.783  14.838
51333W        W23758  22.545   9.726   1.328
51334W        W23759  10.433  34.974  11.154
51335W        W23760  28.412  34.820  11.564
51336W        W23761  43.687   0.597   2.192
51337W        W23762  12.843   1.353   2.388
51338W        W23763  31.990  29.358  10.946
51339W        W23764  16.880   4.939  10.129
51340W        W23765  29.424  20.551  11.581
51341W        W23766  22.734  27.165   0.000
51342W        W23767  18.860  31.052  12.054
51343W        W23768  15.037  16.273  11.511
51344W        W23769  37.620  20.775  11.742
51345W        W23770  35.869  15.540  14.248
51346W        W23771  42.111  22.887   0.734
51347W        W23772   7.752  25.266  11.648
51348W        W23773  39.518  33.093  13.122
51349W        W23774   0.829   4.543   0.554
51350W        W23775  43.400  27.246  14.500
51351W        W23776  33.885  33.900   1.342
51352W        W23777  37.495  34.019   3.127
51353W        W23778  15.812  27.129   3.610
51354W        W23779  32.436  38.802  14.461
51355W        W23780  14.143  22.051  11.677
51356W        W23781  25.024  38.472  12.825
51357W        W23782  23.345  26.049  14.567
51358W        W23783   6.775  24.097   0.560
51359W        W23784  26.482  10.428   4.551
51360W        W23785   5.201   1.691  11.634
51361W        W23786  33.417  40.841   5.118
51362W        W23787  26.279  28.864  11.179
51363W        W23788  11.623  44.426  12.566
51364W        W23789  32.008  13.605  14.314
51365W        W23790   1.141  43.848  13.097
51366W        W23791  17.981  19.987   2.935
51367W        W23792  12.448  13.699   0.682
51368W        W23793  12.253   6.282   1.850
51369W        W23794  36.646  26.426  12.033
51370W        W23795  44.035  15.215   1.466
51371W        W23796  21.731  16.734  11.611
51372W        W23797   2.186  11.145   1.608
51373W        W23798  15.661  42.724  14.688
51374W        W23799   4.204   2.996   2.206
51375W        W23800   8.861  23.434   4.812
51376W        W23801  39.785  24.305  11.587
51377W        W23802  44.353   2.822   1.766
51378W        W23803   4.804  22.116  13.552
51379W        W23804  44.956  15.567  12.165
51380W        W23805  28.936  14.749  11.669
51381W        W23806  12.589  10.667  13.534
51382W        W23807  11.174  37.796  10.651
51383W        W23808   4.997  39.986   2.639
51384W        W23809   9.377  17.041   4.306
51385W        W23810  32.308  18.628   1.897
51386W        W23811  41.496   3.176   4.471
51387W        W23812  37.792  10.141   1.431
51388W        W23813  17.863  33.279   5.034
51389W        W23814  29.153  41.764   3.381
51390W        W23815  11.358  34.423   3.974
51391W        W23816   6.710   7.965  10.859
51392W        W23817   1.736   8.817  12.668
51393W        W23818   6.978  18.585  13.467
51394W        W23819   1.631  34.961   1.012
51395W        W23820  41.415   4.759  12.629
51396W        W23821  29.505  12.067   3.278
51397W        W23822  12.829  10.890  12.001
51398W        W23823  33.064  33.356  14.478
51399W        W23824  34.115  22.128  11.179
51400W        W23825  27.596  22.748   4.085
51401W        W23826  25.481  35.140   1.148
51402W        W23827  29.571  11.781   4.158
51403W        W23828  27.585  39.510   2.313
51404W        W23829  37.037  16.548  13.043
51405W        W23830  42.868  30.116   2.736
51406W        W23831   4.708   7.480   1.233
51407W        W23832  17.047  36.867   0.324
51408W        W23833  25.705   6.149  12.643
51409W        W23834  15.494  17.364  14.373
51410W        W23835  37.494   7.767   0.248
51411W        W23836  34.311  23.102  12.577
51412W        W23837  18.297  15.970  12.078
51413W        W23838  21.538  35.563  11.752
51414W        W23839  42.392  20.267   3.743
51415W        W23840  33.364  31.253   0.485
51416W        W23841  10.216   5.102  14.273
51417W        W23842   2.282  10.417  10.668
51418W        W23843  21.488  24.192  12.633
51419W        W23844   6.105   7.491  11.155
51420W        W23845  37.446  25.735   4.258
51421W        W23846   7.380   3.786   4.158
51422W        W23847   1.468   3.359  13.934
51423W        W23848  28.305  23.990  10.618
51424W        W23849  12.761   6.500   4.035
51425W        W23850  43.366  27.829   3.597
51426W        W23851   0.909  21.595   3.824
51427W        W23852  37.833   5.373  12.506
51428W        W23853  32.380  33.890  11.572
51429W        W23854  38.592   3.748   2.881
51430W        W23855  44.377  27.698   2.215
51431W        W23856   8.231  21.072  11.082
51432W        W23857  20.584   8.854  13.458
51433W        W23858  37.478  43.727  12.095
51434W        W23859   1.313  28.112  12.848
51435W        W23860  33.575   5.748  11.538
51436W        W23861  27.380   5.837   4.365
51437W        W23862  42.017   7.695   2.659
51438W        W23863   7.874  14.748  12.900
51439W        W23864  21.919  13.836  13.829
51440W        W23865  24.054  31.478   3.468
51441W        W23866  21.497  23.197   4.626
51442W        W23867  21.742  18.481   2.215
51443W        W23868  18.648  33.372   0.287
51444W        W23869  21.116  42.487   3.312
51445W        W23870  36.090  10.878   0.337
51446W        W23871  12.742   0.831  14.026
51447W        W23872  30.970  23.999  10.251
51448W        W23873   4.497  32.370  14.249
51449W        W23874  33.837  44.825  12.127
51450W        W23875  26.199   4.474  13.023
51451W        W23876  11.873  17.828   4.072
51452W        W23877  19.836  31.889  12.561
51453W        W23878  42.007  34.750   2.161
51454W        W23879  36.107  38.916   4.536
51455W        W23880   2.853  42.627  14.581
51456W        W23881   1.248   8.199   3.731
51457W        W23882  34.557  29.899  13.396
51458W        W23883  27.097  15.455  11.995
51459W        W23884   0.828  12.529  10.477
51460W        W23885  24.362  15.870  14.796
51461W        W23886   4.481  43.988  14.116
51462W        W23887  44.388  30.998   0.309
51463W        W23888  34.529  19.167  11.147
51464W        W23889  30.752  22.928  12.504
51465W        W23890  26.581   5.238  14.920
51466W        W23891  40.497  30.033  12.022
51467W        W23892  21.433  25.529   0.942
51468W        W23893  12.601  10.702   2.224
51469W        W23894  34.400   4.224   4.267
51470W        W23895  24.298  26.620  13.442
51471W        W23896  42.956   8.856  10.765
51472W        W23897  13.604   2.628  14.860
51473W        W23898  36.912  37.396   1.787
51474W        W23899  33.726  36.070  12.227
51475W        W23900  29.523   2.417   3.811
51476W        W23901  32.134  32.473  11.555
51477W        W23902  11.376  40.933  11.827
51478W        W23903  39.939  17.128   3.134
51479W        W23904  43.159   8.983  12.980
51480W        W23905  11.436  39.818   2.617
51481W        W23906   2.935   6.253   2.132
51482W        W23907  21.917  24.564   3.439
51483W        W23908  25.043  40.192   4.968
51484W        W23909  32.571  37.306  10.309
51485W        W23910  36.462   3.678   4.793
51486W        W23911  12.037  40.409   2.679
51487W        W23912  23.966  21.916  10.967
51488W        W23913  27.109  13.763   3.732
51489W        W23914   7.836   0.205  11.048
51490W        W23915  33.399  44.082   3.695
51491W        W23916  36.562  41.821  13.994
51492W        W23917  30.888   3.856  13.916
51493W        W23918   3.246  37.556  14.001
51494W        W23919  36.228  31.733   3.394
51495W        W23920   4.863  44.312   2.438
51496W        W23921  21.080  43.939  12.765
51497W        W23922   8.813   1.943  12.058
51498W        W23923  17.693   6.318  10.745
51499W        W23924  22.460  28.174   1.305
51500W        W23925  35.036  10.494  11.100
51501W        W23926   8.738  31.366  14.804
51502W        W23927  32.870  35.529  12.629
51503W        W23928  25.395  32.106  14.835
51504W        W23929  40.879  24.534  12.055
51505W        W23930  10.791  40.154   4.817
51506W        W23931  43.705  12.181  13.526
51507W        W23932  39.923   9.192  14.661
51508W        W23933  12.151  31.140   4.757
51509W        W23934  30.321  41.202   3.587
51510W        W23935   4.751   5.149   3.233
51511W        W23936  35.362  17.263   1.404
51512W        W23937   6.184   7.670  14.369
51513W        W23938  21.290  42.454  12.906
51514W        W23939  16.314  15.669   4.267
51515W        W23940  32.350  13.758  13.713
51516W        W23941  41.857  27.020  13.282
51517W        W23942  16.041  35.800  14.426
51518W        W23943  27.240  25.214  13.049
51519W        W23944   9.631  18.370   1.399
51520W        W23945  38.108   8.396   5.478
51521W        W23946  40.783   5.092   0.519
51522W        W23947   3.941  32.664  13.982
51523W        W23948  36.275  37.667  10.863
51524W        W23949  16.069  23.584   2.681
51525W        W23950  26.655  11.367  14.810
51526W        W23951   6.471  28.079   1.104
51527W        W23952  29.526  16.299  13.859
51528W        W23953  21.248  13.817   0.265
51529W        W23954   9.558   8.265  12.254
51530W        W23955  38.189  11.181   3.061
51531W        W23956   1.308   3.187   4.713
51532W        W23957  29.724  38.884  11.543
51533W        W23958  17.640  24.247   3.283
51534W        W23959   7.239  28.965   0.264
51535W        W23960  13.864  31.038  10.738
51536W        W23961  34.518  36.051   2.035
51537W        W23962   5.955   0.643   2.735
51538W        W23963  37.751  28.702  14.422
51539W        W23964  17.673  17.558  13.958
51540W        W23965  36.072  17.541   3.118
51541W        W23966  11.785  10.369  11.097
51542W        W23967  13.262   2.730   0.762
51543W        W23968  14.384  32.396  12.476
51544W        W23969  21.200  11.033   5.105
51545W        W23970  16.542   6.719  10.988
51546W        W23971  10.360  24.740  13.069
51547W        W23972  21.242  15.406  11.587
51548W        W23973  30.840  19.680   2.744
51549W        W23974  16.202   6.689   0.193
51550W        W23975  11.225  19.528   4.105
51551W        W23976   8.585  43.589   3.893
51552W        W23977  37.219  14.153   2.867
51553W        W23978  30.110  44.917   3.095
51554W        W23979   8.392   9.603  12.546
51555W        W23980   9.860  32.620  11.067
51556W        W23981  36.914   4.045  12.857
51557W        W23982  15.877  23.713  14.480
51558W        W23983  38.414   3.234  13.014
51559W        W23984  13.222  38.070   2.744
51560W        W23985  21.238  42.886  11.350
51561W        W23986   1.249  24.952  13.076
51562W        W23987  34.552  10.742   2.417
51563W        W23988  41.583   9.727   3.763
51564W        W23989  24.265  29.997  14.914
51565W        W23990  28.461  17.605  12.817
51566W        W23991   8.844  28.091   4.945
51567W        W23992  31.651  39.503   3.832
51568W        W23993  23.185   2.666  12.446
51569W        W23994  21.125  41.264   0.911
51570W        W23995   8.338  38.813  13.494
51571W        W23996  22.643  12.210   9.875
51572W        W23997  33.572  22.817  12.233
51573W        W23998  31.644  24.609   2.348
51574W        W23999  37.613  28.181  14.263
51575W        W24000   7.770  32.261   0.470
51576W        W24001  42.029  16.766   2.184
51577W        W24002  10.318   9.690   3.748
51578W        W24003  32.017   1.194   2.858
51579W        W24004  32.037  36.909   4.380
51580W        W24005  17.642  35.136   3.757
51581W        W24006  42.589  41.815  10.796
51582W        W24007  37.905  24.714   0.955
51583W        W24008  38.547  18.109   3.159
51584W        W24009  16.187   0.316   4.111
51585W        W24010  35.485  40.039   2.328
51586W        W24011  31.470  28.987  14.066
51587W        W24012  14.818  37.078   3.631
51588W        W24013  25.084  39.738   3.763
51589W        W24014   3.694  28.469  13.488
51590W        W24015   6.204  28.669   3.722
51591W        W24016  16.567  22.187  11.945
51592W        W24017  27.142  42.728   3.184
51593W        W24018   6.741  44.369  14.873
51594W        W24019  26.081  38.988   1.831
51595W        W24020   7.296   0.065  12.191
51596W        W24021  43.486   4.675   0.955
51597W        W24022  39.354  37.931  14.845
51598W        W24023   5.200   5.957   3.334
51599W        W24024  43.133   6.263   4.900
51600W        W24025  33.298  19.121  12.592
51601W        W24026  15.766  28.179   4.351
51602W        W24027  31.562  30.049  13.817
51603W        W24028  17.141  36.462  13.978
51604W        W24029  44.841  32.587   2.299
51605W        W24030  19.201   8.666   2.893
51606W        W24031  42.842  22.179  12.466
51607W        W24032  44.478  37.775   3.821
51608W        W24033  21.532  29.918  13.826
51609W        W24034   7.193  32.196  13.810
51610W        W24035  44.413  36.956  11.671
51611W        W24036  15.321  14.966   2.719
51612W        W24037  15.772  29.622  11.090
51613W        W24038   6.437   0.875   0.489
51614W        W24039  13.125  29.124  14.369
51615W        W24040   3.411   9.430   4.654
51616W        W24041   0.349  28.923   2.771
51617W        W24042   6.430  19.020   2.364
51618W        W24043   4.881  22.636  11.964
51619W        W24044  41.956  13.269   1.871
51620W        W24045  32.106   2.507  11.990
51621W        W24046  20.319  37.756   2.789
51622W        W24047  13.917  41.820  13.477
51623W        W24048   1.238  44.566  11.962
51624W        W24049  28.115  34.492   0.175
51625W        W24050   2.388  26.256  14.978
51626W        W24051  21.279   4.197   0.507
51627W        W24052  22.413  18.776   4.896
51628W        W24053  20.494  26.715  11.171
51629W        W24054  15.777  17.149  14.017
51630W        W24055   2.387  27.085  13.280
51631W        W24056  19.058  26.739   0.370
51632W        W24057  27.921  25.836  11.641
51633W        W24058  28.631  20.184   2.597
51634W        W24059  27.204  13.208   1.269
51635W        W24060   7.089  30.665   3.314
51636W        W24061  22.677  44.834   0.973
51637W        W24062  27.043  43.808  13.518
51638W        W24063  18.720  16.757   3.273
51639W        W24064   5.658  43.336  14.394
51640W        W24065  16.064  32.566  12.824
51641W        W24066  25.560   5.199  13.036
51642W        W24067   3.785  33.379  13.327
51643W        W24068  32.628  40.874  13.460
51644W        W24069  42.052   0.176   4.280
51645W        W24070  13.769  43.575  13.007
51646W        W24071  29.599  20.587   4.142
51647W        W24072  44.052  21.228  14.755
51648W        W24073   0.998  43.781  11.572
51649W        W24074  34.538  21.976  12.088
51650W        W24075   6.737   6.250  11.051
51651W        W24076   7.926  10.803  14.864
51652W        W24077  10.781   6.317   1.391
51653W        W24078  13.809  15.362  10.918
51654W        W24079  39.328  19.598  14.313
51655W        W24080  41.807  37.613   4.113
51656W        W24081  42.324  37.603   3.242
51657W        W24082  43.917  26.031  13.497
51658W        W24083  27.443  29.342  13.014
51659W        W24084   6.800  23.216  12.091
51660W        W24085  22.131  43.219  12.825
51661W        W24086  11.595   0.265  12.971
51662W        W24087  11.713   8.470  10.646
51663W        W24088  40.218  39.151   2.274
51664W        W24089  43.820   6.227  10.555
51665W        W24090   2.959  17.667   2.477
51666W        W24091  35.975  44.750  14.801
51667W        W24092  32.933  33.398  13.885
51668W        W24093  18.103   9.352  13.470
51669W        W24094  42.420  34.601  11.037
51670W        W24095  41.136  13.798   2.247
51671W        W24096  22.357   1.291  11.475
51672W        W24097  29.218  44.216  12.811
51673W        W24098  14.113  25.056   4.195
51674W        W24099  32.111  20.565  14.451
51675W        W24100   6.708  19.976  14.205
51676W        W24101  44.839  25.316  10.668
51677W        W24102  27.519  38.506  12.074
51678W        W24103  44.824  31.652   0.500
51679W        W24104  10.477  37.804  13.492
51680W        W24105  42.100  16.814  14.803
51681W        W24106  42.454  37.711  12.797
51682W        W24107  35.495  33.519  10.693
51683W        W24108   8.267   2.917   2.617
51684W        W24109  16.571  32.095   5.107
51685W        W24110  35.311  31.153   2.616
51686W        W24111  30.570  35.669   4.232
51687W        W24112  37.956  41.427  11.013
51688W        W24113  39.450  12.296   2.883
51689W        W24114  22.504  35.026   3.285
51690W        W24115  22.243  28.466  11.961
51691W        W24116  40.058  11.631  12.589
51692W        W24117   5.334  36.224   3.620
51693W        W24118  36.171  35.843  11.975
51694W        W24119   6.826  17.562  13.310
51695W        W24120  11.218   8.284  13.163
51696W        W24121  32.880  15.157   2.150
51697W        W24122  15.233  12.908  12.377
51698W        W24123  17.783   9.409   4.315
51699W        W24124  37.929  25.153   0.293
51700W        W24125  41.100   6.861   1.796
51701W        W24126  20.437  21.750  14.753
51702W        W24127  20.300  22.748  11.928
51703W        W24128  44.408  33.842  13.488
51704W        W24129   4.236  18.088  13.000
51705W        W24130  30.978  44.686   2.807
51706W        W24131  33.545   8.682   3.189
51707W        W24132  16.799   5.333  12.128
51708W        W24133  29.485  31.225   1.898
51709W        W24134  25.804   0.005  11.623
51710W        W24135   1.885  42.602  11.154
51711W        W24136  41.023  10.014  14.451
51712W        W24137  18.822  14.764   3.630
51713W        W24138  14.631   4.302   3.920
51714W        W24139   9.728  10.774  10.878
51715W        W24140   7.156  18.225  11.636
51716W        W24141   7.394  42.236  11.200
51717W        W24142   6.687  16.362   2.383
51718W        W24143  21.634  28.818   0.851
51719W        W24144  44.593  36.953   0.308
51720W        W24145  20.216  15.371  13.767
51721W        W24146  32.495  27.535   0.203
51722W        W24147  29.120  24.458  12.947
51723W        W24148   4.237  30.333   5.035
51724W        W24149  13.663   3.772   3.138
51725W        W24150  27.655  28.038   3.199
51726W        W24151   1.337  36.467  10.791
51727W        W24152  13.115  36.449   4.106
51728W        W24153   1.006  30.167   3.804
51729W        W24154  40.000  35.213   3.558
51730W        W24155  34.951  24.396  11.617
51731W        W24156  41.734  10.354   2.444
51732W        W24157   7.898   8.501   2.919
51733W        W24158  37.365   3.446   2.170
51734W        W24159  43.892   3.745  10.900
51735W        W24160  39.097  13.195   4.198
51736W        W24161  43.411  35.916  13.499
51737W        W24162  34.586  25.481   0.496
51738W        W24163   0.421  13.102  11.697
51739W        W24164  43.916  44.194  14.441
51740W        W24165  40.212  28.464  14.497
51741W        W24166  25.788   4.910  11.760
51742W        W24167  36.073  35.119  11.640
51743W        W24168   2.308  32.954   1.465
51744W        W24169  29.376  39.063  12.502
51745W        W24170  16.132  25.917  11.692
51746W        W24171  41.743   0.199  11.206
51747W        W24172  31.898   6.439  14.433
51748W        W24173   1.168  16.112  13.922
51749W        W24174  36.843  12.237   2.190
51750W        W24175  34.598  26.003  14.289
51751W        W24176  13.358   8.366  14.691
51752W        W24177  40.375  25.430   4.718
51753W        W24178  43.931  26.710   0.296
51754W        W24179   8.120  35.491   1.337
51755W        W24180  39.874  21.907   2.684
51756W        W24181  14.811  31.189  14.408
51757W        W24182  35.869  42.346   2.717
51758W        W24183  41.994  32.527   4.211
51759W        W24184  26.744  31.265  11.118
51760W        W24185  40.390  28.436   3.356
51761W        W24186  43.255  31.352   4.249
51762W        W24187  25.414  15.835   4.558
51763W        W24188  35.435  34.266  14.823
51764W        W24189  20.587  24.027   4.881
51765W        W24190  37.001  18.237   4.283
51766W        W24191  13.291  37.284  11.638
51767W        W24192  16.403  21.021   3.204
51768W        W24193  17.524  27.381  10.401
51769W        W24194  23.471   3.744  12.179
51770W        W24195  28.943   8.376   3.341
51771W        W24196  38.469  30.476   1.844
51772W        W24197  43.406  13.696  12.686
51773W        W24198  36.476  19.985   4.566
51774W        W24199  31.721  41.673  11.039
51775W        W24200  37.065   7.957  10.648
51776W        W24201  29.917  12.413   0.685
51777W        W24202  42.912  44.820   2.684
51778W        W24203  32.418  33.072   0.385
51779W        W24204  34.543  33.418  12.635
51780W        W24205  38.338  43.775   2.820
51781W        W24206   0.925   1.310   4.542
51782W        W24207  29.989  23.590  10.956
51783W        W24208  31.323  26.939  13.887
51784W        W24209  43.249  32.195  13.196
51785W        W24210  40.716  34.345   0.444
51786W        W24211   5.811  11.502  13.710
51787W        W24212  20.784  38.442  11.560
51788W        W24213  33.689  10.861   4.818
51789W        W24214  24.868  39.038  11.662
51790W        W24215  36.343  30.708  13.453
51791W        W24216  13.853  31.890   4.615
51792W        W24217  24.078  40.105  12.073
51793W        W24218  12.742  43.126   1.706
51794W        W24219  31.883  23.060  12.607
51795W        W24220  24.460  39.760  11.999
51796W        W24221  28.014  22.693  13.463
51797W        W24222  16.600  20.036  10.610
51798W        W24223  20.691   6.485   3.660
51799W        W24224  16.335  35.255   0.324
51800W        W24225  25.503  14.896   3.580
51801W        W24226  27.480  37.310   4.273
51802W        W24227  31.378  19.006   2.468
51803W        W24228  38.029  14.376  11.473
51804W        W24229  32.689  20.787  12.823
51805W        W24230  22.741  27.929  12.549
51806W        W24231  17.691  16.234   1.824
51807W        W24232  24.796  44.454  13.047
51808W        W24233  25.207  25.469   4.171
51809W        W24234  14.115  42.554   3.768
51810W        W24235  44.952  38.494   0.382
51811W        W24236  20.736  34.656  12.649
51812W        W24237  38.453  26.003  14.862
51813W        W24238  40.935  38.859  13.342
51814W        W24239   4.562  13.808  11.457
51815W        W24240  39.357  38.824  14.325
51816W        W24241   3.544  16.643  12.314
51817W        W24242  15.530  22.107  11.966
51818W        W24243  44.756  11.607  14.057
51819W        W24244  13.802  38.022   1.332
51820W        W24245  10.402   0.867   3.773
51821W        W24246  40.399  15.501   0.384
51822W        W24247  22.181  28.901   0.699
51823W        W24248  34.404  38.602   3.687
51824W        W24249  43.019   2.273   1.124
51825W        W24250  11.856  21.628   4.156
51826W        W24251  16.567  26.625  11.223
51827W        W24252  27.250  21.774   2.462
51828W        W24253  33.478  17.119  11.914
51829W        W24254  18.990   7.897  11.594
51830W        W24255   0.739  36.389   1.989
51831W        W24256  21.211  24.755   3.990
51832W        W24257  36.899  37.605   2.268
51833W        W24258  28.286  26.228  14.727
51834W        W24259  36.503  42.934   2.934
51835W        W24260  24.887   9.286   5.319
51836W        W24261  15.389  31.247  11.583
51837W        W24262  30.833  31.142   3.422
51838W        W24263  12.773  14.999  13.841
51839W        W24264  21.309  22.134   3.893
51840W        W24265  37.029  17.170   3.136
51841W        W24266  13.883  10.553   3.633
51842W        W24267  38.557  18.732   4.181
51843W        W24268  15.319  38.969  10.694
51844W        W24269  10.028   3.622  14.897
51845W        W24270  22.248  41.066  11.547
51846W        W24271   2.899  33.577   1.877
51847W        W24272  44.173  40.592   1.745
51848W        W24273  37.559  30.974   1.144
51849W        W24274  15.928  24.399   1.813
51850W        W24275  36.945   7.783  12.080
51851W        W24276   8.805  42.462  14.237
51852W        W24277  32.573  24.936  14.038
51853W        W24278  40.780  42.657  14.447
51854W        W24279  34.652  19.145   3.131
51855W        W24280  31.926  27.054  10.749
51856W        W24281  16.111  42.297  12.963
51857W        W24282  31.471  28.628  13.529
51858W        W24283  36.045  13.722   4.562
51859W        W24284  28.378  30.899   3.789
51860W        W24285  12.690  31.401  14.519
51861W        W24286  13.835  30.657  11.547
51862W        W24287  20.778  33.205   0.442
51863W        W24288  19.209  31.620   4.585
51864W        W24289  36.966  21.557  11.415
51865W        W24290  43.424  25.712   2.265
51866W        W24291  34.323  32.745  12.160
51867W        W24292   3.915  35.431   0.782
51868W        W24293   0.187  39.110   4.029
51869W        W24294  24.582  44.257   0.249
51870W        W24295  33.980  31.406   0.277
51871W        W24296   5.337  42.990   2.153
51872W        W24297  30.703  10.621   2.693
51873W        W24298  15.286  19.100   4.549
51874W        W24299  17.459   7.080  13.858
51875W        W24300   0.944   6.317   2.322
51876W        W24301  12.844  37.934   3.195
51877W        W24302  41.016  22.294   4.623
51878W        W24303  31.628  28.640   1.115
51879W        W24304   7.293  29.481   2.659
51880W        W24305   4.787  25.182   3.555
51881W        W24306  24.620  37.788   4.669
51882W        W24307  32.562  44.211   0.326
51883W        W24308   8.411   1.845  14.002
51884W        W24309  28.929   6.297  10.419
51885W        W24310  30.363  42.916  11.212
51886W        W24311  23.627  37.955  14.882
51887W        W24312   1.583   3.040   2.263
51888W        W24313  24.669  22.574   1.698
51889W        W24314  43.006   4.917  11.951
51890W        W24315  29.967   1.235   3.739
51891W        W24316  34.533  23.441  13.456
51892W        W24317  25.626  32.501   4.128
51893W        W24318  20.315  33.412   0.055
51894W        W24319  30.118  30.579  10.483
51895W        W24320   6.599  23.220  12.574
51896W        W24321  15.624   1.447   3.945
51897W        W24322  36.411  32.120  11.629
51898W        W24323  25.510  12.626   4.726
51899W        W24324  34.324  14.428  14.298
51900W        W24325   8.145  32.554   2.243
51901W        W24326  35.351  13.850  13.411
51902W        W24327  29.920  39.390  12.610
51903W        W24328  24.555  25.088   0.873
51904W        W24329  39.156  43.513   0.527
51905W        W24330   5.634  27.568   0.100
51906W        W24331  31.870  12.156  12.007
51907W        W24332   2.067  29.540  13.011
51908W        W24333  25.609  14.391   3.497
51909W        W24334  13.058   1.425  14.603
51910W        W24335  13.120   9.850   2.164
51911W        W24336  23.935  26.079  11.182
51912W        W24337  17.533  11.621  11.239
51913W        W24338  23.021  15.618   4.199
51914W        W24339  24.222  29.548  12.734
51915W        W24340  36.627   1.135  11.531
51916W        W24341   6.046  22.326  11.563
51917W        W24342  43.683   3.403   4.175
51918W        W24343   0.528   6.354  11.442
51919W        W24344  29.691  43.337   2.362
51920W        W24345  38.315   7.406  11.366
51921W        W24346  37.939  18.029  12.576
51922W        W24347   5.525   1.942  14.511
51923W        W24348   2.437  25.373  11.809
51924W        W24349  34.399   2.313   3.652
51925W        W24350  44.937  12.428  14.373
51926W        W24351  37.181  36.632  14.021
51927W        W24352   5.583   0.478   0.584
51928W        W24353   5.591  27.033  13.047
51929W        W24354  31.303   6.783   3.291
51930W        W24355  23.032  36.426  12.513
51931W        W24356  30.908   4.829  14.883
51932W        W24357  35.262  25.478  13.953
51933W        W24358  12.653  10.251  14.493
51934W        W24359   4.979   3.891   0.650
51935W        W24360  14.774   3.785   3.665
51936W        W24361   6.766  19.492   1.511
51937W        W24362  20.193  32.444   3.605
51938W        W24363  13.392  37.836   4.163
51939W        W24364   4.324  26.930  14.294
51940W        W24365   2.370  16.701   1.885
51941W        W24366  22.567  24.149   4.843
51942W        W24367   2.551  34.748  14.885
51943W        W24368  34.085  15.816   4.613
51944W        W24369  14.044   1.954  11.185
51945W        W24370  24.249   5.353  12.007
51946W        W24371  16.332   1.559   0.361
51947W        W24372   7.144   3.096   4.647
51948W        W24373  15.353  32.626  13.534
51949W        W24374  39.763  20.107   1.952
51950W        W24375  18.311   6.376   2.637
51951W        W24376  37.500  36.320  14.279
51952W        W24377  26.768  25.538   0.839
51953W        W24378  40.786  19.250   1.754
51954W        W24379  43.086   8.495   1.764
51955W        W24380  37.916  30.921   3.198
51956W        W24381  31.543  15.786  12.821
51957W        W24382  35.637  44.277   0.786
51958W        W24383  11.183  36.612  13.634
51959W        W24384  35.538   8.778  12.966
51960W        W24385   4.201   2.729   1.754
51961W        W24386  37.123  32.089  10.658
51962W        W24387  28.771  15.147   4.704
51963W        W24388  38.329  16.627  14.436
51964W        W24389   3.751   7.448  12.897
51965W        W24390   8.650  18.330   0.195
51966W        W24391  20.008  27.757  10.994
51967W        W24392  35.895  39.725   4.211
51968W        W24393  37.583  44.526  11.663
51969W        W24394  15.298  11.241   4.444
51970W        W24395  28.766  14.303   1.745
51971W        W24396  14.356  44.536  11.703
51972W        W24397  40.844  22.771  14.299
51973W        W24398   8.255   5.186   1.358
51974W        W24399   5.192  41.004   3.375
51975W        W24400   2.634  44.348  13.878
51976W        W24401  31.668  10.632   0.866
51977W        W24402  18.959  28.931   1.704
51978W        W24403   4.410  27.807   0.192
51979W        W24404  30.530  37.640  11.536
51980W        W24405  36.997  27.022   2.269
51981W        W24406  38.236  28.574  11.220
51982W        W24407  23.579  23.536  11.199
51983W        W24408  33.002   1.228   3.838
51984W        W24409  13.083  40.930   4.132
51985W        W24410  31.015  42.380  14.590
51986W        W24411  17.341  18.307   5.015
51987W        W24412  31.135  23.291   0.077
51988W        W24413  17.000  34.351  13.414
51989W        W24414   1.923  11.714  14.550
51990W        W24415  39.285  42.841   2.183
51991W        W24416  11.354  30.691   1.814
51992W        W24417   5.277  11.390   4.730
51993W        W24418  27.053  25.745  10.720
51994W        W24419  19.520  36.907   0.486
51995W        W24420  40.120  12.997  14.503
51996W        W24421  25.575   9.664  11.930
51997W        W24422  44.941   0.785  14.497
51998W        W24423  13.047   6.618   0.826
51999W        W24424  30.628  28.613   1.423
52000W        W24425  10.400  33.613  12.861
52001W        W24426  34.504  10.334   4.602
52002W        W24427  36.986  36.160   1.500
52003W        W24428   0.676  11.245   3.336
52004W        W24429  40.918  18.712  14.035
52005W        W24430  32.985  17.760   2.385
52006W        W24431  14.154  37.374  14.016
52007W        W24432  35.980  35.367   0.873
52008W        W24433  34.971   6.187   2.284
52009W        W24434  43.308  42.953   1.144
52010W        W24435   4.213  10.652  14.727
52011W        W24436  30.391  12.270   3.797
52012W        W24437  29.437   1.731  10.725
52013W        W24438  18.477  19.254  13.976
52014W        W24439  25.675  44.009  12.427
52015W        W24440  42.871  26.450  11.962
52016W        W24441   9.326  26.751   0.502
52017W        W24442  37.506   8.102   1.714
52018W        W24443  29.218  28.512   3.614
52019W        W24444  10.215  34.861   3.743
52020W        W24445  25.055   0.058   3.595
52021W        W24446  28.789  41.347   3.616
52022W        W24447  29.697  15.182   3.099
52023W        W24448  13.136   6.458   4.870
52024W        W24449  11.151  20.746  14.825
52025W        W24450   2.319  39.991   3.736
52026W        W24451   3.412   5.341  14.840
52027W        W24452  43.093  16.623  11.270
52028W        W24453   3.069  13.945   3.574
52029W        W24454   2.199  21.211  13.427
52030W        W24455  20.035  26.001  10.929
52031W        W24456   9.429   5.855   2.835
52032W        W24457   2.002   2.338   4.576
52033W        W24458  31.242  40.826   3.723
52034W        W24459  41.242  38.645  11.187
52035W        W24460  27.566  15.063   1.155
52036W        W24461   6.918  24.888  13.431
52037W        W24462  39.048  32.628  10.152
52038W        W24463  32.154  17.254  14.229
52039W        W24464   8.684  26.720   0.686
52040W        W24465  10.657  32.556   2.685
52041W        W24466  39.979  29.594  14.067
52042W        W24467  31.972   1.776   2.403
52043W        W24468  19.314  12.792  13.466
52044W        W24469  18.576  18.806   0.217
52045W        W24470  25.129  23.890   0.797
52046W        W24471   2.399  26.067   4.165
52047W        W24472  10.894  25.200  14.027
52048W        W24473   9.445  31.500   1.275
52049W        W24474  16.804  21.790  14.454
52050W        W24475  20.375  37.165   0.258
52051W        W24476  31.092  12.536   3.577
52052W        W24477  19.940  21.755   1.408
52053W        W24478  38.559  30.156  13.905
52054W        W24479  42.824  31.760   1.345
52055W        W24480  19.292  23.138  11.067
52056W        W24481  38.600  10.977  11.579
52057W        W24482  34.832  30.420  14.991
52058W        W24483  19.528   9.284   0.319
52059W        W24484  27.012  14.785   3.721
52060W        W24485  33.101  25.650   0.153
52061W        W24486  24.237  13.375  10.641
52062W        W24487  16.098   5.845  11.035
52063W        W24488   6.529   5.133  14.251
52064W        W24489   9.042  21.491   1.502
52065W        W24490  25.455  37.126   2.756
52066W        W24491   9.273  44.734  14.014
52067W        W24492  43.327   8.744  14.330
52068W        W24493  25.611  12.650   0.809
52069W        W24494  38.480  30.074  11.991
52070W        W24495   4.027  38.117   2.888
52071W        W24496  32.276  18.203   1.129
52072W        W24497   4.874  35.410  12.355
52073W        W24498   9.660  40.719  13.149
52074W        W24499   3.701  34.576   1.850
52075W        W24500  13.111  12.807  14.972
52076W        W24501   7.128  16.795  11.522
52077W        W24502   8.305   3.082  10.619
52078W        W24503  17.094   8.351   2.006
52079W        W24504  30.387  42.919   0.368
52080W        W24505  13.821  24.627  10.538
52081W        W24506   4.397  20.080  14.259
52082W        W24507  10.073   6.371   0.435
52083W        W24508  12.848   9.473   3.298
52084W        W24509   2.435  24.446   1.894
52085W        W24510  33.391  25.536   2.536
52086W        W24511  44.500  28.012  10.695
52087W        W24512  42.458  21.263   3.355
52088W        W24513  19.983  27.481   2.216
52089W        W24514  38.455  35.784   2.612
52090W        W24515  30.597  14.963   1.344
52091W        W24516  23.667  13.321  12.330
52092W        W24517  35.570  35.820   2.732
52093W        W24518  43.257  13.424   3.701
52094W        W24519  27.758   0.689   1.228
52095W        W24520   4.332  18.001   3.921
52096W        W24521  28.245  25.808  14.386
52097W        W24522  35.014   9.830  10.942
52098W        W24523  30.398  12.188  12.910
52099W        W24524  34.538  22.543   1.177
52100W        W24525  42.016   0.369  11.621
52101W        W24526  17.764   3.954  13.452
52102W        W24527  36.451   2.266  10.675
52103W        W24528  10.386  10.091  13.806
52104W        W24529   5.175  18.068  12.859
52105W        W24530   8.428  29.063  11.108
52106W        W24531   4.358  29.766  12.754
52107W        W24532  35.678  42.907  13.135
52108W        W24533  27.513  44.169  12.047
52109W        W24534  25.255  21.670  12.096
52110W        W24535   7.618  23.772  11.886
52111W        W24536  11.269  12.152  14.028
52112W        W24537  10.303  12.312  12.500
52113W        W24538   7.213  31.175   3.214
52114W        W24539  35.511  43.090   3.561
52115W        W24540  14.257   2.945   2.661
52116W        W24541  12.684  28.576  12.123
52117W        W24542  24.773  34.277  11.205
52118W        W24543   8.235   8.727   1.404
52119W        W24544  38.952   7.102   3.777
52120W        W24545  30.664  43.014  10.808
52121W        W24546  42.001   8.434  10.755
52122W        W24547   4.546  32.103  11.058
52123W        W24548  39.793  32.651   3.866
52124W        W24549  35.872  26.676  12.286
52125W        W24550  29.461  16.067  13.406
52126W        W24551  25.704  37.704  11.964
52127W        W24552  22.486  23.241  13.083
52128W        W24553  27.015  36.256   2.217
52129W        W24554  33.541  13.743  10.868
52130W        W24555   7.730  14.199  13.957
52131W        W24556  13.093  33.928  13.579
52132W        W24557  17.502   1.521   4.511
52133W        W24558  20.569  30.144   1.282
52134W        W24559  24.697  15.317   4.747
52135W        W24560  28.444  16.203   2.314
52136W        W24561  25.500  16.188  13.462
52137W        W24562  19.113   6.864  10.964
52138W        W24563  28.580   6.697  13.762
52139W        W24564  27.543   3.224  11.109
52140W        W24565  43.895  42.391   0.049
52141W        W24566   7.134  34.018  13.638
52142W        W24567  42.270   5.098  14.125
52143W        W24568  15.423  15.074  12.698
52144W        W24569   6.429  42.016  10.774
52145W        W24570  10.676  22.477  11.973
52146W        W24571  17.065  21.020   2.772
52147W        W24572  39.835  42.845   2.126
52148W        W24573   9.910  16.786   2.372
52149W        W24574  30.630  24.808  13.439
52150W        W24575  10.436  34.454  12.424
52151W        W24576  11.236   9.269  14.411
52152W        W24577  34.573   2.288  11.145
52153W        W24578   0.435  19.549   0.826
52154W        W24579  26.071   4.497  14.838
52155W        W24580  20.601   8.818   2.447
52156W        W24581  23.820  34.428  11.536
52157W        W24582  21.682  36.069  12.536
52158W        W24583   0.227  35.985   2.413
52159W        W24584  32.931   3.369   3.945
52160W        W24585  21.823  42.181  10.487
52161W        W24586  20.275  35.550   1.023
52162W        W24587  32.504  42.217  13.497
52163W        W24588  40.815   4.812  14.305
52164W        W24589  13.870  29.643   5.356
52165W        W24590   9.284  17.103  13.945
52166W        W24591  17.515  29.903   1.862
52167W        W24592  20.937  14.022   1.136
52168W        W24593   5.146   0.256   4.109
52169W        W24594  20.068   9.723   2.833
52170W        W24595  37.338  36.356  13.239
52171W        W24596  36.388  21.257  14.732
52172W        W24597  30.411   5.300   0.493
52173W        W24598  28.934   7.866   3.331
52174W        W24599  30.528  19.801   4.980
52175W        W24600  39.604  16.032   1.833
52176W        W24601  22.685  43.361  14.908
52177W        W24602  38.966   7.333   3.310
52178W        W24603   3.424  13.652  13.838
52179W        W24604  43.789  32.617   3.715
52180W        W24605  34.330  15.120   1.695
52181W        W24606  29.288  14.267  10.654
52182W        W24607  31.100  10.640   4.586
52183W        W24608  11.094  26.515   2.024
52184W        W24609   8.949  16.355   2.716
52185W        W24610  11.100  42.850   3.207
52186W        W24611  36.454  33.515   3.453
52187W        W24612  22.754  44.561  12.088
52188W        W24613  22.277  28.519  14.919
52189W        W24614  25.348  25.625   2.019
52190W        W24615   6.923  10.369   3.736
52191W        W24616  37.039   5.334   1.801
52192W        W24617  10.661  39.247   3.169
52193W        W24618  21.612  31.029  14.442
52194W        W24619  13.605  29.917  12.041
52195W        W24620   5.641  10.231  13.900
52196W        W24621  42.355  36.848   1.310
52197W        W24622   6.811  41.130   3.746
52198W        W24623  25.699  30.053  10.814
52199W        W24624  16.329  39.776   0.630
52200W        W24625  25.245  43.714  12.505
52201W        W24626   9.859   6.760   0.685
52202W        W24627  40.436   8.119   4.176
52203W        W24628  29.527  22.962  14.847
52204W        W24629  20.144  26.883  12.075
52205W        W24630   1.436  32.000  11.622
52206W        W24631   0.760   5.608  12.979
52207W        W24632  27.908   5.482  11.239
52208W        W24633  40.335  21.720   4.206
52209W        W24634   8.075  39.223  13.994
52210W        W24635  29.704  10.811  11.637
52211W        W24636   2.984  18.639   2.857
52212W        W24637  34.154  27.495   2.731
52213W        W24638  18.342  27.510  12.077
52214W        W24639  10.293  22.769  13.572
52215W        W24640   0.504  36.023   3.722
52216W        W24641   0.410  41.463   4.585
52217W        W24642  40.348   6.250  13.370
52218W        W24643  21.241  31.102  11.207
52219W        W24644  21.568   1.662  11.579
52220W        W24645  30.522  13.201  10.660
52221W        W24646  20.179  44.732   2.169
52222W        W24647  32.882  35.136   2.166
52223W        W24648   1.952  33.428   2.210
52224W        W24649  29.083  14.731   1.767
52225W        W24650  27.908   8.730   4.168
52226W        W24651   0.487  10.339   3.651
52227W        W24652  27.547  33.830  12.555
52228W        W24653  43.367  17.050   0.263
52229W        W24654  38.577  31.057   2.474
52230W        W24655  36.941  34.626   0.018
52231W        W24656  37.582  35.882  13.978
52232W        W24657  24.176  12.205  13.865
52233W        W24658  25.470  37.829  12.435
52234W        W24659  35.596  35.766   2.014
52235W        W24660   8.887  34.514  11.160
52236W        W24661   0.249  42.037  11.703
52237W        W24662  39.884  10.871   4.190
52238W        W24663  29.150  11.263   1.143
52239W        W24664  25.198  10.810  14.953
52240W        W24665   4.884   0.794  12.974
52241W        W24666  38.893   9.133  10.593
52242W        W24667  17.665   1.910   1.303
52243W        W24668  39.006  10.515  11.070
52244W        W24669  31.423  43.592  12.372
52245W        W24670  34.028   6.602  13.136
52246W        W24671   1.336  21.036   0.296
52247W        W24672  18.510  34.552  13.276
52248W        W24673   2.613  35.365   0.358
52249W        W24674  16.767  43.780  11.771
52250W        W24675  12.277   2.461   5.513
52251W        W24676  16.177  32.908   2.713
52252W        W24677   2.702   1.776  14.685
52253W        W24678  42.051  19.563   1.617
52254W        W24679   0.946  10.495   1.347
52255W        W24680  30.620  14.786   4.360
52256W        W24681  12.149  17.402  12.344
52257W        W24682  37.303   0.486   4.287
52258W        W24683  15.658   8.295   0.802
52259W        W24684  31.195   4.747   1.276
52260W        W24685  20.997   9.132   2.280
52261W        W24686  16.875  16.900  10.926
52262W        W24687  38.508  30.652   3.797
52263W        W24688   4.761  27.690  11.154
52264W        W24689  23.990  27.785   3.662
52265W        W24690  17.773  30.461   3.549
52266W        W24691  32.846  25.999   4.236
52267W        W24692  37.375  31.092   0.659
52268W        W24693  31.978   9.048   4.831
52269W        W24694  22.990  17.099   4.296
52270W        W24695  26.375   2.317  14.449
52271W        W24696  44.537  27.446   2.672
52272W        W24697  38.466  44.984  10.920
52273W        W24698   6.484  18.068  11.298
52274W        W24699   4.082  12.741  13.839
52275W        W24700   3.855  44.792  10.360
52276W        W24701   3.879  32.675  13.071
52277W        W24702  31.558  14.625  12.403
52278W        W24703  31.438   8.822   4.052
52279W        W24704  26.944  42.474  12.562
52280W        W24705  43.004   9.407   3.811
52281W        W24706  44.344  18.761  13.828
52282W        W24707  12.397  28.661  11.710
52283W        W24708  12.909   9.977   2.606
52284W        W24709  41.000   5.264   1.208
52285W        W24710   0.923  28.119  14.861
52286W        W24711  42.532   5.163   4.560
52287W        W24712  17.279  18.028   4.582
52288W        W24713  32.522  28.840   1.354
52289W        W24714  39.855  18.728  14.199
52290W        W24715  23.642   7.830  11.886
52291W        W24716   4.182   7.734  11.069
52292W        W24717  42.847  13.168  13.582
52293W        W24718   0.398  18.726   1.135
52294W        W24719  25.448   5.953   1.826
52295W        W24720   8.779   0.904   1.773
52296W        W24721  25.948  18.856  10.676
52297W        W24722  41.077  21.772   4.642
52298W        W24723  23.521  14.038   3.082
52299W        W24724   8.119  13.764   0.921
52300W        W24725  37.334  32.478   3.079
52301W        W24726   8.560  37.924  11.500
52302W        W24727  38.166  10.339  11.133
52303W        W24728  38.327  31.330  10.680
52304W        W24729  23.366   6.285  13.987
52305W        W24730  27.456   7.646   0.023
52306W        W24731  11.098  12.645  12.350
52307W        W24732   2.014  35.890  10.255
52308W        W24733  23.287   3.282   3.882
52309W        W24734  13.530  43.706  12.013
52310W        W24735  39.770  35.024  11.645
52311W        W24736  26.000   3.689  13.439
52312W        W24737  16.856  27.075   3.517
52313W        W24738  23.571  10.246   4.676
52314W        W24739  42.958  21.356   4.743
52315W        W24740  44.818  40.113   3.284
52316W        W24741  44.784  14.662   2.280
52317W        W24742  43.515  40.526   0.499
52318W        W24743  23.005  18.206  11.480
52319W        W24744  16.083  18.057   1.384
52320W        W24745  30.347  23.761  13.489
52321W        W24746  34.931   9.420   4.252
52322W        W24747   7.930  19.139  11.062
52323W        W24748  14.294  13.593   3.843
52324W        W24749  17.458  37.589  12.117
52325W        W24750   1.308  21.695  13.413
52326W        W24751  26.742  15.285   2.894
52327W        W24752  38.631  23.896  11.006
52328W        W24753  39.583  19.149  14.390
52329W        W24754  28.196  25.389   4.159
52330W        W24755  29.194  34.457  13.413
52331W        W24756  17.764  14.059  14.766
52332W        W24757   3.764   0.167  10.739
52333W        W24758  34.216  14.813   2.356
52334W        W24759  26.640  12.444   5.117
52335W        W24760  28.933  28.643   4.536
52336W        W24761  39.938  44.211   4.226
52337W        W24762  39.085  43.467   2.391
52338W        W24763  32.085  39.632  14.492
52339W        W24764  43.709  11.100  14.347
52340W        W24765  25.408  26.806   0.146
52341W        W24766  34.371   6.672  12.167
52342W        W24767  14.973   1.758  12.533
52343W        W24768  21.666  30.657  12.114
52344W        W24769  43.200  22.108   4.515
52345W        W24770  16.600  12.569   1.350
52346W        W24771  44.622   3.330  11.950
52347W        W24772  36.521  43.286   1.955
52348W        W24773   7.528   3.290  14.389
52349W        W24774   6.367  44.370  12.799
52350W        W24775  14.878  42.947  12.342
52351W        W24776  17.097   8.014  11.646
52352W        W24777  29.648   6.737  11.122
52353W        W24778   6.352  16.099   2.061
52354W        W24779  11.666  10.923   1.776
52355W        W24780  34.356  42.330  13.885
52356W        W24781  37.558  40.056   3.255
52357W        W24782  17.801  19.675  10.895
52358W        W24783  25.159   4.458  12.834
52359W        W24784  11.279  36.977   3.802
52360W        W24785  25.139  41.094   1.835
52361W        W24786  26.237  37.066  14.335
52362W        W24787  40.808   2.475  10.876
52363W        W24788  22.449  22.511  11.470
52364W        W24789   7.732   3.744  14.279
52365W        W24790   8.228  20.790  14.351
52366W        W24791  36.991  24.010  14.500
52367W        W24792   0.446  39.021   2.091
52368W        W24793  11.546  16.273  14.347
52369W        W24794   4.348  22.143  10.961
52370W        W24795  27.589  28.138   0.399
52371W        W24796  41.322  29.510   3.184
52372W        W24797   5.367  11.202   2.734
52373W        W24798  28.229  33.037   1.505
52374W        W24799   9.699  41.526  14.760
52375W        W24800   1.462  25.058   4.948
52376W        W24801  17.209   7.838  11.182
52377W        W24802  41.440   5.667  11.085
52378W        W24803  27.250  28.396   3.939
52379W        W24804  39.493  37.080  13.723
52380W        W24805  27.042  18.417   2.686
52381W        W24806   4.223   1.021   2.394
52382W        W24807   2.901  12.073  13.931
52383W        W24808   7.080   8.504  14.938
52384W        W24809  26.011   6.420  11.554
52385W        W24810  43.348  44.079   2.896
52386W        W24811  19.915   7.719  11.573
52387W        W24812   3.461  41.112  12.916
52388W        W24813  26.258  15.678  11.986
52389W        W24814  39.323  32.631  11.944
52390W        W24815  18.016  42.595  13.903
52391W        W24816   1.653   6.321  12.774
52392W        W24817   2.973   6.137  14.433
52393W        W24818  22.275  23.544   4.124
52394W        W24819  26.787  39.008   2.218
52395W        W24820  31.403  39.827   2.931
52396W        W24821  17.648  27.582   3.638
52397W        W24822  30.723   7.956  12.760
52398W        W24823   4.300  14.150   0.872
52399W        W24824  15.971  27.713   1.731
52400W        W24825  25.378   1.239  14.782
52401W        W24826  31.337  30.977  10.616
52402W        W24827  11.288   2.935   2.606
52403W        W24828   6.684  25.025  14.407
52404W        W24829  29.431  18.494   1.191
52405W        W24830   7.203  17.701  11.894
52406W        W24831  15.927  37.502  11.243
52407W        W24832  15.500  29.088   3.074
52408W        W24833  12.597   2.872  13.893
52409W        W24834   8.752   0.738  12.996
52410W        W24835  24.394  40.625  13.956
52411W        W24836  18.598  20.698  10.889
52412W        W24837  22.125  15.366  13.714
52413W        W24838  17.597  11.588   1.221
52414W        W24839   4.483  30.387  11.544
52415W        W24840  27.911   9.340  14.930
52416W        W24841  41.777  21.581  11.232
52417W        W24842  29.726  13.135  13.595
52418W        W24843   3.293  13.083   2.748
52419W        W24844   6.818  20.323   2.198
52420W        W24845  14.196  22.998  12.953
52421W        W24846  32.010  38.516  10.346
52422W        W24847   9.288   5.943  13.902
52423W        W24848   7.955  37.801  11.459
52424W        W24849  24.614  34.527   2.775
52425W        W24850  43.771   6.091  13.784
52426W        W24851  17.678  41.772  14.747
52427W        W24852  39.790  14.942  13.378
52428W        W24853  32.071  44.012  10.291
52429W        W24854  18.193   5.955  12.607
52430W        W24855   2.931   9.122  12.462
52431W        W24856  40.887  43.499  11.551
52432W        W24857  12.757  23.968   2.751
52433W        W24858  20.597   5.903  14.067
52434W        W24859   0.374  16.335  14.092
52435W        W24860  20.858   4.266   3.194
52436W        W24861  41.529   2.996  12.025
52437W        W24862  35.138  44.752  11.168
52438W        W24863   4.268  17.887   0.838
52439W        W24864  22.839  15.225   0.906
52440W        W24865  40.788   0.343   2.978
52441W        W24866  31.569  28.126  13.475
52442W        W24867  39.081  34.938  12.842
52443W        W24868  35.919   5.204   2.425
52444W        W24869  33.197  41.571   2.491
52445W        W24870  33.430  37.973   2.855
52446W        W24871  23.270  19.062  11.963
52447W        W24872  44.551   1.238   4.032
52448W        W24873  20.904  14.584  14.872
52449W        W24874  31.118   5.385   4.611
52450W        W24875  16.683  44.075   3.357
52451W        W24876  28.291  16.141  12.505
52452W        W24877  43.952  33.599   3.402
52453W        W24878  22.733  41.293  14.010
52454W        W24879  25.579   7.724   3.619
52455W        W24880  11.148  40.515  11.570
52456W        W24881  30.020  28.052  14.272
52457W        W24882  11.763  10.747   3.306
52458W        W24883  37.115  39.601   3.483
52459W        W24884  11.164  38.830   1.353
52460W        W24885  37.982  14.101   2.121
52461W        W24886  15.768  14.851   0.479
52462W        W24887  17.418  17.222   0.310
52463W        W24888  10.695   1.945  12.825
52464W        W24889  15.728  42.545   3.734
52465W        W24890   0.867  44.215  10.054
52466W        W24891  43.477  38.941   1.542
52467W        W24892  39.917   3.587  12.137
52468W        W24893   2.371  16.476  12.034
52469W        W24894  17.391  20.094   3.739
52470W        W24895  15.695  24.385  12.402
52471W        W24896   2.033  24.661  13.476
52472W        W24897  39.050  36.356   3.905
52473W        W24898   5.433   7.889  11.560
52474W        W24899   2.716  41.973  11.568
52475W        W24900  44.799  24.699  13.167
52476W        W24901  12.816  25.989   0.285
52477W        W24902  11.674  33.123   2.235
52478W        W24903  32.582  10.187  13.558
52479W        W24904  43.749  21.607  10.646
52480W        W24905   3.379  15.027  12.387
52481W        W24906  13.773  27.119  12.510
52482W        W24907   3.280  31.101  12.643
52483W        W24908  29.468  33.398  12.521
52484W        W24909  18.237  21.262   3.192
52485W        W24910  41.133  22.061   9.773
52486W        W24911   1.648  16.662   0.278
52487W        W24912  19.312  43.579  14.903
52488W        W24913   5.414   0.142  11.766
52489W        W24914   3.103  17.359   2.053
52490W        W24915  35.406  37.978  10.509
52491W        W24916  31.415   4.435  12.989
52492W        W24917  29.577  31.487   2.350
52493W        W24918   5.388  39.306  11.124
52494W        W24919   9.771  24.767   0.278
52495W        W24920  10.055   1.729   0.431
52496W        W24921  16.306  35.574   3.886
52497W        W24922  37.004  17.503  12.970
52498W        W24923  16.088  21.384   0.750
52499W        W24924   7.137  14.851  14.253
52500W        W24925  36.665   2.603   0.949
52501W        W24926  24.087  15.882  11.116
52502W        W24927  23.896   6.733  12.363
52503W        W24928  22.584  16.828  14.386
52504W        W24929  41.746  11.583  12.126
52505W        W24930   4.308  38.052   4.623
52506W        W24931   5.130  18.296   0.762
52507W        W24932   4.879  36.428  12.833
52508W        W24933   7.198  25.129   0.956
52509W        W24934  10.975  28.534  11.554
52510W        W24935   7.782  39.823  14.347
52511W        W24936  32.479  33.888   0.517
52512W        W24937  19.609  37.921   2.271
52513W        W24938  16.462  14.710   1.740
52514W        W24939   6.468  42.428   4.113
52515W        W24940  42.394   7.842   2.279
52516W        W24941   3.882   9.870   4.731
52517W        W24942  33.605  31.910  13.977
52518W        W24943  11.674   4.329   3.251
52519W        W24944   3.118  18.526  11.652
52520W        W24945  37.589  14.161  12.921
52521W        W24946  36.596  43.792   3.246
52522W        W24947   8.441   5.867  14.145
52523W        W24948  14.483  22.064  12.123
52524W        W24949  11.739  41.032  13.075
52525W        W24950  21.574  32.856  10.494
52526W        W24951   4.709   1.846   2.457
52527W        W24952  17.075  30.329   5.020
52528W        W24953  44.616  18.227  13.088
52529W        W24954  11.051  28.071  11.292
52530W        W24955  42.076  37.465  11.491
52531W        W24956  33.417  42.719  10.558
52532W        W24957  16.273  17.137   4.810
52533W        W24958   0.950  37.032   1.677
52534W        W24959  32.942   5.227  14.790
52535W        W24960  11.105  37.891   0.491
52536W        W24961  34.590  33.222   2.059
52537W        W24962  10.122   9.788  12.047
52538W        W24963   7.245  24.169   0.838
52539W        W24964  28.088  27.841   3.728
52540W        W24965  38.326  17.556   3.837
52541W        W24966  10.143   7.299  14.709
52542W        W24967  40.770  12.725   0.908
52543W        W24968  39.142  12.802  10.245
52544W        W24969  31.725  27.389  12.186
52545W        W24970  38.923   1.362   5.045
52546W        W24971  13.131  21.476  12.619
52547W        W24972  21.128  31.825   2.818
52548W        W24973  29.539  35.975  14.552
52549W        W24974  42.203  19.465   5.409
52550W        W24975  24.226   7.302   0.564
52551W        W24976  33.639  41.473   4.512
52552W        W24977  16.318  27.007  13.274
52553W        W24978  24.718   3.890  12.896
52554W        W24979  33.965   4.021   2.565
52555W        W24980  14.459   6.837  10.439
52556W        W24981  34.123   9.508  14.405
52557W        W24982  34.579   5.202  13.539
52558W        W24983   6.004   2.449  14.940
52559W        W24984  39.102  11.307   1.167
52560W        W24985  12.802  16.115  14.880
52561W        W24986  44.266  43.341   2.749
52562W        W24987  37.851  40.315   0.366
52563W        W24988  22.982  35.902  14.910
52564W        W24989  30.062  44.561  13.042
52565W        W24990  34.859  39.039  11.190
52566W        W24991  39.273  28.439   4.924
52567W        W24992   1.758  24.444   2.266
52568W        W24993  18.338  17.570   1.874
52569W        W24994  41.770  44.209   4.085
52570W        W24995  11.698  38.741   3.614
52571W        W24996  35.864  36.701   4.189
52572W        W24997  43.190  14.236  10.612
52573W        W24998  23.817  32.239  12.427
52574W        W24999  43.682   9.910   1.257
52575W        W25000  16.855   3.283   2.640
52576W        W25001  21.027  30.546  14.331
52577W        W25002  39.810  34.700   0.879
52578W        W25003  40.947  28.892   2.979
52579W        W25004  13.579  29.133  13.404
52580W        W25005  27.016  20.977  13.080
52581W        W25006   1.320  34.495   1.794
52582W        W25007   2.823   4.731  11.124
52583W        W25008  25.107   3.864   3.173
52584W        W25009  38.298  43.828  13.938
52585W        W25010   1.886  44.744   4.247
52586W        W25011  21.690  41.356  14.288
52587W        W25012  25.519  31.472  13.160
52588W        W25013  31.847  29.658  14.451
52589W        W25014  24.551   7.641  13.060
52590W        W25015  39.826   2.755  13.361
52591W        W25016   7.022  34.861  13.453
52592W        W25017  11.633  44.862   3.377
52593W        W25018  21.322  23.625  10.475
52594W        W25019   3.328  38.887  13.585
52595W        W25020  37.344   4.885  10.455
52596W        W25021  25.714  18.381   3.752
52597W        W25022  38.865  25.474  12.690
52598W        W25023   3.199   0.247   1.375
52599W        W25024  30.204  35.645   2.393
52600W        W25025  14.636   2.844   1.976
52601W        W25026  26.544  28.587   2.113
52602W        W25027   3.454  30.039   4.537
52603W        W25028  42.240  39.567  14.385
52604W        W25029   6.505  31.489  14.811
52605W        W25030  30.570  34.411   1.219
52606W        W25031  28.450   8.004   3.260
52607W        W25032  26.609  14.767  14.291
52608W        W25033  19.763  36.007   0.394
52609W        W25034  40.800  13.182   3.744
52610W        W25035  17.231   1.837  11.455
52611W        W25036  26.129   9.121   4.530
52612W        W25037  15.362  27.033   0.581
52613W        W25038  40.049  23.536   0.575
52614W        W25039  39.946   7.831   1.911
52615W        W25040  44.552  12.221  14.051
52616W        W25041  28.099  27.731  11.080
52617W        W25042  10.093   6.383  12.173
52618W        W25043  10.669   5.823   1.127
52619W        W25044  36.393   9.674  12.193
52620W        W25045   9.862  26.567  14.832
52621W        W25046  15.560   7.612   1.878
52622W        W25047  23.443  16.927   4.112
52623W        W25048  15.049   3.474  13.428
52624W        W25049  12.100  40.241  13.226
52625W        W25050  14.155  34.098   4.725
52626W        W25051  39.042  39.973  12.454
52627W        W25052   6.198  43.806   1.559
52628W        W25053   7.916  44.873  12.919
52629W        W25054  15.526  27.664  12.151
52630W        W25055  27.061  18.966  11.056
52631W        W25056  42.413  17.083   2.230
52632W        W25057  20.656  22.187   1.926
52633W        W25058   4.301  12.068   0.848
52634W        W25059   4.670  38.180  13.007
52635W        W25060   7.292   1.249  11.568
52636W        W25061   6.918  41.739   4.790
52637W        W25062  11.109  41.867  11.495
52638W        W25063   2.237  10.641   3.693
52639W        W25064  29.332  20.698  13.882
52640W        W25065  16.174  17.504  12.974
52641W        W25066  17.538  22.950  14.001
52642W        W25067  17.015  19.480  13.623
52643W        W25068  43.766  38.325  13.067
52644W        W25069  16.882  11.735  11.904
52645W        W25070  43.825  16.364  12.612
52646W        W25071  26.435  43.978   3.563
52647W        W25072  33.924  26.252   1.293
52648W        W25073  15.661  30.835   3.340
52649W        W25074  30.376  25.166   3.889
52650W        W25075   4.722  44.971  11.536
52651W        W25076  34.544  32.229  10.728
52652W        W25077  16.569  17.502   2.298
52653W        W25078   4.865  40.398  12.344
52654W        W25079  29.454  19.199   3.956
52655W        W25080  31.992   8.331   1.983
52656W        W25081  12.204   0.732   1.862
52657W        W25082  14.857   7.328  14.822
52658W        W25083   2.958  39.364   2.674
52659W        W25084  43.344  41.854  10.358
52660W        W25085  10.801  27.881   4.616
52661W        W25086  11.217  37.112  13.612
52662W        W25087  35.514  21.285  11.558
52663W        W25088  30.434  13.263  14.467
52664W        W25089   1.699  35.603  12.452
52665W        W25090  24.704  34.965  10.694
52666W        W25091  32.629  19.730   3.614
52667W        W25092  28.971  21.591   1.712
52668W        W25093  37.073  12.736  12.592
52669W        W25094  16.852   0.742   2.285
52670W        W25095  32.213   0.316  10.012
52671W        W25096  24.554  22.469  14.946
52672W        W25097  22.808   2.778   3.955
52673W        W25098  28.497  18.043   0.394
52674W        W25099  25.052   7.681   0.534
52675W        W25100  32.927  17.155  14.733
52676W        W25101  26.716  37.417  13.010
52677W        W25102   1.259  18.794  11.634
52678W        W25103  23.697   2.418   4.084
52679W        W25104  15.753  38.046  10.698
52680W        W25105  26.315  37.100   4.264
52681W        W25106  31.137  17.308   2.713
52682W        W25107  14.335  17.231  13.791
52683W        W25108  28.801  12.958   4.031
52684W        W25109  15.109  31.155  12.447
52685W        W25110  18.212   3.903   4.373
52686W        W25111   9.173  36.515   1.324
52687W        W25112   8.717  26.254   0.440
52688W        W25113  24.712  27.929  13.407
52689W        W25114  19.197  22.820  13.895
52690W        W25115  16.300  40.066  12.115
52691W        W25116  38.921  12.913   2.313
52692W        W25117  23.669  33.294  11.955
52693W        W25118   9.470  14.808   3.644
52694W        W25119  29.484  30.612  11.171
52695W        W25120  24.277  18.711  14.007
52696W        W25121  31.617  12.099   2.315
52697W        W25122  12.681  37.943  12.686
52698W        W25123   9.697  24.395  13.826
52699W        W25124  25.369  15.393   3.680
52700W        W25125  35.958   3.847   0.995
52701W        W25126  28.727  27.317  13.887
52702W        W25127  25.240  27.159   3.215
52703W        W25128  39.091   8.471   3.659
52704W        W25129   6.663  16.556  13.334
52705W        W25130  21.944   7.766  11.181
52706W        W25131  21.888  18.551   0.458
52707W        W25132   8.901  41.330   3.041
52708W        W25133  17.482   0.219   3.372
52709W        W25134  15.683  17.341  13.043
52710W        W25135   6.793   6.766  10.977
52711W        W25136  25.744  17.549   1.344
52712W        W25137   6.366   1.381   3.019
52713W        W25138   7.238  10.618  13.136
52714W        W25139  25.508  22.562   3.746
52715W        W25140  26.558  42.807   1.058
52716W        W25141  29.685  11.069   3.730
52717W        W25142  44.261  11.782   2.340
52718W        W25143   2.409  19.768   2.483
52719W        W25144  22.863   8.836   5.070
52720W        W25145   7.291  28.033   3.208
52721W        W25146  32.296  19.717   3.186
52722W        W25147  26.073  27.141  11.254
52723W        W25148  39.462  36.966  11.031
52724W        W25149  16.569   2.480   4.776
52725W        W25150  42.142  41.178   4.087
52726W        W25151  40.398  32.181  12.822
52727W        W25152   5.548   7.749   2.200
52728W        W25153  21.287  12.441  12.041
52729W        W25154  24.349  43.143   4.176
52730W        W25155  25.185   5.627   2.169
52731W        W25156  31.249  30.626   1.765
52732W        W25157  38.611  11.909   0.680
52733W        W25158  16.716  33.295   2.141
52734W        W25159  23.177   8.415  14.479
52735W        W25160   2.180  22.305   3.624
52736W        W25161  22.090  18.149   3.864
52737W        W25162  22.148  36.003   1.493
52738W        W25163  38.584  21.171   3.790
52739W        W25164  44.508  19.124  11.118
52740W        W25165  27.071  29.952  13.655
52741W        W25166   3.276  33.823   1.393
52742W        W25167  34.134  15.029  14.236
52743W        W25168  31.864  28.573   1.579
52744W        W25169   2.726  15.677   3.799
52745W        W25170  13.651  26.462  14.332
52746W        W25171  15.991   1.073   0.746
52747W        W25172  15.619  36.299  11.614
52748W        W25173   7.731  33.648   2.365
52749W        W25174   7.317  44.864   3.838
52750W        W25175  32.169   3.695   2.039
52751W        W25176  12.112   2.698  13.928
52752W        W25177  40.551  27.169   2.662
52753W        W25178  31.324  27.889   0.069
52754W        W25179  36.137  15.593   5.117
52755W        W25180  15.820  10.635  12.404
52756W        W25181  40.585   6.183  13.818
52757W        W25182   5.036  39.204  11.519
52758W        W25183  17.821  41.033  13.985
52759W        W25184  38.956  39.090  12.012
52760W        W25185  20.877  35.426   4.335
52761W        W25186  18.618  44.884   4.194
52762W        W25187  36.346  36.946  13.767
52763W        W25188  29.968   2.469  10.640
52764W        W25189  13.257  25.915   4.737
52765W        W25190  14.047  39.951  14.753
52766W        W25191  23.239  16.819   0.868
52767W        W25192  17.737  41.319  10.450
52768W        W25193  42.561   3.509  12.628
52769W        W25194  23.777  35.312  12.139
52770W        W25195  41.821   8.863  14.457
52771W        W25196   4.889  17.099  14.008
52772W        W25197   6.261   0.653  14.584
52773W        W25198   7.258  20.700  12.892
52774W        W25199  34.772  23.564  14.500
52775W        W25200  26.420  19.194  13.230
52776W        W25201   6.846  44.560  12.489
52777W        W25202  26.248  20.636   0.488
52778W        W25203   7.755  14.125   0.455
52779W        W25204  35.454  14.197   4.342
52780W        W25205  37.950  43.894  11.923
52781W        W25206  33.772  10.493  11.104
52782W        W25207  28.430  16.189  11.097
52783W        W25208   7.523  35.417  11.552
52784W        W25209  19.889  16.197  11.383
52785W        W25210  14.572  13.580  14.824
52786W        W25211  17.450  33.463   1.655
52787W        W25212  37.274  19.518  14.374
52788W        W25213  43.524  36.073  11.629
52789W        W25214   2.826  42.428   3.209
52790W        W25215   5.887  10.277   2.477
52791W        W25216  44.363  22.935  14.043
52792W        W25217  35.986   8.724  13.240
52793W        W25218  12.713  27.063   2.367
52794W        W25219  20.289  13.416  13.609
52795W        W25220  18.847  31.904  11.639
52796W        W25221  14.932  43.664  13.740
52797W        W25222   5.385   2.282   2.295
52798W        W25223  29.497   5.276  12.225
52799W        W25224  43.634  37.039   4.207
52800W        W25225  36.090  24.671  12.091
52801W        W25226  17.131  10.651   0.951
52802W        W25227   7.033  28.258   3.605
52803W        W25228  18.846  26.724  11.683
52804W        W25229   4.058  29.000   0.871
52805W        W25230  31.039  37.052  12.127
52806W        W25231  17.003  13.219   3.711
52807W        W25232  25.542   1.292  12.021
52808W        W25233  41.306  29.233  10.655
52809W        W25234   4.009   7.473  11.487
52810W        W25235  33.437  43.002   5.306
52811W        W25236  29.633  29.548  13.856
52812W        W25237   4.406  22.371  13.777
52813W        W25238  20.100  41.486  14.167
52814W        W25239  11.346  31.415   1.279
52815W        W25240   8.870   3.477  12.743
52816W        W25241  41.597  38.886  12.551
52817W        W25242  36.537  32.921  12.340
52818W        W25243   1.054  27.715   4.568
52819W        W25244  43.824  11.293  14.803
52820W        W25245  11.723  13.188  12.052
52821W        W25246  26.611  32.066   5.000
52822W        W25247  42.049  41.538   3.735
52823W        W25248  41.003  19.294   0.351
52824W        W25249  14.132   7.149   0.255
52825W        W25250  25.338  17.220   1.366
52826W        W25251  14.870   7.320   0.739
52827W        W25252  26.049  16.332  11.192
52828W        W25253  12.145  42.317   2.704
52829W        W25254   9.241  32.347   2.292
52830W        W25255   4.655  23.532   3.385
52831W        W25256  42.534  31.201   3.254
52832W        W25257   0.943  22.708  10.769
52833W        W25258  25.236  34.413   4.532
52834W        W25259  31.418   1.222  10.731
52835W        W25260  41.221  38.967   3.918
52836W        W25261  14.292  27.904   3.313
52837W        W25262  11.540  19.718  14.217
52838W        W25263  40.758  17.649  12.232
52839W        W25264   4.842  38.531   1.467
52840W        W25265  24.231  41.298   0.293
52841W        W25266  29.474  28.675   4.600
52842W        W25267   3.795  37.074  10.489
52843W        W25268  35.170  24.562  12.107
52844W        W25269  36.412  13.146  11.601
52845W        W25270  34.437  26.340  12.484
52846W        W25271  37.452  22.243  14.732
52847W        W25272  29.375  16.313  12.078
52848W        W25273  21.175  35.342  12.037
52849W        W25274  44.825  34.989  13.052
52850W        W25275  27.879  41.435  14.912
52851W        W25276  11.403  13.737   2.359
52852W        W25277  30.021   3.927   1.219
52853W        W25278   3.532  22.974  14.282
52854W        W25279  36.836  14.683  13.921
52855W        W25280  29.612  41.294  14.354
52856W        W25281  26.380  43.270   0.902
52857W        W25282   5.242  38.484  11.544
52858W        W25283  39.672  26.473   0.512
52859W        W25284   9.427  22.964  14.071
52860W        W25285   8.496  37.159   1.651
52861W        W25286   3.349  41.231   3.566
52862W        W25287  37.378  30.896  12.424
52863W        W25288  21.460  39.926  11.660
52864W        W25289  33.278   4.274  11.491
52865W        W25290   2.119  23.323   5.363
52866W        W25291   9.729  16.502  14.529
52867W        W25292  18.792  43.571   0.718
52868W        W25293   4.808  13.233   0.158
52869W        W25294   4.917   5.382   3.698
52870W        W25295  40.971   6.165   3.740
52871W        W25296  32.848  36.009  12.860
52872W        W25297   7.268  32.737   3.379
52873W        W25298   4.130  32.870  12.669
52874W        W25299  35.485  43.470   3.912
52875W        W25300  10.116  11.551  14.844
52876W        W25301   6.253  15.158  11.390
52877W        W25302  14.685  17.785   1.240
52878W        W25303   0.775  10.966   1.232
52879W        W25304   2.225  35.649  12.489
52880W        W25305   1.820   8.246  10.733
52881W        W25306  30.815  19.273  13.458
52882W        W25307  18.697  31.632  11.215
52883W        W25308  42.082  40.308  12.424
52884W        W25309   6.223  24.000   0.374
52885W        W25310  24.676  41.363   2.855
52886W        W25311   9.539  14.853   1.416
52887W        W25312  36.595  28.172   3.613
52888W        W25313  42.437  23.284   5.729
52889W        W25314  16.717   8.722  14.430
52890W        W25315  23.150  32.433  15.000
52891W        W25316  17.749  12.114  11.634
52892W        W25317  10.619   8.699  13.946
52893W        W25318  37.341  20.181   3.214
52894W        W25319  41.236  25.994  10.696
52895W        W25320   7.859  26.793  11.280
52896W        W25321   3.609   2.067   1.805
52897W        W25322  19.172  31.842  11.224
52898W        W25323  17.814  13.617  13.974
52899W        W25324  27.293   1.766   2.478
52900W        W25325  16.188  33.679   5.105
52901W        W25326   9.755  14.251   2.554
52902W        W25327  12.805   9.254   0.594
52903W        W25328  25.508   0.882   2.844
52904W        W25329  11.044   3.822   3.724
52905W        W25330   1.042  29.194  12.507
52906W        W25331  44.918  34.875   4.810
52907W        W25332  18.392  32.962   3.319
52908W        W25333  23.414  26.111   4.146
52909W        W25334  37.569  35.419   4.070
52910W        W25335  41.362  11.855  14.401
52911W        W25336   7.432  42.936  11.555
52912W        W25337   0.061  20.755   2.427
52913W        W25338  12.566  44.015  13.588
52914W        W25339  17.259   4.837   3.184
52915W        W25340  11.192  19.195   0.712
52916W        W25341  38.405  19.503  11.807
52917W        W25342  39.617   2.329   1.513
52918W        W25343  30.991   1.936  13.152
52919W        W25344  21.209   8.198  13.103
52920W        W25345   6.137  44.918   1.855
52921W        W25346  38.063  40.087   4.113
52922W        W25347  37.439  22.772  11.590
52923W        W25348  20.300  25.167   1.384
52924W        W25349  28.718  16.575  14.233
52925W        W25350   6.900  34.501   4.610
52926W        W25351  39.417  36.487   0.983
52927W        W25352  16.223  33.767  10.958
52928W        W25353  19.716  39.108   0.326
52929W        W25354  25.130   6.244  14.441
52930W        W25355   7.854  39.355   4.383
52931W        W25356   7.589  34.590  13.758
52932W        W25357  25.205   2.866   4.067
52933W        W25358  26.924   8.933  14.522
52934W        W25359  11.415  30.673  11.903
52935W        W25360  23.963  41.375   2.133
52936W        W25361  35.999  32.519   1.951
52937W        W25362  31.142  14.708   2.114
52938W        W25363  27.628  17.198  11.248
52939W        W25364  15.253  29.475   2.784
52940W        W25365   7.877   8.746  13.876
52941W        W25366  40.456  16.961   0.349
52942W        W25367   2.898  29.410   3.227
52943W        W25368   9.626  43.636   0.513
52944W        W25369  41.943   6.377   2.359
52945W        W25370  30.036  31.878   1.766
52946W        W25371  20.794  43.599  13.303
52947W        W25372  31.016  43.226   3.648
52948W        W25373  13.372  34.079   1.931
52949W        W25374  36.431   0.497  12.879
52950W        W25375  11.098  14.639  11.673
52951W        W25376  15.980  17.692   0.978
52952W        W25377  16.624  18.803   1.648
52953W        W25378  41.093  31.942   0.783
52954W        W25379  24.802  31.620  11.977
52955W        W25380  31.896  31.889  12.150
52956W        W25381   8.311   4.762   3.738
52957W        W25382  12.886  42.050   3.724
52958W        W25383  28.204  37.379   1.339
52959W        W25384  28.626  27.646  11.711
52960W        W25385  39.251  41.946  14.841
52961W        W25386  17.633  44.152   4.475
52962W        W25387  43.058   3.882  11.115
52963W        W25388  16.521  17.788   1.481
52964W        W25389  17.279  33.874   5.409
52965W        W25390  26.610  14.776   2.848
52966W        W25391  35.477  31.433   0.794
52967W        W25392  40.971  20.588   0.807
52968W        W25393  31.437  28.526   3.343
52969W        W25394   9.764  10.486  13.958
52970W        W25395  11.454  18.228  14.261
52971W        W25396  29.506   1.887   4.499
52972W        W25397   6.201  19.670   3.697
52973W        W25398  36.786  43.752   0.239
52974W        W25399  36.166  17.989   4.911
52975W        W25400  43.908   9.748  11.849
52976W        W25401  23.738  14.985   1.443
52977W        W25402   5.255  10.112  10.767
52978W        W25403  10.157  37.878   2.911
52979W        W25404  34.499   1.458  13.902
52980W        W25405  38.744  31.433   2.104
52981W        W25406  21.794  30.099  12.432
52982W        W25407  25.656  34.016  14.818
52983W        W25408  41.917  23.175  12.434
52984W        W25409  20.576   8.424  11.645
52985W        W25410   9.174  12.909   4.219
52986W        W25411  42.158   5.530   3.271
52987W        W25412   9.247  36.783   3.649
52988W        W25413  17.843   2.085  12.072
52989W        W25414  10.307  11.799   0.262
52990W        W25415  15.736  39.754  11.539
52991W        W25416   8.657  36.039   2.667
52992W        W25417  31.394  30.834   3.240
52993W        W25418  26.222   1.245  11.494
52994W        W25419  10.731  10.822  12.807
52995W        W25420  38.760  23.244   3.144
52996W        W25421   4.878  42.759  10.797
52997W        W25422  25.114  41.543   4.735
52998W        W25423  36.960   1.051  11.146
52999W        W25424  29.425  33.607  13.365
53000W        W25425  42.378  25.580   4.677
53001W        W25426  40.484   9.416  14.324
53002W        W25427   5.759  35.485  10.407
53003W        W25428  42.498  19.612  10.829
53004W        W25429  21.125  23.141   1.795
53005W        W25430   7.019  22.041   2.179
53006W        W25431  23.170  13.166  12.032
53007W        W25432  17.182   6.772   4.292
53008W        W25433  42.793  42.379   2.346
53009W        W25434  37.465  27.986   4.279
53010W        W25435   5.683  23.638   3.576
53011W        W25436  34.143  25.463  12.079
53012W        W25437  35.367   6.889  13.154
53013W        W25438  24.737  19.034  13.074
53014W        W25439  26.832   0.094  10.915
53015W        W25440  38.670  18.348   3.623
53016W        W25441  38.098   8.882  11.498
53017W        W25442  32.602  27.423   2.733
53018W        W25443  26.063  21.095  11.386
53019W        W25444  18.255   5.831   3.212
53020W        W25445  41.944   2.250   2.208
53021W        W25446  30.115   9.388  13.915
53022W        W25447  15.464  39.011   4.120
53023W        W25448   7.837  29.948   3.320
53024W        W25449   8.220   8.598  12.631
53025W        W25450   8.604  28.534  10.690
53026W        W25451  13.151  38.555  11.145
53027W        W25452  22.963  21.343  10.212
53028W        W25453   1.598   5.730  14.451
53029W        W25454   6.751  25.363   4.551
53030W        W25455  32.408  22.117   3.891
53031W        W25456  36.557  22.349   0.861
53032W        W25457   5.682  22.333  14.417
53033W        W25458  17.823  31.045  13.997
53034W        W25459  23.752   9.825  10.153
53035W        W25460  28.100   4.811   3.757
53036W        W25461   1.812  21.726   0.453
53037W        W25462  41.333  25.016   0.249
53038W        W25463  33.489  30.963  13.544
53039W        W25464   5.863  34.220   4.491
53040W        W25465  11.403  24.805   1.620
53041W        W25466   0.786  33.189  13.852
53042W        W25467  44.439   0.919  14.352
53043W        W25468   4.338  13.993  11.899
53044W        W25469  20.828  40.940  12.524
53045W        W25470  25.916  33.174   2.802
53046W        W25471  28.684  32.936  13.832
53047W        W25472  21.034   6.591  10.573
53048W        W25473  41.833  31.196   3.686
53049W        W25474  15.556  20.019   0.058
53050W        W25475  24.110  29.927  11.996
53051W        W25476  38.452  25.912   4.292
53052W        W25477  42.274  43.448  11.944
53053W        W25478  43.333  24.620   4.401
53054W        W25479  42.687  15.045  10.823
53055W        W25480  25.916  19.910   4.467
53056W        W25481  21.505  43.924  12.458
53057W        W25482  24.067   1.496   2.240
53058W        W25483  38.922  41.844   1.683
53059W        W25484  11.729   1.484   4.744
53060W        W25485   6.210  25.172   1.827
53061W        W25486  40.502  36.505  14.947
53062W        W25487  23.700   7.737   3.263
53063W        W25488  24.240  12.925   1.977
53064W        W25489  15.917  11.808   0.275
53065W        W25490  12.115  40.765  13.339
53066W        W25491  42.373  14.716   0.430
53067W        W25492  22.539   8.306  13.745
53068W        W25493  21.590  34.855  14.030
53069W        W25494   6.719   9.484  10.695
53070W        W25495  28.041  10.752  14.230
53071W        W25496  11.750  38.659   2.327
53072W        W25497  23.252  26.582  13.429
53073W        W25498  19.369  23.820   4.091
53074W        W25499  12.598  28.121  14.481
53075W        W25500   1.397  42.289  14.913
53076W        W25501  32.697  40.505   2.341
53077W        W25502  34.501  35.010   4.594
53078W        W25503  31.839   6.737   4.622
53079W        W25504  11.343  25.781  14.483
53080W        W25505  29.840  14.392   0.793
53081W        W25506   5.265  26.626   3.197
53082W        W25507   2.401  41.288   4.620
53083W        W25508  27.471  23.263  11.096
53084W        W25509  43.256  17.130   3.618
53085W        W25510  27.049   0.470   0.910
53086W        W25511  21.919  27.878  11.141
53087W        W25512   3.712  32.769  10.633
53088W        W25513  20.074   4.875   1.376
53089W        W25514  28.434  14.189   0.284
53090W        W25515   0.767  31.312  10.666
53091W        W25516  39.617  32.150  12.130
53092W        W25517   6.144  35.459   2.355
53093W        W25518  40.086  13.075  12.977
53094W        W25519  33.052  27.066  12.002
53095W        W25520  11.049  32.460  11.172
53096W        W25521  36.527  35.120  12.505
53097W        W25522  15.141  22.609   4.362
53098W        W25523  16.899  11.177   1.685
53099W        W25524  22.140   0.200  14.393
53100W        W25525   9.401   3.901   4.908
53101W        W25526  26.226  38.015  14.393
53102W        W25527  15.258   1.923  13.293
53103W        W25528   7.533  37.323   3.211
53104W        W25529  21.974  37.027   4.179
53105W        W25530  42.787  26.224   0.753
53106W        W25531  43.290   8.147  13.812
53107W        W25532  30.002  23.266   4.140
53108W        W25533  44.472  16.122   4.658
53109W        W25534  36.886   1.787  13.803
53110W        W25535   3.356   7.664   4.721
53111W        W25536   7.860  32.571  11.101
53112W        W25537  20.997   9.922  13.485
53113W        W25538   4.120  18.596   1.530
53114W        W25539  30.107  35.132   4.812
53115W        W25540  31.228  27.250   2.406
53116W        W25541  42.454   1.306  12.967
53117W        W25542  23.527   7.253   1.710
53118W        W25543  25.120   1.308  13.898
53119W        W25544  36.070  22.260  13.993
53120W        W25545  15.640   5.840  12.832
53121W        W25546   7.226  10.428   4.191
53122W        W25547   1.237  13.873  10.555
53123W        W25548  24.077  34.184   4.772
53124W        W25549  15.128  30.582   3.203
53125W        W25550  17.077  43.224  13.369
53126W        W25551  24.795   4.555   1.437
53127W        W25552  23.601   6.680  13.608
53128W        W25553  44.816  20.670   2.870
53129W        W25554  32.054   3.115  14.426
53130W        W25555  42.759  24.525  11.019
53131W        W25556  37.939  10.678  14.819
53132W        W25557  22.879  32.108  13.807
53133W        W25558  15.712  27.503  10.925
53134W        W25559   7.456  43.987   1.207
53135W        W25560  34.676   0.902   2.161
53136W        W25561  21.226  16.616   4.671
53137W        W25562  30.915   5.273  13.162
53138W        W25563  17.218  16.033   4.624
53139W        W25564  24.253   2.319  11.274
53140W        W25565  30.123  39.046  12.984
53141W        W25566  28.024  42.436  11.973
53142W        W25567  11.185   9.316   2.273
53143W        W25568  24.115  35.335  11.709
53144W        W25569  33.072  42.427   2.250
53145W        W25570  35.930  26.401  10.752
53146W        W25571  41.525  30.049  14.577
53147W        W25572   1.410  19.031   0.738
53148W        W25573  35.058  27.016   4.281
53149W        W25574  40.042  21.135  14.125
53150W        W25575   9.338  41.793   0.680
53151W        W25576  16.320  34.984   0.783
53152W        W25577   6.366  23.256   3.291
53153W        W25578   6.743  20.008  13.299
53154W        W25579   5.843  15.882   2.791
53155W        W25580  35.840   8.359  11.407
53156W        W25581  33.385  40.864  10.400
53157W        W25582   6.827  19.490  11.564
53158W        W25583  35.427   8.514   1.287
53159W        W25584  24.811  22.567  14.437
53160W        W25585  37.612  23.443   0.547
53161W        W25586  13.552  24.379  10.892
53162W        W25587  25.794  31.390   4.411
53163W        W25588  13.185  19.209   1.321
53164W        W25589  30.963  24.699   0.887
53165W        W25590  17.419  39.480   2.642
53166W        W25591  18.148  14.020  10.741
53167W        W25592  30.154   0.834  13.488
53168W        W25593  22.699  36.869  14.423
53169W        W25594   8.886  25.906  14.747
53170W        W25595   7.791  34.203  12.942
53171W        W25596   1.757  12.329  11.142
53172W        W25597  30.834  11.280   0.310
53173W        W25598  24.197  33.373  12.006
53174W        W25599   1.755   1.446   0.361
53175W        W25600  16.537   1.346  14.935
53176W        W25601  12.862  22.459   1.327
53177W        W25602  44.687  32.580  14.582
53178W        W25603   6.836  12.062  11.482
53179W        W25604  19.512  16.131   4.874
53180W        W25605  17.184  18.759  14.775
53181W        W25606  22.543  23.477  14.863
53182W        W25607  37.752  31.453  10.617
53183W        W25608   1.318  11.328   0.738
53184W        W25609  25.164   4.660   4.165
53185W        W25610  37.636  24.767   0.523
53186W        W25611  11.871  12.671   1.155
53187W        W25612  12.201  39.408  14.395
53188W        W25613   5.960  25.257  12.590
53189W        W25614   3.286  33.518   4.653
53190W        W25615  24.666  24.944   1.901
53191W        W25616   6.762  42.233  13.317
53192W        W25617  16.842  19.244   3.112
53193W        W25618  26.681   5.772   3.784
53194W        W25619  32.941  35.013   4.660
53195W        W25620  44.772  36.595  10.831
53196W        W25621   8.891   1.901   3.798
53197W        W25622   3.742   1.527  11.551
53198W        W25623   1.484  23.696  11.044
53199W        W25624  33.362  14.235   3.996
53200W        W25625  11.821  15.305  14.272
53201W        W25626  44.339  33.457   4.499
53202W        W25627  40.033  21.614  10.219
53203W        W25628  12.741  21.476   2.861
53204W        W25629  25.115  40.165   0.212
53205W        W25630  38.096  31.373   3.587
53206W        W25631  34.823  39.580  13.911
53207W        W25632  11.576  40.982  11.354
53208W        W25633  27.077  10.745  12.946
53209W        W25634  13.698  23.732  12.096
53210W        W25635   1.099  37.158   0.169
53211W        W25636   1.316   0.988  13.624
53212W        W25637  36.998   1.225   1.926
53213W        W25638   4.047  44.804  14.449
53214W        W25639   3.074  19.160   1.377
53215W        W25640  28.530  14.578  10.824
53216W        W25641  22.478   8.230   4.845
53217W        W25642  41.022  21.312  10.236
53218W        W25643  37.602  37.451   3.755
53219W        W25644  25.214  12.137  11.304
53220W        W25645  26.633  14.710  12.854
53221W        W25646  25.807   0.472   2.736
53222W        W25647  38.320  36.331   2.552
53223W        W25648   3.759  18.912  11.066
53224W        W25649   3.865  11.172   4.163
53225W        W25650   6.214   2.417   2.890
53226W        W25651  36.358  11.637  12.816
53227W        W25652   3.535  30.187   1.671
53228W        W25653  37.752   2.720   1.427
53229W        W25654  43.582  40.753  13.828
53230W        W25655  18.542  15.654   4.026
53231W        W25656  16.719  24.754  14.950
53232W        W25657  40.204  41.412  13.187
53233W        W25658  29.298  15.000   2.824
53234W        W25659   6.164  31.456   1.463
53235W        W25660  41.357  19.572  12.777
53236W        W25661  38.028  11.432   2.615
53237W        W25662   9.847  24.163  14.416
53238W        W25663  31.114   6.387  10.329
53239W        W25664   5.487  19.354   3.279
53240W        W25665  43.676  22.911   1.262
53241W        W25666  27.442  22.629  13.900
53242W        W25667  42.822  36.376  14.634
53243W        W25668  23.135  35.533   1.476
53244W        W25669   9.392  23.162   2.306
53245W        W25670  25.582   8.307   1.661
53246W        W25671  31.182  13.138   0.513
53247W        W25672  12.061  41.421   0.469
53248W        W25673  25.762  41.977  14.585
53249W        W25674  17.616   4.210  11.869
53250W        W25675  41.787  28.773   4.318
53251W        W25676   6.285  38.445  12.563
53252W        W25677  19.292  43.766  11.779
53253W        W25678  27.931   2.042  10.912
53254W        W25679  30.085  27.970   4.826
53255W        W25680  19.233  17.249   3.589
53256W        W25681  44.513  21.264  12.601
53257W        W25682   9.403  12.362   2.800
53258W        W25683  29.701  39.731  13.515
53259W        W25684  41.573  31.125  10.852
53260W        W25685  12.325  13.899   1.802
53261W        W25686  10.692  22.761  11.175
53262W        W25687  10.727  40.786  11.122
53263W        W25688  15.151  26.527  13.954
53264W        W25689   5.647  44.453   4.435
53265W        W25690  23.679  41.951  14.348
53266W        W25691  26.574  27.688   4.344
53267W        W25692  13.779   3.310   0.392
53268W        W25693   4.123   1.245   1.841
53269W        W25694  35.669  40.007   3.243
53270W        W25695  37.007  27.900  14.865
53271W        W25696  27.820   8.118  11.996
53272W        W25697  32.091  43.217  11.188
53273W        W25698  44.866   8.224  11.602
53274W        W25699   8.091  31.800  12.968
53275W        W25700   0.310  12.300  13.062
53276W        W25701  10.385  37.913   1.999
53277W        W25702   1.447  15.794   4.635
53278W        W25703  14.155  19.698  11.602
53279W        W25704  14.646  28.327   3.338
53280W        W25705  11.686  41.894  14.593
53281W        W25706  44.802  40.363  14.505
53282W        W25707  21.530  33.276   2.830
53283W        W25708   2.806  27.524  14.817
53284W        W25709  32.406   7.965   3.753
53285W        W25710  25.079   9.107  11.625
53286W        W25711  36.905  21.208   4.840
53287W        W25712  23.936  29.159  13.012
53288W        W25713   3.328  35.096   4.129
53289W        W25714  19.795   6.043  10.435
53290W        W25715  18.827  26.953   2.737
53291W        W25716   9.800   5.527   0.488
53292W        W25717  35.294  41.671  12.120
53293W        W25718  32.722  39.895   0.967
53294W        W25719  18.076   7.243   2.677
53295W        W25720  37.503  11.317  14.881
53296W        W25721   6.880   2.965  14.930
53297W        W25722   6.480  34.054   0.441
53298W        W25723  25.197  36.614  11.201
53299W        W25724  35.350  38.111   2.314
53300W        W25725  25.085  34.415   2.577
53301W        W25726  43.408  38.683  11.038
53302W        W25727  22.829  37.790  13.303
53303W        W25728  44.554  17.784  13.889
53304W        W25729  32.527   7.708  12.753
53305W        W25730  10.223  12.698  10.081
53306W        W25731  10.879   5.522  12.542
53307W        W25732  14.954  30.505   5.002
53308W        W25733  43.983  14.638  10.542
53309W        W25734  21.664  24.697  12.581
53310W        W25735  27.728  18.241  10.549
53311W        W25736  24.426  43.226   0.459
53312W        W25737  27.848  14.959   0.736
53313W        W25738  22.471   8.656   0.030
53314W        W25739   4.339  26.699   0.199
53315W        W25740  23.483  21.114   2.939
53316W        W25741   3.498  21.161  10.897
53317W        W25742  24.630  42.368   1.244
53318W        W25743  40.018  16.373   1.870
53319W        W25744   0.343  26.273   4.016
53320W        W25745  21.643  42.044  13.558
53321W        W25746  14.969  43.152  13.544
53322W        W25747  35.548  37.929  12.310
53323W        W25748  29.211   7.608   1.054
53324W        W25749  44.876  41.020   3.530
53325W        W25750  19.485  20.143  12.939
53326W        W25751  22.154   5.924  14.507
53327W        W25752  33.520  42.333  13.453
53328W        W25753  15.311   9.813  11.931
53329W        W25754  27.395   5.878  11.918
53330W        W25755   1.865  44.274  13.569
53331W        W25756  29.219   8.114   0.961
53332W        W25757  42.956  38.611  10.761
53333W        W25758  26.235  34.683   1.479
53334W        W25759  42.214  31.156  13.370
53335W        W25760  34.498  32.843  13.507
53336W        W25761   1.554  34.787  12.861
53337W        W25762  29.604  41.374   3.399
53338W        W25763   0.493  28.589  12.059
53339W        W25764  36.153  28.065  11.665
53340W        W25765  15.062   0.454  12.183
53341W        W25766  15.122  28.469   1.164
53342W        W25767   3.722  39.853   2.685
53343W        W25768  20.785  37.244  13.320
53344W        W25769  10.759   6.985  12.690
53345W        W25770  38.943  36.603  11.666
53346W        W25771  44.965  32.385   4.603
53347W        W25772  12.252  15.561   3.790
53348W        W25773   2.975  15.256   4.211
53349W        W25774  34.551  44.772   0.979
53350W        W25775   7.300  35.867   3.378
53351W        W25776  21.897  42.227  10.999
53352W        W25777  10.594  44.200   3.156
53353W        W25778  43.443  28.437  13.318
53354W        W25779  13.783  42.508  14.144
53355W        W25780  13.842  15.800  11.906
53356W        W25781   6.207   7.817  10.776
53357W        W25782  28.085  22.681   2.140
53358W        W25783   3.765  14.863  12.069
53359W        W25784  36.248   5.656  10.193
53360W        W25785  25.895   2.146  14.456
53361W        W25786  22.196   0.043   1.096
53362W        W25787  37.264  20.004   2.326
53363W        W25788  22.688  23.005  11.576
53364W        W25789  19.021   2.540  14.358
53365W        W25790  29.448   3.800   2.423
53366W        W25791  39.294  44.727   2.312
53367W        W25792   1.412  31.622   4.256
53368W        W25793  34.096   8.425  13.587
53369W        W25794  33.436  27.235  13.703
53370W        W25795  38.562  44.425   3.673
53371W        W25796  26.455  26.638  14.276
53372W        W25797  37.986   5.943   4.210
53373W        W25798  26.029   4.207  13.470
53374W        W25799  28.026  39.903  13.800
53375W        W25800   2.432  17.598   3.327
53376W        W25801   2.856   3.997   2.711
53377W        W25802   0.508  26.167  10.718
53378W        W25803  39.324   7.784  12.356
53379W        W25804  27.415  30.930  13.952
53380W        W25805  40.072  20.689  11.591
53381W        W25806   3.204  24.371   3.140
53382W        W25807   4.999  30.787  12.968
53383W        W25808  42.453   8.470   0.856
53384W        W25809  10.640   8.347   2.177
53385W        W25810  41.831   6.379  13.465
53386W        W25811   1.363  33.161   1.441
53387W        W25812   9.789  28.196   3.279
53388W        W25813   9.965  31.566   1.274
53389W        W25814  42.119   9.940  11.009
53390W        W25815  36.645  31.033   1.198
53391W        W25816  36.821  24.680  12.980
53392W        W25817  19.303  32.130   0.414
53393W        W25818  39.565  43.127   3.084
53394W        W25819   3.228   4.395  11.170
53395W        W25820  12.304   6.326  13.173
53396W        W25821  40.872  13.101  12.101
53397W        W25822   4.381  13.620   0.851
53398W        W25823  23.172  34.507   2.384
53399W        W25824  10.514  34.006   3.708
53400W        W25825  33.395  29.927   2.262
53401W        W25826  26.489  18.861   0.480
53402W        W25827   0.298   4.334   4.158
53403W        W25828   0.279  35.548   3.769
53404W        W25829   5.007  42.792   2.952
53405W        W25830  21.875  15.177  10.936
53406W        W25831  20.136  12.881   2.778
53407W        W25832  26.627  39.022   1.380
53408W        W25833  11.108  39.499   3.956
53409W        W25834   2.517  38.761   0.401
53410W        W25835  21.912   5.786  11.126
53411W        W25836  42.401  33.574  12.560
53412W        W25837  15.604  20.292   1.818
53413W        W25838   8.215  43.059   0.347
53414W        W25839  43.500  14.208   0.665
53415W        W25840  40.540  23.253  10.624
53416W        W25841  13.791  17.770  14.345
53417W        W25842  37.360  25.609  13.756
53418W        W25843  38.949  38.243  14.924
53419W        W25844   1.561   3.974   0.726
53420W        W25845  26.186   4.953   4.054
53421W        W25846  33.535  40.871   4.354
53422W        W25847  36.407  41.863  13.515
53423W        W25848  33.818  26.527   2.175
53424W        W25849  28.510   7.564   1.643
53425W        W25850   0.659   8.329  13.823
53426W        W25851   3.184  12.196  14.365
53427W        W25852  23.063  38.340   2.292
53428W        W25853   4.092  37.163   3.211
53429W        W25854   6.916  22.389  14.402
53430W        W25855   2.517  21.179   0.824
53431W        W25856  37.260  39.336   1.316
53432W        W25857  32.161  37.957   0.198
53433W        W25858  23.957  15.665   3.704
53434W        W25859  18.037  10.329   0.908
53435W        W25860   8.211  25.728  11.536
53436W        W25861  36.558  22.425  13.903
53437W        W25862  20.016  36.259  14.979
53438W        W25863  25.150  16.707  13.026
53439W        W25864  18.303  39.055   2.637
53440W        W25865  19.927   9.269   4.044
53441W        W25866   4.281  22.044  13.379
53442W        W25867  41.866  27.234   1.967
53443W        W25868  36.764  35.134   4.088
53444W        W25869  14.634  25.920   0.830
53445W        W25870  18.264   9.366   3.614
53446W        W25871  15.794  30.133   0.207
53447W        W25872  37.112  36.541   3.294
53448W        W25873   5.579   8.175   3.238
53449W        W25874  10.390  25.197  13.887
53450W        W25875  39.117   7.695  14.161
53451W        W25876  38.662  42.888  14.933
53452W        W25877  37.508   2.149   3.816
53453W        W25878  35.078  11.491  12.010
53454W        W25879  32.026  29.543   2.438
53455W        W25880   3.367  16.909   2.189
53456W        W25881  40.418  30.592  11.118
53457W        W25882  21.355   7.902   1.771
53458W        W25883  39.783   8.279  11.172
53459W        W25884   5.272  35.777   0.259
53460W        W25885   1.218  25.672   0.985
53461W        W25886  20.605  30.899  14.348
53462W        W25887  44.814  35.764  10.964
53463W        W25888  41.584  16.642  11.147
53464W        W25889  30.492   3.129   0.645
53465W        W25890  30.423  43.264  12.480
53466W        W25891  11.281  22.761   1.873
53467W        W25892  39.875  41.944   0.903
53468W        W25893  43.807  34.768   0.749
53469W        W25894  22.642  35.997  12.575
53470W        W25895   1.885  28.972  14.469
53471W        W25896  27.064  16.361  13.945
53472W        W25897   3.795  40.306   0.758
53473W        W25898   4.132  19.013  13.384
53474W        W25899   2.693   9.648   0.676
53475W        W25900  38.769  32.006   4.630
53476W        W25901  27.740  39.463   3.210
53477W        W25902  42.385  35.052   0.717
53478W        W25903   4.450  11.041   3.542
53479W        W25904  30.705  37.128   4.318
53480W        W25905   7.663   4.268  10.891
53481W        W25906  34.053  42.036   3.419
53482W        W25907  12.605   5.521  11.106
53483W        W25908   0.304  29.141  12.928
53484W        W25909  39.831  22.604  11.343
53485W        W25910  44.242   7.996   0.295
53486W        W25911   2.816  19.996   1.291
53487W        W25912   5.403  43.364  11.200
53488W        W25913   6.680  32.436  14.799
53489W        W25914  15.303  33.398   1.861
53490W        W25915   7.158   9.192  13.915
53491W        W25916  35.521  20.011   1.707
53492W        W25917   2.353   5.405  14.967
53493W        W25918  27.673   4.166   1.119
53494W        W25919   6.156  24.800  12.853
53495W        W25920  32.430  40.994   1.426
53496W        W25921   1.570  21.710   1.857
53497W        W25922  24.657  30.450  14.989
53498W        W25923  44.216  10.793   4.210
53499W        W25924  31.728  17.035  12.476
53500W        W25925   7.661  18.177  13.885
53501W        W25926   3.508  16.567  10.474
53502W        W25927   6.136  26.171  12.233
53503W        W25928  17.704  39.806  11.606
53504W        W25929  24.245   8.672  14.004
53505W        W25930  43.694  15.831  14.503
53506W        W25931   5.004  28.712   1.716
53507W        W25932  22.589  21.649  11.400
53508W        W25933  25.301  12.299  10.809
53509W        W25934  26.659  13.802   2.667
53510W        W25935  34.040  32.077   4.320
53511W        W25936  27.035  13.046   1.765
53512W        W25937  21.871   1.835  12.182
53513W        W25938  24.611  32.868  13.044
53514W        W25939  18.558  31.445  12.394
53515W        W25940   7.684  42.055  12.170
53516W        W25941  29.560  18.501   2.312
53517W        W25942   2.179  24.608   1.154
53518W        W25943  22.739  39.623   0.293
53519W        W25944  37.434  28.043   3.268
53520W        W25945   9.330  40.247  11.981
53521W        W25946   3.822  43.406  14.460
53522W        W25947  18.594  41.034   4.557
53523W        W25948  14.553  27.864  11.499
53524W        W25949  30.886   4.381  14.315
53525W        W25950  10.228  22.180   5.205
53526W        W25951  35.421   4.872  11.160
53527W        W25952   2.869  19.328  13.489
53528W        W25953  27.129  29.581   0.771
53529W        W25954  25.891  33.187   0.397
53530W        W25955  25.059  18.762   0.358
53531W        W25956  23.087  10.564   3.134
53532W        W25957  11.162  44.535  12.828
53533W        W25958  13.779  25.132   0.074
53534W        W25959  38.904  21.033  13.868
53535W        W25960  31.496  40.988   1.375
53536W        W25961  10.257  29.556  11.476
53537W        W25962  18.041  11.133   4.066
53538W        W25963   9.915  23.678  14.555
53539W        W25964  36.060  30.803  10.712
53540W        W25965  17.341  35.332  13.444
53541W        W25966  42.443   6.124  14.062
53542W        W25967  37.121   5.502   0.284
53543W        W25968  16.519   0.075   3.315
53544W        W25969  22.428  24.756  14.422
53545W        W25970  13.143  41.086  11.537
53546W        W25971  24.009  11.202  13.640
53547W        W25972  33.349   3.661  12.983
53548W        W25973  19.460   5.235  12.359
53549W        W25974  33.315  12.325  13.405
53550W        W25975  37.959  12.155   0.731
53551W        W25976  30.381  34.796   2.368
53552W        W25977  11.248  10.178   1.695
53553W        W25978  18.179   1.326  13.908
53554W        W25979   3.838   7.918   0.799
53555W        W25980  41.659  26.187  13.822
53556W        W25981  26.917  35.494   3.169
53557W        W25982   7.510   5.702   0.610
53558W        W25983  25.527   5.233  11.479
53559W        W25984  11.558  13.760   0.183
53560W        W25985  29.686  17.147  12.485
53561W        W25986  28.405  38.189   0.074
53562W        W25987   6.396  36.569   4.349
53563W        W25988  39.953   6.752   3.420
53564W        W25989  11.864  34.453  14.807
53565W        W25990  26.532  43.817  12.615
53566W        W25991  23.752  22.801  13.444
53567W        W25992  12.688  43.985   1.504
53568W        W25993  13.847   5.216   0.995
53569W        W25994  43.238  43.953   4.639
53570W        W25995  44.970  23.513   0.272
53571W        W25996  30.362  44.002   1.789
53572W        W25997  44.774  41.968  10.657
53573W        W25998  21.728  20.061   3.209
53574W        W25999  27.913  33.166   2.394
53575W        W26000   4.090  11.252   0.564
53576W        W26001  23.616  31.478   0.334
53577W        W26002  41.153  24.039   1.659
53578W        W26003  10.644  20.542   1.703
53579W        W26004  32.519  42.879  12.977
53580W        W26005  38.509  15.025  11.832
53581W        W26006  31.631  38.457   2.996
53582W        W26007  17.787  14.073   2.616
53583W        W26008  13.701  16.625  13.010
53584W        W26009  22.695  44.553   1.680
53585W        W26010  38.640  18.973  13.488
53586W        W26011  13.724  32.810   1.058
53587W        W26012  22.029  21.115   4.648
53588W        W26013   4.397   4.324   1.242
53589W        W26014  44.707  19.522  10.797
53590W        W26015  37.412  12.280   0.408
53591W        W26016  32.887   8.271  12.568
53592W        W26017  31.229   7.795   1.253
53593W        W26018  24.865  42.104   1.824
53594W        W26019  22.017  15.408   2.791
53595W        W26020  22.694  26.118  10.021
53596W        W26021  43.398  31.117  12.856
53597W        W26022  29.445  35.789  11.084
53598W        W26023  38.763  27.104   3.052
53599W        W26024  44.955  41.111  14.006
53600W        W26025  31.638  35.973   4.157
53601W        W26026  19.852  35.132   2.818
53602W        W26027  13.241  33.924  11.160
53603W        W26028  14.103  44.904  13.007
53604W        W26029  16.799   9.668  14.047
53605W        W26030  43.771  43.110  12.433
53606W        W26031  41.267  40.521   0.392
53607W        W26032  19.540  24.506  13.064
53608W        W26033  36.089  11.808  10.721
53609W        W26034  17.171  42.301   3.656
53610W        W26035  34.137  33.331  12.335
53611W        W26036  37.127   3.833   0.757
53612W        W26037  14.318  21.440   0.893
53613W        W26038  19.531  33.949  12.152
53614W        W26039  39.899  24.062  10.779
53615W        W26040  44.426  29.674  14.693
53616W        W26041   5.361  31.625   4.096
53617W        W26042  23.340   2.991  11.095
53618W        W26043   3.255  26.454   0.478
53619W        W26044  44.302   4.357  14.420
53620W        W26045   0.630   5.268  13.433
53621W        W26046  39.017  14.063   0.369
53622W        W26047  44.736  13.204  11.170
53623W        W26048  15.267  31.644   1.391
53624W        W26049  42.494  32.245   2.181
53625W        W26050   2.727  12.480   4.581
53626W        W26051  23.745   9.029  14.928
53627W        W26052   6.568  34.503  13.985
53628W        W26053   4.676  37.326  14.797
53629W        W26054  29.154  32.999   2.744
53630W        W26055   4.195  39.545  13.086
53631W        W26056  27.738  38.034   1.385
53632W        W26057  11.864  11.853  10.695
53633W        W26058  25.142   5.775   4.014
53634W        W26059  43.454   2.886   3.045
53635W        W26060   7.254  15.414   1.203
53636W        W26061  18.522   7.975  11.382
53637W        W26062  41.026  29.196   4.640
53638W        W26063  32.021  26.700   3.697
53639W        W26064   7.662   2.952   3.764
53640W        W26065  26.732  12.009  13.536
53641W        W26066  41.190  38.589   3.069
53642W        W26067  44.337  28.901  11.835
53643W        W26068   6.305  28.418  12.974
53644W        W26069  19.475   1.805   2.015
53645W        W26070  31.967  19.985  13.371
53646W        W26071  30.617  10.480   0.885
53647W        W26072  30.022   1.989  12.984
53648W        W26073   8.145  26.648   5.043
53649W        W26074  40.077   5.683  11.968
53650W        W26075   0.444  25.704  13.809
53651W        W26076  44.860  15.474   1.051
53652W        W26077  34.622  16.563  13.452
53653W        W26078  44.418   1.561   1.627
53654W        W26079  41.974  30.277   1.761
53655W        W26080  41.750  38.493  13.802
53656W        W26081  36.425  27.535  10.716
53657W        W26082  13.569  35.920  14.927
53658W        W26083  20.367  15.181   4.099
53659W        W26084  23.047  42.537   2.142
53660W        W26085  38.824  25.763   2.202
53661W        W26086   4.290  15.151   4.071
53662W        W26087  32.440  31.679  13.468
53663W        W26088  35.469  43.577  12.597
53664W        W26089  27.877  19.506   4.719
53665W        W26090  38.871  39.446   4.308
53666W        W26091  23.061  23.061  14.769
53667W        W26092  42.317   7.450  12.829
53668W        W26093   1.804  13.240   2.781
53669W        W26094  43.749  30.529   2.432
53670W        W26095  31.956  26.985   4.190
53671W        W26096   9.950  30.353   2.769
53672W        W26097  27.001  37.227   2.241
53673W        W26098  17.235   4.564   1.861
53674W        W26099   0.876  27.709   0.856
53675W        W26100  43.548  15.314   1.304
53676W        W26101  29.123  25.663  14.398
53677W        W26102  18.254  13.653   1.488
53678W        W26103  26.428  17.042   0.781
53679W        W26104  15.652  15.116  11.726
53680W        W26105  20.708  40.623  14.869
53681W        W26106   7.830  33.123  11.781
53682W        W26107  28.595  19.629  13.066
53683W        W26108   2.357  16.996  12.066
53684W        W26109  25.184  18.945  11.215
53685W        W26110  44.262   8.405   0.841
53686W        W26111   3.131  12.252   0.297
53687W        W26112  26.082   9.405   2.407
53688W        W26113   3.383   9.533  10.692
53689W        W26114  15.663  41.693   0.900
53690W        W26115  28.579  33.362   4.103
53691W        W26116   3.346  39.690  13.932
53692W        W26117  36.066   9.465   1.722
53693W        W26118  13.116   1.774  12.947
53694W        W26119  29.274  32.292   1.892
53695W        W26120  40.191  30.407  11.566
53696W        W26121  24.110  32.451   2.980
53697W        W26122  42.016  11.886  13.023
53698W        W26123   5.706  37.931  12.090
53699W        W26124  24.607   0.165   4.626
53700W        W26125  15.621  23.531   0.369
53701W        W26126  13.285  43.293  12.222
53702W        W26127  22.571  29.825  11.480
53703W        W26128  31.064  33.368  14.895
53704W        W26129  13.395  12.499   0.324
53705W        W26130  23.008  17.289   0.812
53706W        W26131   9.240  26.599   3.810
53707W        W26132  18.585  10.403  12.477
53708W        W26133  37.666   8.420   3.656
53709W        W26134  41.965  31.084  14.479
53710W        W26135  44.846  11.925   1.466
53711W        W26136   5.142   1.022  12.147
53712W        W26137  15.181   6.211   2.754
53713W        W26138  41.368  17.740  13.445
53714W        W26139  33.635  22.577  14.862
53715W        W26140   0.506  34.389   2.687
53716W        W26141  11.721  24.786   3.757
53717W        W26142  23.416  42.845   1.814
53718W        W26143  23.767  11.465  14.482
53719W        W26144  25.432  13.150   0.774
53720W        W26145   2.840  41.331   1.798
53721W        W26146  40.843   9.149  11.036
53722W        W26147  37.755  28.727  11.314
53723W        W26148  33.601  28.391  12.357
53724W        W26149  18.112  44.924  14.062
53725W        W26150  43.359   9.049   2.896
53726W        W26151   9.416   5.378   4.157
53727W        W26152  21.609   1.818  13.980
53728W        W26153  24.127   3.971   1.392
53729W        W26154  30.169   2.642   2.741
53730W        W26155  30.094  25.903   1.329
53731W        W26156   3.012  26.070   0.829
53732W        W26157  19.850  24.141  13.933
53733W        W26158   4.771   3.325  10.330
53734W        W26159  22.804  36.536  11.136
53735W        W26160   0.233  36.313   1.619
53736W        W26161   8.386  20.144   4.667
53737W        W26162  40.102   1.484   4.867
53738W        W26163  26.018  30.019   3.220
53739W        W26164   7.704   9.376   3.594
53740W        W26165  13.916   5.125  10.067
53741W        W26166  21.258  30.861  11.672
53742W        W26167  22.999  11.279   1.781
53743W        W26168  43.849  12.849   4.296
53744W        W26169  26.941  13.084  12.618
53745W        W26170  29.080   3.974   4.594
53746W        W26171   0.439   5.669   2.916
53747W        W26172  26.458  30.857   3.576
53748W        W26173  19.046   1.505   1.855
53749W        W26174  40.362  40.304   3.224
53750W        W26175  14.828  34.351  12.355
53751W        W26176  16.218  44.948  14.876
53752W        W26177   4.231  43.145  14.281
53753W        W26178  40.570  25.964   1.159
53754W        W26179  37.177  18.982  14.822
53755W        W26180   5.440  35.364   3.756
53756W        W26181  18.502  38.396   0.017
53757W        W26182  20.682  14.845  14.484
53758W        W26183  12.681   8.159   4.643
53759W        W26184  19.284   5.935  10.791
53760W        W26185  18.606  40.895  14.484
53761W        W26186  33.963  39.110  14.386
53762W        W26187  23.649  19.076   2.724
53763W        W26188  31.634  28.626   0.278
53764W        W26189   1.930  10.424  11.970
53765W        W26190   4.412  39.090   2.625
53766W        W26191  25.126  13.745  14.975
53767W        W26192  21.271  19.932  13.533
53768W        W26193  23.830  44.991   1.052
53769W        W26194  12.329   9.045   0.752
53770W        W26195  42.687  33.594  12.981
53771W        W26196  28.548   4.905  11.062
53772W        W26197  16.638  18.220  12.893
53773W        W26198  42.354  16.041  12.239
53774W        W26199  34.578  38.446   0.757
53775W        W26200  27.156   1.466   0.951
53776W        W26201  41.725  37.941  13.504
53777W        W26202  21.343  29.457  11.992
53778W        W26203  33.780  43.777   0.851
53779W        W26204  10.746  41.281   3.167
53780W        W26205  24.264  36.043   3.992
53781W        W26206  41.079  43.013   3.623
53782W        W26207  40.548  18.004  13.972
53783W        W26208   3.012  24.865   3.241
53784W        W26209  19.174  19.031  11.036
53785W        W26210  14.631   0.353   2.710
53786W        W26211  16.013  27.953  13.528
53787W        W26212  11.717  35.404  11.675
53788W        W26213  44.905   2.672   4.033
53789W        W26214  18.172  26.491   2.912
53790W        W26215  30.883   9.305   0.866
53791W        W26216  12.147   9.414  10.659
53792W        W26217   0.721  36.392  12.514
53793W        W26218  29.271  29.371   1.821
53794W        W26219  29.141  32.179  14.410
53795W        W26220  30.562  40.583  13.959
53796W        W26221  38.460  30.546   3.149
53797W        W26222  31.323  41.632  10.228
53798W        W26223  33.943  15.643   0.582
53799W        W26224   2.187  31.765  12.943
53800W        W26225  20.385  32.312   2.716
53801W        W26226  36.142  19.052  14.900
53802W        W26227   2.508  22.555   4.993
53803W        W26228   6.858  37.734   4.301
53804W        W26229  29.125   1.161   1.262
53805W        W26230   9.891  20.065  13.960
53806W        W26231  14.064  30.032   1.808
53807W        W26232   2.420   4.815   2.685
53808W        W26233  24.118  17.347  12.095
53809W        W26234  13.090  28.119   0.807
53810W        W26235  18.930   5.374   3.619
53811W        W26236  12.031  10.639   1.526
53812W        W26237  33.429  43.182  10.910
53813W        W26238  14.757  20.006   5.118
53814W        W26239  28.664  42.789   4.240
53815W        W26240  20.176   2.396   0.782
53816W        W26241  13.808  37.294  13.411
53817W        W26242  26.120  35.076  10.586
53818W        W26243  40.334  21.814   0.935
53819W        W26244  10.348   6.624   2.538
53820W        W26245  26.567  20.322   3.695
53821W        W26246  32.204  42.502   3.621
53822W        W26247  22.749  21.774  14.301
53823W        W26248   0.038  32.953   2.681
53824W        W26249  38.562   4.795   2.263
53825W        W26250  37.556  10.749  10.494
53826W        W26251  38.769   9.755  10.715
53827W        W26252  10.212  34.633  12.851
53828W        W26253   8.405  23.844   3.433
53829W        W26254  22.703  28.225  13.498
53830W        W26255  22.169  40.305   1.692
53831W        W26256  24.543  39.406   4.627
53832W        W26257  32.686   5.347   0.949
53833W        W26258  19.143  15.033  10.638
53834W        W26259  40.324   2.238  12.033
53835W        W26260  12.292   8.146   1.033
53836W        W26261  15.930  37.970  14.889
53837W        W26262  35.455  43.336  14.753
53838W        W26263  27.310  35.504   3.625
53839W        W26264  24.504  10.174  14.971
53840W        W26265   0.077  17.552   0.116
53841W        W26266  31.845   0.310  12.994
53842W        W26267  43.771  17.384   4.234
53843W        W26268   9.673  26.551   1.740
53844W        W26269  30.004  40.302  14.275
53845W        W26270   1.413  33.827   2.832
53846W        W26271  13.849  11.090   2.366
53847W        W26272  22.622   0.389  14.264
53848W        W26273  23.291  39.999  13.295
53849W        W26274   1.232   9.669  11.196
53850W        W26275  24.125  44.483   4.491
53851W        W26276  27.604  10.286   9.849
53852W        W26277  42.402   9.575  12.629
53853W        W26278  15.701  15.824   1.890
53854W        W26279  34.487  27.104   3.711
53855W        W26280   2.641  40.229   0.506
53856W        W26281  35.188  28.498   3.885
53857W        W26282  23.890  22.676   0.853
53858W        W26283  21.161  16.697   0.504
53859W        W26284  19.189  20.209   3.086
53860W        W26285   2.433  25.822   3.157
53861W        W26286   5.288  21.095   4.952
53862W        W26287   2.178   3.333   0.219
53863W        W26288  40.083  31.617   4.793
53864W        W26289   3.845  32.859   4.501
53865W        W26290  35.938  30.702   2.165
53866W        W26291  12.832  30.041   2.590
53867W        W26292   3.200  15.740   4.520
53868W        W26293   0.455  33.106   4.317
53869W        W26294  19.715  26.910  10.483
53870W        W26295  42.109   3.449  13.420
53871W        W26296  33.578  31.891   2.166
53872W        W26297  41.299  11.238  13.910
53873W        W26298  40.869  44.200   4.119
53874W        W26299  35.298  28.465   2.738
53875W        W26300   5.326  40.759  10.720
53876W        W26301   3.262  43.928   0.896
53877W        W26302  17.213  32.825   0.005
53878W        W26303  31.030  29.181  12.385
53879W        W26304  19.497  34.513  13.586
53880W        W26305  19.500  30.424   4.537
53881W        W26306  15.628   4.789   1.143
53882W        W26307  42.270  40.378   2.831
53883W        W26308   3.118  37.512   3.367
53884W        W26309  43.771  25.710   1.252
53885W        W26310   2.487  21.652  13.402
53886W        W26311  42.499  24.600   1.310
53887W        W26312  33.296  15.050   1.862
53888W        W26313  39.008  21.257  11.147
53889W        W26314  10.940  10.107   0.314
53890W        W26315  28.755  44.772   3.252
53891W        W26316  28.901   6.648   4.105
53892W        W26317  10.414  28.904  10.672
53893W        W26318  33.493  37.352  11.972
53894W        W26319  25.136  44.474   0.524
53895W        W26320   3.204  13.734  10.648
53896W        W26321  19.036  19.215   0.382
53897W        W26322  13.316  20.672   2.602
53898W        W26323  33.717  14.092   1.742
53899W        W26324  39.060  27.963   4.833
53900W        W26325  44.777  20.246   4.492
53901W        W26326  13.704  18.321  13.480
53902W        W26327  16.321  19.221   4.277
53903W        W26328  36.883  33.933  11.570
53904W        W26329  23.625   1.466  10.706
53905W        W26330  14.983  43.817   3.573
53906W        W26331  39.115  21.610   4.267
53907W        W26332  12.402  32.720   3.221
53908W        W26333   2.718   4.421  10.404
53909W        W26334   4.442   3.344   0.707
53910W        W26335  12.727   4.518  14.383
53911W        W26336  34.941   8.421   3.868
53912W        W26337  43.784  44.342  12.055
53913W        W26338  32.591   6.335   4.535
53914W        W26339  43.398  11.918  11.082
53915W        W26340  26.757  14.641  11.003
53916W        W26341   6.685  35.584  11.979
53917W        W26342  10.286   8.080   4.171
53918W        W26343  33.517   2.188  14.855
53919W        W26344   7.612  20.120  10.880
53920W        W26345  43.391  10.141  13.957
53921W        W26346  29.876  14.052  12.492
53922W        W26347  29.182  41.399   9.749
53923W        W26348  42.961  29.059  10.711
53924W        W26349  13.397   8.646   3.261
53925W        W26350   0.705   0.531   1.383
53926W        W26351  28.574  15.978   0.945
53927W        W26352  11.355  36.310  10.609
53928W        W26353  42.083  44.808   1.869
53929W        W26354  27.136   7.271  14.859
53930W        W26355  44.043  39.551   1.816
53931W        W26356  34.573   7.741   0.205
53932W        W26357  18.309   8.576   3.036
53933W        W26358   4.414  10.943  13.820
53934W        W26359  27.816  27.952  14.985
53935W        W26360  22.550  35.031  10.201
53936W        W26361   6.803  41.307  12.150
53937W        W26362  32.104   1.714   3.716
53938W        W26363  21.476  27.584  10.805
53939W        W26364  29.480   3.921   2.907
53940W        W26365   6.452  15.982   1.187
53941W        W26366   9.634  20.601  12.249
53942W        W26367  28.963   3.872  14.082
53943W        W26368  27.155  22.387  14.714
53944W        W26369  21.191   9.090   3.732
53945W        W26370  24.194  32.674  13.908
53946W        W26371  22.038  35.398  10.506
53947W        W26372   8.143  44.939   4.785
53948W        W26373  37.068  29.385  14.735
53949W        W26374  16.221  43.429  10.756
53950W        W26375   6.423  39.730  14.822
53951W        W26376  22.175   9.198  11.026
53952W        W26377   9.314  10.901  11.601
53953W        W26378  21.193  37.837   3.386
53954W        W26379  15.510   5.420   0.364
53955W        W26380   1.356  22.685   0.895
53956W        W26381  30.497  44.848  11.975
53957W        W26382  37.598  22.752   3.301
53958W        W26383  33.452   2.345  13.329
53959W        W26384  16.603   0.299  13.949
53960W        W26385  37.563   0.467   3.824
53961W        W26386  35.556   9.476  10.332
53962W        W26387   1.496  22.078  10.549
53963W        W26388  35.447   4.137   0.850
53964W        W26389  38.935  25.161   1.150
53965W        W26390  18.771   3.942  13.860
53966W        W26391  36.307  37.391   3.811
53967W        W26392  17.024  39.663   0.019
53968W        W26393   1.780   7.371  12.428
53969W        W26394  10.616  44.753  12.953
53970W        W26395  14.127  15.825  11.468
53971W        W26396  41.454  28.613  14.356
53972W        W26397   5.195  20.639   4.669
53973W        W26398  41.807  31.636  11.944
53974W        W26399  29.708  12.226   4.407
53975W        W26400  16.796  38.978   0.780
53976W        W26401  23.156  24.076  13.304
53977W        W26402  43.492  44.488  14.209
53978W        W26403   7.436   6.343  11.581
53979W        W26404  26.386   9.805   0.281
53980W        W26405  14.285  14.357   3.392
53981W        W26406  32.158   4.642   1.295
53982W        W26407  15.524  14.626  14.455
53983W        W26408  35.435  16.347   4.556
53984W        W26409  37.878  28.505  10.834
53985W        W26410  37.064  11.673   1.556
53986W        W26411  32.431  42.292  10.806
53987W        W26412   7.214  11.890   0.271
53988W        W26413  26.188  20.220  11.379
53989W        W26414  10.698  25.603  13.744
53990W        W26415  30.006  17.074   4.101
53991W        W26416  12.513  18.078  10.588
53992W        W26417  41.381   9.673   0.359
53993W        W26418  36.494  32.513  14.827
53994W        W26419  44.912  31.132   9.865
53995W        W26420   2.558  39.809  13.669
53996W        W26421  35.460   5.174  10.735
53997W        W26422  11.895  30.108   4.842
53998W        W26423   3.404  17.457  14.017
53999W        W26424  32.289  26.516  12.057
54000W        W26425   7.890  23.235   4.037
54001W        W26426  27.619  21.037  10.779
54002W        W26427  14.285  13.726  14.206
54003W        W26428  29.946  13.032  10.600
54004W        W26429  27.050  31.536   2.714
54005W        W26430  31.168   4.030   4.192
54006W        W26431  33.515  22.581   0.697
54007W        W26432  17.168  26.757  12.625
54008W        W26433   1.845  34.643   0.624
54009W        W26434  35.994  27.058   2.292
54010W        W26435  31.084  11.722   0.407
54011W        W26436  12.758  23.473   2.926
54012W        W26437   7.671   3.823  13.409
54013W        W26438  41.086  19.217   2.191
54014W        W26439  31.187  43.013   4.276
54015W        W26440  25.114   6.968  10.482
54016W        W26441  16.006   5.192   3.241
54017W        W26442  44.556   9.111  12.999
54018W        W26443   4.298  32.699   1.480
54019W        W26444  35.116   5.175  12.002
54020W        W26445  44.989  32.979   0.348
54021W        W26446  32.919  41.302  13.491
54022W        W26447   8.223  38.432  12.604
54023W        W26448  18.970  34.088  11.001
54024W        W26449   2.374  15.741  14.125
54025W        W26450  10.641  41.291  11.155
54026W        W26451  12.661  26.955   4.616
54027W        W26452  10.864  17.524   3.052
54028W        W26453   2.831  39.314   1.688
54029W        W26454  24.866  33.230   5.210
54030W        W26455  26.360  32.949  10.195
54031W        W26456  34.128  19.889   1.502
54032W        W26457  20.220  27.627  13.905
54033W        W26458  26.807  30.910  10.298
54034W        W26459  18.466  32.077  14.726
54035W        W26460  28.669  16.473  13.725
54036W        W26461   0.031  41.550  10.824
54037W        W26462  36.748   8.798   4.787
54038W        W26463  20.105   9.088  12.289
54039W        W26464   8.140  42.434   1.074
54040W        W26465  29.905  23.713   3.165
54041W        W26466  19.292  34.919  12.362
54042W        W26467   5.239  43.566  10.710
54043W        W26468  39.680  11.120  12.317
54044W        W26469   8.888   2.202  12.977
54045W        W26470   7.405   5.764   1.200
54046W        W26471  13.921   4.006   1.818
54047W        W26472   5.839  30.599  10.761
54048W        W26473  15.794   3.262  11.125
54049W        W26474  22.216  18.572   0.053
54050W        W26475   5.869  43.279  13.355
54051W        W26476   2.616  44.581  11.298
54052W        W26477   9.486  31.341  13.582
54053W        W26478  40.435  44.832   0.568
54054W        W26479  23.041   9.515   9.896
54055W        W26480  43.259  25.701   1.394
54056W        W26481   8.077  24.557  10.994
54057W        W26482  21.195  36.329   1.561
54058W        W26483  11.321  23.750  14.590
54059W        W26484   7.118  27.061  11.996
54060W        W26485   2.766  15.898   1.719
54061W        W26486  36.060  43.086  12.289
54062W        W26487  42.547   5.331   0.866
54063W        W26488  13.068  42.468   2.342
54064W        W26489  29.116  10.681  13.612
54065W        W26490  42.904  23.729  14.079
54066W        W26491  39.055  30.741  13.456
54067W        W26492  11.964  25.130   9.667
54068W        W26493  16.768  34.840   1.037
54069W        W26494  38.508  28.222  13.811
54070W        W26495  19.044   1.412  11.539
54071W        W26496  33.155  21.760   0.512
54072W        W26497  16.737   8.688   4.774
54073W        W26498  14.644   3.294   5.055
54074W        W26499  40.458  24.231   2.791
54075W        W26500  13.228  30.106  11.679
54076W        W26501  44.721  34.382  10.516
54077W        W26502  10.129  43.436  14.002
54078W        W26503  30.121  31.772  11.821
54079W        W26504  27.929  15.285  13.687
54080W        W26505  37.472   6.126  12.360
54081W        W26506  43.910  41.273   2.220
54082W        W26507  28.568  31.557  11.662
54083W        W26508  43.880   5.216  14.198
54084W        W26509  38.415  38.456   4.421
54085W        W26510  28.852  27.105  11.128
54086W        W26511   2.161  18.193   2.731
54087W        W26512  32.784  29.676   1.355
54088W        W26513   7.799  39.015  10.218
54089W        W26514  28.392  31.436   2.636
54090W        W26515  42.535  29.424  11.864
54091W        W26516  16.527  38.025   3.335
54092W        W26517  34.779   9.205  11.649
54093W        W26518  33.375  21.153   1.918
54094W        W26519   9.715   6.420   1.355
54095W        W26520   3.432   9.010   3.418
54096W        W26521  43.928   5.614   1.779
54097W        W26522  22.723  16.508  13.083
54098W        W26523  26.215  38.420   0.934
54099W        W26524  36.023  16.298   0.005
54100W        W26525   5.112  27.102  12.099
54101W        W26526   1.923  26.360  12.545
54102W        W26527  24.429  44.038   2.240
54103W        W26528  35.869   6.451  10.248
54104W        W26529  12.437  41.817   3.801
54105W        W26530  34.409  10.877   3.723
54106W        W26531   1.977  16.180  10.764
54107W        W26532  29.107  37.473  13.361
54108W        W26533  13.385  30.579   3.763
54109W        W26534  33.306   8.761  13.123
54110W        W26535   6.897  33.055  12.950
54111W        W26536  36.960  22.308   2.716
54112W        W26537  40.847  44.864  13.869
54113W        W26538   4.834  14.046  12.442
54114W        W26539  30.178   2.450   0.814
54115W        W26540  36.558   8.108  10.752
54116W        W26541  31.836   6.031  14.760
54117W        W26542  12.391  15.147   2.306
54118W        W26543  25.021  26.547   1.848
54119W        W26544  41.037  10.786   4.541
54120W        W26545   9.864   1.168  11.212
54121W        W26546  44.703  10.465   0.447
54122W        W26547  27.038  24.425   1.455
54123W        W26548  13.862   2.492  13.894
54124W        W26549   5.867  43.809  12.461
54125W        W26550  24.583  44.846  10.460
54126W        W26551  17.033  16.258  13.009
54127W        W26552  41.819  31.672   1.870
54128W        W26553  40.367   8.886  13.324
54129W        W26554  44.923  11.452   1.327
54130W        W26555   4.874   1.424  10.457
54131W        W26556  11.234  14.862   4.363
54132W        W26557  21.309  13.147   0.973
54133W        W26558  44.778  18.425   1.990
54134W        W26559  41.886  24.191  12.530
54135W        W26560   0.239   5.046  13.731
54136W        W26561  43.455   5.706  13.985
54137W        W26562  42.916  28.010  10.860
54138W        W26563  38.622  13.885  13.546
54139W        W26564   0.765  13.811   0.754
54140W        W26565  41.280  31.930   3.901
54141W        W26566   0.308  15.209   3.760
54142W        W26567  21.268  21.281  13.382
54143W        W26568  43.513  23.677  13.362
54144W        W26569  15.156  13.385  14.057
54145W        W26570  35.434   8.949   0.319
54146W        W26571  38.963  42.578   0.446
54147W        W26572  24.492  19.120  12.508
54148W        W26573  12.061   3.073   1.204
54149W        W26574   8.238  36.700  14.802
54150W        W26575  19.531  25.456  14.376
54151W        W26576   2.188  34.201   2.406
54152W        W26577  28.203   1.699  13.093
54153W        W26578   2.400  43.536  13.633
54154W        W26579  29.707  30.497   4.104
54155W        W26580  41.141  22.551   4.156
54156W        W26581  19.306  39.238  11.147
54157W        W26582  28.204  10.798   4.231
54158W        W26583  39.586  37.093  12.885
54159W        W26584  39.901   9.885   1.858
54160W        W26585  36.335  38.034  14.488
54161W        W26586  25.440  41.168   5.048
54162W        W26587  19.022  37.001   1.465
54163W        W26588  39.510  16.660   4.195
54164W        W26589  21.113  11.607  11.738
54165W        W26590  37.420   6.493  12.715
54166W        W26591   5.384  24.575   1.501
54167W        W26592  35.017  36.672   4.008
54168W        W26593   0.720  26.348   4.362
54169W        W26594  41.167   0.450  14.712
54170W        W26595  31.639  44.495  11.104
54171W        W26596  42.983  28.982   0.378
54172W        W26597  11.076  11.148  14.392
54173W        W26598   9.813  44.684  11.161
54174W        W26599  29.064  21.162  13.798
54175W        W26600  30.482  31.814   9.932
54176W        W26601  15.552  36.880   1.659
54177W        W26602  37.000  42.149   0.187
54178W        W26603  16.676  16.858   1.791
54179W        W26604  11.344  36.816  11.647
54180W        W26605  12.845  23.227   1.026
54181W        W26606  35.351   4.510  13.577
54182W        W26607  10.303  26.608  12.452
54183W        W26608  19.629  15.125  11.099
54184W        W26609  43.785  34.369   4.456
54185W        W26610   0.512  27.623  12.026
54186W        W26611  11.020  15.655  10.845
54187W        W26612  18.461   4.704   0.691
54188W        W26613  43.907  28.058   0.270
54189W        W26614  21.334  18.303  11.188
54190W        W26615   2.950   9.226   1.459
54191W        W26616  21.271  34.530  12.173
54192W        W26617  23.982  21.527   4.071
54193W        W26618  35.389  10.634   1.663
54194W        W26619   4.005  21.825  10.781
54195W        W26620  27.462  24.140  11.111
54196W        W26621  27.223  37.390   2.704
54197W        W26622   5.490  34.747   3.612
54198W        W26623  11.225  35.926   0.807
54199W        W26624  27.036  18.821   2.389
54200W        W26625  13.699  39.842  13.867
54201W        W26626  35.786   4.274  13.745
54202W        W26627   3.156  11.763   3.117
54203W        W26628  17.775  22.457   2.171
54204W        W26629  15.480  36.541   0.802
54205W        W26630  33.016  22.235   1.857
54206W        W26631   7.256  28.128   0.425
54207W        W26632   4.289  22.123  10.435
54208W        W26633  35.327  29.722  10.536
54209W        W26634  17.652  35.381   0.765
54210W        W26635   6.821  37.223   4.341
54211W        W26636  21.603   9.121  14.975
54212W        W26637  25.213  12.792   0.435
54213W        W26638  15.377  31.178   0.333
54214W        W26639   5.125  25.093   2.645
54215W        W26640  29.127   9.581   2.727
54216W        W26641  33.628  28.901  14.654
54217W        W26642  17.259  11.882   1.533
54218W        W26643  27.922   5.090   1.115
54219W        W26644  18.859  29.469   0.216
54220W        W26645  38.452  29.945   1.817
54221W        W26646   7.397  14.325   4.321
54222W        W26647  44.775  36.141   1.376
54223W        W26648  31.002  35.617  14.937
54224W        W26649  29.213  16.539   3.255
54225W        W26650  31.689  43.895   1.278
54226W        W26651  35.979  18.514  14.471
54227W        W26652  37.084  36.002  12.941
54228W        W26653   5.154  27.942  10.057
54229W        W26654  28.488  26.747   1.225
54230W        W26655  21.613   7.482   3.270
54231W        W26656  20.259   7.345  10.678
54232W        W26657  20.005  30.530  13.425
54233W        W26658  14.527  10.054   4.293
54234W        W26659   6.471   7.244   3.111
54235W        W26660   3.969  30.353   4.529
54236W        W26661  34.423  32.258  12.048
54237W        W26662  30.792  37.985   4.192
54238W        W26663   6.362  38.109  14.794
54239W        W26664  38.371  43.961   0.992
54240W        W26665   1.256  17.015  13.428
54241W        W26666   1.689  19.590  11.553
54242W        W26667  41.544  24.090  12.910
54243W        W26668  26.633  38.802   4.837
54244W        W26669   0.567  26.998   0.703
54245W        W26670   8.400  16.645  13.328
54246W        W26671  28.568  18.149   3.359
54247W        W26672   3.815  22.490   1.284
54248W        W26673  42.811  24.445   2.193
54249W        W26674   3.256  30.160   4.068
54250W        W26675  34.253  38.422   2.758
54251W        W26676   9.166  33.133  14.823
54252W        W26677  27.890  38.720  13.328
54253W        W26678  16.128  15.739   1.408
54254W        W26679  10.823  41.845  11.064
54255W        W26680  23.181  37.469   0.074
54256W        W26681   7.102  14.630   2.210
54257W        W26682  20.990  12.608   2.285
54258W        W26683   6.628  44.975   2.362
54259W        W26684  37.770  24.215   1.846
54260W        W26685  39.955  28.109   4.321
54261W        W26686  39.973  37.541   1.413
54262W        W26687  31.636   5.215   1.866
54263W        W26688  16.379  32.508  13.205
54264W        W26689  12.652   1.841   3.166
54265W        W26690  24.532  11.486  11.684
54266W        W26691  11.632   8.144  11.046
54267W        W26692  21.810  26.664  10.692
54268W        W26693  42.229  12.047  11.062
54269W        W26694  43.452  24.425   2.846
54270W        W26695  31.684   4.808  13.528
54271W        W26696  35.232  16.123   5.019
54272W        W26697  37.536  38.503   3.342
54273W        W26698  38.698  15.646   2.752
54274W        W26699  15.245  40.758   0.929
54275W        W26700  19.927  30.765   1.688
54276W        W26701  40.953  26.974   0.799
54277W        W26702   3.699  31.426  12.428
54278W        W26703   0.607  34.423  10.367
54279W        W26704  10.759   1.913  14.341
54280W        W26705  20.120  16.269   3.174
54281W        W26706  44.475  16.332  13.321
54282W        W26707  22.012   1.622   4.111
54283W        W26708  30.911   3.263  12.974
54284W        W26709  30.989  43.106  13.870
54285W        W26710   9.602  37.619  13.998
54286W        W26711  25.278  41.418   0.954
54287W        W26712  17.310  32.082  13.159
54288W        W26713  43.303  35.861   5.040
54289W        W26714  16.545  19.337   0.313
54290W        W26715  31.001  43.731   3.707
54291W        W26716  27.486  20.591  11.062
54292W        W26717  18.569  39.377  13.036
54293W        W26718  34.115  13.261   3.151
54294W        W26719  28.006   5.728   1.721
54295W        W26720  12.073  17.303  11.513
54296W        W26721  24.520  38.018   0.901
54297W        W26722   9.669   0.184   0.474
54298W        W26723  11.546  15.782   4.634
54299W        W26724   3.014  32.758   2.745
54300W        W26725  10.650  32.960  12.237
54301W        W26726   0.388  44.859  11.508
54302W        W26727  30.369   7.257  11.199
54303W        W26728  33.111  29.659  12.475
54304W        W26729  20.728   6.865   5.005
54305W        W26730  35.857  25.213  11.201
54306W        W26731   5.191  37.580  13.345
54307W        W26732  34.894  12.345  12.822
54308W        W26733  42.367  27.290   2.219
54309W        W26734  25.223   8.720  13.364
54310W        W26735  25.656  44.315  12.874
54311W        W26736  33.003  16.074   4.100
54312W        W26737  36.429  10.672   3.265
54313W        W26738  20.218  27.867   3.741
54314W        W26739  28.596   1.934   1.352
54315W        W26740  23.189  24.686   4.103
54316W        W26741   4.186  35.041   4.182
54317W        W26742  41.063  34.750  13.303
54318W        W26743  36.069  14.881  13.424
54319W        W26744  16.093  44.426  13.353
54320W        W26745  25.680   8.476  11.289
54321W        W26746  37.141  42.993  14.106
54322W        W26747  12.619  42.521   0.444
54323W        W26748  22.733  43.254  12.623
54324W        W26749  38.452  26.470  12.018
54325W        W26750  27.633  31.826  14.567
54326W        W26751  16.180  12.887   3.836
54327W        W26752  17.229  35.600   9.956
54328W        W26753  44.525  16.043  12.881
54329W        W26754  35.835  23.556  11.404
54330W        W26755  35.919  39.897  14.591
54331W        W26756  17.032   1.936  13.789
54332W        W26757  41.046  35.286  13.342
54333W        W26758  12.401  12.030  11.182
54334W        W26759  33.495  42.329   4.452
54335W        W26760  43.573  14.637  12.345
54336W        W26761  12.085  26.874  13.006
54337W        W26762  24.498  11.691  10.041
54338W        W26763  32.382  43.217   1.932
54339W        W26764   2.071  15.470  14.448
54340W        W26765   4.480   1.715  10.232
54341W        W26766  23.450  26.668  10.453
54342W        W26767  34.707   9.809   4.552
54343W        W26768  14.924  28.971   2.794
54344W        W26769  33.637  13.029  13.791
54345W        W26770  41.367  33.205   0.965
54346W        W26771  18.576   3.266  12.590
54347W        W26772  20.839   7.792  14.471
54348W        W26773  24.680  35.478  12.463
54349W        W26774  22.194  30.470   4.544
54350W        W26775  44.362  20.881   1.329
54351W        W26776  30.232  28.892   3.747
54352W        W26777  10.612  34.282   5.200
54353W        W26778  12.864  15.511  13.905
54354W        W26779  10.006  36.788   3.704
54355W        W26780  33.964  39.145   1.242
54356W        W26781   8.155  22.503  10.689
54357W        W26782   7.698  11.686   0.859
54358W        W26783  29.618  10.940   0.017
54359W        W26784   7.221   4.330  11.667
54360W        W26785  35.884   3.784   4.090
54361W        W26786  34.885  15.717  10.647
54362W        W26787   5.692  29.167   4.526
54363W        W26788  43.434   2.820   0.397
54364W        W26789  26.749  26.672  11.866
54365W        W26790  17.789  15.588  10.927
54366W        W26791  40.508   7.732  13.838
54367W        W26792   8.340  15.860   2.386
54368W        W26793   9.799  11.283   1.199
54369W        W26794   2.228  36.918  14.379
54370W        W26795  32.407  37.803   2.895
54371W        W26796   0.202  33.622   4.117
54372W        W26797  27.095  23.892  13.856
54373W        W26798   4.679  36.813   2.092
54374W        W26799  15.326  40.546   2.272
54375W        W26800  21.572  36.025   4.191
54376W        W26801  40.737  39.780  13.119
54377W        W26802  15.256   6.281  14.329
54378W        W26803  34.062  20.013  12.218
54379W        W26804  11.190  23.690   3.146
54380W        W26805  23.479  15.191   3.634
54381W        W26806  18.150  44.323  13.431
54382W        W26807  24.352  44.471   3.762
54383W        W26808   8.504  21.051  11.603
54384W        W26809   1.066  31.035  12.981
54385W        W26810  31.456  35.846   0.684
54386W        W26811  27.163  39.560  10.956
54387W        W26812  33.366  23.574   3.801
54388W        W26813  36.097  22.139  13.482
54389W        W26814   1.384  16.137   2.701
54390W        W26815  43.468  27.279  10.389
54391W        W26816  22.354   9.740   4.651
54392W        W26817   3.590  26.574   2.299
54393W        W26818  15.621  14.269  12.610
54394W        W26819  11.358  18.334   1.868
54395W        W26820   1.851  41.128   0.551
54396W        W26821  23.793  18.759   0.959
54397W        W26822  20.355  14.528   2.744
54398W        W26823  25.219  19.088   1.926
54399W        W26824   2.707   1.777   0.227
54400W        W26825  44.506  37.107   4.832
54401W        W26826  29.587  10.073   3.215
54402W        W26827  40.427  35.555  11.680
54403W        W26828  27.145  24.709  12.347
54404W        W26829  25.843  19.488  11.745
54405W        W26830  24.097  14.648   1.601
54406W        W26831  44.408  20.382  12.540
54407W        W26832  10.221  10.776   4.226
54408W        W26833  42.854   3.316  14.861
54409W        W26834  16.108  24.600  11.742
54410W        W26835  30.001  36.348  13.983
54411W        W26836  43.725  22.358  14.594
54412W        W26837  40.018  32.065  11.397
54413W        W26838   9.566  28.671  13.242
54414W        W26839  25.313  41.200  13.084
54415W        W26840  28.194  42.070   1.472
54416W        W26841   8.104  31.005  13.325
54417W        W26842  44.423  38.841  11.046
54418W        W26843  37.626  19.938   4.960
54419W        W26844   5.652  33.457  14.376
54420W        W26845  33.585  15.369  14.843
54421W        W26846  12.292   0.505  12.879
54422W        W26847  34.654  14.681  12.466
54423W        W26848  18.040   9.764  12.172
54424W        W26849  28.718  44.708  11.725
54425W        W26850  11.098  38.367  14.665
54426W        W26851  31.730  44.377   1.775
54427W        W26852   6.223  22.929   2.657
54428W        W26853  16.040  25.600  12.917
54429W        W26854   1.870  18.398   0.262
54430W        W26855  35.854  29.012  11.103
54431W        W26856  16.247  39.471   4.224
54432W        W26857  12.125  38.410  11.140
54433W        W26858  36.599  29.967  14.568
54434W        W26859  44.835  37.359  10.688
54435W        W26860  39.408  20.283  14.069
54436W        W26861  36.743  22.438  12.882
54437W        W26862   2.327  29.057  12.912
54438W        W26863   7.828   2.832   1.298
54439W        W26864   4.656  33.490  11.609
54440W        W26865   0.427  18.287  13.756
54441W        W26866   4.730  36.125   2.791
54442W        W26867  25.077   4.668   1.879
54443W        W26868  23.960  35.016  12.526
54444W        W26869  19.423   0.830  14.875
54445W        W26870  22.041  15.645   4.540
54446W        W26871  22.577  18.227   4.126
54447W        W26872  14.753   2.232  12.513
54448W        W26873   1.682   3.482  13.492
54449W        W26874  15.771   5.525  14.077
54450W        W26875  32.499  39.810  12.083
54451W        W26876  26.394  28.290   2.757
54452W        W26877  18.705  15.555  11.247
54453W        W26878  23.840  21.726   0.888
54454W        W26879  39.664  31.958  10.591
54455W        W26880   3.214  33.850  13.087
54456W        W26881  34.221  33.065  14.352
54457W        W26882  13.757  16.481   4.169
54458W        W26883  32.481  31.182   2.328
54459W        W26884   1.144  40.017  11.584
54460W        W26885   9.120   7.297  12.056
54461W        W26886  41.385  32.425  13.906
54462W        W26887  30.455  12.076  13.751
54463W        W26888  15.041  13.348  11.611
54464W        W26889  30.233  38.467  14.090
54465W        W26890  22.076  24.583   4.678
54466W        W26891  37.329   0.738   3.049
54467W        W26892   9.784   4.495  14.011
54468W        W26893   6.317  41.227  14.797
54469W        W26894  29.514   7.955  11.557
54470W        W26895  37.494   4.725  11.856
54471W        W26896  32.701  13.195  11.650
54472W        W26897   6.377  40.716   0.852
54473W        W26898  19.232  30.206  14.124
54474W        W26899  13.669  27.668  13.638
54475W        W26900  35.389  32.294   0.340
54476W        W26901   7.222  13.767  12.701
54477W        W26902  24.569  44.562  12.612
54478W        W26903  35.546  33.547  14.244
54479W        W26904  28.048   6.518   4.216
54480W        W26905  19.211  25.040  13.617
54481W        W26906  43.365  39.103   4.519
54482W        W26907  43.353  33.350  14.700
54483W        W26908  26.734   1.863   5.018
54484W        W26909  36.831  11.428  13.057
54485W        W26910  21.236  25.846  12.025
54486W        W26911   3.530  29.616   0.354
54487W        W26912  38.583  22.915   1.733
54488W        W26913   6.928   5.252  11.073
54489W        W26914  32.789  26.490  11.941
54490W        W26915   5.320  35.432   4.783
54491W        W26916  22.017  19.578  10.737
54492W        W26917  34.770   1.980   4.728
54493W        W26918  24.381  22.695   0.762
54494W        W26919  43.890  24.433  10.726
54495W        W26920   0.446  43.458   1.751
54496W        W26921  22.350  41.769   3.684
54497W        W26922  13.421   1.940  12.530
54498W        W26923  17.938  28.505  10.656
54499W        W26924   2.116  21.574  13.050
54500W        W26925   6.012  36.870  14.433
54501W        W26926  44.383  22.293   2.848
54502W        W26927  25.519  22.001  13.388
54503W        W26928  32.185  43.013  12.021
54504W        W26929  39.945  32.897  14.394
54505W        W26930  16.787  20.718   1.901
54506W        W26931  30.145   9.164  12.696
54507W        W26932  37.856  24.262   4.064
54508W        W26933  23.752  21.037  12.924
54509W        W26934  22.337  16.541  13.427
54510W        W26935  26.215  36.955   1.802
54511W        W26936  21.768  36.461  12.882
54512W        W26937  22.699  28.931  11.170
54513W        W26938  26.083  28.392   4.103
54514W        W26939  26.933   0.250  13.695
54515W        W26940  14.840   8.752  13.902
54516W        W26941  30.033   5.846   3.149
54517W        W26942  20.948  13.340  11.443
54518W        W26943   7.151  13.666   4.074
54519W        W26944  31.301  39.917  10.576
54520W        W26945  19.059   5.069  10.464
54521W        W26946   0.835  31.126   4.766
54522W        W26947   1.237   9.879   0.902
54523W        W26948  35.661  16.650  10.830
54524W        W26949  27.264   8.860   0.405
54525W        W26950  35.830  38.130  14.508
54526W        W26951  44.843  28.390  13.877
54527W        W26952  41.576   5.918  13.556
54528W        W26953  35.876   9.829  13.080
54529W        W26954  39.977   2.874   0.884
54530W        W26955   5.799  36.867   3.216
54531W        W26956  43.061  37.388  11.583
54532W        W26957  39.450  16.892   2.254
54533W        W26958  16.691  39.555  13.838
54534W        W26959  16.632  11.311  10.984
54535W        W26960   4.209  14.063   3.261
54536W        W26961  24.733  37.638  14.789
54537W        W26962  16.591  21.995  14.910
54538W        W26963  12.796  14.479   4.071
54539W        W26964   3.430  26.140   4.135
54540W        W26965  42.322  10.759   3.874
54541W        W26966   5.889  38.783   1.903
54542W        W26967  19.557   9.600  12.952
54543W        W26968  42.224  20.682   2.240
54544W        W26969  20.359  11.634  11.085
54545W        W26970   6.728  15.344   2.875
54546W        W26971  26.862  10.223   2.167
54547W        W26972   6.511  15.187  13.064
54548W        W26973  43.828  43.739  13.060
54549W        W26974  24.997  36.516   0.787
54550W        W26975  34.133   9.625  13.458
54551W        W26976  30.156  39.596  11.401
54552W        W26977  38.502  32.109   1.665
54553W        W26978   5.229  27.875   0.853
54554W        W26979   3.718   8.368  14.964
54555W        W26980  16.989  44.778  12.604
54556W        W26981  23.650   9.613  14.871
54557W        W26982  12.428  36.573   0.425
54558W        W26983   9.859  30.145  10.713
54559W        W26984  18.009  33.082   5.510
54560W        W26985  40.166  25.116  13.907
54561W        W26986  39.432   3.366   0.088
54562W        W26987  18.481  20.093   2.401
54563W        W26988  35.386  36.031   1.633
54564W        W26989   2.163  34.658   2.141
54565W        W26990   4.952  31.336   3.941
54566W        W26991  32.486  21.065  10.250
54567W        W26992  18.805  21.879   3.223
54568W        W26993  34.378  16.348  11.159
54569W        W26994  43.934  11.132  13.048
54570W        W26995   5.466  43.989   2.205
54571W        W26996   0.056   4.997  11.024
54572W        W26997   4.502  17.563  11.177
54573W        W26998  37.522  34.429  11.142
54574W        W26999  34.900  36.262  12.813
54575W        W27000   7.968  38.437  12.141
54576W        W27001   1.417   0.009   0.996
54577W        W27002  44.423  16.035   2.192
54578W        W27003  43.035  37.371   0.872
54579W        W27004  40.776  19.612   2.254
54580W        W27005  38.560  13.152   4.176
54581W        W27006  36.986  36.382   2.795
54582W        W27007  26.279  26.702   3.918
54583W        W27008  43.957   4.543   3.588
54584W        W27009   2.488  27.589  10.931
54585W        W27010  28.214  22.701  10.664
54586W        W27011  34.991  30.600   1.054
54587W        W27012  41.995  25.541  14.854
54588W        W27013   0.103   2.391  11.845
54589W        W27014  34.194  21.102   0.032
54590W        W27015   8.175  27.842  10.571
54591W        W27016  39.949  27.203  11.506
54592W        W27017  14.068  32.419   2.987
54593W        W27018  37.977  44.911  11.746
54594W        W27019   8.705  20.601   1.417
54595W        W27020  42.447  37.168  10.738
54596W        W27021  42.020   8.440  11.699
54597W        W27022  38.747  33.121   4.582
54598W        W27023   6.782  11.721  12.481
54599W        W27024  21.547  27.482   1.432
54600W        W27025  22.550  30.172  10.571
54601W        W27026  44.816  25.209   1.941
54602W        W27027  42.666  20.331  14.412
54603W        W27028  22.284  40.231  13.239
54604W        W27029  19.526   9.798   4.148
54605W        W27030  36.429  22.851  12.941
54606W        W27031   3.796  16.768   1.913
54607W        W27032  33.924   9.677   3.401
54608W        W27033   8.251  15.501  14.469
54609W        W27034   2.877  38.278   0.439
54610W        W27035   6.051  22.740   9.836
54611W        W27036  26.698  44.880   5.159
54612W        W27037   0.326   9.738   3.807
54613W        W27038  39.962  26.948   3.757
54614W        W27039  34.708   3.868  14.522
54615W        W27040   7.831  39.956  11.973
54616W        W27041  30.170   8.188  13.154
54617W        W27042  36.449  21.454  10.641
54618W        W27043   9.288  12.879  14.009
54619W        W27044  13.243  43.791   2.210
54620W        W27045  38.838  33.038   0.778
54621W        W27046  37.836  19.596   3.685
54622W        W27047  26.549  28.427  11.424
54623W        W27048  35.955   7.342   1.551
54624W        W27049  37.506  41.955   3.680
54625W        W27050  15.090  27.689   3.869
54626W        W27051  29.945   2.232   3.618
54627W        W27052  30.160  39.122  11.656
54628W        W27053   3.284  19.741  11.196
54629W        W27054   4.419   9.117   1.764
54630W        W27055  27.688  17.200   2.788
54631W        W27056  41.193  17.039   0.775
54632W        W27057  19.965  34.851  14.852
54633W        W27058  42.768  19.804   4.044
54634W        W27059  11.866  26.954   1.892
54635W        W27060  33.055  24.198   2.228
54636W        W27061   4.015   8.606   4.169
54637W        W27062  25.476  39.552   0.763
54638W        W27063  41.444  23.215  12.962
54639W        W27064   9.346  25.109  12.190
54640W        W27065  31.227  40.019  14.521
54641W        W27066  18.065   9.186  12.431
54642W        W27067   4.317   0.826  12.317
54643W        W27068  21.794  20.961   4.192
54644W        W27069  34.280  26.061   0.259
54645W        W27070  18.213  25.090   3.277
54646W        W27071  43.432  17.610  10.715
54647W        W27072   1.944  22.516  11.400
54648W        W27073   5.145  29.851   1.922
54649W        W27074  12.615  21.195   2.167
54650W        W27075   9.845  16.331   0.373
54651W        W27076  17.069  35.596  13.060
54652W        W27077  18.932  30.374  11.411
54653W        W27078  34.902  44.704  13.972
54654W        W27079  32.875   6.274   1.590
54655W        W27080   2.090  30.085   4.965
54656W        W27081  32.414  29.222   3.646
54657W        W27082  27.813  35.513   1.596
54658W        W27083  44.392  30.010   3.128
54659W        W27084  11.133  18.756  12.189
54660W        W27085  22.282  34.176  11.441
54661W        W27086  11.379  34.565  14.065
54662W        W27087   9.329  17.050   1.315
54663W        W27088  17.139  17.026   1.942
54664W        W27089  39.858  40.567   0.451
54665W        W27090  41.832  13.120   1.355
54666W        W27091  32.706  36.021  11.778
54667W        W27092   2.412  17.622  14.132
54668W        W27093  13.767  20.265  11.597
54669W        W27094  15.928   7.495   4.176
54670W        W27095  11.295   2.858   3.587
54671W        W27096   9.455  20.672  14.020
54672W        W27097  38.855  30.090   4.876
54673W        W27098  25.667  19.720   3.174
54674W        W27099  15.708  38.995   1.008
54675W        W27100  34.955  43.851   4.665
54676W        W27101  32.613  23.717   0.246
54677W        W27102  27.521  26.778   4.545
54678W        W27103  11.338  36.263  13.273
54679W        W27104   1.455  26.302  13.879
54680W        W27105  32.012  39.613  11.987
54681W        W27106  12.678  41.530  14.322
54682W        W27107  23.257  13.954  11.089
54683W        W27108  37.549  11.802   1.769
54684W        W27109  39.054  15.814  12.215
54685W        W27110   1.803  22.661  11.879
54686W        W27111   5.868  41.381  13.736
54687W        W27112  38.126  28.702   3.126
54688W        W27113  23.028  41.837  14.918
54689W        W27114  24.120  10.274  10.616
54690W        W27115  27.857  10.700   4.617
54691W        W27116  12.541   2.422   5.071
54692W        W27117  28.870  29.519   2.572
54693W        W27118  35.165  32.348   2.846
54694W        W27119  32.528   1.209  10.928
54695W        W27120  33.572  10.070   3.284
54696W        W27121   4.501  34.026   1.871
54697W        W27122  16.616  21.283   2.733
54698W        W27123  24.084  33.123   4.599
54699W        W27124   5.700  12.158  11.574
54700W        W27125  23.686  18.165  14.331
54701W        W27126  17.648  16.616  11.969
54702W        W27127  25.478  23.646  12.829
54703W        W27128  39.023   4.629   2.048
54704W        W27129  14.181  19.320   2.835
54705W        W27130  41.822   1.220   1.705
54706W        W27131   7.776  26.557  13.943
54707W        W27132  42.269  16.467   1.834
54708W        W27133  11.179   6.752  13.798
54709W        W27134  29.519  19.605   3.123
54710W        W27135  21.224  11.221   0.215
54711W        W27136   5.282  37.942  12.962
54712W        W27137  35.318   1.263   0.863
54713W        W27138  25.563  20.908  11.127
54714W        W27139  34.025   3.757  14.727
54715W        W27140  34.984  40.720  13.157
54716W        W27141   3.812  20.500   1.249
54717W        W27142   5.414   8.073   1.295
54718W        W27143  39.510  22.714   3.302
54719W        W27144  18.658  11.837   3.273
54720W        W27145  39.730  22.180   2.232
54721W        W27146  16.206   5.709   3.230
54722W        W27147   0.456   6.896  12.947
54723W        W27148   5.883  24.291  14.376
54724W        W27149  10.124  17.114   2.688
54725W        W27150   6.644  10.243  14.723
54726W        W27151  30.488  23.963  14.783
54727W        W27152  19.663   3.552   4.099
54728W        W27153   7.110  32.040  10.958
54729W        W27154   9.286   0.431  11.056
54730W        W27155  19.924  34.011   0.856
54731W        W27156  28.275   9.803  13.752
54732W        W27157  22.108  14.723   4.579
54733W        W27158   4.831  25.044  11.763
54734W        W27159  33.483  43.040   4.774
54735W        W27160  11.251  31.956   3.344
54736W        W27161  13.854  30.558  13.508
54737W        W27162  44.280  20.307   3.677
54738W        W27163  13.611  31.215   4.093
54739W        W27164  12.879  26.403  14.929
54740W        W27165  23.005  15.607   3.665
54741W        W27166  28.473  27.433  11.241
54742W        W27167  30.489  22.008   2.840
54743W        W27168   2.002   6.227   0.706
54744W        W27169   1.413  35.843   1.449
54745W        W27170  14.037   6.190  14.690
54746W        W27171   0.501  10.679   3.230
54747W        W27172   1.655   1.788  13.032
54748W        W27173  34.552  34.032  12.648
54749W        W27174   6.601  29.150  11.658
54750W        W27175  37.053  10.803  14.470
54751W        W27176  31.634  17.104  14.374
54752W        W27177  20.421  20.904  14.071
54753W        W27178  26.681  26.613   0.214
54754W        W27179   5.111  37.371   2.633
54755W        W27180  33.984  42.256   4.721
54756W        W27181  26.931   3.246  11.484
54757W        W27182  36.722  26.737  13.866
54758W        W27183  39.768  41.459   0.218
54759W        W27184  16.693  15.871  10.271
54760W        W27185   9.252  35.757   3.297
54761W        W27186  20.771  26.338  12.428
54762W        W27187  34.620  33.390   1.022
54763W        W27188   4.919  27.574  12.128
54764W        W27189   2.754  33.009   2.389
54765W        W27190  44.849  15.187   2.503
54766W        W27191  14.385  33.538  13.304
54767W        W27192  15.246  17.629  13.016
54768W        W27193  10.391   2.500  12.864
54769W        W27194  34.026  29.549  14.320
54770W        W27195  36.640  22.791  14.234
54771W        W27196  41.699  37.981  12.535
54772W        W27197   5.202  44.702   4.697
54773W        W27198   2.498  34.009   4.111
54774W        W27199  25.619  23.747   0.890
54775W        W27200  21.163  10.958   4.215
54776W        W27201   9.663  35.661   0.504
54777W        W27202   5.216  38.781  14.977
54778W        W27203   8.266  10.257   0.382
54779W        W27204  10.757  12.357   2.791
54780W        W27205  30.990  11.382   2.667
54781W        W27206  12.215  30.874  13.783
54782W        W27207  37.504  41.975  10.686
54783W        W27208  23.244  22.710   2.786
54784W        W27209  21.543  38.142   3.078
54785W        W27210   0.616  10.061   0.096
54786W        W27211  14.835  30.684  11.579
54787W        W27212  35.496  10.481  10.491
54788W        W27213  34.002  27.167   2.344
54789W        W27214   1.224   7.979   2.645
54790W        W27215  25.384  13.802   4.674
54791W        W27216  40.021  24.119   4.834
54792W        W27217  38.018  18.143   2.314
54793W        W27218  43.838  44.918  12.380
54794W        W27219  15.364  39.369   4.574
54795W        W27220  27.045  16.310  10.678
54796W        W27221  30.640  24.477   2.358
54797W        W27222   2.931   5.417  12.380
54798W        W27223  32.564  12.660   1.421
54799W        W27224  15.598  22.335   2.834
54800W        W27225  42.236  38.934   1.414
54801W        W27226   5.727   8.920   2.898
54802W        W27227  17.912  26.225   3.739
54803W        W27228   4.819  27.028   2.729
54804W        W27229  21.634  35.548  13.324
54805W        W27230   1.255   6.866   2.758
54806W        W27231  21.740  42.104  12.321
54807W        W27232  13.327  12.373   2.911
54808W        W27233  22.763  41.346   2.486
54809W        W27234  35.930  24.192  12.993
54810W        W27235   1.548  40.304   0.522
54811W        W27236  34.191  27.644  11.544
54812W        W27237  17.137   3.742   2.634
54813W        W27238  43.109   4.110   4.134
54814W        W27239  34.515  27.878  12.475
54815W        W27240  18.074  17.250  14.068
54816W        W27241  11.997  44.066   2.043
54817W        W27242  40.098  34.309  12.086
54818W        W27243  44.949   9.252   0.028
54819W        W27244  44.400  40.383  14.971
54820W        W27245  26.668   4.700  13.030
54821W        W27246   8.943   7.708  12.890
54822W        W27247   2.872  40.886  14.331
54823W        W27248  41.131   7.475   2.710
54824W        W27249   3.915  25.425   4.152
54825W        W27250  18.500  30.405  10.675
54826W        W27251  40.294  16.761  10.827
54827W        W27252  35.362  20.265   2.691
54828W        W27253  18.843  39.579  12.231
54829W        W27254  38.083   9.743   4.993
54830W        W27255  32.424   2.382   0.945
54831W        W27256  39.534  10.228   4.071
54832W        W27257  18.995  38.287  13.822
54833W        W27258  40.301  10.608  12.625
54834W        W27259   2.281  17.182   0.283
54835W        W27260  14.074  24.530   2.378
54836W        W27261   9.983  37.008   2.390
54837W        W27262   3.857  36.534  12.772
54838W        W27263  44.945  25.654   0.291
54839W        W27264  14.312   5.779   4.243
54840W        W27265  34.140   7.864  11.893
54841W        W27266  20.543  25.870  14.808
54842W        W27267  31.049  42.384   1.967
54843W        W27268  39.075  36.034  13.851
54844W        W27269  17.777  17.993  14.197
54845W        W27270  12.277   4.076   1.260
54846W        W27271  34.793  29.698  12.117
54847W        W27272  35.807  38.910  14.520
54848W        W27273   3.767   5.869   2.692
54849W        W27274  14.584  15.168   0.950
54850W        W27275   7.438  24.046  13.494
54851W        W27276  13.878  38.078   0.404
54852W        W27277   6.667  15.676  12.523
54853W        W27278   4.551  26.526  11.143
54854W        W27279  34.955   3.431  12.880
54855W        W27280  33.424  37.932  12.590
54856W        W27281   1.366  20.587   2.781
54857W        W27282  14.819  15.206  14.349
54858W        W27283  13.793  26.198   2.883
54859W        W27284   7.126  17.300   4.065
54860W        W27285   3.779  26.537  11.536
54861W        W27286  44.442  38.406   0.445
54862W        W27287  29.007   9.928   0.407
54863W        W27288   5.951  26.713  11.592
54864W        W27289  22.319  32.902   1.339
54865W        W27290  32.320  17.239   1.389
54866W        W27291   5.782  35.983  11.572
54867W        W27292  26.545  35.873   0.291
54868W        W27293  17.092  40.931   2.892
54869W        W27294   6.201  21.523   4.996
54870W        W27295  35.527  34.363   4.286
54871W        W27296   0.256  11.321   1.812
54872W        W27297  40.495  27.105  12.989
54873W        W27298   7.128  36.043  14.562
54874W        W27299  36.744  37.610   3.677
54875W        W27300  28.218  34.951  12.061
54876W        W27301  24.116   1.252   2.774
54877W        W27302   0.481  32.845   1.309
54878W        W27303  12.461  12.801   0.882
54879W        W27304  28.196  15.850   0.560
54880W        W27305  30.522   5.142  12.841
54881W        W27306  18.040  34.076   1.017
54882W        W27307  33.911  21.561   3.265
54883W        W27308  21.615   6.888   2.300
54884W        W27309  29.476  31.060   0.002
54885W        W27310  13.282  37.764   4.672
54886W        W27311  13.669   1.005  11.185
54887W        W27312  18.278  21.856  13.343
54888W        W27313  31.686  37.593   4.086
54889W        W27314  29.682  30.918  14.516
54890W        W27315  18.648   6.589  11.600
54891W        W27316   4.933  41.357   0.697
54892W        W27317  21.275  40.854   2.223
54893W        W27318  16.630  27.681  12.621
54894W        W27319  19.060   7.664  13.423
54895W        W27320   1.185  44.774  13.005
54896W        W27321   2.758  24.772   2.776
54897W        W27322  13.698   7.851   1.927
54898W        W27323  16.318  16.765   0.846
54899W        W27324  24.998  23.824  12.062
54900W        W27325  28.227  27.419  11.947
54901W        W27326  41.092  38.517   1.171
54902W        W27327  38.677  24.669   1.320
54903W        W27328  10.068  41.926  11.513
54904W        W27329  11.793  17.280  10.304
54905W        W27330  27.395  42.377   1.854
54906W        W27331   8.664   0.836   2.312
54907W        W27332  28.177  43.758  11.498
54908W        W27333  39.397  34.648   4.092
54909W        W27334  33.673  12.570   0.574
54910W        W27335   7.969   1.400  12.528
54911W        W27336   9.286   5.662  14.327
54912W        W27337  23.166  39.891   1.965
54913W        W27338   7.333  30.745   1.313
54914W        W27339   7.417  27.559   2.290
54915W        W27340   4.727  30.356  11.985
54916W        W27341   3.921   6.304   2.169
54917W        W27342   6.882  12.751  13.562
54918W        W27343  18.660  36.516  12.200
54919W        W27344  34.921   9.113  12.580
54920W        W27345  15.790   3.706   3.395
54921W        W27346  42.568  18.105   1.288
54922W        W27347  24.647  33.443  10.246
54923W        W27348   8.117  42.696   2.349
54924W        W27349  29.554  24.560  14.810
54925W        W27350  20.141   4.691  10.452
54926W        W27351  32.129  15.939   1.562
54927W        W27352  39.874  22.606  11.878
54928W        W27353  24.445  21.982   0.134
54929W        W27354  29.549  21.696  11.086
54930W        W27355  14.597  15.914  12.239
54931W        W27356   8.785  15.011  10.668
54932W        W27357  29.251  41.062  12.947
54933W        W27358   9.403  39.764   2.838
54934W        W27359  11.109  33.549   1.774
54935W        W27360  29.538  25.010  14.523
54936W        W27361   3.375  30.471  14.605
54937W        W27362   0.806  24.363  10.698
54938W        W27363  42.479  37.945  11.180
54939W        W27364  26.674  23.100   2.945
54940W        W27365  21.236  43.956   2.172
54941W        W27366  12.274  14.670  13.165
54942W        W27367  39.035  24.438   3.360
54943W        W27368  18.837  28.750  11.990
54944W        W27369  18.516  19.349  11.530
54945W        W27370  40.337  15.197  12.090
54946W        W27371  37.388   7.839   3.501
54947W        W27372  42.735  38.393   1.532
54948W        W27373  21.979   1.804   1.327
54949W        W27374  40.075  14.055  10.915
54950W        W27375  10.096  17.169   1.752
54951W        W27376  32.943  30.302  11.095
54952W        W27377  43.801  27.564   1.339
54953W        W27378  18.394  18.239  11.543
54954W        W27379  33.922  41.540  12.900
54955W        W27380  18.878   9.254  12.054
54956W        W27381   7.856  33.683  12.933
54957W        W27382  36.584  10.606  10.671
54958W        W27383   9.243  14.216  12.924
54959W        W27384  29.989  19.751   3.896
54960W        W27385  44.577  27.970   3.202
54961W        W27386  11.631  18.104  10.790
54962W        W27387   0.496  42.783   0.940
54963W        W27388   5.253   4.938  12.149
54964W        W27389  24.169  14.152   1.378
54965W        W27390  21.148  36.394  11.997
54966W        W27391  33.612  12.268   3.134
54967W        W27392   5.488  25.615  10.729
54968W        W27393  43.596  38.171  13.991
54969W        W27394  40.404  12.248  10.698
54970W        W27395  15.607   8.393   2.374
54971W        W27396   6.250  37.558   0.836
54972W        W27397  32.999  12.667  14.078
54973W        W27398  22.037  14.761   0.731
54974W        W27399   5.901  28.923   4.099
54975W        W27400  15.176  24.049   4.371
54976W        W27401   1.067  17.212  10.596
54977W        W27402  18.780   8.882   0.709
54978W        W27403  33.569  27.424   2.246
54979W        W27404  12.706  25.708  13.931
54980W        W27405  11.620  32.988  12.296
54981W        W27406  36.631  28.491   3.170
54982W        W27407  17.771  10.092   1.323
54983W        W27408   8.266  10.813  12.974
54984W        W27409  16.781  36.007  13.874
54985W        W27410  18.202  12.185  12.834
54986W        W27411  17.909  19.574  13.507
54987W        W27412  42.440  24.120   1.533
54988W        W27413  16.287   8.578  10.334
54989W        W27414  38.972  44.006   1.687
54990W        W27415   3.203  31.788  13.903
54991W        W27416  25.689   0.343  14.411
54992W        W27417  10.967  43.502  14.272
54993W        W27418  15.588   7.621  13.542
54994W        W27419  19.094  33.133   2.927
54995W        W27420  27.016  17.644   3.680
54996W        W27421  16.994   5.454   3.455
54997W        W27422   6.163  14.672  11.504
54998W        W27423  11.614  30.444  10.693
54999W        W27424   7.414   8.506   3.072
55000W        W27425  43.137  44.863  14.054
55001W        W27426  39.302  28.395   1.459
55002W        W27427  22.738   9.581  12.492
55003W        W27428   3.996  22.309  11.620
55004W        W27429  21.014  11.959  14.892
55005W        W27430  38.450   7.623  10.759
55006W        W27431  17.669  24.246   0.899
55007W        W27432  25.661  23.136  12.922
55008W        W27433  19.089  30.535  11.874
55009W        W27434   3.894  23.999   1.439
55010W        W27435  16.131  33.551   0.975
55011W        W27436  37.954  10.246  14.515
55012W        W27437  30.495  39.237  11.275
55013W        W27438   8.789   1.469  14.865
55014W        W27439  15.922  43.847  10.742
55015W        W27440   4.210  29.409  11.593
55016W        W27441  23.258  43.616   2.726
55017W        W27442  20.128  15.027  12.325
55018W        W27443   7.873  10.603  14.368
55019W        W27444  18.334  28.192  13.699
55020W        W27445  44.443   3.879   1.381
55021W        W27446  10.592  26.988   0.005
55022W        W27447  11.986  27.310  14.445
55023W        W27448  40.294   8.316  12.041
55024W        W27449  34.151   6.312   0.878
55025W        W27450  29.610  40.898   5.499
55026W        W27451   9.227  43.958   1.324
55027W        W27452   5.156  39.333   0.880
55028W        W27453  20.641  23.463  12.569
55029W        W27454  42.847  39.139  11.625
55030W        W27455  35.039  11.726  10.660
55031W        W27456  25.420  25.098  12.490
55032W        W27457  20.969  36.863  12.160
55033W        W27458   6.798   2.042   4.095
55034W        W27459  43.019  40.507  11.250
55035W        W27460  16.951  40.441   5.022
55036W        W27461  32.864  23.294  11.089
55037W        W27462   5.222   4.432   1.938
55038W        W27463  26.000   9.675   3.677
55039W        W27464  18.674  41.049   2.321
55040W        W27465  13.753  15.459  13.338
55041W        W27466  23.315   0.069   0.962
55042W        W27467  32.505  18.624   2.408
55043W        W27468  39.076  44.028  13.427
55044W        W27469  18.316  16.813  13.541
55045W        W27470  12.604  32.035  13.307
55046W        W27471  28.548  11.652  11.167
55047W        W27472  38.384  29.046  11.941
55048W        W27473  42.752  21.196  12.472
55049W        W27474  13.485  31.242   3.275
55050W        W27475  11.059  38.934   2.250
55051W        W27476  34.815   0.477   2.419
55052W        W27477   0.105  42.058  13.629
55053W        W27478  22.479  35.062  14.924
55054W        W27479  25.058   3.353   3.906
55055W        W27480  19.555  24.642  13.578
55056W        W27481  43.003  19.097   9.774
55057W        W27482   3.450  22.468  10.963
55058W        W27483  14.520  10.967   2.813
55059W        W27484  29.755  40.301   0.429
55060W        W27485  43.929  36.615  13.349
55061W        W27486   1.009  17.237  11.930
55062W        W27487  16.703   4.749   1.223
55063W        W27488  26.675  36.733   4.163
55064W        W27489  33.276   4.127   2.594
55065W        W27490  14.043  33.439  10.317
55066W        W27491  27.527  33.984   2.562
55067W        W27492  28.111  11.226  14.470
55068W        W27493  39.316  12.752  14.824
55069W        W27494  21.618  28.511  14.933
55070W        W27495  13.625  38.641  11.503
55071W        W27496  39.489   6.295   4.693
55072W        W27497  16.545  35.027   1.463
55073W        W27498  12.242   8.809  11.755
55074W        W27499  23.352   8.025   3.794
55075W        W27500  15.274   1.194  13.074
55076W        W27501  14.782  26.388   4.171
55077W        W27502   9.309  14.095  11.403
55078W        W27503  19.001  20.516   1.791
55079W        W27504   4.953   3.696   4.970
55080W        W27505  33.896  17.242   4.091
55081W        W27506  23.217  42.309  11.621
55082W        W27507  29.399  30.355  10.745
55083W        W27508  25.640  19.537  12.985
55084W        W27509  32.182  35.647  11.115
55085W        W27510  31.476  22.087  14.327
55086W        W27511  36.114  32.496   3.856
55087W        W27512  17.420   8.789  11.909
55088W        W27513   2.687  12.303  14.393
55089W        W27514   2.448  24.715   2.336
55090W        W27515  44.381   6.428   1.747
55091W        W27516  28.976  13.838   3.459
55092W        W27517  20.236  17.231  10.431
55093W        W27518  17.376  26.774  13.957
55094W        W27519  42.935   0.480  13.418
55095W        W27520  26.135   5.366  11.577
55096W        W27521   2.036  13.561  10.999
55097W        W27522   2.494   3.468  12.907
55098W        W27523   9.302  31.825   3.941
55099W        W27524  30.966  23.285  12.210
55100W        W27525  29.550  12.416   2.887
55101W        W27526  15.039  38.282  11.319
55102W        W27527   6.051  32.024   4.689
55103W        W27528  22.691  24.642   0.262
55104W        W27529  37.814  25.518  14.730
55105W        W27530  12.876  35.295   0.074
55106W        W27531   4.163  31.602   4.379
55107W        W27532  19.144  23.103   0.432
55108W        W27533   1.870  23.448  11.273
55109W        W27534  38.652  42.389   0.836
55110W        W27535  23.394  29.640   0.752
55111W        W27536  30.531  24.238   1.893
55112W        W27537  16.319  16.557  14.505
55113W        W27538  13.856  16.281   1.442
55114W        W27539  35.708  10.518  12.718
55115W        W27540  43.969   9.281  10.560
55116W        W27541   4.787  27.645   5.053
55117W        W27542  44.466  43.283  14.743
55118W        W27543  23.967   9.351   2.191
55119W        W27544   0.488   4.319  13.485
55120W        W27545  27.673  40.399  10.579
55121W        W27546  16.557  10.589   0.007
55122W        W27547   6.769  36.466  13.980
55123W        W27548  14.589  12.605  11.558
55124W        W27549  14.319  22.219  14.368
55125W        W27550  31.959  17.718   2.373
55126W        W27551  28.933  20.592   9.443
55127W        W27552  31.371  30.093  13.319
55128W        W27553  10.802  11.489  10.779
55129W        W27554   2.242  33.517   4.598
55130W        W27555  14.351   2.524  14.046
55131W        W27556  23.399   6.303  12.227
55132W        W27557  33.034  15.261   3.259
55133W        W27558  44.224   4.311   0.498
55134W        W27559  12.636  37.807   1.802
55135W        W27560  16.578  33.029   4.609
55136W        W27561  15.657  14.124  11.671
55137W        W27562  16.121  37.705  10.773
55138W        W27563  12.142  31.360   4.292
55139W        W27564  10.537   3.935  14.015
55140W        W27565  25.740  11.131   1.880
55141W        W27566  25.726   1.894  12.735
55142W        W27567  35.095  44.294   4.444
55143W        W27568  35.772   4.647  12.569
55144W        W27569  17.409  40.908   3.933
55145W        W27570  11.553   6.603   4.690
55146W        W27571   4.022  42.952   2.927
55147W        W27572  34.743  30.650  11.179
55148W        W27573  22.181  21.829   0.489
55149W        W27574  24.700  30.477  13.445
55150W        W27575  16.191  30.126  13.046
55151W        W27576  26.411   3.247  10.437
55152W        W27577  40.409  23.695   1.838
55153W        W27578  15.112   7.688  11.537
55154W        W27579  40.608  14.606   0.692
55155W        W27580  11.746  11.698   0.007
55156W        W27581  20.570  27.710   4.097
55157W        W27582  18.329   6.001  13.985
55158W        W27583  40.401  24.555   4.130
55159W        W27584  14.165  42.728   0.643
55160W        W27585  18.242  43.382  14.919
55161W        W27586  16.093  17.236   0.695
55162W        W27587  37.394   3.438   1.644
55163W        W27588  11.551  23.056   2.849
55164W        W27589   8.783  42.760  12.896
55165W        W27590  16.274   3.054  11.211
55166W        W27591  13.095   2.247   4.396
55167W        W27592  28.229  25.116   1.478
55168W        W27593   7.034  35.952  13.228
55169W        W27594  30.368   7.734  13.054
55170W        W27595  10.611  19.534  11.689
55171W        W27596  28.472  14.738   1.075
55172W        W27597   9.775   5.449  12.092
55173W        W27598  40.365  34.088   3.207
55174W        W27599   2.215  35.095  12.391
55175W        W27600  39.052   0.955   3.794
55176W        W27601   0.379  26.449   1.665
55177W        W27602  32.507  22.271   2.181
55178W        W27603  19.134  43.729   1.123
55179W        W27604  20.537  41.529   2.956
55180W        W27605  35.105  27.357   1.298
55181W        W27606   4.204  43.726   0.863
55182W        W27607  14.295  13.558   2.732
55183W        W27608  31.091  23.242   0.929
55184W        W27609   7.345   2.693   2.244
55185W        W27610  27.194  32.898  13.739
55186W        W27611  34.014  34.568  13.112
55187W        W27612  33.904  16.616   2.806
55188W        W27613  21.642  21.854   4.312
55189W        W27614  13.144   4.421  12.474
55190W        W27615  37.178  13.262   4.216
55191W        W27616  24.663  38.538   0.906
55192W        W27617  11.159  21.343  14.028
55193W        W27618  29.595  35.420   2.387
55194W        W27619   0.298  35.058   0.857
55195W        W27620  17.260  43.943   3.634
55196W        W27621  38.665  35.452  11.073
55197W        W27622  14.758   4.645  11.508
55198W        W27623   3.301   0.050   4.593
55199W        W27624   9.016  22.054   3.626
55200W        W27625  44.524   0.777   3.789
55201W        W27626  23.203   5.796   4.345
55202W        W27627  21.476  12.440   2.193
55203W        W27628  44.749   4.141  13.545
55204W        W27629  33.496   1.505  13.915
55205W        W27630  24.273  11.272   0.869
55206W        W27631  20.134  20.144  10.663
55207W        W27632   9.777  30.520   1.818
55208W        W27633  35.104   2.022  14.307
55209W        W27634  31.183  42.859  10.842
55210W        W27635  25.312  18.515  14.002
55211W        W27636  20.119  19.459   1.813
55212W        W27637   9.313  42.506  14.466
55213W        W27638  10.252  30.599  13.963
55214W        W27639  32.581  26.501   2.775
55215W        W27640  32.492  14.125   4.239
55216W        W27641  26.771  18.520   0.766
55217W        W27642  40.309  14.711  14.222
55218W        W27643  18.228   5.881  14.890
55219W        W27644  25.092  20.703  14.421
55220W        W27645  20.496  24.988  12.490
55221W        W27646  44.775  42.038   0.884
55222W        W27647  30.721  15.660  10.004
55223W        W27648  21.308  32.066   3.794
55224W        W27649  37.375  20.131  12.791
55225W        W27650   8.940  28.197   3.095
55226W        W27651  20.345   7.301   3.212
55227W        W27652  12.787   1.213   3.879
55228W        W27653  21.165  32.539  14.301
55229W        W27654   2.028  12.432  11.874
55230W        W27655   8.902  15.468  14.782
55231W        W27656  26.384   2.826  11.193
55232W        W27657  21.717  35.359   4.952
55233W        W27658  37.355   2.224  11.905
55234W        W27659   7.249  18.310   3.684
55235W        W27660  20.482  10.203  13.586
55236W        W27661  14.029  12.286   5.070
55237W        W27662  39.927  27.709  12.979
55238W        W27663  38.066  39.210  10.504
55239W        W27664  37.067  13.758   4.081
55240W        W27665  23.234  35.038   4.607
55241W        W27666  27.983  39.325  13.954
55242W        W27667  28.049  42.988  12.213
55243W        W27668  39.552  29.599  10.492
55244W        W27669  29.715   3.745  10.731
55245W        W27670   8.811  26.236  12.047
55246W        W27671  15.756  42.514  12.632
55247W        W27672  44.908  40.596   2.677
55248W        W27673  34.585  41.212  10.958
55249W        W27674  43.785  13.002   1.733
55250W        W27675   1.948  28.047  10.546
55251W        W27676  23.186  13.685  11.546
55252W        W27677  11.856  41.471   1.271
55253W        W27678  38.093  44.654   3.688
55254W        W27679  42.566  36.138  10.710
55255W        W27680  30.511  24.748  11.023
55256W        W27681  35.395  41.225   0.265
55257W        W27682  20.917  30.401  11.254
55258W        W27683   1.251  38.398  13.062
55259W        W27684   5.963   1.451  11.959
55260W        W27685   8.051  10.830   2.333
55261W        W27686  11.782   6.346   3.114
55262W        W27687  36.314  14.841   3.347
55263W        W27688  37.781  43.962   3.182
55264W        W27689   2.419  39.369  11.501
55265W        W27690   8.665  20.036  14.376
55266W        W27691  43.331   2.590   1.388
55267W        W27692   9.632  28.045  11.602
55268W        W27693  10.374   8.361  10.674
55269W        W27694  25.796  26.942   0.468
55270W        W27695  43.528   7.639  11.419
55271W        W27696  10.192  10.884  10.571
55272W        W27697   8.516   5.028  14.492
55273W        W27698   9.595   0.777   2.314
55274W        W27699   0.861  10.178  11.647
55275W        W27700  30.033  16.648  14.281
55276W        W27701  39.317  22.596  13.112
55277W        W27702  12.289  36.616  13.497
55278W        W27703  20.049  35.399   2.395
55279W        W27704  19.048  26.989   2.181
55280W        W27705  35.428  23.241  11.376
55281W        W27706   4.341  13.440   4.113
55282W        W27707  42.598  17.868  13.466
55283W        W27708  26.429  37.608   4.152
55284W        W27709  41.787  11.250  13.763
55285W        W27710  34.898  17.386   1.637
55286W        W27711  25.458  33.114  10.045
55287W        W27712  36.249   0.434   0.283
55288W        W27713   1.707  25.571  14.043
55289W        W27714  38.720  28.430  11.177
55290W        W27715  32.013  25.230   3.576
55291W        W27716  26.118   3.488  13.915
55292W        W27717  20.779  17.089  12.164
55293W        W27718  19.734   7.875   1.432
55294W        W27719  15.621  32.585   4.502
55295W        W27720   8.269  38.742  14.012
55296W        W27721  19.549  27.711   3.243
55297W        W27722   4.760  34.323  13.918
55298W        W27723  18.962  36.427   0.326
55299W        W27724  37.979  23.227  10.404
55300W        W27725   6.319  16.175   0.680
55301W        W27726  19.253  13.591   3.552
55302W        W27727  37.753   8.559  12.817
55303W        W27728  15.369  23.144   2.740
55304W        W27729   5.665  43.266   1.348
55305W        W27730   4.733  13.788  13.368
55306W        W27731  31.689  30.404   1.924
55307W        W27732  10.158  40.238  11.558
55308W        W27733  34.552   2.358  13.942
55309W        W27734  18.231  43.902   3.361
55310W        W27735  37.488  12.163  13.965
55311W        W27736   1.374  34.399   4.898
55312W        W27737   9.607  31.558  12.216
55313W        W27738  14.906   1.833  14.293
55314W        W27739  24.663  28.927  13.392
55315W        W27740  32.064  12.855  13.340
55316W        W27741   5.899  41.870   2.534
55317W        W27742  10.451  41.531  13.460
55318W        W27743  27.171   2.850  12.576
55319W        W27744  13.385  20.077   3.263
55320W        W27745  33.462  38.462  13.596
55321W        W27746   9.854  25.093  13.082
55322W        W27747   6.372  29.530  10.597
55323W        W27748  16.133  40.766  10.487
55324W        W27749  14.135   1.565  13.778
55325W        W27750   5.495  24.667  14.507
55326W        W27751   3.647  21.135   2.739
55327W        W27752  14.880  14.183  13.756
55328W        W27753  28.469  20.475   2.194
55329W        W27754  19.552   7.283   4.640
55330W        W27755  31.551  29.370  13.118
55331W        W27756  16.157  27.666  12.822
55332W        W27757  24.505  42.548  12.327
55333W        W27758  24.585  28.724  10.961
55334W        W27759  29.230  21.122   5.714
55335W        W27760  14.702  21.758   2.203
55336W        W27761  29.695  27.950  11.908
55337W        W27762   8.505   1.142   4.230
55338W        W27763  34.677  23.201   0.376
55339W        W27764   7.782   3.258  10.645
55340W        W27765  11.780  39.127  10.968
55341W        W27766  13.800  42.206   1.835
55342W        W27767   0.515  28.203   3.312
55343W        W27768  11.845  38.984   3.204
55344W        W27769  35.132  27.479  11.422
55345W        W27770  24.413   3.873   3.695
55346W        W27771  23.653   1.336   0.932
55347W        W27772   9.889  24.958  14.818
55348W        W27773  35.039  14.263   2.638
55349W        W27774  39.871  22.767  14.508
55350W        W27775   3.397  24.464  13.416
55351W        W27776  12.363  24.773  10.565
55352W        W27777   3.746  35.860  13.495
55353W        W27778  36.933  38.527   1.121
55354W        W27779  29.670   6.378  12.870
55355W        W27780  35.909  29.740   1.161
55356W        W27781  38.167  36.727  13.716
55357W        W27782  15.842  17.711   0.482
55358W        W27783  29.975  15.661   3.135
55359W        W27784   2.511   5.201   0.851
55360W        W27785   8.883  42.835  10.525
55361W        W27786  28.791  25.716  12.211
55362W        W27787  32.133  19.586  13.074
55363W        W27788   9.957  23.263  12.087
55364W        W27789  12.507  38.856  13.157
55365W        W27790  44.527  36.419   2.210
55366W        W27791   6.756   1.254   0.316
55367W        W27792  36.993  19.895  10.316
55368W        W27793   1.232  34.451  13.386
55369W        W27794  26.783  33.510   1.736
55370W        W27795   6.135  41.307   1.226
55371W        W27796  13.825  24.341   0.424
55372W        W27797   8.422  12.130  11.519
55373W        W27798  18.314   2.669   3.292
55374W        W27799   0.443  35.084   4.564
55375W        W27800  43.006   6.256  10.401
55376W        W27801  29.064  22.844  10.527
55377W        W27802  36.051  15.600   2.224
55378W        W27803  21.646   3.172   4.397
55379W        W27804  25.692  39.727   0.298
55380W        W27805  14.166  10.914  12.842
55381W        W27806  30.918  25.087   0.436
55382W        W27807   8.133  26.567  11.635
55383W        W27808  39.155  34.019   4.908
55384W        W27809  24.308   2.218   1.936
55385W        W27810  18.663  26.364   0.349
55386W        W27811  40.040   4.856   3.744
55387W        W27812   7.118  38.309  12.929
55388W        W27813  32.346  44.557   2.076
55389W        W27814  43.272  24.145   0.452
55390W        W27815  31.440  40.366   3.010
55391W        W27816  16.968  42.715  13.359
55392W        W27817  23.712   7.722   4.670
55393W        W27818  33.298  22.639   9.993
55394W        W27819  29.131  12.760  13.046
55395W        W27820  38.060  12.248   1.242
55396W        W27821  37.314  16.869   1.740
55397W        W27822   8.632  11.391   1.730
55398W        W27823  28.647  26.143  10.699
55399W        W27824   7.196   2.032  13.073
55400W        W27825   3.249  37.422   2.866
55401W        W27826  11.810  42.482  12.877
55402W        W27827  25.385  16.317   1.252
55403W        W27828   9.354  35.351  14.447
55404W        W27829  23.579  13.269  13.270
55405W        W27830  33.541   9.383   4.549
55406W        W27831  13.720  20.834  13.783
55407W        W27832  32.537   9.923  10.924
55408W        W27833  14.179  22.208  10.527
55409W        W27834  34.126  10.366   2.164
55410W        W27835   7.931  11.451  10.383
55411W        W27836   8.555  23.449  12.852
55412W        W27837   6.641  16.700  12.436
55413W        W27838  10.399  32.133   0.719
55414W        W27839  30.515   7.828  10.665
55415W        W27840  36.049   8.299   4.920
55416W        W27841  38.869  24.225  10.671
55417W        W27842  35.018  10.143   1.686
55418W        W27843  23.007  31.529  12.140
55419W        W27844  32.663   9.936  11.968
55420W        W27845   6.421  19.720  12.966
55421W        W27846  33.942  11.265  14.985
55422W        W27847  29.695  37.034   4.160
55423W        W27848  40.870  32.006  12.917
55424W        W27849  30.534  20.880  10.213
55425W        W27850  15.032  35.011  14.938
55426W        W27851  20.594  33.925  11.966
55427W        W27852   0.804  37.561  11.420
55428W        W27853  36.426  15.305   1.133
55429W        W27854  33.840  37.980   3.690
55430W        W27855  40.966  34.091   0.833
55431W        W27856   2.896  22.517   4.085
55432W        W27857  34.022  43.366   3.873
55433W        W27858  25.493  28.983   2.609
55434W        W27859  20.841  21.112  11.627
55435W        W27860  42.991  16.339  14.866
55436W        W27861  20.213  41.444   3.331
55437W        W27862  38.995  14.680  13.961
55438W        W27863  21.797  37.370   2.646
55439W        W27864  11.541  21.932  12.951
55440W        W27865  13.671  27.371   0.455
55441W        W27866  39.379  30.054  12.881
55442W        W27867   2.320  36.553   3.687
55443W        W27868  38.028  36.151   1.447
55444W        W27869  24.510   3.458  13.176
55445W        W27870   9.622  41.019  14.887
55446W        W27871  34.154  11.422   0.458
55447W        W27872  31.849  13.328   0.724
55448W        W27873  16.125   1.198   1.988
55449W        W27874  17.544   3.479  13.495
55450W        W27875  39.078  44.391  12.948
55451W        W27876  44.149   6.975  11.542
55452W        W27877  29.755   1.582   4.114
55453W        W27878   8.110   8.380  14.838
55454W        W27879  13.257  40.538   5.476
55455W        W27880  16.605  36.802   4.125
55456W        W27881  22.276  32.504  10.640
55457W        W27882  36.611  32.058  10.684
55458W        W27883  12.136  23.186   1.527
55459W        W27884  32.182  10.699   1.004
55460W        W27885   7.844  39.655  12.416
55461W        W27886   4.145  15.363  13.842
55462W        W27887  38.327  33.172  11.532
55463W        W27888  37.538   4.748  13.713
55464W        W27889   4.703  41.040  13.454
55465W        W27890  12.575  40.309   4.342
55466W        W27891  26.740  26.208   1.421
55467W        W27892  43.631  19.786  11.892
55468W        W27893   2.391   2.946  14.004
55469W        W27894   2.395   9.883  10.649
55470W        W27895  10.332  22.135  12.423
55471W        W27896  18.002  23.033  12.544
55472W        W27897   8.508  43.924  13.484
55473W        W27898  37.473  36.833  13.074
55474W        W27899  16.700   0.986  12.722
55475W        W27900   0.274  22.520   2.521
55476W        W27901   8.304  20.218  13.508
55477W        W27902  19.546  33.589   0.967
55478W        W27903   1.398  11.079   4.587
55479W        W27904  43.237  25.968   0.555
55480W        W27905  24.130  20.673  12.925
55481W        W27906   8.707  13.769   0.865
55482W        W27907  12.040  30.502   2.293
55483W        W27908  42.310  44.455   0.935
55484W        W27909  35.275  16.918  12.174
55485W        W27910  30.611  32.180   2.753
55486W        W27911   8.832  13.167   2.717
55487W        W27912  31.202   4.485  12.509
55488W        W27913   8.439   7.223   2.685
55489W        W27914   5.732   0.422   1.081
55490W        W27915  22.921  41.056   0.457
55491W        W27916  43.971  32.226   3.205
55492W        W27917  32.900   9.253  14.356
55493W        W27918  39.797  42.280   3.992
55494W        W27919  22.440  35.400  13.785
55495W        W27920  25.280   8.703   4.598
55496W        W27921   2.512  17.051  11.570
55497W        W27922  16.702  12.278  10.673
55498W        W27923  23.111  20.545   0.852
55499W        W27924  39.506  17.296  12.448
55500W        W27925  15.629   2.802   2.667
55501W        W27926  27.554  19.119   4.555
55502W        W27927   4.485  42.707   2.877
55503W        W27928  12.055   1.480  12.608
55504W        W27929  23.761  13.574   0.982
55505W        W27930   4.863  24.974   3.081
55506W        W27931  23.310  24.703   4.605
55507W        W27932  21.159  20.449  12.178
55508W        W27933  24.736  21.703  12.161
55509W        W27934  34.082  31.183  12.704
55510W        W27935  32.167  30.452  10.622
55511W        W27936  37.040   4.559  13.806
55512W        W27937  34.934  22.821  12.031
55513W        W27938  35.993  21.545  14.560
55514W        W27939  30.674  12.454   2.283
55515W        W27940  24.182  23.915  14.393
55516W        W27941  14.758  29.175  12.458
55517W        W27942  22.702   6.711  13.366
55518W        W27943  21.674   4.813  13.855
55519W        W27944  44.539  21.569  12.009
55520W        W27945  39.495  16.868   3.183
55521W        W27946   8.253  10.111   3.850
55522W        W27947  30.353   1.819  11.359
55523W        W27948  31.930  15.986  13.409
55524W        W27949  17.809  42.852  10.711
55525W        W27950  13.434  33.877   0.255
55526W        W27951   4.693  13.697   2.322
55527W        W27952  10.324   2.913  14.106
55528W        W27953  34.624  37.388  11.089
55529W        W27954  42.859  28.999   2.876
55530W        W27955  25.909  32.888  12.449
55531W        W27956  33.188  42.539  12.566
55532W        W27957  26.110  15.679  13.495
55533W        W27958  25.780  27.566   2.467
55534W        W27959  32.193  14.366  10.753
55535W        W27960  29.425  39.997  13.023
55536W        W27961  28.776  10.174  14.415
55537W        W27962  27.478  36.402   2.027
55538W        W27963  11.204  30.523   3.691
55539W        W27964   4.384  24.405   3.738
55540W        W27965  14.697  13.306  14.302
55541W        W27966   5.295  41.847   0.422
55542W        W27967  24.256  10.144  11.631
55543W        W27968  43.710  22.909   2.188
55544W        W27969  34.105  13.782   1.908
55545W        W27970  15.914  31.002   2.652
55546W        W27971  17.278  18.965   3.137
55547W        W27972  15.876  12.315  12.945
55548W        W27973  21.693  22.470   0.188
55549W        W27974   4.253   0.330   3.162
55550W        W27975  36.288  31.113   0.825
55551W        W27976  34.488   9.386  12.632
55552W        W27977   3.114  39.993   4.148
55553W        W27978  42.826  36.944  11.550
55554W        W27979   4.354  39.950  14.055
55555W        W27980  13.865  22.688  11.826
55556W        W27981  33.468  39.325  14.301
55557W        W27982  31.684  36.050  13.823
55558W        W27983   0.629   9.537  12.227
55559W        W27984  32.480   8.268   4.657
55560W        W27985  27.983  41.984   0.001
55561W        W27986  26.166  17.211   3.732
55562W        W27987  26.768   7.647  11.229
55563W        W27988  38.048  30.202  11.137
55564W        W27989  41.995   5.029   3.224
55565W        W27990  18.642  16.531   3.748
55566W        W27991  27.656   1.787   1.819
55567W        W27992  14.805  34.733  10.165
55568W        W27993  30.055   4.041  13.325
55569W        W27994   3.490  30.908   2.713
55570W        W27995  35.362  25.282   2.971
55571W        W27996  28.940  29.068  11.560
55572W        W27997  43.821  40.546  11.901
55573W        W27998  42.438  34.001  12.248
55574W        W27999  28.155   2.272  14.916
55575W        W28000  40.928   6.257  12.113
55576W        W28001  28.031  34.853  14.777
55577W        W28002  11.552  14.171  11.484
55578W        W28003  13.098  12.334  12.859
55579W        W28004   7.262  42.372  14.548
55580W        W28005  27.611  17.246   4.773
55581W        W28006  35.543   2.256  14.018
55582W        W28007  20.727   4.254   0.414
55583W        W28008  37.169   9.339  12.141
55584W        W28009  29.107  15.678  12.570
55585W        W28010  31.130  23.711   4.184
55586W        W28011  29.666  32.154   0.754
55587W        W28012  13.917  19.001   2.513
55588W        W28013   2.346   7.766   3.108
55589W        W28014  15.005  20.721  13.597
55590W        W28015  23.652  25.070  14.732
55591W        W28016  20.729  24.653  14.115
55592W        W28017  38.522  31.612   0.761
55593W        W28018  16.167  22.663   1.337
55594W        W28019   0.919  14.567   4.580
55595W        W28020  33.661  33.556  11.557
55596W        W28021  36.581  17.419   2.903
55597W        W28022  10.458  38.829   1.379
55598W        W28023  23.044  27.773   1.974
55599W        W28024  11.655  36.768  12.432
55600W        W28025  38.228  23.583   2.732
55601W        W28026   7.143  24.731   1.668
55602W        W28027  40.814   2.205   4.229
55603W        W28028  20.118  39.384  11.830
55604W        W28029   2.680  29.165   1.869
55605W        W28030   4.745  29.944   3.330
55606W        W28031   0.537   8.357   1.933
55607W        W28032  33.648   8.327  12.391
55608W        W28033   4.765   0.044   1.738
55609W        W28034  38.403  41.016  12.529
55610W        W28035   7.445  21.694  12.496
55611W        W28036  15.198  20.698   0.380
55612W        W28037  34.870  26.665   0.753
55613W        W28038  34.411  25.290  13.752
55614W        W28039  22.102   9.817   5.650
55615W        W28040  41.821   3.587   4.542
55616W        W28041   0.773  41.129   1.765
55617W        W28042  12.099   9.054  14.435
55618W        W28043  16.913  41.368   0.864
55619W        W28044  14.925  14.703   4.497
55620W        W28045  42.984  31.052  10.719
55621W        W28046   5.332  27.482  11.841
55622W        W28047  22.464  18.668   2.843
55623W        W28048  21.099   2.712   2.948
55624W        W28049   1.471  41.292   3.697
55625W        W28050  11.649  26.000   3.305
55626W        W28051  27.725  23.721   2.917
55627W        W28052  41.311  17.856   2.348
55628W        W28053  27.708  27.446  13.895
55629W        W28054  32.013  25.664  13.973
55630W        W28055  43.829   2.390   1.401
55631W        W28056  15.904   7.508   4.986
55632W        W28057  14.782  16.562   3.316
55633W        W28058   0.340  13.843  12.953
55634W        W28059  37.136  23.687  12.994
55635W        W28060  12.322  31.891   5.068
55636W        W28061  26.194  36.502   4.153
55637W        W28062  29.714  24.902   3.276
55638W        W28063  36.019  10.444  14.482
55639W        W28064  38.083  21.562   2.128
55640W        W28065  30.126   8.933   4.532
55641W        W28066   3.291  16.182   4.277
55642W        W28067  30.513  30.348  14.314
55643W        W28068  37.859  20.114   3.054
55644W        W28069  17.529  22.636   3.736
55645W        W28070  10.789  41.497   2.700
55646W        W28071  38.168  25.887   3.834
55647W        W28072  16.814  34.130  12.044
55648W        W28073  23.925  36.945  13.785
55649W        W28074  14.730   4.005  10.690
55650W        W28075   1.462   3.174  11.468
55651W        W28076  21.293  42.023   0.374
55652W        W28077  43.540  44.861   0.872
55653W        W28078  21.373  13.098  14.232
55654W        W28079   2.840  10.159   1.288
55655W        W28080  24.102  41.525   3.124
55656W        W28081   4.303  32.590   0.018
55657W        W28082  10.144  34.537  12.026
55658W        W28083  37.534  36.772  11.151
55659W        W28084  35.985  27.368   1.459
55660W        W28085  23.711  11.101  11.016
55661W        W28086  16.808  30.495   4.592
55662W        W28087  41.906  18.252   3.695
55663W        W28088   6.373   1.869   4.969
55664W        W28089  24.327   1.838  14.535
55665W        W28090  41.721  21.301   0.960
55666W        W28091   7.888   4.193   1.530
55667W        W28092  20.206  19.301   4.310
55668W        W28093  20.945  40.902   2.606
55669W        W28094  40.999  38.982   0.797
55670W        W28095  25.044   9.248  11.133
55671W        W28096  13.891  17.089   1.953
55672W        W28097   7.785  24.585   2.389
55673W        W28098  43.888  20.664   2.929
55674W        W28099  12.641  22.030  11.920
55675W        W28100   8.973  13.773  11.101
55676W        W28101  16.219   9.385  11.255
55677W        W28102   4.951   8.315  12.161
55678W        W28103  19.226  30.945  13.363
55679W        W28104  36.361  32.399  10.944
55680W        W28105  24.040  10.253  10.097
55681W        W28106   6.617  29.665  13.847
55682W        W28107  10.343  18.223   0.711
55683W        W28108  43.976  10.733  11.936
55684W        W28109  42.577  27.176  10.998
55685W        W28110  42.037   1.484   2.873
55686W        W28111  26.767  29.502  11.755
55687W        W28112  34.563  11.559  13.922
55688W        W28113  27.728  26.772  11.561
55689W        W28114  29.272  23.071   1.481
55690W        W28115  10.313  20.246   0.830
55691W        W28116  16.061  29.143  13.035
55692W        W28117  26.449  16.159  11.913
55693W        W28118  15.387  18.222  12.662
55694W        W28119  34.986  21.184  10.426
55695W        W28120  19.011  18.670  13.349
55696W        W28121   8.523  14.267  12.482
55697W        W28122  36.937  13.431   0.983
55698W        W28123  34.906  21.739  10.635
55699W        W28124  14.961  30.669  12.529
55700W        W28125  14.521  33.895  14.529
55701W        W28126  43.999   7.849  12.381
55702W        W28127  20.317  31.626  13.939
55703W        W28128   1.431   7.407   0.064
55704W        W28129  38.048  38.106  11.172
55705W        W28130  43.578  19.103   1.382
55706W        W28131   0.240  32.969   0.802
55707W        W28132  28.944  19.244  13.028
55708W        W28133  36.852   1.424  12.891
55709W        W28134  37.347  11.329   3.381
55710W        W28135  24.061   1.890   1.331
55711W        W28136  43.331   6.647   2.371
55712W        W28137  38.933   7.862  13.099
55713W        W28138  31.052  13.894   0.347
55714W        W28139  18.836  15.497  13.892
55715W        W28140  23.768   3.325   2.699
55716W        W28141  23.938  30.409  12.012
55717W        W28142   5.509  41.388  13.347
55718W        W28143  33.008  17.706  11.723
55719W        W28144  34.988   5.673  14.505
55720W        W28145   0.696  10.071  10.055
55721W        W28146   3.189  42.254  13.553
55722W        W28147  34.575   7.333   5.208
55723W        W28148  35.892  39.797  12.169
55724W        W28149   9.310   9.135  12.131
55725W        W28150   1.613  29.020  13.356
55726W        W28151  44.548  35.666   1.367
55727W        W28152  35.451  36.673  10.971
55728W        W28153  40.610   0.846   2.796
55729W        W28154   4.152  28.351   1.284
55730W        W28155  40.942  37.982   2.742
55731W        W28156   8.900   6.336   0.682
55732W        W28157  23.039  42.630  11.242
55733W        W28158  23.540  10.255   9.929
55734W        W28159  22.687  29.061   2.265
55735W        W28160  26.881  19.751  14.255
55736W        W28161  15.262  29.425   3.804
55737W        W28162  30.235  33.866  11.649
55738W        W28163   8.953  33.049  13.449
55739W        W28164  20.574   1.952  12.553
55740W        W28165  25.756  10.339  13.840
55741W        W28166   6.007  31.465  14.980
55742W        W28167  41.080  33.595   0.741
55743W        W28168  32.844  33.134  12.889
55744W        W28169   5.650  42.944   1.751
55745W        W28170  14.526  40.456   4.740
55746W        W28171  13.092  30.456  14.048
55747W        W28172  40.832   6.708  11.838
55748W        W28173  27.638  33.412  10.695
55749W        W28174  39.410  35.946   3.829
55750W        W28175  41.307  33.145  13.435
55751W        W28176  35.809  34.832  11.990
55752W        W28177   9.391  39.088  11.202
55753W        W28178  37.966   0.396  13.381
55754W        W28179   3.355  38.304   1.289
55755W        W28180  25.171   5.437   2.675
55756W        W28181  34.119   0.578  13.767
55757W        W28182  40.911  24.475  13.492
55758W        W28183  41.381  38.961  13.583
55759W        W28184  27.881  30.091  11.487
55760W        W28185  18.503  27.227  13.477
55761W        W28186  17.091  25.188  11.912
55762W        W28187  37.080  29.991  14.364
55763W        W28188  30.533  23.119  14.343
55764W        W28189  35.834  26.134   5.131
55765W        W28190   2.746  36.349  10.467
55766W        W28191  24.241  36.019  11.963
55767W        W28192   8.974   1.314   3.605
55768W        W28193  17.315  20.775  12.515
55769W        W28194  29.897  32.055   3.355
55770W        W28195  13.864  26.652   4.147
55771W        W28196  15.293  11.374   2.744
55772W        W28197  36.873  27.272  10.650
55773W        W28198   3.985  43.053  12.592
55774W        W28199  23.705  24.967   3.283
55775W        W28200   1.541  41.958   1.028
55776W        W28201  20.584  25.377   2.713
55777W        W28202  37.545  21.319  13.003
55778W        W28203  43.000   5.124  13.579
55779W        W28204   8.758  44.848  13.343
55780W        W28205  20.748  38.665  13.069
55781W        W28206  17.024   9.439  11.447
55782W        W28207  27.059  43.285  13.458
55783W        W28208   0.830  22.317   1.899
55784W        W28209  33.654   6.787   4.119
55785W        W28210  39.029  32.982   1.252
55786W        W28211   3.826  29.218   0.472
55787W        W28212   3.788  27.396   1.506
55788W        W28213  36.340  21.592  13.695
55789W        W28214  30.693  25.568  12.615
55790W        W28215  35.353  26.224  12.363
55791W        W28216   9.789  37.308  13.123
55792W        W28217  43.392  21.062  11.658
55793W        W28218  31.293   8.919  13.301
55794W        W28219  34.135  26.034  11.945
55795W        W28220  24.538   7.935  13.488
55796W        W28221  14.808  43.481   3.174
55797W        W28222  13.857  33.885  12.409
55798W        W28223  25.870   5.946   0.808
55799W        W28224  30.186   0.802  12.580
55800W        W28225   6.962   3.760  12.074
55801W        W28226  30.892  23.158  10.527
55802W        W28227  38.667   3.888   3.823
55803W        W28228  39.783  12.742   3.145
55804W        W28229   4.203   6.752   1.371
55805W        W28230  24.197  17.851  11.171
55806W        W28231  29.619  17.205   0.980
55807W        W28232  30.661  11.562  13.682
55808W        W28233   2.040  34.944  12.878
55809W        W28234   2.234  43.898   0.912
55810W        W28235  18.616  32.784   2.900
55811W        W28236  22.765  32.270   2.797
55812W        W28237  19.696   2.292  12.500
55813W        W28238  26.438   3.225   3.802
55814W        W28239  34.999  39.006   3.676
55815W        W28240  34.634   9.767   1.881
55816W        W28241   8.266  35.020  12.709
55817W        W28242  42.313  33.650  14.890
55818W        W28243  16.248  30.178  12.546
55819W        W28244  24.961  24.915  12.409
55820W        W28245  31.825  37.347   1.805
55821W        W28246  35.082  44.993  12.590
55822W        W28247  17.609  24.549   0.468
55823W        W28248  44.295  21.643   4.047
55824W        W28249  43.963  20.195   1.793
55825W        W28250   4.804  14.817  13.562
55826W        W28251   4.712   5.235   1.590
55827W        W28252  40.354   2.780  13.341
55828W        W28253   2.504  25.032  11.436
55829W        W28254  35.570  38.266   1.882
55830W        W28255   3.458  37.985  14.920
55831W        W28256  31.180  13.655   1.253
55832W        W28257   4.712  22.972  11.150
55833W        W28258  40.971  30.695   0.802
55834W        W28259  10.136  17.087  13.127
55835W        W28260  12.115  15.218  13.866
55836W        W28261  20.199  39.547  10.332
55837W        W28262   3.730  12.348  10.703
55838W        W28263  14.371  38.054   3.343
55839W        W28264  25.691  27.630   2.960
55840W        W28265  10.709  29.616  12.883
55841W        W28266  34.147  23.974   4.284
55842W        W28267  27.046   3.786   3.141
55843W        W28268   3.267  30.622   1.859
55844W        W28269  40.607  19.139   3.135
55845W        W28270  29.452  27.109  11.621
55846W        W28271  25.604  28.582  13.124
55847W        W28272  28.042  10.255  14.988
55848W        W28273  32.894  29.923   3.683
55849W        W28274  38.385  33.156   1.613
55850W        W28275  39.460  22.973   3.754
55851W        W28276  23.766  29.377  12.562
55852W        W28277  32.999  44.322   4.721
55853W        W28278  10.909  31.187   2.186
55854W        W28279   5.608  16.207   1.089
55855W        W28280   2.941   8.090  11.240
55856W        W28281  34.834   9.402   0.792
55857W        W28282  11.323   1.901  10.174
55858W        W28283  43.135  32.958   0.932
55859W        W28284  30.507  23.992  10.497
55860W        W28285  29.148  13.192  13.310
55861W        W28286   9.369   3.860   2.458
55862W        W28287  43.007  10.720   0.691
55863W        W28288   0.686  23.920  12.492
55864W        W28289   1.817  20.653   0.823
55865W        W28290  16.247   5.697  12.352
55866W        W28291  30.010  37.144  12.087
55867W        W28292  28.003  27.996   0.966
55868W        W28293   8.210  39.921   1.827
55869W        W28294   6.773   4.336   4.350
55870W        W28295  11.679  18.641   3.868
55871W        W28296  24.178  30.967   2.916
55872W        W28297   3.250   7.107  13.524
55873W        W28298  15.248  42.314   3.665
55874W        W28299   8.935  35.011  13.351
55875W        W28300  42.420  17.938  13.966
55876W        W28301   5.647  15.089   1.204
55877W        W28302  11.571  30.157   2.315
55878W        W28303   6.234   6.289   1.793
55879W        W28304  17.109  22.097   0.040
55880W        W28305  21.126  22.802   2.168
55881W        W28306   0.486  35.511   3.291
55882W        W28307  11.684  23.523  14.298
55883W        W28308  33.684  27.445  11.578
55884W        W28309  22.104  25.922   1.910
55885W        W28310  43.482  38.312  13.505
55886W        W28311  16.818  29.170   4.397
55887W        W28312  39.908  23.598   0.086
55888W        W28313  16.906   7.837  13.866
55889W        W28314  27.707  10.614   0.682
55890W        W28315   2.971  39.979  11.108
55891W        W28316  34.577  13.113   4.213
55892W        W28317  32.182  35.235   3.234
55893W        W28318   8.134   3.487  14.059
55894W        W28319  28.826  10.518  13.206
55895W        W28320  18.629   5.689   0.533
55896W        W28321  40.855  43.937  13.979
55897W        W28322   5.699  16.465   4.533
55898W        W28323  35.382  21.503  10.567
55899W        W28324  37.095  31.585   1.357
55900W        W28325  31.841   4.958  10.186
55901W        W28326  13.575  39.383   0.930
55902W        W28327  28.402  32.871  11.397
55903W        W28328  42.554   7.174  10.516
55904W        W28329  34.282  10.833   4.603
55905W        W28330  20.872  38.959   1.785
55906W        W28331  30.384  38.124  14.423
55907W        W28332   6.214   9.392   2.406
55908W        W28333   7.588  18.818   4.854
55909W        W28334  16.538  39.999   1.151
55910W        W28335  23.506   6.364   2.665
55911W        W28336   2.820   7.244  13.287
55912W        W28337  17.875   1.869  11.084
55913W        W28338  14.810  17.203  14.890
55914W        W28339  19.614  40.947   2.764
55915W        W28340   4.124  43.870   2.579
55916W        W28341  32.947  14.136  13.461
55917W        W28342  12.252  13.563   2.187
55918W        W28343  12.640  25.694  12.107
55919W        W28344  19.293  17.191   2.693
55920W        W28345  40.060   0.171   4.278
55921W        W28346  18.276  13.714   2.834
55922W        W28347  10.642   7.448  14.558
55923W        W28348  11.454  29.916   5.096
55924W        W28349  42.363  23.301   4.764
55925W        W28350  28.507   5.765   3.895
55926W        W28351  34.244   7.487  13.171
55927W        W28352  41.595  11.649  12.817
55928W        W28353  40.511  20.419  11.514
55929W        W28354   3.761  27.418  12.668
55930W        W28355  23.631  18.700  11.083
55931W        W28356  12.251  38.537   2.560
55932W        W28357  11.317  23.061  11.677
55933W        W28358  34.406  37.559  11.538
55934W        W28359   6.873   2.744  13.121
55935W        W28360  26.230  15.868  11.124
55936W        W28361  22.755   4.412   2.021
55937W        W28362  31.198  36.856   1.536
55938W        W28363   5.919  11.720   0.467
55939W        W28364   0.126  22.475  10.767
55940W        W28365  17.774  33.815  14.323
55941W        W28366  41.451   5.484   4.593
55942W        W28367  37.521  12.636   2.249
55943W        W28368  35.523   0.760  10.759
55944W        W28369  24.536  35.968  14.768
55945W        W28370   1.768  32.949   4.611
55946W        W28371  31.499   7.710   4.969
55947W        W28372   1.742  19.115   1.517
55948W        W28373  30.063  40.528   4.279
55949W        W28374  40.664  11.401   2.284
55950W        W28375   4.663  30.815   2.742
55951W        W28376  23.295  38.540   1.768
55952W        W28377  32.922  33.070   0.616
55953W        W28378  22.894  12.082  14.710
55954W        W28379  23.507  26.681   0.199
55955W        W28380   7.846  23.107  13.065
55956W        W28381   0.010  33.137   4.049
55957W        W28382  43.208  39.517  11.569
55958W        W28383  24.913  18.581   3.262
55959W        W28384   7.966  16.194  13.504
55960W        W28385  15.413  33.550  13.382
55961W        W28386  31.535  20.576   0.221
55962W        W28387   6.978  16.154   3.746
55963W        W28388  23.349  34.590  11.688
55964W        W28389  11.944  24.802  13.382
55965W        W28390  29.357  35.036   4.534
55966W        W28391  20.555  11.573  12.527
55967W        W28392  21.631  44.969  14.416
55968W        W28393  20.325  32.396  12.033
55969W        W28394  37.760  41.820  11.961
55970W        W28395  37.322  37.869  14.427
55971W        W28396  14.312  18.683   1.646
55972W        W28397   9.421  41.247  11.161
55973W        W28398  25.643   9.030   2.791
55974W        W28399  27.447   2.306   1.796
55975W        W28400   0.044  10.186   1.372
55976W        W28401  29.571   0.047  14.889
55977W        W28402  26.668  22.552   4.115
55978W        W28403  17.493  42.733  13.466
55979W        W28404   4.254  30.238  12.948
55980W        W28405  17.377  34.645   2.709
55981W        W28406  23.255  23.596   2.253
55982W        W28407  35.520  12.803   2.858
55983W        W28408   0.299  44.255  12.964
55984W        W28409  26.293  40.314  13.947
55985W        W28410  12.415  36.137   2.776
55986W        W28411  29.970  39.966   4.249
55987W        W28412  36.543   1.238   1.673
55988W        W28413  22.878  38.440  14.848
55989W        W28414   1.956   4.559  10.608
55990W        W28415  13.811  35.040  10.978
55991W        W28416   3.409  31.059   3.634
55992W        W28417  10.528  23.047  13.165
55993W        W28418  36.454  35.959  11.558
55994W        W28419  25.204   8.166  13.385
55995W        W28420  33.065  30.209  12.482
55996W        W28421  28.994  26.249  13.471
55997W        W28422   6.134   0.115   2.386
55998W        W28423  34.108  10.128  13.271
55999W        W28424  10.352  43.042  11.195
56000W        W28425  11.859   7.919  11.505
56001W        W28426  38.497   7.647   4.107
56002W        W28427   3.033  10.653   1.246
56003W        W28428  43.428  14.079  13.012
56004W        W28429  35.832  18.475   2.289
56005W        W28430   4.517  21.233   4.619
56006W        W28431  19.394  27.507  13.496
56007W        W28432   1.164  28.995  12.050
56008W        W28433  19.828  39.537   3.894
56009W        W28434  10.279  35.135  10.694
56010W        W28435  17.551  43.887   0.706
56011W        W28436  11.361   4.227   3.666
56012W        W28437  19.934   5.431  11.417
56013W        W28438  19.253  20.716   3.816
56014W        W28439   5.347  24.516  10.779
56015W        W28440  23.165  22.562   1.184
56016W        W28441  37.063  20.544   3.655
56017W        W28442  30.001  21.567  14.530
56018W        W28443  44.713   5.396  13.007
56019W        W28444  10.684  11.766  12.491
56020W        W28445  19.036  13.960   0.073
56021W        W28446  20.132   0.462   4.156
56022W        W28447   1.468  34.439   4.311
56023W        W28448  16.827  25.168   2.404
56024W        W28449  11.298  13.184   2.311
56025W        W28450  12.436  28.653   2.400
56026W        W28451   5.330   2.292   0.419
56027W        W28452  28.064  34.989   2.661
56028W        W28453  11.181  41.820   3.753
56029W        W28454  16.537  43.506   3.209
56030W        W28455   7.598  19.228  12.407
56031W        W28456  27.507  36.955   3.600
56032W        W28457  31.589  14.692  13.850
56033W        W28458  37.963  17.231  11.533
56034W        W28459  31.331  22.545  12.569
56035W        W28460  24.879  34.449   3.217
56036W        W28461   4.500  27.615  12.547
56037W        W28462  14.116  38.396  14.980
56038W        W28463  33.647  17.242  14.031
56039W        W28464  10.348   2.996  13.025
56040W        W28465   3.956  19.252   0.751
56041W        W28466  31.892  28.963  11.287
56042W        W28467  22.166  12.162  13.058
56043W        W28468   6.791  20.220  12.058
56044W        W28469  21.742  16.631   4.718
56045W        W28470  29.055   4.951  13.831
56046W        W28471  13.381   9.394   4.566
56047W        W28472  30.355  15.534  10.526
56048W        W28473  30.963  35.442  12.437
56049W        W28474  33.618  37.141   2.991
56050W        W28475  24.539  43.056  12.535
56051W        W28476  12.739  44.933   0.422
56052W        W28477  27.672  38.416  10.712
56053W        W28478  24.026  39.803  14.143
56054W        W28479  39.784  16.056  11.409
56055W        W28480  30.452   4.214  14.032
56056W        W28481  15.508  40.446   4.920
56057W        W28482  34.948  36.817  13.536
56058W        W28483  41.370  18.953   3.511
56059W        W28484  20.770  11.733  12.093
56060W        W28485  38.698  39.877  12.086
56061W        W28486  16.216  40.268   0.804
56062W        W28487  39.859   8.257  13.459
56063W        W28488  22.038  36.652   2.107
56064W        W28489  31.087  30.011  11.223
56065W        W28490  28.880   8.701   2.275
56066W        W28491   8.073  21.225  10.194
56067W        W28492  29.119  18.344   0.794
56068W        W28493  17.476  41.898   1.632
56069W        W28494   8.288  15.690  14.953
56070W        W28495  14.812   8.217  12.996
56071W        W28496   1.698  16.177   0.513
56072W        W28497  32.242  21.039  14.620
56073W        W28498  32.885  14.687  11.024
56074W        W28499   8.173   4.593  11.859
56075W        W28500  17.027  31.949   2.699
56076W        W28501  22.094  20.816  11.075
56077W        W28502  38.288   8.827   0.792
56078W        W28503  16.838  10.453  12.330
56079W        W28504  33.619  13.365   1.172
56080W        W28505  43.823   0.273   0.731
56081W        W28506  32.592  42.281   4.019
56082W        W28507   1.497   0.805   0.491
56083W        W28508  41.522  40.856  14.747
56084W        W28509  30.511  35.945  13.063
56085W        W28510  40.292  41.605  11.843
56086W        W28511  17.171  12.348  14.220
56087W        W28512  25.144  15.915   4.988
56088W        W28513   3.247   5.462   3.361
56089W        W28514  31.927  23.643   2.600
56090W        W28515   7.695  20.740  11.144
56091W        W28516  34.784   1.868   1.769
56092W        W28517  29.476  33.101   4.068
56093W        W28518  34.995  34.313  14.429
56094W        W28519   3.699  30.304   4.955
56095W        W28520  21.689  36.979  10.761
56096W        W28521  29.113  33.852   0.982
56097W        W28522  43.499  33.181  14.050
56098W        W28523  11.306  42.722  13.918
56099W        W28524  33.140  18.196   3.713
56100W        W28525  14.315  44.961  11.982
56101W        W28526   0.878   8.491   4.942
56102W        W28527   4.865  19.394  12.427
56103W        W28528  34.608  17.589   2.418
56104W        W28529   9.882   4.318  11.486
56105W        W28530  32.395  27.632   3.678
56106W        W28531  42.938  27.375  13.967
56107W        W28532  33.511  16.737  10.714
56108W        W28533  13.325   7.401  11.566
56109W        W28534  14.764  17.814  13.103
56110W        W28535   4.706  15.393  12.780
56111W        W28536  37.477  42.106   1.181
56112W        W28537  11.580  41.718   3.190
56113W        W28538   5.658  28.824   4.964
56114W        W28539  17.699   4.222  12.881
56115W        W28540   5.366  28.587   0.450
56116W        W28541  15.748  33.204   2.694
56117W        W28542  20.965   9.991  10.739
56118W        W28543  12.725   6.407   3.175
56119W        W28544  24.074   1.464   0.242
56120W        W28545  13.678  20.307   2.222
56121W        W28546   6.748  35.661  11.127
56122W        W28547  42.429  30.947  11.958
56123W        W28548  23.735   0.729   2.141
56124W        W28549   1.774  24.451  14.765
56125W        W28550  25.519  17.547   2.776
56126W        W28551  43.062  38.095  13.710
56127W        W28552  35.603  24.180  11.022
56128W        W28553  25.612   1.921  14.084
56129W        W28554  40.523  28.963  11.241
56130W        W28555  34.433  11.386   3.692
56131W        W28556  13.098  13.673  13.521
56132W        W28557   4.019  32.064  11.138
56133W        W28558  27.776  41.960  10.535
56134W        W28559  36.452  34.995   3.147
56135W        W28560   0.786   4.830   1.487
56136W        W28561  38.905  28.751   0.655
56137W        W28562  30.491   1.352   4.603
56138W        W28563   7.189  42.972   1.846
56139W        W28564  27.023   2.329   3.261
56140W        W28565   8.300  18.055   3.423
56141W        W28566  40.551  42.852  12.673
56142W        W28567  20.799  26.032   0.241
56143W        W28568  19.951  39.064  13.403
56144W        W28569   5.240  42.493   0.553
56145W        W28570  11.850  31.935  11.264
56146W        W28571  35.046   7.815  12.217
56147W        W28572  37.477   5.197  12.171
56148W        W28573  10.373   4.628  14.742
56149W        W28574   0.657  33.593  13.076
56150W        W28575  24.442  15.783   2.706
56151W        W28576   7.798  37.516  11.874
56152W        W28577  36.969   6.781  14.649
56153W        W28578  40.545  32.907   2.716
56154W        W28579  33.329  29.469  13.486
56155W        W28580   1.246   8.859   3.846
56156W        W28581  21.468  39.621  14.766
56157W        W28582  28.023  20.297   0.330
56158W        W28583  32.544  19.732  13.850
56159W        W28584  40.807  19.684  10.515
56160W        W28585   7.385  40.880   4.751
56161W        W28586  11.587  16.823  13.486
56162W        W28587   5.827   7.729   4.773
56163W        W28588  36.699   0.485   0.995
56164W        W28589  32.507  20.989   0.775
56165W        W28590  22.028  33.422   2.777
56166W        W28591  38.020  39.806   3.254
56167W        W28592  23.077  27.303   2.831
56168W        W28593  42.710  32.107  14.959
56169W        W28594  35.197  14.452  14.006
56170W        W28595  29.660  35.102   1.949
56171W        W28596   8.324  39.776  14.830
56172W        W28597   1.031  19.611  13.922
56173W        W28598   3.279  34.628  14.266
56174W        W28599   5.707  12.895   3.360
56175W        W28600  13.660   4.231  13.585
56176W        W28601  40.555  33.595   4.088
56177W        W28602   2.230  31.426  11.599
56178W        W28603  22.145   6.587  11.709
56179W        W28604  28.496  37.095  11.116
56180W        W28605  41.051  28.293   0.747
56181W        W28606  23.934  42.798   4.236
56182W        W28607  24.171  10.757  13.268
56183W        W28608  22.126   9.381   9.738
56184W        W28609  16.284  44.783   4.636
56185W        W28610  13.726  41.255  11.828
56186W        W28611  30.570  32.562   3.876
56187W        W28612  28.361  16.962  14.902
56188W        W28613  31.039  36.591  11.204
56189W        W28614   6.760  28.694   3.522
56190W        W28615  39.755  27.030  11.972
56191W        W28616   0.320   3.820   3.232
56192W        W28617  33.178   2.942   3.748
56193W        W28618  14.396  28.555  14.228
56194W        W28619  11.882  29.162   3.770
56195W        W28620  30.982  12.926  14.933
56196W        W28621   2.598  13.389   3.238
56197W        W28622   2.993  31.522   3.724
56198W        W28623  10.169  14.459   2.818
56199W        W28624  37.413  10.305  10.681
56200W        W28625  25.255  27.908  10.288
56201W        W28626   9.712   1.558   0.936
56202W        W28627  31.095  39.095   2.357
56203W        W28628  42.777   4.928   4.137
56204W        W28629  23.491   1.127   1.877
56205W        W28630  23.691   5.499  12.843
56206W        W28631   1.377  31.922   0.007
56207W        W28632  38.694  38.523  13.479
56208W        W28633   0.093  32.738  12.944
56209W        W28634  12.252  21.286  10.643
56210W        W28635  33.379  19.982  10.364
56211W        W28636  15.615  25.127  10.877
56212W        W28637  24.524   6.334  13.008
56213W        W28638  21.009  24.791   2.632
56214W        W28639  22.921  29.139  13.355
56215W        W28640  13.682  22.273   2.233
56216W        W28641  24.520  20.344  13.178
56217W        W28642  23.002  14.089  13.016
56218W        W28643   2.479  22.199  14.931
56219W        W28644  19.994  39.330  14.915
56220W        W28645  15.346  21.174   4.974
56221W        W28646  13.947  12.221  14.300
56222W        W28647  12.571  24.760   3.851
56223W        W28648  20.074   9.413   3.271
56224W        W28649  14.710  24.955  13.349
56225W        W28650  39.341  15.058  12.189
56226W        W28651  39.463  27.183   4.547
56227W        W28652  28.951   9.139  10.893
56228W        W28653   8.890  15.818  10.941
56229W        W28654  39.806  41.620  11.717
56230W        W28655  35.525  32.754  11.096
56231W        W28656  17.769   9.572  12.615
56232W        W28657  40.744  26.772  11.593
56233W        W28658  22.623  28.571   4.140
56234W        W28659  32.112  19.723  10.660
56235W        W28660  32.413  35.087   4.546
56236W        W28661   1.026  43.314   2.168
56237W        W28662   7.329  20.560  11.490
56238W        W28663  25.695  28.200   4.788
56239W        W28664  16.005  30.140   2.610
56240W        W28665  12.052  38.024  13.379
56241W        W28666  31.431   7.857  13.743
56242W        W28667  32.568   3.775   3.213
56243W        W28668   4.171  13.786  12.555
56244W        W28669  25.512   5.355  13.914
56245W        W28670  37.855  13.104   0.754
56246W        W28671  22.027  11.902  11.575
56247W        W28672  28.935  21.673   5.004
56248W        W28673  16.812  35.057   0.471
56249W        W28674  19.617  13.210  11.489
56250W        W28675  41.341  19.064  12.102
56251W        W28676  40.439  11.876   1.366
56252W        W28677  16.208  12.351  12.543
56253W        W28678   2.791   8.906  14.262
56254W        W28679  24.133  41.890  14.106
56255W        W28680  28.021  20.739   2.316
56256W        W28681  11.382  31.654  13.381
56257W        W28682  21.782  33.152   2.386
56258W        W28683  13.117  43.271   1.373
56259W        W28684   0.701  14.710   1.791
56260W        W28685  13.826  23.158  14.510
56261W        W28686  32.405  19.256   3.586
56262W        W28687   6.812  27.479   4.698
56263W        W28688   6.375  40.996   0.287
56264W        W28689  38.346   2.031  12.376
56265W        W28690  21.040   9.631  13.941
56266W        W28691  24.575   5.657   0.851
56267W        W28692   6.865  39.266  11.555
56268W        W28693  28.019  18.300   0.344
56269W        W28694  11.760  19.008   1.380
56270W        W28695  35.410  43.620   4.799
56271W        W28696  43.473   3.256   5.133
56272W        W28697  12.150  41.348  10.706
56273W        W28698  12.226  22.552   2.221
56274W        W28699  16.867   5.837  10.629
56275W        W28700  43.232  26.339  11.583
56276W        W28701  40.277   4.180  13.431
56277W        W28702  24.155   5.211   1.844
56278W        W28703  24.980   7.679  13.417
56279W        W28704  40.069   6.141   1.729
56280W        W28705  18.305   8.318  12.603
56281W        W28706   6.204  32.610   2.179
56282W        W28707  44.725  30.417  14.878
56283W        W28708   6.340  22.443  13.318
56284W        W28709   1.445  11.432   2.674
56285W        W28710  19.109  12.268  13.349
56286W        W28711  24.181   3.228  11.619
56287W        W28712  16.977  11.078   2.338
56288W        W28713  20.675  39.516   3.571
56289W        W28714   2.779  43.623   2.589
56290W        W28715  19.816  37.370   0.380
56291W        W28716  33.411  15.764  12.871
56292W        W28717   2.149  40.909  14.945
56293W        W28718  21.163  16.004   0.991
56294W        W28719  26.667  42.799  12.270
56295W        W28720  15.680  11.830   4.082
56296W        W28721   3.523  29.925   2.770
56297W        W28722  12.133  26.119  10.785
56298W        W28723  42.832  44.897  14.900
56299W        W28724  14.109  38.996  14.022
56300W        W28725   4.731  12.293  13.087
56301W        W28726   3.143  43.491  13.911
56302W        W28727  30.100   8.605   1.882
56303W        W28728   5.137  33.395  12.915
56304W        W28729  30.871  21.567   1.759
56305W        W28730  31.653   9.130  11.593
56306W        W28731  23.764  24.457   4.526
56307W        W28732  25.578  37.181   1.495
56308W        W28733  40.905  40.886  12.610
56309W        W28734   1.387  43.034   1.944
56310W        W28735  32.535  26.580   3.842
56311W        W28736  12.220   0.758  13.775
56312W        W28737  24.516   3.383  10.731
56313W        W28738  12.636  39.756   0.734
56314W        W28739  37.972  28.367  14.729
56315W        W28740   2.875  33.041  14.183
56316W        W28741  27.060   1.905  10.778
56317W        W28742  38.395  33.932  13.099
56318W        W28743   7.335  28.654   1.188
56319W        W28744  38.581  27.930   0.789
56320W        W28745   6.384  35.271   3.617
56321W        W28746  40.256  13.530  12.463
56322W        W28747  18.474  27.901   9.687
56323W        W28748  12.341  23.154  13.754
56324W        W28749  20.074  23.100   1.151
56325W        W28750   9.931   2.161  13.900
56326W        W28751   2.632  33.827   3.635
56327W        W28752   2.955  10.387   2.325
56328W        W28753  19.855  29.438  11.124
56329W        W28754  23.326  39.058   3.762
56330W        W28755  39.129   5.587   0.374
56331W        W28756   5.164  33.590   4.647
56332W        W28757  39.849  11.704   2.253
56333W        W28758  12.637  42.824  11.676
56334W        W28759  26.515  12.216   3.229
56335W        W28760  23.217  18.701  10.718
56336W        W28761  32.910  43.009  12.583
56337W        W28762  25.210  22.655   1.735
56338W        W28763  30.173   4.334   2.261
56339W        W28764  16.554  23.546   0.087
56340W        W28765  12.016  12.363   1.579
56341W        W28766  40.618  12.313  14.840
56342W        W28767  32.022   4.825   1.783
56343W        W28768  16.776  23.580  14.377
56344W        W28769  28.944  26.637   0.983
56345W        W28770  10.840   4.090   0.248
56346W        W28771  35.661   8.332  13.324
56347W        W28772  27.982  20.835   0.476
56348W        W28773  13.321   0.952  10.650
56349W        W28774  42.886  30.876   0.037
56350W        W28775   3.759   6.222  13.953
56351W        W28776   0.400  15.076  14.985
56352W        W28777  32.361  15.856  14.281
56353W        W28778  14.739   4.715   3.589
56354W        W28779  27.395  20.213   0.035
56355W        W28780  18.604  28.397   4.251
56356W        W28781   5.745  20.745  12.758
56357W        W28782  40.454  17.303   3.151
56358W        W28783  11.456  23.511  11.902
56359W        W28784  41.934  31.568  14.758
56360W        W28785   7.496  36.314  11.322
56361W        W28786  22.391  40.126   3.279
56362W        W28787  44.885  12.846  13.400
56363W        W28788   0.336  33.031  14.933
56364W        W28789  10.533  30.382  13.474
56365W        W28790  29.392  28.400  12.481
56366W        W28791  11.607  29.147  12.001
56367W        W28792  10.649  33.517  11.594
56368W        W28793   4.982  43.816   2.320
56369W        W28794  39.110  11.300   0.301
56370W        W28795   3.940  18.210  14.752
56371W        W28796  28.693  38.780   5.352
56372W        W28797  12.722  18.119  12.383
56373W        W28798   9.403  35.825  13.469
56374W        W28799   2.998  11.240   2.393
56375W        W28800   5.574  20.035   2.707
56376W        W28801  12.335  44.900   2.845
56377W        W28802  42.541  29.036   1.903
56378W        W28803  41.498  18.820  14.898
56379W        W28804  37.457   6.004   3.215
56380W        W28805  40.844   5.404   0.095
56381W        W28806  11.345  22.003  11.588
56382W        W28807  44.789   8.855   4.611
56383W        W28808  12.744   9.855   1.807
56384W        W28809  16.488  11.390  11.980
56385W        W28810  26.923  19.670   4.421
56386W        W28811  23.633  35.540  10.670
56387W        W28812  12.395  16.481   1.042
56388W        W28813  31.371  35.945  11.863
56389W        W28814   7.989  35.183  10.746
56390W        W28815  16.416  30.828  13.806
56391W        W28816  37.045  38.443   1.625
56392W        W28817  16.869   0.567  12.998
56393W        W28818  38.521  20.080   3.858
56394W        W28819  39.543   3.417  12.494
56395W        W28820  32.046  15.952   3.824
56396W        W28821  10.622  42.754   2.286
56397W        W28822  11.661  33.865   0.216
56398W        W28823   6.244  38.377  10.774
56399W        W28824  37.981  32.198   3.979
56400W        W28825  16.864  15.890   0.730
56401W        W28826  25.960  14.291   3.130
56402W        W28827   5.625  30.089   0.834
56403W        W28828  33.890  44.251   2.485
56404W        W28829   4.714  17.845  14.088
56405W        W28830  27.520   4.749  14.195
56406W        W28831  39.403  44.762  11.540
56407W        W28832  40.278  24.452  14.592
56408W        W28833  42.282  16.974   1.718
56409W        W28834  17.026  13.768  14.349
56410W        W28835  23.592  37.490  11.430
56411W        W28836  25.955   7.834  11.617
56412W        W28837  24.401  32.320   3.896
56413W        W28838  34.125  11.628  11.984
56414W        W28839  30.440  28.629  13.423
56415W        W28840  13.324  21.691   0.837
56416W        W28841  30.602  29.289   3.701
56417W        W28842   9.187  37.347  12.067
56418W        W28843  38.066   2.265  11.214
56419W        W28844  23.066  26.963  10.654
56420W        W28845  40.627   7.628   2.771
56421W        W28846  40.772   0.298  12.883
56422W        W28847  20.044  18.783  13.421
56423W        W28848   7.184   8.576   5.138
56424W        W28849   7.874  41.788  13.079
56425W        W28850  36.114   5.434  12.965
56426W        W28851  33.026  41.558  13.061
56427W        W28852  33.878  15.546   1.088
56428W        W28853  30.170  13.884  11.044
56429W        W28854  11.275  17.286   3.271
56430W        W28855  31.189  31.421  12.339
56431W        W28856  25.618  37.365   3.186
56432W        W28857  14.868  32.060   0.384
56433W        W28858  42.981  40.021  13.016
56434W        W28859  22.485   8.400  13.245
56435W        W28860   6.468  15.396   0.271
56436W        W28861  41.546  30.035   1.621
56437W        W28862  15.274  35.309   2.614
56438W        W28863  32.482  35.098   1.798
56439W        W28864  29.429  44.486   1.674
56440W        W28865  23.714  20.251  11.539
56441W        W28866  31.692  30.006   4.857
56442W        W28867  13.167  35.303  11.479
56443W        W28868  23.496  25.476  10.732
56444W        W28869  32.162  39.224   4.640
56445W        W28870  37.942   1.570   3.228
56446W        W28871  23.633  24.554   2.472
56447W        W28872  10.778  36.372   4.565
56448W        W28873  31.980  16.647   2.147
56449W        W28874  20.067   7.142   2.747
56450W        W28875   9.773   7.369   0.943
56451W        W28876   3.545  14.294  12.016
56452W        W28877  12.368  15.534  11.041
56453W        W28878  15.844  24.233   3.251
56454W        W28879  42.559  18.722   2.786
56455W        W28880  38.519   2.938   0.404
56456W        W28881  28.118  29.111  13.424
56457W        W28882  18.013  37.386   0.269
56458W        W28883  24.665  23.319  12.822
56459W        W28884  14.872  37.006  13.031
56460W        W28885  35.808  11.076  11.095
56461W        W28886  31.898  10.286  11.780
56462W        W28887  12.735  36.035  12.926
56463W        W28888  15.999  41.836  11.077
56464W        W28889  44.293  29.255  12.590
56465W        W28890  39.446  41.887   1.239
56466W        W28891  26.603  19.330  14.708
56467W        W28892  41.817  26.457   2.836
56468W        W28893  21.628  22.358   4.248
56469W        W28894  35.341   1.809   1.805
56470W        W28895  44.373  36.581  10.488
56471W        W28896  44.806   6.835  14.450
56472W        W28897  20.439   5.849   0.979
56473W        W28898  31.899  38.394   0.334
56474W        W28899  20.245  34.112   1.868
56475W        W28900  34.131   3.775  13.368
56476W        W28901   4.056  19.497   1.214
56477W        W28902  14.421  34.532  11.081
56478W        W28903  31.161  33.006  14.126
56479W        W28904   7.189  33.209   4.833
56480W        W28905  39.022  24.035   3.023
56481W        W28906  29.095  35.830  14.760
56482W        W28907  41.572  41.538  14.979
56483W        W28908  21.060  21.275   2.148
56484W        W28909  24.505  41.088   0.757
56485W        W28910   4.070  26.903  14.803
56486W        W28911  38.302  28.726   3.621
56487W        W28912  22.441  14.055  12.999
56488W        W28913   3.816   6.650   3.270
56489W        W28914  35.590   1.816   3.068
56490W        W28915  24.504  43.328   4.648
56491W        W28916   4.806  40.439   0.207
56492W        W28917   8.040  36.249  12.830
56493W        W28918  42.545  30.536   0.285
56494W        W28919  13.121  39.550  11.918
56495W        W28920  29.464  11.851  13.950
56496W        W28921   5.417  18.651   1.912
56497W        W28922  40.476  42.700   4.155
56498W        W28923  17.386  26.235   1.900
56499W        W28924   7.496   8.771  11.473
56500W        W28925  34.077  16.784   4.314
56501W        W28926  23.000  21.122  14.871
56502W        W28927  32.203  42.792  13.397
56503W        W28928  21.705  24.723   0.543
56504W        W28929   1.463  22.926  14.043
56505W        W28930  22.716  39.153   4.589
56506W        W28931   3.154  27.468   3.829
56507W        W28932   8.257  17.930   1.501
56508W        W28933  22.898  16.060  11.878
56509W        W28934  12.369  25.736   2.098
56510W        W28935  34.106  13.895  12.984
56511W        W28936  21.652  43.448   3.677
56512W        W28937   2.255  39.676  10.247
56513W        W28938  15.921  28.641  10.687
56514W        W28939  40.907  20.580   4.962
56515W        W28940  14.115   5.021   1.978
56516W        W28941   4.956  30.993  14.334
56517W        W28942   9.780   9.598  14.433
56518W        W28943  21.699  13.521   4.155
56519W        W28944  37.451  24.630   3.117
56520W        W28945  40.702   9.455   4.531
56521W        W28946  36.491  40.206   4.684
56522W        W28947   1.145  22.708   0.017
56523W        W28948  17.953  38.053  12.551
56524W        W28949  41.329  25.712   3.139
56525W        W28950  20.564  16.170   0.037
56526W        W28951   9.658  23.263   3.793
56527W        W28952   8.044  12.267  10.710
56528W        W28953  19.234   5.659  12.125
56529W        W28954  19.640  30.357   3.249
56530W        W28955  39.757  33.898  10.430
56531W        W28956  23.927   8.667  13.530
56532W        W28957  22.154  21.265  13.390
56533W        W28958  38.342  38.261   1.798
56534W        W28959   1.427  34.709   3.858
56535W        W28960  26.749   2.502  11.937
56536W        W28961   3.998   2.974   1.346
56537W        W28962  39.967  41.725   2.242
56538W        W28963  41.099  44.760  10.534
56539W        W28964  12.189  17.735  14.688
56540W        W28965  18.022  44.446  11.964
56541W        W28966  33.318  21.155  11.532
56542W        W28967  42.281   8.719  13.505
56543W        W28968  33.999  13.650   1.417
56544W        W28969  31.950   4.775  13.996
56545W        W28970  44.282  34.050  12.202
56546W        W28971  39.529  16.670   3.671
56547W        W28972  30.595   3.540   2.451
56548W        W28973  29.059  37.276  14.430
56549W        W28974  21.614  27.832   0.684
56550W        W28975   7.217  33.737   4.787
56551W        W28976  21.771  25.541  13.954
56552W        W28977  10.528   0.853  14.533
56553W        W28978  32.854  18.313  13.997
56554W        W28979  41.836   5.428   2.856
56555W        W28980  25.666  23.987   4.824
56556W        W28981   6.797   2.140   1.379
56557W        W28982   7.282   1.238   2.347
56558W        W28983   8.770   8.586   3.596
56559W        W28984  16.364   1.293  11.916
56560W        W28985  41.621   6.847   1.876
56561W        W28986  32.324  21.187  11.505
56562W        W28987  18.215   9.643   4.521
56563W        W28988  11.146  19.686  13.180
56564W        W28989  29.020  43.608   1.837
56565W        W28990  19.685  36.966  11.131
56566W        W28991   2.339  34.037  13.560
56567W        W28992  19.689   0.635   3.618
56568W        W28993  16.789  37.020   0.761
56569W        W28994  29.699  14.576   3.704
56570W        W28995   9.426  34.001  11.849
56571W        W28996  42.796  25.629   4.120
56572W        W28997  20.335  28.639  14.102
56573W        W28998  36.477  43.626   1.545
56574W        W28999  36.609  38.036   2.691
56575W        W29000  39.888  16.145   2.304
56576W        W29001  39.489  11.789   4.144
56577W        W29002  39.460  43.378   0.075
56578W        W29003  44.973   5.011   3.685
56579W        W29004  22.490  13.271   0.236
56580W        W29005  31.890   7.130   1.118
56581W        W29006   7.455  16.206  12.135
56582W        W29007  33.385  43.239  13.762
56583W        W29008  16.046  31.382   5.413
56584W        W29009  29.137  42.856   1.259
56585W        W29010  41.809  16.123   1.151
56586W        W29011  39.728  15.829  12.393
56587W        W29012  21.076  25.585   4.134
56588W        W29013  28.242   5.073   5.061
56589W        W29014  11.468  15.592  13.068
56590W        W29015  10.413  22.114  10.640
56591W        W29016  19.710   1.499  14.869
56592W        W29017  18.440   4.676   4.917
56593W        W29018  43.832  25.637  14.506
56594W        W29019  39.420   2.102  13.790
56595W        W29020  43.425  33.851   9.933
56596W        W29021  41.336  24.712   2.209
56597W        W29022  18.497  18.711  13.351
56598W        W29023   7.199   1.349   4.674
56599W        W29024  44.999  26.910   0.197
56600W        W29025  19.387  19.228   2.070
56601W        W29026  26.018  16.096   2.663
56602W        W29027   6.576  19.545   4.371
56603W        W29028  34.127   5.265  12.006
56604W        W29029  27.280  43.863  13.033
56605W        W29030  10.885  25.642  10.909
56606W        W29031  40.194  26.418  13.109
56607W        W29032  23.839  28.566   2.659
56608W        W29033  44.901  27.257   1.746
56609W        W29034  17.222   0.541   2.611
56610W        W29035  27.470  44.328  12.907
56611W        W29036  33.573  31.186   0.012
56612W        W29037   8.857   0.231  12.979
56613W        W29038  36.360   4.814  14.329
56614W        W29039  21.739  35.887   1.796
56615W        W29040  40.426  22.020   1.413
56616W        W29041  25.983   6.262   2.402
56617W        W29042  13.324  32.458   2.415
56618W        W29043  11.155  25.835  13.047
56619W        W29044  20.725   4.789  12.581
56620W        W29045  20.987  13.705  10.714
56621W        W29046  30.175  37.734  14.703
56622W        W29047   0.204  14.883   3.178
56623W        W29048  40.040  27.965  13.850
56624W        W29049   4.413  23.218  11.532
56625W        W29050  23.815  24.243  12.530
56626W        W29051  21.380  15.884  11.507
56627W        W29052  42.142   5.410  13.313
56628W        W29053  33.383  44.932   3.183
56629W        W29054  32.332   3.343   2.363
56630W        W29055  25.169  22.559  11.552
56631W        W29056   4.678  14.275   1.875
56632W        W29057  22.013   8.334  14.880
56633W        W29058  22.269  34.567   0.728
56634W        W29059  10.187  15.818   3.176
56635W        W29060  19.280  19.945   4.737
56636W        W29061  18.185   3.157   3.151
56637W        W29062  32.515  44.647  14.420
56638W        W29063   6.645   6.971   1.465
56639W        W29064  25.455  20.602   3.620
56640W        W29065  43.453   1.185  11.129
56641W        W29066  23.042  25.578   4.486
56642W        W29067  14.006  40.462   4.661
56643W        W29068  29.598  37.852   3.546
56644W        W29069  10.846   4.399  14.820
56645W        W29070   2.347  39.301  13.642
56646W        W29071  16.735  43.082  11.101
56647W        W29072   6.748  29.577  10.991
56648W        W29073  42.269   1.252  14.442
56649W        W29074   6.644   2.435   1.871
56650W        W29075  38.597   8.870  14.811
56651W        W29076  36.341  14.389   3.868
56652W        W29077  40.821  31.114   1.057
56653W        W29078  15.444  12.927  13.981
56654W        W29079  40.018  44.093   0.304
56655W        W29080  28.118  21.883   9.957
56656W        W29081  35.874  18.724  12.885
56657W        W29082   5.796  37.818   3.708
56658W        W29083   3.695   4.110  12.395
56659W        W29084  25.726   0.874   2.343
56660W        W29085  32.694  17.969  11.431
56661W        W29086  20.604  37.092  14.344
56662W        W29087  16.145  10.007   1.788
56663W        W29088   6.258   5.101   3.769
56664W        W29089  42.274  32.577  13.089
56665W        W29090  33.446  43.208  10.383
56666W        W29091  44.320  29.493   1.404
56667W        W29092   7.799   7.412   2.858
56668W        W29093  31.085  21.592  10.601
56669W        W29094  30.008  38.068  13.769
56670W        W29095  15.811  40.819   4.106
56671W        W29096  18.203  29.693   1.365
56672W        W29097  12.154  24.494   3.764
56673W        W29098  30.205  23.502  12.117
56674W        W29099  15.958  31.566  11.274
56675W        W29100  11.603   6.969  14.520
56676W        W29101   1.804  10.929  13.850
56677W        W29102  15.207  13.767  13.667
56678W        W29103  12.827  34.984   1.905
56679W        W29104   3.714  42.842   4.335
56680W        W29105  11.330  28.782   2.188
56681W        W29106   4.268  38.103   2.188
56682W        W29107  20.625   0.191   0.289
56683W        W29108  29.173  14.753   2.294
56684W        W29109  30.899  37.076   3.072
56685W        W29110  18.619   5.524   1.013
56686W        W29111  28.159  36.833  14.903
56687W        W29112  14.470   6.165   4.565
56688W        W29113  11.922  16.435  13.483
56689W        W29114  12.126  11.170   4.204
56690W        W29115  14.243   4.515  13.878
56691W        W29116  31.372  39.911  14.044
56692W        W29117  41.641  14.234   4.560
56693W        W29118  30.724  29.505  12.784
56694W        W29119  37.989  38.965  14.801
56695W        W29120   3.481   1.472   1.210
56696W        W29121   7.458  13.278  14.424
56697W        W29122  34.574   0.039   2.304
56698W        W29123   1.461   0.929  10.998
56699W        W29124  26.464  37.528  14.332
56700W        W29125  12.904   0.261   3.626
56701W        W29126   7.375  22.706   3.381
56702W        W29127  31.584   0.910   2.707
56703W        W29128  33.178   4.927   1.103
56704W        W29129  24.723  38.525   4.076
56705W        W29130   9.328   0.020  13.098
56706W        W29131  13.324   2.426   3.414
56707W        W29132  25.909  33.682   3.699
56708W        W29133   6.841  22.123   2.706
56709W        W29134  19.796   0.501  10.998
56710W        W29135  34.019  34.534  10.620
56711W        W29136  20.743   1.068  14.339
56712W        W29137   1.020  38.085   3.692
56713W        W29138  27.828  35.808   2.159
56714W        W29139  18.798   3.366   4.403
56715W        W29140  36.530  28.817  13.841
56716W        W29141  24.626  37.181  13.578
56717W        W29142  32.962  19.768   2.706
56718W        W29143   2.742  10.643   3.636
56719W        W29144  20.153  13.744  13.993
56720W        W29145  23.091   7.353  12.398
56721W        W29146  28.462  42.778  10.517
56722W        W29147  18.851  42.157   3.227
56723W        W29148  12.606  39.407  11.180
56724W        W29149  21.582  16.174  12.366
56725W        W29150  18.745  31.546   1.385
56726W        W29151  30.866  10.761  13.161
56727W        W29152  30.153  33.485   3.164
56728W        W29153   6.004  35.137   0.782
56729W        W29154  39.342  17.794   2.241
56730W        W29155  27.438  27.606  14.316
56731W        W29156  19.968  32.075   1.831
56732W        W29157  40.376   1.250   0.360
56733W        W29158  43.309  38.527  12.969
56734W        W29159   7.029  36.028  12.131
56735W        W29160   1.920  35.105  10.463
56736W        W29161  38.645  29.152   0.860
56737W        W29162  16.709   4.432  11.903
56738W        W29163  23.486  29.499   1.810
56739W        W29164  17.118  22.949   5.038
56740W        W29165   9.222  16.410  11.191
56741W        W29166  25.720   9.205   4.219
56742W        W29167  19.840  19.753   0.344
56743W        W29168  33.622  39.910  12.546
56744W        W29169  34.295  30.898   2.806
56745W        W29170  25.732  27.635   4.825
56746W        W29171  39.299  23.232  12.346
56747W        W29172  17.052   7.466   3.555
56748W        W29173  35.512  33.909   0.783
56749W        W29174  36.366   7.341  12.544
56750W        W29175  33.246   3.818   4.655
56751W        W29176   7.984  43.345  12.257
56752W        W29177  34.339  15.247   2.639
56753W        W29178  21.800   7.754  14.056
56754W        W29179   4.148  10.702   2.780
56755W        W29180  16.837  34.411   4.035
56756W        W29181  12.206  26.791  11.972
56757W        W29182  23.341  29.282   4.256
56758W        W29183  19.044  18.608  12.060
56759W        W29184  44.457  25.149  12.467
56760W        W29185  34.928  28.133  11.167
56761W        W29186  31.648  19.932  14.704
56762W        W29187  19.083  42.901  12.352
56763W        W29188  39.095  10.748   3.705
56764W        W29189  44.878  10.612   2.274
56765W        W29190  22.258  35.000   3.763
56766W        W29191  18.293  34.503  13.745
56767W        W29192  28.479  29.978  13.838
56768W        W29193  31.142   8.529  11.124
56769W        W29194  33.490  34.713  13.812
56770W        W29195  34.644  26.373   4.952
56771W        W29196  41.925  28.292   4.214
56772W        W29197  10.320  25.179  12.177
56773W        W29198  34.182  19.090   1.776
56774W        W29199  12.100   6.899   3.727
56775W        W29200  14.865  40.772   0.286
56776W        W29201  18.342  19.762   3.325
56777W        W29202   1.982  32.602   2.205
56778W        W29203  23.753  27.004   0.975
56779W        W29204  26.529  27.068   3.604
56780W        W29205  23.852  39.289   2.757
56781W        W29206  24.953  36.295  14.841
56782W        W29207  28.675  39.570   3.668
56783W        W29208  18.573  38.845  11.536
56784W        W29209  13.994  43.975   4.880
56785W        W29210   8.549  12.822   4.052
56786W        W29211   3.144  18.171   2.691
56787W        W29212  29.246  35.781   2.231
56788W        W29213  13.823  37.513   0.878
56789W        W29214  40.495  31.947   1.618
56790W        W29215  33.993  22.742  13.523
56791W        W29216  36.950  26.263  12.943
56792W        W29217   7.031  18.041   1.019
56793W        W29218  11.552  34.953   0.000
56794W        W29219  23.325   6.759   1.800
56795W        W29220  16.931   1.855  12.827
56796W        W29221  17.602  44.389  13.470
56797W        W29222  43.723  22.533  11.883
56798W        W29223  42.993  32.448  14.198
56799W        W29224  40.520  31.432   3.920
56800W        W29225  15.293  28.836  12.570
56801W        W29226  28.565   0.285  14.916
56802W        W29227  24.498  33.685   2.154
56803W        W29228   8.459  37.003  12.408
56804W        W29229  18.587  38.530   0.929
56805W        W29230   5.492  39.390  14.860
56806W        W29231  24.211  24.681   0.419
56807W        W29232  42.843  12.316  12.126
56808W        W29233  11.171   4.767   1.820
56809W        W29234  42.405  27.747   3.678
56810W        W29235   4.782  22.949   0.144
56811W        W29236  35.537  41.957  13.476
56812W        W29237  25.739  34.659   3.623
56813W        W29238   6.943  14.900  12.933
56814W        W29239  26.850  18.144   1.806
56815W        W29240  26.294  44.902  13.429
56816W        W29241  40.414  35.474   3.824
56817W        W29242  30.838  14.537   4.771
56818W        W29243  28.616  25.432  11.488
56819W        W29244  24.610  13.626   0.056
56820W        W29245   2.845  43.301  13.492
56821W        W29246  16.927  33.475  14.353
56822W        W29247  32.330   3.953  14.348
56823W        W29248  44.734  17.524   3.265
56824W        W29249  18.990  42.634  14.739
56825W        W29250  19.134  39.311  10.223
56826W        W29251  14.762  28.621   1.817
56827W        W29252  26.953  21.193  10.946
56828W        W29253  39.361  13.852  14.055
56829W        W29254  21.171   6.938   0.803
56830W        W29255   4.372   6.657   0.485
56831W        W29256  17.531  37.027  13.980
56832W        W29257  31.510  18.595   2.198
56833W        W29258   3.228  26.033   1.307
56834W        W29259  24.526  18.670   2.938
56835W        W29260  19.928  29.558   4.627
56836W        W29261   0.764  40.944  13.477
56837W        W29262  20.040  20.988  14.433
56838W        W29263  21.222  21.759  12.122
56839W        W29264  30.768  21.551   2.778
56840W        W29265  27.825  32.473  11.090
56841W        W29266  44.007  27.198  13.483
56842W        W29267  13.690  42.007   1.237
56843W        W29268  34.926  15.495  11.120
56844W        W29269  16.259  31.444   0.938
56845W        W29270  14.322  34.496  13.873
56846W        W29271  15.557   2.524  11.974
56847W        W29272   0.230  12.676  12.555
56848W        W29273  36.697  14.325   1.320
56849W        W29274  39.433  14.567   0.829
56850W        W29275   0.967  10.877   0.203
56851W        W29276  15.309  38.359  13.388
56852W        W29277  25.669   4.642   2.257
56853W        W29278  32.397  35.905  10.441
56854W        W29279   0.954  22.564   3.962
56855W        W29280  23.135  18.756   3.320
56856W        W29281   3.408   1.736   2.484
56857W        W29282  44.831  16.470   2.385
56858W        W29283  42.090  26.063   2.683
56859W        W29284   7.703  33.644   0.973
56860W        W29285   0.405   5.369   4.204
56861W        W29286  23.748  36.201   2.637
56862W        W29287   0.945  41.320   3.117
56863W        W29288  39.815  41.015  13.942
56864W        W29289   0.590   2.341  11.854
56865W        W29290  43.485  20.633  10.856
56866W        W29291  44.787  34.476  14.551
56867W        W29292  15.814  33.556   3.926
56868W        W29293   4.052  42.837  10.668
56869W        W29294  11.059  28.960   4.170
56870W        W29295  25.116   2.821   2.118
56871W        W29296  20.765   8.825   2.927
56872W        W29297   7.973  15.319   1.451
56873W        W29298   4.872   4.867   0.746
56874W        W29299  19.028  43.068  12.832
56875W        W29300   1.388   7.380   2.697
56876W        W29301  24.179  34.504   2.204
56877W        W29302  22.787  19.510   3.727
56878W        W29303   3.775  22.135  10.285
56879W        W29304  23.498  11.911  10.040
56880W        W29305  37.959  27.355   3.611
56881W        W29306  39.731  25.976   3.657
56882W        W29307  39.005  10.156  12.376
56883W        W29308  37.067  13.896  14.544
56884W        W29309  44.098  33.179   1.921
56885W        W29310  14.269  19.000  13.417
56886W        W29311  40.797  43.165  14.520
56887W        W29312  35.885   2.365   3.187
56888W        W29313   0.396  18.114   4.942
56889W        W29314   6.640  41.560  14.342
56890W        W29315  16.098   0.929  12.881
56891W        W29316  37.790   7.335  12.440
56892W        W29317  17.888  18.259  11.560
56893W        W29318  22.130  29.228   3.319
56894W        W29319  32.384  31.169  12.157
56895W        W29320  27.275   0.892   2.357
56896W        W29321  23.131   2.883  11.940
56897W        W29322  24.568   5.009   3.172
56898W        W29323  35.147  19.590   1.886
56899W        W29324   9.415   9.659  13.000
56900W        W29325  29.063  32.863  10.777
56901W        W29326  11.896   2.063  11.726
56902W        W29327  21.186   3.664   2.691
56903W        W29328   0.966  14.042   4.651
56904W        W29329  22.077  38.060  14.976
56905W        W29330  28.854   6.894  11.496
56906W        W29331  31.923  11.197  13.520
56907W        W29332  13.288  23.613   4.732
56908W        W29333  28.235  26.589   3.568
56909W        W29334  20.747   7.716   2.292
56910W        W29335  12.852  32.524  12.401
56911W        W29336  10.084  16.349   3.259
56912W        W29337   5.245  32.109   1.454
56913W        W29338  14.441  29.647  14.823
56914W        W29339   4.534  36.358   1.196
56915W        W29340  15.829  16.844  14.434
56916W        W29341  41.348  35.475  12.736
56917W        W29342  26.221  15.731  12.963
56918W        W29343  22.442  44.398   4.607
56919W        W29344  36.054   0.917  10.632
56920W        W29345  32.876  18.879   4.454
56921W        W29346  25.986   2.843   0.799
56922W        W29347  42.641  10.081  11.973
56923W        W29348  14.269  36.383   1.067
56924W        W29349  18.204  34.160   1.499
56925W        W29350  34.688  24.746  12.053
56926W        W29351  40.132   2.239   2.721
56927W        W29352  41.697  10.297   1.447
56928W        W29353  29.482  25.945   0.802
56929W        W29354  39.758  41.833  12.696
56930W        W29355   3.352  18.810   2.033
56931W        W29356  22.738   1.897  14.393
56932W        W29357  20.443  12.863   1.157
56933W        W29358  32.310  22.151   0.416
56934W        W29359  19.785  41.022   0.894
56935W        W29360  35.937  31.604   0.556
56936W        W29361  44.783  39.053   3.381
56937W        W29362   3.865   5.547   1.691
56938W        W29363  43.433  22.820   1.738
56939W        W29364  22.605   8.379  10.768
56940W        W29365  12.378  44.408  11.878
56941W        W29366  14.741   9.394   2.888
56942W        W29367  28.420  30.993   4.307
56943W        W29368  22.444  18.608  11.119
56944W        W29369  15.780   8.338  11.083
56945W        W29370  23.669  19.929  12.967
56946W        W29371  13.315  14.804   0.059
56947W        W29372   0.297   5.738  11.761
56948W        W29373   8.151  31.466  12.571
56949W        W29374  14.236  30.277   1.361
56950W        W29375  33.923  25.122  12.406
56951W        W29376  33.616  35.158  13.579
56952W        W29377  33.170  40.779   0.868
56953W        W29378  23.318  22.126   3.120
56954W        W29379  11.720   2.391  12.125
56955W        W29380  36.321  18.895  14.442
56956W        W29381   7.792  29.395   0.692
56957W        W29382  33.966  18.717  13.091
56958W        W29383  10.663  33.486   3.107
56959W        W29384  34.017  28.476   1.609
56960W        W29385   1.955   4.253   4.592
56961W        W29386  35.738   8.449   0.449
56962W        W29387   4.863   0.958  13.871
56963W        W29388  30.398  42.495   4.299
56964W        W29389  18.783  28.447   3.779
56965W        W29390  37.101  42.279  11.989
56966W        W29391   1.797  21.113   3.655
56967W        W29392  17.307  39.806   4.431
56968W        W29393  20.227  30.463  13.896
56969W        W29394  34.135  31.909  10.705
56970W        W29395  25.656  38.474  10.706
56971W        W29396  16.695   0.205  11.671
56972W        W29397   5.363  16.567  11.650
56973W        W29398   8.689  30.487   3.690
56974W        W29399   8.909  31.445   2.200
56975W        W29400  43.244  24.482   1.853
56976W        W29401  16.658  30.146  14.387
56977W        W29402  11.823  29.121   1.330
56978W        W29403  20.593  24.360  14.521
56979W        W29404  28.673   4.398   4.059
56980W        W29405  44.405   6.181   4.122
56981W        W29406  30.445  26.267   0.392
56982W        W29407  22.559  17.003   0.704
56983W        W29408   1.170  15.248  12.806
56984W        W29409   1.294  10.175   3.302
56985W        W29410  26.518  21.003  11.584
56986W        W29411  35.471  21.088   3.858
56987W        W29412  36.420   3.338  14.406
56988W        W29413  12.871  24.489   3.383
56989W        W29414   9.299  28.126   1.301
56990W        W29415  14.716  16.361   0.820
56991W        W29416  29.556  24.050   4.060
56992W        W29417  22.511  11.121   4.717
56993W        W29418  22.541   6.915   0.417
56994W        W29419  44.726  38.544  13.049
56995W        W29420  36.133  10.950  14.362
56996W        W29421  43.790  17.317   1.740
56997W        W29422  38.371  25.657   3.246
56998W        W29423   6.490  10.146  12.301
56999W        W29424   6.395  29.989   2.628
57000W        W29425  44.262   2.377  13.302
57001W        W29426  43.921   8.153   5.009
57002W        W29427   4.512  20.759  10.997
57003W        W29428  32.992   3.325   3.425
57004W        W29429   4.812  27.482  11.632
57005W        W29430  20.640  19.848  12.505
57006W        W29431  41.787  12.353  12.980
57007W        W29432   1.208  11.098  11.420
57008W        W29433  26.747  30.526   3.196
57009W        W29434  28.184   4.463  13.801
57010W        W29435  29.449  44.024   5.107
57011W        W29436  18.725   7.275  12.693
57012W        W29437  22.621   9.223   9.782
57013W        W29438   3.990  12.270   3.790
57014W        W29439  16.009   4.926   2.699
57015W        W29440  10.234  15.295  12.890
57016W        W29441  21.224  34.066   2.771
57017W        W29442  37.867  37.337   4.184
57018W        W29443  22.047  32.967  12.074
57019W        W29444  22.280  18.088  12.375
57020W        W29445  44.752  15.649   1.845
57021W        W29446   8.506  34.937  14.745
57022W        W29447  27.029   2.007  11.989
57023W        W29448  32.127   1.215   4.367
57024W        W29449  24.056  42.290   1.297
57025W        W29450  41.521  14.468   4.062
57026W        W29451  41.370  43.533   3.205
57027W        W29452  42.244  10.215   1.804
57028W        W29453   6.198  38.526   3.370
57029W        W29454   3.956  16.818  14.881
57030W        W29455  12.464  34.093   0.538
57031W        W29456  37.986  29.255  12.230
57032W        W29457  31.178  13.048   4.893
57033W        W29458  37.722  34.832  13.866
57034W        W29459   9.753  38.982   1.785
57035W        W29460  33.166  22.680   2.846
57036W        W29461  37.977   2.531   2.240
57037W        W29462  38.136  21.008  11.425
57038W        W29463  31.939  20.265   2.426
57039W        W29464   5.401   0.658  11.602
57040W        W29465  42.578  33.874   4.630
57041W        W29466   9.316   4.271  12.991
57042W        W29467   9.047   0.230   2.906
57043W        W29468  35.138  24.678   3.742
57044W        W29469   5.350  33.675  10.737
57045W        W29470  23.794  43.957  14.402
57046W        W29471  29.974  33.363   1.682
57047W        W29472  29.445  27.939   4.151
57048W        W29473  14.658   0.484  14.517
57049W        W29474  22.604  29.083  14.033
57050W        W29475   4.200  19.839  12.401
57051W        W29476  13.911   3.956   2.737
57052W        W29477  25.764  28.409  12.109
57053W        W29478   7.847  27.741  12.925
57054W        W29479  13.360   6.877  13.587
57055W        W29480  13.409  18.636  14.446
57056W        W29481  26.893  22.787  12.026
57057W        W29482  16.116  29.564   4.837
57058W        W29483   7.282  24.954  11.773
57059W        W29484  20.642  23.285   1.734
57060W        W29485  42.034   1.370   1.229
57061W        W29486  26.500  10.676   2.326
57062W        W29487   4.053  39.834  11.935
57063W        W29488  30.012  21.815   2.798
57064W        W29489   4.321  42.998  11.634
57065W        W29490   2.596  43.372   4.739
57066W        W29491  16.186  29.419  14.462
57067W        W29492  40.004   1.074   0.700
57068W        W29493   8.274  39.053   1.751
57069W        W29494  23.222  16.297   0.817
57070W        W29495  27.173  33.135   3.838
57071W        W29496  44.487   2.415   4.204
57072W        W29497  29.840  12.710   3.221
57073W        W29498   0.983  14.075  13.448
57074W        W29499   3.801   1.419  13.311
57075W        W29500  21.155  31.586  14.415
57076W        W29501  35.138  42.640  11.480
57077W        W29502   4.506   6.183  12.581
57078W        W29503   6.412  41.355  11.117
57079W        W29504   9.342  44.690   1.887
57080W        W29505  36.829  14.633   4.191
57081W        W29506  21.335   1.878   4.268
57082W        W29507  21.689   5.366   2.200
57083W        W29508   6.848   1.201   3.184
57084W        W29509   3.003  39.382  10.708
57085W        W29510   8.159  41.267  13.435
57086W        W29511  18.012  26.477  12.845
57087W        W29512  12.612  32.700   1.053
57088W        W29513  24.381  26.103   4.388
57089W        W29514  34.012  31.948  12.041
57090W        W29515  20.200  18.068   5.013
57091W        W29516  11.972  36.103  11.051
57092W        W29517  25.056  17.561  11.900
57093W        W29518  26.361  30.598  12.504
57094W        W29519  17.672  38.916  12.889
57095W        W29520  19.196  34.387  11.615
57096W        W29521  29.101   2.516   2.569
57097W        W29522  16.612  23.984  12.111
57098W        W29523  12.751   5.580  12.571
57099W        W29524  37.602  34.887  12.320
57100W        W29525  39.626   1.763  14.469
57101W        W29526  30.588  12.243  14.811
57102W        W29527  36.034  39.072  14.090
57103W        W29528  14.459  38.981  13.153
57104W        W29529   8.212  37.870   3.131
57105W        W29530  23.594   2.767  12.137
57106W        W29531  22.766   5.255   4.800
57107W        W29532  44.314  20.300   2.772
57108W        W29533  35.109  31.952   3.541
57109W        W29534  17.472  38.492  11.867
57110W        W29535  41.660   1.485   4.451
57111W        W29536  12.993  21.014  13.413
57112W        W29537  32.461  21.807   3.120
57113W        W29538  15.402  23.434   3.333
57114W        W29539  19.034  23.147   3.394
57115W        W29540   8.222  21.475  11.396
57116W        W29541  24.908   5.182   2.328
57117W        W29542  11.551  33.608  14.412
57118W        W29543  22.785   3.470   3.251
57119W        W29544  43.517   7.272  14.850
57120W        W29545   8.327  15.525  12.872
57121W        W29546   0.772  34.249   2.267
57122W        W29547  28.862  21.092  10.969
57123W        W29548   9.057  41.414   0.867
57124W        W29549  35.720  17.796   4.206
57125W        W29550   3.804  41.030  12.526
57126W        W29551  33.963   3.730  13.835
57127W        W29552  35.086  38.533   0.914
57128W        W29553   8.785  22.437   3.855
57129W        W29554  24.254   5.718  11.599
57130W        W29555  17.559  43.928  12.546
57131W        W29556   0.303  28.100  12.044
57132W        W29557  40.693  30.820  14.309
57133W        W29558  38.350  30.998  12.938
57134W        W29559  38.089  26.237  12.919
57135W        W29560  17.608  36.426  14.829
57136W        W29561  31.940  37.415   4.553
57137W        W29562  38.293  43.920   0.481
57138W        W29563  12.387  19.835   0.329
57139W        W29564  37.861  37.316   3.315
57140W        W29565  28.322  31.880  12.481
57141W        W29566  26.043  33.994   2.317
57142W        W29567  28.143  28.224  13.432
57143W        W29568  21.258  43.807  10.629
57144W        W29569   0.805  36.988  10.734
57145W        W29570  32.043  41.256   3.617
57146W        W29571   5.138   2.237   1.819
57147W        W29572  30.839  29.445  14.307
57148W        W29573  21.160  33.070  12.606
57149W        W29574  44.953  26.139   1.721
57150W        W29575  12.518  39.190   3.721
57151W        W29576  38.821  12.684   0.759
57152W        W29577  32.855   7.895  14.602
57153W        W29578  29.300   4.074  12.483
57154W        W29579  41.298  44.925  14.980
57155W        W29580  42.910  44.673   2.142
57156W        W29581  37.520   4.224   4.674
57157W        W29582  38.135  42.774   3.925
57158W        W29583  36.745  42.657   9.645
57159W        W29584  16.782   8.796   2.255
57160W        W29585  13.712  11.603   0.009
57161W        W29586  39.827  14.185   0.824
57162W        W29587   2.020   3.880  13.468
57163W        W29588  16.856  35.998  11.534
57164W        W29589  25.663  33.654   1.115
57165W        W29590  22.581  34.035  12.991
57166W        W29591   5.851  31.705  13.142
57167W        W29592  23.302   5.026   1.678
57168W        W29593  44.556   3.303  13.835
57169W        W29594  23.245  17.905  12.886
57170W        W29595  30.258  10.844   2.565
57171W        W29596  37.956   0.015   3.290
57172W        W29597  11.851   9.845  14.700
57173W        W29598  35.708  37.072  11.801
57174W        W29599  22.496  41.046  13.629
57175W        W29600   5.005  25.982   1.710
57176W        W29601  44.351  13.420   3.766
57177W        W29602  35.949  16.238   3.492
57178W        W29603  23.713   0.992  11.930
57179W        W29604  25.687   4.399   1.276
57180W        W29605   2.782  27.116  13.605
57181W        W29606   8.872   2.762   3.328
57182W        W29607  20.620  22.445   2.805
57183W        W29608  23.837  25.657  12.429
57184W        W29609   0.971   5.415  11.709
57185W        W29610   0.940  13.755  13.855
57186W        W29611  39.942  23.195   2.440
57187W        W29612   1.543  40.925  14.293
57188W        W29613  34.407  35.049  12.595
57189W        W29614  28.939  17.288  13.604
57190W        W29615  42.065   4.808  11.211
57191W        W29616  36.260  18.120   1.290
57192W        W29617  41.059   8.252  12.666
57193W        W29618  30.876  14.257   2.223
57194W        W29619  14.710  28.735  11.086
57195W        W29620   4.478  21.065  14.376
57196W        W29621   8.270   1.483  14.824
57197W        W29622  16.565  25.231  14.846
57198W        W29623   7.263   4.859  11.653
57199W        W29624  32.365  42.571  13.836
57200W        W29625  30.218   2.124  10.956
57201W        W29626  24.962   3.728   2.316
57202W        W29627  31.595   9.162   2.297
57203W        W29628   1.660  40.517  13.960
57204W        W29629   1.720  28.507  13.514
57205W        W29630  40.811  10.802   1.983
57206W        W29631   1.326  34.894  12.062
57207W        W29632  25.982  17.281  11.433
57208W        W29633   6.281  24.155  12.068
57209W        W29634  26.528  27.489   3.301
57210W        W29635   2.544  13.279  12.200
57211W        W29636   4.849  32.893   4.720
57212W        W29637   1.717  11.662   2.307
57213W        W29638  20.924   2.894   2.270
57214W        W29639   8.504  14.375   2.151
57215W        W29640   9.987  30.436   4.107
57216W        W29641  23.497  24.922   2.812
57217W        W29642  18.758  25.847   0.343
57218W        W29643  38.267  40.990   1.807
57219W        W29644  39.030   7.139   0.938
57220W        W29645  10.158  28.397  13.927
57221W        W29646  41.074  39.775  11.203
57222W        W29647   2.169  37.466  14.890
57223W        W29648  32.646  13.760  11.036
57224W        W29649  35.796  33.152  11.559
57225W        W29650  41.882  44.850   2.357
57226W        W29651  37.671  33.498   0.094
57227W        W29652  33.634  31.466  14.303
57228W        W29653  33.200  17.213   4.818
57229W        W29654   9.326  28.000  14.399
57230W        W29655  34.305  11.817   3.404
57231W        W29656  29.007  30.195   3.220
57232W        W29657   9.270  19.053  14.968
57233W        W29658  30.859  10.864  10.436
57234W        W29659  19.730   9.343   2.775
57235W        W29660  19.587  27.909  11.274
57236W        W29661  16.512  33.371   0.668
57237W        W29662  13.840  42.361   4.898
57238W        W29663  13.640  29.061  14.359
57239W        W29664  30.580  17.075  11.630
57240W        W29665  33.646  22.310  11.018
57241W        W29666  36.560  27.198   2.726
57242W        W29667   6.835  12.648  10.826
57243W        W29668  40.635  42.368   4.568
57244W        W29669  13.269   3.490   3.299
57245W        W29670  11.682  22.394   0.778
57246W        W29671  39.628  13.880   1.251
57247W        W29672  12.821  25.115  13.283
57248W        W29673  39.780  26.339   0.027
57249W        W29674  43.123   3.328  12.107
57250W        W29675  30.525   5.162   1.791
57251W        W29676  14.218  15.152  13.530
57252W        W29677  37.734  42.446  14.784
57253W        W29678  30.539  30.961   2.689
57254W        W29679   8.749  33.130  10.943
57255W        W29680  35.992  27.672   3.449
57256W        W29681  23.167  32.291  10.689
57257W        W29682  44.873   4.225   4.662
57258W        W29683  12.888   4.914   2.377
57259W        W29684   9.073  22.800   4.055
57260W        W29685  32.104  23.810  11.981
57261W        W29686  42.833  31.731   0.787
57262W        W29687  38.126  29.129   0.868
57263W        W29688   6.736  29.990  11.617
57264W        W29689  14.247  44.543   3.702
57265W        W29690  29.552  19.993   2.412
57266W        W29691  21.872   3.654   0.790
57267W        W29692  24.758  31.896  12.442
57268W        W29693  27.618   9.194   4.571
57269W        W29694  24.832   9.344  13.589
57270W        W29695  21.243   9.768   9.861
57271W        W29696  40.743  37.812  11.223
57272W        W29697  23.668   1.645   1.925
57273W        W29698  23.155  20.173   4.772
57274W        W29699  37.210  11.864   3.584
57275W        W29700  35.525   3.448   4.250
57276W        W29701  28.574  10.627   0.759
57277W        W29702  42.392  23.272  12.639
57278W        W29703  42.324  23.190  10.727
57279W        W29704  22.548  27.729  10.713
57280W        W29705   8.485   3.709   4.607
57281W        W29706  37.700  20.699  10.464
57282W        W29707   0.519   1.023  11.182
57283W        W29708  33.896  33.748  11.089
57284W        W29709  27.945  22.240   3.374
57285W        W29710  37.929  42.022  14.999
57286W        W29711  11.200  32.147   4.280
57287W        W29712  13.813   8.716  14.563
57288W        W29713  15.198  15.621   0.444
57289W        W29714  13.710  22.528   2.735
57290W        W29715  30.357  19.575  12.415
57291W        W29716   1.614   2.128  11.974
57292W        W29717   0.506  22.197  13.049
57293W        W29718  33.343  32.943  12.818
57294W        W29719  37.535  12.283   0.968
57295W        W29720  26.132   0.457  10.868
57296W        W29721  34.590   7.398   4.240
57297W        W29722   2.710  15.816  10.654
57298W        W29723  35.085   5.451   2.737
57299W        W29724  37.404  10.910  12.876
57300W        W29725   8.144   0.392   2.637
57301W        W29726  26.917  34.350   2.143
57302W        W29727  14.616   0.808  13.042
57303W        W29728   1.839   2.778   0.875
57304W        W29729   8.683  21.314  12.009
57305W        W29730  30.445  22.220  13.086
57306W        W29731  32.877  27.888   3.730
57307W        W29732  29.471   6.329  13.750
57308W        W29733   0.009  36.566   3.172
57309W        W29734  35.396  37.978   1.149
57310W        W29735  24.186  31.635   4.497
57311W        W29736  39.907  35.579   3.918
57312W        W29737  31.441  24.967  11.054
57313W        W29738  44.313   2.242   2.625
57314W        W29739   1.694   5.122   3.116
57315W        W29740  10.215  22.812  12.801
57316W        W29741  34.140  20.591  10.654
57317W        W29742  23.975  28.377  10.859
57318W        W29743  26.305  32.639   1.996
57319W        W29744  20.388  38.954   1.686
57320W        W29745  41.522  14.627   2.838
57321W        W29746   8.987   7.268  14.302
57322W        W29747  17.319  15.731  11.094
57323W        W29748  36.992  12.748   2.260
57324W        W29749  34.660  18.498   0.543
57325W        W29750   4.709  35.875   4.661
57326W        W29751  18.568   2.681  14.583
57327W        W29752  21.439  22.474  10.586
57328W        W29753  26.890  41.205  13.410
57329W        W29754   2.940  43.878  13.067
57330W        W29755  37.087  18.682  14.057
57331W        W29756  38.291  30.259   1.427
57332W        W29757   6.256  38.427   0.385
57333W        W29758  14.168  26.674   1.449
57334W        W29759  32.429   4.473   3.429
57335W        W29760  25.567  10.758  13.541
57336W        W29761  32.827  37.294  13.502
57337W        W29762  36.112  15.406  13.405
57338W        W29763   4.662   8.301  11.744
57339W        W29764  16.816  25.597  12.043
57340W        W29765  32.192   3.983  11.587
57341W        W29766  17.516  36.988   4.189
57342W        W29767  39.517  41.892   3.821
57343W        W29768  36.081  31.086  12.921
57344W        W29769  43.790  10.774   3.777
57345W        W29770  31.442  17.674   1.197
57346W        W29771  38.346  18.604   3.240
57347W        W29772  36.515  29.447  11.158
57348W        W29773  35.765   4.506  11.077
57349W        W29774   9.739  30.207   4.502
57350W        W29775  14.824  31.052  13.921
57351W        W29776  22.051  29.473   3.770
57352W        W29777  39.402  35.438   2.238
57353W        W29778  43.203  30.224  13.820
57354W        W29779  18.981  19.111   2.891
57355W        W29780  21.081  17.113  10.741
57356W        W29781  41.569  32.920  13.842
57357W        W29782   3.404  12.207   4.650
57358W        W29783  39.374  10.119  14.512
57359W        W29784  15.262  31.637   2.432
57360W        W29785  38.482   2.930   4.705
57361W        W29786  24.431   8.850  13.530
57362W        W29787   2.296  30.569  14.008
57363W        W29788  12.735   7.220   3.527
57364W        W29789   1.783   7.296   0.446
57365W        W29790  12.329  40.281   1.164
57366W        W29791  40.923  43.808   2.321
57367W        W29792   7.605  29.627  12.045
57368W        W29793  13.062  20.756   4.718
57369W        W29794   9.124  31.154   3.855
57370W        W29795  20.276  27.939   2.161
57371W        W29796  36.017  23.868   4.545
57372W        W29797  38.432  43.870   1.494
57373W        W29798  13.256   3.910  13.073
57374W        W29799  21.846  35.418   3.905
57375W        W29800  26.709  36.975   1.901
57376W        W29801  14.507   3.473   1.319
57377W        W29802  25.330  41.509  13.947
57378W        W29803   9.361   4.703  11.127
57379W        W29804  20.151  16.736  10.600
57380W        W29805  25.068   9.759  10.632
57381W        W29806  13.730  18.867   4.532
57382W        W29807  35.141  28.910   3.131
57383W        W29808  38.780  40.325   1.395
57384W        W29809  24.484  26.924   1.748
57385W        W29810  23.268  21.617   3.636
57386W        W29811  21.341  32.724  12.986
57387W        W29812  41.388  11.652   1.268
57388W        W29813  19.862  23.550   3.215
57389W        W29814  17.111  30.915  14.480
57390W        W29815  29.006  22.099   3.001
57391W        W29816  34.481  21.775   3.602
57392W        W29817   9.305   4.467   1.350
57393W        W29818   4.633  29.070  13.412
57394W        W29819  36.102   6.251  11.702
57395W        W29820   7.248   7.972   4.507
57396W        W29821  23.580   9.835  12.657
57397W        W29822  17.734  16.132   4.646
57398W        W29823  40.969  30.009  11.446
57399W        W29824  36.474  22.429   1.393
57400W        W29825  42.454   3.841   2.724
57401W        W29826   9.823  27.920  14.491
57402W        W29827  25.729  18.049   1.195
57403W        W29828  16.673  44.345   1.908
57404W        W29829   0.602  24.138  13.838
57405W        W29830  35.071  18.209  12.672
57406W        W29831   1.251   4.829   0.366
57407W        W29832  23.161  13.776   1.808
57408W        W29833  24.435   4.450  11.668
57409W        W29834  44.344  43.363  13.774
57410W        W29835  36.450   7.862   4.060
57411W        W29836  10.306   6.252  13.591
57412W        W29837  19.017   1.900  12.596
57413W        W29838  29.623  17.714  12.869
57414W        W29839  33.952  18.723  14.744
57415W        W29840  35.725  30.654  11.124
57416W        W29841  27.605  42.742  11.922
57417W        W29842  12.665   7.249  10.743
57418W        W29843   3.192   9.754  11.355
57419W        W29844  23.465  26.494   2.743
57420W        W29845   8.918  24.312   1.476
57421W        W29846  32.011  43.497   3.620
57422W        W29847  34.522  24.211   4.018
57423W        W29848   4.402   0.820   0.218
57424W        W29849  21.739   3.991   0.427
57425W        W29850  35.319  34.988  10.490
57426W        W29851  15.870   9.111  13.489
57427W        W29852  27.558   4.768  13.689
57428W        W29853  30.612  10.300   3.504
57429W        W29854   9.667  35.320  12.047
57430W        W29855  17.577  14.047  13.861
57431W        W29856  33.292  42.804   2.846
57432W        W29857  14.622  14.701   4.082
57433W        W29858  11.531  32.432   3.324
57434W        W29859  36.404   9.887   2.871
57435W        W29860  26.202  28.402   0.348
57436W        W29861  12.824  25.617   3.776
57437W        W29862  10.278  26.691   0.371
57438W        W29863  44.668  15.667   2.828
57439W        W29864   6.319  14.929  10.542
57440W        W29865   8.089  36.080  11.921
57441W        W29866   8.684   6.081   0.283
57442W        W29867  32.927  41.931   2.181
57443W        W29868  10.819  41.161   2.302
57444W        W29869  27.676   2.328   4.121
57445W        W29870  33.026  35.482  12.134
57446W        W29871  21.696   7.253  14.231
57447W        W29872   2.279  21.148  11.899
57448W        W29873   7.697   5.799   2.916
57449W        W29874  28.050  31.280   3.067
57450W        W29875  29.547  15.597   3.445
57451W        W29876  38.609   9.246   4.442
57452W        W29877   5.767  20.999  13.965
57453W        W29878  31.599  10.307  13.053
57454W        W29879  40.887   9.973   1.141
57455W        W29880  44.450  27.101   0.985
57456W        W29881  44.941  44.860  13.623
57457W        W29882  14.376  26.139   1.689
57458W        W29883   2.285  40.609   1.817
57459W        W29884   7.880   0.095   0.343
57460W        W29885  35.524   3.742  12.867
57461W        W29886  38.509  28.065   4.100
57462W        W29887  43.973  12.371   0.295
57463W        W29888  41.461  29.906   2.300
57464W        W29889  16.771  24.646   4.343
57465W        W29890   2.493  37.404   1.627
57466W        W29891  39.713  30.189  12.459
57467W        W29892   1.083  30.007  13.716
57468W        W29893  21.383   4.506   3.233
57469W        W29894   3.106  38.154  14.107
57470W        W29895  30.832  10.134   1.233
57471W        W29896  35.011  23.303  13.806
57472W        W29897  44.047  25.658  13.160
57473W        W29898  34.587  17.779   0.824
57474W        W29899  40.699  13.776  12.557
57475W        W29900  31.748  42.340   4.524
57476W        W29901   3.279  11.474  10.788
57477W        W29902   0.527  40.783  11.543
57478W        W29903  36.591   8.868  10.594
57479W        W29904  22.003  16.798  10.487
57480W        W29905  29.969  14.596  11.585
57481W        W29906   3.776   6.132   4.318
57482W        W29907  22.592  16.354   0.316
57483W        W29908  17.571   8.594  12.947
57484W        W29909  14.100  44.033  12.956
57485W        W29910  24.568  31.886   3.238
57486W        W29911  18.633   6.092  14.621
57487W        W29912  14.337  25.130  11.080
57488W        W29913   6.813  29.575   4.756
57489W        W29914  17.311  26.359  14.334
57490W        W29915  31.472   1.355  14.463
57491W        W29916  30.467   0.466  11.241
57492W        W29917  31.374  42.002   2.265
57493W        W29918  10.158  44.001   1.436
57494W        W29919  33.499  31.675  11.552
57495W        W29920  14.316  30.364  13.381
57496W        W29921  31.502  26.404  13.056
57497W        W29922  39.805   0.017   1.429
57498W        W29923   2.318  41.390  14.887
57499W        W29924  25.314  43.911  10.751
57500W        W29925   0.796  38.962   1.695
57501W        W29926  34.064  28.656  11.106
57502W        W29927  23.764  40.983  14.454
57503W        W29928  28.927  26.156  12.486
57504W        W29929  10.580  26.233  13.071
57505W        W29930  39.003   0.703  14.785
57506W        W29931  42.534   8.372  11.592
57507W        W29932   4.358   1.775   2.856
57508W        W29933  25.779   6.423   5.007
57509W        W29934  11.915   0.409   1.391
57510W        W29935  27.774  36.502  13.819
57511W        W29936  29.508   5.651   3.200
57512W        W29937  41.113  10.538  14.552
57513W        W29938  20.515  30.526   0.915
57514W        W29939  17.698  35.681  12.566
57515W        W29940  21.540   7.785   2.730
57516W        W29941  12.640  23.477  10.658
57517W        W29942  38.783  33.940  11.339
57518W        W29943  34.117  31.997  14.564
57519W        W29944  20.235  33.022  14.245
57520W        W29945  20.166  14.270   0.697
57521W        W29946   2.004  22.686  10.400
57522W        W29947  44.291  42.880  11.148
57523W        W29948  26.693  29.004   3.060
57524W        W29949  32.395  20.794   1.260
57525W        W29950  28.512  41.007   5.306
57526W        W29951  36.483   9.764   5.549
57527W        W29952   2.038  10.307  11.105
57528W        W29953  24.026  14.763   0.598
57529W        W29954  44.913  12.633   3.648
57530W        W29955  35.965  44.031   4.130
57531W        W29956  25.602  11.786  11.988
57532W        W29957  32.442   5.481   4.241
57533W        W29958  34.085  43.747  13.678
57534W        W29959  14.351  12.687   4.124
57535W        W29960  38.452  30.974  11.070
57536W        W29961  13.772   2.968   0.813
57537W        W29962  40.521   9.930  13.486
57538W        W29963  25.509   4.886  11.045
57539W        W29964   5.659  26.279  11.513
57540W        W29965  10.751  13.611   4.241
57541W        W29966   7.542  18.984  11.950
57542W        W29967  25.333  37.475   0.812
57543W        W29968   2.213  29.427   0.834
57544W        W29969  31.092  32.603   3.623
57545W        W29970  44.229  25.509   4.128
57546W        W29971  43.648  15.661   3.200
57547W        W29972  22.596  28.523   3.609
57548W        W29973  38.473  29.809  12.455
57549W        W29974   4.757  22.198  10.657
57550W        W29975   0.436  21.575   2.937
57551W        W29976  43.008  17.163   3.128
57552W        W29977  25.578  40.727   2.326
57553W        W29978  31.359  35.901   4.577
57554W        W29979  11.389  24.583  12.469
57555W        W29980  10.634  25.139   4.952
57556W        W29981  33.966  43.924  10.733
57557W        W29982  23.652  18.180   2.349
57558W        W29983  33.380  16.342  12.052
57559W        W29984  39.473  11.080  13.578
57560W        W29985   1.700   8.267   2.697
57561W        W29986  44.765  41.787   4.244
57562W        W29987  12.847  41.594  10.682
57563W        W29988  28.938  41.277   0.344
57564W        W29989  43.887  17.136  11.815
57565W        W29990  39.929   4.368   3.622
57566W        W29991  39.901  29.075  14.902
57567W        W29992   2.876  22.357  12.940
57568W        W29993  37.935  36.502  10.968
57569W        W29994  16.112  29.641   0.892
57570W        W29995  38.546  25.469   0.859
57571W        W29996  21.998  39.190   3.849
57572W        W29997  34.901   3.373   0.385
57573W        W29998  13.094   2.547  11.953
57574W        W29999  17.557  22.619  13.603
57575W        W30000  44.057  17.177  14.917
57576W        W30001  27.051  40.490   0.481
57577W        W30002  27.216  44.768  13.019
57578W        W30003   9.801  12.442   4.079
57579W        W30004  37.444  23.841   4.252
57580W        W30005  23.131   6.708  12.406
57581W        W30006  40.928  36.421   0.950
57582W        W30007  37.969   0.529   3.476
57583W        W30008  37.844  25.929   1.398
57584W        W30009   0.359  22.523   0.498
57585W        W30010  16.175  37.354  12.198
57586W        W30011  35.495   9.801   0.038
57587W        W30012  22.607  22.641  11.960
57588W        W30013  38.958  32.539  11.589
57589W        W30014  11.759  17.641  12.610
57590W        W30015  23.257  38.844  10.711
57591W        W30016  10.972  36.516  14.094
57592W        W30017  21.186  10.115   3.730
57593W        W30018  16.107  35.609   3.148
57594W        W30019  19.304  11.815  12.012
57595W        W30020  43.440   8.331   4.906
57596W        W30021  32.449   2.913   1.677
57597W        W30022  38.834  28.190  13.355
57598W        W30023  16.098  10.716   2.681
57599W        W30024  12.676   7.321   4.386
57600W        W30025   2.811   1.248  13.398
57601W        W30026  11.778  39.044   4.019
57602W        W30027  37.170  21.423  13.401
57603W        W30028  28.749  20.055  12.805
57604W        W30029  39.031   8.162   0.940
57605W        W30030  42.508   7.529   2.689
57606W        W30031  40.506  23.790  12.383
57607W        W30032  10.162  14.729  12.475
57608W        W30033  17.643   2.131   2.446
57609W        W30034  36.326  12.219  12.056
57610W        W30035  33.851  39.877  12.996
57611W        W30036  23.218  17.592   3.411
57612W        W30037  34.933  29.702   2.829
57613W        W30038  41.979   0.655   4.534
57614W        W30039   5.461  35.536   0.996
57615W        W30040  41.929   5.255  11.511
57616W        W30041  12.204  12.135  13.845
57617W        W30042  28.338  30.068   0.073
57618W        W30043  28.631  20.748   2.732
57619W        W30044   3.529  37.065  14.895
57620W        W30045   6.768  23.015   2.389
57621W        W30046   3.895  16.471   1.508
57622W        W30047  27.100  16.613  12.488
57623W        W30048   1.999   8.398   4.821
57624W        W30049  13.048  12.808   2.783
57625W        W30050  22.511  11.508  13.496
57626W        W30051  15.814  18.475  12.476
57627W        W30052  21.155  13.630   5.145
57628W        W30053  23.039  24.215   3.910
57629W        W30054  39.482  37.424  13.350
57630W        W30055  28.721   0.846  14.948
57631W        W30056   9.948   0.188  13.674
57632W        W30057  28.041   4.978  11.201
57633W        W30058  36.922  24.797   4.020
57634W        W30059  33.807  43.765  11.614
57635W        W30060  20.934   5.273  10.467
57636W        W30061  17.171  40.878   4.877
57637W        W30062  19.958  21.747  12.991
57638W        W30063  24.690  30.307   0.821
57639W        W30064  38.839  20.726   3.759
57640W        W30065  39.442  14.095   1.733
57641W        W30066  10.484  29.490  13.512
57642W        W30067   2.831  14.358   4.710
57643W        W30068  22.491  19.290  12.970
57644W        W30069   5.766   8.991  14.349
57645W        W30070  15.093   1.994   3.085
57646W        W30071  12.424   4.974  13.137
57647W        W30072  37.940  31.657  12.350
57648W        W30073  13.596   2.934  13.906
57649W        W30074   5.396  22.743  10.656
57650W        W30075  16.194  21.651   1.203
57651W        W30076  27.972  34.431   4.988
57652W        W30077   5.591   0.091  12.247
57653W        W30078  22.514  41.439  11.319
57654W        W30079  34.922  30.204  11.338
57655W        W30080   4.843  26.676  12.164
57656W        W30081  27.786  29.511  13.426
57657W        W30082  20.471  16.617  13.859
57658W        W30083  34.491  44.356   0.028
57659W        W30084   8.852  38.851   0.360
57660W        W30085  10.073  17.625   0.293
57661W        W30086  36.504   0.661  12.410
57662W        W30087  29.564  24.413   5.528
57663W        W30088  17.187   0.973  11.967
57664W        W30089  29.230   2.514  11.128
57665W        W30090   1.169   1.357  14.132
57666W        W30091   4.577  44.904  14.451
57667W        W30092   4.981  13.555   2.730
57668W        W30093   0.802  16.484  11.754
57669W        W30094  22.951   2.785   4.488
57670W        W30095  41.501  24.606   1.179
57671W        W30096  28.881  14.459  13.304
57672W        W30097  19.012   2.881  14.780
57673W        W30098  36.606  13.483  12.428
57674W        W30099  26.688  25.472  12.363
57675W        W30100  42.059   8.633   1.702
57676W        W30101   1.873  20.328  12.098
57677W        W30102  32.612   8.729   1.785
57678W        W30103   4.447  33.712  12.576
57679W        W30104  33.949  12.542  14.375
57680W        W30105   7.471  27.783   2.787
57681W        W30106   0.112  32.824   1.729
57682W        W30107  21.961  11.708   3.573
57683W        W30108  42.854  36.580  13.521
57684W        W30109   5.713  24.257  12.455
57685W        W30110   7.322  29.891   4.070
57686W        W30111  37.276  12.658  13.888
57687W        W30112  12.566   5.658   0.948
57688W        W30113  25.643   4.749  14.956
57689W        W30114  44.326  33.422  14.851
57690W        W30115  27.210  29.784   3.785
57691W        W30116  17.989  13.580  11.512
57692W        W30117  40.999  10.899   2.875
57693W        W30118  32.603   3.270  13.872
57694W        W30119  37.537  19.594   0.793
57695W        W30120  19.171  32.453  13.341
57696W        W30121  17.701  20.339   1.907
57697W        W30122   2.544  10.619  13.334
57698W        W30123   6.047  35.509  14.039
57699W        W30124  37.726  18.115  11.654
57700W        W30125   1.265  28.147   2.360
57701W        W30126   1.272   8.780  12.470
57702W        W30127   4.651  36.751   4.973
57703W        W30128  36.901  43.466   4.151
57704W        W30129  18.191  33.472  14.914
57705W        W30130  42.878  31.165   4.595
57706W        W30131  10.058  43.111  10.215
57707W        W30132  42.028  31.700   3.759
57708W        W30133   5.310  21.168   1.295
57709W        W30134  39.073  36.020  12.993
57710W        W30135  37.379   3.142  12.058
57711W        W30136   2.512  40.559   4.982
57712W        W30137  30.900   6.271   0.380
57713W        W30138   7.334   5.961   3.232
57714W        W30139  18.771   8.652  10.694
57715W        W30140  44.740  13.008  13.889
57716W        W30141  22.550  29.412   3.797
57717W        W30142  29.987  39.539  10.888
57718W        W30143  40.320  35.483  13.446
57719W        W30144   1.797  22.890  12.341
57720W        W30145  19.739  17.651  12.545
57721W        W30146  34.812   2.468   2.475
57722W        W30147  29.704   8.720  14.235
57723W        W30148  42.543  15.564   2.362
57724W        W30149  18.031  21.651   1.287
57725W        W30150   1.364  13.878   1.809
57726W        W30151  23.262   4.688  13.075
57727W        W30152  20.825  32.167  10.743
57728W        W30153  34.121  10.759  10.459
57729W        W30154  14.127  35.864   0.555
57730W        W30155  36.588  32.073   3.586
57731W        W30156   2.292  34.677   3.372
57732W        W30157  43.649   2.272   1.891
57733W        W30158   8.957   9.258   1.132
57734W        W30159  29.576  23.968   4.591
57735W        W30160  16.040  23.992  12.484
57736W        W30161  30.181  21.191  14.239
57737W        W30162  13.229  22.201   1.637
57738W        W30163  11.300  22.541   1.326
57739W        W30164  23.996  36.935   3.073
57740W        W30165  40.910  40.537  10.737
57741W        W30166  19.883   8.383  12.065
57742W        W30167  14.176  21.767  13.499
57743W        W30168  24.248  44.983   2.576
57744W        W30169  33.676  27.921   2.283
57745W        W30170  43.547  29.460  11.051
57746W        W30171  16.364  37.682  13.963
57747W        W30172   8.880  25.008   0.711
57748W        W30173  35.078   7.330  12.037
57749W        W30174   8.743  21.722   4.565
57750W        W30175  37.469  18.404  11.315
57751W        W30176  43.915  18.127  11.234
57752W        W30177  19.170  25.623  11.611
57753W        W30178  21.535  40.973   1.768
57754W        W30179  25.288  15.794  12.098
57755W        W30180   3.127  13.864   0.936
57756W        W30181  31.486   9.290   4.753
57757W        W30182  20.310  11.627  12.969
57758W        W30183  16.866   9.215  14.338
57759W        W30184  41.764  29.205  11.527
57760W        W30185  23.996  12.178   1.379
57761W        W30186   2.267  13.354  13.162
57762W        W30187  44.253   5.401   3.615
57763W        W30188   9.197   4.094   3.896
57764W        W30189  34.436  34.137   2.136
57765W        W30190   0.488  14.061  14.827
57766W        W30191  40.306  35.283   0.251
57767W        W30192  25.440  37.999   4.290
57768W        W30193  27.322   4.737  10.870
57769W        W30194  22.235  10.962   3.182
57770W        W30195  32.694  23.660  10.794
57771W        W30196  38.815  20.903  14.441
57772W        W30197  29.218  16.178   0.410
57773W        W30198  22.978  26.677  14.315
57774W        W30199   2.046   1.899   1.453
57775W        W30200  33.410   3.235  13.261
57776W        W30201  23.411  22.536   0.718
57777W        W30202  19.268  35.743  12.908
57778W        W30203   4.998  39.727  11.576
57779W        W30204  21.652  40.480   3.644
57780W        W30205   2.222  17.228   3.634
57781W        W30206   4.003   4.167  14.672
57782W        W30207   7.374  22.232  14.562
57783W        W30208  21.658  41.568  13.302
57784W        W30209  16.962  12.321   3.444
57785W        W30210   9.240   7.776  13.390
57786W        W30211  30.377  11.352   4.292
57787W        W30212  44.859   4.393   1.839
57788W        W30213  10.260  43.744  13.591
57789W        W30214  22.734  10.894   3.418
57790W        W30215  40.220  29.452  12.542
57791W        W30216  21.555  38.660   3.151
57792W        W30217   0.867  42.786   1.437
57793W        W30218  22.551  15.906  10.112
57794W        W30219   1.031  33.844  11.426
57795W        W30220  43.548  39.272   4.978
57796W        W30221   8.822  40.924  14.242
57797W        W30222   9.896   7.291   1.481
57798W        W30223  33.057  13.295   3.182
57799W        W30224   0.512  40.037  14.836
57800W        W30225  11.800  12.653   0.261
57801W        W30226  20.820  37.917  10.339
57802W        W30227   3.345   3.366  11.156
57803W        W30228  10.972   4.370   1.548
57804W        W30229  29.574  21.131  13.021
57805W        W30230  11.784  24.214   0.985
57806W        W30231  41.560  29.871  13.011
57807W        W30232  32.947  42.064  12.884
57808W        W30233  35.293   2.655   2.801
57809W        W30234   4.050  18.944  11.483
57810W        W30235  38.379  24.228   3.212
57811W        W30236   3.037  27.018   1.682
57812W        W30237  43.259  32.068  12.209
57813W        W30238  43.096  28.404  12.476
57814W        W30239  44.420   7.899   4.566
57815W        W30240  34.945  16.859   0.281
57816W        W30241  31.138  18.041  12.093
57817W        W30242  25.195   6.303  13.530
57818W        W30243  31.272  17.492  14.321
57819W        W30244  22.019  28.662  12.399
57820W        W30245  44.275  21.794  13.142
57821W        W30246  37.538   1.840   3.406
57822W        W30247   0.950  24.178   1.960
57823W        W30248  44.843  23.513  11.993
57824W        W30249   1.924  23.767  12.981
57825W        W30250  28.090  34.186   0.958
57826W        W30251  37.407   3.385   2.714
57827W        W30252  19.180  44.392  11.219
57828W        W30253   5.899  14.616   1.221
57829W        W30254  15.360  42.300   1.337
57830W        W30255  29.090  38.349  14.619
57831W        W30256   2.827   6.715  11.040
57832W        W30257  43.470  34.140  14.328
57833W        W30258  23.678  18.507  12.409
57834W        W30259  23.075  20.519  14.488
57835W        W30260  39.866  34.380   3.122
57836W        W30261   5.245  24.022  13.355
57837W        W30262  15.859  30.497   1.893
57838W        W30263  40.019  34.063  13.447
57839W        W30264   3.417  11.172   4.458
57840W        W30265   6.328  11.611   4.874
57841W        W30266  39.886  43.575   1.209
57842W        W30267  32.910  15.173  12.265
57843W        W30268   3.653   4.302  14.290
57844W        W30269  27.858  44.239  10.200
57845W        W30270   5.214  13.205   4.742
57846W        W30271  44.416  13.919   3.643
57847W        W30272  16.769  17.123  12.129
57848W        W30273  37.963  10.214   0.035
57849W        W30274   6.191  12.604   2.239
57850W        W30275   2.310  39.324  12.413
57851W        W30276  26.630  29.523   0.970
57852W        W30277   9.551  43.762   3.632
57853W        W30278  11.359  21.046  14.452
57854W        W30279  14.213   0.209  13.451
57855W        W30280  18.223  38.052  14.262
57856W        W30281   9.098  31.657  10.462
57857W        W30282  23.203  23.002  11.617
57858W        W30283  23.621  31.083  11.555
57859W        W30284  41.894  35.491  12.016
57860W        W30285  28.629   1.305   1.118
57861W        W30286  40.744  38.929   1.244
57862W        W30287  12.564  35.280  11.990
57863W        W30288  31.516   9.190   0.476
57864W        W30289  23.704   6.025   0.208
57865W        W30290  36.600  23.743   4.159
57866W        W30291  39.930   0.002  14.297
57867W        W30292  36.877  23.643  10.831
57868W        W30293  37.332  12.112   2.440
57869W        W30294  15.170  44.184  10.360
57870W        W30295   1.315  32.649  11.581
57871W        W30296  34.896  19.521  11.184
57872W        W30297   6.222   9.423  13.719
57873W        W30298  11.976  36.332   0.718
57874W        W30299  42.802  25.549   5.005
57875W        W30300  32.175  42.328   2.312
57876W        W30301  35.622   8.630  14.250
57877W        W30302  12.095  36.350   2.445
57878W        W30303  26.652  34.498   1.737
57879W        W30304  23.053   0.724  13.583
57880W        W30305  14.340   9.991  11.556
57881W        W30306   7.048  14.154   5.340
57882W        W30307  40.490  32.743  10.748
57883W        W30308  29.635  39.434  11.376
57884W        W30309  11.620  33.079  14.438
57885W        W30310  35.309   4.459   4.215
57886W        W30311  19.010   6.341  13.513
57887W        W30312  24.537  34.499  10.802
57888W        W30313  32.565   6.482   9.669
57889W        W30314  18.521  43.764  14.541
57890W        W30315  27.301  18.677  13.378
57891W        W30316  17.178  35.549   2.717
57892W        W30317  30.344   9.049   1.758
57893W        W30318  12.693  25.067   4.469
57894W        W30319  16.933  38.113   4.262
57895W        W30320  20.807   7.696  13.954
57896W        W30321  11.714  10.828  12.463
57897W        W30322   9.699   2.305   1.210
57898W        W30323   4.399  41.580   0.633
57899W        W30324  31.414   4.941   4.690
57900W        W30325   7.321  22.766   2.353
57901W        W30326  27.993  11.049   3.779
57902W        W30327   9.012   7.592  13.838
57903W        W30328  19.664  17.351   1.474
57904W        W30329  27.670  41.601   2.286
57905W        W30330  15.772  20.730  13.896
57906W        W30331  25.016   1.422  11.051
57907W        W30332   3.961  26.385  13.529
57908W        W30333  12.095  22.069   4.408
57909W        W30334  35.156   5.212  14.367
57910W        W30335  10.092  35.894  14.637
57911W        W30336  43.509   7.823   1.718
57912W        W30337   2.871  12.589   2.172
57913W        W30338   2.453   0.682  13.860
57914W        W30339  25.588  30.619  13.237
57915W        W30340   4.687  40.277  13.804
57916W        W30341  31.399  27.559   1.777
57917W        W30342  31.019  42.796  13.041
57918W        W30343  30.621   1.221   1.265
57919W        W30344   1.317  23.197   4.136
57920W        W30345   8.890  39.711   2.981
57921W        W30346  31.490   5.903   3.142
57922W        W30347   9.316  29.136  11.125
57923W        W30348  26.972  28.976   1.809
57924W        W30349   0.824   6.962  14.249
57925W        W30350  14.435  39.653  10.193
57926W        W30351  30.633   6.289  10.511
57927W        W30352  10.380  26.101   3.728
57928W        W30353  43.046   0.915  13.881
57929W        W30354  29.811  12.559  13.516
57930W        W30355  31.483  13.047  14.841
57931W        W30356  33.027  28.483  10.649
57932W        W30357  35.828  23.519  14.832
57933W        W30358  22.071  13.658  14.805
57934W        W30359  31.387  10.028  10.592
57935W        W30360  31.484  30.264   2.401
57936W        W30361  11.272  22.226   1.888
57937W        W30362  38.523  39.078   0.483
57938W        W30363   9.448   6.250  13.004
57939W        W30364  27.870   6.641  11.434
57940W        W30365  39.145  34.448  12.642
57941W        W30366  17.637  40.927   0.762
57942W        W30367  44.405  30.486   2.930
57943W        W30368  18.857  13.623   4.448
57944W        W30369  27.956  21.986  14.830
57945W        W30370  13.608  41.628  14.413
57946W        W30371   0.363  37.305  11.397
57947W        W30372  37.821  32.107  11.172
57948W        W30373  17.245  23.784  10.535
57949W        W30374  11.877  30.643  13.446
57950W        W30375  41.365  19.035   1.231
57951W        W30376  23.738  30.957   1.363
57952W        W30377  40.199   0.946  11.570
57953W        W30378  13.088  42.471  13.944
57954W        W30379  34.460  17.638  11.566
57955W        W30380   1.786  20.310  13.502
57956W        W30381  21.624  40.989  13.378
57957W        W30382  22.209  37.630  11.321
57958W        W30383   1.981  27.160  10.683
57959W        W30384  11.716  10.498   3.749
57960W        W30385  12.717  34.857  13.911
57961W        W30386  26.756  27.178   2.969
57962W        W30387  19.434   3.724  11.654
57963W        W30388  41.092   7.698  12.057
57964W        W30389  29.412  34.074  12.050
57965W        W30390  23.937  32.544  11.437
57966W        W30391  30.739   3.169   2.776
57967W        W30392   9.887   2.574   4.176
57968W        W30393  40.300  20.883   2.821
57969W        W30394  38.613   1.175  13.363
57970W        W30395  15.178  34.059  11.656
57971W        W30396  24.475  26.410   1.862
57972W        W30397   1.349  32.735  10.618
57973W        W30398  29.408  36.430  11.111
57974W        W30399  15.346  31.927   3.850
57975W        W30400  29.513  37.386  10.012
57976W        W30401  10.439  42.903   9.950
57977W        W30402  20.077   3.523  11.108
57978W        W30403  35.487  39.609  11.253
57979W        W30404  37.402   4.700  12.367
57980W        W30405  22.160  18.700   0.947
57981W        W30406  26.885  43.832   0.412
57982W        W30407  23.026  26.744   1.719
57983W        W30408  24.049  22.348   3.670
57984W        W30409  11.744  37.350   2.554
57985W        W30410  15.846  39.065   2.409
57986W        W30411  14.226  33.971  13.639
57987W        W30412  40.371   4.949  12.987
57988W        W30413  34.453   1.273   4.767
57989W        W30414  40.774  23.283  14.389
57990W        W30415  10.695  36.376   1.294
57991W        W30416  29.069  44.847   0.740
57992W        W30417   0.787  31.049   2.017
57993W        W30418   6.205  13.634   0.642
57994W        W30419   9.682  17.735  13.799
57995W        W30420   2.395  38.350   4.378
57996W        W30421   1.752  36.314  11.078
57997W        W30422  33.980  24.758  14.362
57998W        W30423  23.536  24.320  12.107
57999W        W30424  30.507  34.918   1.023
58000W        W30425  35.704  12.691   3.784
58001W        W30426  29.772  34.143   3.722
58002W        W30427  19.082   8.290  14.610
58003W        W30428  12.834  41.412  14.827
58004W        W30429   8.596  36.349   0.436
58005W        W30430  17.804  26.873  14.256
58006W        W30431  25.906  40.207   3.306
58007W        W30432  16.685   5.998  13.328
58008W        W30433  37.471  40.023  13.554
58009W        W30434  38.732  23.526   4.832
58010W        W30435  23.611   4.715  10.057
58011W        W30436  26.620  40.078   1.595
58012W        W30437  16.604   2.974   1.713
58013W        W30438  33.794  35.074  14.857
58014W        W30439  10.964  23.401  11.884
58015W        W30440  15.082  33.588  10.536
58016W        W30441  17.693  33.102   2.119
58017W        W30442   6.252  17.597  12.284
58018W        W30443  31.050  42.000  11.795
58019W        W30444  10.927  20.611   4.013
58020W        W30445  26.176  43.102  14.291
58021W        W30446   3.392  31.535   0.022
58022W        W30447  33.391  29.668  14.879
58023W        W30448   9.057   8.104  13.923
58024W        W30449  36.053  33.309   0.959
58025W        W30450  31.076  17.757  12.537
58026W        W30451  17.772  17.053  11.047
58027W        W30452  24.168  22.613  11.604
58028W        W30453  17.952  23.320  14.033
58029W        W30454  36.325  36.452   0.267
58030W        W30455  14.540  43.029   0.346
58031W        W30456  24.244  34.072   1.911
58032W        W30457  41.443  11.896  12.380
58033W        W30458  37.319  38.880  14.096
58034W        W30459   4.298   8.266   2.962
58035W        W30460   9.768  12.086  11.656
58036W        W30461  29.872  12.597  12.658
58037W        W30462   7.891   3.261   3.207
58038W        W30463  11.303  15.235   4.000
58039W        W30464  26.942  40.388  13.808
58040W        W30465  29.410  28.144  11.503
58041W        W30466  32.821  37.696   3.198
58042W        W30467  42.506  28.843  12.828
58043W        W30468   8.777  26.487   3.646
58044W        W30469   1.945  19.696   2.255
58045W        W30470  44.303  28.512  12.979
58046W        W30471  29.060  34.983  14.915
58047W        W30472  43.838  34.864  10.668
58048W        W30473  26.588   5.391   2.738
58049W        W30474   1.767  18.046  11.578
58050W        W30475  15.927  25.884   2.832
58051W        W30476   7.087   7.799  13.548
58052W        W30477  40.867  37.510   0.305
58053W        W30478  33.734  18.584   4.571
58054W        W30479  40.838  19.638  13.355
58055W        W30480  11.308   1.409  12.953
58056W        W30481   3.704  27.975  11.245
58057W        W30482   9.297   9.821   4.839
58058W        W30483  23.490  12.914  14.510
58059W        W30484   8.866  22.563  12.780
58060W        W30485  25.670   3.196   5.047
58061W        W30486   5.824   2.549  11.565
58062W        W30487  34.641  40.396  12.910
58063W        W30488  20.674   7.873   2.801
58064W        W30489  42.920  20.715  12.495
58065W        W30490  39.501   7.383   0.473
58066W        W30491  43.430  34.622  14.960
58067W        W30492   3.416  20.893  13.088
58068W        W30493  28.100   7.784   2.514
58069W        W30494  42.808  22.926  13.357
58070W        W30495   7.672  26.464  14.873
58071W        W30496  16.808  43.399  14.855
58072W        W30497   4.396   8.344   3.950
58073W        W30498  24.014  13.633  13.840
58074W        W30499  38.845  41.377   4.672
58075W        W30500  35.500   7.190  12.329
58076W        W30501  37.622  43.852   2.156
58077W        W30502  38.275   6.001   2.876
58078W        W30503  40.571  29.102  12.465
58079W        W30504  33.378  14.859  14.310
58080W        W30505   2.812   8.837   4.189
58081W        W30506  14.710   7.133  10.810
58082W        W30507  15.118   6.442   3.229
58083W        W30508  10.130  12.250   0.763
58084W        W30509   6.315  24.747   2.952
58085W        W30510   6.037  23.940  14.880
58086W        W30511  22.520  39.342  10.454
58087W        W30512   2.889  33.903  11.376
58088W        W30513  43.841  27.308   2.851
58089W        W30514   6.200   8.770  11.068
58090W        W30515  23.336  15.894  14.966
58091W        W30516  14.738  39.870  13.923
58092W        W30517  33.290  36.049  14.722
58093W        W30518   8.265  20.698  12.352
58094W        W30519  36.183  33.957  14.122
58095W        W30520  22.507  18.566  13.115
58096W        W30521  27.129  33.575   0.676
58097W        W30522   3.039  22.611   1.842
58098W        W30523  25.002  34.851   4.803
58099W        W30524  12.042  33.395  14.400
58100W        W30525  17.535  30.666   3.977
58101W        W30526   1.774   3.788  10.844
58102W        W30527  11.952  25.639  12.832
58103W        W30528  14.337  35.531  12.892
58104W        W30529  15.705  37.824   3.686
58105W        W30530  41.832  40.791   3.141
58106W        W30531  24.914   8.358  10.707
58107W        W30532  35.942  40.672   4.078
58108W        W30533  10.406  44.876   2.745
58109W        W30534  43.745  19.564   2.684
58110W        W30535  23.219  33.448   0.865
58111W        W30536   1.303  44.987   1.924
58112W        W30537  13.303  28.913   3.587
58113W        W30538  29.676  35.007  14.962
58114W        W30539  37.794   5.711  12.892
58115W        W30540  24.130  39.205  10.598
58116W        W30541  20.478   4.334   1.808
58117W        W30542   2.977   4.031   0.785
58118W        W30543   9.754   0.234   4.393
58119W        W30544  33.352  40.380   1.190
58120W        W30545  29.495  32.600  13.259
58121W        W30546  25.496  17.086  13.192
58122W        W30547  33.625   8.752  12.721
58123W        W30548   6.864  40.678   2.750
58124W        W30549  23.816   5.411   2.931
58125W        W30550  18.788   1.363  14.080
58126W        W30551  38.302  35.391   2.934
58127W        W30552  29.094   7.807  13.583
58128W        W30553  13.232  44.819   4.352
58129W        W30554  10.180  39.575   3.613
58130W        W30555   5.904  41.209   0.130
58131W        W30556  26.638   9.992   4.285
58132W        W30557  24.842   0.189   1.013
58133W        W30558   5.023  22.505   0.038
58134W        W30559  35.181  38.896   0.552
58135W        W30560  37.022  39.507   0.886
58136W        W30561  36.809  31.474   2.713
58137W        W30562  18.379  36.792   3.250
58138W        W30563  26.248  25.077   0.200
58139W        W30564  37.417   7.240   3.322
58140W        W30565  44.939   4.489   0.423
58141W        W30566  32.368  44.458  14.876
58142W        W30567  38.821  25.415   0.062
58143W        W30568  25.200  16.809   3.690
58144W        W30569  43.755  27.478   2.267
58145W        W30570  32.548   3.682  11.353
58146W        W30571  32.981  26.728  14.770
58147W        W30572   0.346  30.179   1.251
58148W        W30573  18.302  16.140   2.157
58149W        W30574  20.486   6.083   4.325
58150W        W30575  29.118  25.467   1.397
58151W        W30576  11.880   6.414  12.888
58152W        W30577  19.754  18.094   2.124
58153W        W30578  37.073   3.876   3.805
58154W        W30579   3.844  29.594  10.689
58155W        W30580  21.041  23.825   0.590
58156W        W30581  30.018  20.284   0.841
58157W        W30582  44.226   4.236   2.737
58158W        W30583  27.774  42.001   4.970
58159W        W30584  37.903  41.092  12.907
58160W        W30585  25.031  39.241   3.720
58161W        W30586   0.948  40.099   3.999
58162W        W30587  23.009  13.249   0.385
58163W        W30588   2.725  20.289  12.114
58164W        W30589  10.542  18.758   1.774
58165W        W30590  16.791  19.825  13.297
58166W        W30591  10.604  38.333  14.534
58167W        W30592   7.799   5.326  10.852
58168W        W30593  42.069   2.529  13.496
58169W        W30594   7.831   6.559   0.489
58170W        W30595  38.118   4.572   2.154
58171W        W30596  39.263  22.265   3.244
58172W        W30597  30.894  12.344  10.719
58173W        W30598   3.152   8.249   1.336
58174W        W30599   4.030  27.205   3.349
58175W        W30600  16.346  40.673  12.666
58176W        W30601  27.662  16.695   4.001
58177W        W30602   6.788  18.714   0.562
58178W        W30603  14.288  43.558   1.860
58179W        W30604   4.870   8.206   3.753
58180W        W30605   8.865  29.454   2.108
58181W        W30606   7.717  35.241  12.909
58182W        W30607  20.596  22.442  13.110
58183W        W30608  20.055  10.690   4.245
58184W        W30609   3.457  30.884  11.150
58185W        W30610  17.024  37.007  11.146
58186W        W30611   8.629  27.489   3.844
58187W        W30612  15.941  14.055  11.164
58188W        W30613  19.597  16.444   3.804
58189W        W30614  37.622  22.022  10.625
58190W        W30615  30.963   7.723  11.444
58191W        W30616  29.134  34.042  14.510
58192W        W30617   2.680  19.885   3.777
58193W        W30618  13.662  10.176   0.470
58194W        W30619   2.343   7.751   4.393
58195W        W30620  29.425  38.083  11.995
58196W        W30621  29.288  17.240  14.754
58197W        W30622  30.513  38.530   3.666
58198W        W30623  35.300  34.785   1.930
58199W        W30624  42.747  39.874  11.119
58200W        W30625  30.076  16.053   4.470
58201W        W30626   2.873   7.927  12.629
58202W        W30627  35.927  31.061  13.843
58203W        W30628  11.350   8.829   2.390
58204W        W30629  33.084  28.848   0.361
58205W        W30630  26.119  13.478  14.605
58206W        W30631  43.860  16.532  13.868
58207W        W30632  42.345  36.331  12.000
58208W        W30633  23.690  34.565  12.445
58209W        W30634   4.888  13.281   0.698
58210W        W30635  10.661  12.300   1.493
58211W        W30636   6.204   5.416   0.252
58212W        W30637   2.531  32.504   4.868
58213W        W30638  41.568  31.465   0.571
58214W        W30639  37.135  21.952  13.429
58215W        W30640  24.298  36.884   1.620
58216W        W30641  37.658   6.764   3.344
58217W        W30642  36.796   2.188  11.852
58218W        W30643   9.610  18.010  13.359
58219W        W30644  33.873  13.246   2.685
58220W        W30645  13.101  43.634  14.098
58221W        W30646  29.530  42.298   1.817
58222W        W30647  38.080  43.681   3.852
58223W        W30648  12.584  13.540  14.843
58224W        W30649   8.831  25.134  13.126
58225W        W30650   7.856  20.774   4.139
58226W        W30651  40.444   4.108  14.777
58227W        W30652  22.127  20.299  14.533
58228W        W30653  27.736  32.007  13.327
58229W        W30654  40.505  11.706   4.119
58230W        W30655  14.364  30.549  12.374
58231W        W30656   2.184   5.640   1.937
58232W        W30657  39.942  28.986  14.369
58233W        W30658  33.558  43.617   4.615
58234W        W30659  35.640  13.665  13.826
58235W        W30660   0.393  25.069  12.981
58236W        W30661  40.925  21.138   3.797
58237W        W30662  22.616  12.105   1.151
58238W        W30663  30.511  42.492  12.551
58239W        W30664  17.665  10.218   1.797
58240W        W30665  18.287  32.342  11.140
58241W        W30666  24.414   2.389   3.173
58242W        W30667  43.480  42.121   4.589
58243W        W30668  42.911  13.663   1.832
58244W        W30669  39.610   9.875  11.094
58245W        W30670  44.764  39.780  10.977
58246W        W30671  25.374   8.194   3.787
58247W        W30672  28.089  28.464   0.280
58248W        W30673  33.381  23.469  11.509
58249W        W30674  35.247   3.214  14.811
58250W        W30675  27.766  33.406  11.997
58251W        W30676  23.632  32.381   0.185
58252W        W30677  35.581   5.808   1.388
58253W        W30678   2.304  38.469  14.801
58254W        W30679  22.566  16.783  10.497
58255W        W30680   4.446  12.262  13.970
58256W        W30681  29.123  39.698   4.480
58257W        W30682  11.220   3.870  13.054
58258W        W30683  39.745  11.146  11.058
58259W        W30684  41.722  16.564   4.592
58260W        W30685  37.586  37.897  11.105
58261W        W30686  43.517  24.199   4.641
58262W        W30687  12.294   2.856   0.738
58263W        W30688   0.417  35.116   2.222
58264W        W30689  13.345   2.021   1.286
58265W        W30690   4.261   9.326   0.378
58266W        W30691  27.703  19.388   2.319
58267W        W30692  13.655  43.035  11.624
58268W        W30693  20.728  16.422   0.469
58269W        W30694   7.191  36.470  12.783
58270W        W30695  40.224  20.546  13.420
58271W        W30696  13.766  29.440  13.010
58272W        W30697   8.763  30.699  11.468
58273W        W30698  39.930  37.057  12.053
58274W        W30699  28.533   3.434   2.704
58275W        W30700  26.920  28.609   0.752
58276W        W30701  27.451   5.313   1.224
58277W        W30702  19.521  21.855  14.709
58278W        W30703  35.031  18.220  12.168
58279W        W30704   5.042  30.872   4.141
58280W        W30705   9.355  23.334  11.174
58281W        W30706  17.685   9.248   3.834
58282W        W30707  36.564  28.517  11.009
58283W        W30708  19.062   6.857   0.135
58284W        W30709  29.897  17.014  11.501
58285W        W30710  29.866   8.712  11.897
58286W        W30711  44.653   6.862  11.612
58287W        W30712  43.777  11.888  10.552
58288W        W30713  44.794  38.502   1.219
58289W        W30714   2.068  37.129  10.570
58290W        W30715  40.286  23.097   3.565
58291W        W30716  23.500  21.699  10.832
58292W        W30717  28.732  35.069  12.097
58293W        W30718  42.838  18.182  11.856
58294W        W30719  22.693   2.968   0.277
58295W        W30720  19.750  29.022   1.565
58296W        W30721  24.947  32.507  10.133
58297W        W30722  10.201  22.178   0.646
58298W        W30723  38.864  38.891   1.906
58299W        W30724   1.269  23.293  14.335
58300W        W30725  21.787   0.298  11.991
58301W        W30726  39.777  34.380   1.288
58302W        W30727  12.552  12.651  10.767
58303W        W30728  44.345  24.150   0.422
58304W        W30729  39.083   1.766  11.167
58305W        W30730  43.904  23.625  12.992
58306W        W30731  32.111   2.679  14.132
58307W        W30732   1.770   3.755   3.862
58308W        W30733  39.630  44.287  14.979
58309W        W30734  33.822  37.596  10.645
58310W        W30735  39.601  13.885  11.720
58311W        W30736  26.505   2.474   3.301
58312W        W30737  32.474  20.274  14.230
58313W        W30738  35.422  35.942   0.222
58314W        W30739  40.281  19.270   1.794
58315W        W30740  19.205  27.132  12.565
58316W        W30741  40.143  40.031  12.632
58317W        W30742  40.337  33.364   2.870
58318W        W30743  23.958  31.147  14.512
58319W        W30744   8.408  34.787  13.503
58320W        W30745  19.501   1.079   2.729
58321W        W30746   4.764  28.122  10.852
58322W        W30747  34.569  38.185  13.903
58323W        W30748  38.151  13.159   1.196
58324W        W30749  40.965   2.918   1.848
58325W        W30750  30.473  35.981   4.922
58326W        W30751  43.062  38.278   1.922
58327W        W30752  44.182   1.006   4.293
58328W        W30753   6.239  20.090   0.396
58329W        W30754  26.758  18.272   1.286
58330W        W30755  18.080  16.179  13.054
58331W        W30756  26.219  15.277  13.203
58332W        W30757   5.816  17.381   2.849
58333W        W30758  16.199  34.489   4.538
58334W        W30759  16.538  33.398  12.823
58335W        W30760  40.962   3.820   1.832
58336W        W30761  16.558   0.442  12.123
58337W        W30762  15.309  13.680   2.806
58338W        W30763  41.750  24.503  10.673
58339W        W30764  43.981  36.905  11.384
58340W        W30765  21.003  41.218  10.189
58341W        W30766  34.395  28.211  11.975
58342W        W30767   8.102   9.818   0.944
58343W        W30768  18.612  34.045  13.000
58344W        W30769  40.853   1.696  11.141
58345W        W30770  29.416  11.038  11.255
58346W        W30771  24.332   0.239  14.882
58347W        W30772  42.737  36.092   3.757
58348W        W30773   1.994  10.670  11.470
58349W        W30774  35.905  42.982   0.744
58350W        W30775  30.078  26.148   1.784
58351W        W30776  10.386  43.813   2.803
58352W        W30777  31.237  26.605   4.176
58353W        W30778   2.854  29.586  10.714
58354W        W30779  35.973  37.979  12.664
58355W        W30780   3.930   9.387   4.550
58356W        W30781   5.835  10.144   0.956
58357W        W30782  37.088  28.294   3.620
58358W        W30783  29.487  32.741   1.529
58359W        W30784   0.789  37.400   3.743
58360W        W30785  29.019  33.052   0.468
58361W        W30786  44.455  18.529   4.100
58362W        W30787  26.252  34.578  10.662
58363W        W30788   4.500  25.990  14.374
58364W        W30789  18.271  20.031   1.919
58365W        W30790   2.913   3.500   3.909
58366W        W30791   5.976  31.011   0.406
58367W        W30792  31.158   8.278   1.461
58368W        W30793  21.197  28.481  14.141
58369W        W30794  18.017  23.733  11.688
58370W        W30795  31.555   8.287  13.982
58371W        W30796   6.979  34.091  13.114
58372W        W30797   2.262  20.112   2.138
58373W        W30798  19.598  42.626   3.105
58374W        W30799  18.536  30.234   1.822
58375W        W30800   8.572  40.745  12.964
58376W        W30801  17.513  34.907  14.897
58377W        W30802   0.553   9.099   2.124
58378W        W30803  36.662  44.379  12.018
58379W        W30804  32.946   8.084  11.138
58380W        W30805  42.899  16.177   2.215
58381W        W30806   6.835  23.026   1.880
58382W        W30807  26.684  21.714   1.706
58383W        W30808  20.664  18.792  11.637
58384W        W30809   8.383  44.292  12.106
58385W        W30810  36.319  14.787  13.869
58386W        W30811  34.118   1.647   3.199
58387W        W30812  24.186  29.128   4.827
58388W        W30813  36.523   5.992   4.235
58389W        W30814  16.739  15.195  11.662
58390W        W30815  23.678  36.853  14.617
58391W        W30816  28.107   9.763   0.205
58392W        W30817  39.394  15.055   1.777
58393W        W30818  19.132  44.331  13.566
58394W        W30819  27.869  19.696  14.397
58395W        W30820   3.807  18.937   4.629
58396W        W30821  19.593  44.074  13.512
58397W        W30822  42.668  20.048   2.396
58398W        W30823   0.968  33.076   4.203
58399W        W30824  40.202  14.300  14.841
58400W        W30825  20.859  23.749   4.171
58401W        W30826   1.966  30.006   2.718
58402W        W30827  37.811  20.035   0.666
58403W        W30828  28.495  16.195   4.088
58404W        W30829  32.592  15.286   0.838
58405W        W30830  21.237  18.809  14.916
58406W        W30831  10.748  23.568  10.622
58407W        W30832  17.735  19.207   3.088
58408W        W30833  22.700  40.044  14.474
58409W        W30834   7.206   0.711   2.281
58410W        W30835  26.388  43.333   2.876
58411W        W30836  22.466  16.798   2.438
58412W        W30837  14.455  24.467  11.508
58413W        W30838  19.799  36.946  11.640
58414W        W30839  12.343  15.339   3.325
58415W        W30840  42.086  18.082   5.074
58416W        W30841   1.879   3.469  11.648
58417W        W30842   3.790  40.217   4.789
58418W        W30843  44.458   7.942   1.753
58419W        W30844  13.039  41.963  13.834
58420W        W30845  24.209  13.200  14.048
58421W        W30846  26.207  37.336   3.575
58422W        W30847  35.850   7.175   4.356
58423W        W30848  41.425   5.252   1.483
58424W        W30849  24.497   1.821  14.045
58425W        W30850  44.824  32.192   3.600
58426W        W30851  26.747  13.429   3.545
58427W        W30852   7.414  21.612  14.728
58428W        W30853  22.245  43.897  10.606
58429W        W30854  24.150  26.422   1.452
58430W        W30855   6.721  38.190  14.408
58431W        W30856  38.333   8.732   2.207
58432W        W30857   8.127  20.966   2.842
58433W        W30858   3.330  21.553  14.541
58434W        W30859  22.895  17.669   2.484
58435W        W30860   8.157  28.474   2.485
58436W        W30861  31.502  42.351  14.710
58437W        W30862  12.241  22.792  10.867
58438W        W30863  31.087  44.810   2.285
58439W        W30864  26.503  13.359  13.854
58440W        W30865  18.221  42.029  12.475
58441W        W30866  30.109   4.230  14.978
58442W        W30867  27.753   1.824  13.418
58443W        W30868  11.261  28.400   1.013
58444W        W30869  30.158  25.441  12.125
58445W        W30870  12.171   5.356  13.510
58446W        W30871  39.966  14.669   0.689
58447W        W30872   7.344   5.409   3.316
58448W        W30873  15.666  30.147  12.024
58449W        W30874  21.348  30.505   4.171
58450W        W30875  19.171  16.568  10.672
58451W        W30876  15.175  36.013  14.404
58452W        W30877  43.170   3.007  10.868
58453W        W30878  22.652  43.825  11.561
58454W        W30879  12.296  18.260   2.449
58455W        W30880  29.463  33.412   3.654
58456W        W30881  35.148  27.947  11.632
58457W        W30882  18.099  27.623  14.792
58458W        W30883  34.395  16.611   2.671
58459W        W30884  22.018  38.601  13.308
58460W        W30885  12.465  23.242   0.169
58461W        W30886  10.388  25.967  14.366
58462W        W30887  20.571  16.582   4.332
58463W        W30888  24.756  20.099  12.357
58464W        W30889  19.210  17.783   3.588
58465W        W30890  32.548   3.208  11.152
58466W        W30891  41.393  34.466   1.715
58467W        W30892  34.667  31.613   4.192
58468W        W30893  15.216  16.588   0.854
58469W        W30894  14.138   1.712  12.927
58470W        W30895  40.147  41.719  14.956
58471W        W30896  13.878   1.083   4.081
58472W        W30897  11.346  42.610   4.225
58473W        W30898   4.569  39.831   4.201
58474W        W30899  41.774  13.050  11.304
58475W        W30900  23.773  35.451  14.004
58476W        W30901  31.166  42.559   0.063
58477W        W30902  42.932  39.318   0.918
58478W        W30903  14.661  31.342  12.089
58479W        W30904   1.677   1.694   4.893
58480W        W30905  28.558  10.070   0.760
58481W        W30906  13.100   1.935  10.654
58482W        W30907  18.019  36.911  13.868
58483W        W30908  13.021  43.735  11.987
58484W        W30909  33.760  29.416   3.684
58485W        W30910  23.386  41.820   1.792
58486W        W30911  10.868  12.433   4.901
58487W        W30912  17.156   4.478  11.669
58488W        W30913  10.348  18.740   0.776
58489W        W30914  38.786  31.588   1.592
58490W        W30915  40.581  39.743  10.883
58491W        W30916   5.283   8.028   1.873
58492W        W30917  32.372  40.905  13.909
58493W        W30918  37.121  36.185  14.844
58494W        W30919  37.810  17.680   2.259
58495W        W30920   8.118  24.220   4.171
58496W        W30921   6.769   1.999   2.695
58497W        W30922  40.499   5.419  12.092
58498W        W30923  36.899  36.000   4.595
58499W        W30924  25.170  31.377  12.758
58500W        W30925  16.044  33.902   4.657
58501W        W30926   3.190  28.474  14.237
58502W        W30927  20.593  26.593   3.296
58503W        W30928  20.300  23.669   1.763
58504W        W30929  38.109  19.706  14.077
58505W        W30930   0.072  18.765  12.078
58506W        W30931  40.696  15.713  12.743
58507W        W30932  14.342  28.366  13.323
58508W        W30933  43.359  25.965   1.839
58509W        W30934  19.752  18.685  12.548
58510W        W30935  41.102  26.120  12.072
58511W        W30936  44.113  36.931   2.817
58512W        W30937  11.053  43.517   4.150
58513W        W30938  13.231  36.029  12.757
58514W        W30939  38.694  37.678  13.023
58515W        W30940  23.147  12.781  11.290
58516W        W30941  36.985  28.666  10.736
58517W        W30942   7.114  15.162   3.197
58518W        W30943   8.167   7.465   0.190
58519W        W30944  32.932  27.443   0.504
58520W        W30945   1.946  33.345  12.113
58521W        W30946  44.762  35.067   0.358
58522W        W30947  27.228  32.597  14.394
58523W        W30948  27.198  18.201  10.600
58524W        W30949  31.263  25.760  11.950
58525W        W30950   1.523  15.550  14.421
58526W        W30951  19.023  21.939  14.863
58527W        W30952  22.717  17.778  12.009
58528W        W30953   8.201  11.608   3.638
58529W        W30954  13.554  19.161  12.274
58530W        W30955   1.065   0.855  14.291
58531W        W30956  30.712  12.950   4.174
58532W        W30957  20.905   2.787   4.941
58533W        W30958  19.802  33.857   1.740
58534W        W30959   4.978  17.793   0.400
58535W        W30960   2.583  10.848  10.673
58536W        W30961  24.932   9.250  10.633
58537W        W30962  36.133  26.531   1.772
58538W        W30963   6.513  10.643   3.232
58539W        W30964  30.667  13.023  14.037
58540W        W30965  18.483  13.748  11.691
58541W        W30966  17.260  11.121   4.499
58542W        W30967  14.717  15.610  14.680
58543W        W30968  17.642  23.166   1.177
58544W        W30969  17.707  33.376   9.869
58545W        W30970  41.298  16.811  11.570
58546W        W30971   6.776  21.170   3.201
58547W        W30972   1.495  22.121   3.189
58548W        W30973  40.825  10.654   3.289
58549W        W30974  14.739  29.634   1.655
58550W        W30975  41.143  25.501   2.700
58551W        W30976  12.243  41.528   4.238
58552W        W30977  28.943   7.117  12.837
58553W        W30978   8.187  32.585  10.667
58554W        W30979  10.362  42.368  11.623
58555W        W30980   3.786  34.388   3.771
58556W        W30981  44.076  28.041   1.282
58557W        W30982  22.499  43.479  14.043
58558W        W30983  30.074  14.972  14.050
58559W        W30984  22.006  37.559   4.024
58560W        W30985  13.694   9.946   1.685
58561W        W30986  34.175   5.119   0.907
58562W        W30987  16.771  44.337  11.567
58563W        W30988  33.656  31.192   1.801
58564W        W30989  29.446  22.748  11.198
58565W        W30990  25.055  42.453  10.826
58566W        W30991   8.686  31.846   4.243
58567W        W30992  34.099  21.423  14.052
58568W        W30993   2.033   8.396  12.634
58569W        W30994   6.711  17.717   1.250
58570W        W30995  32.426  20.723   3.633
58571W        W30996  12.683  11.859  14.097
58572W        W30997   5.835  25.634   2.848
58573W        W30998  24.607   2.349  10.909
58574W        W30999  34.126  11.452  11.072
58575W        W31000  41.072  35.607  14.722
58576W        W31001   0.396   3.238  10.772
58577W        W31002  26.418  44.959   3.221
58578W        W31003  10.686  31.131   0.774
58579W        W31004  43.336  11.204  12.396
58580W        W31005  20.189  28.621  13.589
58581W        W31006  15.172  16.004   2.706
58582W        W31007  26.323  29.367  11.520
58583W        W31008  16.173   2.358  11.681
58584W        W31009   0.762  39.528  12.941
58585W        W31010   3.733  29.211   2.210
58586W        W31011  33.082  30.342  14.312
58587W        W31012  40.992  13.708   3.797
58588W        W31013   7.124  13.648   0.712
58589W        W31014  15.754  22.785   2.628
58590W        W31015  23.707  17.164  11.813
58591W        W31016  32.329   5.040  13.727
58592W        W31017  11.675  26.034  10.998
58593W        W31018  39.873  38.015   2.797
58594W        W31019  32.409  25.018   1.083
58595W        W31020   5.918  20.193  12.094
58596W        W31021  10.906  26.407  10.994
58597W        W31022   1.084  35.505  13.888
58598W        W31023  17.457  19.123  11.488
58599W        W31024  33.967  22.956  14.965
58600W        W31025  44.224  38.572  13.095
58601W        W31026   0.632  21.091  11.099
58602W        W31027  15.507  43.947   1.900
58603W        W31028  39.427  33.328  11.485
58604W        W31029  22.587  31.412   0.966
58605W        W31030  18.735  27.137  13.017
58606W        W31031   0.223   5.488  11.046
58607W        W31032   0.283  26.105  11.575
58608W        W31033  39.466  40.367  13.495
58609W        W31034  42.896  22.732   3.630
58610W        W31035   1.921  39.060   2.207
58611W        W31036   0.819  29.169   3.627
58612W        W31037  43.525  21.074   2.199
58613W        W31038   3.351  23.893   3.320
58614W        W31039  10.387  19.223   3.853
58615W        W31040  41.983  21.025   3.345
58616W        W31041  41.403  13.345  11.528
58617W        W31042   4.865  21.715  14.429
58618W        W31043  17.161  13.715   0.238
58619W        W31044   8.825  26.166   4.964
58620W        W31045  10.819  33.881  14.949
58621W        W31046   0.010   1.412  14.886
58622W        W31047   2.379  39.788   0.473
58623W        W31048   9.334   6.201  14.337
58624W        W31049  12.750   9.506   2.776
58625W        W31050   0.766  40.488  10.986
58626W        W31051  25.136  24.935   4.139
58627W        W31052  27.928  30.560  11.028
58628W        W31053   2.306   2.399   0.700
58629W        W31054  32.956   7.799   3.224
58630W        W31055  38.770  25.626   1.324
58631W        W31056   6.014   9.207   1.161
58632W        W31057  19.189   9.787   0.252
58633W        W31058   6.720  14.176   3.204
58634W        W31059  31.703  17.891  11.511
58635W        W31060  34.427  38.314  12.175
58636W        W31061   8.813  41.931   0.745
58637W        W31062  32.486  40.036   0.538
58638W        W31063  15.252   8.470   3.137
58639W        W31064  36.576  26.703   2.034
58640W        W31065   5.335  24.511  14.989
58641W        W31066   3.951  40.979   4.541
58642W        W31067   7.350  37.411  13.399
58643W        W31068   2.230  38.785   4.125
58644W        W31069  32.926  27.939   1.370
58645W        W31070  11.310  13.859  10.949
58646W        W31071  36.849  37.182  10.518
58647W        W31072  32.047  17.921  12.465
58648W        W31073  39.624  13.373   1.167
58649W        W31074   2.730   0.324   3.075
58650W        W31075  12.731  16.076  10.636
58651W        W31076  41.705  31.595  13.732
58652W        W31077   1.209  11.387   1.768
58653W        W31078  26.584   7.327   1.762
58654W        W31079  27.728   9.635   3.603
58655W        W31080   3.889   2.379  13.264
58656W        W31081  33.061   3.088  14.050
58657W        W31082  27.030   1.570   2.907
58658W        W31083  24.772  38.957  13.456
58659W        W31084  26.976  37.891  11.543
58660W        W31085  33.454  36.428  11.973
58661W        W31086  27.454  16.196  13.524
58662W        W31087  14.732  14.145  11.432
58663W        W31088  38.623  24.153  13.780
58664W        W31089   9.135  19.558   3.721
58665W        W31090  43.833  16.346   0.271
58666W        W31091  28.692  23.138  13.852
58667W        W31092  42.338  41.232  12.877
58668W        W31093  27.743  27.544  11.927
58669W        W31094  42.489   6.491  11.639
58670W        W31095  42.068  23.124   1.194
58671W        W31096  25.488  13.840   4.046
58672W        W31097  30.978  29.501   4.934
58673W        W31098  22.075  10.199   4.813
58674W        W31099   4.441  42.166   2.828
58675W        W31100  31.506  42.792   4.614
58676W        W31101  10.889  40.642  12.959
58677W        W31102  31.843   9.868   1.246
58678W        W31103  11.033   9.341   4.118
58679W        W31104   8.900  27.232  11.702
58680W        W31105   4.217   7.272   1.277
58681W        W31106   2.908  25.147  11.744
58682W        W31107  22.563  21.288   4.521
58683W        W31108  19.120  28.837   3.776
58684W        W31109   0.407  25.165  13.874
58685W        W31110   9.116  20.146   0.795
58686W        W31111  40.089  10.950   2.803
58687W        W31112  18.051  10.612   3.012
58688W        W31113  27.915  28.688  12.532
58689W        W31114  36.920  43.073  11.133
58690W        W31115  38.406  41.492  12.203
58691W        W31116   9.192  22.266   3.170
58692W        W31117  15.336  10.407   4.172
58693W        W31118  43.357  27.638  14.132
58694W        W31119   8.921  28.641   2.802
58695W        W31120  39.815  25.941   1.827
58696W        W31121  23.963  24.744  12.483
58697W        W31122  33.325   7.155  14.235
58698W        W31123  11.872   2.485   1.505
58699W        W31124  36.499  25.973   1.195
58700W        W31125  10.662  24.967   1.825
58701W        W31126  32.880  24.896   3.627
58702W        W31127   9.638  24.559  11.883
58703W        W31128   3.953  32.599  11.068
58704W        W31129   2.978  18.073  13.346
58705W        W31130   0.549  33.368   2.814
58706W        W31131  29.618  25.199   1.390
58707W        W31132  28.084  30.461   1.818
58708W        W31133  27.151  16.054  14.406
58709W        W31134  34.324  16.104  12.492
58710W        W31135  16.178   9.713  10.845
58711W        W31136  43.279  22.771   4.960
58712W        W31137  13.624   7.262   4.054
58713W        W31138   7.445  42.318   1.706
58714W        W31139   1.292  38.561  14.951
58715W        W31140   0.256  12.793   0.788
58716W        W31141   1.659  40.961  13.319
58717W        W31142  25.740  35.491  12.617
58718W        W31143   6.057  32.882   3.058
58719W        W31144   8.107  37.514   1.200
58720W        W31145   3.101  22.628   0.445
58721W        W31146  37.693  31.462   2.304
58722W        W31147  14.809  24.089   0.426
58723W        W31148   9.806  12.351  12.628
58724W        W31149  40.803  39.958   1.715
58725W        W31150   7.429  18.154   4.256
58726W        W31151  10.560  12.219  14.354
58727W        W31152  22.417  24.723   0.679
58728W        W31153  38.276  16.156   0.353
58729W        W31154  31.560   0.050   2.211
58730W        W31155  44.462  43.262   3.243
58731W        W31156  16.677   0.804  10.671
58732W        W31157   5.943  35.708   0.865
58733W        W31158  21.515  34.561  14.477
58734W        W31159  29.924  36.911   4.662
58735W        W31160  43.296  20.437   3.713
58736W        W31161  24.981  32.818  10.514
58737W        W31162  35.346  25.261  11.219
58738W        W31163  13.247  13.089  14.525
58739W        W31164  32.542   2.975   2.697
58740W        W31165   5.253   0.989  14.243
58741W        W31166  19.216   6.715   0.614
58742W        W31167  38.983  34.078   3.617
58743W        W31168  29.818  31.112   3.170
58744W        W31169  34.455  43.839   2.311
58745W        W31170  39.046  41.493  14.697
58746W        W31171  23.195   3.281  10.659
58747W        W31172   1.388   3.705   4.706
58748W        W31173   5.802  24.061   3.320
58749W        W31174  41.345  43.310  13.813
58750W        W31175  29.224  13.815   0.254
58751W        W31176   4.709  18.312  11.629
58752W        W31177  22.681  29.671   1.439
58753W        W31178  29.779  10.721   2.463
58754W        W31179   7.979  10.364  11.296
58755W        W31180  27.029  32.865   2.431
58756W        W31181   3.300   3.236   3.667
58757W        W31182  42.428   7.995   1.008
58758W        W31183  21.558   6.404   2.089
58759W        W31184  37.585  27.938   2.115
58760W        W31185  22.832  35.571  12.872
58761W        W31186  12.631  33.946   0.035
58762W        W31187   7.352   5.748  12.123
58763W        W31188  42.947  33.466   1.129
58764W        W31189   0.005  24.016  12.064
58765W        W31190  37.742   8.810   3.329
58766W        W31191  43.498  41.438  14.984
58767W        W31192   0.604  33.449   5.035
58768W        W31193  25.501  10.816  14.057
58769W        W31194  12.072  38.976  10.528
58770W        W31195  36.792  27.121   1.790
58771W        W31196  43.590  17.239   2.266
58772W        W31197  11.389  21.452  13.119
58773W        W31198  10.193  37.318  12.328
58774W        W31199  30.735  43.030  13.412
58775W        W31200   4.203  29.453   2.088
58776W        W31201  30.615  37.363   2.225
58777W        W31202  35.914  12.270  14.780
58778W        W31203  19.999   6.414  13.498
58779W        W31204  24.317  21.133  11.460
58780W        W31205  17.947  21.179   3.673
58781W        W31206  16.005  34.102  14.792
58782W        W31207  20.045  31.144   1.334
58783W        W31208  28.920  33.326   0.939
58784W        W31209  21.755   4.414   4.623
58785W        W31210  27.178   0.047   4.400
58786W        W31211   8.175  43.576   0.308
58787W        W31212  12.703  36.622  12.893
58788W        W31213  22.338  43.271  14.493
58789W        W31214   3.365  38.096   3.047
58790W        W31215  28.734  23.875  10.385
58791W        W31216  16.798  27.581  14.324
58792W        W31217   8.772  23.952  14.550
58793W        W31218   5.510  40.358  11.165
58794W        W31219   0.711  19.160   3.207
58795W        W31220  19.540  34.444  10.653
58796W        W31221  29.052  26.198   2.156
58797W        W31222  27.517  33.536   1.042
58798W        W31223  33.726   9.468   2.678
58799W        W31224  36.554   9.958   5.084
58800W        W31225  39.059   9.209   3.181
58801W        W31226  32.576  44.108   1.212
58802W        W31227  22.996  37.058  11.031
58803W        W31228  19.505  26.888   1.748
58804W        W31229  22.554  42.932   4.563
58805W        W31230  30.324  21.521   5.490
58806W        W31231   7.909  21.063  10.692
58807W        W31232   0.212  19.462   3.558
58808W        W31233  29.576  32.375   3.624
58809W        W31234  12.590  23.641  11.542
58810W        W31235  41.018  32.095  12.438
58811W        W31236  34.564  20.648   0.911
58812W        W31237  38.990  19.032   3.197
58813W        W31238  22.501   8.291   4.322
58814W        W31239   1.391  31.834   2.561
58815W        W31240  13.341  41.450   3.556
58816W        W31241  24.418   2.710   1.822
58817W        W31242  11.905   9.768  11.500
58818W        W31243  26.110  12.260   3.735
58819W        W31244   9.582  15.626  10.623
58820W        W31245  24.649  22.939   3.753
58821W        W31246  25.724   7.610   3.146
58822W        W31247   7.599   6.259  10.839
58823W        W31248   7.292  39.154  11.306
58824W        W31249   5.380  10.138   3.152
58825W        W31250  29.899  33.460  14.011
58826W        W31251  34.341  10.348  14.210
58827W        W31252   2.455  25.986   1.817
58828W        W31253  32.923  37.488  14.828
58829W        W31254  19.151  15.070  12.921
58830W        W31255  12.326   8.177  11.942
58831W        W31256   0.496  43.025  14.416
58832W        W31257  13.410   4.362   0.766
58833W        W31258  27.739   2.084   1.396
58834W        W31259   7.676  15.875   5.004
58835W        W31260  15.989  21.222  14.576
58836W        W31261  12.207  26.568  10.544
58837W        W31262   3.746   0.946  14.534
58838W        W31263   7.283  39.443   2.430
58839W        W31264   4.888  35.324   3.716
58840W        W31265  12.386  38.529  10.693
58841W        W31266  25.538  43.514   1.224
58842W        W31267  26.133  43.530   2.448
58843W        W31268  39.528  37.843   1.436
58844W        W31269  14.603  38.461   3.011
58845W        W31270  42.419  10.300  14.346
58846W        W31271  19.593  15.835   0.348
58847W        W31272  14.775  31.484  12.635
58848W        W31273  13.930   2.305  10.652
58849W        W31274  29.988  24.818   3.754
58850W        W31275  10.336  17.696   0.736
58851W        W31276  18.489  35.301   4.976
58852W        W31277  13.374  21.217  10.637
58853W        W31278  32.524   3.846   2.360
58854W        W31279  29.210   1.996  11.117
58855W        W31280  29.668   7.394   0.979
58856W        W31281  16.280  35.388   2.702
58857W        W31282  30.462  24.765  14.301
58858W        W31283  36.979   3.382  12.689
58859W        W31284  22.072  19.504   2.938
58860W        W31285  30.914  32.550  12.037
58861W        W31286  19.331  39.745  12.991
58862W        W31287   4.350  41.227  12.940
58863W        W31288  26.596  13.199  14.388
58864W        W31289  11.660  40.269   3.156
58865W        W31290   3.799  27.682  14.799
58866W        W31291  20.249  34.742  12.521
58867W        W31292  25.765  17.645   3.199
58868W        W31293  10.138  25.909   4.148
58869W        W31294  28.451  11.061   3.152
58870W        W31295  40.634  35.478  10.736
58871W        W31296  19.627  17.808  11.481
58872W        W31297  13.164  11.888  11.135
58873W        W31298   0.298   7.383  13.614
58874W        W31299  38.058  29.642   4.629
58875W        W31300   0.758  28.152   4.611
58876W        W31301   1.308   6.774   3.672
58877W        W31302  24.754  34.159  14.288
58878W        W31303  37.876  42.842   2.978
58879W        W31304  26.706   0.247   0.538
58880W        W31305   6.744  24.759   1.329
58881W        W31306  27.624  25.889  10.501
58882W        W31307  23.458  28.463   1.368
58883W        W31308  25.960  22.427  11.321
58884W        W31309  11.861   9.536  10.229
58885W        W31310  25.141  38.074   2.824
58886W        W31311  25.092  38.029  13.078
58887W        W31312  39.890  32.882   2.146
58888W        W31313  22.013  26.038   0.794
58889W        W31314  21.028  22.980   3.726
58890W        W31315  43.480  40.365  11.548
58891W        W31316  21.651  13.798   3.704
58892W        W31317  23.127  19.623  10.760
58893W        W31318  41.102   8.211   4.530
58894W        W31319  11.357  41.893  11.035
58895W        W31320  19.751  44.184  14.007
58896W        W31321  34.468  11.035  11.108
58897W        W31322  17.297  40.771  12.231
58898W        W31323  31.205  41.058  11.484
58899W        W31324  29.566   3.329  14.572
58900W        W31325  28.714  26.492   2.770
58901W        W31326  25.942  27.673   0.023
58902W        W31327   3.515  34.164  14.124
58903W        W31328  33.050  36.356   1.491
58904W        W31329  25.165   6.966   3.357
58905W        W31330  13.173  13.308  11.396
58906W        W31331  40.891   0.949   4.190
58907W        W31332  40.332  41.287   4.578
58908W        W31333  42.077  17.283  10.850
58909W        W31334   5.668  31.344  11.504
58910W        W31335  12.610  11.709   0.484
58911W        W31336  20.137   0.269  13.410
58912W        W31337  22.222  25.225   3.249
58913W        W31338  41.000  25.001  11.766
58914W        W31339  38.326  44.023  11.539
58915W        W31340  21.099  16.813   2.301
58916W        W31341  36.648   5.044  11.675
58917W        W31342  33.822   6.961  13.476
58918W        W31343  38.089  34.071   0.570
58919W        W31344   6.181  26.456  13.875
58920W        W31345  26.363  24.074   3.631
58921W        W31346  42.078  32.153   1.743
58922W        W31347  44.926  26.980   3.213
58923W        W31348  27.084  19.503   1.676
58924W        W31349  21.677  25.158   5.166
58925W        W31350  11.178  35.255   3.852
58926W        W31351  44.166  22.170  14.352
58927W        W31352   1.426  36.874   2.282
58928W        W31353   8.725  39.276  12.696
58929W        W31354   5.413  23.568  12.240
58930W        W31355   8.854  32.088  13.382
58931W        W31356  19.107   2.442   3.781
58932W        W31357  21.713  30.148  14.838
58933W        W31358   6.737  26.127  13.993
58934W        W31359  15.632   7.735   4.565
58935W        W31360  10.852  10.903   3.809
58936W        W31361  41.816  23.334  13.936
58937W        W31362  20.942  26.291  11.939
58938W        W31363  33.218  41.093  11.218
58939W        W31364  36.770  40.788  12.132
58940W        W31365  36.996   6.026  12.554
58941W        W31366  22.522  34.915  13.430
58942W        W31367  31.587   8.850  11.159
58943W        W31368  41.415  40.543  12.867
58944W        W31369   7.711  20.629   4.741
58945W        W31370  34.351  27.419  11.008
58946W        W31371  12.891  38.381   4.027
58947W        W31372  28.606  26.473  14.368
58948W        W31373  26.577  12.942   5.052
58949W        W31374  33.383  14.501   2.755
58950W        W31375  20.304  19.549  13.126
58951W        W31376  30.460  23.196   0.301
58952W        W31377  29.861   8.759  12.414
58953W        W31378  25.677   9.549   2.687
58954W        W31379  19.306  16.326  14.536
58955W        W31380  16.554   2.797   2.798
58956W        W31381  40.446  26.913   4.682
58957W        W31382  17.353  25.632  14.668
58958W        W31383  38.408  29.162   3.376
58959W        W31384   9.751  23.564   4.866
58960W        W31385  32.167  12.284   1.113
58961W        W31386  38.621  34.450   3.665
58962W        W31387  41.786  11.314  11.025
58963W        W31388  34.919  23.719  10.387
58964W        W31389  20.115  28.235   1.248
58965W        W31390  24.574  12.126  13.061
58966W        W31391  21.751   9.791  12.790
58967W        W31392  41.459   0.213  10.591
58968W        W31393  27.221  32.075  13.418
58969W        W31394  13.085  19.067  14.391
58970W        W31395  23.951  21.224   3.181
58971W        W31396  12.136  21.106  11.180
58972W        W31397   8.299  38.933  12.523
58973W        W31398  32.831  19.751   1.836
58974W        W31399  20.171   8.117   3.658
58975W        W31400  19.633  41.321  11.383
58976W        W31401   7.628   5.737   1.670
58977W        W31402   5.434  22.939  12.899
58978W        W31403   2.629   3.613  12.018
58979W        W31404  30.958  16.088  10.779
58980W        W31405  40.565  14.333  14.451
58981W        W31406  44.011  40.302  12.305
58982W        W31407  31.503  42.031  12.715
58983W        W31408  33.480   4.230  13.229
58984W        W31409   2.796   3.794   1.616
58985W        W31410  11.382   6.770  12.444
58986W        W31411  29.196   8.659  14.107
58987W        W31412  35.800   2.773   2.771
58988W        W31413   7.155   3.669  13.493
58989W        W31414   4.905   8.874   0.386
58990W        W31415  14.754  32.966  13.890
58991W        W31416  23.514   0.057   1.459
58992W        W31417  32.868  14.499   2.668
58993W        W31418  20.159  28.627   2.408
58994W        W31419   4.078  25.526  11.896
58995W        W31420   5.824  10.337   2.995
58996W        W31421  36.169  41.157   3.180
58997W        W31422  35.887  42.479  12.956
58998W        W31423  25.228  16.083   3.308
58999W        W31424  15.069  11.636   0.119
59000W        W31425  30.343  17.962   0.208
59001W        W31426  35.086  39.474   3.401
59002W        W31427  41.493   9.285   0.034
59003W        W31428  23.176  10.152  10.690
59004W        W31429  40.717  43.405  11.076
59005W        W31430  20.046  19.074   3.851
59006W        W31431  38.861   8.723   3.234
59007W        W31432  24.452  37.594  14.364
59008W        W31433  10.660   9.895   2.099
59009W        W31434  16.191  10.867   1.305
59010W        W31435  20.404  29.196  11.390
59011W        W31436  42.216  21.239   2.894
59012W        W31437  22.088   7.739  12.059
59013W        W31438  19.617  40.346   3.755
59014W        W31439  14.527  39.997   3.999
59015W        W31440  10.800  17.814  14.018
59016W        W31441  24.958  11.560   2.079
59017W        W31442   8.041  15.650  13.681
59018W        W31443  42.938  23.234   0.824
59019W        W31444  29.041  37.024  11.633
59020W        W31445  36.099  10.654  11.225
59021W        W31446  21.109  24.122   1.662
59022W        W31447  15.235  40.449   0.489
59023W        W31448   5.747  22.437  10.399
59024W        W31449  42.639  18.831  10.151
59025W        W31450  37.546  38.369  12.904
59026W        W31451   1.175  44.100   9.574
59027W        W31452  12.542  31.727   0.816
59028W        W31453  11.333  44.994   0.719
59029W        W31454  17.133  40.450  13.165
59030W        W31455  27.624  12.613  12.775
59031W        W31456  14.190   5.417   0.658
59032W        W31457  31.654  40.844   5.108
59033W        W31458  35.437  42.152   2.882
59034W        W31459   5.838  41.284   0.775
59035W        W31460  17.702  33.942   9.828
59036W        W31461  37.823  34.462  14.230
59037W        W31462   8.166  38.531   4.414
59038W        W31463  13.850  18.845   0.733
59039W        W31464   1.428  29.669   4.627
59040W        W31465   3.182  40.276  12.839
59041W        W31466  23.246  10.271   3.759
59042W        W31467  16.717  38.454  10.984
59043W        W31468  10.973  22.157  10.673
59044W        W31469  40.885  23.001   9.946
59045W        W31470  17.923  29.084  13.910
59046W        W31471   0.635  19.999  12.787
59047W        W31472  31.363  11.934  11.935
59048W        W31473  36.841  33.656  11.031
59049W        W31474  31.186  43.357   0.484
59050W        W31475  27.313  39.785   3.606
59051W        W31476   1.247   8.486   2.820
59052W        W31477  17.161  13.493  11.610
59053W        W31478  33.817  15.631   1.855
59054W        W31479  36.185  28.231  14.434
59055W        W31480   4.970  12.086   2.692
59056W        W31481   7.431  29.223  11.132
59057W        W31482  36.294   8.830  11.024
59058W        W31483  15.530  13.728  11.059
59059W        W31484  37.470  37.959   0.648
59060W        W31485   7.082   1.898  12.119
59061W        W31486  36.796  14.134   3.161
59062W        W31487   6.247   2.744   4.454
59063W        W31488  37.774  11.793  12.971
59064W        W31489  36.379  23.097   3.703
59065W        W31490  19.476  15.838  13.509
59066W        W31491   6.319  24.616   1.952
59067W        W31492  43.830  15.867   4.154
59068W        W31493  22.565  17.779  13.925
59069W        W31494  34.604  36.733   4.602
59070W        W31495  29.476   2.341   0.321
59071W        W31496   1.771  10.606   0.747
59072W        W31497  30.630  14.242  13.186
59073W        W31498  21.555  40.512   2.883
59074W        W31499  26.526  31.389   0.878
59075W        W31500  31.655  12.689  11.155
59076W        W31501   6.453   3.405   0.135
59077W        W31502  17.938  19.569   4.792
59078W        W31503  19.572  44.966  12.826
59079W        W31504   6.416  32.443   1.662
59080W        W31505  26.442  32.194   1.353
59081W        W31506   3.013  36.532   1.239
59082W        W31507  30.973  19.110   0.772
59083W        W31508   6.542  43.006  12.463
59084W        W31509  16.006  37.114  13.867
59085W        W31510   6.192   2.783  13.863
59086W        W31511  16.692  22.740   3.227
59087W        W31512  40.041  15.363  12.514
59088W        W31513   1.294  41.684   2.180
59089W        W31514  44.055  31.224   5.551
59090W        W31515  32.888  34.586  10.696
59091W        W31516  14.306  38.134   1.379
59092W        W31517  15.877  11.817   1.355
59093W        W31518  18.628  21.836   1.868
59094W        W31519  27.501   1.382   2.181
59095W        W31520  35.557   6.842  10.143
59096W        W31521   6.437  41.053  11.514
59097W        W31522  41.980  11.746  10.708
59098W        W31523  18.223  17.626  10.646
59099W        W31524  26.805   3.935   2.712
59100W        W31525  32.537  20.003   0.714
59101W        W31526  44.175  15.064   4.081
59102W        W31527  40.989  40.892  13.973
59103W        W31528  38.930  21.276  13.379
59104W        W31529  43.798   4.713  10.720
59105W        W31530  20.179  26.866   3.869
59106W        W31531  16.301  18.730   1.233
59107W        W31532   7.607  16.974  11.825
59108W        W31533  15.834   8.077  13.553
59109W        W31534  16.560  34.848   2.299
59110W        W31535  28.001  32.577  10.576
59111W        W31536  20.712  21.524   4.452
59112W        W31537  15.008  43.373  14.380
59113W        W31538  34.310  24.513   4.388
59114W        W31539  10.741  16.336   2.422
59115W        W31540  15.649  29.089  14.498
59116W        W31541  28.588  18.213  11.105
59117W        W31542  42.115   3.897  10.670
59118W        W31543  39.078  26.119  13.875
59119W        W31544  20.759   8.744   1.964
59120W        W31545  31.848   4.121  14.313
59121W        W31546   1.349  16.244   4.359
59122W        W31547  22.921  35.764   3.248
59123W        W31548  16.185  16.356   3.207
59124W        W31549   9.497  37.413  14.469
59125W        W31550  35.427   2.332   1.841
59126W        W31551  40.673   1.746  14.705
59127W        W31552  11.471  25.477  12.800
59128W        W31553  26.804  11.509  13.422
59129W        W31554  18.250  36.327  10.421
59130W        W31555   5.997  12.007   0.010
59131W        W31556  42.459  18.019   0.377
59132W        W31557  29.425   3.278   3.184
59133W        W31558   8.255  39.407   0.822
59134W        W31559  37.985  43.751   1.257
59135W        W31560  15.456  19.277   4.095
59136W        W31561   5.815  29.343  13.668
59137W        W31562   5.331  29.350  11.080
59138W        W31563  23.271  14.560   1.452
59139W        W31564  11.526  40.980  14.210
59140W        W31565  19.825  39.797  13.902
59141W        W31566   3.210  33.185   3.329
59142W        W31567  16.669  18.668   4.815
59143W        W31568  40.303  43.249   1.236
59144W        W31569  17.691  12.852   4.238
59145W        W31570  25.007  27.471   0.043
59146W        W31571  27.262   1.642  13.417
59147W        W31572  14.591  36.711   1.330
59148W        W31573  34.584  26.318   3.274
59149W        W31574  28.563  28.661   3.779
59150W        W31575  23.418   4.355  10.802
59151W        W31576  15.753   2.915   4.525
59152W        W31577   8.917   0.067  13.788
59153W        W31578  36.565   8.807  11.480
59154W        W31579  18.077  23.721   2.167
59155W        W31580  38.555   7.417   0.812
59156W        W31581  21.183  44.301  10.820
59157W        W31582  35.834   0.219  12.066
59158W        W31583  39.098  41.194   2.359
59159W        W31584  19.906   9.322   0.729
59160W        W31585  39.530  12.005   0.725
59161W        W31586  12.725  43.847   0.055
59162W        W31587   0.214   4.353  14.172
59163W        W31588  35.872  24.011   1.868
59164W        W31589  19.097   6.290   0.890
59165W        W31590   5.414  18.722  11.631
59166W        W31591   1.047  38.669  13.467
59167W        W31592  29.109  17.143  12.415
59168W        W31593  31.181  17.747   3.035
59169W        W31594  41.498   0.728  13.108
59170W        W31595  39.299  43.969   2.656
59171W        W31596  20.159  41.419   2.219
59172W        W31597  44.517  11.590  10.375
59173W        W31598  13.640  12.923   3.686
59174W        W31599  27.458  35.768   0.308
59175W        W31600  13.810  44.906  12.093
59176W        W31601  15.277  27.524   0.716
59177W        W31602  15.186  10.722   4.578
59178W        W31603  10.206   9.360   2.093
59179W        W31604  38.576  11.986   5.118
59180W        W31605  12.261  29.714  10.941
59181W        W31606   5.157  21.178   2.626
59182W        W31607   9.212  12.624  12.672
59183W        W31608   8.606  43.346  14.623
59184W        W31609  39.933  11.334  14.303
59185W        W31610  33.319  36.542   3.644
59186W        W31611   3.922  19.496   1.710
59187W        W31612  34.675  32.379  12.496
59188W        W31613  42.563  33.080   1.845
59189W        W31614  35.924  15.130  11.109
59190W        W31615  35.324   6.128  14.547
59191W        W31616  31.528  28.048   3.554
59192W        W31617   2.944  37.970  14.901
59193W        W31618  34.132  39.461   3.385
59194W        W31619  21.917  39.810  11.074
59195W        W31620   0.082  13.189   4.233
59196W        W31621  32.892  27.374   3.691
59197W        W31622   7.735   5.424  14.746
59198W        W31623  16.497  37.859  11.068
59199W        W31624   6.467  25.141   3.226
59200W        W31625   1.741  12.727   2.727
59201W        W31626   2.048   0.457  14.805
59202W        W31627  23.613  41.734   3.030
59203W        W31628  41.057  20.597  14.895
59204W        W31629  43.497  39.687  12.022
59205W        W31630  16.357  31.338  13.898
59206W        W31631  36.950  17.242  11.989
59207W        W31632  30.460  24.548  12.297
59208W        W31633  38.265  19.097   0.904
59209W        W31634  44.877  23.812  11.565
59210W        W31635  38.543   6.218   0.233
59211W        W31636  20.809  26.242   5.354
59212W        W31637   5.256  14.173   0.005
59213W        W31638   0.260  17.342   0.716
59214W        W31639  17.240   6.175  10.574
59215W        W31640  27.056   8.378  11.544
59216W        W31641  31.586  15.919   0.365
59217W        W31642  15.047  38.528   3.591
59218W        W31643  16.668   9.906  13.070
59219W        W31644  25.421  41.763   4.080
59220W        W31645  15.166  18.561   4.587
59221W        W31646  41.839   3.159   1.932
59222W        W31647   7.433  19.809  12.930
59223W        W31648   6.757   6.393   1.780
59224W        W31649  20.562  40.425   3.664
59225W        W31650   2.287   2.490  14.257
59226W        W31651  22.745  19.812  12.893
59227W        W31652  30.906  13.441   1.642
59228W        W31653   4.995  17.412  11.274
59229W        W31654  30.102   7.587   1.970
59230W        W31655  27.485  25.445  10.770
59231W        W31656  37.973  35.572  13.269
59232W        W31657  34.420   8.732  12.031
59233W        W31658  38.141  40.597   4.107
59234W        W31659  43.758   8.584   2.270
59235W        W31660  34.225  10.884   1.425
59236W        W31661  26.837   9.284  11.103
59237W        W31662   8.793   9.944  10.838
59238W        W31663  12.105  10.839  13.393
59239W        W31664   4.934   1.885   1.510
59240W        W31665  25.041  13.659   2.306
59241W        W31666  31.056  32.175   0.835
59242W        W31667  29.086   8.614   0.961
59243W        W31668  31.182  35.551  11.117
59244W        W31669  37.770   4.617  14.891
59245W        W31670   1.231  31.917  13.004
59246W        W31671   3.858  14.823  12.572
59247W        W31672  29.471  34.926   0.419
59248W        W31673   0.360  18.134   1.754
59249W        W31674  22.086  19.203   1.163
59250W        W31675  34.909  21.233   3.060
59251W        W31676  26.533   5.192  12.928
59252W        W31677  26.297   2.415  12.165
59253W        W31678  12.101  28.974  12.041
59254W        W31679  10.955  20.052  12.874
59255W        W31680  35.076  22.282   2.302
59256W        W31681  37.336  24.622   0.035
59257W        W31682  29.517  18.649   3.428
59258W        W31683   8.844   2.260   3.128
59259W        W31684  35.863  13.745   1.335
59260W        W31685   4.307  30.185   3.225
59261W        W31686  29.416  19.296   4.470
59262W        W31687  40.349  10.138   1.947
59263W        W31688  21.310  15.160  12.038
59264W        W31689  40.261   0.435  10.693
59265W        W31690  38.495  24.553  11.583
59266W        W31691  16.285  11.419   3.444
59267W        W31692  30.600   8.215  11.459
59268W        W31693  14.586  14.690  12.324
59269W        W31694  20.262  32.062  10.731
59270W        W31695  38.267  16.912   1.267
59271W        W31696  12.373   5.473  12.931
59272W        W31697   6.702  37.173  10.766
59273W        W31698  39.161  35.380  11.095
59274W        W31699  16.829   4.525  12.914
59275W        W31700  31.010   3.341   1.719
59276W        W31701   4.480  10.587  10.880
59277W        W31702   8.826  21.301   4.096
59278W        W31703  24.046  18.091   5.045
59279W        W31704  37.786  21.028   0.365
59280W        W31705  40.763  10.263  14.835
59281W        W31706  16.563   9.016   3.718
59282W        W31707  10.307  33.902   2.308
59283W        W31708  29.290  10.583  14.868
59284W        W31709  12.812  17.189  13.029
59285W        W31710  15.557   1.776   0.217
59286W        W31711   9.675  39.923   4.137
59287W        W31712  15.419   2.901  11.572
59288W        W31713  28.148  17.251   9.974
59289W        W31714  20.229  19.578  10.169
59290W        W31715  26.420  15.784  10.637
59291W        W31716  39.372  13.094   3.791
59292W        W31717   0.845   2.790   1.817
59293W        W31718  22.178   0.686   0.283
59294W        W31719  37.879   4.341  13.481
59295W        W31720  19.130  15.699   3.833
59296W        W31721  24.966  21.661  10.787
59297W        W31722  41.103  17.959   1.644
59298W        W31723  28.582  17.207  10.991
59299W        W31724  41.824   6.463   0.312
59300W        W31725  35.911   8.109  12.414
59301W        W31726   6.243  20.509   4.782
59302W        W31727  25.417   0.960  12.431
59303W        W31728  32.603  16.131  11.149
59304W        W31729   8.728  34.320  12.916
59305W        W31730  41.383  24.796   0.716
59306W        W31731   8.591  13.207   1.687
59307W        W31732  17.670  21.678  14.006
59308W        W31733  33.853  12.839   2.372
59309W        W31734  42.191  29.500  11.489
59310W        W31735  10.423  12.174   4.929
59311W        W31736  36.982  34.898   3.639
59312W        W31737   3.007  17.274   1.544
59313W        W31738  26.034  21.417   3.068
59314W        W31739  36.300   2.664   2.704
59315W        W31740   3.992  35.826   1.892
59316W        W31741  27.317  18.216  11.466
59317W        W31742  43.339   0.245  12.010
59318W        W31743  15.786   5.866   3.593
59319W        W31744  29.537  11.320   1.901
59320W        W31745  22.229   3.322   0.955
59321W        W31746  17.179  20.088   0.782
59322W        W31747   7.349  19.685  11.521
59323W        W31748  34.072  35.620   0.802
59324W        W31749  13.837  20.721   2.547
59325W        W31750   2.871  30.507   4.035
59326W        W31751  37.449  17.050   1.262
59327W        W31752   0.567  15.174  11.086
59328W        W31753  44.048  35.444  11.185
59329W        W31754   9.718  10.786   1.443
59330W        W31755   5.295  23.478   0.016
59331W        W31756  37.385  37.256   2.933
59332W        W31757  30.651  38.423   2.776
59333W        W31758   4.313  33.512   0.486
59334W        W31759  21.208  17.552  10.997
59335W        W31760  25.541   4.472   0.378
59336W        W31761   2.228   8.640   3.247
59337W        W31762  36.448  24.939   1.251
59338W        W31763  37.099  37.981   0.288
59339W        W31764  23.543  14.049   2.298
59340W        W31765  15.378  23.412  14.904
59341W        W31766  27.672   6.268   0.214
59342W        W31767  31.627  13.609  11.173
59343W        W31768  42.829  27.192   0.938
59344W        W31769  29.998  25.681  14.451
59345W        W31770  32.279  40.021   4.122
59346W        W31771  21.536  42.814   4.212
59347W        W31772   4.182   1.744   1.734
59348W        W31773   0.812   7.896  14.057
59349W        W31774  39.518  25.877  12.951
59350W        W31775  31.980  38.708   4.685
59351W        W31776  18.742  39.208  11.874
59352W        W31777   7.265  23.598  10.864
59353W        W31778   1.492  33.848  14.637
59354W        W31779   4.832  11.179  12.053
59355W        W31780  19.815   6.476  14.409
59356W        W31781  14.723  20.474   4.059
59357W        W31782  24.078  20.726   0.347
59358W        W31783  14.248  42.740  14.233
59359W        W31784  14.162  34.061   0.809
59360W        W31785  40.551  21.445   0.351
59361W        W31786   9.639  40.867  11.453
59362W        W31787  19.143  26.722  14.383
59363W        W31788   7.718  36.485  14.005
59364W        W31789   0.485  15.732   4.990
59365W        W31790  35.464   5.716  10.788
59366W        W31791  24.755  31.983  11.613
59367W        W31792   0.823  11.866   1.753
59368W        W31793   6.404  44.773   2.791
59369W        W31794  24.645  27.336  11.164
59370W        W31795  23.057  27.395   4.309
59371W        W31796   7.836  10.401   5.095
59372W        W31797  26.668   7.263   4.837
59373W        W31798  27.092  17.946   4.101
59374W        W31799  14.307  15.642  13.320
59375W        W31800  10.414  24.603  11.584
59376W        W31801  34.652  14.354   0.283
59377W        W31802  17.486  29.607  10.647
59378W        W31803  40.930   4.644  12.766
59379W        W31804  37.100  35.428   3.819
59380W        W31805  10.148  23.560   0.572
59381W        W31806   6.926  12.213  12.402
59382W        W31807  15.505  25.133   3.700
59383W        W31808   3.234  37.443   1.170
59384W        W31809  36.520  12.725   4.091
59385W        W31810   2.887   8.632   0.749
59386W        W31811   8.135  14.674  13.358
59387W        W31812  22.220  27.599   2.264
59388W        W31813  28.116  31.402   0.941
59389W        W31814   9.670  22.244   3.412
59390W        W31815  36.307  33.027  11.491
59391W        W31816  34.793  16.834  13.863
59392W        W31817  10.609   1.783  10.375
59393W        W31818  33.647  30.931   4.560
59394W        W31819   2.445   0.513   2.667
59395W        W31820  19.309  27.779   3.758
59396W        W31821  19.404  42.531   1.908
59397W        W31822  15.722  34.478   1.207
59398W        W31823  13.533  13.311   4.613
59399W        W31824  22.755  13.711   0.284
59400W        W31825   7.387  15.078  13.755
59401W        W31826  25.659  26.415  11.031
59402W        W31827  20.586  31.132  12.968
59403W        W31828  35.058  21.520  11.441
59404W        W31829  15.630  40.254   0.801
59405W        W31830  35.428  18.254   3.328
59406W        W31831  21.680   8.841   2.799
59407W        W31832   1.797  14.335  12.990
59408W        W31833  26.114  16.323   0.896
59409W        W31834  43.458   0.208   4.224
59410W        W31835  39.399  15.380   2.220
59411W        W31836   3.784  33.577  12.003
59412W        W31837  40.303  31.145   1.694
59413W        W31838  14.733  32.483  12.093
59414W        W31839   9.682  35.285  12.865
59415W        W31840  12.312  18.209  12.034
59416W        W31841   5.579  12.528  11.903
59417W        W31842  18.690  16.164   3.171
59418W        W31843   3.699  19.047   0.123
59419W        W31844  38.100   6.518  14.000
59420W        W31845  13.199  25.693   2.913
59421W        W31846  35.653  31.383   0.153
59422W        W31847  38.188  21.604   4.544
59423W        W31848  32.672  21.547  10.593
59424W        W31849  33.088  21.951   3.333
59425W        W31850  17.933  27.787  10.691
59426W        W31851  13.161   1.810  11.650
59427W        W31852  13.235  24.166   2.134
59428W        W31853  28.571  41.029  11.277
59429W        W31854  34.406  31.880  13.357
59430W        W31855  34.086   9.100   2.710
59431W        W31856  15.144  11.554  14.137
59432W        W31857  35.992   0.076   0.544
59433W        W31858  38.865   3.354   1.903
59434W        W31859  29.588  40.992  13.900
59435W        W31860   6.129  39.364   0.624
59436W        W31861  37.821  33.082  11.566
59437W        W31862  13.031   7.848  10.758
59438W        W31863  26.103  43.384  13.639
59439W        W31864  29.524  40.728  13.455
59440W        W31865   7.394  36.873   3.484
59441W        W31866  19.284  19.467   3.267
59442W        W31867   1.009  15.523  11.908
59443W        W31868  44.468   6.052  13.490
59444W        W31869  22.566  26.221  14.876
59445W        W31870  39.483  38.046  10.782
59446W        W31871  26.005  34.885   2.811
59447W        W31872  19.759  10.597  14.526
59448W        W31873  17.397  24.973  11.581
59449W        W31874  23.464  11.508  12.016
59450W        W31875  44.403  24.995  11.536
59451W        W31876   4.233  25.101   2.898
59452W        W31877   7.437  31.020  12.544
59453W        W31878   4.955  23.947  13.762
59454W        W31879  25.557  13.389   1.698
59455W        W31880  19.198   4.242  13.462
59456W        W31881  13.630  36.023  13.095
59457W        W31882   5.874  35.036  14.050
59458W        W31883  12.698   6.309   4.612
59459W        W31884  43.874  22.127  12.172
59460W        W31885  28.519  31.457   0.381
59461W        W31886   1.974  19.709   3.328
59462W        W31887   7.794  42.604   1.420
59463W        W31888   3.446  35.017   3.628
59464W        W31889  34.235  29.507   3.507
59465W        W31890  22.530  34.934   4.224
59466W        W31891  12.186  19.592   0.752
59467W        W31892  27.610  41.788  14.653
59468W        W31893  40.442  10.725  11.264
59469W        W31894  42.231  10.708   4.928
59470W        W31895  18.614  41.313   3.702
59471W        W31896   5.889  12.684   3.798
59472W        W31897   5.773  21.225   5.102
59473W        W31898  17.468  39.031  13.778
59474W        W31899  23.343   3.169  12.392
59475W        W31900  37.076  24.063   0.894
59476W        W31901  13.395  44.546   0.935
59477W        W31902  26.954   2.424   1.898
59478W        W31903  30.402  10.670   3.119
59479W        W31904  27.065  19.264  14.405
59480W        W31905  20.257  44.374  13.754
59481W        W31906  34.115  21.469  10.393
59482W        W31907  19.828   8.380   0.722
59483W        W31908  26.970  12.809   3.710
59484W        W31909   4.528  16.100   2.916
59485W        W31910  34.608  10.128   4.138
59486W        W31911  18.759  30.825  11.593
59487W        W31912  31.351  14.334   0.413
59488W        W31913  40.602  21.529  13.303
59489W        W31914  23.453  19.131   0.899
59490W        W31915  31.161   1.571  13.798
59491W        W31916  16.717  12.904   0.971
59492W        W31917   2.945  23.513   3.620
59493W        W31918  12.836  27.797   2.863
59494W        W31919   8.791  11.698  14.357
59495W        W31920   1.232  13.360   0.302
59496W        W31921  15.754  28.243   0.863
59497W        W31922  32.000  43.573   1.827
59498W        W31923  23.212  34.908  10.642
59499W        W31924   4.202  39.790   2.848
59500W        W31925   6.037  22.092  10.700
59501W        W31926  22.515  44.808  12.523
59502W        W31927  33.053   1.453   4.783
59503W        W31928  28.454  21.664   5.255
59504W        W31929  19.453   2.888  14.332
59505W        W31930  13.307   5.469  14.978
59506W        W31931  19.509  12.048  14.112
59507W        W31932  41.104  24.739   1.476
59508W        W31933  29.246  40.540   5.102
59509W        W31934  39.293  33.597  11.070
59510W        W31935  24.202  27.481  12.088
59511W        W31936  19.478  41.358   2.420
59512W        W31937  18.253   0.039   0.960
59513W        W31938  16.883  26.546  10.219
59514W        W31939  32.225  27.694  12.510
59515W        W31940  26.078  39.445  11.914
59516W        W31941   2.233   1.774  10.173
59517W        W31942  27.745  43.926  14.836
59518W        W31943  28.228   2.601   4.552
59519W        W31944   6.899   5.437  14.446
59520W        W31945  12.342   6.351  12.656
59521W        W31946  38.587  14.392  13.613
59522W        W31947  34.913  23.604  10.897
59523W        W31948   1.990  37.789  13.109
59524W        W31949  31.494  32.910   4.286
59525W        W31950  40.235  26.086   3.637
59526W        W31951  29.567   4.389   4.128
59527W        W31952   8.066  13.672   2.805
59528W        W31953  29.320   3.902   1.943
59529W        W31954   8.167  44.759  12.119
59530W        W31955   4.914  13.691  14.266
59531W        W31956  17.754  24.067   0.381
59532W        W31957  22.268  34.932   0.372
59533W        W31958   9.423  35.174   2.269
59534W        W31959  10.821  32.954  10.638
59535W        W31960   3.066  11.016   3.708
59536W        W31961   1.419  34.149  11.516
59537W        W31962  25.949   7.941  14.596
59538W        W31963  42.376  20.778  14.331
59539W        W31964  14.131  12.275   3.910
59540W        W31965  14.783  36.153  14.803
59541W        W31966   4.521   2.282   4.588
59542W        W31967  44.327   8.484   3.685
59543W        W31968  30.475  33.407  11.671
59544W        W31969  44.872   9.851   3.603
59545W        W31970  11.938  32.614   1.717
59546W        W31971   5.911  43.727   2.274
59547W        W31972  23.223  33.872  13.303
59548W        W31973  43.893  30.505   1.077
59549W        W31974   1.022  25.024  14.924
59550W        W31975  15.116  12.738  14.935
59551W        W31976  25.049  10.406  11.849
59552W        W31977  14.696  44.389   1.375
59553W        W31978   0.794  21.058  11.598
59554W        W31979  26.848  37.941   4.596
59555W        W31980  12.826  38.648  11.630
59556W        W31981   7.288  18.888   1.238
59557W        W31982  19.793  18.297   4.234
59558W        W31983  15.233  42.740  11.577
59559W        W31984  26.014  42.866   3.769
59560W        W31985  26.577  24.137   1.343
59561W        W31986  13.778   8.873   1.868
59562W        W31987  30.354  15.321   0.322
59563W        W31988  30.548  17.640  14.854
59564W        W31989  40.458  23.992   4.079
59565W        W31990  34.554  36.534  13.886
59566W        W31991  30.192  37.070   2.240
59567W        W31992  36.175   9.271   3.185
59568W        W31993   3.784  24.464   1.862
59569W        W31994   4.345  17.066   3.664
59570W        W31995   9.269  32.168  13.938
59571W        W31996  40.751  10.368   1.692
59572W        W31997  18.156  13.447  12.007
59573W        W31998  27.868  16.712   2.716
59574W        W31999  44.811  38.891   1.939
59575W        W32000  24.207   5.363   3.258
59576W        W32001  36.799  34.903   2.733
59577W        W32002  28.655  44.278   2.209
59578W        W32003  18.452  28.890   2.198
59579W        W32004  37.296  40.940  10.773
59580W        W32005  32.411  40.360  12.999
59581W        W32006  34.497  37.881   4.041
59582W        W32007  41.404   4.255   1.355
59583W        W32008  31.809   0.871   1.141
59584W        W32009  11.355   6.277  11.223
59585W        W32010  16.720  14.162   3.439
59586W        W32011  22.276   2.586   4.107
59587W        W32012  39.285  12.477   0.657
59588W        W32013   0.935  39.104  13.200
59589W        W32014  41.458   2.736  12.464
59590W        W32015   9.496  24.817  14.061
59591W        W32016  21.089   9.040  10.516
59592W        W32017  25.232  19.997  12.540
59593W        W32018   2.805  34.265   0.747
59594W        W32019  25.767   8.250   2.810
59595W        W32020   2.981   6.535  11.510
59596W        W32021  37.778  19.560  14.440
59597W        W32022  26.439  42.384   1.314
59598W        W32023  29.135   5.888  11.562
59599W        W32024  32.025  31.327   4.369
59600W        W32025   7.771  22.881   0.328
59601W        W32026  26.955  10.838   1.425
59602W        W32027  26.931  24.969  10.138
59603W        W32028  39.068  17.341  14.154
59604W        W32029  12.819  25.479   4.883
59605W        W32030  41.457  15.870  14.913
59606W        W32031  35.831  39.000  10.447
59607W        W32032   9.912  40.233  14.478
59608W        W32033  28.149  42.561   2.531
59609W        W32034  44.507  15.977  11.069
59610W        W32035  41.004  26.241   1.316
59611W        W32036  25.565  12.517   2.225
59612W        W32037  27.171   1.514  12.899
59613W        W32038  23.463  28.577   4.130
59614W        W32039  15.143  34.494   4.580
59615W        W32040   0.704   6.439  12.870
59616W        W32041  17.596  29.681  12.962
59617W        W32042  18.522  21.273  11.427
59618W        W32043  17.281   5.451   2.117
59619W        W32044  25.231  37.113   1.883
59620W        W32045  11.870   2.806  14.387
59621W        W32046  33.950  12.736   0.993
59622W        W32047  34.006  12.557  13.452
59623W        W32048  34.547  18.778   2.761
59624W        W32049  40.779   6.429  14.912
59625W        W32050  13.718  13.826  12.507
59626W        W32051  41.000  24.992   1.048
59627W        W32052  27.445   3.855  12.196
59628W        W32053  27.223  12.185  12.411
59629W        W32054  10.058   3.294  14.410
59630W        W32055  17.520  31.935   3.738
59631W        W32056  16.189  41.270   1.322
59632W        W32057  20.165  25.660   2.740
59633W        W32058  13.229  30.244   0.311
59634W        W32059   3.384   0.016   3.646
59635W        W32060  43.983  28.566   3.584
59636W        W32061  40.225  29.994   3.222
59637W        W32062   5.853  38.134   1.300
59638W        W32063   4.201  30.583   4.133
59639W        W32064  13.949  16.413  13.488
59640W        W32065   0.173  24.965  14.819
59641W        W32066  29.464  22.074  12.311
59642W        W32067   8.363  23.754   4.006
59643W        W32068   6.163  23.519   0.968
59644W        W32069  24.208   2.254   0.970
59645W        W32070  16.282  29.967  13.991
59646W        W32071   0.841  44.544  11.189
59647W        W32072   7.658  27.504  11.581
59648W        W32073  29.787   6.878   2.159
59649W        W32074   1.372   7.257   4.631
59650W        W32075  28.123  14.019   3.827
59651W        W32076  44.262  18.233   0.384
59652W        W32077   5.398  31.923  12.069
59653W        W32078  44.729  14.316   0.195
59654W        W32079  27.455   2.326   3.618
59655W        W32080  23.557  39.986  14.057
59656W        W32081  30.064   4.408  13.702
59657W        W32082  44.727  14.166  11.189
59658W        W32083  38.942  10.785   0.280
59659W        W32084  31.835  35.673   3.299
59660W        W32085   0.345  18.911  10.594
59661W        W32086   7.737  30.124  14.984
59662W        W32087  26.949   8.433  14.484
59663W        W32088   6.450  36.361   1.209
59664W        W32089  44.380  41.885   2.906
59665W        W32090  34.116  12.352  11.401
59666W        W32091   9.179  16.100  12.927
59667W        W32092  18.032   3.218  10.352
59668W        W32093  14.318  35.016  10.945
59669W        W32094  18.086  12.105  13.832
59670W        W32095  20.031  19.140   0.457
59671W        W32096  36.566  35.310   1.337
59672W        W32097   6.950   8.703   4.215
59673W        W32098  27.599  10.700   3.132
59674W        W32099  25.499  25.562   4.635
59675W        W32100  14.699  11.167  10.592
59676W        W32101   3.261  34.000   0.886
59677W        W32102  17.313   3.984  10.161
59678W        W32103   2.035  43.988   2.847
59679W        W32104  30.707   1.957  12.359
59680W        W32105  31.117  30.578   4.040
59681W        W32106  11.155   9.201   1.355
59682W        W32107  31.944  28.164   3.983
59683W        W32108   0.354   1.143   3.405
59684W        W32109   9.259   1.159  12.175
59685W        W32110   9.825   9.386   3.831
59686W        W32111   5.858  31.179   3.623
59687W        W32112  14.818  30.358  13.438
59688W        W32113   2.395   9.375   1.001
59689W        W32114   2.070  25.489  10.978
59690W        W32115  24.035  43.548   4.834
59691W        W32116  39.330  44.408  14.572
59692W        W32117  18.104  30.211   0.022
59693W        W32118  32.072  20.981  11.933
59694W        W32119  31.967   5.410   3.618
59695W        W32120   5.834  41.021   2.168
59696W        W32121  31.615  23.783  11.840
59697W        W32122  18.823  38.076   0.917
59698W        W32123  16.376  14.601  11.169
59699W        W32124  19.425   4.026   4.149
59700W        W32125  43.836   1.958   4.598
59701W        W32126   7.601   5.302  13.361
59702W        W32127  12.803   4.675  10.657
59703W        W32128  28.560  34.580  11.134
59704W        W32129  22.215   6.690  13.542
59705W        W32130  44.678  30.978  11.847
59706W        W32131   9.617   7.936   3.287
59707W        W32132  14.502   9.897   3.761
59708W        W32133  32.551  10.658   2.475
59709W        W32134  41.767  37.729  14.984
59710W        W32135  30.179   8.402  11.181
59711W        W32136  28.015  12.684   4.612
59712W        W32137  33.108  15.304  14.227
59713W        W32138  22.480  30.964  14.187
59714W        W32139  37.407  12.004  11.084
59715W        W32140  10.935  24.636   3.423
59716W        W32141   3.934  37.425  13.801
59717W        W32142  26.019   4.906   4.539
59718W        W32143  34.370  40.134   2.877
59719W        W32144  34.956  32.561  11.583
59720W        W32145  23.109  18.173   4.148
59721W        W32146  11.939   9.395   1.794
59722W        W32147  34.590  19.395   0.825
59723W        W32148   8.541  37.091  10.446
59724W        W32149   2.829  20.248  10.607
59725W        W32150  10.259  16.426  14.399
59726W        W32151  19.328  38.571  11.928
59727W        W32152  34.667  44.473   4.202
59728W        W32153  34.857  42.861   2.874
59729W        W32154  36.247  28.192  13.585
59730W        W32155  31.622  16.773   1.458
59731W        W32156   9.714  30.349  12.859
59732W        W32157   2.220   5.897  14.844
59733W        W32158   6.701   9.352   2.797
59734W        W32159  40.551  14.264   1.463
59735W        W32160  24.056   8.168  12.489
59736W        W32161  44.445  40.275  11.154
59737W        W32162  39.906   1.003   0.212
59738W        W32163  23.790   7.822  14.131
59739W        W32164  26.554   5.768  14.949
59740W        W32165   9.162  14.923  12.017
59741W        W32166   3.507   9.944  11.001
59742W        W32167  42.408  15.428   4.566
59743W        W32168  23.826  11.221   3.587
59744W        W32169   3.720  36.887   0.863
59745W        W32170  21.151  38.560   3.844
59746W        W32171  28.979  10.162  14.923
59747W        W32172   0.102   7.125   2.195
59748W        W32173  43.503  29.194  14.697
59749W        W32174  34.106  39.466  11.014
59750W        W32175  17.311  41.354   2.683
59751W        W32176   7.910  42.291  13.087
59752W        W32177  21.116  33.800   4.116
59753W        W32178   8.424  19.063  13.882
59754W        W32179  18.351  26.509   4.264
59755W        W32180  10.840  16.072   1.454
59756W        W32181  43.613  40.323  10.209
59757W        W32182  37.421  17.507   3.174
59758W        W32183  40.898   4.268   1.007
59759W        W32184  16.341  41.586  10.739
59760W        W32185   1.790  37.704   4.281
59761W        W32186   0.805  18.706  10.720
59762W        W32187  26.830  38.915  10.330
59763W        W32188  36.234  14.755  11.364
59764W        W32189   3.475  28.673  10.747
59765W        W32190  22.038  13.298  12.930
59766W        W32191   8.613   4.245  11.012
59767W        W32192  29.678  39.116  10.283
59768W        W32193  20.160   1.017  13.913
59769W        W32194  31.004  27.938   1.791
59770W        W32195   0.728   0.028  12.934
59771W        W32196  32.274   7.152  14.969
59772W        W32197  41.013  42.752  11.441
59773W        W32198  26.664  21.159  10.520
59774W        W32199   5.831   3.398  14.519
59775W        W32200  32.027  17.981  11.935
59776W        W32201  33.381   5.385   1.330
59777W        W32202  20.885   9.637   4.500
59778W        W32203  20.508  37.318   4.114
59779W        W32204  23.152  35.892  12.629
59780W        W32205  26.958  25.030  11.039
59781W        W32206  24.071  18.676   0.480
59782W        W32207  18.059   1.939  12.986
59783W        W32208  15.518   2.854  10.964
59784W        W32209  35.028  10.062  13.303
59785W        W32210  44.700  33.895  11.908
59786W        W32211  33.734   0.252   1.327
59787W        W32212   8.797  33.292  12.745
59788W        W32213  28.130  19.583   2.919
59789W        W32214  25.555  42.284   3.309
59790W        W32215   2.039   4.665   3.842
59791W        W32216  15.332  11.689  11.625
59792W        W32217   6.385  34.453  12.331
59793W        W32218  22.147  36.725   2.601
59794W        W32219  41.892   0.389  13.365
59795W        W32220   2.881  19.287  14.018
59796W        W32221  29.591  31.303   3.703
59797W        W32222  35.102   4.970   3.628
59798W        W32223  28.158  12.040  13.458
59799W        W32224  35.923  27.020   0.439
59800W        W32225  38.946   2.872   2.083
59801W        W32226  22.731  38.706  12.438
59802W        W32227  31.944  16.921  13.889
59803W        W32228  11.738  14.802   1.177
59804W        W32229  24.735  30.436  12.934
59805W        W32230  27.733  39.978   9.741
59806W        W32231   4.402  10.234  14.299
59807W        W32232  29.507  28.447  11.917
59808W        W32233  18.725  14.533  11.065
59809W        W32234  18.133  23.575   3.726
59810W        W32235  38.044  13.032   2.876
59811W        W32236  44.313  42.450  13.191
59812W        W32237  13.723  23.787   4.501
59813W        W32238   9.233  43.345   4.590
59814W        W32239  13.222  28.558  12.407
59815W        W32240  25.176  30.422   1.001
59816W        W32241  14.967  30.750   4.509
59817W        W32242  28.362  38.540   5.042
59818W        W32243  16.464  10.152   2.165
59819W        W32244   2.342  34.594  12.196
59820W        W32245  34.292  22.161   4.506
59821W        W32246   0.283  18.541   3.614
59822W        W32247   7.677   0.789   5.086
59823W        W32248  31.976  18.428  12.478
59824W        W32249  10.363  27.893  12.428
59825W        W32250   2.724  29.405   0.756
59826W        W32251   6.355  22.730  13.764
59827W        W32252  10.385  38.226   3.926
59828W        W32253  33.142   6.417   3.306
59829W        W32254  43.203   0.385  11.134
59830W        W32255   9.849  21.339   1.332
59831W        W32256  35.631   2.822   3.281
59832W        W32257  25.168   8.093   0.218
59833W        W32258  21.338  24.007   1.179
59834W        W32259  36.787  29.540  14.346
59835W        W32260  20.153  18.130  10.703
59836W        W32261  40.875  41.278  11.518
59837W        W32262  43.347  18.455   4.357
59838W        W32263  20.739   3.242   0.484
59839W        W32264  28.957  30.562  13.511
59840W        W32265  27.529  13.829   2.972
59841W        W32266  36.786  20.189  12.026
59842W        W32267  43.393  26.242   2.274
59843W        W32268  22.799  13.071   4.197
59844W        W32269   1.712  32.209  14.076
59845W        W32270   9.473  39.922  13.047
59846W        W32271  43.033  43.230   0.795
59847W        W32272   4.998   6.828  13.572
59848W        W32273  17.301  12.505  11.663
59849W        W32274  26.923  13.200   0.811
59850W        W32275   3.303  37.090  12.024
59851W        W32276  33.988   4.249  13.792
59852W        W32277   8.416  13.378   0.751
59853W        W32278  11.473  27.556  14.330
59854W        W32279  15.745  39.502  14.302
59855W        W32280  12.070  29.047   1.764
59856W        W32281  17.358  17.739   2.305
59857W        W32282  24.573  20.101   2.286
59858W        W32283  36.305   1.459   4.100
59859W        W32284  14.052   5.293   9.585
59860W        W32285  13.241  30.226   1.210
59861W        W32286  12.640  44.594   4.132
59862W        W32287  27.103  18.173   4.569
59863W        W32288   0.253  30.709  13.015
59864W        W32289   3.325  25.755  11.299
59865W        W32290   5.855  12.697  14.397
59866W        W32291   2.943   7.784  13.956
59867W        W32292  35.857  16.510  14.552
59868W        W32293  41.026  40.227  13.043
59869W        W32294  37.470  23.039  10.773
59870W        W32295  12.184   2.135   1.909
59871W        W32296   7.406  14.772  10.722
59872W        W32297  28.267  38.685  10.111
59873W        W32298  20.030   6.140   2.861
59874W        W32299  25.744   1.650  14.522
59875W        W32300  22.187  33.036  14.561
59876W        W32301  40.954  20.327   2.763
59877W        W32302  27.162   9.696  11.101
59878W        W32303  25.039  31.161   4.763
59879W        W32304  20.845  30.587   1.290
59880W        W32305  23.923  44.218   2.341
59881W        W32306  17.332  12.761   1.825
59882W        W32307  40.226  30.397   1.304
59883W        W32308   7.846  28.007  11.562
59884W        W32309  13.211   9.869  14.464
59885W        W32310  29.940   4.278   3.770
59886W        W32311  22.642  42.086  14.420
59887W        W32312  10.055  31.713   0.785
59888W        W32313   2.397  39.710   4.621
59889W        W32314  35.667  26.060   0.940
59890W        W32315  25.409   4.886  12.124
59891W        W32316  16.146  17.328  11.996
59892W        W32317  13.656  34.478  10.385
59893W        W32318  38.774  26.011   1.738
59894W        W32319   4.413  43.452  11.878
59895W        W32320  43.763  35.244  14.844
59896W        W32321   9.926  11.210   0.687
59897W        W32322  19.022  35.341  11.528
59898W        W32323  28.186  42.759   1.733
59899W        W32324  16.799  18.314  11.560
59900W        W32325   6.008  39.261  13.516
59901W        W32326  19.099  26.160   3.007
59902W        W32327  11.789   8.941  12.050
59903W        W32328   2.307  40.907  10.536
59904W        W32329   8.587   7.267  12.076
59905W        W32330  35.311  32.451  11.991
59906W        W32331   2.440  38.012  11.563
59907W        W32332  40.997  21.667  13.905
59908W        W32333   4.823   8.311  10.801
59909W        W32334   9.712  19.103  13.247
59910W        W32335  19.709  17.597   1.925
59911W        W32336  16.320  44.425   3.203
59912W        W32337  26.468  20.152  11.951
59913W        W32338   4.240  33.363  13.570
59914W        W32339  38.407  32.601  10.898
59915W        W32340  34.060   9.648  12.572
59916W        W32341   5.447  34.932   4.075
59917W        W32342  22.680   1.489  10.092
59918W        W32343  33.685   2.244  11.422
59919W        W32344   7.600  30.163  11.923
59920W        W32345  32.011  27.091   1.697
59921W        W32346   8.680  43.357  11.236
59922W        W32347  13.225   5.325   3.751
59923W        W32348   0.320  14.776  13.255
59924W        W32349   6.177  15.291   3.181
59925W        W32350  19.055  12.240   2.260
59926W        W32351  37.433  40.331   0.838
59927W        W32352  34.387  15.932  14.386
59928W        W32353  30.910  31.894   0.452
59929W        W32354  38.666  27.109  12.986
59930W        W32355  38.439  17.336  13.039
59931W        W32356  38.847  39.873  10.159
59932W        W32357   9.039  17.012  12.596
59933W        W32358  22.707   7.533   5.192
59934W        W32359  15.139  19.875  13.020
59935W        W32360  30.640  18.344  13.996
59936W        W32361  22.649   8.850  12.997
59937W        W32362   0.179  30.405   1.691
59938W        W32363  14.733   9.677  14.903
59939W        W32364  12.415  30.475  12.094
59940W        W32365  30.990   3.772  14.969
59941W        W32366   6.720  16.287  14.941
59942W        W32367  29.004   7.276   0.270
59943W        W32368   3.770  41.882   0.249
59944W        W32369   6.560  25.156   5.094
59945W        W32370  28.168  24.984  12.958
59946W        W32371   7.616  44.912  14.903
59947W        W32372  33.924  11.398   2.259
59948W        W32373   7.647  21.751  12.994
59949W        W32374   5.825  33.443  10.442
59950W        W32375  29.053   0.068  14.920
59951W        W32376  30.501  18.150   0.674
59952W        W32377   6.360  29.865   4.633
59953W        W32378  22.701  25.577  13.992
59954W        W32379  13.848  11.137   3.374
59955W        W32380  10.265  18.663  14.425
59956W        W32381   9.560  25.503   3.059
59957W        W32382  41.066  21.306   0.418
59958W        W32383  35.619  28.718   0.830
59959W        W32384  33.099  32.015  11.670
59960W        W32385  20.220  38.090   1.864
59961W        W32386  28.980   5.181  14.541
59962W        W32387  12.986   5.963   3.155
59963W        W32388  19.235  35.595  14.951
59964W        W32389  29.134  42.295  10.244
59965W        W32390  32.376   9.760   4.512
59966W        W32391  32.521  17.642  13.468
59967W        W32392  38.068  28.694   1.746
59968W        W32393  43.758  15.222  11.927
59969W        W32394   7.844  38.950   0.473
59970W        W32395  39.440  31.853   3.612
59971W        W32396   8.226   9.188   1.691
59972W        W32397  26.175   3.304   0.647
59973W        W32398  32.939  14.746   4.603
59974W        W32399  31.608  17.184  10.884
59975W        W32400   0.565  21.517   1.060
59976W        W32401  34.598  17.344  13.047
59977W        W32402  43.959  29.102   4.596
59978W        W32403   9.347  36.039  10.691
59979W        W32404  18.292   2.759   1.468
59980W        W32405  21.561  31.703  11.936
59981W        W32406  29.104  18.707  12.612
59982W        W32407  17.722  16.123  13.528
59983W        W32408  21.754  16.058   0.807
59984W        W32409   9.292   3.934  12.103
59985W        W32410  34.527  20.444   3.247
59986W        W32411  23.686  39.831   1.806
59987W        W32412  32.344  23.476   0.652
59988W        W32413  41.547  26.459  10.685
59989W        W32414  36.548  22.130  14.910
59990W        W32415  28.195  25.609  11.277
59991W        W32416  40.296  22.719  14.827
59992W        W32417  38.960  35.623  14.886
59993W        W32418  28.694   9.837  11.205
59994W        W32419  27.267  31.487  10.189
59995W        W32420  44.963  32.581   0.016
59996W        W32421   5.346  26.945   2.769
59997W        W32422   6.815  32.597   0.276
59998W        W32423   0.418  30.680   1.324
59999W        W32424  25.020   1.123   3.724
60000W        W32425  10.656  12.112   0.462
60001W        W32426  38.902  34.933   0.933
60002W        W32427  12.159   3.953  12.160
60003W        W32428   0.388  19.542  12.667
60004W        W32429  25.194  35.935   2.379
60005W        W32430  41.893  11.843   0.791
60006W        W32431  43.468  26.184   3.156
60007W        W32432  22.014   6.334  12.746
60008W        W32433  28.965  19.189  14.054
60009W        W32434   0.356  15.719   0.957
60010W        W32435  32.687  30.169  13.163
60011W        W32436  25.685  38.859   4.910
60012W        W32437  27.634  33.811  13.906
60013W        W32438  44.822  31.371   4.560
60014W        W32439  40.774  40.747   3.386
60015W        W32440  41.383  11.901   5.001
60016W        W32441  39.868  36.148   2.589
60017W        W32442  39.426  28.244   0.895
60018W        W32443   4.401   8.574   1.658
60019W        W32444  28.594  42.038  12.188
60020W        W32445   5.352   1.656   1.210
60021W        W32446  29.544  15.037  14.237
60022W        W32447  28.680  14.675   2.084
60023W        W32448  14.059  35.891   3.751
60024W        W32449  43.547  37.136   4.707
60025W        W32450  20.029  29.943  13.803
60026W        W32451   8.903  40.101  12.215
60027W        W32452  30.700  10.374  12.881
60028W        W32453  23.245  27.149  14.316
60029W        W32454   9.529  22.285  13.928
60030W        W32455  12.885  42.864   0.766
60031W        W32456   4.446   7.287   0.804
60032W        W32457  14.767  37.710  11.567
60033W        W32458  25.765  12.611  14.060
60034W        W32459  10.840  35.422   2.161
60035W        W32460  16.928   7.377   5.103
60036W        W32461   8.243  39.352  13.463
60037W        W32462  21.290  31.570   2.250
60038W        W32463  33.536  13.520  13.833
60039W        W32464  44.314   0.274   0.582
60040W        W32465  10.333  35.275   0.794
60041W        W32466  14.631  22.170   1.023
60042W        W32467  34.697  32.542   2.861
60043W        W32468   7.112  36.896  10.762
60044W        W32469   0.742  17.365  11.055
60045W        W32470  10.776   3.385  11.933
60046W        W32471  44.121  44.506   0.244
60047W        W32472  27.075  20.154  13.941
60048W        W32473  42.473  38.409   2.595
60049W        W32474  14.189  44.267   1.914
60050W        W32475  42.955  24.912  10.679
60051W        W32476  35.128  24.059  10.766
60052W        W32477  41.963   1.734   2.011
60053W        W32478  42.933   3.077   2.931
60054W        W32479  43.001  41.953   3.682
60055W        W32480  24.975   2.682   2.596
60056W        W32481  41.064  38.110   4.174
60057W        W32482  34.889  25.991  12.438
60058W        W32483  34.362  15.130  12.587
60059W        W32484  41.110  31.595   0.393
60060W        W32485  21.032  42.530   1.384
60061W        W32486  36.530  38.788   1.321
60062W        W32487  15.832  26.868  14.648
60063W        W32488  29.569  15.224  14.712
60064W        W32489   9.317  11.783  12.137
60065W        W32490   7.431   1.922   1.732
60066W        W32491  24.123   1.385   1.184
60067W        W32492  16.755   9.166   4.194
60068W        W32493  11.367  13.638  11.429
60069W        W32494  42.283   0.247   2.212
60070W        W32495  26.995   8.351  10.676
60071W        W32496  20.787   6.168   1.219
60072W        W32497   7.642  35.355   4.236
60073W        W32498  30.891  27.643  13.769
60074W        W32499  33.339  10.790  12.044
60075W        W32500  13.691  41.808  13.011
60076W        W32501  10.155  22.938  10.258
60077W        W32502  22.972  25.621  12.204
60078W        W32503   7.374   8.164  14.386
60079W        W32504  19.785  33.041   4.541
60080W        W32505   0.082  27.919   3.247
60081W        W32506  14.701  18.308   0.448
60082W        W32507  12.853   2.567   4.691
60083W        W32508   7.599   0.495  13.558
60084W        W32509   4.388  35.772  14.989
60085W        W32510  14.873  15.521   4.180
60086W        W32511   2.944   5.180   2.160
60087W        W32512  10.929   4.938   2.276
60088W        W32513   9.420  24.925   3.966
60089W        W32514  40.804  28.388   3.076
60090W        W32515  20.528  14.374  13.030
60091W        W32516  29.907  13.271   1.650
60092W        W32517  34.417  34.610   1.952
60093W        W32518  43.267   5.958  14.411
60094W        W32519  24.584  42.339   3.663
60095W        W32520  18.769  15.301  14.375
60096W        W32521  31.388  14.149   2.180
60097W        W32522  31.526  34.036   0.224
60098W        W32523  10.933  19.522  11.291
60099W        W32524  33.537  10.952  14.873
60100W        W32525  17.508  21.069   2.426
60101W        W32526  13.145  28.646   0.167
60102W        W32527  26.810  17.654  14.780
60103W        W32528  20.255  40.385   4.104
60104W        W32529   0.837  41.663  12.265
60105W        W32530  19.355  37.360  13.822
60106W        W32531   7.966   2.341   1.828
60107W        W32532  39.506  14.098   3.046
60108W        W32533  23.506  23.580   3.648
60109W        W32534  31.427  21.661  12.353
60110W        W32535  28.907   0.665   3.592
60111W        W32536   5.176  36.757  14.051
60112W        W32537  23.145  36.794  11.444
60113W        W32538  37.482  44.294   0.475
60114W        W32539  42.903  39.548   4.120
60115W        W32540  27.756  11.812   1.146
60116W        W32541  27.471  37.365  14.439
60117W        W32542   3.351  39.405   3.365
60118W        W32543  11.886  21.004  14.456
60119W        W32544  39.309  29.573  14.466
60120W        W32545   4.328   5.840   3.432
60121W        W32546   4.359   7.511  13.966
60122W        W32547  36.626  10.599   2.383
60123W        W32548  36.449  20.017  13.831
60124W        W32549  25.702  34.702   0.833
60125W        W32550  42.542  33.509  13.477
60126W        W32551  17.736  15.247  11.303
60127W        W32552  29.961  20.768   2.969
60128W        W32553  23.689  23.733   1.415
60129W        W32554  39.975  26.864   0.642
60130W        W32555  40.837  24.720   2.328
60131W        W32556   6.268  36.545  11.940
60132W        W32557  25.017  20.078  13.490
60133W        W32558   5.245  25.713   0.346
60134W        W32559  34.828  19.430   0.344
60135W        W32560   0.428  44.384   2.795
60136W        W32561  34.948  23.191   3.794
60137W        W32562  35.547  35.564   3.635
60138W        W32563   2.730  17.622  10.728
60139W        W32564  43.416  38.760  14.998
60140W        W32565  19.457  34.454   1.488
60141W        W32566   8.209  15.645  10.811
60142W        W32567  20.080  40.560  10.993
60143W        W32568  30.676  17.682  11.530
60144W        W32569  33.689  16.598  11.238
60145W        W32570  26.393   5.726  10.591
60146W        W32571  19.176   1.743   3.184
60147W        W32572  17.256  42.078  11.429
60148W        W32573  12.787  41.571   0.362
60149W        W32574  10.275  17.835  10.141
60150W        W32575  18.518  18.395   0.880
60151W        W32576  22.945  18.689  11.149
60152W        W32577  34.088  27.720   1.408
60153W        W32578  24.478  33.471  14.790
60154W        W32579  16.050  38.298   4.523
60155W        W32580  21.381  21.400  13.854
60156W        W32581  41.656  13.959   2.303
60157W        W32582   0.291   5.371   3.386
60158W        W32583   5.756   2.829  14.211
60159W        W32584   8.340   7.182  10.752
60160W        W32585  24.023  35.950  14.850
60161W        W32586  16.706  25.766   3.487
60162W        W32587  35.667   0.293   0.884
60163W        W32588   9.177  23.654   0.910
60164W        W32589  13.505  42.155  13.862
60165W        W32590  11.856  15.712   1.436
60166W        W32591  24.227  17.534   3.176
60167W        W32592  23.464  27.015   1.799
60168W        W32593  31.547  29.355  11.220
60169W        W32594  11.906   5.140   1.435
60170W        W32595   8.308  40.405   1.863
60171W        W32596  12.069  12.582   2.895
60172W        W32597  43.937  33.161  13.253
60173W        W32598  43.476   1.885  13.503
60174W        W32599  35.602   5.527  13.616
60175W        W32600  27.670  17.512  13.961
60176W        W32601  22.603  21.638  12.430
60177W        W32602  35.839  17.269   4.093
60178W        W32603  25.602  30.073   2.275
60179W        W32604  18.591  14.504  14.076
60180W        W32605  30.057  33.967   4.189
60181W        W32606   0.899  20.719   1.103
60182W        W32607  42.802  21.565  14.595
60183W        W32608  27.193  12.875  11.930
60184W        W32609  44.181  42.925   2.439
60185W        W32610   9.771  14.972   1.856
60186W        W32611  37.826  34.841  10.527
60187W        W32612   6.844  25.683  12.093
60188W        W32613   4.484  12.907   1.403
60189W        W32614  17.207  12.332  14.737
60190W        W32615  32.383   9.197   1.640
60191W        W32616  37.505   8.937   3.778
60192W        W32617   7.301  40.363   2.881
60193W        W32618   9.397  14.545   2.308
60194W        W32619  31.615  32.394  11.576
60195W        W32620  33.987   8.678  14.868
60196W        W32621  38.973  20.242   2.806
60197W        W32622  19.602   9.086   2.327
60198W        W32623   7.052  11.065  14.887
60199W        W32624  40.113  12.572  11.106
60200W        W32625  13.687  41.329  12.804
60201W        W32626  18.036  27.045  11.950
60202W        W32627   5.674  41.397  14.224
60203W        W32628  37.999  39.299   3.792
60204W        W32629  32.968  28.149   4.190
60205W        W32630  40.338  18.500   0.474
60206W        W32631   2.664  13.914  12.086
60207W        W32632  26.663  20.477  12.466
60208W        W32633  30.758  19.506   1.948
60209W        W32634  22.430  27.919  11.172
60210W        W32635  19.821  12.624  13.428
60211W        W32636  24.566   7.694   3.144
60212W        W32637  44.246   0.364   3.560
60213W        W32638  39.645  33.664  13.415
60214W        W32639  19.947   6.903  11.198
60215W        W32640   9.111  13.626  12.965
60216W        W32641   7.795   4.244   2.041
60217W        W32642   8.992   3.650   4.578
60218W        W32643  22.538  30.361   2.850
60219W        W32644  38.405  23.532   3.998
60220W        W32645  40.295   8.073   0.271
60221W        W32646  37.355  27.385   3.145
60222W        W32647   0.960  22.717   1.249
60223W        W32648  24.521   4.371  12.647
60224W        W32649  40.443  29.262   4.798
60225W        W32650  16.175  20.999  11.459
60226W        W32651  17.477  36.959  12.588
60227W        W32652  37.386  42.947  14.556
60228W        W32653  25.461  25.525  10.815
60229W        W32654  35.619  28.701  14.874
60230W        W32655  18.699   4.790   0.232
60231W        W32656  41.362  43.684  11.896
60232W        W32657  19.728  19.128  13.636
60233W        W32658  31.731   8.764  14.133
60234W        W32659  25.097  31.724   5.025
60235W        W32660  42.045  38.353  13.386
60236W        W32661   5.752  28.924  14.514
60237W        W32662  35.188  23.670   3.696
60238W        W32663  39.605  41.971   0.209
60239W        W32664   4.337  26.189  13.927
60240W        W32665  20.596  31.625   0.373
60241W        W32666  33.811  23.171  14.468
60242W        W32667  13.263   9.229   0.336
60243W        W32668   3.968  19.782   0.764
60244W        W32669  16.832  29.648   2.701
60245W        W32670   1.672  22.550  13.753
60246W        W32671   3.903  28.947   3.922
60247W        W32672  41.800  38.358   1.889
60248W        W32673   4.728  18.225   1.102
60249W        W32674  22.244  37.463   0.892
60250W        W32675   8.458  27.725  14.721
60251W        W32676   2.891  29.562  13.640
60252W        W32677   8.643  11.391   3.426
60253W        W32678  37.272  27.908   0.729
60254W        W32679  36.434   0.260   3.260
60255W        W32680  16.122  18.231  14.377
60256W        W32681  28.232  22.006  12.932
60257W        W32682  17.048  34.981   4.547
60258W        W32683   9.770  31.088   1.317
60259W        W32684   2.990  21.085  11.134
60260W        W32685   3.795  40.501   2.297
60261W        W32686  19.027  10.671  13.321
60262W        W32687  12.175  13.757  10.740
60263W        W32688   2.305  40.848  11.056
60264W        W32689  19.513   0.171   2.382
60265W        W32690   1.385   8.144   0.412
60266W        W32691  44.950  34.346   9.716
60267W        W32692  13.633  17.739  12.406
60268W        W32693  28.433  19.446   1.243
60269W        W32694  23.991  25.913  13.862
60270W        W32695  30.582  28.040  14.491
60271W        W32696  29.203  18.745   2.008
60272W        W32697  40.966  36.572  13.039
60273W        W32698  17.246  43.981   0.280
60274W        W32699  15.326  27.086  11.487
60275W        W32700  19.817   7.267  13.812
60276W        W32701  13.240  17.373  10.478
60277W        W32702  40.455  44.025   3.154
60278W        W32703  41.018  25.676   3.597
60279W        W32704  14.368  43.068   1.963
60280W        W32705  10.962   0.792   1.371
60281W        W32706  36.073  26.006  13.595
60282W        W32707  42.489  35.061   2.933
60283W        W32708  35.700   4.909   0.384
60284W        W32709  31.860  40.400  13.447
60285W        W32710  37.428   1.220   3.183
60286W        W32711  17.712  38.915  14.963
60287W        W32712  21.696   0.443  13.533
60288W        W32713  27.120   5.398  14.844
60289W        W32714  39.326   7.711  14.668
60290W        W32715  18.318   9.430  11.190
60291W        W32716  33.070  14.773   3.081
60292W        W32717  13.180  31.429  11.356
60293W        W32718  14.287  12.684   0.446
60294W        W32719  10.931  21.731  11.753
60295W        W32720   3.348  15.702  14.309
60296W        W32721  44.996  11.584   0.819
60297W        W32722   6.604  11.397  12.112
60298W        W32723  14.287  28.079  14.013
60299W        W32724  10.599  38.022  10.456
60300W        W32725  10.857  23.220  13.983
60301W        W32726  26.676  38.576  12.467
60302W        W32727  13.155  30.587   4.707
60303W        W32728  14.114  24.000  11.976
60304W        W32729  39.974  37.817   4.690
60305W        W32730   5.805  17.410  12.811
60306W        W32731  13.119   9.214  14.716
60307W        W32732  39.887  21.111  10.430
60308W        W32733  32.294  16.106   3.121
60309W        W32734  24.951  26.566  14.332
60310W        W32735  29.676  23.043   4.953
60311W        W32736  11.102   5.682  14.197
60312W        W32737  19.969  28.509  11.641
60313W        W32738  29.272   1.872  12.021
60314W        W32739   0.797   2.003  11.528
60315W        W32740  20.427  22.115  10.658
60316W        W32741  11.378  38.845   1.843
60317W        W32742  11.806  24.487   4.169
60318W        W32743   5.694  18.758   4.952
60319W        W32744  33.944  10.656   3.843
60320W        W32745  42.228  19.984   5.065
60321W        W32746  32.787  13.754   3.150
60322W        W32747  42.876  25.712   2.730
60323W        W32748  14.842  12.606  12.596
60324W        W32749   4.978  25.901  14.510
60325W        W32750  28.595  10.139   1.699
60326W        W32751  22.310  32.145   0.445
60327W        W32752  19.744   8.828   2.791
60328W        W32753  13.291  30.366   4.228
60329W        W32754  37.619   5.874  11.218
60330W        W32755  24.913  42.988   4.411
60331W        W32756  43.764  36.960  14.978
60332W        W32757  13.339  31.071  13.063
60333W        W32758  11.316   4.122  12.332
60334W        W32759   8.784  16.246  14.459
60335W        W32760  44.491  33.097   1.349
60336W        W32761   5.388   7.479   1.793
60337W        W32762  30.164  27.648  14.584
60338W        W32763  39.305   1.515  14.827
60339W        W32764  39.580  16.856   4.694
60340W        W32765  30.704  42.394   3.871
60341W        W32766  33.076  21.158  12.386
60342W        W32767   9.920  24.179  10.914
60343W        W32768  18.093  11.104   3.188
60344W        W32769  40.835  26.735   1.236
60345W        W32770  44.568  37.954  13.742
60346W        W32771  43.788   2.814  12.991
60347W        W32772  23.015   1.953   3.562
60348W        W32773  35.102   7.160   3.216
60349W        W32774  20.317  14.248   1.197
60350W        W32775  34.638  13.763  10.467
60351W        W32776  20.579  17.060   3.357
60352W        W32777  40.941  36.435   0.419
60353W        W32778   6.742  20.201   0.193
60354W        W32779  29.467  35.338   1.227
60355W        W32780  18.398  40.150  13.502
60356W        W32781   5.803  28.445   1.329
60357W        W32782  34.497  28.710   1.436
60358W        W32783  12.640   5.025  14.403
60359W        W32784  37.220  14.401   3.348
60360W        W32785  32.912  21.328   0.715
60361W        W32786   0.897  28.025   3.623
60362W        W32787  26.083  15.227  11.810
60363W        W32788  38.149  31.251  14.371
60364W        W32789  11.216  35.806  10.640
60365W        W32790  33.217  38.645   1.034
60366W        W32791  24.622   3.531  11.666
60367W        W32792  36.633  18.750  12.513
60368W        W32793  17.655  32.480  13.930
60369W        W32794   4.456  38.216  12.524
60370W        W32795  28.962  15.782  11.545
60371W        W32796  41.073  10.373  14.072
60372W        W32797  42.438  34.034   2.722
60373W        W32798  41.370  43.558   2.301
60374W        W32799  14.088  27.238   0.076
60375W        W32800  43.939  43.320  11.673
60376W        W32801  30.633   6.722  12.092
60377W        W32802  17.083  13.215   1.689
60378W        W32803  43.059  26.492  10.014
60379W        W32804  36.567  28.214  11.914
60380W        W32805  40.597  44.324  12.326
60381W        W32806  30.723  21.050   1.728
60382W        W32807  43.749  43.421   2.652
60383W        W32808  42.023  32.537   1.383
60384W        W32809  27.704  24.777   2.591
60385W        W32810  19.295  11.222   3.374
60386W        W32811  23.540  35.238   2.822
60387W        W32812  39.538   1.289   0.789
60388W        W32813  43.685  12.470   1.905
60389W        W32814  20.218  34.907   4.500
60390W        W32815   6.311  30.597  12.689
60391W        W32816  16.264  26.268  11.046
60392W        W32817  11.283  43.161  12.613
60393W        W32818  19.265  43.045   1.867
60394W        W32819  34.223  42.793  10.957
60395W        W32820  39.177  36.147   4.817
60396W        W32821   5.236  16.653   1.740
60397W        W32822  12.274  21.229  12.720
60398W        W32823  32.618  39.149  13.408
60399W        W32824  10.536   9.960   3.114
60400W        W32825  25.723  20.661  12.616
60401W        W32826  37.553   4.541   4.267
60402W        W32827  31.056  33.963   3.396
60403W        W32828  35.699   6.688   1.798
60404W        W32829  10.816  36.014  12.916
60405W        W32830  35.368   8.275  12.904
60406W        W32831   3.878  24.226   0.961
60407W        W32832  42.865   9.834  12.583
60408W        W32833  29.148  14.701   0.136
60409W        W32834  40.804  17.051  14.975
60410W        W32835  10.586  22.385   9.783
60411W        W32836   7.183  13.572  14.098
60412W        W32837  25.453   6.134   2.308
60413W        W32838  12.121  38.518  12.166
60414W        W32839  32.920   0.341  14.943
60415W        W32840   5.972   1.775   0.363
60416W        W32841  18.755  29.214  13.460
60417W        W32842   2.178  31.212  10.790
60418W        W32843  27.367  31.605  12.501
60419W        W32844  29.593  37.315   0.039
60420W        W32845  18.148   2.852  14.307
60421W        W32846   4.738   8.105   2.758
60422W        W32847  41.916  36.829   3.176
60423W        W32848  43.040  32.525  10.677
60424W        W32849  10.002  43.474   0.215
60425W        W32850  29.437  29.058  11.700
60426W        W32851  30.762  29.168   1.793
60427W        W32852  11.416  22.149   3.705
60428W        W32853  33.898   9.439   1.710
60429W        W32854   7.993   1.125   0.142
60430W        W32855   2.235   4.367   1.403
60431W        W32856   9.202  33.230   0.809
60432W        W32857  16.064  42.255  11.352
60433W        W32858  28.654  30.174  14.386
60434W        W32859   1.162  31.046  11.612
60435W        W32860  27.102  42.398   2.808
60436W        W32861  43.189  14.848   1.928
60437W        W32862  43.746  38.281  11.000
60438W        W32863  14.988  30.090   0.814
60439W        W32864  26.632  25.950  11.339
60440W        W32865  35.057  37.271   2.301
60441W        W32866   5.458  12.682   4.111
60442W        W32867  34.950  39.642   1.781
60443W        W32868  29.740  28.007  12.479
60444W        W32869   7.923  25.219   4.168
60445W        W32870   5.553  13.244   1.339
60446W        W32871  38.602  32.576   0.715
60447W        W32872  12.759   9.854   0.975
60448W        W32873  26.425  34.566   2.880
60449W        W32874   7.639  36.756   0.485
60450W        W32875  10.784  27.894  12.123
60451W        W32876   0.840  17.160   3.380
60452W        W32877  36.888  42.845   3.360
60453W        W32878  28.586  15.734  12.595
60454W        W32879  22.503   8.871  10.525
60455W        W32880  27.563   1.373   4.689
60456W        W32881  15.850  14.240   2.295
60457W        W32882  41.697   6.230   1.185
60458W        W32883   4.200  34.912   0.727
60459W        W32884   1.998  22.570  10.901
60460W        W32885  41.990  34.949   2.895
60461W        W32886  32.927  19.775  11.130
60462W        W32887  18.415  12.174   3.903
60463W        W32888   0.395   0.337  10.763
60464W        W32889   4.352  44.911  12.571
60465W        W32890  42.293  15.955  14.536
60466W        W32891  35.579  43.131   4.897
60467W        W32892  33.148  37.073  13.090
60468W        W32893  10.291   9.237  10.653
60469W        W32894   4.292  41.825  14.089
60470W        W32895   0.762  42.582  12.661
60471W        W32896  41.410  25.301  13.620
60472W        W32897  38.990  31.446   2.892
60473W        W32898  18.712   3.430   2.263
60474W        W32899  35.613  32.549   2.675
60475W        W32900   3.368   3.399   4.150
60476W        W32901   1.864  19.734  14.052
60477W        W32902  20.511   7.161   1.252
60478W        W32903   3.237  37.025   3.577
60479W        W32904  16.304  34.374  12.912
60480W        W32905   2.334  37.474  12.370
60481W        W32906  29.108  44.485  11.466
60482W        W32907  17.742  23.272  11.692
60483W        W32908  14.608  27.022  11.121
60484W        W32909  41.797  12.204   3.798
60485W        W32910  41.243  27.195  11.995
60486W        W32911  22.038  42.003  14.894
60487W        W32912  23.648  14.783  13.405
60488W        W32913  14.661   0.400  12.560
60489W        W32914  28.987   4.498  12.492
60490W        W32915  39.064  19.217  10.741
60491W        W32916  24.565   8.104   4.162
60492W        W32917  26.523  11.274  10.680
60493W        W32918  39.677  22.539  13.479
60494W        W32919   5.466  30.610   4.041
60495W        W32920   3.702  29.419   2.884
60496W        W32921  25.860  36.858   4.352
60497W        W32922  29.477  18.825   4.801
60498W        W32923   0.404   4.821  14.418
60499W        W32924  25.615  15.593  14.819
60500W        W32925  25.909  43.903   3.693
60501W        W32926  25.015  32.033   4.637
60502W        W32927  33.501  31.103   2.687
60503W        W32928   9.136  34.643   1.160
60504W        W32929  21.756  25.402  12.958
60505W        W32930  19.063  34.128   1.279
60506W        W32931  19.643  36.991   2.847
60507W        W32932  33.820   5.359  14.885
60508W        W32933  13.633  33.100   1.450
60509W        W32934  30.446  40.095  14.047
60510W        W32935  38.386   2.211   2.292
60511W        W32936  44.574  33.987  11.406
60512W        W32937   0.936  36.143   0.291
60513W        W32938  44.688  24.899  10.391
60514W        W32939  25.942  37.935   4.149
60515W        W32940   2.833  23.041  13.638
60516W        W32941  26.691  31.641  10.762
60517W        W32942   2.302  31.946  10.689
60518W        W32943   4.665  43.646  12.788
60519W        W32944  17.665  44.931   4.188
60520W        W32945  23.621  19.667  13.406
60521W        W32946  30.251   0.265   0.267
60522W        W32947  44.246  35.308   3.402
60523W        W32948  19.430  27.574  10.462
60524W        W32949  10.022   1.060   2.256
60525W        W32950  22.184  41.496  12.467
60526W        W32951  16.562  44.587   1.351
60527W        W32952   1.196  31.534   4.770
60528W        W32953  18.493  20.235  10.708
60529W        W32954  16.273   4.924  11.549
60530W        W32955  41.947  15.888   0.706
60531W        W32956  13.435  26.917   4.182
60532W        W32957  30.528  28.130  13.571
60533W        W32958   3.307  25.148   4.674
60534W        W32959   5.615  23.068  10.984
60535W        W32960  36.798   4.327   3.633
60536W        W32961  33.932  31.486  10.899
60537W        W32962  25.142  14.894  12.469
60538W        W32963  22.708  23.022  10.693
60539W        W32964   0.055  39.007  14.772
60540W        W32965  11.658  30.077  12.950
60541W        W32966  36.640  17.341   4.235
60542W        W32967  29.262  19.645  10.399
60543W        W32968  28.903  37.858   2.329
60544W        W32969  23.139  10.289   2.682
60545W        W32970  11.880  39.902   2.874
60546W        W32971  33.847   9.073  13.708
60547W        W32972  40.712  38.924   2.311
60548W        W32973  39.142  13.727  13.578
60549W        W32974  13.264  17.715  14.417
60550W        W32975  23.908  15.522   1.713
60551W        W32976   1.305  39.543   1.027
60552W        W32977  31.745  15.218   1.905
60553W        W32978   3.942  30.371   1.933
60554W        W32979  25.552  20.217  13.479
60555W        W32980  43.395  39.324  13.378
60556W        W32981  16.188   3.237  14.529
60557W        W32982   5.900  12.415  13.444
60558W        W32983  21.435   9.573  11.511
60559W        W32984  14.835  13.402   0.229
60560W        W32985  27.103  30.019   0.479
60561W        W32986   4.397  35.809  11.724
60562W        W32987  17.626  28.196   4.194
60563W        W32988   6.084  33.865  11.768
60564W        W32989  31.866  15.225   4.798
60565W        W32990  34.922  18.404   2.775
60566W        W32991  39.734   7.375  11.049
60567W        W32992  39.896  37.511   2.753
60568W        W32993  39.237   5.236  11.482
60569W        W32994  18.164  12.261  13.338
60570W        W32995  13.784  33.075   3.777
60571W        W32996  28.153   8.982  10.209
60572W        W32997  19.835  15.771  13.895
60573W        W32998  29.428   3.232   0.484
60574W        W32999  29.086  30.053   1.370
60575W        W33000  32.136  21.667   0.361
60576W        W33001  23.809  19.186  11.090
60577W        W33002  20.249   3.355   1.774
60578W        W33003   0.346  12.337  11.194
60579W        W33004  27.660  24.684  13.857
60580W        W33005  30.544  10.131  10.688
60581W        W33006   7.663  27.992  10.679
60582W        W33007  31.453   2.716   4.643
60583W        W33008  10.808   3.174  10.409
60584W        W33009  25.571  38.210  14.002
60585W        W33010   7.237  26.209   0.909
60586W        W33011  18.824  12.873  12.404
60587W        W33012  38.857  36.757   4.481
60588W        W33013  42.948   1.454   0.194
60589W        W33014  43.819   0.580   4.180
60590W        W33015  36.317  34.455  11.937
60591W        W33016   6.968  20.519  12.473
60592W        W33017  29.066  43.363   0.393
60593W        W33018  28.050  37.168   3.389
60594W        W33019  21.140  11.307  11.298
60595W        W33020  41.042   0.396   4.441
60596W        W33021  20.450   5.260  10.613
60597W        W33022  34.397  29.347  14.766
60598W        W33023  13.774  13.074  12.133
60599W        W33024  10.331  15.122   4.822
60600W        W33025  10.418   5.421  10.795
60601W        W33026  34.584  22.940  13.359
60602W        W33027  22.668   9.337  11.141
60603W        W33028  36.035  23.496   1.847
60604W        W33029  14.743   7.955   2.884
60605W        W33030  36.451  28.569   2.676
60606W        W33031  40.333  29.796  10.699
60607W        W33032   6.220  28.190  11.614
60608W        W33033   6.342  35.699   1.943
60609W        W33034  34.559  17.816   1.396
60610W        W33035  15.245  26.002  11.900
60611W        W33036  41.515  35.175   2.974
60612W        W33037  25.503   0.903   1.219
60613W        W33038  35.521  28.241   2.310
60614W        W33039  32.036  19.115   4.833
60615W        W33040  21.575   7.901  12.887
60616W        W33041  41.954  28.457  14.441
60617W        W33042  25.581  13.750  12.073
60618W        W33043   0.078   3.075  12.383
60619W        W33044  38.567  21.441   3.320
60620W        W33045  39.339  38.459   0.216
60621W        W33046  37.957  18.294  12.089
60622W        W33047  38.085  44.389  10.526
60623W        W33048  23.188   9.830  14.828
60624W        W33049   6.373   4.869   0.493
60625W        W33050   3.721  26.589  14.525
60626W        W33051  26.972  19.217  13.897
60627W        W33052  37.862  15.285   4.658
60628W        W33053  17.098   0.242   0.756
60629W        W33054   7.212  26.036  11.582
60630W        W33055   1.480  43.771   0.347
60631W        W33056  34.450  10.352   3.711
60632W        W33057  43.593  17.726   1.980
60633W        W33058  26.587  31.989  11.736
60634W        W33059  41.233   1.800   1.255
60635W        W33060  27.574  44.229   0.563
60636W        W33061  21.570   4.874   0.357
60637W        W33062  18.680  26.066  11.051
60638W        W33063  17.567  30.170  14.448
60639W        W33064  32.345  21.655  14.492
60640W        W33065  12.196   2.655   1.871
60641W        W33066  27.059  15.169  13.469
60642W        W33067   5.271  38.996   2.856
60643W        W33068  42.059  19.139  11.594
60644W        W33069  16.677  38.964  10.275
60645W        W33070   9.782  29.735   2.345
60646W        W33071  38.767  23.995   3.487
60647W        W33072  37.703   7.317   0.437
60648W        W33073  25.622  18.036  12.880
60649W        W33074   0.906  31.910   1.781
60650W        W33075   5.013  37.923  10.768
60651W        W33076  15.583  10.390  13.127
60652W        W33077  13.761   7.072  11.090
60653W        W33078  44.989  36.902   3.559
60654W        W33079  39.436  26.049   0.300
60655W        W33080  34.462   1.685  12.912
60656W        W33081   9.748  32.600   4.130
60657W        W33082  25.454   2.648   3.216
60658W        W33083  34.394  18.675  11.655
60659W        W33084  42.228   2.385  12.502
60660W        W33085  35.043  31.112  12.424
60661W        W33086  38.966  38.782   4.983
60662W        W33087  29.551  14.068   1.074
60663W        W33088   8.319  33.118  11.547
60664W        W33089  19.880   1.739  14.439
60665W        W33090  13.602  41.399   4.582
60666W        W33091  43.163  20.565  10.463
60667W        W33092  27.969  38.649   2.848
60668W        W33093  14.432  27.508   2.102
60669W        W33094  19.500  39.358   3.547
60670W        W33095   1.235  41.944   4.577
60671W        W33096  10.569  38.782   2.226
60672W        W33097   1.021  44.905  14.342
60673W        W33098   6.258  12.841  12.337
60674W        W33099  15.348   3.333   5.410
60675W        W33100  40.058  35.089  11.096
60676W        W33101  38.535  21.791   2.278
60677W        W33102  10.059  43.868  12.798
60678W        W33103  35.643  12.883  11.160
60679W        W33104  34.518   1.713   0.709
60680W        W33105  33.595  18.540   1.877
60681W        W33106  36.356  10.186  14.771
60682W        W33107   5.736  11.689   2.159
60683W        W33108  19.291  17.374  12.627
60684W        W33109  13.399  42.016   3.715
60685W        W33110  44.718   7.973   3.725
60686W        W33111  13.423  33.943   2.726
60687W        W33112  21.787  16.070   3.229
60688W        W33113  28.752  13.261   2.360
60689W        W33114   5.912  17.385   1.804
60690W        W33115   5.314  31.432  11.900
60691W        W33116  16.639   1.979   0.308
60692W        W33117  19.932  34.360  12.795
60693W        W33118   7.937  38.452   0.710
60694W        W33119  40.913   7.113   1.382
60695W        W33120  11.150  41.759  13.832
60696W        W33121  36.874  23.207   4.619
60697W        W33122  41.744   7.512  11.531
60698W        W33123  38.993  13.712   4.155
60699W        W33124  19.330  29.520  14.973
60700W        W33125  27.470  13.110   0.783
60701W        W33126  13.782  16.647  12.504
60702W        W33127  31.323  43.863   2.863
60703W        W33128  29.591  29.308   4.996
60704W        W33129  29.955  11.226  13.401
60705W        W33130  33.337  16.310   0.842
60706W        W33131   1.583  30.139   4.811
60707W        W33132  21.187  44.942   1.321
60708W        W33133  23.949   0.831   4.537
60709W        W33134  31.658   4.063  11.614
60710W        W33135  14.029  27.412   3.205
60711W        W33136  13.134  21.220  10.139
60712W        W33137   4.041   5.758  12.017
60713W        W33138  27.658  13.095  12.029
60714W        W33139  19.479  15.144   4.615
60715W        W33140  25.320  12.328  11.819
60716W        W33141   5.703  21.554   3.392
60717W        W33142  22.988  41.943  11.960
60718W        W33143  22.559  29.956  13.942
60719W        W33144  41.345  39.906   4.919
60720W        W33145   9.936  35.860   3.148
60721W        W33146  36.763  40.458  11.491
60722W        W33147   8.703  28.977  13.378
60723W        W33148  25.281  17.378   2.361
60724W        W33149   0.227  20.264  10.884
60725W        W33150  34.057   0.643  14.282
60726W        W33151  41.527   5.995  11.484
60727W        W33152  35.629  18.309   0.289
60728W        W33153  18.311  10.412  11.575
60729W        W33154  36.646  15.312   0.675
60730W        W33155  25.536  29.189  10.286
60731W        W33156  40.074  11.041  11.430
60732W        W33157  36.304  41.394   3.823
60733W        W33158  44.677   4.352   1.350
60734W        W33159  23.604  19.623   2.806
60735W        W33160  33.472   3.071   0.282
60736W        W33161  10.198  37.753   3.818
60737W        W33162  40.914  15.062   3.311
60738W        W33163   0.009  36.171  11.825
60739W        W33164  40.578  21.024  10.190
60740W        W33165   1.866  21.105   4.979
60741W        W33166   1.150   3.796  13.925
60742W        W33167  41.258  22.754   0.842
60743W        W33168  12.997   3.709   2.905
60744W        W33169  38.816  28.628  13.621
60745W        W33170   7.316  16.035  13.047
60746W        W33171  34.002  15.411  13.917
60747W        W33172  35.033  19.695   0.768
60748W        W33173  37.989  33.751  12.833
60749W        W33174  42.634  15.596   3.340
60750W        W33175  41.574  19.126   4.365
60751W        W33176  32.647  23.804  11.977
60752W        W33177  35.952  11.183  13.510
60753W        W33178  16.808  28.642   0.347
60754W        W33179  37.243  27.552   4.028
60755W        W33180  28.400   5.738   4.871
60756W        W33181  28.558  28.981   3.358
60757W        W33182   8.807  38.042  14.932
60758W        W33183   1.037  40.975  14.464
60759W        W33184  25.845   9.604   4.520
60760W        W33185  20.124  28.023  12.378
60761W        W33186   9.999   7.890   2.333
60762W        W33187  18.720  19.352  11.024
60763W        W33188   4.869   7.560   4.996
60764W        W33189  39.605  16.161  13.924
60765W        W33190   3.292  25.406   0.555
60766W        W33191   4.198  23.313   3.315
60767W        W33192  17.176  20.606   4.549
60768W        W33193  37.171  41.715   0.388
60769W        W33194  17.711  33.394  13.986
60770W        W33195   8.312   6.421   0.374
60771W        W33196  18.992  40.124  12.065
60772W        W33197   0.272  29.150   1.387
60773W        W33198   6.154  18.662   1.425
60774W        W33199  43.190  20.204  14.422
60775W        W33200  38.420  40.423  13.797
60776W        W33201   5.472  40.554  13.988
60777W        W33202   0.267  10.934  11.174
60778W        W33203   7.896  26.731   3.327
60779W        W33204  22.682  33.226  11.132
60780W        W33205  13.108  27.436   2.573
60781W        W33206  35.556  17.545   3.767
60782W        W33207  41.242  20.716   0.377
60783W        W33208  32.632   0.501  14.005
60784W        W33209  20.929  19.176  13.022
60785W        W33210   3.880  44.506   1.779
60786W        W33211  37.731  39.741   3.699
60787W        W33212  35.048  31.189  12.927
60788W        W33213   8.697  34.836  12.926
60789W        W33214  16.328  18.148  11.661
60790W        W33215   8.726   6.839   2.432
60791W        W33216  24.200  11.094   5.577
60792W        W33217  33.542  36.159  13.815
60793W        W33218  13.179  14.485   4.418
60794W        W33219   5.499   6.306  12.477
60795W        W33220  19.749   4.390   2.838
60796W        W33221  41.006   0.743  11.017
60797W        W33222  18.357  37.897  14.771
60798W        W33223  16.230   4.938   3.635
60799W        W33224  37.828  41.741   2.776
60800W        W33225  21.436  27.589   0.214
60801W        W33226  13.624  34.439  13.039
60802W        W33227   3.297  16.589   1.751
60803W        W33228  41.617  30.971   1.747
60804W        W33229  13.368  42.881  12.590
60805W        W33230  27.159  24.201  11.518
60806W        W33231  21.146  31.808  10.505
60807W        W33232  18.173  37.118  13.295
60808W        W33233   9.826  41.873  11.031
60809W        W33234  36.785   6.056   3.765
60810W        W33235  13.667  36.786   1.428
60811W        W33236  20.247  23.529  13.470
60812W        W33237  32.445  42.844   3.251
60813W        W33238  44.849  19.414   1.676
60814W        W33239  31.473  39.101  14.288
60815W        W33240   4.819   4.785  12.479
60816W        W33241  26.908   5.790   2.825
60817W        W33242  33.738  35.966   1.020
60818W        W33243  33.120  34.900  11.459
60819W        W33244  43.037  39.412   4.773
60820W        W33245  28.986   6.666   0.951
60821W        W33246  35.048  35.482  12.423
60822W        W33247  21.720   8.235   0.305
60823W        W33248  40.015   6.893   0.892
60824W        W33249  35.664  11.247   1.868
60825W        W33250  13.161  14.055   5.111
60826W        W33251  27.095   9.944  14.078
60827W        W33252  16.204  22.977  13.965
60828W        W33253  13.825  32.010  10.364
60829W        W33254  40.504  22.769  10.760
60830W        W33255  29.065  14.128   0.884
60831W        W33256  39.605   7.561  14.234
60832W        W33257  26.227  27.560  11.993
60833W        W33258  33.092  12.318   2.328
60834W        W33259  40.899  37.337  14.308
60835W        W33260   4.911  17.552  13.681
60836W        W33261   7.951  18.762  13.093
60837W        W33262  22.223  24.624   1.541
60838W        W33263   5.197  43.916   0.977
60839W        W33264   3.646  37.413   2.423
60840W        W33265   5.798  14.402   0.787
60841W        W33266  34.560   5.909   3.164
60842W        W33267  20.680  11.449  11.489
60843W        W33268  13.342  20.194   4.566
60844W        W33269  22.663   2.975  11.727
60845W        W33270  43.047  11.150   2.415
60846W        W33271   4.539  31.129  12.524
60847W        W33272  31.704  16.374   3.801
60848W        W33273  34.369  32.138   3.334
60849W        W33274   0.368  17.783   4.032
60850W        W33275  15.734  22.304  11.439
60851W        W33276  40.465  28.824  14.166
60852W        W33277  38.004  43.268  13.377
60853W        W33278  34.343  17.035  10.705
60854W        W33279  39.398   5.873   2.557
60855W        W33280  36.832  41.720   4.201
60856W        W33281   9.150   8.816   4.929
60857W        W33282  13.406  31.939  13.546
60858W        W33283  34.879   4.137  14.921
60859W        W33284  44.399  36.216  14.106
60860W        W33285  38.788   5.634   0.766
60861W        W33286  40.418  11.254  12.070
60862W        W33287  24.798  27.011   4.117
60863W        W33288  32.994   0.533   1.781
60864W        W33289  10.165  19.554  10.777
60865W        W33290  28.347  28.597   0.731
60866W        W33291  19.013  33.720   0.901
60867W        W33292   0.525  38.324   3.759
60868W        W33293  44.209  15.270  12.125
60869W        W33294  40.653  15.530  10.200
60870W        W33295  14.687  19.481  10.740
60871W        W33296   6.214  21.029  12.591
60872W        W33297  43.048  43.323  14.870
60873W        W33298  24.150  40.714   9.956
60874W        W33299  25.653  11.678   3.314
60875W        W33300   0.953   8.434   0.388
60876W        W33301  23.746  11.896  11.536
60877W        W33302  19.774  26.658  14.807
60878W        W33303  20.278  13.289   1.444
60879W        W33304   1.806  37.556   2.110
60880W        W33305  18.259  42.793   0.364
60881W        W33306  40.338  20.010   3.284
60882W        W33307  21.126  44.805   1.844
60883W        W33308  12.586  10.293   5.411
60884W        W33309   0.865  40.046   3.478
60885W        W33310  29.556  24.234   2.577
60886W        W33311  27.123   5.998  13.613
60887W        W33312  24.649  20.503  12.709
60888W        W33313   1.393  14.680  14.017
60889W        W33314  17.543  22.338   2.696
60890W        W33315   2.372   3.014   1.805
60891W        W33316  21.211  12.319  12.544
60892W        W33317  28.896  36.360  11.073
60893W        W33318   8.102   2.526  12.627
60894W        W33319  10.420   8.123   0.292
60895W        W33320   0.340  12.129   1.310
60896W        W33321  11.845  39.274  12.109
60897W        W33322  23.816   8.321  13.128
60898W        W33323  41.976  13.451   0.232
60899W        W33324  34.661  30.161  14.098
60900W        W33325  13.429   2.269  11.687
60901W        W33326   5.639  22.579  14.892
60902W        W33327  19.199  43.522   1.620
60903W        W33328  39.852  31.229  12.089
60904W        W33329  20.488  17.215  13.417
60905W        W33330  26.314  31.521  11.082
60906W        W33331   3.356  41.942  12.555
60907W        W33332   7.436  44.045  11.708
60908W        W33333  43.796  33.587  14.528
60909W        W33334  26.102  24.016   0.307
60910W        W33335  36.932   4.347  14.792
60911W        W33336  32.044  42.582   0.914
60912W        W33337   1.710  42.772   2.265
60913W        W33338  35.100  44.412  13.299
60914W        W33339  34.251  27.484   0.976
60915W        W33340   0.570   3.184  12.148
60916W        W33341  28.138  32.984   2.827
60917W        W33342  17.817  15.362   1.550
60918W        W33343  21.752  28.228  12.450
60919W        W33344  15.670  19.845  11.493
60920W        W33345   6.257  16.719  14.762
60921W        W33346  33.721  43.711   2.611
60922W        W33347  38.568  26.109  12.966
60923W        W33348   8.377  42.073   3.835
60924W        W33349  39.725  30.992  14.534
60925W        W33350  40.888  43.108  12.373
60926W        W33351  34.064  34.835  14.447
60927W        W33352  24.016  34.399  13.362
60928W        W33353  21.147  35.086  13.907
60929W        W33354   4.226  10.783  12.379
60930W        W33355  17.114  30.812   3.040
60931W        W33356  19.844  24.655  14.008
60932W        W33357  14.566  22.185  14.818
60933W        W33358  25.659  35.150  10.777
60934W        W33359  44.239  37.323   3.659
60935W        W33360   3.953  24.750   2.301
60936W        W33361  14.342  31.363   4.365
60937W        W33362  29.535   4.243  11.559
60938W        W33363  34.829  36.171  10.318
60939W        W33364  25.227  34.863  13.993
60940W        W33365  16.366  41.762   2.824
60941W        W33366   4.552  16.465   2.347
60942W        W33367  37.652  19.213  11.078
60943W        W33368  41.149  21.207   5.188
60944W        W33369  11.320  13.888   4.894
60945W        W33370  27.870  20.106  10.292
60946W        W33371  17.806  16.307  12.632
60947W        W33372   3.508  37.334  14.452
60948W        W33373  33.842  42.414  13.862
60949W        W33374  36.031  19.198   2.836
60950W        W33375  30.424  23.689  11.213
60951W        W33376  11.154  33.604   3.151
60952W        W33377  13.741   4.715   2.247
60953W        W33378  28.121  31.451   4.507
60954W        W33379  18.797  18.667   2.734
60955W        W33380  16.871   9.952  12.249
60956W        W33381  27.105   2.383  13.860
60957W        W33382  14.682  43.918   1.097
60958W        W33383  22.058   7.240   3.167
60959W        W33384  29.400   8.646  13.209
60960W        W33385  17.559  41.200  11.408
60961W        W33386  37.586  20.490   0.843
60962W        W33387  24.730  25.237   4.262
60963W        W33388  24.123  21.040  11.936
60964W        W33389   6.506  37.187  12.541
60965W        W33390   3.058  35.632  14.939
60966W        W33391  24.775  37.402   3.619
60967W        W33392  14.191  12.720   4.617
60968W        W33393  29.595  10.554  13.522
60969W        W33394  34.396  41.980  10.837
60970W        W33395  43.488  38.846   3.669
60971W        W33396   5.700  39.807  12.437
60972W        W33397  37.461  26.658   4.687
60973W        W33398   9.860  38.706   0.557
60974W        W33399  20.706  11.415   1.800
60975W        W33400  39.862  38.416  14.297
60976W        W33401  12.297  27.497  14.829
60977W        W33402  22.013  34.071  12.274
60978W        W33403  28.119  26.783  14.389
60979W        W33404  19.682  23.631   0.936
60980W        W33405  27.393  11.696   0.237
60981W        W33406  37.631  38.605  13.785
60982W        W33407  28.449   2.836   1.465
60983W        W33408  16.722  21.496  14.918
60984W        W33409   6.781  38.042   2.460
60985W        W33410   3.301  34.053  13.594
60986W        W33411  13.709   0.079   4.187
60987W        W33412  20.695  22.471  13.977
60988W        W33413   4.010  43.433  11.526
60989W        W33414  36.641  11.108  14.583
60990W        W33415  24.743  34.771  12.110
60991W        W33416  12.070  19.733  12.634
60992W        W33417  14.375   0.356  12.996
60993W        W33418   8.796  38.178  11.113
60994W        W33419  27.958  20.245  12.877
60995W        W33420  19.648  10.193   0.248
60996W        W33421  15.951  25.819  10.462
60997W        W33422  38.747  20.800  13.448
60998W        W33423  15.210   4.048   2.017
60999W        W33424  17.113  11.184  12.754
61000W        W33425  29.409  34.507  10.729
61001W        W33426  18.077  17.144   4.368
61002W        W33427   9.290   0.068   4.238
61003W        W33428  40.360  11.161   1.929
61004W        W33429  30.064  27.541  12.508
61005W        W33430  25.445  28.139  12.977
61006W        W33431  11.593  13.228  12.953
61007W        W33432  31.281  38.147  12.860
61008W        W33433  25.735  11.648   1.813
61009W        W33434  16.992  12.787  14.873
61010W        W33435  26.050  24.670   2.438
61011W        W33436   5.182  17.130   3.556
61012W        W33437   2.382  15.561  11.932
61013W        W33438  32.434  14.000   0.530
61014W        W33439  11.073   5.353  11.070
61015W        W33440  40.090   3.253  14.778
61016W        W33441  36.511  21.080  13.779
61017W        W33442  23.596  17.711  11.168
61018W        W33443   8.300  32.889   1.444
61019W        W33444   5.196  38.799  13.353
61020W        W33445  28.039  24.222   0.313
61021W        W33446  13.036  18.338   0.042
61022W        W33447  31.682  10.121   0.063
61023W        W33448  17.128   4.527   3.847
61024W        W33449  29.339  24.681   2.728
61025W        W33450  36.883  28.951   3.123
61026W        W33451  23.367   5.235  13.981
61027W        W33452  42.862  13.860  10.870
61028W        W33453  31.594   3.346  13.484
61029W        W33454  21.779  29.729  11.978
61030W        W33455  22.647  44.562   0.081
61031W        W33456  35.469  11.207  13.210
61032W        W33457   1.719  40.540   2.417
61033W        W33458   6.861  30.027   2.346
61034W        W33459  10.797   2.828   3.785
61035W        W33460   7.274   6.977   3.197
61036W        W33461  41.781  44.364   5.068
61037W        W33462  33.336  16.467  13.568
61038W        W33463  40.394  14.413   1.927
61039W        W33464  11.192   1.729   1.316
61040W        W33465   7.761  24.035  12.981
61041W        W33466   2.751  29.629   2.238
61042W        W33467  16.814  24.670   2.035
61043W        W33468  43.413   3.793   4.441
61044W        W33469  37.253   6.541   2.504
61045W        W33470  19.798  33.950   4.537
61046W        W33471  34.674  38.776   1.725
61047W        W33472  15.424   3.680   2.885
61048W        W33473  22.050  14.891   2.835
61049W        W33474  33.048  40.571  12.836
61050W        W33475  24.973   4.146  12.457
61051W        W33476  15.281  37.867   0.294
61052W        W33477  44.869  20.511  13.793
61053W        W33478  38.798  44.833   1.331
61054W        W33479  43.485   0.653  14.618
61055W        W33480  33.043  19.570   1.418
61056W        W33481  26.497   4.947  13.452
61057W        W33482  26.941  27.023  12.207
61058W        W33483  11.123  25.030   4.616
61059W        W33484  24.410  28.141  10.972
61060W        W33485  37.984  42.239  12.513
61061W        W33486  41.482  18.901  10.669
61062W        W33487  22.322  14.087  11.577
61063W        W33488  13.955  19.079   3.867
61064W        W33489  36.623  14.287  13.074
61065W        W33490  27.589  19.007  12.591
61066W        W33491  39.877   5.183  11.961
61067W        W33492  39.041  15.385   0.319
61068W        W33493  43.460   2.312  12.692
61069W        W33494   0.027  22.113   2.164
61070W        W33495  33.681   7.797   4.421
61071W        W33496   0.744   6.681   4.183
61072W        W33497  35.072  17.358   3.675
61073W        W33498  30.920  19.109  12.983
61074W        W33499   9.619   1.774   2.734
61075W        W33500   9.277  32.410   1.389
61076W        W33501  28.628  19.772   4.603
61077W        W33502  10.932  31.376   0.374
61078W        W33503  39.406  40.304   2.280
61079W        W33504  20.805  41.052  14.446
61080W        W33505  26.653  33.162   2.210
61081W        W33506  42.407  15.913  14.050
61082W        W33507  14.847  22.207  14.369
61083W        W33508  29.081  34.979  11.732
61084W        W33509   4.699  11.195   4.027
61085W        W33510  32.659   5.318   2.814
61086W        W33511   9.929   1.399  11.661
61087W        W33512   5.823  42.776   4.721
61088W        W33513  31.354  36.444  14.012
61089W        W33514  41.015   0.515  12.442
61090W        W33515  25.473   5.857   2.739
61091W        W33516  37.321  36.411   4.089
61092W        W33517   1.974  37.804  13.630
61093W        W33518  40.530  18.288  13.532
61094W        W33519  39.905  28.700  11.969
61095W        W33520  14.797  29.660  11.251
61096W        W33521  22.241  27.846   2.760
61097W        W33522  10.263  25.093   3.419
61098W        W33523  17.711  12.658   3.771
61099W        W33524  39.134   3.966   4.120
61100W        W33525  23.326  17.420  10.818
61101W        W33526  35.189  40.419  14.998
61102W        W33527  42.895  32.969   5.067
61103W        W33528   7.093  37.633   2.551
61104W        W33529  29.342  13.115   0.366
61105W        W33530  31.093  12.622   0.397
61106W        W33531  19.494  20.464  12.484
61107W        W33532  31.380  15.152   3.394
61108W        W33533  20.525  18.947   4.128
61109W        W33534  18.780  10.124  14.675
61110W        W33535  36.867  15.697   1.575
61111W        W33536  37.061  21.144   2.907
61112W        W33537  33.338  34.052  11.555
61113W        W33538  44.082  28.178   3.219
61114W        W33539  42.836  15.481   0.894
61115W        W33540  28.056  18.374  12.966
61116W        W33541  31.452  29.432   3.668
61117W        W33542   1.462  29.830   3.758
61118W        W33543   8.796  14.214  11.316
61119W        W33544  18.549  26.094   0.782
61120W        W33545  13.262  18.749  13.439
61121W        W33546   8.961  29.906  11.094
61122W        W33547  35.557   0.962  11.878
61123W        W33548   5.888  44.349   4.950
61124W        W33549  35.347  39.873  10.481
61125W        W33550  27.640  34.948  12.968
61126W        W33551  32.075  25.485  11.535
61127W        W33552   9.074   0.018   3.370
61128W        W33553  42.141  11.345  14.476
61129W        W33554  32.455  36.405  12.044
61130W        W33555   4.361  44.811  11.199
61131W        W33556   1.536  25.981  13.493
61132W        W33557   0.317  17.961  14.869
61133W        W33558  34.994   7.386   1.776
61134W        W33559  27.596  20.532  12.439
61135W        W33560  10.364  39.835   4.999
61136W        W33561  17.242  26.944  10.253
61137W        W33562  18.302  27.673  11.569
61138W        W33563  21.713   1.326  13.058
61139W        W33564  18.993   8.050   0.799
61140W        W33565  26.702  37.071  13.413
61141W        W33566  37.416  27.527  13.565
61142W        W33567  24.581   4.848  13.360
61143W        W33568  16.345  21.799  11.599
61144W        W33569  10.242  22.091   0.142
61145W        W33570  43.572   7.706   1.228
61146W        W33571   6.853  37.149   0.278
61147W        W33572  22.770   8.851   1.619
61148W        W33573  21.147   5.929  13.509
61149W        W33574  12.138  23.229   4.039
61150W        W33575  35.594   7.197  14.373
61151W        W33576  10.239  27.093  12.670
61152W        W33577   7.842  22.491  12.928
61153W        W33578   6.337  34.296  11.862
61154W        W33579  30.805   0.377  10.842
61155W        W33580  28.438  40.907  12.701
61156W        W33581  26.731  13.670  14.967
61157W        W33582   9.463  39.569  11.026
61158W        W33583  12.549   7.708  10.927
61159W        W33584  10.853  37.402  14.454
61160W        W33585  20.047  44.037   1.429
61161W        W33586  20.653  12.396   5.002
61162W        W33587  20.774  34.918   0.368
61163W        W33588  19.968   2.389   1.762
61164W        W33589  31.910  31.044  11.407
61165W        W33590  35.881   0.208   0.034
61166W        W33591   9.678  18.885   1.300
61167W        W33592  25.874  20.632  13.519
61168W        W33593  10.889  25.248  14.906
61169W        W33594  29.503   3.317   4.207
61170W        W33595   7.441  25.297  12.601
61171W        W33596  30.821   6.865   3.098
61172W        W33597   7.588  22.574  12.394
61173W        W33598  36.826  44.037   4.934
61174W        W33599   2.719  13.920  10.654
61175W        W33600  26.617   5.953  13.442
61176W        W33601   9.281  10.804  14.533
61177W        W33602  18.126  19.537   2.004
61178W        W33603  11.151   6.402   2.874
61179W        W33604  44.751   5.660   1.500
61180W        W33605  19.575  38.887  11.579
61181W        W33606  41.357  13.682  14.271
61182W        W33607  29.764  27.413  11.900
61183W        W33608  42.349  41.628  12.510
61184W        W33609   2.101  12.608  14.487
61185W        W33610  37.580  33.579  10.955
61186W        W33611  22.965  12.697   1.194
61187W        W33612  21.913   1.381   1.701
61188W        W33613  11.219  24.893   3.752
61189W        W33614  27.241  36.380  12.135
61190W        W33615  30.384  39.525  11.893
61191W        W33616  37.919  40.240   3.639
61192W        W33617   9.240   4.954  13.434
61193W        W33618  27.238  11.837  13.569
61194W        W33619  33.305   3.316   2.179
61195W        W33620  37.411  33.580   2.870
61196W        W33621  24.732  44.048  12.471
61197W        W33622   7.449  23.486   4.218
61198W        W33623  36.545   0.161   0.622
61199W        W33624  18.272  16.689   2.182
61200W        W33625  18.218  31.725  13.760
61201W        W33626  26.561  12.299  12.591
61202W        W33627  30.736  22.071  10.077
61203W        W33628  33.573   7.441   4.803
61204W        W33629  20.163  42.775   4.654
61205W        W33630  16.734  38.101   2.762
61206W        W33631  17.018   1.923   3.271
61207W        W33632   3.431  16.178  14.488
61208W        W33633  11.093   8.662   2.813
61209W        W33634  41.426  30.976   3.397
61210W        W33635  35.120  18.674   4.172
61211W        W33636  11.374  14.552   1.456
61212W        W33637  25.427  20.545   1.451
61213W        W33638   1.876  23.439  14.837
61214W        W33639  11.137  19.554  11.759
61215W        W33640  12.304  25.158  13.414
61216W        W33641  16.270  31.421   0.419
61217W        W33642  31.524  19.978   3.759
61218W        W33643   5.311   5.747   1.986
61219W        W33644   5.901   8.158   3.775
61220W        W33645  21.019  17.563   0.539
61221W        W33646   8.130  22.503   1.714
61222W        W33647  44.763   5.243   1.197
61223W        W33648  25.225  28.417   4.701
61224W        W33649   9.915   9.177  12.475
61225W        W33650  24.894  41.826   2.753
61226W        W33651  10.928  18.593  11.737
61227W        W33652  39.874  22.661   3.650
61228W        W33653   5.255  12.319  13.328
61229W        W33654  29.408   4.273  14.258
61230W        W33655  39.891  18.251  14.517
61231W        W33656  44.186   3.395   4.148
61232W        W33657  37.678  43.644  13.353
61233W        W33658  20.626   1.198   3.657
61234W        W33659   9.704  21.286   0.327
61235W        W33660  31.918  21.014  13.936
61236W        W33661  32.839   1.654  14.520
61237W        W33662  22.733   6.211   1.721
61238W        W33663  33.397  10.232   2.294
61239W        W33664  21.568  27.038   2.695
61240W        W33665  32.085  27.093   2.210
61241W        W33666  36.965  41.927   1.519
61242W        W33667  35.161  25.029  12.453
61243W        W33668   7.788  32.609  11.965
61244W        W33669  41.672  39.849   0.408
61245W        W33670   8.645  12.290   2.236
61246W        W33671  14.038  24.470  13.258
61247W        W33672  25.676  13.725  14.473
61248W        W33673  13.795  39.985   4.522
61249W        W33674  36.294  43.468   2.430
61250W        W33675  21.751  41.674  12.723
61251W        W33676  24.058  23.725   1.778
61252W        W33677  14.412  44.822   2.615
61253W        W33678  19.583  14.132  11.470
61254W        W33679  10.727  18.662  10.727
61255W        W33680  40.372  23.109   0.404
61256W        W33681   1.488  10.337  14.604
61257W        W33682   9.751  13.341   3.658
61258W        W33683  36.846   3.676   1.466
61259W        W33684  40.406  23.312   0.885
61260W        W33685   8.929   0.370   1.622
61261W        W33686   5.119  35.880  12.358
61262W        W33687  21.069   7.571   2.674
61263W        W33688  18.778   4.314   0.472
61264W        W33689  43.889  29.694  12.070
61265W        W33690  34.981  10.821   1.337
61266W        W33691  28.858  37.355   2.424
61267W        W33692  26.095  20.647  11.635
61268W        W33693  22.815  39.104  14.832
61269W        W33694  15.394  11.759   1.510
61270W        W33695  33.698  29.063   4.684
61271W        W33696  33.432  11.989  14.955
61272W        W33697  26.480  36.822   1.184
61273W        W33698  10.786  18.796   2.836
61274W        W33699  40.276   4.198  11.727
61275W        W33700   1.188  33.481  11.060
61276W        W33701  26.179   0.888   4.269
61277W        W33702  38.331  32.405   0.292
61278W        W33703  38.298  35.379   0.253
61279W        W33704  21.232  44.496   3.222
61280W        W33705  13.130  38.548   1.436
61281W        W33706  33.451   8.893  11.205
61282W        W33707  42.419  22.958  14.548
61283W        W33708  29.601   2.501   2.742
61284W        W33709  41.423  18.284  13.459
61285W        W33710  23.645  41.792  11.248
61286W        W33711  44.881  28.690   3.642
61287W        W33712  20.169  21.770   3.809
61288W        W33713  39.937  14.321   2.815
61289W        W33714  16.456  35.580  12.672
61290W        W33715  23.974   5.397  10.676
61291W        W33716  23.360  31.226  13.958
61292W        W33717   0.222  18.267  13.286
61293W        W33718  42.007   8.738   0.748
61294W        W33719  17.586  31.845   0.317
61295W        W33720  40.391  12.376   1.831
61296W        W33721  25.842  31.402  11.186
61297W        W33722  43.291  25.980  13.002
61298W        W33723   4.449  30.539   1.913
61299W        W33724  30.860  30.408   2.671
61300W        W33725   2.033  43.202  12.555
61301W        W33726  28.208  20.631   0.900
61302W        W33727   6.959   5.502  11.511
61303W        W33728   3.614  14.063   2.647
61304W        W33729  26.483  11.597   2.062
61305W        W33730  33.139  12.857  14.560
61306W        W33731  34.621  39.828  12.545
61307W        W33732  22.632  15.829  14.453
61308W        W33733  12.505  17.874  11.065
61309W        W33734  10.287  12.765   2.177
61310W        W33735  12.629  15.237  12.543
61311W        W33736   6.193  41.536  13.372
61312W        W33737  43.196   4.294   1.247
61313W        W33738  15.879  33.886  14.312
61314W        W33739  26.069  16.100  13.848
61315W        W33740  38.418  21.194  14.641
61316W        W33741  44.510  33.536   4.991
61317W        W33742  42.507  20.283   1.967
61318W        W33743  33.002  31.002  10.611
61319W        W33744   1.567  36.382   3.261
61320W        W33745  44.919  15.798  11.323
61321W        W33746   2.016  27.760  12.950
61322W        W33747  39.083   5.316  13.357
61323W        W33748  36.180  29.441  12.406
61324W        W33749  28.669  17.759   4.101
61325W        W33750  20.239   1.660   3.010
61326W        W33751  31.027  36.348  13.591
61327W        W33752  14.985   8.619  10.749
61328W        W33753  21.707  25.079   0.951
61329W        W33754  30.451  41.363   4.051
61330W        W33755  40.989  16.187  12.022
61331W        W33756  40.385  18.510   5.218
61332W        W33757  14.920  23.145   1.289
61333W        W33758  40.764  11.373   2.814
61334W        W33759  35.969  41.591  12.863
61335W        W33760  14.137   9.933  11.089
61336W        W33761  11.261  40.864  13.310
61337W        W33762  34.299  19.628   1.920
61338W        W33763  26.587  39.321  13.042
61339W        W33764  17.598  41.907  13.692
61340W        W33765   1.857  37.136   2.399
61341W        W33766   0.760   0.819  14.716
61342W        W33767  36.912  11.610   3.251
61343W        W33768  16.060  32.034  14.391
61344W        W33769  16.434   6.043   1.256
61345W        W33770   5.757   7.326   0.363
61346W        W33771  15.163  33.888   0.806
61347W        W33772   0.129  21.346   0.820
61348W        W33773  37.818  17.994  14.019
61349W        W33774  44.998  14.763   0.115
61350W        W33775  25.000  30.596   3.600
61351W        W33776  31.307   2.332   1.913
61352W        W33777  40.978  19.489   3.751
61353W        W33778  41.113  40.471  13.490
61354W        W33779  22.490  42.375   2.953
61355W        W33780   7.861  20.158   4.637
61356W        W33781  42.441  14.598  10.682
61357W        W33782  40.872  18.916  11.887
61358W        W33783   7.866  42.308   3.836
61359W        W33784   4.484   1.193  10.159
61360W        W33785   8.188  12.467  11.162
61361W        W33786  15.592   0.723   3.236
61362W        W33787  11.125  10.581  11.604
61363W        W33788   7.892  38.785   1.477
61364W        W33789  13.032  17.153  11.628
61365W        W33790  37.113  31.906   2.872
61366W        W33791  38.084  31.373   0.935
61367W        W33792  41.416  38.844   4.660
61368W        W33793  17.634  23.944   2.347
61369W        W33794  36.386   6.867   2.340
61370W        W33795  23.969   3.898  12.290
61371W        W33796  19.471  33.698  10.997
61372W        W33797  22.470  34.039   3.258
61373W        W33798   2.272   9.007   3.597
61374W        W33799  29.646  42.023  13.897
61375W        W33800  38.845  10.354  13.367
61376W        W33801  25.437  30.917  10.519
61377W        W33802  35.147  41.422   2.097
61378W        W33803  36.886  15.787  11.638
61379W        W33804  24.418  34.388   4.181
61380W        W33805  18.107  34.064   4.632
61381W        W33806   0.311  17.632  12.861
61382W        W33807  44.870  11.627   1.899
61383W        W33808  25.687  19.334  13.948
61384W        W33809  42.490  14.353  14.803
61385W        W33810  10.676  29.620  11.120
61386W        W33811  19.654   1.530  13.395
61387W        W33812  29.725  40.889   1.123
61388W        W33813  43.379  39.832  13.479
61389W        W33814   2.391  20.994   1.958
61390W        W33815  15.128  36.016  12.403
61391W        W33816   4.694  20.502   4.639
61392W        W33817  28.883  34.409  10.768
61393W        W33818  16.090  39.008   1.434
61394W        W33819  38.199  14.101   4.974
61395W        W33820  32.070  37.110   0.195
61396W        W33821  10.958  43.444  10.670
61397W        W33822   5.001  32.929   2.883
61398W        W33823  26.117  20.986  14.850
61399W        W33824   9.772  44.943   0.928
61400W        W33825   6.396   7.267   3.607
61401W        W33826  44.958   8.859   0.436
61402W        W33827  31.968   4.861  14.909
61403W        W33828  32.119  29.226   0.399
61404W        W33829   0.081  36.177  10.841
61405W        W33830   8.587  25.040  14.235
61406W        W33831  13.873  11.143   4.713
61407W        W33832  36.513  39.333  12.243
61408W        W33833  11.318  15.747  13.557
61409W        W33834  22.019  26.178  13.294
61410W        W33835  16.549  32.376  11.112
61411W        W33836   4.922   6.760  14.525
61412W        W33837  12.093  28.041   1.008
61413W        W33838  27.472  42.956  11.468
61414W        W33839  28.456  13.834   3.473
61415W        W33840  28.221   2.006  13.517
61416W        W33841   9.695  25.452   2.243
61417W        W33842   7.473  42.500  11.975
61418W        W33843  22.993  15.149   1.808
61419W        W33844  20.521  43.934  11.141
61420W        W33845   7.412  19.121   2.342
61421W        W33846  19.687  28.442  12.625
61422W        W33847  31.018   9.845   0.826
61423W        W33848  10.078  11.645  11.051
61424W        W33849   7.965  37.521  10.066
61425W        W33850  30.955  26.191   4.100
61426W        W33851  44.844  12.384   4.954
61427W        W33852  32.882   1.730   3.249
61428W        W33853  38.855  19.329  12.161
61429W        W33854  44.833  24.709   1.719
61430W        W33855  42.932   1.204   4.922
61431W        W33856  16.131  24.845  12.307
61432W        W33857  30.606   5.203   4.519
61433W        W33858   9.793  19.853  12.438
61434W        W33859  30.509   9.968   0.843
61435W        W33860  21.737  27.168  10.659
61436W        W33861  44.557  32.109  14.329
61437W        W33862  10.158  33.046  14.030
61438W        W33863   8.825  44.037   4.173
61439W        W33864  17.504  13.845   4.285
61440W        W33865  15.417  33.252  12.110
61441W        W33866   4.304  15.349   1.834
61442W        W33867  26.251  36.853   4.732
61443W        W33868   3.235   5.415   1.236
61444W        W33869  22.317  15.198   0.777
61445W        W33870  28.235  16.537  11.484
61446W        W33871  28.751  33.783   3.798
61447W        W33872  18.168  42.933  12.383
61448W        W33873  23.917  41.524   2.627
61449W        W33874  22.468  33.869  12.470
61450W        W33875   8.601   9.104   0.260
61451W        W33876   2.367   2.886   0.868
61452W        W33877   9.954   9.149  14.164
61453W        W33878   7.444  43.499   3.147
61454W        W33879  16.151   0.295   3.594
61455W        W33880  24.111  35.277  10.298
61456W        W33881   3.986   2.884   4.871
61457W        W33882  21.658  40.006   2.861
61458W        W33883   1.744  42.377  12.046
61459W        W33884  10.325  30.048  14.352
61460W        W33885  11.358  44.711   1.618
61461W        W33886  37.544  20.595   4.394
61462W        W33887   7.791   0.102   3.856
61463W        W33888  36.394  39.963  14.401
61464W        W33889  38.408  30.592  12.072
61465W        W33890  30.146  26.964   2.800
61466W        W33891  27.946   2.688   0.158
61467W        W33892  32.167  13.573   2.226
61468W        W33893  28.938   1.558   1.537
61469W        W33894  18.993  39.563  14.929
61470W        W33895  40.810  15.264  11.927
61471W        W33896   3.289  19.604  13.281
61472W        W33897  26.535  14.677   1.160
61473W        W33898  34.331   3.323   2.291
61474W        W33899  36.482  34.893   3.706
61475W        W33900   0.836  34.693   3.639
61476W        W33901  29.629  38.427  12.351
61477W        W33902  29.857   9.203   1.809
61478W        W33903   1.004  31.668   2.244
61479W        W33904   4.511  17.821   2.223
61480W        W33905  28.046  18.723  10.010
61481W        W33906  44.842  10.691  12.435
61482W        W33907  16.828   2.843   1.283
61483W        W33908   4.173  36.276   3.904
61484W        W33909  39.000   0.017   0.352
61485W        W33910  13.140  26.574  12.240
61486W        W33911  30.136  28.570   1.594
61487W        W33912  42.248  29.530   4.917
61488W        W33913  19.001   8.920   2.505
61489W        W33914  43.704  35.982   2.253
61490W        W33915   2.845  44.018  11.808
61491W        W33916  14.759   4.703   0.803
61492W        W33917  14.563  37.413  12.886
61493W        W33918   8.802  12.457  10.841
61494W        W33919  27.393  13.904  10.858
61495W        W33920  43.424  37.587  12.396
61496W        W33921  44.775  33.901  13.871
61497W        W33922  12.016  23.928   5.323
61498W        W33923  31.317  37.269   3.314
61499W        W33924  39.423  34.615   1.590
61500W        W33925  42.348   8.822   2.102
61501W        W33926   1.409  20.824  11.537
61502W        W33927   0.277  24.299   0.450
61503W        W33928  29.534   7.910  10.682
61504W        W33929   8.370  27.994   2.372
61505W        W33930  13.810  16.255   0.366
61506W        W33931  40.006   0.762  12.022
61507W        W33932  37.317  11.140  11.671
61508W        W33933  26.085  30.192  13.472
61509W        W33934  34.888   4.700   4.018
61510W        W33935  23.104  15.259  12.610
61511W        W33936  23.614  44.966  13.395
61512W        W33937  38.869  13.671  13.997
61513W        W33938  43.904  19.333   3.169
61514W        W33939  21.041   1.515   3.907
61515W        W33940  42.377  11.839   2.638
61516W        W33941  40.820  13.316  13.815
61517W        W33942  32.570  32.126  14.503
61518W        W33943  41.466  12.730  14.255
61519W        W33944  33.052  11.615  13.011
61520W        W33945   1.010   5.355   3.711
61521W        W33946  21.117  34.306   4.113
61522W        W33947  11.333  26.264  14.248
61523W        W33948  10.565  39.252   0.234
61524W        W33949  37.571  33.597  13.096
61525W        W33950  11.830  25.872   2.847
61526W        W33951  32.112  40.086  10.702
61527W        W33952  36.810  38.126   3.742
61528W        W33953  32.616   3.891   1.829
61529W        W33954  20.491  44.495  13.298
61530W        W33955  41.453  29.102   1.725
61531W        W33956  19.960  44.887   0.710
61532W        W33957  19.054  14.239   4.896
61533W        W33958  37.167  20.298   1.334
61534W        W33959  30.495  14.399   0.168
61535W        W33960  39.133  24.285   2.071
61536W        W33961  18.220  44.882   4.590
61537W        W33962  28.912   2.359  12.870
61538W        W33963   7.852  33.959   1.976
61539W        W33964   2.356  25.948   0.390
61540W        W33965  15.386   7.334   0.936
61541W        W33966  39.632  21.314   5.050
61542W        W33967   4.184   5.971   4.654
61543W        W33968  41.451  18.215   3.901
61544W        W33969  44.830  44.981  11.457
61545W        W33970  39.366  14.636  14.524
61546W        W33971  44.313   4.396  11.523
61547W        W33972  44.522  33.055  12.037
61548W        W33973  27.478   0.159  11.961
61549W        W33974  29.635  36.880  12.818
61550W        W33975   1.433   8.759   1.729
61551W        W33976  12.759  10.377   0.924
61552W        W33977  34.460   6.200  12.389
61553W        W33978  38.816  16.616  13.119
61554W        W33979  40.049  33.944  12.459
61555W        W33980  31.903  36.033  14.551
61556W        W33981  21.436   2.521  11.842
61557W        W33982  25.628   9.690   4.059
61558W        W33983   2.016  12.088   1.165
61559W        W33984   4.310  34.091  11.517
61560W        W33985  42.886  39.846   3.619
61561W        W33986   3.249  14.640  10.926
61562W        W33987  12.281  11.099  12.466
61563W        W33988  37.392  29.231  10.127
61564W        W33989  25.242  40.889  13.522
61565W        W33990  41.844  22.648  12.965
61566W        W33991   2.186  33.615  13.168
61567W        W33992  12.740  32.074   2.778
61568W        W33993  35.145  42.966   0.441
61569W        W33994  35.298   2.787  11.426
61570W        W33995  40.501  23.974  11.181
61571W        W33996  17.760  21.981  10.692
61572W        W33997  32.895  30.825  14.297
61573W        W33998  37.584  14.501   2.099
61574W        W33999  24.520   0.568   3.144
61575W        W34000  12.014  27.880  11.563
61576W        W34001  19.573  12.801   4.116
61577W        W34002  29.022   6.138  14.759
61578W        W34003  16.576  43.301  11.961
61579W        W34004  44.931  10.937  13.333
61580W        W34005  31.899   5.761  10.603
61581W        W34006  18.563  36.703   2.156
61582W        W34007  22.856  18.552  13.500
61583W        W34008  37.334  23.521   4.658
61584W        W34009  14.246   9.792   1.020
61585W        W34010  19.055  39.634  14.137
61586W        W34011   4.479  29.674  14.024
61587W        W34012  16.638  24.647  14.118
61588W        W34013  24.016  35.142   4.093
61589W        W34014  16.205  36.760   4.896
61590W        W34015  19.573  17.628  13.038
61591W        W34016   0.371  18.262  11.603
61592W        W34017  21.524  11.241   4.737
61593W        W34018   4.883  14.829   2.739
61594W        W34019  42.598  33.393   3.105
61595W        W34020  19.171  26.127  10.841
61596W        W34021  44.879  29.751   2.862
61597W        W34022  18.402  43.763  12.858
61598W        W34023  20.371  35.194   4.092
61599W        W34024  16.231  36.353   4.589
61600W        W34025  18.088  39.519   1.773
61601W        W34026  35.035  12.749   2.661
61602W        W34027  13.834  10.211  10.672
61603W        W34028  21.719   5.267   0.652
61604W        W34029  34.618  30.532   2.604
61605W        W34030  27.537  16.598  13.966
61606W        W34031  44.063  32.416  12.848
61607W        W34032   0.513  20.499   2.360
61608W        W34033  29.375  35.751   0.554
61609W        W34034  43.508  33.060   2.763
61610W        W34035  39.265   8.323  13.911
61611W        W34036  34.405  17.133   4.086
61612W        W34037  15.182  28.068  10.918
61613W        W34038  29.017  10.797   3.361
61614W        W34039  21.139  23.560  13.360
61615W        W34040  34.023  36.594   2.528
61616W        W34041  13.646  21.107  11.096
61617W        W34042  32.661  44.720   1.690
61618W        W34043  19.542  12.251  13.638
61619W        W34044  28.065  19.109  14.675
61620W        W34045  37.438  24.993   2.745
61621W        W34046   7.738  17.538   0.759
61622W        W34047  36.037  42.192  13.366
61623W        W34048  23.482  26.749   4.723
61624W        W34049  32.012  27.193   2.821
61625W        W34050  42.698  41.296  11.968
61626W        W34051  20.074  10.427  13.389
61627W        W34052   9.661  34.481  11.839
61628W        W34053   8.355   4.275   2.890
61629W        W34054  16.138  23.547   3.628
61630W        W34055  20.183  44.307   1.876
61631W        W34056  41.127  15.505  12.956
61632W        W34057   1.188  13.816  14.365
61633W        W34058  23.707  38.466   2.721
61634W        W34059  37.394  33.202   4.293
61635W        W34060  14.393  31.489   1.970
61636W        W34061   3.521  34.192   3.408
61637W        W34062   7.679  12.800  11.243
61638W        W34063  14.833  33.183  10.326
61639W        W34064   9.650  30.084   0.121
61640W        W34065  14.880  34.845   0.913
61641W        W34066  26.552  42.401   4.336
61642W        W34067  22.370  32.553   2.609
61643W        W34068  17.371  13.015  12.482
61644W        W34069  27.644  33.993   3.047
61645W        W34070   9.182  44.276  10.524
61646W        W34071  11.799  21.828  11.418
61647W        W34072   8.279  11.136   1.463
61648W        W34073  27.345   5.562  13.390
61649W        W34074  39.328  22.749   1.474
61650W        W34075   9.173  36.263   3.582
61651W        W34076   1.837  34.421  11.549
61652W        W34077  43.024   7.097  12.933
61653W        W34078  18.305   9.819   0.854
61654W        W34079  30.976  28.916   4.332
61655W        W34080  40.358  30.926   1.200
61656W        W34081  40.563  19.714   1.786
61657W        W34082   5.972  13.847   1.801
61658W        W34083  32.882  12.218  14.297
61659W        W34084   5.339  24.835  11.224
61660W        W34085  19.545   9.120   4.717
61661W        W34086   9.398   8.732   0.343
61662W        W34087  41.463   1.428   4.948
61663W        W34088  30.991  34.394  13.880
61664W        W34089  41.255  16.312   0.312
61665W        W34090  34.757  18.330   1.463
61666W        W34091  38.441  24.071  11.446
61667W        W34092  29.983  24.689  12.622
61668W        W34093  43.110  10.300  11.978
61669W        W34094   0.447  14.255   3.762
61670W        W34095  44.469  23.600   2.375
61671W        W34096  11.201  22.601   4.511
61672W        W34097  21.352  35.543   4.099
61673W        W34098   0.840  32.828  10.597
61674W        W34099  33.423   6.736   2.608
61675W        W34100  41.473  21.169  12.007
61676W        W34101  20.820  41.037   0.227
61677W        W34102  26.071  18.957   1.386
61678W        W34103  13.035  31.644  13.832
61679W        W34104  40.976   8.240  10.767
61680W        W34105   5.927  11.945   1.735
61681W        W34106  12.014   0.015   0.999
61682W        W34107  28.718  33.458  12.056
61683W        W34108  11.126  21.075  12.872
61684W        W34109  20.562  35.809   4.198
61685W        W34110  21.414  18.969   5.142
61686W        W34111   1.328  37.392   2.339
61687W        W34112   2.454   9.227   0.002
61688W        W34113  12.730  28.409  12.604
61689W        W34114   3.709   5.215   1.319
61690W        W34115  35.506  34.555   0.519
61691W        W34116  38.325  42.912  10.451
61692W        W34117  30.932  33.703   0.709
61693W        W34118   4.380   4.015   2.296
61694W        W34119  40.364  26.317  12.425
61695W        W34120  24.528  27.682   2.377
61696W        W34121   9.863  44.508   3.159
61697W        W34122  16.144  21.075  13.795
61698W        W34123  29.613  30.591  10.350
61699W        W34124  13.434  33.452  11.169
61700W        W34125  21.033  27.937   0.914
61701W        W34126   1.829  36.088   1.233
61702W        W34127   6.933  14.163   4.138
61703W        W34128  34.544  44.711   1.857
61704W        W34129  38.095  20.914  13.479
61705W        W34130   0.884   5.272   2.254
61706W        W34131  11.806  40.509  12.899
61707W        W34132  36.302  33.682  12.357
61708W        W34133  33.024  39.678   2.692
61709W        W34134  22.064  19.018   4.597
61710W        W34135  42.518  19.522   0.813
61711W        W34136   5.329  19.249  14.450
61712W        W34137   2.045  35.623  14.884
61713W        W34138   2.255  44.018  13.781
61714W        W34139  10.196  40.098  13.614
61715W        W34140  24.820   4.795   3.780
61716W        W34141   3.908  10.233  14.107
61717W        W34142  43.228  23.007  13.964
61718W        W34143  14.031  12.700  10.750
61719W        W34144  21.520   8.539  13.393
61720W        W34145  44.448  23.688  10.654
61721W        W34146  23.122  26.372  14.936
61722W        W34147  27.462   7.648   1.724
61723W        W34148   5.180   7.230   1.344
61724W        W34149  29.495  41.100  10.857
61725W        W34150  20.654  35.395   1.341
61726W        W34151  24.319  20.801  12.444
61727W        W34152   3.488   0.131   0.091
61728W        W34153  43.813  25.651  10.663
61729W        W34154  37.077  19.647   3.138
61730W        W34155  23.736  41.114   0.313
61731W        W34156  32.967  39.288   0.382
61732W        W34157  29.210  19.760  10.905
61733W        W34158  16.761   6.462  13.098
61734W        W34159  30.769  33.002   3.673
61735W        W34160  19.743  38.501   1.169
61736W        W34161  22.130  27.992   0.005
61737W        W34162  27.170   7.391   4.967
61738W        W34163  31.445   0.366  12.681
61739W        W34164  10.649  17.185  11.635
61740W        W34165  20.499   9.120   1.671
61741W        W34166  27.985  13.656   4.636
61742W        W34167  41.026  35.355   4.577
61743W        W34168  22.955  10.238  13.534
61744W        W34169  24.785  19.151   2.210
61745W        W34170  31.441  38.202   3.653
61746W        W34171   0.141  35.687  13.662
61747W        W34172   3.679  11.114   0.284
61748W        W34173  44.246   9.867  14.867
61749W        W34174  21.585   7.430  13.129
61750W        W34175   2.356  17.649   0.500
61751W        W34176  40.968  27.121  14.299
61752W        W34177  31.488   3.376   1.968
61753W        W34178  36.136  10.329   0.258
61754W        W34179   2.217  13.535  11.898
61755W        W34180   9.660  15.208  11.415
61756W        W34181  21.173  38.997  10.937
61757W        W34182  36.060  24.657   0.305
61758W        W34183  13.372  10.129  13.230
61759W        W34184  40.695  30.416  11.511
61760W        W34185  21.666  33.518   1.572
61761W        W34186  35.463   9.209   3.745
61762W        W34187  18.435  18.564  11.134
61763W        W34188  20.040   1.702  11.490
61764W        W34189  39.553  11.067   3.726
61765W        W34190  43.459  26.208  12.540
61766W        W34191  42.434  16.914  13.855
61767W        W34192  15.248  24.471  12.120
61768W        W34193  13.342  31.569   2.309
61769W        W34194  27.466  37.446  10.508
61770W        W34195  44.139   9.429   2.491
61771W        W34196  19.265  12.177  12.401
61772W        W34197  41.138  28.080  11.998
61773W        W34198  44.805   0.312  11.078
61774W        W34199  15.617  28.674  13.839
61775W        W34200  33.691  12.666   1.873
61776W        W34201  38.356  37.223   0.473
61777W        W34202  28.446  35.056  10.907
61778W        W34203   0.135   0.895  12.841
61779W        W34204  39.858  16.509  11.646
61780W        W34205  37.343  16.352   0.342
61781W        W34206  20.701  29.909   1.915
61782W        W34207  28.264  12.302   4.220
61783W        W34208  35.573  30.304  12.422
61784W        W34209  21.160  34.111   0.017
61785W        W34210   5.785   2.469   1.410
61786W        W34211  28.549  43.217  13.056
61787W        W34212  23.997  29.398   1.682
61788W        W34213   2.280  43.320   0.702
61789W        W34214   3.370  19.728  10.709
61790W        W34215  19.278  43.448  14.100
61791W        W34216   4.425   2.787  12.517
61792W        W34217   5.890  31.329  14.086
61793W        W34218  30.955   3.016   3.901
61794W        W34219  35.128   0.587  11.537
61795W        W34220  23.307   9.864  13.340
61796W        W34221  38.296  44.468   0.909
61797W        W34222  23.473  23.407  12.918
61798W        W34223  14.095  32.679  14.354
61799W        W34224  16.965  26.113  14.669
61800W        W34225  25.725  10.898   2.705
61801W        W34226   9.754   5.879  14.400
61802W        W34227  41.475  14.824   3.311
61803W        W34228  12.697   4.229  10.923
61804W        W34229  17.358  11.858  14.907
61805W        W34230  31.996  42.298  13.414
61806W        W34231  44.954  29.863  11.858
61807W        W34232  33.990  20.095   2.042
61808W        W34233  36.602   9.182   2.233
61809W        W34234  31.345   7.453  11.179
61810W        W34235  43.888  29.706  14.359
61811W        W34236  17.988   1.977  14.989
61812W        W34237   3.444  26.995  10.534
61813W        W34238  38.178  30.678  13.374
61814W        W34239  39.754  28.498  10.387
61815W        W34240   0.543   2.667   1.402
61816W        W34241  15.433  18.815  14.313
61817W        W34242  40.485  43.831  12.126
61818W        W34243  27.241  42.475   2.329
61819W        W34244  32.991  24.506  11.623
61820W        W34245  20.285  12.871  13.542
61821W        W34246  32.988   5.701  14.082
61822W        W34247  44.787  37.391  10.181
61823W        W34248  38.594  40.055  14.927
61824W        W34249  12.224  22.953  11.685
61825W        W34250  43.785  35.707   1.770
61826W        W34251   2.668  42.709   1.497
61827W        W34252  21.076  42.320   4.154
61828W        W34253  10.220  20.558   1.311
61829W        W34254  19.215  12.760  11.568
61830W        W34255  25.993  23.255  12.298
61831W        W34256   3.566  34.908   4.971
61832W        W34257  40.640  41.057  11.081
61833W        W34258  24.467  24.236  13.321
61834W        W34259  30.836  19.790  12.495
61835W        W34260  17.283  41.011  13.999
61836W        W34261   8.241  32.169   4.201
61837W        W34262  18.349  43.870  10.643
61838W        W34263  42.328  42.210   1.363
61839W        W34264  27.732  36.370  14.325
61840W        W34265  28.697  31.323   3.806
61841W        W34266  33.985   4.315  12.765
61842W        W34267  17.341  33.112   3.609
61843W        W34268   3.748  44.127   0.836
61844W        W34269  39.974   8.637  12.635
61845W        W34270  16.505  32.197  14.949
61846W        W34271  12.650  15.808  12.506
61847W        W34272  12.288  21.141   3.531
61848W        W34273  44.847   5.185   3.183
61849W        W34274  22.046   3.456  12.914
61850W        W34275  16.744  19.113  12.073
61851W        W34276  42.881   2.445  11.834
61852W        W34277  24.704  17.490  12.763
61853W        W34278  15.679  17.518   3.830
61854W        W34279  17.078  41.814  14.402
61855W        W34280   1.187  44.551  13.707
61856W        W34281  29.190  11.824  10.912
61857W        W34282  40.624  15.684  14.413
61858W        W34283  11.850  22.788  14.797
61859W        W34284  29.503   1.991   2.413
61860W        W34285  41.385   1.956  11.613
61861W        W34286  29.986  35.925  12.285
61862W        W34287  22.491  29.316  11.540
61863W        W34288  25.233  27.131  10.723
61864W        W34289  12.573  18.983   4.316
61865W        W34290  15.704  39.305  14.802
61866W        W34291  17.705  13.374  12.825
61867W        W34292   5.188  11.025  14.897
61868W        W34293  28.245  31.955   2.697
61869W        W34294  21.104  22.059   1.659
61870W        W34295  13.506  38.997  13.282
61871W        W34296  21.127   1.886   0.820
61872W        W34297  26.392  41.327   3.298
61873W        W34298  11.212  11.407   0.262
61874W        W34299  13.382  32.323  10.161
61875W        W34300   5.668  35.837  12.403
61876W        W34301   2.386  28.669  11.983
61877W        W34302   2.893  21.586  14.251
61878W        W34303  10.579   4.736   1.386
61879W        W34304   1.911  39.606   0.348
61880W        W34305  34.084   5.657   4.673
61881W        W34306   9.207   1.807   5.107
61882W        W34307  10.784   2.672   4.315
61883W        W34308  41.544   5.464   1.038
61884W        W34309  11.117  30.896  13.134
61885W        W34310  41.233  34.567  13.855
61886W        W34311  33.890   3.511  14.286
61887W        W34312  26.113  34.089   4.640
61888W        W34313  12.104  39.225   1.423
61889W        W34314  44.520   0.530   1.823
61890W        W34315   1.897  20.222   3.243
61891W        W34316   6.282   6.281   0.484
61892W        W34317  24.953  30.488  12.430
61893W        W34318  18.061  25.616  14.212
61894W        W34319  23.482  41.893  12.119
61895W        W34320   7.282   2.877  14.583
61896W        W34321  23.656   9.351   2.593
61897W        W34322  23.765  11.880  13.786
61898W        W34323  23.106   2.321   1.344
61899W        W34324  30.798  21.774  13.604
61900W        W34325  42.557  23.921  14.866
61901W        W34326  29.325   1.848   1.323
61902W        W34327  12.290  27.273   1.256
61903W        W34328  11.950  35.953   1.991
61904W        W34329  15.208  32.661   3.214
61905W        W34330   0.518   1.270   4.867
61906W        W34331  21.587  12.675  12.592
61907W        W34332  44.771  21.650   2.314
61908W        W34333   6.458  28.619  14.407
61909W        W34334  31.092  13.718  11.068
61910W        W34335   7.964  29.277  11.048
61911W        W34336  14.773  22.010  13.418
61912W        W34337  38.463  12.366  14.898
61913W        W34338  26.877   8.347   1.261
61914W        W34339  20.364  43.479   4.108
61915W        W34340  20.853   4.402   4.356
61916W        W34341   4.011  20.833  11.064
61917W        W34342  30.560  36.381   0.803
61918W        W34343  35.022  39.132   1.859
61919W        W34344  29.900   7.800   3.285
61920W        W34345  35.937  11.399   3.430
61921W        W34346  42.036  31.679  13.329
61922W        W34347  22.257   3.942  13.022
61923W        W34348  20.313  17.243  11.937
61924W        W34349  18.683  19.343   3.246
61925W        W34350   3.336  42.142   1.946
61926W        W34351  25.193  43.026   1.590
61927W        W34352  35.666  31.930   0.864
61928W        W34353  22.806  29.988  13.436
61929W        W34354   4.293  24.105  10.804
61930W        W34355   4.751  22.101   2.835
61931W        W34356  31.544   9.880  11.060
61932W        W34357  20.973  32.953   0.876
61933W        W34358  36.947   1.482   4.281
61934W        W34359  24.490  40.394  12.493
61935W        W34360  24.191   0.994   2.248
61936W        W34361  28.519  33.528  10.944
61937W        W34362  38.980  35.551  14.014
61938W        W34363  41.286  36.578  13.848
61939W        W34364  13.193  19.071  11.481
61940W        W34365  31.852  22.660   3.052
61941W        W34366  10.843  26.584  14.727
61942W        W34367  32.845  12.702   3.318
61943W        W34368   7.008  10.992  12.331
61944W        W34369   7.305  34.433  13.360
61945W        W34370   3.958   9.139  12.510
61946W        W34371  34.559  27.631  10.599
61947W        W34372  42.383  15.785  13.116
61948W        W34373   7.773  30.178   4.803
61949W        W34374  25.761   5.677  10.965
61950W        W34375   9.703  44.273   4.126
61951W        W34376  12.365  32.173  14.868
61952W        W34377  43.031   1.925   0.411
61953W        W34378  19.367  13.295   4.864
61954W        W34379  17.349   4.567  12.138
61955W        W34380  40.991   4.892   3.420
61956W        W34381  11.280   3.453  12.075
61957W        W34382   6.906  27.538  14.814
61958W        W34383  38.911  16.151   3.359
61959W        W34384  20.076  19.661  14.886
61960W        W34385  29.386  34.690  12.590
61961W        W34386  38.885  32.470  12.131
61962W        W34387  43.269  26.574  13.305
61963W        W34388  38.005   9.757   4.090
61964W        W34389  29.953  43.945  13.854
61965W        W34390  14.335  17.076   0.002
61966W        W34391  17.350  27.992   3.826
61967W        W34392   5.451  12.139   2.839
61968W        W34393   8.135  28.121  14.859
61969W        W34394  29.077  34.601   0.313
61970W        W34395  32.414  13.719  12.882
61971W        W34396  15.533   7.383  10.537
61972W        W34397   2.340  18.559  12.014
61973W        W34398  27.070  12.390  14.463
61974W        W34399  18.160  32.497  14.728
61975W        W34400   5.820  39.907  12.923
61976W        W34401   5.360  12.706  12.693
61977W        W34402  13.841  36.332   4.746
61978W        W34403  12.343  37.929   3.302
61979W        W34404  23.976  22.940  11.214
61980W        W34405  18.765  38.878  13.053
61981W        W34406  31.554  17.732   4.218
61982W        W34407   2.033   5.993  11.097
61983W        W34408  36.971  25.775  10.824
61984W        W34409  22.231   9.839   5.155
61985W        W34410  28.966  17.792   0.470
61986W        W34411  39.287  30.500   0.275
61987W        W34412  10.752  10.179  12.016
61988W        W34413  28.506  35.811   1.424
61989W        W34414  21.739  34.979  10.716
61990W        W34415   0.380   6.844   1.858
61991W        W34416  39.341  38.805   3.708
61992W        W34417   4.720  22.902  12.468
61993W        W34418  36.115  21.230  13.315
61994W        W34419  17.510  37.968   1.432
61995W        W34420  23.512  39.090  11.574
61996W        W34421   2.353  32.088   4.561
61997W        W34422   8.670   0.355  14.770
61998W        W34423  31.068   2.259   0.318
61999W        W34424  18.551  44.246  14.736
62000W        W34425  14.237  17.536   3.201
62001W        W34426  39.471   3.745  12.966
62002W        W34427  22.934   7.027  12.007
62003W        W34428  38.619  42.400   2.736
62004W        W34429  29.958   9.409  11.673
62005W        W34430   7.163  11.491   2.570
62006W        W34431  20.164  22.336   3.149
62007W        W34432  14.757  30.859  13.436
62008W        W34433   7.523  44.009   3.228
62009W        W34434  11.385  11.035   2.581
62010W        W34435   5.738  29.487   1.369
62011W        W34436  13.743   3.253  12.016
62012W        W34437  35.506  23.648   1.910
62013W        W34438  19.448  29.400   2.345
62014W        W34439  31.429   6.276   0.352
62015W        W34440  22.490  35.656   2.694
62016W        W34441   1.802  31.689   3.926
62017W        W34442  18.991  36.823   4.372
62018W        W34443  29.498  26.323  11.080
62019W        W34444  34.355   9.952  14.580
62020W        W34445   0.905  42.340   4.372
62021W        W34446  43.949  40.479   3.913
62022W        W34447   6.854   8.262  13.434
62023W        W34448  43.502  24.985   3.612
62024W        W34449  11.564  26.420   0.394
62025W        W34450  24.883  15.148   0.445
62026W        W34451  43.000  28.214  10.403
62027W        W34452  44.981  30.653  14.406
62028W        W34453  44.839  28.444   0.925
62029W        W34454  41.556  39.558   3.257
62030W        W34455   5.665  26.211   1.299
62031W        W34456  19.742   9.736   1.002
62032W        W34457  44.757  26.636   3.814
62033W        W34458  29.643  29.934  14.225
62034W        W34459  15.184  41.040   3.199
62035W        W34460  40.774  27.239  12.567
62036W        W34461  19.707  17.816   3.415
62037W        W34462  25.623  14.546  13.962
62038W        W34463  33.989   7.006  14.028
62039W        W34464  39.565  38.959  10.647
62040W        W34465  11.882   9.236  11.091
62041W        W34466  44.597   7.342  12.928
62042W        W34467   2.938   0.957  12.464
62043W        W34468  29.675  19.066   0.337
62044W        W34469  37.228  17.056   5.009
62045W        W34470   8.415  13.305  11.375
62046W        W34471  16.057  35.905   3.597
62047W        W34472  28.945  29.706   0.942
62048W        W34473  22.125   5.314   1.898
62049W        W34474   9.335  25.676  11.425
62050W        W34475  32.170   7.932   1.302
62051W        W34476  25.102  28.543   0.981
62052W        W34477  12.896  38.927   5.263
62053W        W34478  19.959  39.839  14.882
62054W        W34479  14.872   6.373   3.679
62055W        W34480  29.370  12.694  12.119
62056W        W34481  21.572  13.000  13.052
62057W        W34482   0.455  23.997   3.317
62058W        W34483  16.789  33.124   3.692
62059W        W34484  13.692   1.565   3.941
62060W        W34485  18.059  19.937   0.636
62061W        W34486  24.017  40.924   1.271
62062W        W34487  30.920  31.989   3.191
62063W        W34488   6.726  31.481   1.807
62064W        W34489  30.436  25.960  14.393
62065W        W34490  31.890  39.923  11.570
62066W        W34491  21.473  39.810   1.430
62067W        W34492  11.849   0.887  14.554
62068W        W34493  18.283   4.454  12.956
62069W        W34494  28.191  30.349   3.358
62070W        W34495  25.586  33.677  11.986
62071W        W34496  19.638  35.838   1.701
62072W        W34497  14.627  29.951   2.645
62073W        W34498  41.030  42.192  14.536
62074W        W34499  18.822   7.116   2.356
62075W        W34500  36.572   1.927  13.339
62076W        W34501   8.113  25.600  13.042
62077W        W34502  35.429  29.884   0.449
62078W        W34503  14.826  21.666  12.094
62079W        W34504  21.633  12.046  11.860
62080W        W34505  33.412  30.656   3.643
62081W        W34506  23.682  19.845   4.800
62082W        W34507  44.841  33.915   4.930
62083W        W34508  37.265   7.176   4.262
62084W        W34509  43.338   8.058  10.467
62085W        W34510   6.761   9.142   3.944
62086W        W34511  15.700   7.330   3.738
62087W        W34512  22.035   0.294   3.320
62088W        W34513  26.561  11.572   3.561
62089W        W34514  29.167  36.284  11.916
62090W        W34515  33.713  10.745   2.725
62091W        W34516  23.649  41.075   4.307
62092W        W34517  42.502  28.056  10.507
62093W        W34518   1.457  15.756   4.124
62094W        W34519  38.707  41.981  10.085
62095W        W34520   5.371   2.156   1.348
62096W        W34521  10.255  39.745   1.689
62097W        W34522  41.082  15.810   1.626
62098W        W34523   2.406  37.041   3.569
62099W        W34524  24.502  23.634  10.406
62100W        W34525  14.623  38.005  14.214
62101W        W34526   7.715  22.316   4.115
62102W        W34527  41.862  30.889  13.023
62103W        W34528  40.942   9.616   2.158
62104W        W34529   6.084  43.047   3.281
62105W        W34530  34.125  28.034  14.397
62106W        W34531   3.779   0.009   0.501
62107W        W34532   9.202  29.680  12.024
62108W        W34533   8.684  43.838  13.967
62109W        W34534  14.070  40.655   1.037
62110W        W34535  40.782  37.072   4.765
62111W        W34536  22.998  40.868  14.807
62112W        W34537  13.426   9.890   2.587
62113W        W34538  12.250  44.416  10.368
62114W        W34539  39.023  41.567  11.442
62115W        W34540  11.629  44.365   2.274
62116W        W34541   5.143  44.850   3.712
62117W        W34542  39.507  29.149  13.357
62118W        W34543   6.074  12.360  12.093
62119W        W34544  17.034  10.786   4.182
62120W        W34545  38.139  12.309   3.752
62121W        W34546  39.783  11.252  12.803
62122W        W34547  36.546   4.737  12.092
62123W        W34548  18.294  35.054   1.466
62124W        W34549   0.776  26.916   1.236
62125W        W34550  14.357  36.405  11.061
62126W        W34551  31.075  25.703   2.224
62127W        W34552   8.102  19.716   4.784
62128W        W34553  36.950  20.656  11.000
62129W        W34554   3.939  43.023   4.771
62130W        W34555  33.839  29.597  13.472
62131W        W34556  21.403   4.330  13.728
62132W        W34557   1.717   7.774   2.594
62133W        W34558   7.976  33.951   3.203
62134W        W34559   2.425  23.920  14.181
62135W        W34560  17.276  33.488  12.524
62136W        W34561  36.861   4.873   3.797
62137W        W34562   5.909  44.467  12.080
62138W        W34563   4.302  22.626   4.496
62139W        W34564  18.156  40.224   0.537
62140W        W34565  28.266  24.539   0.700
62141W        W34566   4.250  29.884   1.806
62142W        W34567  38.908  15.906   0.049
62143W        W34568  16.395  36.032   0.704
62144W        W34569  15.336   3.734  13.065
62145W        W34570  12.534  11.313   3.076
62146W        W34571  44.494   6.157  14.852
62147W        W34572  18.660  40.873  13.051
62148W        W34573  18.342   7.134  12.076
62149W        W34574   1.391   7.907  13.661
62150W        W34575  38.085  29.970  14.015
62151W        W34576  33.062  29.631  13.929
62152W        W34577  43.882   7.184   0.301
62153W        W34578  14.587  20.731  13.002
62154W        W34579  35.542  10.864   2.656
62155W        W34580   9.358   4.350  11.508
62156W        W34581  14.679  32.651   5.272
62157W        W34582  24.475  13.125   0.284
62158W        W34583  15.197   0.529   1.773
62159W        W34584  42.865  44.019  12.945
62160W        W34585   8.339  25.229  13.323
62161W        W34586  24.071  34.489  12.017
62162W        W34587  10.674  13.176  11.201
62163W        W34588  38.510  42.761   2.110
62164W        W34589  34.283  29.697  12.134
62165W        W34590  19.324   0.741  10.733
62166W        W34591  11.287  31.074   2.576
62167W        W34592  29.101  24.987   3.866
62168W        W34593  39.566  35.403  14.815
62169W        W34594  11.274   2.043  11.073
62170W        W34595  31.832  21.701   1.279
62171W        W34596  30.027  21.394   0.431
62172W        W34597  29.815  17.334   1.457
62173W        W34598  34.009  42.022   2.917
62174W        W34599  26.907  30.746  13.590
62175W        W34600  34.728  25.118  11.219
62176W        W34601  29.036  44.010  10.669
62177W        W34602   7.818  26.774   4.145
62178W        W34603   7.166  10.280  14.741
62179W        W34604   0.031  22.112  14.902
62180W        W34605   2.299  20.497   3.438
62181W        W34606  10.126  27.897  11.565
62182W        W34607   3.323   6.832   3.867
62183W        W34608  14.879  31.432   1.706
62184W        W34609  30.936   3.717  10.543
62185W        W34610  40.780  14.925  12.312
62186W        W34611   1.952  15.788   4.884
62187W        W34612  18.854  12.726  10.561
62188W        W34613  16.871  43.914  14.914
62189W        W34614   5.148  17.056  10.721
62190W        W34615   6.573  21.319   4.681
62191W        W34616   3.009  15.683   0.687
62192W        W34617  39.407  20.299  12.873
62193W        W34618  29.896  25.133   0.866
62194W        W34619  24.002   7.224   3.753
62195W        W34620  37.578  25.561  14.264
62196W        W34621  23.994  34.108  13.796
62197W        W34622  32.386   0.374  14.911
62198W        W34623   9.319  36.484  11.499
62199W        W34624  35.906   7.614  12.548
62200W        W34625  12.639   6.130  11.599
62201W        W34626  32.942  11.841  14.956
62202W        W34627   3.495  39.984  11.129
62203W        W34628  28.942  43.533   4.593
62204W        W34629  44.830  11.309   4.920
62205W        W34630  17.597   6.697  14.807
62206W        W34631  32.849  14.415   0.485
62207W        W34632   6.420  37.982   1.681
62208W        W34633  23.196  15.014  13.548
62209W        W34634   3.635  20.652  12.622
62210W        W34635  18.631  20.553  14.036
62211W        W34636   8.793  10.221   2.161
62212W        W34637  31.296  13.437   2.005
62213W        W34638  30.528  21.604  10.796
62214W        W34639  38.878  41.266  10.783
62215W        W34640  42.367  11.638   1.326
62216W        W34641  15.184  40.518  14.962
62217W        W34642   0.934  44.883   4.024
62218W        W34643  25.460  36.107   3.134
62219W        W34644  44.847  19.275   2.157
62220W        W34645  23.559  10.408   3.380
62221W        W34646  10.178  19.260  13.009
62222W        W34647  39.804  41.561   3.546
62223W        W34648   0.583  43.833   4.061
62224W        W34649  42.885  22.233   5.572
62225W        W34650   4.940  10.899   3.090
62226W        W34651  13.316  39.531   3.731
62227W        W34652  41.609   1.655   0.450
62228W        W34653  19.316  37.344  12.457
62229W        W34654  23.526  42.088  12.619
62230W        W34655  29.739  42.384  10.999
62231W        W34656   1.248  28.618  12.584
62232W        W34657  18.793  41.879  12.457
62233W        W34658  30.187  34.476   3.657
62234W        W34659  37.445   7.889   2.546
62235W        W34660  24.470  15.240  10.683
62236W        W34661  23.101  11.130  12.171
62237W        W34662  38.429   1.243  14.287
62238W        W34663  31.551  16.886   2.360
62239W        W34664   6.669  42.934   1.870
62240W        W34665  43.057  20.865   3.225
62241W        W34666  32.982  23.456   4.287
62242W        W34667  33.330  11.138  13.049
62243W        W34668   7.361  28.984  13.883
62244W        W34669  30.011   9.818   0.732
62245W        W34670  14.684  22.737   4.161
62246W        W34671  21.356  25.525  14.276
62247W        W34672  43.532  26.598  12.850
62248W        W34673  19.041  18.371   0.728
62249W        W34674  11.819  32.084  12.231
62250W        W34675  10.107  37.557  13.763
62251W        W34676  16.581  27.443  13.096
62252W        W34677  13.855  13.374   4.069
62253W        W34678  19.866   5.622   1.722
62254W        W34679   7.382   3.728  12.594
62255W        W34680  20.655  28.736   2.268
62256W        W34681  32.951  27.969  13.046
62257W        W34682  44.766  21.696   4.802
62258W        W34683  17.101  24.969  10.307
62259W        W34684  36.588  36.707   3.202
62260W        W34685   7.706   1.186  14.321
62261W        W34686  16.237  11.450   4.439
62262W        W34687   2.535  26.200  13.564
62263W        W34688  20.795  22.621   1.154
62264W        W34689  36.698   7.356   0.829
62265W        W34690  31.250  42.265   3.784
62266W        W34691  16.659  35.392  14.488
62267W        W34692   3.460  16.801   0.814
62268W        W34693  31.508  20.479   2.656
62269W        W34694   8.948   9.264  13.480
62270W        W34695  18.985  19.326  14.005
62271W        W34696  34.461   6.473   4.503
62272W        W34697   3.917  21.653   2.550
62273W        W34698  26.508  24.536  14.418
62274W        W34699   9.400   1.834   3.670
62275W        W34700  15.660   2.267  11.527
62276W        W34701  30.387  23.451   3.201
62277W        W34702  16.212  13.869   3.524
62278W        W34703   2.902   2.180  14.913
62279W        W34704  17.788  21.097  14.839
62280W        W34705  26.202  11.344   3.281
62281W        W34706  35.852   3.252   3.551
62282W        W34707  14.088  29.177   0.326
62283W        W34708  44.943  30.000   1.921
62284W        W34709   7.359  30.174   0.660
62285W        W34710  26.418  16.236   0.136
62286W        W34711  18.861  12.154  14.436
62287W        W34712   1.955  31.065   1.132
62288W        W34713  27.878   2.980   4.514
62289W        W34714   2.559  18.667   1.980
62290W        W34715  24.106  29.398  11.280
62291W        W34716  29.701  15.221  10.800
62292W        W34717  39.386   8.766  11.994
62293W        W34718  40.371   4.834   0.730
62294W        W34719   2.846  33.768   0.713
62295W        W34720  26.231   1.260   0.093
62296W        W34721   9.716  39.575  14.894
62297W        W34722  42.938  21.904   0.317
62298W        W34723  23.622  34.346   3.866
62299W        W34724  12.640  29.098   0.906
62300W        W34725   3.220  29.640  11.573
62301W        W34726   5.259  25.011  12.600
62302W        W34727  28.429  33.392  13.934
62303W        W34728  14.229  34.108  12.095
62304W        W34729  25.965  44.485  12.126
62305W        W34730  35.931   0.752   4.664
62306W        W34731  26.869  34.571   4.619
62307W        W34732  26.403  40.301  13.446
62308W        W34733  42.776  30.579  13.833
62309W        W34734  31.962   4.463   5.218
62310W        W34735  35.988  34.975   3.617
62311W        W34736  38.613  41.419   0.866
62312W        W34737  35.248  15.770   3.311
62313W        W34738  12.343   8.718  12.247
62314W        W34739   0.572  10.494  11.355
62315W        W34740  27.554   9.337  12.523
62316W        W34741  16.523  25.222   2.818
62317W        W34742  23.771  16.830   0.051
62318W        W34743   9.904  21.256   4.199
62319W        W34744  44.081   0.777  11.099
62320W        W34745  19.025  35.422   0.407
62321W        W34746   0.222   1.813   1.125
62322W        W34747   1.014  29.419  11.213
62323W        W34748  42.366  16.030   3.241
62324W        W34749  22.662  22.456  14.865
62325W        W34750   2.408  13.521  14.829
62326W        W34751  32.459  11.423  11.998
62327W        W34752  15.321  38.032   2.744
62328W        W34753  37.295   9.079  13.245
62329W        W34754  29.104  35.953  12.282
62330W        W34755  27.195  40.918   4.207
62331W        W34756   2.245  12.448   4.179
62332W        W34757  38.826  36.990   3.119
62333W        W34758  11.592  13.940  13.628
62334W        W34759  29.176  38.268  14.103
62335W        W34760   9.368  34.522  14.074
62336W        W34761   9.920  12.712   3.614
62337W        W34762  16.815  12.621  13.919
62338W        W34763   6.417  13.279   1.820
62339W        W34764  10.290   8.782  10.389
62340W        W34765  29.086  11.269  12.928
62341W        W34766  16.014  16.998  12.804
62342W        W34767   2.314  20.138  13.319
62343W        W34768   1.774  15.375  14.856
62344W        W34769  18.034  27.501   3.243
62345W        W34770  14.297  21.505  12.957
62346W        W34771  29.771   1.035  13.788
62347W        W34772   9.890  32.201  10.473
62348W        W34773   1.463  42.361  10.978
62349W        W34774   1.190  17.141  11.120
62350W        W34775  23.646  27.289   1.373
62351W        W34776  10.291   4.418   1.651
62352W        W34777  42.008  28.252   0.418
62353W        W34778  15.701  20.223  14.058
62354W        W34779  15.069  35.972  11.883
62355W        W34780  44.008   4.726   3.108
62356W        W34781  17.749   2.518  14.350
62357W        W34782  24.139   1.259   4.237
62358W        W34783  11.036  15.848   0.368
62359W        W34784  24.694   6.824  12.859
62360W        W34785  18.858  42.121  14.818
62361W        W34786  12.592  23.587  12.423
62362W        W34787  26.159  20.267  12.375
62363W        W34788  16.934  14.473  13.504
62364W        W34789  44.479  22.302  10.637
62365W        W34790  21.649  36.097   3.251
62366W        W34791   3.759   7.049   0.517
62367W        W34792  11.287  37.662   2.441
62368W        W34793   2.807   6.585   4.585
62369W        W34794  18.011  43.990   2.011
62370W        W34795  40.342  29.366   1.854
62371W        W34796   6.652  13.653   3.238
62372W        W34797  17.167  27.694   0.622
62373W        W34798  28.587  13.817   3.979
62374W        W34799  18.587  28.805  14.859
62375W        W34800  34.434  38.532  10.702
62376W        W34801  32.488  30.791   3.760
62377W        W34802  43.860  12.406  10.435
62378W        W34803  41.992  18.607   3.338
62379W        W34804  35.632  18.119  10.495
62380W        W34805  16.298   5.836   2.128
62381W        W34806   1.028  11.825   2.651
62382W        W34807  34.065   0.909  12.029
62383W        W34808   6.258  28.705  11.620
62384W        W34809  17.742   4.336  12.366
62385W        W34810  29.988  15.173   4.182
62386W        W34811   1.278  41.382  14.225
62387W        W34812  42.020  34.403  13.501
62388W        W34813   2.473  38.381   3.056
62389W        W34814  18.285   5.847  11.214
62390W        W34815  28.112  24.440  13.820
62391W        W34816  33.853  37.287  11.596
62392W        W34817  20.690  13.954   4.985
62393W        W34818   9.533  38.807   4.981
62394W        W34819  27.621  38.844  12.525
62395W        W34820   1.398  35.260   2.307
62396W        W34821  21.719  26.063   4.690
62397W        W34822  18.936   3.847   3.164
62398W        W34823  40.287  17.634  14.271
62399W        W34824  16.574  19.317  11.644
62400W        W34825  30.612  41.789   5.411
62401W        W34826  10.680  12.330  10.211
62402W        W34827  35.002  39.577   0.828
62403W        W34828  23.401  14.299  10.697
62404W        W34829  34.681  29.071   1.852
62405W        W34830  40.005  38.246  10.701
62406W        W34831  36.573  34.511   0.972
62407W        W34832  39.375  32.625   1.370
62408W        W34833  14.099  20.009  12.545
62409W        W34834  16.538   1.760   3.138
62410W        W34835  33.071   8.113  11.682
62411W        W34836  33.379  15.111  12.459
62412W        W34837  36.556   2.470  11.498
62413W        W34838  23.435   3.258  13.792
62414W        W34839  28.257   9.689   3.543
62415W        W34840  44.411  29.128  14.795
62416W        W34841  34.638  10.806  14.482
62417W        W34842  34.539  29.449  11.072
62418W        W34843  26.589   0.538  11.110
62419W        W34844  37.650  42.803   4.043
62420W        W34845  37.532  17.378  11.148
62421W        W34846   9.147   9.887   3.241
62422W        W34847  11.552   5.758  12.978
62423W        W34848  33.576   8.983   1.684
62424W        W34849  14.198  19.594   1.227
62425W        W34850  39.863  13.405  14.907
62426W        W34851  22.062   5.676   3.245
62427W        W34852   5.612   4.316  11.076
62428W        W34853   2.494  25.197  10.963
62429W        W34854  14.754  10.129  12.249
62430W        W34855  28.582  23.913  13.458
62431W        W34856  19.468  30.516  10.959
62432W        W34857   0.498  15.837   3.337
62433W        W34858  16.705   4.533   4.253
62434W        W34859  26.115   9.671  13.554
62435W        W34860   4.622   6.140   1.714
62436W        W34861  15.195  21.807  14.449
62437W        W34862  42.645  44.426  12.716
62438W        W34863  19.506  17.067  13.020
62439W        W34864   9.737  15.810   2.348
62440W        W34865   8.592  42.454   3.149
62441W        W34866  32.411   2.239  13.432
62442W        W34867  28.170   6.810  10.884
62443W        W34868  10.870   1.726   0.880
62444W        W34869  31.743  23.916   3.547
62445W        W34870  29.030  44.159  14.872
62446W        W34871  10.015  25.535  14.387
62447W        W34872   3.916  21.242   0.719
62448W        W34873  34.506  21.187   3.794
62449W        W34874  27.980  14.730   1.209
62450W        W34875  41.234  14.048   4.155
62451W        W34876  15.643   9.921   5.042
62452W        W34877  33.434  14.995   4.519
62453W        W34878  31.425  10.564   4.158
62454W        W34879  35.147   2.594  12.347
62455W        W34880  13.472  19.205   2.339
62456W        W34881  11.288   1.778   3.118
62457W        W34882  24.044  13.406  13.075
62458W        W34883  41.919  35.911  13.480
62459W        W34884  20.652  37.374  10.736
62460W        W34885  38.018  32.729  11.242
62461W        W34886  42.458  12.403  12.436
62462W        W34887  15.022  23.108   3.224
62463W        W34888  11.657  29.484   4.113
62464W        W34889   2.596  30.608  12.903
62465W        W34890  24.452  22.201  13.362
62466W        W34891  19.195  39.067  10.671
62467W        W34892  39.896   6.403  14.700
62468W        W34893  16.030  10.431   2.242
62469W        W34894  29.391  19.150   1.700
62470W        W34895  17.594  22.305   4.664
62471W        W34896  34.475  12.820   0.283
62472W        W34897  14.279   9.266   3.238
62473W        W34898  35.883  20.226  10.872
62474W        W34899  14.175  43.821  14.764
62475W        W34900  34.517   7.029   0.808
62476W        W34901  37.181  10.716  12.400
62477W        W34902  23.359  11.979  12.507
62478W        W34903  23.927  36.042   4.449
62479W        W34904  15.612  31.916  13.436
62480W        W34905  36.410   3.652   4.254
62481W        W34906  42.355  36.403  11.118
62482W        W34907   3.782   9.364   0.200
62483W        W34908  24.860  32.249   1.396
62484W        W34909  35.377  27.550  11.855
62485W        W34910  42.844  35.308   3.241
62486W        W34911  24.457  15.193   1.976
62487W        W34912  11.312  20.738   3.062
62488W        W34913  43.919   4.711   4.325
62489W        W34914  30.117   7.156  10.749
62490W        W34915  28.818  26.155   4.958
62491W        W34916  42.805  25.604  14.238
62492W        W34917   6.628  43.751  12.110
62493W        W34918   0.390  11.610   1.190
62494W        W34919  13.160   5.859   2.659
62495W        W34920   1.279  10.409  11.869
62496W        W34921   9.374  25.317  13.998
62497W        W34922   8.530  38.434  11.515
62498W        W34923  22.774  34.167  14.770
62499W        W34924  27.155  29.340  14.792
62500W        W34925  42.440  15.652  13.619
62501W        W34926  27.695   4.280  13.839
62502W        W34927  25.640  23.716   2.620
62503W        W34928  38.510   9.844  14.757
62504W        W34929  38.799  18.515  12.594
62505W        W34930   4.266  13.322  14.971
62506W        W34931  32.158  20.712  10.623
62507W        W34932   7.359  29.942   1.728
62508W        W34933  13.696  32.464  11.060
62509W        W34934   8.376   5.439   4.088
62510W        W34935  39.468  10.124  12.601
62511W        W34936   2.475  14.342   3.254
62512W        W34937  18.997   0.623  12.988
62513W        W34938   1.728   2.959  13.543
62514W        W34939  29.580  43.568   3.200
62515W        W34940   5.532   6.064  14.534
62516W        W34941  24.038  26.271  11.639
62517W        W34942   3.433  14.073   0.581
62518W        W34943  12.790   3.434   1.808
62519W        W34944   7.442  42.940  10.730
62520W        W34945  39.884  40.378   4.013
62521W        W34946  40.849   0.488   0.540
62522W        W34947  19.730   7.848  13.946
62523W        W34948   0.965  43.001  12.175
62524W        W34949  31.578  23.214   5.187
62525W        W34950   9.298   7.668   4.537
62526W        W34951  37.781  33.963  10.624
62527W        W34952  21.631   6.953   3.182
62528W        W34953  43.999  23.969  12.044
62529W        W34954  33.904  10.167  14.736
62530W        W34955  16.207  20.439   0.226
62531W        W34956  32.963  24.886  12.991
62532W        W34957   6.844   7.805  14.031
62533W        W34958  25.632  34.715  14.317
62534W        W34959  40.655  21.563   1.307
62535W        W34960  16.159  22.969  14.509
62536W        W34961   8.556   9.190  11.074
62537W        W34962   3.477  22.583  11.869
62538W        W34963  10.280  41.254   0.974
62539W        W34964   7.825  13.159   2.938
62540W        W34965  38.317  17.713  12.123
62541W        W34966  10.632   1.495   2.869
62542W        W34967  38.598  15.193  13.978
62543W        W34968   2.848   1.774   1.131
62544W        W34969  16.194   5.235  14.218
62545W        W34970   8.779  22.722   1.345
62546W        W34971  15.976  32.243  14.918
62547W        W34972  19.010  29.655  13.468
62548W        W34973   2.197   2.519   4.134
62549W        W34974   6.951  30.560   4.095
62550W        W34975  23.116  12.277   0.918
62551W        W34976  32.200  44.499   1.592
62552W        W34977   7.144   5.453   0.888
62553W        W34978  21.698   0.002   3.063
62554W        W34979  29.714   7.720   0.197
62555W        W34980  24.311   4.808   3.608
62556W        W34981  25.157   2.734  10.677
62557W        W34982  23.861   7.072  11.887
62558W        W34983   7.384  24.808  12.425
62559W        W34984   0.792   9.182   0.852
62560W        W34985  33.481   0.185  10.731
62561W        W34986  33.817  28.913   3.705
62562W        W34987   3.865  34.868  12.541
62563W        W34988  14.401  21.662  11.371
62564W        W34989  42.544  21.168   1.969
62565W        W34990  30.543  22.420   4.204
62566W        W34991  21.695  17.319   0.793
62567W        W34992  28.014   4.900   1.907
62568W        W34993  41.612   6.263  13.970
62569W        W34994  13.378  35.334   0.248
62570W        W34995  37.543   7.162  12.038
62571W        W34996  10.711  41.533   0.842
62572W        W34997  21.519  14.284   0.281
62573W        W34998  44.366  15.560  12.959
62574W        W34999  29.360  18.911  14.955
62575W        W35000  11.611  16.755   4.899
62576W        W35001   5.194  22.319  10.916
62577W        W35002   3.143   6.602   5.003
62578W        W35003  35.332   8.645  12.026
62579W        W35004  43.325  16.283   3.635
62580W        W35005   8.752  17.721   3.513
62581W        W35006   3.287  10.871  14.736
62582W        W35007  14.296  13.130  10.676
62583W        W35008  37.519  29.191  14.967
62584W        W35009  33.772  13.415   0.459
62585W        W35010   9.550   2.358   2.619
62586W        W35011  40.398  34.393   1.844
62587W        W35012  42.805  31.308  12.114
62588W        W35013   1.927  20.762  10.686
62589W        W35014  11.217  10.613   4.035
62590W        W35015  31.185  38.841  11.555
62591W        W35016  22.039  25.710  12.650
62592W        W35017  13.022  37.955  12.312
62593W        W35018  30.370  32.012   3.164
62594W        W35019   3.007  31.326  11.104
62595W        W35020  39.312  25.591   1.302
62596W        W35021  30.568  22.009  14.636
62597W        W35022  39.896  23.756   3.854
62598W        W35023  23.520  30.228  12.224
62599W        W35024  30.483  37.113  14.250
62600W        W35025  14.551  43.921   2.126
62601W        W35026  23.228   9.744   0.345
62602W        W35027  25.601  42.213   4.289
62603W        W35028  29.505  15.868   2.421
62604W        W35029  22.590   9.454   5.025
62605W        W35030  35.809  26.066   1.788
62606W        W35031   4.407   7.991  10.675
62607W        W35032  12.196  43.927   2.858
62608W        W35033  31.111  18.313  10.415
62609W        W35034  10.139  25.519   1.405
62610W        W35035  22.406  18.773   0.474
62611W        W35036  22.814  43.614  14.463
62612W        W35037  32.007  10.352   4.344
62613W        W35038  37.908   7.998  14.483
62614W        W35039  31.732  26.724  13.409
62615W        W35040  25.175  40.414   4.079
62616W        W35041  15.860  37.562  12.564
62617W        W35042  40.529   3.918  13.058
62618W        W35043  18.624  40.516  12.094
62619W        W35044   2.676   2.516   1.047
62620W        W35045  42.325  28.300   2.590
62621W        W35046  11.345  25.585   2.046
62622W        W35047  16.050  41.835  14.367
62623W        W35048   5.976  13.229  12.495
62624W        W35049  15.168  17.598  11.059
62625W        W35050   3.219   6.374  14.016
62626W        W35051   4.386  32.532  12.396
62627W        W35052   8.637  25.000  11.728
62628W        W35053  38.056   1.464  12.511
62629W        W35054  36.470  15.776   4.642
62630W        W35055  26.933  17.194  14.982
62631W        W35056   4.382  22.607  10.694
62632W        W35057  39.991  40.492  13.265
62633W        W35058  42.877   5.258  14.897
62634W        W35059  34.363  30.581  14.815
62635W        W35060   8.599  36.523   2.355
62636W        W35061  25.204  28.952  12.445
62637W        W35062  28.886  18.314   2.739
62638W        W35063  20.107   4.194   2.150
62639W        W35064   1.268  30.103  12.874
62640W        W35065  16.048   1.519   1.016
62641W        W35066   7.489  18.549   2.670
62642W        W35067  31.374  23.068  12.514
62643W        W35068   4.059   1.481  13.761
62644W        W35069  29.081  21.130   4.740
62645W        W35070   0.929   5.929   3.583
62646W        W35071  18.299   9.841  10.852
62647W        W35072  42.011  30.078   4.206
62648W        W35073  43.311  43.491   4.414
62649W        W35074   5.508  43.508   0.805
62650W        W35075  24.439   5.878  14.807
62651W        W35076   6.182  31.092   1.872
62652W        W35077  36.861  14.786   3.349
62653W        W35078  21.000  23.785  12.403
62654W        W35079  38.387  21.541  10.894
62655W        W35080   7.745  16.759   2.612
62656W        W35081   7.887  27.752   2.443
62657W        W35082   6.183  42.713   0.902
62658W        W35083   6.729  10.205   2.412
62659W        W35084  43.065  37.310   4.524
62660W        W35085  32.093  17.382  13.675
62661W        W35086  27.220   2.786   3.683
62662W        W35087  21.656  39.477   0.216
62663W        W35088  14.144  42.891   1.166
62664W        W35089  25.545  24.640   1.714
62665W        W35090  41.233  32.414  11.163
62666W        W35091  16.378  23.506   2.272
62667W        W35092  35.577  24.767  11.226
62668W        W35093  13.687  39.131  11.589
62669W        W35094  33.598  28.773  11.981
62670W        W35095   3.862  40.243  13.414
62671W        W35096  15.033   7.007   3.328
62672W        W35097  33.264  22.296  13.484
62673W        W35098  37.913  31.669  13.360
62674W        W35099  34.267   6.880   0.376
62675W        W35100  26.059  22.021  12.516
62676W        W35101  39.104  37.197   2.592
62677W        W35102  33.953  43.440  11.999
62678W        W35103  21.771   2.240   2.394
62679W        W35104   4.924  29.940   5.027
62680W        W35105  14.657  11.885   0.300
62681W        W35106   5.902  42.243   4.655
62682W        W35107  32.566   8.200  14.925
62683W        W35108  18.300  10.692  10.956
62684W        W35109  25.138   5.487  12.918
62685W        W35110  37.504  17.908  12.959
62686W        W35111  44.373  27.152  10.958
62687W        W35112  29.625  43.029   4.098
62688W        W35113   4.691  12.839   2.261
62689W        W35114  27.009  20.663  10.843
62690W        W35115   5.216   1.828  13.072
62691W        W35116   2.985  32.096  12.522
62692W        W35117  13.128  41.602   5.344
62693W        W35118  17.141   6.187   2.783
62694W        W35119  33.760  39.907   0.724
62695W        W35120  37.612  44.265  10.687
62696W        W35121  30.582  34.439  10.570
62697W        W35122  11.702   4.872  13.178
62698W        W35123  39.971   0.246   0.936
62699W        W35124  24.775   8.574   1.939
62700W        W35125  17.736   2.433  14.862
62701W        W35126  38.943  24.864   3.643
62702W        W35127   2.443  14.275   1.424
62703W        W35128   9.666   6.927   2.344
62704W        W35129  31.154  20.038  13.985
62705W        W35130  43.161  14.628   0.843
62706W        W35131  39.899  19.718   3.641
62707W        W35132  20.087  22.932  10.747
62708W        W35133   8.192  32.157  14.858
62709W        W35134  32.563   7.257   4.799
62710W        W35135  28.614  34.790   0.698
62711W        W35136  31.687  39.421  13.352
62712W        W35137  28.394  43.540  13.440
62713W        W35138  44.722  32.302  12.449
62714W        W35139  26.309  39.220   2.809
62715W        W35140  14.033  22.242  14.818
62716W        W35141   2.215  44.296  14.213
62717W        W35142  20.889  39.422  13.955
62718W        W35143   0.773  40.472  12.742
62719W        W35144  18.826  44.196  13.951
62720W        W35145  39.343   9.798  10.612
62721W        W35146  31.100  32.670   4.579
62722W        W35147  13.408  38.485   0.691
62723W        W35148  22.274  14.185   4.314
62724W        W35149  20.183   4.279   4.637
62725W        W35150  42.028   9.779   3.109
62726W        W35151  38.725  27.449  11.746
62727W        W35152  40.932  12.710   0.006
62728W        W35153   7.162  40.917  13.260
62729W        W35154  33.908  40.148  12.031
62730W        W35155  14.305  19.105   0.828
62731W        W35156  19.141  38.088  11.932
62732W        W35157   9.878   2.462  11.123
62733W        W35158  29.828  10.980  13.841
62734W        W35159  41.357  20.176   4.530
62735W        W35160  13.625  37.121  13.877
62736W        W35161  29.921  42.849   3.700
62737W        W35162  29.084  21.180   0.282
62738W        W35163   9.380  41.314   4.964
62739W        W35164  43.517  21.915   0.347
62740W        W35165  14.919   7.907  11.124
62741W        W35166  17.199   1.565   2.917
62742W        W35167  11.809  15.776  14.980
62743W        W35168  10.625  14.789  11.561
62744W        W35169  13.129  17.023   2.644
62745W        W35170  26.165  33.014  13.458
62746W        W35171  17.614   8.443  13.422
62747W        W35172   0.812   1.885  10.778
62748W        W35173  15.341  13.062  11.897
62749W        W35174  29.179  30.091  13.411
62750W        W35175  38.000  33.096   3.565
62751W        W35176  11.749  11.995   2.783
62752W        W35177  28.167   4.763  14.581
62753W        W35178  26.364  16.998  11.633
62754W        W35179  14.685  12.005   2.006
62755W        W35180  12.653  11.289  10.685
62756W        W35181  41.730   7.875  13.389
62757W        W35182  34.078  31.466  13.266
62758W        W35183  25.828  39.638   1.321
62759W        W35184   8.789  24.555  11.486
62760W        W35185   4.408   3.917  14.005
62761W        W35186   1.848  13.865  13.922
62762W        W35187  35.395  32.028  14.541
62763W        W35188  36.467  26.509  13.032
62764W        W35189  29.299   0.113   0.359
62765W        W35190   6.310  39.217  11.064
62766W        W35191  29.476  35.782   5.076
62767W        W35192   8.896  30.422  11.045
62768W        W35193  29.131  26.095  12.018
62769W        W35194  10.253  24.985   0.292
62770W        W35195  28.387  29.030  12.929
62771W        W35196  19.608  29.470   4.181
62772W        W35197   9.844  10.296   2.234
62773W        W35198   6.321  32.301  12.121
62774W        W35199  10.641  44.978   4.205
62775W        W35200  28.938  34.810   3.553
62776W        W35201  35.778  23.000  12.173
62777W        W35202  18.427  27.625  10.689
62778W        W35203  27.109   2.768  11.665
62779W        W35204  37.799  27.112  12.684
62780W        W35205  33.154  12.168   1.221
62781W        W35206   1.465  33.343  11.898
62782W        W35207  44.048  35.415   2.940
62783W        W35208  38.192  19.551   2.402
62784W        W35209   0.735  24.385   3.142
62785W        W35210  34.141  30.602  13.627
62786W        W35211  14.988  13.248   1.236
62787W        W35212   2.288  30.913  12.590
62788W        W35213  35.024  28.671  11.157
62789W        W35214  10.895  37.895   3.305
62790W        W35215  41.789   3.911   1.207
62791W        W35216  18.279  13.915  12.139
62792W        W35217  20.535  37.167  12.052
62793W        W35218  41.327  16.180  11.080
62794W        W35219  16.317  18.712   2.166
62795W        W35220   9.322  34.310  10.984
62796W        W35221  23.699  21.764   4.430
62797W        W35222  27.126  35.016  14.443
62798W        W35223  15.809   6.401  12.915
62799W        W35224   1.865   1.651   2.398
62800W        W35225  27.060  24.425   2.042
62801W        W35226  37.070  15.190  13.931
62802W        W35227  28.203  36.672  14.330
62803W        W35228  27.893  20.641  13.648
62804W        W35229  30.945   4.276   3.146
62805W        W35230  17.998  41.794   0.192
62806W        W35231  33.505  43.644  10.699
62807W        W35232  17.852  39.573  14.121
62808W        W35233  30.285  13.072  11.708
62809W        W35234   3.756  14.614   0.368
62810W        W35235  13.051  29.113  13.485
62811W        W35236  10.932  38.127   0.951
62812W        W35237  16.826  11.751  11.368
62813W        W35238  33.954  41.959   0.820
62814W        W35239  38.071  21.187   3.841
62815W        W35240  32.681  17.027   3.409
62816W        W35241  13.047  26.518   3.004
62817W        W35242  20.504   9.230   2.167
62818W        W35243  10.578  32.055   3.587
62819W        W35244  28.972  14.266   0.355
62820W        W35245  14.716  23.774  13.782
62821W        W35246   7.421  11.296   3.998
62822W        W35247  24.230  20.802   2.341
62823W        W35248  21.128   4.911  10.157
62824W        W35249   9.115   5.848  13.028
62825W        W35250  22.230  19.040   4.073
62826W        W35251  12.039  37.492  12.046
62827W        W35252   4.371  15.675  11.865
62828W        W35253  20.633   1.283   4.152
62829W        W35254  26.655  26.175  12.538
62830W        W35255  18.185  41.014   0.821
62831W        W35256  34.049  35.622  12.108
62832W        W35257  43.272  37.197  13.882
62833W        W35258  34.441  41.364   0.741
62834W        W35259   1.386  23.213  11.194
62835W        W35260  31.042  41.607  12.620
62836W        W35261  21.709  33.055  11.497
62837W        W35262  33.580  16.783   0.056
62838W        W35263   1.925  22.496  13.310
62839W        W35264  23.134   3.208   4.741
62840W        W35265   4.408  31.938   0.298
62841W        W35266  31.287  22.540  13.848
62842W        W35267   2.353  44.782   1.175
62843W        W35268   1.301  43.917   1.364
62844W        W35269  30.878   7.618  13.139
62845W        W35270  29.539  23.634  13.901
62846W        W35271  43.834  41.816  14.239
62847W        W35272   8.135   2.385   1.327
62848W        W35273  30.588  27.933   0.840
62849W        W35274  43.884   6.747   3.608
62850W        W35275   3.370  14.685   3.154
62851W        W35276   1.501  28.051   3.261
62852W        W35277  25.959  26.753  12.902
62853W        W35278  23.533  28.121   0.267
62854W        W35279   4.207  35.556   2.268
62855W        W35280   0.291   2.841   0.814
62856W        W35281   4.451   6.284   3.682
62857W        W35282  17.533  19.954  12.102
62858W        W35283  32.212   7.770  10.384
62859W        W35284  25.017  27.530  12.606
62860W        W35285  30.160  13.574  14.778
62861W        W35286  16.539  35.909  14.340
62862W        W35287  38.294  20.805   2.515
62863W        W35288   6.638  23.736  12.517
62864W        W35289  17.817  30.621   4.426
62865W        W35290  20.102  15.286  13.276
62866W        W35291  37.173  34.543   0.550
62867W        W35292  28.975  40.192  12.821
62868W        W35293  24.092  26.290   4.892
62869W        W35294  37.350  31.645  12.969
62870W        W35295  18.306  13.086  10.710
62871W        W35296  20.437  39.779  11.143
62872W        W35297  40.118  21.961  14.276
62873W        W35298  23.503  38.484  13.738
62874W        W35299  25.938  20.744   4.744
62875W        W35300  12.796  15.246   1.310
62876W        W35301  21.817  12.930   0.947
62877W        W35302  22.217  25.175   0.807
62878W        W35303   9.588  18.099  12.516
62879W        W35304  34.543  12.346   1.295
62880W        W35305  44.958  17.035   4.963
62881W        W35306  32.919  19.582   0.192
62882W        W35307  41.553  34.530   1.234
62883W        W35308  35.560   3.529  12.391
62884W        W35309  11.300  41.419  10.693
62885W        W35310  17.808  19.080  13.442
62886W        W35311  37.532  15.042   1.244
62887W        W35312   5.349  21.673   1.202
62888W        W35313  23.420   4.840  11.034
62889W        W35314  38.479  44.115  12.566
62890W        W35315   8.001  10.855  13.845
62891W        W35316  16.041  35.616   1.726
62892W        W35317  15.325   0.824  11.271
62893W        W35318  39.740  16.843  14.379
62894W        W35319   1.821  32.114   2.835
62895W        W35320  27.875   9.769   3.123
62896W        W35321   7.919  29.415   3.300
62897W        W35322  21.092  38.520   1.641
62898W        W35323  12.692  19.249  11.618
62899W        W35324  17.082  42.083   0.328
62900W        W35325   9.613  32.940   0.032
62901W        W35326   0.189  33.321  14.499
62902W        W35327  31.878  31.588  11.020
62903W        W35328  13.710  44.413  13.629
62904W        W35329  13.552   5.712  12.107
62905W        W35330  14.739  17.816  10.818
62906W        W35331  13.740  23.114   0.952
62907W        W35332   6.363   1.621   0.032
62908W        W35333   8.086  42.614   3.083
62909W        W35334   1.362   2.839  12.200
62910W        W35335   1.313  16.648   3.752
62911W        W35336  25.662  11.509  10.609
62912W        W35337  18.361  22.645  12.550
62913W        W35338  44.458  12.249   2.475
62914W        W35339  42.036  18.732   1.882
62915W        W35340  36.476   6.730   1.837
62916W        W35341   7.776  31.146   0.787
62917W        W35342  29.424  35.579  13.830
62918W        W35343  23.484   6.748  11.992
62919W        W35344  38.331  30.042   3.153
62920W        W35345  11.286  35.358  13.576
62921W        W35346   7.521  24.791  12.949
62922W        W35347  17.547  10.693  11.886
62923W        W35348  36.867  11.573  14.445
62924W        W35349   2.459   3.901  14.377
62925W        W35350  38.367  13.607  11.216
62926W        W35351  12.818  22.795  13.505
62927W        W35352  17.063  31.941  11.266
62928W        W35353  17.311  16.220   2.250
62929W        W35354  36.054  37.886  14.087
62930W        W35355  43.984  18.812   3.217
62931W        W35356  28.125  22.036  11.324
62932W        W35357   8.474  13.810  11.250
62933W        W35358   9.632  26.796  13.088
62934W        W35359   5.976  22.759  14.399
62935W        W35360  40.992  41.028  12.124
62936W        W35361   3.161  19.628   3.735
62937W        W35362   4.005  26.008   1.721
62938W        W35363  31.409  22.641   4.353
62939W        W35364  32.389  31.715  11.001
62940W        W35365  10.758  14.222   1.638
62941W        W35366   3.863  30.897  14.822
62942W        W35367  35.679  39.908   0.062
62943W        W35368  31.530   3.715   3.275
62944W        W35369  27.539   9.835  12.397
62945W        W35370  39.802  16.182   0.240
62946W        W35371   8.454   9.769   4.197
62947W        W35372  36.461  44.937   1.668
62948W        W35373  18.596  41.862   3.630
62949W        W35374   2.962  37.732   3.822
62950W        W35375  36.604  36.945  12.013
62951W        W35376   9.709   1.987  13.481
62952W        W35377  35.496  13.594  12.953
62953W        W35378  37.627  23.064   0.889
62954W        W35379  27.657  28.073  11.170
62955W        W35380  16.067  14.724   2.309
62956W        W35381  21.676  32.602  14.211
62957W        W35382  25.750   4.336  14.016
62958W        W35383  44.971  22.487  13.600
62959W        W35384  23.286  32.964   2.946
62960W        W35385  15.179  20.603   1.388
62961W        W35386  20.477  11.851   9.829
62962W        W35387  28.567   8.992  13.252
62963W        W35388  31.302  24.138  12.037
62964W        W35389  35.491  13.154   3.319
62965W        W35390  43.028  27.055  13.565
62966W        W35391  13.682  37.451  14.303
62967W        W35392  15.475   1.369  14.893
62968W        W35393   6.279  39.313  11.941
62969W        W35394  22.200  42.187   0.428
62970W        W35395  38.588  43.245  10.150
62971W        W35396  35.939   7.073  12.565
62972W        W35397  35.296  37.997   4.544
62973W        W35398  41.959   7.304   3.606
62974W        W35399  39.469   3.808  12.054
62975W        W35400  36.127  24.128  12.112
62976W        W35401  34.916   6.329  12.798
62977W        W35402  10.592  32.232   0.212
62978W        W35403   8.527  11.443   1.040
62979W        W35404  11.811  24.755  11.242
62980W        W35405   7.342   1.875   1.211
62981W        W35406  20.487  25.671   2.289
62982W        W35407  28.422  19.027  10.667
62983W        W35408  14.467  33.143  11.166
62984W        W35409  31.059  26.901   3.674
62985W        W35410  43.731  16.713   4.757
62986W        W35411   3.812  40.056  14.888
62987W        W35412  14.689  24.704  13.825
62988W        W35413   4.238  39.803   0.029
62989W        W35414   5.847  44.673  10.979
62990W        W35415   6.146   2.482  11.968
62991W        W35416  35.544   9.316   1.901
62992W        W35417  15.726  22.441   1.137
62993W        W35418   3.852  43.408   3.176
62994W        W35419  22.643  25.110   1.363
62995W        W35420  34.964  29.427   2.205
62996W        W35421  37.499  32.039  13.413
62997W        W35422  15.537   9.451   4.206
62998W        W35423  28.808  23.575  14.442
62999W        W35424  17.751  23.219   0.666
63000W        W35425  11.768  29.092   2.190
63001W        W35426  44.369  24.460  12.424
63002W        W35427   5.031  20.700  14.635
63003W        W35428  11.604   8.391   1.653
63004W        W35429  11.032  12.441  10.601
63005W        W35430  16.002  31.500   3.311
63006W        W35431  11.843  26.139  12.973
63007W        W35432   1.371  43.293   0.160
63008W        W35433  39.049  12.310  10.438
63009W        W35434  33.860  23.607   4.061
63010W        W35435  36.019   2.021  12.497
63011W        W35436   7.374  14.411  14.364
63012W        W35437  18.511  33.087  13.027
63013W        W35438  39.244   2.338   3.687
63014W        W35439  40.084  32.018  10.889
63015W        W35440  16.824   3.247  13.945
63016W        W35441  31.212  23.920   3.688
63017W        W35442  44.283   7.495   0.411
63018W        W35443  36.046  42.547   3.163
63019W        W35444  19.755   8.862   0.928
63020W        W35445  17.193  26.194   0.217
63021W        W35446  18.631  22.343   3.329
63022W        W35447  25.675   8.767  13.808
63023W        W35448  20.725  15.387   3.622
63024W        W35449  12.191  10.737   3.024
63025W        W35450  40.858  33.678   2.154
63026W        W35451   5.929  23.042   3.068
63027W        W35452  21.249  36.465  12.895
63028W        W35453  12.491  35.450  12.654
63029W        W35454  27.507  27.587  10.381
63030W        W35455  18.012  36.817   1.406
63031W        W35456  22.523  41.842  14.852
63032W        W35457  37.833  24.041  12.810
63033W        W35458  43.853  30.910   2.072
63034W        W35459  18.588   7.378  14.776
63035W        W35460  28.807   9.189   2.782
63036W        W35461  21.686   6.075   4.774
63037W        W35462  43.711  28.780  13.635
63038W        W35463   1.431  13.106  14.874
63039W        W35464  31.855  36.129   1.408
63040W        W35465  22.235   0.910   0.743
63041W        W35466  36.686  18.256   1.613
63042W        W35467  19.851  35.526   3.661
63043W        W35468  34.905  15.240  14.753
63044W        W35469   9.209  33.692   2.112
63045W        W35470  27.210  15.477   2.720
63046W        W35471  32.514  24.796   4.746
63047W        W35472  29.938  31.960  12.807
63048W        W35473  21.092   8.498  12.534
63049W        W35474  38.744  29.090   2.152
63050W        W35475  32.713  33.051   3.093
63051W        W35476  28.554  31.809   3.956
63052W        W35477  24.031  40.715   4.281
63053W        W35478  36.090   9.267  11.198
63054W        W35479  30.607   1.022   4.044
63055W        W35480  34.190   1.744   2.686
63056W        W35481  41.115  15.674  10.929
63057W        W35482  36.422   7.632   5.062
63058W        W35483   0.803   3.167   4.548
63059W        W35484  31.988  14.303  14.529
63060W        W35485  29.072  34.159   1.387
63061W        W35486  30.970  29.686   3.758
63062W        W35487  28.181  43.586   3.308
63063W        W35488   5.387  11.592  14.555
63064W        W35489  28.092  14.114   4.367
63065W        W35490  25.000   9.142   4.764
63066W        W35491   6.706  30.196  12.084
63067W        W35492  42.765  21.659  11.424
63068W        W35493   9.869  17.609  12.451
63069W        W35494  11.555   5.677  14.947
63070W        W35495  29.852  19.248   4.767
63071W        W35496  20.503  29.540  12.522
63072W        W35497  31.256  21.021   1.496
63073W        W35498  38.387  43.245   2.288
63074W        W35499   0.436   0.808  14.264
63075W        W35500  43.118   3.285   0.313
63076W        W35501  44.160   8.645  12.930
63077W        W35502  35.407   5.390  11.190
63078W        W35503  31.405  23.525  11.455
63079W        W35504  22.570  16.724  12.055
63080W        W35505  18.660  14.899  12.860
63081W        W35506   2.413  13.606   4.431
63082W        W35507  21.153  12.275  10.153
63083W        W35508  42.907  22.591   3.141
63084W        W35509  31.164  31.574  14.134
63085W        W35510  32.545  29.722  12.225
63086W        W35511   4.439  41.462   2.367
63087W        W35512   1.961  31.154   0.619
63088W        W35513  17.300  11.417  14.230
63089W        W35514   4.491  16.183  14.405
63090W        W35515  37.084   0.936   0.270
63091W        W35516   8.810  40.477  13.372
63092W        W35517  39.797  21.229  12.769
63093W        W35518  30.713  22.034   3.332
63094W        W35519  28.563   1.647  11.563
63095W        W35520  10.071   6.820  11.208
63096W        W35521  13.143   1.451  12.552
63097W        W35522  19.243   6.875   4.873
63098W        W35523   4.417   8.725   3.194
63099W        W35524   7.869   2.338  10.746
63100W        W35525  19.613  30.881   3.200
63101W        W35526  40.596  39.333   0.924
63102W        W35527  10.004  18.750  12.986
63103W        W35528  16.154  40.407  11.728
63104W        W35529  40.500  13.353   4.122
63105W        W35530   9.655   9.811  11.838
63106W        W35531  15.558  31.548  13.872
63107W        W35532  41.893  13.877  12.018
63108W        W35533  12.870  26.470  10.059
63109W        W35534  14.130  12.723   0.970
63110W        W35535  31.536  29.058  10.806
63111W        W35536  37.953  26.104   4.349
63112W        W35537   3.804   3.636  13.788
63113W        W35538   0.464  34.770   1.276
63114W        W35539  26.202  42.073   3.191
63115W        W35540  41.282   0.930  14.500
63116W        W35541   1.676  17.643  14.880
63117W        W35542  22.680   9.220   1.222
63118W        W35543  18.678  17.256   1.144
63119W        W35544  44.403  28.524   1.237
63120W        W35545  25.646  35.625   2.606
63121W        W35546  10.763  33.682   2.180
63122W        W35547  23.512  15.635   2.945
63123W        W35548  31.488   9.792  13.800
63124W        W35549  33.074  18.729  13.254
63125W        W35550  38.910  41.056  12.615
63126W        W35551  22.383   6.227  14.132
63127W        W35552  30.170   7.093   1.845
63128W        W35553   5.522  29.494   1.836
63129W        W35554  26.904   3.235   3.606
63130W        W35555   4.980   6.676   0.597
63131W        W35556   3.812  11.403  14.842
63132W        W35557  28.462  20.050  10.905
63133W        W35558  29.148   4.461  12.021
63134W        W35559  40.071   2.356  12.485
63135W        W35560   7.787  22.262   2.857
63136W        W35561  40.246  21.406  12.967
63137W        W35562  33.547  31.046  12.625
63138W        W35563  41.285   1.692  10.759
63139W        W35564  43.829   8.379   1.423
63140W        W35565  32.418  16.532   2.830
63141W        W35566  28.554  11.082  11.838
63142W        W35567   6.468  39.056  14.787
63143W        W35568  20.014  19.487  11.186
63144W        W35569  22.671  39.996  11.679
63145W        W35570  26.695  22.321   0.779
63146W        W35571  43.702  16.999  13.402
63147W        W35572  35.098   7.153   2.284
63148W        W35573  18.076   1.922   2.086
63149W        W35574  11.499  40.303   2.096
63150W        W35575   0.904  33.059  11.040
63151W        W35576  36.013  21.923  12.259
63152W        W35577  25.967   4.225  12.185
63153W        W35578  21.299  43.723  11.487
63154W        W35579  38.832  20.672   0.357
63155W        W35580  22.412  30.293  13.572
63156W        W35581  16.339  10.506  12.514
63157W        W35582  39.883  10.406   1.876
63158W        W35583  38.900  11.379  10.809
63159W        W35584   6.474  39.510   4.569
63160W        W35585  15.853   1.128  11.916
63161W        W35586  14.537   9.001  11.603
63162W        W35587  30.745  18.625   0.813
63163W        W35588  18.982  12.585  12.979
63164W        W35589  26.816   0.192   3.004
63165W        W35590   4.355  11.865   1.372
63166W        W35591  35.156  15.676  14.909
63167W        W35592  26.499  39.084  11.159
63168W        W35593   6.647  42.970  13.970
63169W        W35594  37.110  13.712   2.582
63170W        W35595  20.414  18.101   1.741
63171W        W35596   4.721  22.443   2.455
63172W        W35597   5.520  10.734   0.163
63173W        W35598  26.137  12.196  11.414
63174W        W35599  30.926  25.785   3.165
63175W        W35600  26.741  30.294   1.754
63176W        W35601  33.465   3.675  13.955
63177W        W35602   0.211  29.973   3.711
63178W        W35603  26.769   0.829  14.987
63179W        W35604  38.978  19.107   0.104
63180W        W35605  10.727  19.639  14.498
63181W        W35606   8.339  34.593   2.883
63182W        W35607  17.274   9.635  12.341
63183W        W35608  21.187   5.241   2.992
63184W        W35609  34.633  38.389  14.826
63185W        W35610  28.137   5.002   2.420
63186W        W35611  11.596  20.682  11.983
63187W        W35612  26.011  20.080   3.044
63188W        W35613  18.737  20.630   0.470
63189W        W35614  39.635  34.632  11.978
63190W        W35615   1.755   0.348   1.278
63191W        W35616   5.429  22.009   3.600
63192W        W35617  38.403  34.530   1.321
63193W        W35618  39.960   0.829   4.257
63194W        W35619  39.565  35.406  12.539
63195W        W35620  33.549   8.146  11.430
63196W        W35621  25.643  32.105   2.061
63197W        W35622   1.861  24.164   0.255
63198W        W35623  23.209  34.387  14.596
63199W        W35624  18.129  33.658  11.478
63200W        W35625   8.616  18.676   3.731
63201W        W35626  12.778   5.122   3.476
63202W        W35627  40.497  15.716   1.382
63203W        W35628  10.654  23.717  13.916
63204W        W35629   8.147  34.545  11.980
63205W        W35630  27.662  14.321   3.188
63206W        W35631  28.209  31.502   3.523
63207W        W35632  43.064  21.388  11.114
63208W        W35633  32.056  18.475  11.182
63209W        W35634   0.963   3.285  13.943
63210W        W35635  41.245   2.305   4.515
63211W        W35636   1.307  43.590   2.766
63212W        W35637  17.143  40.906   0.992
63213W        W35638  34.953  43.702  11.151
63214W        W35639   5.496  28.219  13.187
63215W        W35640  17.337  44.488   0.327
63216W        W35641  24.114  10.651   0.214
63217W        W35642   6.199  12.286  12.954
63218W        W35643  14.105  14.047  13.409
63219W        W35644  17.442  21.296  10.841
63220W        W35645  34.902  24.747   4.618
63221W        W35646  11.310  33.172   1.426
63222W        W35647   1.422  18.176   0.477
63223W        W35648   2.108   9.090  12.073
63224W        W35649  17.034  32.542  14.277
63225W        W35650   2.837  21.575   0.327
63226W        W35651   1.069   6.037  12.860
63227W        W35652  15.626  16.577   2.330
63228W        W35653  43.584   0.700  11.077
63229W        W35654  28.016  14.010   2.847
63230W        W35655  33.242   5.870  13.240
63231W        W35656  34.459  35.300   0.721
63232W        W35657   8.470   6.695   2.849
63233W        W35658  36.854  43.830  14.335
63234W        W35659   8.423  16.329   1.290
63235W        W35660  27.510  17.137  13.091
63236W        W35661  37.143   1.203   3.868
63237W        W35662  42.633  26.762   3.610
63238W        W35663   3.178   2.414   0.854
63239W        W35664  28.963  38.622   3.656
63240W        W35665  43.724  11.287   1.626
63241W        W35666  13.679  21.164   3.121
63242W        W35667  36.058  28.570  10.956
63243W        W35668  38.068  29.365   2.892
63244W        W35669  43.580  26.312   3.652
63245W        W35670  18.670  10.889   0.977
63246W        W35671  27.605  17.707  11.587
63247W        W35672   5.916  13.657   3.793
63248W        W35673  44.422  38.786   3.031
63249W        W35674  37.770  11.665   2.235
63250W        W35675  28.943  19.110   3.911
63251W        W35676  40.886  22.265   1.310
63252W        W35677  38.451  40.970  14.444
63253W        W35678   7.479   7.383  10.669
63254W        W35679  14.704  28.050  13.122
63255W        W35680  22.664  28.937  14.858
63256W        W35681  10.745  32.615  12.777
63257W        W35682  30.442  40.250  10.629
63258W        W35683  35.018   3.036  12.107
63259W        W35684  18.191  26.541  14.233
63260W        W35685   0.275  35.160  12.865
63261W        W35686   9.929   4.559  12.331
63262W        W35687  34.956  28.229   1.810
63263W        W35688  14.225  34.899   5.192
63264W        W35689  38.078  44.190  11.003
63265W        W35690  29.798   6.250   5.208
63266W        W35691  10.113   8.408   2.291
63267W        W35692  12.388  25.813   9.591
63268W        W35693  19.867  44.541   4.584
63269W        W35694  16.767  28.898   3.761
63270W        W35695   5.920  14.714  12.853
63271W        W35696  41.230   7.655   0.384
63272W        W35697  43.838  10.288   0.466
63273W        W35698  38.458   8.696   1.714
63274W        W35699  11.779  32.004   2.468
63275W        W35700   7.798   8.134  12.162
63276W        W35701  34.421  25.594   3.416
63277W        W35702  40.518   6.530  12.978
63278W        W35703  17.074  28.479   3.757
63279W        W35704  44.507  31.372  13.275
63280W        W35705  24.683  17.538   4.068
63281W        W35706  36.382  13.716  13.389
63282W        W35707   3.196   1.724   1.993
63283W        W35708  26.166  19.026  12.826
63284W        W35709  15.784  28.580  14.481
63285W        W35710  14.073  17.932  12.618
63286W        W35711   4.262  39.924  13.535
63287W        W35712  13.564  39.359   3.309
63288W        W35713  20.173  27.063   0.094
63289W        W35714  41.783  42.000  11.111
63290W        W35715  21.658  42.399  14.280
63291W        W35716  43.528   7.775  13.414
63292W        W35717  33.612   9.889   1.712
63293W        W35718   5.290  20.078   0.166
63294W        W35719  21.650  41.059  14.714
63295W        W35720  34.941  37.617   4.214
63296W        W35721  38.618  17.748   4.215
63297W        W35722  44.545  42.518  11.450
63298W        W35723   8.781   2.923  12.443
63299W        W35724  44.237   4.705  14.004
63300W        W35725  14.652  36.653  13.897
63301W        W35726   1.356   4.480  11.392
63302W        W35727  25.478  17.114   0.846
63303W        W35728  11.859  22.074  10.526
63304W        W35729  41.838   2.997  13.408
63305W        W35730  20.498  20.514   0.008
63306W        W35731   6.589  24.748  12.537
63307W        W35732  10.208  37.461   2.203
63308W        W35733  14.500  41.990   4.233
63309W        W35734  32.581   7.287   0.893
63310W        W35735  16.641  35.409  11.443
63311W        W35736  31.936  35.495   2.418
63312W        W35737  26.170  14.343  12.719
63313W        W35738  32.903  34.328  13.867
63314W        W35739  13.874  21.172  11.562
63315W        W35740  14.666  19.787   1.412
63316W        W35741  43.004  27.023   1.390
63317W        W35742   7.294   9.876   4.893
63318W        W35743  19.644  42.093   4.221
63319W        W35744   9.164  39.919  11.262
63320W        W35745   6.866  30.145  13.867
63321W        W35746  30.854  13.786   3.786
63322W        W35747  43.735   1.959   0.646
63323W        W35748  19.526  21.564   0.689
63324W        W35749  31.100  43.863   4.241
63325W        W35750  35.291  32.605  13.284
63326W        W35751  40.080  35.091  14.467
63327W        W35752  14.786  13.893   0.403
63328W        W35753  37.869  20.273   4.639
63329W        W35754  15.498  43.292   0.200
63330W        W35755   1.081  43.291  11.628
63331W        W35756  34.556  30.405  13.395
63332W        W35757  22.762  15.618   1.252
63333W        W35758  31.166  12.470  12.517
63334W        W35759  39.670  27.632  11.479
63335W        W35760  10.787   1.374  12.981
63336W        W35761   4.486  42.700  14.345
63337W        W35762   2.870   8.436  14.469
63338W        W35763  24.609   9.838   0.358
63339W        W35764   5.735   0.968  10.658
63340W        W35765   4.444   9.753   3.155
63341W        W35766  34.407   9.088   0.808
63342W        W35767  30.628  39.969  12.025
63343W        W35768  27.668  18.555  11.679
63344W        W35769   5.983  21.520  11.899
63345W        W35770  29.880  16.587   0.709
63346W        W35771   6.990  37.415  11.544
63347W        W35772  12.608  17.246   4.171
63348W        W35773   4.424  11.023  13.249
63349W        W35774  29.418   0.042   4.177
63350W        W35775  40.489  32.539   2.288
63351W        W35776  27.703  34.328   0.440
63352W        W35777  18.064  42.796   1.361
63353W        W35778  38.457  17.123   0.766
63354W        W35779   8.710  10.623  13.276
63355W        W35780  26.244   3.479  12.865
63356W        W35781   1.028  22.963   2.498
63357W        W35782  33.584  18.912  14.445
63358W        W35783  41.891  37.829  10.163
63359W        W35784  19.448  24.102  12.495
63360W        W35785   0.213  26.368   0.784
63361W        W35786   0.303   4.173  12.009
63362W        W35787  38.859   6.940  12.035
63363W        W35788   4.173  26.984  12.002
63364W        W35789  39.749  14.761  11.572
63365W        W35790  18.629  40.233  11.669
63366W        W35791  10.804  38.392  10.738
63367W        W35792  20.107  37.507   3.717
63368W        W35793   0.592  19.784   1.832
63369W        W35794  39.012  41.949   3.603
63370W        W35795  30.467   1.053   1.765
63371W        W35796  21.848  12.910   2.209
63372W        W35797   5.921   4.822  12.956
63373W        W35798  31.600  36.258   0.949
63374W        W35799  26.534   1.482  13.014
63375W        W35800  18.273  14.067  14.868
63376W        W35801  43.357  28.711  12.846
63377W        W35802  37.568  43.863   3.665
63378W        W35803  26.456  27.096  13.664
63379W        W35804  29.758   8.265  12.547
63380W        W35805  26.148  23.403  13.921
63381W        W35806  14.743  36.329  12.552
63382W        W35807  12.782  36.149   3.514
63383W        W35808  19.271  36.452   4.549
63384W        W35809  23.378  20.796  12.657
63385W        W35810   5.955  44.297  13.538
63386W        W35811  20.546   1.747  11.600
63387W        W35812  21.715   3.201   1.705
63388W        W35813   9.143  42.695   1.799
63389W        W35814   1.426   4.106  11.058
63390W        W35815  13.241  30.052   4.645
63391W        W35816  35.125  18.114  13.170
63392W        W35817  41.213  42.834   4.083
63393W        W35818  16.135  23.962   2.353
63394W        W35819  27.115  17.229   4.634
63395W        W35820  40.481  32.862   4.530
63396W        W35821  17.552   7.694  11.557
63397W        W35822  23.802  16.129   1.772
63398W        W35823  43.006  38.591  11.634
63399W        W35824  21.687  44.019  13.117
63400W        W35825  34.903  30.588   1.566
63401W        W35826  36.328  32.333  14.368
63402W        W35827  27.426  17.232   0.029
63403W        W35828  33.809   7.429   2.252
63404W        W35829   1.179  36.060   2.233
63405W        W35830  20.363  31.701  13.030
63406W        W35831  16.028  25.442  11.522
63407W        W35832  33.835  19.031   3.660
63408W        W35833  26.852  19.290   2.564
63409W        W35834  22.946   8.250   4.615
63410W        W35835  39.773  33.936   2.230
63411W        W35836  22.631  10.711   2.962
63412W        W35837  35.459  16.832   2.928
63413W        W35838  17.720  40.345   0.083
63414W        W35839  38.839  23.905   0.040
63415W        W35840   5.706   6.325  13.462
63416W        W35841  41.077  30.576   4.161
63417W        W35842  17.477  34.471  13.294
63418W        W35843  39.619  25.103  11.928
63419W        W35844  27.964  12.405   0.432
63420W        W35845  43.039  20.547   0.018
63421W        W35846   1.667   0.931   2.932
63422W        W35847  32.390  16.716  13.592
63423W        W35848  44.485  33.118   4.088
63424W        W35849   5.883  39.627  13.923
63425W        W35850  19.794   0.347   1.572
63426W        W35851  43.318   3.726   4.975
63427W        W35852   4.293  20.205  14.748
63428W        W35853  13.140  11.717   3.674
63429W        W35854  41.305  11.088  14.871
63430W        W35855  13.611   9.825  10.393
63431W        W35856  39.431  44.138  12.697
63432W        W35857  42.601  27.534  12.733
63433W        W35858  14.813  41.798  14.090
63434W        W35859  41.585  13.761   1.314
63435W        W35860  39.888  44.520  12.141
63436W        W35861  10.663  41.873  12.408
63437W        W35862  24.210  41.058  14.176
63438W        W35863  12.226  31.535  11.236
63439W        W35864   3.512  20.120   4.975
63440W        W35865  25.175  23.647  13.949
63441W        W35866  43.102  13.054   4.060
63442W        W35867  33.979   6.154   0.122
63443W        W35868  25.927   8.167  12.045
63444W        W35869   1.784  36.378  10.550
63445W        W35870   9.123   2.857   4.362
63446W        W35871  12.709  14.356  12.115
63447W        W35872  22.801  12.458   5.110
63448W        W35873   4.360  29.669  11.166
63449W        W35874  42.845  21.858   4.777
63450W        W35875  36.994  43.543  12.066
63451W        W35876  17.535  16.304  13.079
63452W        W35877  14.553  35.333  11.260
63453W        W35878  27.995  44.518  14.334
63454W        W35879  43.894   8.406  11.590
63455W        W35880   1.434  25.531  14.962
63456W        W35881   2.847  37.797  11.969
63457W        W35882   8.855  24.066   0.979
63458W        W35883  15.693  24.908   4.138
63459W        W35884  39.724  26.472   4.771
63460W        W35885   7.659  41.364   0.476
63461W        W35886  33.866   7.212   4.441
63462W        W35887   9.933   3.044   3.240
63463W        W35888  22.517   6.746   2.277
63464W        W35889  13.658  27.573  11.707
63465W        W35890  36.987  21.991  14.443
63466W        W35891  16.192  37.724   0.287
63467W        W35892  33.377  32.419   4.115
63468W        W35893  13.536  33.685   2.274
63469W        W35894  39.308  39.335   2.166
63470W        W35895  35.439  15.811   4.624
63471W        W35896  11.870  35.502   4.274
63472W        W35897  38.852  31.728  13.311
63473W        W35898  27.194  20.224  10.590
63474W        W35899   9.723   8.179  11.786
63475W        W35900  43.946  44.730   3.195
63476W        W35901   4.811   0.016   3.320
63477W        W35902  15.639   7.849   3.685
63478W        W35903  28.546   3.388   0.739
63479W        W35904   9.704  11.613  11.448
63480W        W35905  41.126   0.037   2.737
63481W        W35906   4.225  37.105   2.329
63482W        W35907   5.528  19.143   3.771
63483W        W35908   5.895  15.133   4.638
63484W        W35909  25.754  27.106   3.113
63485W        W35910  14.846   3.390  13.924
63486W        W35911  18.093  10.941   1.499
63487W        W35912   5.575  29.673   0.464
63488W        W35913  23.124  15.781   0.724
63489W        W35914  17.138  33.457  13.887
63490W        W35915  42.331  41.488   3.278
63491W        W35916  34.583  24.748   1.729
63492W        W35917  41.520  14.271   1.355
63493W        W35918   6.312  33.727   0.012
63494W        W35919  21.452  28.964  11.517
63495W        W35920  30.953  26.139   0.237
63496W        W35921  44.675   1.219   5.037
63497W        W35922  31.016  43.331  10.608
63498W        W35923  32.079  25.706  13.078
63499W        W35924  33.548  29.931  12.512
63500W        W35925  12.569  21.969   2.965
63501W        W35926  43.339  42.501  12.054
63502W        W35927   6.362  25.584   4.899
63503W        W35928  30.438  24.211   3.635
63504W        W35929   8.669  14.368   3.301
63505W        W35930  43.515   7.859  10.950
63506W        W35931  32.701  36.106  13.816
63507W        W35932  30.859  36.589  14.032
63508W        W35933   3.811  30.091  13.307
63509W        W35934  32.872  40.940  10.236
63510W        W35935   1.473   0.332  13.834
63511W        W35936  29.718  22.445  10.701
63512W        W35937  41.803  42.252   3.223
63513W        W35938  33.628  25.590   4.594
63514W        W35939  26.451  42.317  14.270
63515W        W35940  16.712   3.134  11.642
63516W        W35941  12.883   9.107  11.129
63517W        W35942  38.415  42.462  13.500
63518W        W35943   2.520  14.325   0.060
63519W        W35944  39.841   2.404  13.772
63520W        W35945  24.734   8.144  11.136
63521W        W35946  14.355  19.771  11.151
63522W        W35947  20.932  16.639   0.034
63523W        W35948  11.636  10.637   2.249
63524W        W35949   9.066   7.613  11.237
63525W        W35950  32.340   1.490  10.530
63526W        W35951   9.063  15.558   3.009
63527W        W35952   4.759  23.420  12.463
63528W        W35953   4.259  26.691  13.810
63529W        W35954  42.233  35.826  14.383
63530W        W35955   6.818  44.854  14.485
63531W        W35956  26.978  38.657  14.659
63532W        W35957  26.560   7.777   3.323
63533W        W35958  19.660  27.394  12.588
63534W        W35959  17.868   3.105   4.902
63535W        W35960   5.419  16.053   0.280
63536W        W35961  19.662  21.439   1.725
63537W        W35962   2.679   1.700  13.892
63538W        W35963  31.571   1.335   0.393
63539W        W35964  28.959  14.925  11.171
63540W        W35965  10.610  36.547   4.111
63541W        W35966  41.668  19.752  11.064
63542W        W35967  40.790  22.304   0.227
63543W        W35968  20.543  36.850   0.921
63544W        W35969  24.113   6.948   0.935
63545W        W35970  33.123  17.599   0.909
63546W        W35971   4.348  29.581   4.503
63547W        W35972  28.147  44.158   1.698
63548W        W35973  10.169   1.314   0.767
63549W        W35974   1.995  30.077   1.779
63550W        W35975  29.934  41.457   3.801
63551W        W35976  30.332  30.544  12.034
63552W        W35977  43.319  19.693  14.503
63553W        W35978  31.962  39.413   1.734
63554W        W35979  37.264  19.825  13.256
63555W        W35980  41.738   0.674   1.732
63556W        W35981  22.382  43.850   1.773
63557W        W35982  22.608  13.080  10.628
63558W        W35983   4.827  14.123  10.870
63559W        W35984   5.572   0.342  12.695
63560W        W35985  10.641   6.723   2.130
63561W        W35986  19.103  40.868  13.326
63562W        W35987  31.114  33.661   4.893
63563W        W35988  17.754  10.611   1.264
63564W        W35989  44.875   6.358   3.873
63565W        W35990  44.351  34.368  14.988
63566W        W35991   4.721  27.956  11.862
63567W        W35992  14.020  33.455   2.189
63568W        W35993  44.486  21.563  13.562
63569W        W35994  18.411   1.419   1.272
63570W        W35995  38.986  40.012  11.692
63571W        W35996   1.545  24.545  13.315
63572W        W35997  41.087  32.838  14.055
63573W        W35998  32.104  32.982  13.919
63574W        W35999  36.044  43.837  14.733
63575W        W36000  34.026  41.561   3.602
63576W        W36001   7.579  33.974  13.380
63577W        W36002  36.357  26.777   2.518
63578W        W36003  21.739  22.112  13.506
63579W        W36004  20.960  37.612   2.161
63580W        W36005  14.624  30.124   3.723
63581W        W36006  25.167  38.594   0.711
63582W        W36007  15.448  37.982  12.585
63583W        W36008   7.272  28.877   1.715
63584W        W36009  40.215  20.477   5.275
63585W        W36010  28.652  32.947  11.822
63586W        W36011  39.398  27.660  14.779
63587W        W36012  23.257  28.318  14.276
63588W        W36013  35.438  15.600   1.818
63589W        W36014  32.221   5.379  11.485
63590W        W36015  18.298  36.327  10.935
63591W        W36016   2.307   5.214  10.713
63592W        W36017  12.208   9.420  12.955
63593W        W36018  31.520  32.641  10.743
63594W        W36019  27.491  27.127   2.441
63595W        W36020  38.958   8.227  13.506
63596W        W36021  22.696   1.767   3.155
63597W        W36022  15.090  38.820  14.371
63598W        W36023  35.072  33.526   3.260
63599W        W36024  32.411  21.176  13.767
63600W        W36025  25.456  43.019   1.104
63601W        W36026  23.010   9.863  11.543
63602W        W36027   9.201  17.047   0.340
63603W        W36028  26.493   5.826   1.757
63604W        W36029  21.180  41.738  14.937
63605W        W36030  10.399   7.841  10.775
63606W        W36031   3.184  32.565  13.432
63607W        W36032  21.706  42.941   0.056
63608W        W36033  22.482  19.916   3.635
63609W        W36034  31.055  40.607   3.266
63610W        W36035  41.958  20.922  13.486
63611W        W36036  29.589  28.937  12.668
63612W        W36037  32.919  36.508  10.644
63613W        W36038  12.624  30.061  13.303
63614W        W36039   8.148  26.161   2.593
63615W        W36040  25.737  42.849  14.330
63616W        W36041  42.275  22.502   5.092
63617W        W36042  17.285  39.892  11.938
63618W        W36043  35.840  34.477  13.946
63619W        W36044  28.678   5.699  13.447
63620W        W36045  41.767  37.907   0.845
63621W        W36046  32.089  36.588   1.305
63622W        W36047  26.958  26.923   3.857
63623W        W36048  40.347  17.782  11.483
63624W        W36049   7.870  15.288  13.000
63625W        W36050   4.794  30.900   1.239
63626W        W36051  28.011  30.160  12.410
63627W        W36052   8.635  13.290   5.502
63628W        W36053  27.039  37.720   2.287
63629W        W36054   2.951  34.070   1.725
63630W        W36055  32.923  37.158   4.152
63631W        W36056   9.282  39.459  14.652
63632W        W36057   6.928  26.442  13.142
63633W        W36058  28.700  12.685   1.667
63634W        W36059  25.670  35.932   2.171
63635W        W36060   5.917  26.373   3.683
63636W        W36061   3.153  13.829  14.276
63637W        W36062  23.775   6.225   3.074
63638W        W36063   8.949  24.820   1.267
63639W        W36064  12.818  21.003  14.322
63640W        W36065  18.297  13.112   2.321
63641W        W36066  16.300   9.435  13.462
63642W        W36067  25.582   7.134   2.227
63643W        W36068  21.547   0.931   3.928
63644W        W36069  10.949  29.474  13.309
63645W        W36070  38.834   4.212   1.807
63646W        W36071  27.187  40.941   3.310
63647W        W36072  28.620  11.172  11.346
63648W        W36073  20.508  28.426  12.453
63649W        W36074  41.673  35.003  14.505
63650W        W36075  24.002  30.660  14.333
63651W        W36076  12.824  23.967   5.110
63652W        W36077  10.020  33.552  10.760
63653W        W36078  26.164  14.075   2.694
63654W        W36079  29.419  21.705  10.185
63655W        W36080   7.191   2.431  11.399
63656W        W36081  27.083  29.485  11.347
63657W        W36082  26.591  11.735  10.918
63658W        W36083  17.138  10.071   4.510
63659W        W36084  36.016  16.267  10.731
63660W        W36085  43.804  42.600   2.366
63661W        W36086  34.093  29.445  11.755
63662W        W36087  17.342  35.283   4.818
63663W        W36088  15.111  40.482  14.021
63664W        W36089  18.200  11.743  10.775
63665W        W36090  34.836  28.475   4.760
63666W        W36091   9.850  12.634   0.430
63667W        W36092  11.479  19.650   2.191
63668W        W36093  21.003  30.539   0.713
63669W        W36094  27.043  18.532  14.803
63670W        W36095  38.589  34.106   1.569
63671W        W36096  21.967  33.231   1.910
63672W        W36097  27.981  38.897   1.217
63673W        W36098  20.682  42.414   1.789
63674W        W36099  44.532  14.420   3.624
63675W        W36100  20.262  32.130   3.190
63676W        W36101   3.973   2.540  11.605
63677W        W36102  17.900  32.432  10.209
63678W        W36103  35.496  30.268   4.967
63679W        W36104  31.682  43.500  11.102
63680W        W36105  22.749  39.505  11.252
63681W        W36106  24.268  15.483   4.986
63682W        W36107  30.817  36.669   0.004
63683W        W36108  26.076   5.204  13.670
63684W        W36109   6.766  17.857   4.144
63685W        W36110  38.762  44.026  14.026
63686W        W36111  35.907  14.382   4.144
63687W        W36112  42.970  37.473   2.348
63688W        W36113  41.372   9.165   1.937
63689W        W36114   9.630  29.575   1.450
63690W        W36115  35.646   8.936   9.748
63691W        W36116  36.258  18.364  11.610
63692W        W36117  30.944  22.745   2.599
63693W        W36118  31.982  44.807   2.427
63694W        W36119  14.019  31.653   1.642
63695W        W36120   2.495  40.320   2.727
63696W        W36121   6.155  22.893   4.052
63697W        W36122  20.192  32.037   1.317
63698W        W36123  11.666   2.271  10.302
63699W        W36124  23.918  39.903  12.939
63700W        W36125  27.607   9.002  13.932
63701W        W36126  30.983  12.684   4.577
63702W        W36127  38.839  37.320   0.346
63703W        W36128   2.938  30.301  14.899
63704W        W36129   7.296  36.899  14.557
63705W        W36130  33.451  26.519  13.474
63706W        W36131   7.407  19.155   4.099
63707W        W36132  28.497  16.619   1.761
63708W        W36133  15.880  21.115   4.528
63709W        W36134  42.449  36.491   2.310
63710W        W36135  15.716  16.080   2.338
63711W        W36136  16.024  10.611  11.935
63712W        W36137  30.698  20.907   3.136
63713W        W36138  13.223  23.888  12.984
63714W        W36139  41.878  34.719  14.905
63715W        W36140  22.647  38.018   2.452
63716W        W36141  31.940   0.884   3.539
63717W        W36142  12.288  25.761  10.474
63718W        W36143   7.697  22.531  10.945
63719W        W36144  34.514   4.187   3.775
63720W        W36145  37.401  44.808   0.660
63721W        W36146   7.821  42.240   2.823
63722W        W36147  39.756   4.655   2.773
63723W        W36148  40.594  25.726   0.674
63724W        W36149   0.975  22.292   3.129
63725W        W36150  33.471  18.610   3.679
63726W        W36151  19.107   3.263  12.622
63727W        W36152  25.914   3.826  11.184
63728W        W36153  36.006  15.778   3.744
63729W        W36154  28.709  32.115   1.225
63730W        W36155  28.975  15.411   2.749
63731W        W36156  31.159   4.380  11.600
63732W        W36157  28.385  30.001  11.491
63733W        W36158   9.734  14.645   4.187
63734W        W36159  42.877  21.654   4.317
63735W        W36160  15.675  35.028   3.881
63736W        W36161  14.405   0.560  12.129
63737W        W36162  15.786  44.876  12.095
63738W        W36163   0.528  34.087  14.820
63739W        W36164  29.133   0.882  12.289
63740W        W36165  24.779  39.422   4.160
63741W        W36166  18.788  30.869  10.742
63742W        W36167  38.005  14.859  11.837
63743W        W36168  18.585  21.013  14.268
63744W        W36169   3.390  27.417   1.901
63745W        W36170   7.805   4.331  13.389
63746W        W36171   3.894   1.348  10.493
63747W        W36172  24.724  31.008  11.103
63748W        W36173  27.446  22.053   0.386
63749W        W36174  37.833  38.133  13.384
63750W        W36175  21.992  21.511   3.240
63751W        W36176  26.119  28.416  11.718
63752W        W36177   9.768   5.673  11.632
63753W        W36178  19.751  16.405   1.238
63754W        W36179  37.481  34.093   2.024
63755W        W36180  30.466  44.266   0.471
63756W        W36181  42.831  33.029  13.438
63757W        W36182  37.324  42.140  11.139
63758W        W36183  42.338  13.866   1.051
63759W        W36184  25.089  42.320   2.688
63760W        W36185  19.912  27.843  14.304
63761W        W36186  36.984  23.233  10.538
63762W        W36187   7.307  14.092  10.608
63763W        W36188   9.784  22.675   3.106
63764W        W36189   8.709  41.380  14.484
63765W        W36190  16.201   8.217   1.775
63766W        W36191   1.389  22.796   3.735
63767W        W36192   8.451  23.425  11.558
63768W        W36193   7.168   4.790   3.909
63769W        W36194   3.359   8.384   0.879
63770W        W36195  21.609  33.211  11.973
63771W        W36196  14.783  42.971   2.239
63772W        W36197  24.462  23.769  13.016
63773W        W36198  37.986  41.355  11.932
63774W        W36199  19.135  42.058  13.451
63775W        W36200  39.335  36.775   2.414
63776W        W36201  29.030  28.243   4.042
63777W        W36202  33.428  40.334   0.655
63778W        W36203  27.242  10.471   3.538
63779W        W36204  38.486   0.561  12.502
63780W        W36205   3.542   2.222   3.691
63781W        W36206  43.727   8.289   3.623
63782W        W36207   4.897  18.874  12.468
63783W        W36208  12.950  31.362   0.539
63784W        W36209   1.067  30.926  12.115
63785W        W36210  19.347  38.020   2.719
63786W        W36211  38.175  35.115   1.511
63787W        W36212   2.377  26.906   1.505
63788W        W36213  32.440   1.837   1.886
63789W        W36214  21.511  17.597   1.384
63790W        W36215   6.647   6.787   0.970
63791W        W36216   3.931  22.065   3.423
63792W        W36217   4.777  37.650   1.032
63793W        W36218  12.655  38.815  12.109
63794W        W36219  33.804  39.810  10.754
63795W        W36220   3.153  34.978  13.053
63796W        W36221   3.940  15.750   0.355
63797W        W36222  28.100  20.643  13.169
63798W        W36223  11.247  21.697   1.866
63799W        W36224   9.019  41.868   1.212
63800W        W36225  20.494  13.016   4.763
63801W        W36226  11.684  19.537   0.711
63802W        W36227  22.551  26.619   0.231
63803W        W36228  12.669  27.372  12.561
63804W        W36229  17.424   1.837  14.163
63805W        W36230   3.215  15.663  10.489
63806W        W36231   6.747  10.860  13.874
63807W        W36232  38.503  43.052  10.984
63808W        W36233  28.913  32.702  12.482
63809W        W36234  29.958  36.634  11.968
63810W        W36235  32.992  38.264  12.474
63811W        W36236  36.936  38.392  10.294
63812W        W36237  31.360  37.458  11.491
63813W        W36238  18.342  43.956  13.882
63814W        W36239  18.171   0.702   2.800
63815W        W36240  25.017  14.397  11.578
63816W        W36241  19.033  30.482   1.609
63817W        W36242  38.995  42.807  12.032
63818W        W36243   8.888  35.499   1.820
63819W        W36244  12.123  29.493   2.919
63820W        W36245   7.183  42.810  13.234
63821W        W36246  18.565  16.248  14.773
63822W        W36247  40.597  43.283   3.614
63823W        W36248  25.491  10.882  11.988
63824W        W36249  37.956  22.297   1.721
63825W        W36250  21.570   4.753  10.377
63826W        W36251  11.577  40.389   4.702
63827W        W36252  30.790  43.983  13.543
63828W        W36253  20.565  25.966   1.818
63829W        W36254  25.115   1.824  12.815
63830W        W36255  15.458  27.650   4.265
63831W        W36256  22.169   5.306   2.860
63832W        W36257   4.051  17.085  10.778
63833W        W36258  30.807  19.139  14.308
63834W        W36259  23.302  16.731  11.472
63835W        W36260  18.804   6.331   0.454
63836W        W36261   9.898  10.696   3.366
63837W        W36262  33.279  20.629   1.330
63838W        W36263  10.354  29.003   2.284
63839W        W36264  28.015  24.752  11.491
63840W        W36265  33.102  44.952  10.476
63841W        W36266  26.005  17.105   1.275
63842W        W36267  28.827  27.288   0.375
63843W        W36268  23.078   1.476  13.100
63844W        W36269  28.693  24.952   1.287
63845W        W36270  17.679  17.965   4.239
63846W        W36271  35.172  18.836  13.456
63847W        W36272  20.443   7.101  11.088
63848W        W36273  30.843  29.213  14.898
63849W        W36274  24.957  13.741   0.463
63850W        W36275  22.307  29.077   1.465
63851W        W36276  34.966   6.692   1.415
63852W        W36277  20.661  27.941  12.475
63853W        W36278  34.860  33.549   4.109
63854W        W36279   0.279  34.354  14.384
63855W        W36280   3.014  28.766   1.732
63856W        W36281  33.379  16.117   0.356
63857W        W36282  39.414  12.608   1.617
63858W        W36283  28.865  39.890  11.479
63859W        W36284  19.061  22.979  14.874
63860W        W36285  41.969  24.796   4.977
63861W        W36286  40.956  29.703   2.322
63862W        W36287  10.114  11.257   2.920
63863W        W36288  41.475  20.880  12.445
63864W        W36289  44.926   3.437  10.958
63865W        W36290  12.125  30.175   0.900
63866W        W36291  42.534  19.016   2.312
63867W        W36292  14.984  34.110  14.679
63868W        W36293  27.083  10.850   3.185
63869W        W36294   1.849  28.661   4.068
63870W        W36295  29.575  14.520  11.208
63871W        W36296  41.263  41.352   2.917
63872W        W36297  21.069  12.028  13.880
63873W        W36298  21.456  10.381  13.506
63874W        W36299  40.549   2.720  11.999
63875W        W36300  12.323  30.821   4.360
63876W        W36301  12.214   8.862  11.257
63877W        W36302   8.506  22.026   3.732
63878W        W36303   3.869  15.178  13.423
63879W        W36304   7.733  12.913   2.100
63880W        W36305  29.039  13.793   2.317
63881W        W36306  43.341  17.999   2.659
63882W        W36307   4.896  23.929  11.168
63883W        W36308  25.581  40.167  14.492
63884W        W36309  43.263  15.598  12.377
63885W        W36310  12.837  44.916  10.681
63886W        W36311   4.846  12.903  14.749
63887W        W36312  14.348   1.860  11.617
63888W        W36313  29.986  28.435  11.144
63889W        W36314  13.356  23.690   3.692
63890W        W36315  16.739  44.390   2.917
63891W        W36316  41.240  24.538  10.691
63892W        W36317  16.549  15.849  11.573
63893W        W36318  14.784  15.686  14.171
63894W        W36319  28.603  16.717  11.159
63895W        W36320  13.346  37.961  11.924
63896W        W36321  23.788  21.003   4.027
63897W        W36322  19.788  19.544   2.214
63898W        W36323  22.499   9.836   3.302
63899W        W36324  17.886  41.704   3.156
63900W        W36325   2.859  40.512   4.579
63901W        W36326  32.203  16.193   4.701
63902W        W36327  33.826  13.327   3.599
63903W        W36328   1.211   5.698  14.814
63904W        W36329  36.965  16.152   0.932
63905W        W36330  17.804  36.359  10.691
63906W        W36331  27.901  32.137   2.308
63907W        W36332  33.872  12.184   4.547
63908W        W36333   6.368  35.007   4.048
63909W        W36334  41.265  35.504   0.219
63910W        W36335  32.779  25.226  10.163
63911W        W36336  41.319   7.326   1.705
63912W        W36337  42.565  16.261   1.437
63913W        W36338  40.863   1.200  11.188
63914W        W36339   2.554  23.454  12.030
63915W        W36340  11.043  41.009  11.450
63916W        W36341  14.802  39.064  12.271
63917W        W36342  19.687  28.619   2.658
63918W        W36343  30.663  14.234  10.448
63919W        W36344  36.471  19.029   1.106
63920W        W36345  30.195   9.942   4.837
63921W        W36346  24.888   4.390  10.724
63922W        W36347  26.104  10.386   1.336
63923W        W36348   9.741  38.409  14.198
63924W        W36349  15.211   8.564   0.316
63925W        W36350   3.769  30.369   0.669
63926W        W36351  29.040  41.962   1.468
63927W        W36352  35.484  10.890   0.737
63928W        W36353  15.226  16.587   3.575
63929W        W36354   2.491  23.249   2.327
63930W        W36355  17.615  10.714  14.740
63931W        W36356  18.700  13.036  12.876
63932W        W36357   0.402   5.539  13.805
63933W        W36358  13.326  36.349   0.471
63934W        W36359  28.153  29.388  10.229
63935W        W36360  25.679  13.182  14.538
63936W        W36361  41.289   7.850  11.567
63937W        W36362  24.832   7.841  10.686
63938W        W36363   5.349  34.839   2.149
63939W        W36364  34.846  31.972   3.067
63940W        W36365  38.275   0.789  13.335
63941W        W36366  33.973   2.387   4.504
63942W        W36367  17.814  22.685   0.409
63943W        W36368   3.981  39.318   2.785
63944W        W36369  28.000  37.988   4.425
63945W        W36370  25.909  15.505   0.420
63946W        W36371  23.561  38.487   2.205
63947W        W36372   8.382  35.582   1.776
63948W        W36373  31.105  40.562  11.338
63949W        W36374  15.847  34.029   4.204
63950W        W36375  16.808  31.975   4.638
63951W        W36376  42.035  33.618  10.678
63952W        W36377  34.886  35.897  14.385
63953W        W36378  39.040  11.935  14.345
63954W        W36379  41.407  25.196  11.997
63955W        W36380  16.851  30.879  12.949
63956W        W36381  35.835   2.229  12.043
63957W        W36382   2.403  16.394   1.390
63958W        W36383  17.205   4.216  13.084
63959W        W36384  42.105  11.809  11.618
63960W        W36385  27.670  44.431   4.033
63961W        W36386  24.553   1.917  12.611
63962W        W36387  41.117  12.899  10.745
63963W        W36388  36.346  28.599   4.524
63964W        W36389  21.087   7.153  13.071
63965W        W36390  24.208   0.321   3.858
63966W        W36391  42.322  36.393   0.414
63967W        W36392  33.913  36.792  11.430
63968W        W36393   9.447   7.621  12.937
63969W        W36394  11.673  42.479  13.387
63970W        W36395  28.490  35.852   2.868
63971W        W36396  10.473   9.294  13.321
63972W        W36397  27.411  35.120  10.807
63973W        W36398  10.119  22.169  12.880
63974W        W36399  11.916   7.564   2.713
63975W        W36400  38.478  28.471   0.763
63976W        W36401  37.605  40.216   2.347
63977W        W36402   1.891  10.053  10.657
63978W        W36403  23.700  16.840   2.849
63979W        W36404  34.845   5.730   4.128
63980W        W36405  26.015  38.948   4.181
63981W        W36406  42.349  34.586   0.969
63982W        W36407  16.585   0.934  13.239
63983W        W36408   0.863  11.267  13.191
63984W        W36409  27.949  35.701  14.235
63985W        W36410   4.308   3.351   3.247
63986W        W36411  28.402  43.873   3.708
63987W        W36412  21.046  33.043   2.758
63988W        W36413  19.202  39.094   0.876
63989W        W36414   3.473  40.994  13.844
63990W        W36415  24.475  41.764  11.914
63991W        W36416  24.785  30.713   4.520
63992W        W36417  23.254  40.305   0.644
63993W        W36418  20.084  14.135  12.180
63994W        W36419  32.074  26.834  10.044
63995W        W36420  34.711  36.560  10.715
63996W        W36421  12.650  41.117  10.625
63997W        W36422  36.479  11.142  11.918
63998W        W36423  10.368  37.183  10.689
63999W        W36424  16.795   2.832  11.229
64000W        W36425  42.428   8.202   3.280
64001W        W36426  11.702  34.577  10.373
64002W        W36427  11.859  27.633   0.679
64003W        W36428   1.028  42.910  10.793
64004W        W36429  11.229  20.254   0.959
64005W        W36430   8.160  26.009   4.623
64006W        W36431  23.610  40.496  11.659
64007W        W36432  28.568  39.306   2.858
64008W        W36433  31.785  20.996   4.217
64009W        W36434  20.237  14.851   3.191
64010W        W36435   8.764  17.922   4.664
64011W        W36436  26.150  10.338  10.944
64012W        W36437  20.647   6.663   1.373
64013W        W36438  23.129   0.767   1.748
64014W        W36439   7.365  38.933  12.299
64015W        W36440  24.988   9.824   2.777
64016W        W36441  27.062  19.512  11.909
64017W        W36442  16.832  20.494  12.467
64018W        W36443  14.358  13.698  13.105
64019W        W36444   3.740  25.077   0.349
64020W        W36445  10.389  18.114  14.016
64021W        W36446  37.171  13.040  14.283
64022W        W36447   5.968  38.421  13.552
64023W        W36448  33.978  18.231   3.223
64024W        W36449  22.760  11.127  14.373
64025W        W36450   0.767  25.319  11.700
64026W        W36451  34.569  28.695   3.257
64027W        W36452  12.520  21.517  11.007
64028W        W36453  10.684  30.140  10.366
64029W        W36454   9.394  37.404   2.711
64030W        W36455   0.841  41.901  10.912
64031W        W36456   2.418  40.390  10.725
64032W        W36457  38.022   7.450   0.843
64033W        W36458  18.765  19.640   2.285
64034W        W36459  32.943  17.273  12.030
64035W        W36460  32.180  41.536   1.641
64036W        W36461   1.414   0.252  12.976
64037W        W36462  26.790  14.939   3.291
64038W        W36463  25.127   6.312   2.905
64039W        W36464  43.447   0.114   0.407
64040W        W36465  14.648   6.319  10.415
64041W        W36466  25.019  15.636   0.559
64042W        W36467  12.573  39.864  12.545
64043W        W36468  19.283  31.192  14.869
64044W        W36469  31.056  41.927   0.458
64045W        W36470   9.722  17.189   0.343
64046W        W36471  10.243  15.820  12.424
64047W        W36472  13.656  34.541   3.908
64048W        W36473  12.885   3.430   0.933
64049W        W36474  10.138  35.188   3.320
64050W        W36475  14.013  12.859  14.915
64051W        W36476  20.023  41.654   3.769
64052W        W36477  29.435  20.938   2.196
64053W        W36478  16.697  20.752  12.893
64054W        W36479   0.351  41.306   0.256
64055W        W36480  32.823  42.944   1.064
64056W        W36481  25.224  34.558  10.914
64057W        W36482  15.707  21.566   9.733
64058W        W36483   0.342   8.056   1.168
64059W        W36484  20.734   3.496   1.477
64060W        W36485  21.381  41.325   3.203
64061W        W36486   6.410  21.406  13.425
64062W        W36487   5.165  31.069   2.776
64063W        W36488  16.672   0.514   3.644
64064W        W36489  16.833  41.441  10.573
64065W        W36490  14.288  28.762   0.562
64066W        W36491  12.882  10.367   3.399
64067W        W36492  37.108  41.279   4.233
64068W        W36493  23.991  25.034  12.891
64069W        W36494  25.492  21.941   3.360
64070W        W36495  22.932  38.998  12.051
64071W        W36496  25.282   6.957  14.318
64072W        W36497  13.546  17.495   0.960
64073W        W36498  34.925   2.478  12.796
64074W        W36499  44.283   6.760   2.250
64075W        W36500  13.557  41.990  14.875
64076W        W36501  16.514  10.616   2.986
64077W        W36502  14.134   8.755   1.474
64078W        W36503  15.201   9.382   3.149
64079W        W36504  38.486   9.586   4.076
64080W        W36505  24.749   8.763   3.203
64081W        W36506   4.311  33.413   4.937
64082W        W36507  40.759  42.456   1.261
64083W        W36508  37.859   6.237  12.867
64084W        W36509  31.575  22.110  13.793
64085W        W36510  26.073  18.292  11.832
64086W        W36511  11.321  39.002   3.222
64087W        W36512  17.700  40.349  10.738
64088W        W36513   0.518  14.626  12.382
64089W        W36514  11.327  33.481  13.478
64090W        W36515   2.440  34.710  12.678
64091W        W36516   4.228  44.226   3.269
64092W        W36517  37.985  22.628  12.603
64093W        W36518  19.472   5.123  10.832
64094W        W36519  21.821  12.137   1.887
64095W        W36520   1.646  18.123   2.689
64096W        W36521  42.556  38.064   4.032
64097W        W36522   3.950  14.466  13.877
64098W        W36523   7.799  40.315   4.128
64099W        W36524  17.269  14.745  13.810
64100W        W36525  36.685  40.940  14.899
64101W        W36526   7.859   4.845  11.062
64102W        W36527  28.129  14.843   0.304
64103W        W36528   6.781   7.805   4.667
64104W        W36529  35.396  16.245   2.307
64105W        W36530  31.769   5.737  13.600
64106W        W36531  42.686  42.094  12.665
64107W        W36532  41.276  43.195  11.772
64108W        W36533  18.041  31.347  13.456
64109W        W36534   8.957  32.421   1.810
64110W        W36535   9.119  43.407   2.765
64111W        W36536  27.736  21.743  11.086
64112W        W36537  34.976  25.217  12.893
64113W        W36538  42.734  13.773  12.286
64114W        W36539  28.387   5.764  12.054
64115W        W36540  37.335  33.573   3.937
64116W        W36541  40.470  16.039  11.982
64117W        W36542   8.601  33.908   2.685
64118W        W36543  41.344  33.585   1.936
64119W        W36544   7.124  19.114   1.677
64120W        W36545  29.100  15.096   3.850
64121W        W36546  14.379  25.655   0.401
64122W        W36547  32.722  11.613  12.513
64123W        W36548  24.698  14.512   3.058
64124W        W36549  30.856  11.126  14.426
64125W        W36550   0.455  41.830  13.920
64126W        W36551  28.170  13.230   0.992
64127W        W36552  15.233  18.821  10.701
64128W        W36553  40.338  38.076   3.266
64129W        W36554  22.103   4.741   0.494
64130W        W36555  17.445   6.231  12.076
64131W        W36556  31.143  18.868  12.478
64132W        W36557  41.861   6.694   1.417
64133W        W36558   6.713  16.816   0.723
64134W        W36559  36.758  40.025   2.644
64135W        W36560  33.484  21.616   0.997
64136W        W36561  15.891  29.157   0.844
64137W        W36562  15.084  21.698   4.843
64138W        W36563  15.039  10.913   2.757
64139W        W36564   8.870  19.202  13.599
64140W        W36565   7.285  20.235   3.338
64141W        W36566   6.887  10.827  12.827
64142W        W36567   9.779  37.996  12.086
64143W        W36568   3.807  15.836  13.128
64144W        W36569  25.496   3.078  10.808
64145W        W36570  16.238  33.400   2.831
64146W        W36571  41.844  14.295  14.156
64147W        W36572  30.043  18.456   2.575
64148W        W36573   4.238  17.692  11.621
64149W        W36574  23.602   4.263  13.078
64150W        W36575  19.608  14.587  11.210
64151W        W36576   9.021   1.928  14.820
64152W        W36577  10.326   8.917   4.672
64153W        W36578   0.933  17.464   0.445
64154W        W36579  25.483  17.908   3.608
64155W        W36580  43.805  38.369   4.755
64156W        W36581   8.172  28.825  10.716
64157W        W36582  36.999  30.738  12.785
64158W        W36583  21.335  26.174   2.563
64159W        W36584  29.489   2.013  12.847
64160W        W36585  17.242  10.477   1.887
64161W        W36586   9.029   3.535   0.433
64162W        W36587   9.316  23.998   3.697
64163W        W36588  17.725  38.604  11.004
64164W        W36589  21.615  43.048   4.670
64165W        W36590  35.969   6.813  14.927
64166W        W36591  31.965  20.085  14.280
64167W        W36592  43.491  43.496   0.726
64168W        W36593  21.399   5.995   3.403
64169W        W36594   3.000  40.301   5.031
64170W        W36595  21.971  26.136   3.307
64171W        W36596  33.150  35.542  10.220
64172W        W36597   4.242  11.766  14.018
64173W        W36598   2.487  27.919  13.049
64174W        W36599  39.118  29.645   4.850
64175W        W36600  18.238  40.599  11.551
64176W        W36601  16.067  11.853  12.827
64177W        W36602  34.076   7.801   0.955
64178W        W36603  22.931  40.552   4.098
64179W        W36604  25.485   9.318  12.868
64180W        W36605  18.251   3.794   0.415
64181W        W36606   2.058  29.386  13.498
64182W        W36607  38.568   9.748   2.130
64183W        W36608  15.486   9.326   3.678
64184W        W36609  28.918  29.714  14.355
64185W        W36610  34.219  40.955  11.197
64186W        W36611  29.642  14.963  12.107
64187W        W36612  24.199  20.467  14.451
64188W        W36613   0.806  36.462   3.722
64189W        W36614  14.089  28.352   2.369
64190W        W36615   4.101   7.213  11.032
64191W        W36616  19.130  33.449   0.106
64192W        W36617  17.833  40.033   0.922
64193W        W36618  23.711  22.221   1.001
64194W        W36619  44.190  10.121   4.444
64195W        W36620  21.603  35.821   3.707
64196W        W36621  31.963   6.004   2.968
64197W        W36622  10.750  23.213   1.464
64198W        W36623   0.309  29.543  10.732
64199W        W36624  29.962  14.631   4.152
64200W        W36625  13.032  33.928  12.171
64201W        W36626  10.696  19.227   0.509
64202W        W36627   6.664   0.944  14.873
64203W        W36628   8.194  14.982  11.662
64204W        W36629  44.899   7.648  10.772
64205W        W36630  40.939  32.610  11.590
64206W        W36631  37.799  18.713   4.668
64207W        W36632  36.129  17.093  14.042
64208W        W36633   1.477  38.269   0.372
64209W        W36634  40.517   7.056  11.164
64210W        W36635  15.179  16.768  10.686
64211W        W36636  43.229  13.594   1.408
64212W        W36637  31.949  20.214   3.556
64213W        W36638  10.386  13.250  12.532
64214W        W36639  17.882   5.377  13.285
64215W        W36640   8.487  18.120  11.122
64216W        W36641   0.281  38.586  11.999
64217W        W36642  36.395  12.286  14.976
64218W        W36643  26.045  23.097   3.795
64219W        W36644  42.731  26.113  11.605
64220W        W36645  11.604  21.135   1.321
64221W        W36646  31.285  14.169  12.556
64222W        W36647  24.021  25.952  14.919
64223W        W36648  23.905   2.787  14.680
64224W        W36649   4.005  42.934   0.246
64225W        W36650  18.550  17.688  12.031
64226W        W36651  39.989  16.706   3.424
64227W        W36652  31.836  38.144  12.868
64228W        W36653   1.487  24.190   0.845
64229W        W36654  13.665  44.569   4.291
64230W        W36655  44.422   9.314  14.865
64231W        W36656  19.258  41.024  10.622
64232W        W36657  14.418  37.603   5.110
64233W        W36658  39.818  14.376   3.626
64234W        W36659  18.683   7.622  13.066
64235W        W36660  25.654  35.813  10.959
64236W        W36661  15.627  16.814  13.100
64237W        W36662  26.678  31.186  13.457
64238W        W36663  34.916  33.781   4.599
64239W        W36664  10.547   7.385   4.769
64240W        W36665   4.834  40.266  10.616
64241W        W36666   8.160  11.049   0.296
64242W        W36667  26.435  34.952   1.921
64243W        W36668  27.205   6.406   4.064
64244W        W36669  37.825  22.020   3.208
64245W        W36670  40.536  13.236   3.249
64246W        W36671  33.127  30.044   4.615
64247W        W36672  14.284  40.637   2.888
64248W        W36673  18.688  30.924  14.230
64249W        W36674  25.618  43.958  14.562
64250W        W36675   3.673  33.557   1.709
64251W        W36676  14.018  19.652  12.922
64252W        W36677  15.092  19.108   1.456
64253W        W36678  41.429  35.498  14.266
64254W        W36679  11.891  31.807   4.191
64255W        W36680   1.495  39.490   2.892
64256W        W36681  41.019  14.096   1.349
64257W        W36682   5.525  38.824   3.840
64258W        W36683   9.682   1.808   1.389
64259W        W36684  31.879  32.222  14.827
64260W        W36685  29.643  10.618  14.475
64261W        W36686   8.723  15.947  14.876
64262W        W36687  24.095   9.877   0.924
64263W        W36688  13.892   6.698   0.373
64264W        W36689  31.144   7.519  12.015
64265W        W36690  35.449  21.981   2.076
64266W        W36691  32.204  26.771  14.652
64267W        W36692  33.010   1.879  11.047
64268W        W36693  24.092  25.944   2.329
64269W        W36694   4.984   7.650  13.145
64270W        W36695   2.016  42.883   0.262
64271W        W36696  26.185  42.987  12.407
64272W        W36697  17.481   7.489   0.886
64273W        W36698  13.301  21.692   4.230
64274W        W36699  16.557  16.987   2.291
64275W        W36700   3.243  31.606  12.562
64276W        W36701   6.231  40.813  12.873
64277W        W36702  18.155  21.166  12.559
64278W        W36703  26.741  20.713   0.546
64279W        W36704   3.843  28.733  13.044
64280W        W36705  39.121  16.631   4.558
64281W        W36706   4.974  23.781   2.217
64282W        W36707  19.410   6.730  13.469
64283W        W36708   8.345  16.149   4.372
64284W        W36709  15.936  15.630   0.927
64285W        W36710  11.215  13.162   2.816
64286W        W36711  13.623  22.579   1.813
64287W        W36712  43.783  37.984  10.572
64288W        W36713  36.774  11.776   0.659
64289W        W36714  40.050  32.529   0.432
64290W        W36715   0.765  12.209   2.869
64291W        W36716  33.942   3.006   2.776
64292W        W36717  43.530  13.210   0.425
64293W        W36718  40.239  38.324   0.235
64294W        W36719  44.971  25.669  11.919
64295W        W36720  15.364   3.353  13.858
64296W        W36721   1.393  10.169   2.218
64297W        W36722   1.386  23.605   4.877
64298W        W36723  23.675  33.290  12.814
64299W        W36724  20.894  42.862  14.944
64300W        W36725  21.142  31.829   0.332
64301W        W36726   9.608  36.120  14.299
64302W        W36727  44.849   6.270  12.200
64303W        W36728  32.051  36.523   4.721
64304W        W36729  35.492  41.560  10.477
64305W        W36730  10.293   1.003  13.135
64306W        W36731   4.351  31.696  14.825
64307W        W36732   1.844  13.080   1.196
64308W        W36733  35.051  44.265   3.415
64309W        W36734  18.216   3.755   0.958
64310W        W36735  44.509  11.822  12.592
64311W        W36736   5.320   3.793   2.532
64312W        W36737   3.190  11.908  11.115
64313W        W36738  43.503  37.587   0.915
64314W        W36739  42.739  12.750  13.864
64315W        W36740   7.654  37.824   0.339
64316W        W36741  29.380  39.424  13.844
64317W        W36742   4.441  24.181  12.876
64318W        W36743  20.192  28.809   3.755
64319W        W36744  12.809  19.744  14.751
64320W        W36745  40.295  38.685   2.074
64321W        W36746  16.608  29.683  13.543
64322W        W36747  44.572  35.481  11.302
64323W        W36748  21.630  24.927  13.064
64324W        W36749  43.080  39.078  12.472
64325W        W36750  31.537  39.795  14.882
64326W        W36751   3.796  37.469   1.194
64327W        W36752  19.685   0.417   3.155
64328W        W36753  23.499  36.641   2.743
64329W        W36754   6.985  31.011  12.301
64330W        W36755   3.906  22.276  13.937
64331W        W36756  38.083  40.855  13.331
64332W        W36757  26.752  25.296  10.651
64333W        W36758  42.559  19.889  12.581
64334W        W36759  41.504  22.530  13.594
64335W        W36760  34.907  43.862   3.135
64336W        W36761   4.205  33.587  11.359
64337W        W36762   7.797  13.844   2.343
64338W        W36763  13.299  12.220   4.433
64339W        W36764  27.868  23.066   1.775
64340W        W36765   5.949  14.240   2.141
64341W        W36766   7.156  11.691  10.845
64342W        W36767  28.694  33.813  11.653
64343W        W36768   6.070  38.536   2.870
64344W        W36769  15.603  18.291   4.477
64345W        W36770  26.331  15.407   3.848
64346W        W36771  31.038  27.455  11.437
64347W        W36772   4.010  18.167  13.453
64348W        W36773  42.318  39.414   1.741
64349W        W36774   7.741  37.082   0.885
64350W        W36775  24.059  18.564   3.166
64351W        W36776  15.037  39.417  10.624
64352W        W36777  17.519  12.591   1.303
64353W        W36778  31.998  41.447   2.635
64354W        W36779  11.289  35.421   2.416
64355W        W36780  30.351  33.546  14.856
64356W        W36781  28.754  41.968  13.927
64357W        W36782  11.856   8.416   1.173
64358W        W36783  34.078  35.906   0.006
64359W        W36784  15.150  35.379   3.244
64360W        W36785   9.363   8.199  11.089
64361W        W36786  29.423   0.439  13.332
64362W        W36787  30.248  36.575   2.445
64363W        W36788  18.349  33.718   3.751
64364W        W36789  25.672  23.771  11.389
64365W        W36790  37.453   4.698   0.325
64366W        W36791  36.101   9.170   2.142
64367W        W36792  26.497  24.337  13.014
64368W        W36793   6.301  31.477  13.218
64369W        W36794  25.094  35.394  11.437
64370W        W36795   5.428   8.806  12.429
64371W        W36796   0.543  34.073   1.803
64372W        W36797   7.285  39.593  11.619
64373W        W36798  33.600  16.594   1.815
64374W        W36799   0.762  12.160   3.388
64375W        W36800  19.335  38.270   1.361
64376W        W36801  43.521   4.258  11.995
64377W        W36802  29.424  32.446   1.109
64378W        W36803  22.786  19.431  10.412
64379W        W36804   7.919  32.007  10.599
64380W        W36805  12.493   4.258   5.018
64381W        W36806  15.387  36.481   1.945
64382W        W36807   0.195  13.829   1.441
64383W        W36808  44.760  26.610   1.020
64384W        W36809  40.851  44.305   3.260
64385W        W36810  10.262  31.804  11.087
64386W        W36811  34.470  18.029   3.231
64387W        W36812   7.090  19.073  13.875
64388W        W36813  14.002  30.733   1.402
64389W        W36814  25.919   4.826  12.291
64390W        W36815  15.244  23.010   0.887
64391W        W36816   2.904   7.590   0.963
64392W        W36817  44.434  44.906  12.886
64393W        W36818  31.889  24.936   0.269
64394W        W36819  12.769  34.665  13.391
64395W        W36820   4.547  26.694  14.713
64396W        W36821  42.379  20.261   0.920
64397W        W36822   5.863  17.847  12.515
64398W        W36823  33.058   4.936  13.523
64399W        W36824  44.331  42.351   0.776
64400W        W36825  41.052  33.395  11.036
64401W        W36826  16.941  22.763  14.013
64402W        W36827  16.253  38.859  14.429
64403W        W36828  23.595   1.760  13.878
64404W        W36829  43.219  21.545  11.679
64405W        W36830   0.359   8.303  10.834
64406W        W36831   7.940  11.839   3.243
64407W        W36832  18.675   9.159  10.718
64408W        W36833  35.801  28.493  10.515
64409W        W36834  33.861   9.205  11.474
64410W        W36835  16.922  21.075   5.023
64411W        W36836  15.722   7.447   1.326
64412W        W36837  24.934  20.661   1.488
64413W        W36838   4.971  13.050  12.533
64414W        W36839   3.471  10.395   2.350
64415W        W36840  25.442  36.088   1.365
64416W        W36841  12.693   5.375   1.964
64417W        W36842  28.142  30.363   9.913
64418W        W36843  44.419  29.098   1.937
64419W        W36844  38.603  29.505   4.697
64420W        W36845   8.643  31.036  11.108
64421W        W36846   9.118   2.068  12.464
64422W        W36847  19.225  12.763   2.338
64423W        W36848  36.023  14.190  14.933
64424W        W36849  36.888  29.050   0.796
64425W        W36850  15.144   3.644   0.057
64426W        W36851  23.214  44.315  12.216
64427W        W36852  31.880  35.242  10.966
64428W        W36853  42.363  20.794  13.777
64429W        W36854  35.911  30.350  10.555
64430W        W36855  19.753   5.350   1.235
64431W        W36856  24.612  35.576  13.566
64432W        W36857  15.020  40.569   1.382
64433W        W36858  17.775  21.646   0.398
64434W        W36859  31.986  17.495  12.109
64435W        W36860  25.793  18.218   1.708
64436W        W36861  21.918   4.118   2.360
64437W        W36862   1.191  10.081  14.250
64438W        W36863  40.084  35.051  13.631
64439W        W36864  41.838   4.009   0.222
64440W        W36865  20.179  23.809  10.402
64441W        W36866  33.414  23.158   2.754
64442W        W36867  27.133   5.481  13.874
64443W        W36868  33.415  33.091  11.632
64444W        W36869  29.911  43.168  12.596
64445W        W36870  40.210   5.948  11.529
64446W        W36871  36.109  34.937   2.273
64447W        W36872  21.202  40.247  12.028
64448W        W36873  36.069  18.140   4.424
64449W        W36874  34.404  43.835   3.350
64450W        W36875  18.991  36.018   4.584
64451W        W36876  26.290   6.842  14.381
64452W        W36877  18.643  35.649   4.638
64453W        W36878  24.256  28.525   1.695
64454W        W36879   0.713  43.482  14.786
64455W        W36880  38.715  19.548   2.354
64456W        W36881  16.518  35.565   1.516
64457W        W36882   1.038  22.816  10.281
64458W        W36883  20.608  42.556   4.106
64459W        W36884   7.976   9.316   2.710
64460W        W36885  18.497  15.245  14.822
64461W        W36886   2.308  19.366   0.846
64462W        W36887   0.423  23.781   0.465
64463W        W36888  30.567  30.152  11.155
64464W        W36889  30.942  40.798   0.296
64465W        W36890   3.473  38.491  12.477
64466W        W36891   2.263  14.605  12.032
64467W        W36892  15.054  42.744   0.846
64468W        W36893  26.109  24.740  12.930
64469W        W36894  42.257  21.704   3.584
64470W        W36895  14.662  22.976   9.766
64471W        W36896  43.807  30.223  12.001
64472W        W36897   9.726   1.384  12.128
64473W        W36898  25.001  15.240  13.905
64474W        W36899  14.588   3.620   4.132
64475W        W36900  38.596  26.198   3.884
64476W        W36901  17.128  10.090  10.503
64477W        W36902  22.466  26.898   5.050
64478W        W36903  24.182   7.338  14.846
64479W        W36904  42.465  11.645  12.894
64480W        W36905  10.459   7.109   4.141
64481W        W36906  24.504  29.101   1.466
64482W        W36907   2.114  28.095  11.734
64483W        W36908  20.299  31.436  14.771
64484W        W36909  37.741   4.860  14.414
64485W        W36910  22.969  31.074  14.404
64486W        W36911  23.280  30.429  13.700
64487W        W36912  42.827  14.269   5.145
64488W        W36913  28.111  16.982   1.871
64489W        W36914  20.654  15.526  14.000
64490W        W36915  18.197  28.870   0.974
64491W        W36916  43.330   9.170   1.536
64492W        W36917  15.804  10.892   2.276
64493W        W36918  41.769  33.434   3.760
64494W        W36919  33.517  32.544   2.314
64495W        W36920  31.666   8.074   1.274
64496W        W36921  31.001  15.110   2.450
64497W        W36922  35.373  31.777   4.775
64498W        W36923  13.871  29.726   2.219
64499W        W36924   4.135  29.039   1.770
64500W        W36925  14.640  44.841   1.956
64501W        W36926  18.565  40.290   2.116
64502W        W36927  43.922   6.720  10.631
64503W        W36928   0.443  10.342  10.437
64504W        W36929  26.490   9.372   2.060
64505W        W36930  29.945  33.085   2.322
64506W        W36931  12.618   6.716  11.528
64507W        W36932  32.562  41.240  14.831
64508W        W36933  10.714  11.376   4.027
64509W        W36934  18.153  10.642  12.309
64510W        W36935   7.508   8.169  13.011
64511W        W36936  15.516  31.120  12.069
64512W        W36937  11.285  34.216  12.615
64513W        W36938   9.826  30.863   2.677
64514W        W36939  23.489  13.264   1.858
64515W        W36940  26.947   7.239   3.579
64516W        W36941  21.964   5.563   4.127
64517W        W36942  13.172   8.909   3.685
64518W        W36943  17.837  38.025   3.656
64519W        W36944  29.619  23.519  12.849
64520W        W36945  16.013  31.343   4.677
64521W        W36946  14.356   1.238  12.902
64522W        W36947  30.985  42.101  11.297
64523W        W36948  24.531  44.251   0.770
64524W        W36949  35.104   9.375   0.314
64525W        W36950  10.334   1.600  11.961
64526W        W36951  35.327  25.755   4.448
64527W        W36952  22.976  11.862   3.625
64528W        W36953   6.809  41.807  13.602
64529W        W36954   7.394   9.177   0.672
64530W        W36955   2.937  27.021   4.166
64531W        W36956   7.886  28.521  12.450
64532W        W36957   0.624  21.690  12.969
64533W        W36958  42.047   4.247  11.965
64534W        W36959  43.977  25.168   3.288
64535W        W36960  11.636  34.913  13.730
64536W        W36961   6.605  24.670  11.202
64537W        W36962  36.870  25.987  11.682
64538W        W36963  19.460  43.344  12.964
64539W        W36964  31.425  38.837   0.678
64540W        W36965   0.959  22.066   4.056
64541W        W36966  40.794  18.261  10.638
64542W        W36967  28.153  24.160  14.772
64543W        W36968   1.277  28.954  11.191
64544W        W36969  20.067   3.606  12.023
64545W        W36970   8.213  34.024  10.689
64546W        W36971  27.912  21.783   0.354
64547W        W36972  29.210  27.544   2.655
64548W        W36973   8.073  30.967  11.402
64549W        W36974  10.197  33.017   0.816
64550W        W36975  36.989  24.938  13.400
64551W        W36976   8.098  42.023   1.457
64552W        W36977  21.244  12.776  13.819
64553W        W36978  42.020  29.773   1.774
64554W        W36979  17.117  29.891  14.434
64555W        W36980  20.142  33.196   2.638
64556W        W36981  22.190  42.263   4.514
64557W        W36982  44.224  31.859   2.292
64558W        W36983  33.447   6.909   4.580
64559W        W36984  21.143  44.333  14.152
64560W        W36985   0.991  16.148  14.791
64561W        W36986   2.859  41.892   3.137
64562W        W36987  27.834   4.905  12.183
64563W        W36988  44.982  32.040   4.995
64564W        W36989  27.681  20.664   0.026
64565W        W36990  22.095  24.650  11.347
64566W        W36991  21.309  30.798   9.813
64567W        W36992  11.235  38.912  12.470
64568W        W36993  39.806  30.676   1.922
64569W        W36994  22.602  16.752   4.237
64570W        W36995  34.642  32.445  14.903
64571W        W36996  30.488  20.972  14.592
64572W        W36997  44.994   1.751  14.386
64573W        W36998   3.667  14.837  11.118
64574W        W36999  11.280   3.834   5.056
64575W        W37000  42.411  18.792  11.475
64576W        W37001  31.509   1.677   3.603
64577W        W37002  35.226  36.451  14.477
64578W        W37003  35.034  39.447  11.479
64579W        W37004  19.274  16.869   2.263
64580W        W37005   0.282  41.101  13.457
64581W        W37006  27.357  27.600   1.380
64582W        W37007   8.017  40.502   2.278
64583W        W37008  10.714  31.224  12.974
64584W        W37009  34.552   5.267  12.321
64585W        W37010  28.018  29.461   0.262
64586W        W37011  11.873   3.042  12.374
64587W        W37012  18.525  30.513  14.504
64588W        W37013  40.622  23.024  13.450
64589W        W37014  29.903   6.881   0.516
64590W        W37015   8.622  32.546   3.646
64591W        W37016  25.205  44.098  11.639
64592W        W37017  43.091  33.022   1.925
64593W        W37018  21.313  11.582  13.982
64594W        W37019  14.828  39.955  12.805
64595W        W37020   8.852   3.831  12.378
64596W        W37021  35.738   5.680   4.599
64597W        W37022  34.195  36.451  14.270
64598W        W37023  34.692  42.821   3.779
64599W        W37024  41.484  28.047  13.520
64600W        W37025  17.110   9.367   3.207
64601W        W37026  37.046  19.529  12.613
64602W        W37027  39.229  12.177   1.958
64603W        W37028  20.149  15.585  14.248
64604W        W37029  39.919  14.219   4.112
64605W        W37030  18.037  30.536  10.933
64606W        W37031   0.107  30.581  12.137
64607W        W37032  30.040  34.186   0.473
64608W        W37033  24.496  44.755  14.965
64609W        W37034  42.665  27.234  11.506
64610W        W37035  18.401  38.360  11.563
64611W        W37036  29.544  40.537  12.952
64612W        W37037  33.643   3.862  11.423
64613W        W37038  23.035  10.670  13.832
64614W        W37039  32.850   2.516   3.747
64615W        W37040  41.495  37.927   3.809
64616W        W37041  14.952   8.560   4.975
64617W        W37042   7.351  24.206  10.689
64618W        W37043  25.137  11.174  14.598
64619W        W37044  11.247  12.145   2.726
64620W        W37045   6.203  17.186  14.464
64621W        W37046   1.870   8.660  12.208
64622W        W37047  22.427  40.700  14.026
64623W        W37048  27.668  33.006  13.552
64624W        W37049  24.082  24.454   1.223
64625W        W37050  15.088  37.589   2.206
64626W        W37051   9.152   7.185   4.543
64627W        W37052   8.926  22.596  11.447
64628W        W37053  40.937  44.839  11.009
64629W        W37054  28.077  21.318   1.444
64630W        W37055  35.511  21.789  11.440
64631W        W37056  17.114  35.881   0.226
64632W        W37057  35.571  19.982   3.132
64633W        W37058  42.836   7.649   0.921
64634W        W37059  36.405  22.126  11.031
64635W        W37060  20.241  26.204  14.491
64636W        W37061  23.620   6.458  14.406
64637W        W37062   4.620  15.371  11.516
64638W        W37063  28.399  33.237   2.171
64639W        W37064  11.759  37.914   1.684
64640W        W37065   0.454  29.530   3.607
64641W        W37066  25.115  36.364   2.883
64642W        W37067   0.844   4.190  12.091
64643W        W37068  25.565   6.610   4.165
64644W        W37069  10.583  27.414   4.430
64645W        W37070  14.423  11.750   0.938
64646W        W37071  37.359   0.034  13.853
64647W        W37072  21.743   0.328   0.707
64648W        W37073  34.955  31.509  11.102
64649W        W37074  42.904   4.300  13.876
64650W        W37075  39.124  17.074   4.845
64651W        W37076  24.067  35.072   3.038
64652W        W37077   1.972  15.533  12.280
64653W        W37078  39.906  32.140   2.865
64654W        W37079  40.573  27.152   1.367
64655W        W37080  10.911  28.234  12.494
64656W        W37081  25.676  41.829   0.470
64657W        W37082  19.562  34.566  14.457
64658W        W37083  19.500  16.032  13.027
64659W        W37084  40.556   8.207   0.815
64660W        W37085  10.716  21.064   3.810
64661W        W37086  13.742  31.657  12.113
64662W        W37087   2.976  33.115  13.361
64663W        W37088  41.246  11.589  11.945
64664W        W37089  12.696   3.430   5.334
64665W        W37090  36.626  23.212   4.156
64666W        W37091  33.965  26.997   0.195
64667W        W37092  19.297  33.483  12.667
64668W        W37093  10.379   3.268  14.829
64669W        W37094  11.384  37.348   4.233
64670W        W37095  36.767  18.632  14.495
64671W        W37096  18.181  18.160   0.572
64672W        W37097  19.025  29.623   4.969
64673W        W37098  42.344  40.922   1.728
64674W        W37099  43.598  26.887  14.816
64675W        W37100  19.681  34.059  13.130
64676W        W37101  18.583   3.433  13.494
64677W        W37102  28.567  20.198  11.396
64678W        W37103  21.659   5.336   1.155
64679W        W37104  14.280   9.924  12.906
64680W        W37105  10.313   5.682  11.670
64681W        W37106  13.181  27.368   4.065
64682W        W37107  27.371  19.740  14.346
64683W        W37108  10.425   9.669  12.983
64684W        W37109  38.458   0.260   4.788
64685W        W37110   6.090   4.927   5.189
64686W        W37111  12.768   5.769  10.669
64687W        W37112   0.464  20.280   1.865
64688W        W37113   5.927  19.068   2.567
64689W        W37114  30.017  16.558   1.703
64690W        W37115   4.350  12.652   3.461
64691W        W37116   2.324  28.903  11.538
64692W        W37117  21.700  41.193   2.241
64693W        W37118  25.638  16.867   0.388
64694W        W37119   8.766  35.067   4.806
64695W        W37120  36.559  17.159  14.605
64696W        W37121  13.201  27.570  10.495
64697W        W37122  13.563  32.914  14.322
64698W        W37123   1.029  28.713  14.220
64699W        W37124   2.339  32.002   2.612
64700W        W37125  18.043   4.892   4.136
64701W        W37126   5.941  36.907  13.533
64702W        W37127  35.392   0.240   0.208
64703W        W37128  16.533  43.201  14.453
64704W        W37129  12.410   9.278   3.104
64705W        W37130  25.513  17.705   1.795
64706W        W37131  29.888  30.934   4.618
64707W        W37132  36.047  36.051  12.889
64708W        W37133   3.174   4.923  14.639
64709W        W37134  44.278  39.853   0.490
64710W        W37135  43.583   8.580  13.829
64711W        W37136  16.611   9.252  14.803
64712W        W37137  41.989  23.728  14.254
64713W        W37138  30.827  19.452   4.128
64714W        W37139  38.823  14.687  14.546
64715W        W37140  32.323   0.018   1.444
64716W        W37141  34.907  37.124  14.987
64717W        W37142   7.202  32.140   1.390
64718W        W37143  20.257  17.911  14.460
64719W        W37144  38.611  32.104  10.707
64720W        W37145  17.556   2.360  13.480
64721W        W37146  20.838  18.873   3.696
64722W        W37147   9.190  19.090  12.825
64723W        W37148   7.989  31.428   1.235
64724W        W37149  24.065  31.874   3.137
64725W        W37150   1.729  27.358   2.388
64726W        W37151  43.296  34.917   1.904
64727W        W37152   6.376  38.852  12.866
64728W        W37153  28.159  21.760   3.526
64729W        W37154   3.471  21.934   3.193
64730W        W37155  21.459  17.743   2.672
64731W        W37156  25.674  37.472  14.743
64732W        W37157   9.782   0.720   0.495
64733W        W37158  10.729  40.838  12.478
64734W        W37159   1.224  19.301  11.616
64735W        W37160  12.802  26.736   5.162
64736W        W37161  16.972  17.056  12.597
64737W        W37162  20.073  26.603   2.322
64738W        W37163  28.668  40.390   0.322
64739W        W37164  32.707  31.907   4.277
64740W        W37165  14.010  35.978   2.418
64741W        W37166  35.084  29.368   1.700
64742W        W37167   5.228  22.478  14.582
64743W        W37168   0.909   9.143  12.426
64744W        W37169  18.657  43.977  12.454
64745W        W37170  32.169  37.121   1.205
64746W        W37171  44.864  20.756   4.427
64747W        W37172   2.385  40.068   0.949
64748W        W37173  11.604  29.082  14.380
64749W        W37174   0.351  20.685   2.893
64750W        W37175  28.421  18.147  14.481
64751W        W37176  11.328   6.176   4.927
64752W        W37177   4.251  26.940  10.448
64753W        W37178  33.524  43.261   0.876
64754W        W37179   6.873  29.508  10.476
64755W        W37180  18.711  12.514   3.593
64756W        W37181   3.280   6.960   2.390
64757W        W37182  35.468  16.243   1.448
64758W        W37183  28.081  20.873  14.085
64759W        W37184  37.506  16.182  13.946
64760W        W37185  38.930  41.739  13.434
64761W        W37186  20.501  33.632  14.627
64762W        W37187  30.830  25.017  11.682
64763W        W37188  20.703  32.316   3.400
64764W        W37189  44.974  34.962   1.277
64765W        W37190  17.451  35.341   1.261
64766W        W37191  12.887  20.550   3.727
64767W        W37192  31.444  22.091  11.145
64768W        W37193  14.385  29.916   2.191
64769W        W37194  32.514  23.685   4.208
64770W        W37195  23.951  33.470   4.214
64771W        W37196  26.340  33.083  11.137
64772W        W37197  24.218  21.607  11.271
64773W        W37198  38.388  19.653  10.752
64774W        W37199  41.000  26.646  12.024
64775W        W37200   6.462  25.239  12.549
64776W        W37201  10.703  35.067   3.803
64777W        W37202  30.946  22.837  10.959
64778W        W37203   6.401  21.932  13.341
64779W        W37204  31.850   1.382  14.850
64780W        W37205  11.198  11.240   1.637
64781W        W37206  12.225  15.669  13.527
64782W        W37207  19.249   7.711   4.548
64783W        W37208  16.232  24.338  14.006
64784W        W37209  39.036  10.941   1.953
64785W        W37210  25.027  22.045   0.292
64786W        W37211  14.828   9.406  11.502
64787W        W37212  37.903  36.019   3.695
64788W        W37213  43.795   6.059   0.378
64789W        W37214   0.520  30.440   0.361
64790W        W37215  12.806  10.589   0.431
64791W        W37216  26.097   7.329  10.652
64792W        W37217  19.771  40.582  12.261
64793W        W37218  19.702  44.825  14.669
64794W        W37219  44.001  44.874  13.148
64795W        W37220  25.519  35.323  11.717
64796W        W37221  13.138   6.914   4.536
64797W        W37222  24.532  26.084   1.306
64798W        W37223   9.643   5.770   3.376
64799W        W37224  15.283  22.100  12.961
64800W        W37225   3.850  17.495  10.553
64801W        W37226  14.310   8.818   0.707
64802W        W37227  17.111  12.182   0.710
64803W        W37228  15.601   5.892  14.425
64804W        W37229  18.329  21.658  11.849
64805W        W37230   2.042   2.188  13.016
64806W        W37231   4.573  18.563  10.401
64807W        W37232  40.038  13.129   4.132
64808W        W37233  44.963   2.277   4.388
64809W        W37234   8.558  30.508   1.149
64810W        W37235  40.182  32.376   1.642
64811W        W37236  43.356   1.871   4.893
64812W        W37237  20.052  10.460  14.973
64813W        W37238  22.636  33.665   2.874
64814W        W37239  15.595   8.618  14.899
64815W        W37240  24.643  22.343   0.464
64816W        W37241  27.456  14.176  14.272
64817W        W37242  44.313  28.438   2.734
64818W        W37243  43.589  30.998  13.343
64819W        W37244  33.950  12.759   2.941
64820W        W37245  28.208   3.236  12.468
64821W        W37246  21.803  27.553  14.823
64822W        W37247  21.487  11.071  13.941
64823W        W37248   9.630  20.895   3.739
64824W        W37249  24.486  34.019  13.881
64825W        W37250  25.433  19.518  12.517
64826W        W37251  42.733  32.251  12.867
64827W        W37252   7.090  22.035   4.047
64828W        W37253   4.941  29.555  11.443
64829W        W37254  22.765  40.359   0.934
64830W        W37255   7.344  34.204   4.540
64831W        W37256  42.506  22.151  10.556
64832W        W37257  33.113  18.171   2.899
64833W        W37258  25.142  21.222  14.416
64834W        W37259  36.800  15.248   1.867
64835W        W37260   0.170   5.734   1.786
64836W        W37261   3.351   6.711  12.234
64837W        W37262  30.440  25.262  11.106
64838W        W37263  14.453   3.802   5.740
64839W        W37264   6.646  22.331   4.013
64840W        W37265  31.364  21.651   2.203
64841W        W37266  23.705   0.493   4.136
64842W        W37267  19.185  37.911  14.178
64843W        W37268  26.903  22.012  14.476
64844W        W37269   1.998  41.968   0.795
64845W        W37270  35.071  35.337   3.687
64846W        W37271  37.097  26.005   3.209
64847W        W37272  36.591  14.839   3.777
64848W        W37273  28.559  38.180  12.981
64849W        W37274  29.433  10.865   2.826
64850W        W37275  27.476  27.628   0.253
64851W        W37276  36.045  26.444   0.400
64852W        W37277  28.580  25.000  14.399
64853W        W37278   9.629  42.395   3.220
64854W        W37279  15.565  13.058   4.975
64855W        W37280  10.804  14.187   3.415
64856W        W37281  19.726  13.028  13.064
64857W        W37282   8.749  33.900  13.552
64858W        W37283   1.782  41.922  11.799
64859W        W37284  37.910  36.956  12.403
64860W        W37285  16.107  41.547  13.759
64861W        W37286  13.779   5.726   3.547
64862W        W37287  33.933  38.470   2.344
64863W        W37288  36.998  38.251   4.229
64864W        W37289  15.158  21.504   2.392
64865W        W37290  41.938  42.547  13.954
64866W        W37291  35.188  37.634  13.836
64867W        W37292  43.991  20.691   3.905
64868W        W37293  37.128  15.513  10.619
64869W        W37294  26.198  31.936   2.854
64870W        W37295  39.963  16.311   0.732
64871W        W37296  11.889  33.936  11.504
64872W        W37297  34.709  44.755  14.725
64873W        W37298  22.122  41.274   1.224
64874W        W37299  39.403   2.899  14.342
64875W        W37300  15.007   0.003   3.432
64876W        W37301  16.782  22.316  12.769
64877W        W37302  32.041   1.906  10.702
64878W        W37303   5.622  30.894   1.282
64879W        W37304  33.799  29.922   1.397
64880W        W37305  35.441   7.873  12.582
64881W        W37306  32.526  38.517  11.630
64882W        W37307  33.200  42.257   0.311
64883W        W37308  18.784  41.381  14.437
64884W        W37309  33.627   3.236  12.794
64885W        W37310  14.770   3.787  10.228
64886W        W37311  25.844  19.759   3.656
64887W        W37312  28.167  11.141   2.712
64888W        W37313  44.869   0.753   2.449
64889W        W37314  30.329  32.074  14.968
64890W        W37315  28.173  36.970   2.875
64891W        W37316  20.970   3.942  13.606
64892W        W37317   6.651  21.245   2.708
64893W        W37318  12.735  31.833   2.322
64894W        W37319  31.386   4.899   0.817
64895W        W37320  14.109  20.722  14.495
64896W        W37321  40.476  21.692   9.574
64897W        W37322  37.487   0.976   1.200
64898W        W37323  40.058  35.881   2.193
64899W        W37324  17.679  26.182   4.497
64900W        W37325   4.989  35.112  13.420
64901W        W37326  15.997   3.638  14.811
64902W        W37327  34.723   6.637   9.992
64903W        W37328  29.947  27.161  13.495
64904W        W37329  43.055  26.441   3.661
64905W        W37330  26.191  38.448  10.715
64906W        W37331  28.741   4.671  13.122
64907W        W37332   3.364  22.866   9.957
64908W        W37333  16.147  12.471  12.063
64909W        W37334   7.750  38.795  14.015
64910W        W37335  23.647  19.949  10.933
64911W        W37336  11.745  19.565  13.015
64912W        W37337   5.466  38.395  13.603
64913W        W37338  42.700   2.937  13.955
64914W        W37339  10.265  30.934  14.920
64915W        W37340  19.965   7.853  10.737
64916W        W37341  36.824  32.951  14.881
64917W        W37342  23.945  33.406  11.549
64918W        W37343  41.879  42.912   0.739
64919W        W37344   2.612  22.577   0.292
64920W        W37345  36.498  28.177   9.767
64921W        W37346  17.143  26.465   0.784
64922W        W37347   5.419  30.107   4.146
64923W        W37348  21.119  37.196   1.871
64924W        W37349  21.120   9.145   4.619
64925W        W37350  28.437   9.325  13.979
64926W        W37351  27.043   0.170  11.423
64927W        W37352  37.654   1.332  10.381
64928W        W37353  37.728  14.521   3.300
64929W        W37354  32.406  33.579   2.714
64930W        W37355   3.364  23.085   0.439
64931W        W37356  23.439  21.601  10.322
64932W        W37357   0.478   1.756  10.398
64933W        W37358  13.004  20.862   2.248
64934W        W37359  21.336  19.709  13.014
64935W        W37360  25.606  40.114   1.406
64936W        W37361  31.390  13.619   0.673
64937W        W37362  25.863  29.721  14.360
64938W        W37363   3.386  16.688  11.331
64939W        W37364   7.060  27.790  13.521
64940W        W37365  30.630   0.946  11.098
64941W        W37366  36.660  42.393   4.647
64942W        W37367  16.357  22.186   0.327
64943W        W37368   3.863  27.748  14.254
64944W        W37369  19.502  14.192   4.643
64945W        W37370  35.988  29.500  11.156
64946W        W37371  29.337  14.772  10.811
64947W        W37372  32.363  35.773  12.867
64948W        W37373  37.346  30.932   4.533
64949W        W37374  39.404  24.726  12.216
64950W        W37375  28.186  15.248   4.218
64951W        W37376  21.156  21.529   3.082
64952W        W37377  18.829   3.191   1.301
64953W        W37378  36.342   4.952   2.198
64954W        W37379  35.795   7.367   1.065
64955W        W37380  27.630  17.492   0.449
64956W        W37381  17.761  37.327  14.355
64957W        W37382  25.976  27.233  13.802
64958W        W37383  36.097  36.062   3.826
64959W        W37384   0.006  13.852  14.997
64960W        W37385  16.196  23.472  14.126
64961W        W37386   5.928   7.479   0.841
64962W        W37387  36.546  27.709   2.794
64963W        W37388   4.251  23.018   1.961
64964W        W37389   0.862  40.300   1.590
64965W        W37390  17.276   2.328  14.032
64966W        W37391  17.999  42.451   0.680
64967W        W37392  36.987  41.988   4.616
64968W        W37393  14.099  17.091   0.467
64969W        W37394  18.629  44.862   2.338
64970W        W37395   2.512  29.973   2.668
64971W        W37396  21.465  22.554  13.415
64972W        W37397   1.198  38.823   4.074
64973W        W37398  39.527  44.774   3.714
64974W        W37399  39.533  26.827   2.847
64975W        W37400  25.719  36.168  12.137
64976W        W37401  43.506  34.452  13.482
64977W        W37402  30.504  15.869  10.889
64978W        W37403   3.336  25.455  11.709
64979W        W37404  15.700  32.665   3.475
64980W        W37405  17.369  11.373   0.725
64981W        W37406   4.485  34.108  12.904
64982W        W37407  17.183  21.840   4.066
64983W        W37408  28.935  27.559  10.656
64984W        W37409  19.773  13.218   2.670
64985W        W37410  26.191  30.530   3.237
64986W        W37411   5.285  31.372   3.177
64987W        W37412  24.915   9.722  14.394
64988W        W37413  37.665  27.883  13.836
64989W        W37414  21.263   1.307   0.969
64990W        W37415  36.641  28.289  12.993
64991W        W37416  38.343  21.632   3.773
64992W        W37417  36.787  29.461   1.150
64993W        W37418  37.417  36.286  11.039
64994W        W37419   7.723  40.876  11.329
64995W        W37420  16.062  33.452  10.612
64996W        W37421  34.553  25.716  11.863
64997W        W37422  15.277  14.781   4.886
64998W        W37423  38.876  10.883   4.183
64999W        W37424   7.801  43.300  11.277
65000W        W37425   7.650  32.859  12.595
65001W        W37426  28.635  30.882  12.439
65002W        W37427  37.945  32.483  14.017
65003W        W37428  33.613  23.326   4.949
65004W        W37429   9.289  42.800   4.646
65005W        W37430  16.839  43.585   3.623
65006W        W37431  31.606  42.838   0.968
65007W        W37432   9.863   7.155  11.593
65008W        W37433  35.898  22.285  12.625
65009W        W37434  37.504   3.261   3.669
65010W        W37435  43.481  41.784   1.904
65011W        W37436  40.590  36.817   2.889
65012W        W37437  40.084  35.206   1.554
65013W        W37438  19.772  32.864   2.351
65014W        W37439  33.599  16.804   1.336
65015W        W37440  38.348   8.437  11.537
65016W        W37441  40.755   1.389   2.384
65017W        W37442  40.810   8.883   0.318
65018W        W37443  43.953   7.713   1.980
65019W        W37444  43.066   7.759   1.376
65020W        W37445  28.979   0.770   0.942
65021W        W37446  44.342  34.325  11.725
65022W        W37447  25.109  19.269   0.396
65023W        W37448  38.008  16.212  14.882
65024W        W37449  36.278  35.159  12.952
65025W        W37450  24.680   4.264   0.352
65026W        W37451  16.618   5.953  13.860
65027W        W37452  10.781  42.728  13.955
65028W        W37453   0.522  40.549   4.532
65029W        W37454  40.622  34.094  14.539
65030W        W37455  14.472  22.951   1.465
65031W        W37456  19.382  28.621   1.622
65032W        W37457  10.860  34.126   1.947
65033W        W37458  31.169   4.466   4.493
65034W        W37459   7.462  43.270  12.352
65035W        W37460  13.759  33.611  11.544
65036W        W37461  32.396  11.174   0.257
65037W        W37462  37.797  33.526   3.734
65038W        W37463  19.856  21.503  14.398
65039W        W37464  12.857  18.098   4.581
65040W        W37465  13.511  37.397  11.182
65041W        W37466   0.929  25.061   4.126
65042W        W37467  37.195  42.160   0.694
65043W        W37468  20.043  26.080  14.932
65044W        W37469   3.401   0.692   1.627
65045W        W37470  30.891  34.975  13.561
65046W        W37471  16.244  38.705   3.428
65047W        W37472  13.469  11.242  14.333
65048W        W37473  37.816  26.844   0.049
65049W        W37474  22.991  25.849   0.765
65050W        W37475  10.316  38.745  11.487
65051W        W37476  34.385  44.632   3.418
65052W        W37477  14.715  16.760   1.785
65053W        W37478  41.598   2.403  13.412
65054W        W37479  39.927  23.723  14.585
65055W        W37480   7.621   4.189   3.228
65056W        W37481  30.675  34.698   3.865
65057W        W37482  44.241   7.419   4.530
65058W        W37483  13.174  28.723   2.605
65059W        W37484  30.003   9.185  12.168
65060W        W37485  25.743   0.432   0.350
65061W        W37486  37.867   5.707   2.798
65062W        W37487  44.789  16.589  10.588
65063W        W37488   9.175   6.630   3.662
65064W        W37489   7.650  14.108  14.953
65065W        W37490  31.984   8.255  12.243
65066W        W37491  26.035  11.706  11.662
65067W        W37492  13.226  39.469  13.295
65068W        W37493  31.687  34.581   3.760
65069W        W37494  11.628   8.476  11.897
65070W        W37495  39.078  19.912   0.050
65071W        W37496   9.398   9.580   1.359
65072W        W37497  40.011  10.418   3.953
65073W        W37498  11.138   0.760   4.877
65074W        W37499  22.522   0.782  13.461
65075W        W37500  28.604  36.664   1.676
65076W        W37501   5.767  28.446   3.906
65077W        W37502  15.072  25.649  12.837
65078W        W37503  15.847  43.188  14.816
65079W        W37504   0.930  34.510   9.973
65080W        W37505  41.018   3.043   3.100
65081W        W37506  32.652  11.592   2.570
65082W        W37507  31.916  36.435  12.101
65083W        W37508  15.932   0.223   1.252
65084W        W37509  32.470  30.349   1.420
65085W        W37510  41.266   4.968   4.156
65086W        W37511   8.246  14.716  12.453
65087W        W37512   0.719  41.435   4.125
65088W        W37513   7.979  41.109   1.463
65089W        W37514   2.992  31.553  13.435
65090W        W37515  38.933  31.292   5.118
65091W        W37516  20.075  12.067   2.312
65092W        W37517  11.998  28.914  10.803
65093W        W37518  11.337  13.582   1.219
65094W        W37519  25.508   1.612   1.832
65095W        W37520  29.075  32.497   2.351
65096W        W37521  26.198  37.930   0.372
65097W        W37522  27.739  42.961   4.143
65098W        W37523  24.426  39.052  11.409
65099W        W37524   6.404  23.080   1.273
65100W        W37525   5.615  34.357   4.036
65101W        W37526  20.490   3.877   3.339
65102W        W37527  16.706  16.198  10.751
65103W        W37528   3.997  37.902  10.857
65104W        W37529  35.955  29.154   0.525
65105W        W37530  20.103  43.422  11.957
65106W        W37531  32.422   2.313   0.428
65107W        W37532  31.855  25.651   2.723
65108W        W37533  31.427  30.477   4.808
65109W        W37534  17.573  37.450  14.841
65110W        W37535  21.127  34.690   1.853
65111W        W37536  39.898   3.435   4.508
65112W        W37537  43.328   1.644  14.417
65113W        W37538  14.209   6.447  10.671
65114W        W37539  11.919   2.235  11.245
65115W        W37540   3.296   8.756  12.404
65116W        W37541   6.702  23.603   3.660
65117W        W37542  18.022   0.974   3.799
65118W        W37543   5.466  33.119  14.759
65119W        W37544  35.145  32.420   3.827
65120W        W37545  42.324  42.586   0.014
65121W        W37546  26.909  41.364   3.357
65122W        W37547   8.702  39.973  13.532
65123W        W37548  35.463  35.390   0.905
65124W        W37549  31.917  33.077   0.255
65125W        W37550   7.005  13.874  11.238
65126W        W37551  23.614  36.107   1.802
65127W        W37552  28.561  32.879   4.380
65128W        W37553  44.805  22.714   4.829
65129W        W37554  27.497  12.390   3.928
65130W        W37555  37.893   4.444   0.368
65131W        W37556  37.872  44.478   3.260
65132W        W37557  26.667  26.000  10.453
65133W        W37558   8.632  12.639  14.585
65134W        W37559  19.239  13.062  10.697
65135W        W37560  30.697  24.444  13.083
65136W        W37561  43.694   1.782   3.128
65137W        W37562  23.749  39.730   5.160
65138W        W37563  40.565   2.839   3.737
65139W        W37564  42.330   3.940  11.636
65140W        W37565  12.075  32.435   1.221
65141W        W37566   0.256  13.305   3.714
65142W        W37567   0.152  33.507  13.054
65143W        W37568  38.413  26.730   3.674
65144W        W37569  37.515  22.130  13.720
65145W        W37570  41.194  35.128   4.143
65146W        W37571   5.734  35.085  11.148
65147W        W37572   4.357   4.761   0.823
65148W        W37573  44.236  35.014   0.290
65149W        W37574  11.833   4.360   0.949
65150W        W37575   6.852  15.561  12.051
65151W        W37576  33.503  17.363  12.933
65152W        W37577   6.831  44.964  10.931
65153W        W37578   9.194  40.514  13.028
65154W        W37579   7.896  16.204   0.389
65155W        W37580  37.446  24.419   0.870
65156W        W37581   8.815  27.142   1.778
65157W        W37582  24.087  43.228  14.837
65158W        W37583  33.339  44.977   2.178
65159W        W37584  15.725  11.621  12.507
65160W        W37585   7.965  44.102  14.427
65161W        W37586  22.195  30.678  11.399
65162W        W37587  22.668   9.026   4.180
65163W        W37588  10.428  37.889  11.338
65164W        W37589   2.254  31.113   4.981
65165W        W37590  21.701  38.921   1.491
65166W        W37591  20.738   3.403   1.993
65167W        W37592   7.019  10.660   2.378
65168W        W37593   0.106  44.021   3.051
65169W        W37594  36.029  12.033  12.481
65170W        W37595  37.625   9.188  11.933
65171W        W37596  18.798   9.333  13.884
65172W        W37597  14.165   6.846   3.097
65173W        W37598  11.124  37.775  12.982
65174W        W37599  31.522  36.597   4.075
65175W        W37600  10.240  30.094  13.843
65176W        W37601  29.762  16.307   2.238
65177W        W37602  38.594  15.804   4.575
65178W        W37603  27.088  40.109   4.761
65179W        W37604   9.474  17.511   4.122
65180W        W37605  40.392   5.193   2.589
65181W        W37606  43.845  15.407  12.843
65182W        W37607  29.109  22.625   3.817
65183W        W37608  40.055  44.416   2.349
65184W        W37609  36.498  37.150  12.480
65185W        W37610  11.668  40.537  11.608
65186W        W37611  11.277  32.037   1.713
65187W        W37612  40.423  38.205   1.940
65188W        W37613   2.858  42.437   1.904
65189W        W37614  40.809  33.372  12.900
65190W        W37615   5.277  32.049   3.622
65191W        W37616  19.664  29.613   2.863
65192W        W37617  10.211  37.048   0.973
65193W        W37618  11.538  20.951   2.642
65194W        W37619  39.688  28.941   2.443
65195W        W37620  23.592  26.562   4.246
65196W        W37621  22.278  11.570  11.890
65197W        W37622  21.133  21.769   4.227
65198W        W37623  23.451  17.927   3.733
65199W        W37624  37.145  44.268   3.690
65200W        W37625  13.825   7.413  12.835
65201W        W37626  38.512  37.933   3.653
65202W        W37627  19.673  34.845   4.553
65203W        W37628   2.868  10.794   4.550
65204W        W37629  28.655  15.215  13.876
65205W        W37630  36.291   5.451   3.371
65206W        W37631  33.618  39.937   4.724
65207W        W37632  24.046  18.087  11.613
65208W        W37633  32.964  40.827  11.570
65209W        W37634  26.512  34.327  12.897
65210W        W37635  41.246  36.781   0.663
65211W        W37636   1.977   3.257  13.886
65212W        W37637   0.204  31.874   3.767
65213W        W37638  28.869  12.354   2.357
65214W        W37639  10.243  19.175   4.379
65215W        W37640  35.989  38.397   4.525
65216W        W37641  34.326   9.209  11.251
65217W        W37642  31.142   6.271  11.658
65218W        W37643  14.658  39.819   2.629
65219W        W37644  38.515   4.042  10.963
65220W        W37645  14.214   9.855  14.705
65221W        W37646  30.088   1.904   2.220
65222W        W37647  15.704  28.425  12.562
65223W        W37648  10.801  10.162  14.113
65224W        W37649   8.107  33.490  14.974
65225W        W37650   9.469  25.522  12.824
65226W        W37651  24.203  15.478  13.518
65227W        W37652  21.136  18.495   3.512
65228W        W37653  36.481  12.097   1.367
65229W        W37654   3.705   3.875   0.018
65230W        W37655  17.659  20.582  12.841
65231W        W37656  16.453   1.288   0.768
65232W        W37657  18.322  16.378   0.231
65233W        W37658  30.626   6.158  12.924
65234W        W37659  27.559  43.934   4.169
65235W        W37660  33.546  28.930  14.113
65236W        W37661   0.524  32.307   4.546
65237W        W37662  22.536  19.816  11.180
65238W        W37663  23.913  35.868  12.379
65239W        W37664  44.793   9.310   1.900
65240W        W37665  29.976   2.938  10.907
65241W        W37666  29.218  17.833  10.489
65242W        W37667  18.849  23.126   1.871
65243W        W37668   6.850  30.521  12.920
65244W        W37669   4.201   9.207  10.398
65245W        W37670  37.997  19.547  13.609
65246W        W37671  44.830   3.665   3.296
65247W        W37672   7.703  19.488   3.833
65248W        W37673  22.957  20.330   2.804
65249W        W37674   1.101  30.053  10.592
65250W        W37675  36.967  25.963   2.379
65251W        W37676   6.293  18.787   3.770
65252W        W37677  22.999   6.354   0.313
65253W        W37678  19.670   8.780   4.133
65254W        W37679  40.005   7.653  13.878
65255W        W37680  38.283  23.751   2.261
65256W        W37681  41.157  10.679  12.912
65257W        W37682  24.299  40.776   0.413
65258W        W37683  38.315  42.035   4.339
65259W        W37684  25.605   7.433   1.798
65260W        W37685  35.772   9.604   3.841
65261W        W37686  43.810  36.948   2.372
65262W        W37687  11.063  34.943   2.371
65263W        W37688   1.981  29.915  13.375
65264W        W37689  28.568  15.582   0.351
65265W        W37690  19.515   5.548  11.119
65266W        W37691  22.061  20.277  13.047
65267W        W37692  33.736  44.312   4.167
65268W        W37693  27.999  30.069   3.833
65269W        W37694  16.812  37.598   4.205
65270W        W37695  32.758   5.284  13.873
65271W        W37696  34.426   5.447   4.301
65272W        W37697  21.508  36.357   3.710
65273W        W37698  33.032  42.314   1.749
65274W        W37699  17.225  17.841  13.787
65275W        W37700  34.958  42.042   0.661
65276W        W37701  10.308   3.904   1.529
65277W        W37702  40.782  23.597  11.448
65278W        W37703  35.349  34.564  11.155
65279W        W37704  17.181  15.558   4.821
65280W        W37705  14.629  22.498   3.711
65281W        W37706   2.962   0.785   0.506
65282W        W37707  19.373  36.509  12.511
65283W        W37708  41.833  12.071  12.070
65284W        W37709  11.491  44.876   2.420
65285W        W37710   7.687   7.200  13.145
65286W        W37711  32.391  21.741   2.254
65287W        W37712  36.886  19.598   3.644
65288W        W37713   9.620   3.203   3.613
65289W        W37714   9.805  42.877   4.745
65290W        W37715  39.797  13.669   0.780
65291W        W37716  38.644  17.062  12.636
65292W        W37717  38.285  18.599  13.501
65293W        W37718  29.509  14.729   0.505
65294W        W37719   0.249  43.560   2.895
65295W        W37720  16.647  10.551  14.114
65296W        W37721   9.814  13.562  10.468
65297W        W37722  42.437   9.252  14.594
65298W        W37723  11.358  37.547  13.392
65299W        W37724  26.569   6.936  12.544
65300W        W37725  41.762  17.552   3.208
65301W        W37726  41.629  40.939   4.094
65302W        W37727  32.388  41.098  12.432
65303W        W37728  35.677  44.735   4.490
65304W        W37729  33.216  20.211  11.152
65305W        W37730   3.957   1.827   0.272
65306W        W37731  37.130  43.405  14.417
65307W        W37732   7.033  31.024   1.667
65308W        W37733  26.740  32.895  14.017
65309W        W37734  27.166  12.323  13.410
65310W        W37735  22.302  37.049  13.141
65311W        W37736  29.675  27.183  12.398
65312W        W37737  34.531   6.518  13.110
65313W        W37738   5.778  42.515   0.001
65314W        W37739  37.007   7.361   2.315
65315W        W37740  16.222  16.370  11.964
65316W        W37741  40.247   0.305  12.078
65317W        W37742  19.604  29.297  11.642
65318W        W37743  28.136   6.356   0.488
65319W        W37744   1.993  18.825   4.217
65320W        W37745  12.825  30.588   4.314
65321W        W37746  37.214  42.516  14.822
65322W        W37747  30.939  38.319   2.047
65323W        W37748  32.109  11.308  14.841
65324W        W37749  23.098   6.002   2.564
65325W        W37750  12.199   1.813  11.366
65326W        W37751   3.845  31.384   4.736
65327W        W37752  40.429   8.612  14.286
65328W        W37753  39.469  43.898   4.937
65329W        W37754  33.551  15.844   1.367
65330W        W37755  12.233  30.371  13.912
65331W        W37756  35.663  18.005  11.022
65332W        W37757   2.781  10.909   0.282
65333W        W37758   3.326   1.915   0.975
65334W        W37759  20.568  24.064  12.547
65335W        W37760   1.757  31.253   2.426
65336W        W37761  36.436  28.999  12.407
65337W        W37762  11.354   0.245  11.501
65338W        W37763  23.032  29.828   3.328
65339W        W37764  18.614  11.683   2.777
65340W        W37765  17.416  24.984   3.679
65341W        W37766  35.112  31.492  14.027
65342W        W37767  25.720  23.921  13.229
65343W        W37768  10.303  15.052  14.932
65344W        W37769  10.316  38.797  12.989
65345W        W37770   2.671  22.413   3.626
65346W        W37771  14.645  37.664   3.135
65347W        W37772  34.600  38.909   0.452
65348W        W37773   5.279  13.098  13.934
65349W        W37774  20.038   9.910  14.979
65350W        W37775  17.735   5.363  10.542
65351W        W37776  30.750  40.525  10.932
65352W        W37777  12.896  14.644   0.818
65353W        W37778   8.508   4.799   2.238
65354W        W37779  27.442  38.262   4.704
65355W        W37780  39.464   2.758   0.717
65356W        W37781  11.737  29.249   0.813
65357W        W37782  16.577  32.065   2.945
65358W        W37783  20.836  29.204   2.331
65359W        W37784  33.418  34.290   4.263
65360W        W37785  25.642  34.338   2.237
65361W        W37786   9.317  40.367   1.973
65362W        W37787  40.338  22.170  14.986
65363W        W37788  41.040  34.598   0.129
65364W        W37789  32.100  23.587  13.808
65365W        W37790   9.152  44.746  12.327
65366W        W37791  10.322  25.031   1.405
65367W        W37792  23.782  12.382   5.021
65368W        W37793  14.143  13.617   2.225
65369W        W37794  33.616  36.069  12.800
65370W        W37795  23.546  13.849   4.250
65371W        W37796   4.355  16.536   1.229
65372W        W37797   1.769  22.039   2.745
65373W        W37798  16.060  36.572  13.899
65374W        W37799  39.887  36.040  11.169
65375W        W37800  13.289  30.654   1.891
65376W        W37801  44.558  44.269  10.355
65377W        W37802  12.005  16.936  12.145
65378W        W37803   1.789  41.728   1.414
65379W        W37804  12.813   2.466   0.551
65380W        W37805  18.479  12.288   4.403
65381W        W37806   2.200  25.177  13.496
65382W        W37807  16.425  30.068   3.367
65383W        W37808  29.007  36.063   4.605
65384W        W37809  36.531   9.179  14.956
65385W        W37810   4.891   6.614  11.690
65386W        W37811   9.432   0.941  10.888
65387W        W37812  33.168  27.555   0.009
65388W        W37813  23.573  36.517  11.551
65389W        W37814  22.966  43.754   3.147
65390W        W37815   4.625  18.380   1.586
65391W        W37816  35.137  15.418   2.203
65392W        W37817  12.930  22.613  10.273
65393W        W37818  14.542  14.829  13.299
65394W        W37819  22.478  38.956  14.430
65395W        W37820  20.936  36.736  14.117
65396W        W37821  19.892  23.556  14.084
65397W        W37822  21.604  32.433  13.321
65398W        W37823  15.524  10.892  13.071
65399W        W37824  42.911   8.683   1.244
65400W        W37825  16.198   8.675   4.637
65401W        W37826  30.507  27.894  14.963
65402W        W37827  15.813  19.509  13.401
65403W        W37828  43.863  42.717  13.235
65404W        W37829   0.678  15.084   4.561
65405W        W37830  22.681  29.309   2.770
65406W        W37831  22.463  43.842  14.767
65407W        W37832  41.730   3.294  11.148
65408W        W37833  20.157  17.499   1.643
65409W        W37834  20.658   2.322  14.860
65410W        W37835  17.048  22.635  13.512
65411W        W37836  35.144  39.883   4.190
65412W        W37837  33.750   0.260  14.521
65413W        W37838  16.768   2.361  13.995
65414W        W37839  36.400   1.775   1.431
65415W        W37840  28.905  39.820   1.338
65416W        W37841  22.955   5.795  11.189
65417W        W37842  40.067  15.888   1.643
65418W        W37843  24.608  14.858  13.947
65419W        W37844  29.001  39.411   1.665
65420W        W37845  40.478   6.490  12.148
65421W        W37846  43.388   6.365   1.120
65422W        W37847  26.158  29.350  11.027
65423W        W37848  31.041  25.974   2.695
65424W        W37849   5.730  36.508   0.259
65425W        W37850  21.826   8.702  12.142
65426W        W37851  14.584  16.856   3.712
65427W        W37852   7.714  28.986   1.020
65428W        W37853  38.335   6.658   4.318
65429W        W37854  30.907  24.235  14.933
65430W        W37855  36.568  33.396   3.967
65431W        W37856  34.958   2.278  10.809
65432W        W37857  23.938  38.309  10.514
65433W        W37858  17.778  13.943  12.086
65434W        W37859   8.795   9.156   1.650
65435W        W37860   5.677  38.631   4.321
65436W        W37861  33.273   1.807   5.108
65437W        W37862  35.058  11.902   3.139
65438W        W37863   2.086  35.406  13.089
65439W        W37864   1.833   4.390  11.563
65440W        W37865   2.247   0.192   1.478
65441W        W37866  40.483  31.714  10.757
65442W        W37867   0.176   3.924  13.306
65443W        W37868  22.274   3.319   1.964
65444W        W37869  13.241   7.168  11.132
65445W        W37870  30.134  31.070   1.340
65446W        W37871  30.860  21.714   2.271
65447W        W37872  34.367   0.823  14.891
65448W        W37873  31.852  32.007  14.066
65449W        W37874  30.675   9.274   2.235
65450W        W37875   7.463  27.015   3.252
65451W        W37876  28.395  18.671   4.114
65452W        W37877   7.304  21.836   1.393
65453W        W37878  37.161   8.272   5.214
65454W        W37879  25.342  39.793   5.099
65455W        W37880  29.526  31.414  10.692
65456W        W37881   0.417  17.004  14.470
65457W        W37882  12.688  44.257  14.720
65458W        W37883   7.157  30.974  12.995
65459W        W37884   8.286  17.302  13.808
65460W        W37885  37.432  32.936   0.336
65461W        W37886  22.347   2.171   0.281
65462W        W37887  33.743  40.632   0.379
65463W        W37888  25.126  40.281   1.482
65464W        W37889  36.110  12.625  11.176
65465W        W37890  31.992  40.437  11.651
65466W        W37891   3.425  14.100  11.491
65467W        W37892  35.953  11.834   4.166
65468W        W37893   4.289   0.338  14.432
65469W        W37894  39.661  15.496  14.219
65470W        W37895  14.530  13.522   3.197
65471W        W37896  22.163  38.325  12.870
65472W        W37897  36.934   8.637   0.344
65473W        W37898   5.655  19.173   2.116
65474W        W37899   7.739  19.804  12.233
65475W        W37900   6.926  16.285  12.501
65476W        W37901  42.856  42.920   3.355
65477W        W37902   3.187  38.898   2.641
65478W        W37903  17.562  37.092  11.191
65479W        W37904  21.188   6.727  14.799
65480W        W37905  32.665   4.897   0.219
65481W        W37906  21.190   0.806  12.046
65482W        W37907   2.207  33.390   3.682
65483W        W37908  39.650  42.991  13.869
65484W        W37909  13.523  23.210   2.335
65485W        W37910  41.383   6.067  11.962
65486W        W37911  24.216   7.469   2.325
65487W        W37912  11.584   2.027  12.561
65488W        W37913  19.859  20.708   1.468
65489W        W37914   2.846   5.130  11.924
65490W        W37915   2.369   7.925  12.462
65491W        W37916  13.338  25.037   2.241
65492W        W37917  24.064  31.604  14.739
65493W        W37918  43.606  37.590   2.980
65494W        W37919   9.482  22.607   2.217
65495W        W37920   4.138  14.706  11.242
65496W        W37921  18.804  25.471   2.850
65497W        W37922   6.168  33.525   4.501
65498W        W37923  35.154   8.867  14.714
65499W        W37924   1.553   0.289  14.891
65500W        W37925  28.178  18.077   4.787
65501W        W37926  18.949  27.058  12.133
65502W        W37927  18.598  36.064   4.985
65503W        W37928  40.016  13.192   3.236
65504W        W37929   2.255  14.369   0.929
65505W        W37930   1.267  20.047   0.495
65506W        W37931  39.484  34.008   1.786
65507W        W37932  27.016  35.493  14.273
65508W        W37933   1.992  21.675  14.139
65509W        W37934  27.956  37.720   2.205
65510W        W37935  11.536   0.361   0.400
65511W        W37936  34.805   8.664  11.142
65512W        W37937  13.320   8.684   4.135
65513W        W37938  34.568  34.161   1.616
65514W        W37939  31.917   6.759  11.629
65515W        W37940  12.061  41.008   3.593
65516W        W37941  29.181   5.431  11.820
65517W        W37942  19.216  13.820   0.540
65518W        W37943  33.248   3.344  10.678
65519W        W37944  32.429  33.833   2.260
65520W        W37945  10.952  22.915  14.876
65521W        W37946   6.231  21.667   3.385
65522W        W37947  27.458  31.960  11.339
65523W        W37948  42.929  20.157  13.980
65524W        W37949  23.007  38.885   0.722
65525W        W37950  23.178  36.028  13.555
65526W        W37951  31.733   5.254  11.537
65527W        W37952  25.113   6.151   1.461
65528W        W37953  32.628  25.582   4.706
65529W        W37954  41.814  19.583   4.154
65530W        W37955  40.786  14.260   2.425
65531W        W37956  34.704  13.029  11.188
65532W        W37957  31.727  34.219  12.853
65533W        W37958   9.137  15.379  10.720
65534W        W37959  38.909  11.070  12.025
65535W        W37960  10.891  28.534  12.990
65536W        W37961  40.302  16.757  11.502
65537W        W37962   7.226  40.197  13.569
65538W        W37963  32.389  26.282  11.209
65539W        W37964  41.401  12.593   2.729
65540W        W37965  44.827  13.107   0.795
65541W        W37966  36.324  34.359  11.068
65542W        W37967  25.499  10.669   3.818
65543W        W37968  11.599  32.533  12.029
65544W        W37969   9.766  37.396  11.237
65545W        W37970  20.364  41.737   4.676
65546W        W37971  28.325  44.795  10.734
65547W        W37972  34.662  43.411   4.668
65548W        W37973  18.320  27.828   2.071
65549W        W37974  19.910  31.792   3.352
65550W        W37975  13.279  12.531   2.394
65551W        W37976  32.122  23.711   0.016
65552W        W37977  16.172  24.982  12.832
65553W        W37978  40.072   8.213  11.577
65554W        W37979   9.374  13.572  13.400
65555W        W37980  13.775  19.322   0.497
65556W        W37981  30.491  16.620   0.063
65557W        W37982  28.683  15.842   2.620
65558W        W37983  33.874  40.546  11.154
65559W        W37984   4.278   4.159  13.197
65560W        W37985   2.332  25.069   2.701
65561W        W37986  26.502  16.154   1.224
65562W        W37987  43.723  32.497   0.457
65563W        W37988  27.157  44.988   0.533
65564W        W37989  22.653  10.568  13.256
65565W        W37990   4.176   6.719   3.630
65566W        W37991  36.373  30.865  11.646
65567W        W37992  43.034  22.939   2.785
65568W        W37993  40.575   1.457  13.313
65569W        W37994  42.247  26.945  11.444
65570W        W37995  41.101  19.732   4.605
65571W        W37996  20.092  29.036  13.865
65572W        W37997  38.038  13.883   4.547
65573W        W37998  36.691   0.300   0.089
65574W        W37999  33.672  15.851   2.315
65575W        W38000  14.101  10.509   1.186
65576W        W38001  23.975  32.504  13.479
65577W        W38002   2.715  41.295   1.284
65578W        W38003  29.587   0.002   0.781
65579W        W38004  32.761  32.214   0.007
65580W        W38005  13.121   3.978   1.515
65581W        W38006  34.882  10.675   3.748
65582W        W38007  38.751   0.345  12.119
65583W        W38008  36.428  25.978  10.769
65584W        W38009  15.783  38.602   2.211
65585W        W38010   0.979  29.478   0.357
65586W        W38011  26.463  22.793   3.699
65587W        W38012  36.075  19.770   2.885
65588W        W38013   4.694   1.817  10.737
65589W        W38014  14.179  27.909  13.532
65590W        W38015   9.666  28.695   3.233
65591W        W38016   4.746  25.776   2.132
65592W        W38017  20.304  18.234   4.147
65593W        W38018  20.723  21.256   1.285
65594W        W38019  23.211  14.866  10.769
65595W        W38020  39.626  21.607   1.334
65596W        W38021  27.698  11.752  13.331
65597W        W38022   0.667  30.540  12.174
65598W        W38023  33.702  10.354   1.881
65599W        W38024  41.197   7.695   4.623
65600W        W38025  29.329  10.804  10.782
65601W        W38026  24.229  23.015  13.462
65602W        W38027   5.634   8.711  13.931
65603W        W38028  10.136  44.399  14.394
65604W        W38029   2.913   8.209   3.645
65605W        W38030  23.483  18.512   1.332
65606W        W38031  43.360  11.512  12.824
65607W        W38032  32.865  23.505   0.683
65608W        W38033  41.180  16.682  14.947
65609W        W38034  43.021  42.513   0.238
65610W        W38035  40.391  24.474  13.423
65611W        W38036  14.266  44.799  14.355
65612W        W38037  24.620  30.240   3.089
65613W        W38038   6.326  11.096   3.061
65614W        W38039  19.969  15.919   4.703
65615W        W38040  10.631  43.787   2.314
65616W        W38041  33.933  11.218   2.748
65617W        W38042  41.016  33.816  13.966
65618W        W38043   8.620   9.847  11.723
65619W        W38044   1.759  28.779  14.009
65620W        W38045   0.930  43.431  10.761
65621W        W38046   3.290  33.228  14.438
65622W        W38047   5.524  11.777   4.267
65623W        W38048  10.381  12.074  11.152
65624W        W38049  24.783  27.451   3.282
65625W        W38050  42.242  29.638   0.353
65626W        W38051   8.234  14.376  13.829
65627W        W38052  42.414  22.218   3.298
65628W        W38053   4.064  33.409  10.201
65629W        W38054  22.746  28.907   0.768
65630W        W38055  27.730  42.630   2.177
65631W        W38056  35.662  31.215   3.580
65632W        W38057   8.134  15.612  12.377
65633W        W38058  38.868  29.204   0.368
65634W        W38059   9.224  36.603   3.149
65635W        W38060  28.911  24.664  12.490
65636W        W38061   5.093  33.021   3.893
65637W        W38062  39.841  35.531   0.261
65638W        W38063  17.628  43.984   1.651
65639W        W38064   8.986  35.008  14.600
65640W        W38065   4.483  38.021   0.850
65641W        W38066   7.470  41.861   0.342
65642W        W38067  37.033  41.582   1.932
65643W        W38068  21.063  16.585   1.840
65644W        W38069  14.356   7.399   0.641
65645W        W38070  18.741  25.742   1.392
65646W        W38071  36.475  33.598   0.857
65647W        W38072  16.434  22.972   4.146
65648W        W38073  38.490  19.133   0.384
65649W        W38074  14.266  12.126  12.639
65650W        W38075  40.079   2.917  12.934
65651W        W38076  25.987  35.917  13.947
65652W        W38077  20.688  14.394   3.839
65653W        W38078   5.469  38.926   1.010
65654W        W38079  24.007   7.673   1.511
65655W        W38080  25.242  44.255  13.163
65656W        W38081  43.862  29.058  11.175
65657W        W38082  18.648  18.022   3.598
65658W        W38083   9.849  39.376  11.946
65659W        W38084  37.090   1.738   1.207
65660W        W38085  38.399  22.017  11.105
65661W        W38086  28.520  12.576  13.969
65662W        W38087  12.976  26.509  11.004
65663W        W38088  33.371   7.126   2.190
65664W        W38089  32.996  23.617  14.842
65665W        W38090  39.003  10.921  14.391
65666W        W38091  11.567   8.387   2.206
65667W        W38092  35.262  15.006   1.377
65668W        W38093   8.284  21.246   4.078
65669W        W38094  38.934   3.485   4.134
65670W        W38095  44.541   2.233   4.712
65671W        W38096  21.615  38.461  10.482
65672W        W38097  28.572  32.917   0.685
65673W        W38098  26.648   0.303  10.158
65674W        W38099  37.933   4.730  13.155
65675W        W38100  14.856  10.291   3.974
65676W        W38101  14.243  25.025  14.897
65677W        W38102  23.710  26.654  13.929
65678W        W38103  22.328  15.427  10.854
65679W        W38104  34.533  34.054  14.345
65680W        W38105  22.476  11.726   3.572
65681W        W38106   9.328  17.211   3.255
65682W        W38107  15.091  37.850   4.545
65683W        W38108  37.445   6.797  11.704
65684W        W38109  41.093  22.395   1.775
65685W        W38110  43.700   5.480   3.320
65686W        W38111  42.324   7.256   3.990
65687W        W38112  17.268  18.615   2.718
65688W        W38113  28.383  31.338  12.437
65689W        W38114  39.312  27.530  13.726
65690W        W38115  39.999  44.545   4.650
65691W        W38116  25.998  17.824   3.606
65692W        W38117  28.498  37.065  11.986
65693W        W38118  12.305  30.942   2.224
65694W        W38119   2.302  15.812  11.472
65695W        W38120  18.618  22.702  10.293
65696W        W38121  17.511  23.765   2.827
65697W        W38122   6.456  22.080   3.592
65698W        W38123  43.288  25.615   4.265
65699W        W38124   9.916   8.694  14.686
65700W        W38125  35.646  22.155   3.173
65701W        W38126  15.253  31.990  13.906
65702W        W38127  32.201   4.980  11.125
65703W        W38128   5.663  10.396   3.511
65704W        W38129  38.963  20.706   1.808
65705W        W38130  18.709  27.371  12.531
65706W        W38131   5.870  34.836  14.529
65707W        W38132  38.027  15.002   3.351
65708W        W38133  13.744  12.424   2.583
65709W        W38134  44.802  26.102   4.687
65710W        W38135  27.162  31.743  10.610
65711W        W38136  41.489  10.449   4.272
65712W        W38137   4.551  24.584   1.431
65713W        W38138  29.968   1.226  12.405
65714W        W38139   0.638  40.920   0.001
65715W        W38140  40.963  19.397  12.081
65716W        W38141  42.851   8.865   4.484
65717W        W38142  19.587  36.296   3.656
65718W        W38143  25.145   8.884   2.210
65719W        W38144  19.141  43.889  13.322
65720W        W38145   5.684  44.872  11.407
65721W        W38146  36.133   3.348  13.961
65722W        W38147  28.021  36.991  13.908
65723W        W38148  35.034  11.364   3.138
65724W        W38149  10.908  19.250   3.773
65725W        W38150  33.635  32.032   0.754
65726W        W38151  34.103  27.772   0.248
65727W        W38152  43.762  26.891  10.176
65728W        W38153  38.312  31.836  11.604
65729W        W38154  11.277   3.927   4.169
65730W        W38155  44.466  13.568   3.249
65731W        W38156  44.294  10.038  14.083
65732W        W38157  15.645  11.368   2.325
65733W        W38158  30.301  18.961  12.069
65734W        W38159   6.258  23.622  11.929
65735W        W38160  19.115  32.991   0.516
65736W        W38161  43.394  35.321   0.274
65737W        W38162  15.765  13.855   2.628
65738W        W38163  23.443   5.693   2.285
65739W        W38164   3.716  25.099   3.735
65740W        W38165  21.690  43.284   2.363
65741W        W38166  42.996  12.809   2.328
65742W        W38167  28.549  43.485  13.929
65743W        W38168  27.042  14.668  12.533
65744W        W38169  35.660  31.139  10.940
65745W        W38170   7.845  30.416   2.327
65746W        W38171  25.992  23.763  10.990
65747W        W38172  37.188  20.188  11.156
65748W        W38173  22.842  18.571   2.460
65749W        W38174  36.815  34.554  14.033
65750W        W38175   0.866  36.517  10.515
65751W        W38176  16.641  26.523  14.889
65752W        W38177  27.624  34.580  14.983
65753W        W38178   9.143   6.252   1.155
65754W        W38179  31.404  44.794  11.466
65755W        W38180  25.105  37.021   0.765
65756W        W38181  25.172  15.455  14.509
65757W        W38182  38.533  11.903   0.120
65758W        W38183  37.469  11.340   1.483
65759W        W38184  42.780  19.067  14.706
65760W        W38185   9.167  30.082  14.447
65761W        W38186  43.365  17.713   0.980
65762W        W38187  13.857  40.511   3.698
65763W        W38188  14.862  20.300  14.038
65764W        W38189  40.647  25.496   0.206
65765W        W38190  22.117  25.467  10.600
65766W        W38191  22.210  13.838   3.625
65767W        W38192  10.855  15.494   4.185
65768W        W38193  21.200  41.339   2.361
65769W        W38194   5.458  37.420   3.830
65770W        W38195  22.479   0.377  10.760
65771W        W38196   5.899  20.385   1.303
65772W        W38197  34.210   1.170   3.347
65773W        W38198  25.017  43.447  10.733
65774W        W38199   6.337  41.239   0.735
65775W        W38200   6.374  39.788   2.612
65776W        W38201   3.370   7.314   3.631
65777W        W38202  40.017   3.863  10.750
65778W        W38203  37.484  33.176  14.355
65779W        W38204   9.084  30.136   2.771
65780W        W38205   2.840  19.996   2.659
65781W        W38206   4.673  41.954   1.870
65782W        W38207  23.045  11.207  13.927
65783W        W38208  12.108   9.297  11.562
65784W        W38209  44.763  44.795  14.503
65785W        W38210   6.053  15.025   3.651
65786W        W38211  16.967  19.170   3.693
65787W        W38212  19.284  18.377   2.208
65788W        W38213  10.974  25.630  11.928
65789W        W38214   8.242  28.019  11.254
65790W        W38215  28.043   4.132   0.738
65791W        W38216  39.057  31.651  14.306
65792W        W38217   3.963   1.865  11.223
65793W        W38218  26.698   8.173   0.814
65794W        W38219  27.731  17.691  12.115
65795W        W38220  29.219  10.224   4.591
65796W        W38221  36.831  21.738   4.857
65797W        W38222   6.698  38.530  13.991
65798W        W38223  12.389  44.444   4.548
65799W        W38224   6.318  43.890   1.060
65800W        W38225  44.452  20.048   2.335
65801W        W38226  10.757  25.863  12.718
65802W        W38227  26.472   3.917  13.470
65803W        W38228  11.853   8.718  13.479
65804W        W38229   1.288  27.664   1.457
65805W        W38230  23.715  34.585  13.747
65806W        W38231  16.799  30.539   2.709
65807W        W38232  25.015  17.664  14.025
65808W        W38233  40.772  16.563  12.879
65809W        W38234   0.504  11.818   4.586
65810W        W38235  27.112   6.218   0.315
65811W        W38236   0.309  29.686   2.154
65812W        W38237   9.604  16.597  14.013
65813W        W38238   1.706  24.436  13.816
65814W        W38239  40.648  40.069  12.710
65815W        W38240  22.252  34.088   3.733
65816W        W38241  41.582  11.666   2.944
65817W        W38242  11.078  12.322   0.696
65818W        W38243  41.338  10.176  14.847
65819W        W38244   9.377  32.400  10.954
65820W        W38245  10.775  18.732   2.266
65821W        W38246  17.676  21.109  12.751
65822W        W38247  15.161  23.707  11.558
65823W        W38248   1.077  44.943   2.387
65824W        W38249  43.661  32.901   1.008
65825W        W38250   4.991  30.381  10.273
65826W        W38251  20.296  25.453  12.017
65827W        W38252  38.071   9.164   2.323
65828W        W38253   8.185  17.812   2.265
65829W        W38254  31.907  42.581  11.959
65830W        W38255   6.198   8.333   4.196
65831W        W38256  23.001  11.743  10.619
65832W        W38257  42.038  33.044   1.717
65833W        W38258  41.592  18.380   2.871
65834W        W38259   9.219   5.388   2.614
65835W        W38260  13.381  26.550   2.118
65836W        W38261  31.961  41.881  12.452
65837W        W38262  21.259  30.391  14.762
65838W        W38263  26.251  13.632   3.636
65839W        W38264  30.196  15.062  10.735
65840W        W38265   9.219  12.150  13.460
65841W        W38266  36.196  36.955  11.675
65842W        W38267  21.013  29.192   1.498
65843W        W38268  41.039  40.942   4.221
65844W        W38269  25.160  32.209  12.546
65845W        W38270   3.147  13.865   0.225
65846W        W38271  23.459   8.548  10.716
65847W        W38272  44.174   1.378  14.441
65848W        W38273   0.724  19.998   3.149
65849W        W38274  36.829  17.195  13.328
65850W        W38275  19.145  29.181  14.284
65851W        W38276  36.781  27.803  13.039
65852W        W38277  14.388   0.683   1.574
65853W        W38278   3.977  36.105   0.012
65854W        W38279   6.406  44.449   1.773
65855W        W38280  18.599   8.420   0.959
65856W        W38281  15.263  44.584   3.265
65857W        W38282  35.568  38.826   4.103
65858W        W38283  23.537  18.129  13.825
65859W        W38284  29.977  23.062  11.999
65860W        W38285  30.137  13.112  14.051
65861W        W38286  38.950  18.175  12.961
65862W        W38287  39.121  30.428   2.486
65863W        W38288  37.207   0.851  13.376
65864W        W38289   8.930  44.221  14.208
65865W        W38290   0.522   8.351  14.312
65866W        W38291  18.820  34.931  10.151
65867W        W38292  11.259  31.707  11.591
65868W        W38293   2.323  34.224  12.546
65869W        W38294   8.167  25.954   1.350
65870W        W38295  38.568  11.943  14.601
65871W        W38296   8.875  43.220  12.608
65872W        W38297  20.283   9.618   1.921
65873W        W38298  30.115  22.756   3.065
65874W        W38299  35.531   9.845   2.356
65875W        W38300   3.750  41.545   1.372
65876W        W38301  21.198   2.876   0.496
65877W        W38302  15.710  44.855   4.942
65878W        W38303  27.151  16.891  11.382
65879W        W38304  36.139  37.387  13.982
65880W        W38305  20.518  18.861   4.812
65881W        W38306  31.131  34.036  12.202
65882W        W38307  41.049  30.687   2.117
65883W        W38308   8.679  18.732  14.868
65884W        W38309  10.573  21.277   0.314
65885W        W38310  15.698   2.691   0.918
65886W        W38311  32.630  36.994  11.730
65887W        W38312   9.372  39.959   4.565
65888W        W38313  24.612  35.281   3.624
65889W        W38314  12.404   4.029  13.226
65890W        W38315  20.767  30.040  12.526
65891W        W38316  22.039  15.324  12.711
65892W        W38317  10.327  39.602  11.161
65893W        W38318  38.216  42.481   4.798
65894W        W38319  42.537  34.088   0.688
65895W        W38320   3.487   2.750   4.770
65896W        W38321   8.388  29.579  11.129
65897W        W38322  20.268  42.109  10.643
65898W        W38323  41.504  13.708  13.807
65899W        W38324  22.663  39.531   1.223
65900W        W38325  35.845  35.393  14.333
65901W        W38326  27.972  36.413   3.939
65902W        W38327  43.964  15.319  11.057
65903W        W38328  14.338  16.268   0.473
65904W        W38329  12.792  15.263  11.234
65905W        W38330   8.670  26.432  13.902
65906W        W38331  27.097  28.396  14.254
65907W        W38332  20.172  29.945   3.792
65908W        W38333  34.145   8.119  14.884
65909W        W38334  18.752  21.284  14.850
65910W        W38335   4.072  40.830   0.005
65911W        W38336   4.023   9.988  14.549
65912W        W38337  25.403  32.531  13.594
65913W        W38338  10.678   4.797  12.979
65914W        W38339  23.228  27.295   2.206
65915W        W38340  29.536  43.362   4.759
65916W        W38341  28.580   3.493  14.203
65917W        W38342   6.701  29.272  14.598
65918W        W38343  20.064  21.479  11.176
65919W        W38344  43.754   4.487   2.724
65920W        W38345  21.671  27.197   0.523
65921W        W38346  14.899  20.237   0.360
65922W        W38347   1.756   5.683  13.946
65923W        W38348   7.612  36.165  10.594
65924W        W38349  18.781  35.895  14.292
65925W        W38350  44.855  17.926   4.072
65926W        W38351  40.910  43.261   3.194
65927W        W38352  40.352  38.569  14.407
65928W        W38353  37.936  42.514   0.267
65929W        W38354  24.345  31.672  11.752
65930W        W38355  21.433  18.276  12.536
65931W        W38356  16.362  43.157  14.953
65932W        W38357  15.884  34.128  13.042
65933W        W38358  18.177  44.348   4.571
65934W        W38359   7.109   7.894   3.736
65935W        W38360  23.510  32.500   2.334
65936W        W38361  13.854  37.946  11.964
65937W        W38362  43.496   9.949  11.107
65938W        W38363  12.571  19.961   4.091
65939W        W38364  37.537  23.313   4.200
65940W        W38365  15.729   6.848  10.570
65941W        W38366  26.445  30.198   4.580
65942W        W38367   0.750  37.838   0.998
65943W        W38368   4.407  43.354   1.907
65944W        W38369  43.975  41.256   0.070
65945W        W38370  43.390  22.550  10.502
65946W        W38371  22.437   6.241  11.435
65947W        W38372  19.113  37.438   3.993
65948W        W38373  10.043  28.995  13.057
65949W        W38374  34.356   2.750  11.178
65950W        W38375  33.144  19.565   3.541
65951W        W38376  11.651  24.237  13.632
65952W        W38377  30.873  21.229  14.300
65953W        W38378   7.371  11.318  14.386
65954W        W38379  25.597  25.173   1.968
65955W        W38380  38.459  35.105   4.124
65956W        W38381   3.809  29.101   1.317
65957W        W38382  24.534   0.854  11.233
65958W        W38383   1.866  14.974   2.501
65959W        W38384   4.961  31.457  13.229
65960W        W38385   2.290  28.441   2.863
65961W        W38386  27.716  38.184  11.672
65962W        W38387  18.928  27.597   1.459
65963W        W38388  29.689  29.492   1.463
65964W        W38389  13.127  41.212   2.668
65965W        W38390  22.276  38.316   3.702
65966W        W38391  30.483  22.826   5.092
65967W        W38392  35.814  26.685   3.515
65968W        W38393  37.285  15.686  11.104
65969W        W38394   1.001  44.016  14.434
65970W        W38395  31.022   4.920   4.328
65971W        W38396   7.672  19.617   2.688
65972W        W38397   9.811  14.669  14.061
65973W        W38398  36.490  18.708   2.869
65974W        W38399  23.469  23.160   2.897
65975W        W38400  34.147  15.651   2.327
65976W        W38401   5.985  33.496   1.694
65977W        W38402   2.762   0.816   0.981
65978W        W38403  18.783  40.315   1.656
65979W        W38404   6.729   2.741  11.188
65980W        W38405  21.190  34.043  12.913
65981W        W38406  27.340  31.674   1.291
65982W        W38407  11.031   9.787   2.446
65983W        W38408  20.597  43.854   2.888
65984W        W38409  33.442  14.280   2.273
65985W        W38410  13.243  22.443  12.375
65986W        W38411  31.692   6.379   2.254
65987W        W38412  23.908  29.669   0.829
65988W        W38413  13.672  11.098   0.153
65989W        W38414  21.367   8.682  11.235
65990W        W38415  17.701  34.532   9.733
65991W        W38416  13.042  39.418   2.326
65992W        W38417  36.118  38.943   2.787
65993W        W38418  16.091  41.925  11.992
65994W        W38419  27.332  10.244   2.484
65995W        W38420  29.105  24.204   3.306
65996W        W38421  18.426  41.843  13.898
65997W        W38422  19.999  42.745   3.729
65998W        W38423  29.921   6.667  11.570
65999W        W38424  40.005   8.616  10.802
66000W        W38425   1.701  41.645  12.554
66001W        W38426  10.383  22.061   2.672
66002W        W38427   3.298  44.110  13.365
66003W        W38428   9.761  41.941   1.007
66004W        W38429  20.202  22.638   4.981
66005W        W38430  12.626  12.765  14.343
66006W        W38431  27.972  15.213  12.508
66007W        W38432  17.550  33.465  10.729
66008W        W38433   4.233   4.811  11.860
66009W        W38434  12.911  25.138   4.005
66010W        W38435  11.571  27.445  12.369
66011W        W38436  38.048  21.513   3.043
66012W        W38437  17.727   6.635  11.446
66013W        W38438  39.118  43.983  11.296
66014W        W38439  41.421  14.283  12.533
66015W        W38440  27.879  28.660  11.192
66016W        W38441  16.081   6.462  13.877
66017W        W38442  32.065  24.776   1.808
66018W        W38443  23.826  20.623  12.446
66019W        W38444  10.307  37.621  11.931
66020W        W38445  21.152   2.094  13.951
66021W        W38446  39.018  27.051  14.078
66022W        W38447   6.331  29.998  14.892
66023W        W38448  32.086   0.719   4.524
66024W        W38449  39.731   0.380  10.662
66025W        W38450  12.039   2.509   1.028
66026W        W38451   2.000  16.850  13.321
66027W        W38452  24.823  34.489  13.866
66028W        W38453   0.881  44.379   3.571
66029W        W38454  38.071   2.766  12.082
66030W        W38455  11.701   0.622   1.917
66031W        W38456  27.734  36.694   0.180
66032W        W38457  38.127  32.322  11.514
66033W        W38458  21.540  30.570  13.495
66034W        W38459  40.246  13.652   3.210
66035W        W38460  31.684   6.207   0.802
66036W        W38461  30.137  21.225   0.904
66037W        W38462   2.803   6.161   4.909
66038W        W38463   9.701   2.355   3.371
66039W        W38464   0.640  11.681  13.432
66040W        W38465  16.532   5.231   3.312
66041W        W38466  39.624  17.766   1.809
66042W        W38467  38.183  23.197   0.788
66043W        W38468   9.571  13.617   1.856
66044W        W38469  23.214  41.242  12.498
66045W        W38470  22.489   6.237   2.182
66046W        W38471  16.695  36.803   4.644
66047W        W38472  31.002  35.097   0.890
66048W        W38473  40.268  43.601  10.877
66049W        W38474  30.366  43.426   2.651
66050W        W38475  21.146  17.688  12.899
66051W        W38476  38.430  11.247   1.946
66052W        W38477   4.863   8.547   0.801
66053W        W38478  44.182  32.919   0.960
66054W        W38479  41.031  26.423   4.208
66055W        W38480  39.812   6.204  13.367
66056W        W38481  13.877  24.507   0.909
66057W        W38482  27.983  10.586   1.924
66058W        W38483  25.781  17.584  12.194
66059W        W38484  25.324   7.909  10.809
66060W        W38485  26.457  40.989   4.751
66061W        W38486  35.192  11.845   4.966
66062W        W38487  25.666  20.085  10.542
66063W        W38488   6.485   8.353   2.580
66064W        W38489   5.315   3.569   0.924
66065W        W38490  17.159   6.229  13.364
66066W        W38491  33.587   5.737   3.912
66067W        W38492  36.623  16.078  13.041
66068W        W38493   5.755  12.980  14.827
66069W        W38494  30.562  44.672   3.142
66070W        W38495  24.520  20.596   1.189
66071W        W38496  38.466  30.034   0.451
66072W        W38497  31.530  22.693  11.817
66073W        W38498  16.308  40.509   1.941
66074W        W38499  42.135  19.032  14.558
66075W        W38500  25.929  27.964  11.911
66076W        W38501  12.336  12.402   1.181
66077W        W38502  24.688   4.726   2.247
66078W        W38503   8.177  37.201   2.583
66079W        W38504  40.975  18.739  10.611
66080W        W38505  15.276  30.586  13.415
66081W        W38506  42.501  41.259  14.961
66082W        W38507  36.589  12.223   0.876
66083W        W38508  36.045   6.789   4.072
66084W        W38509  25.094   6.946   2.284
66085W        W38510  36.791   9.736   3.743
66086W        W38511  18.515  23.621  10.973
66087W        W38512  29.745  31.401  12.465
66088W        W38513  44.362  44.270  14.838
66089W        W38514   9.695  16.849   1.906
66090W        W38515  26.823   1.775   2.245
66091W        W38516   3.638  25.199  10.697
66092W        W38517  30.621  17.175   2.748
66093W        W38518  31.549  40.733  11.681
66094W        W38519   3.538  32.110   3.079
66095W        W38520  22.278  13.860   2.886
66096W        W38521  23.545  42.872   0.469
66097W        W38522   9.846  18.098   0.221
66098W        W38523  31.189  44.339  10.253
66099W        W38524  40.709  38.902  14.870
66100W        W38525  19.164  43.313   2.749
66101W        W38526   3.301  39.821  11.607
66102W        W38527  31.866   1.229   1.742
66103W        W38528   7.730  13.793  12.077
66104W        W38529  31.654   1.922  13.843
66105W        W38530  37.889   9.458  13.798
66106W        W38531  29.179  39.384   4.084
66107W        W38532  40.603  36.526  11.576
66108W        W38533  43.800  14.284  11.170
66109W        W38534  23.456   7.182  13.729
66110W        W38535  41.524  30.466   3.488
66111W        W38536   5.263  35.105  13.835
66112W        W38537  20.398  33.115  11.530
66113W        W38538  13.715   0.406  14.091
66114W        W38539   6.217  42.780  12.919
66115W        W38540  26.015  43.120  12.913
66116W        W38541   4.912  26.156   0.887
66117W        W38542  14.055  30.957   0.740
66118W        W38543  26.140  23.638  13.464
66119W        W38544  14.657  37.906   0.961
66120W        W38545  29.005  40.022   2.924
66121W        W38546  12.134   4.742   2.761
66122W        W38547  27.404   4.397  13.354
66123W        W38548  41.563  38.119   4.285
66124W        W38549   4.433  29.419   2.554
66125W        W38550  29.568   0.613   5.203
66126W        W38551  28.443  36.571  11.069
66127W        W38552  30.653  23.102   4.677
66128W        W38553  42.928  18.241   1.758
66129W        W38554  14.108  13.817  14.699
66130W        W38555  11.722  17.064   1.188
66131W        W38556   7.772  44.295   4.938
66132W        W38557  10.543  33.492   0.852
66133W        W38558  16.798  10.513   0.541
66134W        W38559  26.202   3.562   4.181
66135W        W38560  42.331  18.696  10.576
66136W        W38561   5.340  10.817  11.409
66137W        W38562  40.637  26.594   3.397
66138W        W38563  43.912  28.553   1.417
66139W        W38564  42.908  10.649   2.593
66140W        W38565   2.034  19.433   1.808
66141W        W38566  12.513  10.617   1.305
66142W        W38567  44.811  11.060  12.842
66143W        W38568  21.068   1.306  13.501
66144W        W38569  11.170  41.302   0.955
66145W        W38570  35.768  13.223  14.467
66146W        W38571  37.843  25.313  10.633
66147W        W38572   5.916  38.988  13.039
66148W        W38573  14.677  33.427   0.445
66149W        W38574  36.790  14.329  14.460
66150W        W38575   7.789   0.284  10.546
66151W        W38576  44.727   0.470   0.895
66152W        W38577   9.913  36.126   2.272
66153W        W38578  22.731  25.132   0.837
66154W        W38579  18.105  43.035   1.856
66155W        W38580  12.288   3.419  14.964
66156W        W38581  23.508  27.273   4.541
66157W        W38582   4.461  26.202  12.326
66158W        W38583  19.285  40.077  13.934
66159W        W38584  40.334  22.024  12.392
66160W        W38585   4.946   9.155  14.946
66161W        W38586  36.664  21.584   0.033
66162W        W38587   3.452  17.326   1.210
66163W        W38588  44.339  11.248  14.935
66164W        W38589  40.514   4.191   2.808
66165W        W38590  40.719  29.036   1.130
66166W        W38591  17.131   8.393   1.507
66167W        W38592  28.500  34.903   1.184
66168W        W38593  35.106  34.862   0.336
66169W        W38594  35.500   3.002  12.309
66170W        W38595  44.825  36.365   2.627
66171W        W38596  25.229  18.393  12.022
66172W        W38597   3.231  28.678  13.503
66173W        W38598  44.406  19.520   1.425
66174W        W38599  38.593  30.938  14.326
66175W        W38600  29.503  27.809  13.754
66176W        W38601  25.526   8.184  12.966
66177W        W38602  43.251  36.670  14.933
66178W        W38603  37.364   5.773   1.862
66179W        W38604   7.825  26.919  10.764
66180W        W38605  16.239  12.550  11.123
66181W        W38606  29.214  18.084   1.411
66182W        W38607  26.505  19.203   1.218
66183W        W38608  26.659  12.811   0.280
66184W        W38609   2.012  20.353   4.043
66185W        W38610  21.984  34.868  14.924
66186W        W38611  14.799  33.319  12.313
66187W        W38612  18.332   5.339  11.910
66188W        W38613  29.970  43.475  11.760
66189W        W38614  14.765  12.747  14.425
66190W        W38615  36.289  25.631   0.851
66191W        W38616  43.690  19.168   0.264
66192W        W38617  44.899  38.284  12.165
66193W        W38618  32.951  14.250   3.135
66194W        W38619  38.366  36.901   3.654
66195W        W38620  41.359  43.294   2.741
66196W        W38621  38.306  26.677   0.063
66197W        W38622  43.756  13.364   3.608
66198W        W38623  13.329  26.123   3.173
66199W        W38624  39.823   7.683   3.236
66200W        W38625  31.830  20.736   2.287
66201W        W38626  12.796   1.361   3.386
66202W        W38627   2.952   9.072  14.758
66203W        W38628  25.941  38.040  12.560
66204W        W38629  37.951   5.920  12.428
66205W        W38630  31.871  23.561   0.448
66206W        W38631  22.654  14.353  14.712
66207W        W38632  38.321   8.914   2.712
66208W        W38633  43.894  18.292   3.328
66209W        W38634  31.074  39.203   1.830
66210W        W38635  16.271   4.768   3.114
66211W        W38636  16.124  25.392   5.007
66212W        W38637  15.796   2.279   4.367
66213W        W38638  26.658   0.930  14.223
66214W        W38639  20.484  12.860   0.311
66215W        W38640  21.755  11.903   0.403
66216W        W38641   8.314  10.731   1.833
66217W        W38642  17.882   2.423   4.242
66218W        W38643  31.860  18.375  11.656
66219W        W38644  16.880  14.725   4.627
66220W        W38645  17.244  35.430  14.939
66221W        W38646  39.809  10.189  14.795
66222W        W38647  15.053  10.435  14.935
66223W        W38648  16.680  32.972   2.801
66224W        W38649  42.155   6.878   1.828
66225W        W38650  17.696  21.211   0.734
66226W        W38651  11.170   3.175   1.237
66227W        W38652   6.404  15.662   0.711
66228W        W38653  22.849  25.433   1.910
66229W        W38654  36.471   0.916   4.663
66230W        W38655  25.529  15.074  14.866
66231W        W38656  17.127  10.862  14.927
66232W        W38657  30.374  25.879   0.893
66233W        W38658  42.080  34.079  11.450
66234W        W38659  16.313  35.138   3.232
66235W        W38660   3.865  19.338  12.199
66236W        W38661  20.126  19.670   0.792
66237W        W38662  11.104  24.314   5.322
66238W        W38663  20.335  26.035   4.101
66239W        W38664  41.011  24.497   0.980
66240W        W38665   8.456  10.927  14.048
66241W        W38666  16.789   4.343  12.402
66242W        W38667  16.519  42.249  14.056
66243W        W38668   1.988  17.765  13.170
66244W        W38669  31.488  18.021   3.343
66245W        W38670  24.637  14.248  10.780
66246W        W38671  25.975  16.185  12.820
66247W        W38672  30.977  26.361   1.518
66248W        W38673  41.195  27.480   3.275
66249W        W38674  25.195  36.470   0.285
66250W        W38675  26.238  22.073   3.741
66251W        W38676   4.741  42.937  13.563
66252W        W38677   2.724  30.006   4.076
66253W        W38678  33.311  39.178   3.200
66254W        W38679  33.278   3.577   0.372
66255W        W38680  43.998  26.447  11.002
66256W        W38681  15.344  41.818   3.598
66257W        W38682  39.129   2.468   1.386
66258W        W38683   0.577  13.262   4.141
66259W        W38684   5.099  22.064   2.409
66260W        W38685  28.775  44.988  14.506
66261W        W38686  12.115  38.321   1.732
66262W        W38687  39.777   5.305  12.801
66263W        W38688   6.704  32.429  10.595
66264W        W38689  14.734   3.945   1.275
66265W        W38690  35.684   9.342   2.389
66266W        W38691   2.430  41.858  14.010
66267W        W38692   7.252  43.891   0.725
66268W        W38693  40.891  17.742  12.925
66269W        W38694  35.792  35.544  13.828
66270W        W38695  13.180  17.683   4.668
66271W        W38696  20.739  44.625  13.756
66272W        W38697  21.755  15.478   1.435
66273W        W38698  29.925  20.765  12.108
66274W        W38699  43.010  21.382   0.470
66275W        W38700  22.522  28.094  14.698
66276W        W38701  35.403   4.319   1.748
66277W        W38702  16.687   9.800   2.484
66278W        W38703  16.498  28.051   0.341
66279W        W38704   6.636   5.334  11.889
66280W        W38705  44.925  12.767   0.374
66281W        W38706   6.780  36.328  12.472
66282W        W38707   9.611  28.551  14.796
66283W        W38708  17.843  12.073  14.948
66284W        W38709  16.871   9.775   3.391
66285W        W38710  25.564  34.856   2.187
66286W        W38711  27.040   9.069   3.339
66287W        W38712  24.779  12.745   1.950
66288W        W38713  18.101   8.147  10.647
66289W        W38714  22.140  21.178  14.487
66290W        W38715  25.698  40.258   0.420
66291W        W38716  19.629  11.970   3.717
66292W        W38717  21.971   3.489  13.837
66293W        W38718  28.587  27.289   1.480
66294W        W38719  34.163  39.800  11.569
66295W        W38720  37.075  15.820  13.622
66296W        W38721  39.273  33.846  10.617
66297W        W38722  32.223  18.983   2.697
66298W        W38723   3.212  31.681   4.190
66299W        W38724   8.712   5.398   1.932
66300W        W38725  18.103  36.021   4.061
66301W        W38726   4.940  44.352  13.422
66302W        W38727  14.668  39.765   1.850
66303W        W38728   2.239  10.919  12.425
66304W        W38729  38.364  29.528  14.727
66305W        W38730  21.211  28.076   2.049
66306W        W38731  34.102  22.205   5.030
66307W        W38732  36.578  43.951  14.779
66308W        W38733  35.241  19.365  13.488
66309W        W38734  13.332  17.690   2.235
66310W        W38735  35.437  26.079   1.403
66311W        W38736   8.318  36.417   3.364
66312W        W38737  11.399  12.890   1.907
66313W        W38738   5.181  31.674   1.165
66314W        W38739  17.690  19.806  13.915
66315W        W38740  10.030   8.338   1.312
66316W        W38741  37.043  12.887  14.785
66317W        W38742  21.174  30.412   4.652
66318W        W38743  44.379  32.007   9.822
66319W        W38744  42.026  40.830   2.658
66320W        W38745  26.831  37.461   5.051
66321W        W38746  28.970   2.632   0.831
66322W        W38747  33.095  31.825   4.673
66323W        W38748  13.223  12.054  12.435
66324W        W38749   3.441  21.608   2.772
66325W        W38750  34.884   3.759  10.718
66326W        W38751  34.017  12.415  10.897
66327W        W38752  12.408  13.688   3.503
66328W        W38753  44.818  12.592  10.604
66329W        W38754  29.438  44.138  13.980
66330W        W38755   1.453  22.973   2.227
66331W        W38756  16.026  33.029  13.044
66332W        W38757   4.521  13.717   1.836
66333W        W38758  33.568   9.980  11.008
66334W        W38759  25.964  43.117  11.606
66335W        W38760   6.313  26.245  14.830
66336W        W38761   9.893  35.574   3.580
66337W        W38762   1.432  22.763  13.291
66338W        W38763  13.208  25.140   3.591
66339W        W38764   4.696  42.452   0.692
66340W        W38765  29.642  30.420  14.412
66341W        W38766  18.675  16.660  11.193
66342W        W38767   8.890  13.052  14.305
66343W        W38768   5.524  16.750  10.892
66344W        W38769  16.183   3.700  12.109
66345W        W38770  38.351  13.404   2.718
66346W        W38771  19.315  21.773   4.056
66347W        W38772   4.167   4.366  14.194
66348W        W38773  26.208  38.477   0.416
66349W        W38774  37.006  27.978  11.722
66350W        W38775  23.455  29.133  11.631
66351W        W38776  31.376  11.621   0.853
66352W        W38777  12.682  37.760   2.741
66353W        W38778  11.844  12.571   3.377
66354W        W38779  33.896  43.477  11.002
66355W        W38780  41.758  26.662   3.298
66356W        W38781   5.592  27.035  12.220
66357W        W38782  33.386   9.372  11.468
66358W        W38783  18.287   0.218   2.911
66359W        W38784  27.185   5.932  14.732
66360W        W38785  19.701  14.325   1.906
66361W        W38786  44.371  15.259   2.735
66362W        W38787  38.361  26.144   1.453
66363W        W38788  29.418  19.189   0.776
66364W        W38789   8.604  11.171   2.930
66365W        W38790   2.974  34.928   1.756
66366W        W38791  17.246  10.864   0.478
66367W        W38792  32.381  28.209  11.757
66368W        W38793   5.749   3.467  11.216
66369W        W38794  31.704  42.749   3.690
66370W        W38795  23.714  23.543   4.128
66371W        W38796  32.403  37.614  13.435
66372W        W38797   0.037  42.797  14.295
66373W        W38798  21.719  27.722   2.339
66374W        W38799  16.261  20.392  10.858
66375W        W38800  35.315  24.431  14.838
66376W        W38801  22.571  22.789   1.027
66377W        W38802   7.337  37.385   2.182
66378W        W38803  19.680  15.090   0.864
66379W        W38804  10.313   3.732  14.466
66380W        W38805  11.148  41.084  14.589
66381W        W38806   6.874  34.104  11.103
66382W        W38807   1.571  33.611   5.164
66383W        W38808  21.414  26.305  10.008
66384W        W38809   7.741  33.461  13.408
66385W        W38810  27.168  42.774  13.338
66386W        W38811  39.857   9.398   2.744
66387W        W38812  24.748  12.553  10.730
66388W        W38813  10.124  22.475   3.459
66389W        W38814  25.704  14.185  13.531
66390W        W38815  29.398  35.420  11.599
66391W        W38816  43.877  15.326   0.234
66392W        W38817  13.213  22.348  10.625
66393W        W38818  36.610  43.353  14.355
66394W        W38819  17.280  22.159  11.989
66395W        W38820   6.111  12.883   3.053
66396W        W38821   5.382   7.357  13.761
66397W        W38822   8.741  21.525  11.523
66398W        W38823   3.371  39.095   0.911
66399W        W38824  20.114   2.206  10.747
66400W        W38825  15.221  39.759  11.534
66401W        W38826  31.352  25.589   2.919
66402W        W38827  24.054  30.883   0.454
66403W        W38828  38.397  19.264   4.392
66404W        W38829  24.654   5.907   1.324
66405W        W38830  35.112  26.070   2.373
66406W        W38831  27.285  10.689   2.727
66407W        W38832  16.090  21.111   1.346
66408W        W38833  41.468  19.059   0.354
66409W        W38834   6.907   9.117   0.487
66410W        W38835  29.591  37.015  13.844
66411W        W38836   8.819  40.508   1.849
66412W        W38837  13.607   5.104   0.258
66413W        W38838   0.913  41.085  13.961
66414W        W38839  18.838  27.638  13.492
66415W        W38840   2.519  27.393  14.408
66416W        W38841  32.404   7.231  12.476
66417W        W38842  31.426   0.792  12.970
66418W        W38843  18.541  13.556  10.798
66419W        W38844  40.741  29.558  13.429
66420W        W38845  13.411  20.696  10.601
66421W        W38846  40.306  33.346   4.457
66422W        W38847  22.137   7.335   1.753
66423W        W38848  33.488  12.313  14.492
66424W        W38849  40.483  20.959   5.309
66425W        W38850   0.515  15.783   2.412
66426W        W38851   0.463  27.970  13.458
66427W        W38852  39.078  23.612   3.319
66428W        W38853   5.950  34.139   0.886
66429W        W38854  18.867  22.411  13.883
66430W        W38855   2.764  35.968  11.514
66431W        W38856  17.853  39.046  14.122
66432W        W38857  31.556  36.935  14.010
66433W        W38858   3.185  20.588  14.344
66434W        W38859  15.285  27.542   4.753
66435W        W38860  20.834  20.125  14.960
66436W        W38861  20.114   5.634  11.851
66437W        W38862  26.584  37.251   1.448
66438W        W38863  26.958  27.435  14.282
66439W        W38864  36.794  41.380   0.215
66440W        W38865  21.755  15.695  13.002
66441W        W38866  31.798  17.272  10.383
66442W        W38867  30.906  40.323  13.128
66443W        W38868  40.189   8.694   4.475
66444W        W38869  33.586  36.837   1.246
66445W        W38870  20.386   1.926  14.422
66446W        W38871  23.742   1.263  11.478
66447W        W38872  33.691   1.898  14.223
66448W        W38873  41.606  18.855   3.055
66449W        W38874  42.118   6.447  10.812
66450W        W38875  23.564  31.768   3.194
66451W        W38876   6.758  28.185   2.365
66452W        W38877  26.014  19.376   1.031
66453W        W38878  19.252  24.541   0.900
66454W        W38879   1.827   2.704  14.842
66455W        W38880  38.367  28.199  11.547
66456W        W38881  23.952  38.316   4.341
66457W        W38882   7.518  28.533   0.271
66458W        W38883  10.801   5.088  13.416
66459W        W38884  34.088  38.822   4.051
66460W        W38885  16.575  25.121   1.933
66461W        W38886  20.844  43.299   4.095
66462W        W38887   3.326  37.615  12.070
66463W        W38888   8.921   4.441   1.739
66464W        W38889  19.128   0.915   4.279
66465W        W38890  29.049  19.002  14.555
66466W        W38891  10.824  40.971   4.296
66467W        W38892  38.853   1.977  12.413
66468W        W38893  35.400  44.778   4.059
66469W        W38894  11.577  29.066  10.544
66470W        W38895   6.180  18.680   3.288
66471W        W38896   6.308  39.831  12.042
66472W        W38897  15.268   7.949  11.956
66473W        W38898  42.613   3.850  10.795
66474W        W38899  26.552  18.503  12.576
66475W        W38900  19.631  10.908   3.599
66476W        W38901   4.747  34.157  10.818
66477W        W38902  19.049  34.584   4.157
66478W        W38903  42.391  30.651   2.453
66479W        W38904  32.040  27.192   0.614
66480W        W38905  38.946  44.239  10.472
66481W        W38906  26.279  37.821   2.700
66482W        W38907  24.706  26.576  12.049
66483W        W38908  37.036   7.681  10.201
66484W        W38909  40.372  35.914  11.281
66485W        W38910  12.820   5.237   0.747
66486W        W38911  25.794  39.275   2.687
66487W        W38912  23.107  39.057  11.156
66488W        W38913   2.377   3.912   1.900
66489W        W38914  37.124  38.987   1.935
66490W        W38915  40.291  24.569   4.826
66491W        W38916   7.204  35.600   4.176
66492W        W38917   5.351  22.686  12.175
66493W        W38918  29.641  34.988   5.007
66494W        W38919  17.706  33.985   2.836
66495W        W38920  13.530  21.146   2.623
66496W        W38921  18.217  13.627  12.948
66497W        W38922  26.837  38.856   3.549
66498W        W38923  34.660  39.594  14.403
66499W        W38924  27.083   1.818  12.479
66500W        W38925  12.811  11.727   3.247
66501W        W38926  15.591  38.125   2.301
66502W        W38927  44.466  44.931  13.867
66503W        W38928   6.674  13.399   3.712
66504W        W38929  42.249  16.539  12.083
66505W        W38930   9.336  43.899   4.097
66506W        W38931  33.544  41.461   5.038
66507W        W38932  17.212  44.784   3.273
66508W        W38933  44.858  33.540  10.072
66509W        W38934  15.400  23.296  13.001
66510W        W38935   4.692  21.648   3.667
66511W        W38936  13.353  36.410   4.570
66512W        W38937  16.267  30.218  14.982
66513W        W38938  27.809   6.557  10.356
66514W        W38939   5.390  13.623   0.880
66515W        W38940  20.492  16.754  14.810
66516W        W38941  25.482  33.011   1.844
66517W        W38942   6.933  22.739   3.115
66518W        W38943  22.105  10.585  11.085
66519W        W38944   9.726  18.626   4.311
66520W        W38945  26.449   0.668   3.882
66521W        W38946  43.038  37.499  13.052
66522W        W38947  31.452   5.219  10.968
66523W        W38948  43.626   4.829   3.893
66524W        W38949  33.950   3.705   0.705
66525W        W38950   5.157  34.888  12.967
66526W        W38951  27.063  13.842   4.521
66527W        W38952  42.997   7.144  12.121
66528W        W38953   1.777  28.306   0.265
66529W        W38954   7.288  42.275  12.443
66530W        W38955  39.521  39.898  10.630
66531W        W38956  18.302  18.230  13.355
66532W        W38957  39.457  41.027   0.360
66533W        W38958   5.934  27.601  14.254
66534W        W38959   1.448  17.491  12.087
66535W        W38960  25.135   8.002   2.376
66536W        W38961  36.809  30.623   0.179
66537W        W38962  29.420  21.468  10.640
66538W        W38963   3.721   4.811   4.703
66539W        W38964  30.000  39.576   1.831
66540W        W38965  10.363  44.315  14.887
66541W        W38966  41.344  27.099   0.489
66542W        W38967  38.749  14.851  12.597
66543W        W38968  30.798  20.123  13.138
66544W        W38969  34.432  18.688   0.108
66545W        W38970  42.325  12.973   0.152
66546W        W38971   3.423  20.179  12.670
66547W        W38972  42.471  33.610   4.203
66548W        W38973  11.774  21.417   1.724
66549W        W38974  13.141  24.365  11.584
66550W        W38975  30.878   1.886   2.956
66551W        W38976   4.305  32.620   2.857
66552W        W38977   7.723   0.830   3.606
66553W        W38978   4.222   3.465  10.764
66554W        W38979  36.156  30.380  11.021
66555W        W38980  36.028  25.003  13.408
66556W        W38981  10.932  21.644  10.758
66557W        W38982  14.329  17.252   4.150
66558W        W38983   9.842   3.069   4.091
66559W        W38984  44.727   8.232  13.473
66560W        W38985  30.923  44.063   0.897
66561W        W38986  43.458   5.351  11.766
66562W        W38987  37.780  30.438   2.069
66563W        W38988  16.254   2.887  12.509
66564W        W38989  10.321   2.837   4.011
66565W        W38990  13.349  31.374   0.897
66566W        W38991  33.362  35.463   0.404
66567W        W38992  17.714  40.136   4.543
66568W        W38993  24.045  33.604   1.932
66569W        W38994  37.483  24.611  13.981
66570W        W38995  12.483   4.725  10.203
66571W        W38996  19.312  18.392  12.485
66572W        W38997   7.408  38.526   2.945
66573W        W38998   4.524  37.642   0.179
66574W        W38999  10.900  37.946  14.156
66575W        W39000  22.137   7.792  14.914
66576W        W39001  23.159  14.155  14.019
66577W        W39002  26.550  32.713   1.333
66578W        W39003  34.044  18.191   1.875
66579W        W39004   1.655   1.988   3.688
66580W        W39005  26.128  29.534  12.459
66581W        W39006  35.263  35.042   2.394
66582W        W39007  43.513   8.891  12.152
66583W        W39008   1.326  29.761  11.408
66584W        W39009  28.573  29.623   2.124
66585W        W39010   5.981  36.063  13.342
66586W        W39011  23.731  36.756   4.591
66587W        W39012  12.864   5.674   3.822
66588W        W39013   8.771  17.350   1.736
66589W        W39014  32.398  31.439   0.937
66590W        W39015  42.835  24.719   0.933
66591W        W39016  35.741  29.198   0.025
66592W        W39017   8.642  16.820  12.084
66593W        W39018  36.947  36.331   3.737
66594W        W39019  13.048  11.202  11.446
66595W        W39020  22.562  37.984  11.517
66596W        W39021   0.117  15.921  11.778
66597W        W39022  23.717  26.799   3.312
66598W        W39023  16.151  34.578  12.460
66599W        W39024  18.475   3.258   2.705
66600W        W39025  25.231  27.556  11.978
66601W        W39026  35.009  44.321  14.765
66602W        W39027  40.587  41.419  14.012
66603W        W39028   7.763  30.599  12.617
66604W        W39029  10.329   1.773  14.658
66605W        W39030  43.890   7.282   3.460
66606W        W39031  35.045  10.263   4.619
66607W        W39032   3.765  18.940   2.890
66608W        W39033  21.140  14.217  10.729
66609W        W39034   6.703  11.671  13.416
66610W        W39035   5.708  38.405   4.786
66611W        W39036   8.453   0.510   1.688
66612W        W39037  14.663  12.775   0.850
66613W        W39038  31.585   1.749  10.887
66614W        W39039   2.333   4.365  11.710
66615W        W39040  22.077  21.720  11.048
66616W        W39041  40.903  28.108  13.401
66617W        W39042  23.391  20.100   2.647
66618W        W39043  32.567  43.357  11.864
66619W        W39044  11.773   0.411   4.565
66620W        W39045  18.087   2.224   3.197
66621W        W39046  10.197   3.890  10.574
66622W        W39047  10.070  12.275  14.488
66623W        W39048  15.031  43.443   4.206
66624W        W39049   8.314  26.054  14.496
66625W        W39050  28.496  31.229   1.240
66626W        W39051  11.247  22.096   4.629
66627W        W39052  32.676  14.633   2.203
66628W        W39053   5.199   8.548   4.544
66629W        W39054  41.488  24.102   1.253
66630W        W39055  12.218  26.527  11.487
66631W        W39056  28.049  38.108   2.870
66632W        W39057  38.553  30.496  14.759
66633W        W39058  16.589   5.790  11.934
66634W        W39059  21.564  30.535  14.367
66635W        W39060  35.005  10.608  12.490
66636W        W39061  31.665  34.998  12.517
66637W        W39062  23.159  33.058   3.465
66638W        W39063  42.382  26.136   4.750
66639W        W39064   3.227   3.950  12.539
66640W        W39065  39.864   4.826  13.011
66641W        W39066  37.086  21.503  12.512
66642W        W39067  13.564  26.098  10.699
66643W        W39068  39.788  21.782  11.153
66644W        W39069  36.348   0.297  12.088
66645W        W39070  30.957  21.560   5.138
66646W        W39071  33.580  41.058  13.563
66647W        W39072  41.565  42.055  12.075
66648W        W39073  35.558  11.735  14.032
66649W        W39074  14.625   6.814   2.244
66650W        W39075   1.716   3.799  13.923
66651W        W39076  14.353  14.143  13.873
66652W        W39077  13.967  13.920   5.176
66653W        W39078  19.033  15.956   4.775
66654W        W39079  43.764  21.615   3.354
66655W        W39080  28.565  37.109   4.211
66656W        W39081  18.171  28.183  11.585
66657W        W39082  44.886  31.172   0.308
66658W        W39083  28.902  33.999  12.101
66659W        W39084  14.226  36.704   2.041
66660W        W39085  12.887   6.345  14.285
66661W        W39086  17.467   4.816  10.018
66662W        W39087  38.931  25.399  11.597
66663W        W39088  20.832  40.446  10.608
66664W        W39089  31.116   8.962   2.255
66665W        W39090  28.741  25.234  10.496
66666W        W39091   5.236  39.714   0.556
66667W        W39092  33.878  37.318   0.469
66668W        W39093  22.588  24.057  12.024
66669W        W39094  18.752   6.965   3.223
66670W        W39095  12.099  14.674   4.160
66671W        W39096   4.062  44.346  12.289
66672W        W39097  20.091   0.259   2.358
66673W        W39098  33.048  44.563   3.383
66674W        W39099  18.577  16.739  14.496
66675W        W39100  17.778   8.171   0.320
66676W        W39101  26.819  37.079   2.793
66677W        W39102  41.417  20.636   1.991
66678W        W39103  18.262  26.622   0.796
66679W        W39104  36.003  38.932  15.000
66680W        W39105  42.436  35.861  13.363
66681W        W39106  42.956   2.818   3.369
66682W        W39107   6.247   8.753   1.533
66683W        W39108  44.860   9.099  12.550
66684W        W39109  13.090  44.956   0.819
66685W        W39110  26.184  15.579   2.651
66686W        W39111  20.657  26.715  13.551
66687W        W39112  37.844  41.906  14.396
66688W        W39113   8.365  44.336   1.855
66689W        W39114  29.124  36.379  13.863
66690W        W39115   5.066  29.861   2.935
66691W        W39116  18.062  10.790  14.413
66692W        W39117  33.328  37.106   2.553
66693W        W39118   6.276   8.414   1.109
66694W        W39119  38.019  13.835   4.046
66695W        W39120   2.870  12.926   0.488
66696W        W39121   8.412  42.579  13.878
66697W        W39122   9.734  12.109  12.183
66698W        W39123  37.295  17.159  13.937
66699W        W39124  26.974   8.780  11.231
66700W        W39125  30.824   8.674  10.300
66701W        W39126   4.030  16.177  11.627
66702W        W39127  37.987   0.231   1.320
66703W        W39128  37.403  19.539   4.521
66704W        W39129  41.401  36.453   2.284
66705W        W39130  30.469  38.907   0.896
66706W        W39131  24.171   7.489  11.776
66707W        W39132  21.144  26.187   3.543
66708W        W39133  23.187  21.138   3.796
66709W        W39134  21.474  21.129   3.760
66710W        W39135  36.164  34.577  12.426
66711W        W39136  39.911  27.145   3.265
66712W        W39137   1.987  10.559  14.209
66713W        W39138  28.596   3.933   2.919
66714W        W39139   7.245   6.980  14.865
66715W        W39140  13.482   4.598   0.273
66716W        W39141  12.706  33.065   1.509
66717W        W39142  44.481  29.128   1.063
66718W        W39143  36.811  42.609   2.628
66719W        W39144  25.741  28.635   3.824
66720W        W39145  11.532   2.385   3.698
66721W        W39146   7.628  33.481  14.752
66722W        W39147  34.805  23.769   4.078
66723W        W39148   6.334  41.526   0.244
66724W        W39149  17.135  17.605   3.755
66725W        W39150  39.304   6.197  12.426
66726W        W39151  21.251  15.121   1.713
66727W        W39152  30.482  37.867  11.082
66728W        W39153  31.167  12.702   4.082
66729W        W39154  13.338   3.520  10.707
66730W        W39155  35.347   3.277   3.372
66731W        W39156   8.634   0.803   4.602
66732W        W39157  33.513  13.842   1.324
66733W        W39158  28.246  11.296  12.649
66734W        W39159  42.758  30.597  11.692
66735W        W39160   5.646  12.306   3.507
66736W        W39161  14.303  31.892   4.355
66737W        W39162  30.498   5.658  12.984
66738W        W39163  44.999   4.251  14.977
66739W        W39164  24.431  12.832  14.368
66740W        W39165  21.070  22.164  11.857
66741W        W39166   6.477  38.339  13.524
66742W        W39167  34.779  22.498   3.111
66743W        W39168  22.682  27.432  12.429
66744W        W39169  41.246   1.508   2.432
66745W        W39170  35.329  19.336   0.359
66746W        W39171  42.911  44.330   1.547
66747W        W39172  18.227  17.516   2.645
66748W        W39173  19.755  11.329   3.149
66749W        W39174  21.022  11.649   1.432
66750W        W39175  37.152  11.869   2.871
66751W        W39176  15.312   3.784   3.686
66752W        W39177  22.043  38.546   2.155
66753W        W39178  35.481  14.059   2.836
66754W        W39179  38.607   1.759  11.986
66755W        W39180  42.897  15.164   3.137
66756W        W39181  40.490  35.364  11.222
66757W        W39182  20.515  28.893   2.758
66758W        W39183  34.331  22.772  11.530
66759W        W39184  17.206  44.604  13.824
66760W        W39185  31.120   2.686   0.849
66761W        W39186  20.623  39.773   4.321
66762W        W39187  13.868  31.150   0.244
66763W        W39188  19.166  19.991  11.366
66764W        W39189  10.278  38.960   1.843
66765W        W39190   3.977  17.637   3.314
66766W        W39191  40.804  34.601   0.890
66767W        W39192  42.763  32.043  11.526
66768W        W39193  36.842  28.510  13.536
66769W        W39194  38.067  11.707   3.051
66770W        W39195  23.992  18.472   1.387
66771W        W39196   8.719   4.413  13.377
66772W        W39197  38.898   7.769  10.515
66773W        W39198  43.791   2.445   0.480
66774W        W39199  25.198  35.748   2.862
66775W        W39200  28.514   1.547   2.480
66776W        W39201  35.007  36.329  12.007
66777W        W39202  36.422  43.243   4.130
66778W        W39203  28.257  30.896   0.888
66779W        W39204  22.267  18.223  14.281
66780W        W39205  19.864  22.690   1.404
66781W        W39206  25.082   0.669  12.125
66782W        W39207  37.060  27.133  13.972
66783W        W39208  10.931   4.091  13.470
66784W        W39209  25.966  37.583  11.541
66785W        W39210   6.804  39.997  12.983
66786W        W39211  29.507  41.245   2.896
66787W        W39212  26.487   9.085  14.240
66788W        W39213  19.161  23.252  12.959
66789W        W39214  43.431  30.881   2.999
66790W        W39215  22.356   0.428   4.777
66791W        W39216  42.540   0.307  11.597
66792W        W39217   5.316  37.765   0.497
66793W        W39218   8.633  34.389  12.040
66794W        W39219  22.272  26.056   2.395
66795W        W39220  33.487   2.753  10.002
66796W        W39221  11.465  11.788  11.973
66797W        W39222  27.036  28.641  13.798
66798W        W39223   1.881  37.990  11.542
66799W        W39224  24.052  20.523   2.758
66800W        W39225  28.159  17.583   4.160
66801W        W39226  42.869  27.651  13.529
66802W        W39227  17.056  19.255   1.278
66803W        W39228  33.984   4.278  14.842
66804W        W39229  21.468  42.987  10.407
66805W        W39230  19.293  17.146  12.036
66806W        W39231  20.152  19.813   5.198
66807W        W39232  11.764  28.896   2.886
66808W        W39233  20.084   0.755  12.930
66809W        W39234   2.378   5.589  11.247
66810W        W39235  23.382  23.151  13.370
66811W        W39236  37.706   3.245  14.801
66812W        W39237   5.479   5.160  11.696
66813W        W39238  43.520  30.461  13.414
66814W        W39239  41.002  32.415   1.287
66815W        W39240   6.786  38.598  12.584
66816W        W39241  31.329  40.782  13.895
66817W        W39242  23.843  40.377  11.193
66818W        W39243  36.014  20.730   4.640
66819W        W39244   2.288   8.851  12.507
66820W        W39245  37.051  23.463  11.294
66821W        W39246  14.058  13.240   4.524
66822W        W39247  10.407  13.789  12.542
66823W        W39248   6.367  42.852   4.966
66824W        W39249   6.292  42.544  12.448
66825W        W39250  13.703  36.356   1.748
66826W        W39251  43.005  31.692   1.897
66827W        W39252  19.999  13.760   1.390
66828W        W39253  37.567   6.306  11.524
66829W        W39254  16.748  35.443   0.065
66830W        W39255  32.030   6.346   1.204
66831W        W39256   1.750  28.034  12.547
66832W        W39257  41.926  16.136   1.670
66833W        W39258  34.146   2.452  11.551
66834W        W39259  29.180  35.390   1.884
66835W        W39260  14.044  44.704   0.762
66836W        W39261  15.297  42.660   2.726
66837W        W39262   7.164  18.266  10.645
66838W        W39263  25.745  40.537   2.791
66839W        W39264  27.168   0.689  13.503
66840W        W39265  39.345  36.767   3.736
66841W        W39266   0.948  40.362   1.099
66842W        W39267  35.449  38.779   3.593
66843W        W39268  15.779  38.538   3.152
66844W        W39269  17.061  13.657   0.748
66845W        W39270   5.440  36.088   2.497
66846W        W39271  22.136  41.287   4.900
66847W        W39272  31.788  22.388   4.865
66848W        W39273  22.254  39.015   2.323
66849W        W39274  20.251   0.112  11.692
66850W        W39275  14.347  18.278   4.207
66851W        W39276  22.623  25.799   3.647
66852W        W39277  26.917   7.294  13.880
66853W        W39278  20.551  12.086   0.717
66854W        W39279  28.434  43.582   2.800
66855W        W39280  37.350  33.102   3.112
66856W        W39281  10.378  34.114   1.191
66857W        W39282   0.442  13.955  13.945
66858W        W39283  24.890  37.997  11.576
66859W        W39284  22.241  29.973   3.796
66860W        W39285  13.206  20.830  11.112
66861W        W39286   6.802   8.350   1.824
66862W        W39287  37.433  34.497   0.115
66863W        W39288   5.866   5.410  11.396
66864W        W39289  19.050  31.422  13.468
66865W        W39290  11.216  13.367  12.059
66866W        W39291   0.814  35.043   3.192
66867W        W39292  43.919  15.528  10.522
66868W        W39293  22.075  10.888   1.438
66869W        W39294  36.824   5.544  13.840
66870W        W39295  29.007   4.247  14.929
66871W        W39296  34.965  11.953   0.135
66872W        W39297  10.211  27.005   2.469
66873W        W39298  22.490  23.278   1.164
66874W        W39299  10.194  36.394  12.361
66875W        W39300  28.505  20.751   1.751
66876W        W39301   5.474   3.832  10.989
66877W        W39302  44.458  19.532   2.384
66878W        W39303  10.010  15.985  14.589
66879W        W39304  15.073  26.244   0.921
66880W        W39305  43.847  24.433   2.224
66881W        W39306  36.897  22.036  11.158
66882W        W39307  29.235  12.637   4.045
66883W        W39308   9.380  28.646   0.261
66884W        W39309  36.123   0.439  10.789
66885W        W39310  21.788  33.397   4.095
66886W        W39311  35.182  44.721   1.553
66887W        W39312  40.934  19.816   2.700
66888W        W39313  37.921  35.491   2.453
66889W        W39314   3.786  41.384  13.983
66890W        W39315   1.479  33.962   0.163
66891W        W39316  13.610  27.304   2.884
66892W        W39317  19.955  41.112  14.930
66893W        W39318  17.175   4.405   0.756
66894W        W39319  29.153  32.347  11.593
66895W        W39320  14.208   8.973  12.015
66896W        W39321   0.527  43.540  13.333
66897W        W39322  42.607  37.669   0.873
66898W        W39323  20.553  17.319   3.816
66899W        W39324  14.555   8.314  13.922
66900W        W39325  40.333   2.689  13.854
66901W        W39326  37.371  35.756   2.753
66902W        W39327  27.003   5.323   3.048
66903W        W39328   2.723   3.324   4.880
66904W        W39329  21.744  38.384   0.856
66905W        W39330  34.288  43.355  13.959
66906W        W39331  43.922   1.215   3.374
66907W        W39332  28.003  21.015  11.994
66908W        W39333  23.051  39.294   3.284
66909W        W39334  25.509  10.020   2.563
66910W        W39335  22.683  15.999  13.130
66911W        W39336   3.025   5.379   0.753
66912W        W39337  23.596  34.433   4.772
66913W        W39338  27.782  15.783  10.363
66914W        W39339  15.709  16.644   3.769
66915W        W39340  30.011   7.303   2.400
66916W        W39341   2.093   9.561  13.379
66917W        W39342  12.456  23.484  14.723
66918W        W39343  34.243  24.474  14.719
66919W        W39344  36.321  42.030   2.217
66920W        W39345  13.851  35.622   0.209
66921W        W39346   7.015  41.010   4.308
66922W        W39347  34.504   7.692  12.470
66923W        W39348  36.167  42.054   3.100
66924W        W39349  21.751  10.810  13.584
66925W        W39350  35.522   6.218  10.911
66926W        W39351   9.863  32.183   0.770
66927W        W39352  35.035  35.978   5.013
66928W        W39353   4.699  13.843   1.370
66929W        W39354  32.330  18.011   0.651
66930W        W39355   5.008   1.043   2.691
66931W        W39356  22.479  30.781  13.719
66932W        W39357  16.419  21.194   5.047
66933W        W39358  39.039  21.145   0.398
66934W        W39359   2.633  22.672  14.017
66935W        W39360   5.791  44.758   3.290
66936W        W39361   1.531  21.176   2.240
66937W        W39362  10.045  26.363   2.716
66938W        W39363  30.859  16.083  11.712
66939W        W39364  34.450   3.533  10.857
66940W        W39365  17.089  34.379   1.384
66941W        W39366  11.232  38.393   1.640
66942W        W39367  28.018  37.889  13.845
66943W        W39368   4.469  18.597  12.668
66944W        W39369  21.219  27.465   0.677
66945W        W39370  23.110  27.427  13.888
66946W        W39371  37.183  40.820   2.508
66947W        W39372  10.103   7.436  12.882
66948W        W39373  16.702  44.783  13.856
66949W        W39374  44.033   2.285   0.942
66950W        W39375  40.566  10.445   4.591
66951W        W39376   9.905  14.568   2.168
66952W        W39377  32.852  12.285  12.074
66953W        W39378  24.457   3.355  13.734
66954W        W39379  38.304  41.400   2.596
66955W        W39380  25.550  18.213   2.156
66956W        W39381   6.004  27.980  11.158
66957W        W39382  32.177  37.050   4.879
66958W        W39383  31.614  13.374   2.763
66959W        W39384  30.201   4.962   1.433
66960W        W39385  38.808  27.481   4.089
66961W        W39386  21.280  25.581  10.718
66962W        W39387  33.858  25.586   0.890
66963W        W39388  38.001  38.283   0.478
66964W        W39389  34.275  35.687  13.768
66965W        W39390  32.172  18.596  12.045
66966W        W39391  10.248   8.375   1.774
66967W        W39392   4.974  30.610  11.546
66968W        W39393  38.430   4.145   0.763
66969W        W39394  22.786  38.431   0.955
66970W        W39395   9.118  37.906  13.327
66971W        W39396   5.267  13.182  14.497
66972W        W39397  13.338  20.635  14.952
66973W        W39398  35.302  39.198   1.050
66974W        W39399  28.608  29.390  14.585
66975W        W39400  28.711  41.392   9.961
66976W        W39401  26.208   4.809   1.411
66977W        W39402  18.168  35.052   3.651
66978W        W39403  26.985   7.362  13.263
66979W        W39404  33.148  39.844  13.444
66980W        W39405  15.897   1.755  14.316
66981W        W39406   5.394  16.114   2.609
66982W        W39407  13.190  34.464   4.116
66983W        W39408  38.530   6.516   0.668
66984W        W39409  25.771  42.897  12.058
66985W        W39410  33.796  25.478   2.236
66986W        W39411  10.173  44.563   5.100
66987W        W39412  37.495   0.144   0.276
66988W        W39413   9.866  21.484   0.803
66989W        W39414  16.102  32.502   5.428
66990W        W39415  25.216   7.496  14.166
66991W        W39416  37.441  41.640  11.096
66992W        W39417  39.968   3.913   4.341
66993W        W39418  12.167  38.388   1.208
66994W        W39419  15.208  29.854  11.517
66995W        W39420  20.775  37.490  13.759
66996W        W39421  34.593  43.435  14.370
66997W        W39422  38.123  19.807   4.071
66998W        W39423  32.082  19.092   1.835
66999W        W39424  19.076   3.005   4.089
67000W        W39425  39.515  43.366  11.585
67001W        W39426  41.843  22.015  13.693
67002W        W39427  24.787  28.665  11.440
67003W        W39428  38.961  21.506   2.260
67004W        W39429  26.436   6.419   3.326
67005W        W39430   1.363  43.030  12.576
67006W        W39431   7.969   3.521  12.402
67007W        W39432  35.887  31.557   2.623
67008W        W39433  22.754  16.816  11.556
67009W        W39434   1.577  31.093  12.981
67010W        W39435  40.820  25.699   3.077
67011W        W39436  39.692  28.975   4.369
67012W        W39437  24.607  29.855  13.909
67013W        W39438  38.418   7.858   4.595
67014W        W39439  20.578  14.147   1.960
67015W        W39440  39.809  30.973  11.634
67016W        W39441   7.629  16.683  12.245
67017W        W39442  36.322   6.507   9.954
67018W        W39443  35.888  34.713   4.080
67019W        W39444   3.413   0.912   3.035
67020W        W39445  15.828  21.151   1.835
67021W        W39446  41.309  35.621  11.247
67022W        W39447  10.431   4.245  12.813
67023W        W39448  33.363  24.623   1.296
67024W        W39449  32.514  30.968   2.819
67025W        W39450  17.792  11.557  14.805
67026W        W39451  39.597  26.083   1.298
67027W        W39452  39.024   4.189  12.161
67028W        W39453  17.246   1.572   0.590
67029W        W39454  41.824  20.974   3.877
67030W        W39455  44.422  38.413  12.007
67031W        W39456  31.099  41.350  10.640
67032W        W39457  22.048  29.894  13.059
67033W        W39458  10.856  32.347   3.963
67034W        W39459   2.579  25.517   2.615
67035W        W39460  12.430  14.754   0.603
67036W        W39461  32.637  19.732  10.703
67037W        W39462  10.431   2.215  10.613
67038W        W39463  32.617  32.625   3.671
67039W        W39464  39.117  15.247  13.928
67040W        W39465  33.632  23.234  10.663
67041W        W39466  26.774   5.319   4.683
67042W        W39467   3.978  33.352   0.856
67043W        W39468   6.230  12.727  14.742
67044W        W39469  30.625  10.753  12.523
67045W        W39470  44.846  15.870   1.397
67046W        W39471   4.938  24.538   1.775
67047W        W39472  32.616  36.950  10.705
67048W        W39473  37.392  32.360  14.406
67049W        W39474  44.046  17.824   1.737
67050W        W39475  11.140  20.489  14.353
67051W        W39476   9.296   9.108  11.232
67052W        W39477  30.013  15.551   4.613
67053W        W39478   2.670  40.845  12.107
67054W        W39479   3.666  16.243  13.594
67055W        W39480  40.335  17.235  10.652
67056W        W39481  21.972  35.133   2.404
67057W        W39482  27.576   2.015  12.547
67058W        W39483   4.417  25.129  13.755
67059W        W39484  35.074  34.304   3.674
67060W        W39485  11.980  28.027  10.345
67061W        W39486  20.066  13.223  14.041
67062W        W39487  23.160  44.322   1.353
67063W        W39488  23.659  32.513   0.753
67064W        W39489   5.804  10.333   0.474
67065W        W39490  32.593   2.862  14.196
67066W        W39491  18.160  32.865  11.120
67067W        W39492  37.105  10.796   0.479
67068W        W39493  21.117  42.722   1.878
67069W        W39494  44.817  34.534   2.607
67070W        W39495  37.563  34.694   0.885
67071W        W39496   8.304  22.990   0.362
67072W        W39497   1.018  21.072   2.353
67073W        W39498  22.562  28.941   3.281
67074W        W39499  22.982   5.550   3.365
67075W        W39500  13.633  41.719   0.776
67076W        W39501  33.660  22.631   2.770
67077W        W39502  15.083  18.520  14.518
67078W        W39503   5.303  33.386  10.311
67079W        W39504  40.974  23.053   4.123
67080W        W39505  16.384  36.065   3.240
67081W        W39506   5.941   2.375  13.573
67082W        W39507  44.222  23.985  12.544
67083W        W39508  26.046  44.238   0.712
67084W        W39509  37.645  15.276   0.792
67085W        W39510  11.064  16.321  14.516
67086W        W39511  22.733  26.639   4.328
67087W        W39512   4.511  15.853   3.366
67088W        W39513  44.916  31.117   5.001
67089W        W39514  16.914   4.851   4.608
67090W        W39515  12.842  25.530  12.546
67091W        W39516   3.327  33.734  14.552
67092W        W39517  34.527   0.434  14.060
67093W        W39518  41.907   6.643  11.240
67094W        W39519  24.744  32.273   0.475
67095W        W39520  18.101   3.867   1.990
67096W        W39521  11.228  42.767   2.711
67097W        W39522   3.142   9.698  11.856
67098W        W39523  29.409  25.820  11.021
67099W        W39524  36.284   4.115   4.026
67100W        W39525  14.837  38.107   0.478
67101W        W39526   8.620  31.627   2.903
67102W        W39527   9.693  26.911  12.436
67103W        W39528  41.950   8.722  13.086
67104W        W39529   1.857  36.687   4.191
67105W        W39530  19.786  12.340  11.418
67106W        W39531  24.719  35.870   4.915
67107W        W39532  35.780  21.654  11.861
67108W        W39533   9.695  19.648  10.960
67109W        W39534  33.276  38.432   3.015
67110W        W39535  14.692  14.346   4.781
67111W        W39536  17.098  25.720  10.835
67112W        W39537   9.759   6.910   4.176
67113W        W39538  22.673  30.543  14.400
67114W        W39539  35.562  31.312  12.363
67115W        W39540   8.240   2.335  14.959
67116W        W39541  11.113  28.693   1.484
67117W        W39542  12.640  15.687   0.471
67118W        W39543  30.070  22.076  13.937
67119W        W39544  26.428  36.455  14.758
67120W        W39545   3.820  23.556   3.851
67121W        W39546  38.110  10.418   1.789
67122W        W39547   2.034  37.101  11.559
67123W        W39548  44.746  30.932  14.869
67124W        W39549   5.871  25.754   4.791
67125W        W39550  34.281   6.353  11.040
67126W        W39551  28.865  32.100  11.246
67127W        W39552   8.754  24.390  12.430
67128W        W39553  18.918  31.445   0.872
67129W        W39554  13.069  11.298   4.394
67130W        W39555  17.771  35.583   4.088
67131W        W39556  43.861  30.148   1.468
67132W        W39557  30.012  40.715  12.767
67133W        W39558  35.950  20.738  10.913
67134W        W39559  44.496  32.951  10.710
67135W        W39560   6.842   8.755  13.975
67136W        W39561  30.073  30.121  14.451
67137W        W39562   5.596  44.395  10.637
67138W        W39563   2.402  29.190  13.872
67139W        W39564  22.580  12.223   3.536
67140W        W39565  33.446  26.279  14.014
67141W        W39566   0.737  22.590  14.735
67142W        W39567  16.523  24.164  12.575
67143W        W39568   8.670  27.184  12.708
67144W        W39569  20.269  26.858   0.538
67145W        W39570   5.784  38.086  13.055
67146W        W39571  44.238  18.016   4.688
67147W        W39572  26.678  26.776   1.706
67148W        W39573  11.788  27.026   2.798
67149W        W39574  12.501   1.456   0.896
67150W        W39575   1.202  19.159   2.197
67151W        W39576  10.607  16.932  13.305
67152W        W39577  24.646  10.216   2.862
67153W        W39578   3.269  44.447  12.436
67154W        W39579  15.104   1.804   1.198
67155W        W39580  38.950  16.710   4.081
67156W        W39581  23.073  23.291   3.757
67157W        W39582  17.975  32.959  12.008
67158W        W39583  38.607  40.314  12.886
67159W        W39584  29.609  41.836   3.140
67160W        W39585   6.345  32.107   2.039
67161W        W39586  12.122  33.469   0.829
67162W        W39587  33.403   2.698  11.539
67163W        W39588  30.583  17.336   1.758
67164W        W39589  30.526  44.065  10.667
67165W        W39590  11.160   5.445   4.339
67166W        W39591  19.631  42.061   1.812
67167W        W39592  40.565   1.940   2.760
67168W        W39593  20.646  37.884  10.819
67169W        W39594  24.679  15.544   2.300
67170W        W39595   5.171  19.829  13.327
67171W        W39596  22.005  22.046   1.845
67172W        W39597  22.174  34.033   2.243
67173W        W39598  37.096  43.865   3.371
67174W        W39599  28.002  20.356  14.067
67175W        W39600  37.569  13.307  12.388
67176W        W39601  11.863  25.121  12.010
67177W        W39602  32.987   8.836  10.770
67178W        W39603  28.579  29.281  13.528
67179W        W39604  33.416  39.336  12.880
67180W        W39605  40.440  44.809  13.574
67181W        W39606  38.823  42.931  10.574
67182W        W39607  15.009  40.112   2.332
67183W        W39608  29.884  43.396   4.380
67184W        W39609   5.751  26.720   1.329
67185W        W39610  32.617  43.587   2.860
67186W        W39611   6.713  39.488  12.826
67187W        W39612  30.291  25.801  11.800
67188W        W39613   7.087  13.774   2.579
67189W        W39614  41.875  38.857  13.435
67190W        W39615  27.955  13.079  12.612
67191W        W39616  32.866   0.903   1.402
67192W        W39617  35.698  19.217  12.659
67193W        W39618   1.973   1.378  14.377
67194W        W39619  29.178   0.702  11.142
67195W        W39620   1.297  44.531  11.444
67196W        W39621  31.737  33.152   2.563
67197W        W39622  17.703  34.955  10.455
67198W        W39623  33.042  23.121   3.103
67199W        W39624  14.217  14.768  11.505
67200W        W39625  33.401  40.716  10.910
67201W        W39626   3.510   3.373  14.785
67202W        W39627  12.395   7.857   3.609
67203W        W39628  18.420  31.472   0.994
67204W        W39629   3.813  22.943   2.744
67205W        W39630  15.256  18.712   2.765
67206W        W39631  33.628   2.635   4.139
67207W        W39632  17.193   8.039   4.342
67208W        W39633  19.395  29.077   1.942
67209W        W39634  28.068   3.733   4.182
67210W        W39635  19.227  13.819   2.558
67211W        W39636  37.552  31.688  13.799
67212W        W39637   4.526  19.308  13.795
67213W        W39638  40.945  24.187   2.353
67214W        W39639  43.879  21.559   1.815
67215W        W39640   9.635   7.344  12.039
67216W        W39641   9.797  20.472  11.262
67217W        W39642   4.949   4.692  10.684
67218W        W39643  33.547   5.828   2.046
67219W        W39644  20.107  24.316   2.156
67220W        W39645  26.766  37.001  10.640
67221W        W39646  27.727  33.064   1.312
67222W        W39647  19.567   6.936   1.449
67223W        W39648   1.209  19.682   1.470
67224W        W39649  10.415  22.542   1.438
67225W        W39650  22.955  15.891  10.459
67226W        W39651  27.057  29.114  12.461
67227W        W39652  39.460   0.383   1.681
67228W        W39653  30.639   9.189   0.399
67229W        W39654  41.380  42.410  13.319
67230W        W39655  40.792  32.970   1.886
67231W        W39656  29.697  41.176   4.660
67232W        W39657   7.411  16.870  10.521
67233W        W39658  32.938  13.901   4.065
67234W        W39659  42.615  14.639   2.560
67235W        W39660  28.082  39.933  14.918
67236W        W39661  28.979  23.946  12.143
67237W        W39662   4.244  37.640  14.742
67238W        W39663   1.878  20.114  13.026
67239W        W39664   5.680  20.030  13.487
67240W        W39665  13.001  27.980   3.756
67241W        W39666  15.810  20.452  14.892
67242W        W39667  26.064  15.994  11.595
67243W        W39668  19.037   7.372   0.013
67244W        W39669  24.095  14.105  12.504
67245W        W39670  40.080  20.533   0.643
67246W        W39671  20.592  28.125  12.976
67247W        W39672   8.713  22.726   2.384
67248W        W39673  34.562  35.812   0.696
67249W        W39674  23.312  43.735  14.353
67250W        W39675  40.838  30.854   2.793
67251W        W39676  12.905  25.494  14.937
67252W        W39677  35.876  34.835   0.805
67253W        W39678  27.485  28.974   1.957
67254W        W39679  35.701  36.418  10.616
67255W        W39680   2.237   2.814   3.697
67256W        W39681  42.418  32.381  11.692
67257W        W39682  36.591  13.614   1.808
67258W        W39683   8.950   8.359  10.828
67259W        W39684  15.512  26.599  11.581
67260W        W39685  35.528  34.092   3.867
67261W        W39686  13.040  14.448  12.684
67262W        W39687  26.189  42.393   2.644
67263W        W39688  22.245   1.850   1.825
67264W        W39689  12.799  40.609   1.939
67265W        W39690  25.555  17.503   4.505
67266W        W39691  40.977  16.144   0.714
67267W        W39692  18.229  33.640   1.291
67268W        W39693  34.167  21.641  10.946
67269W        W39694  41.076   8.122   1.412
67270W        W39695   8.107  12.357  12.927
67271W        W39696  33.615  24.390   3.291
67272W        W39697   4.454   0.326  14.986
67273W        W39698   3.884  38.517  12.076
67274W        W39699  34.952   1.072  11.524
67275W        W39700  43.268   4.641   0.407
67276W        W39701   0.451  42.905   3.744
67277W        W39702  20.769  32.893  13.453
67278W        W39703   9.133  12.282   1.990
67279W        W39704  16.785  32.838   1.890
67280W        W39705  32.896  44.982  14.420
67281W        W39706   0.629  16.550  14.489
67282W        W39707  13.674  34.891  12.821
67283W        W39708  44.465  40.527  10.698
67284W        W39709   6.392  42.894   3.869
67285W        W39710  30.525  33.508   2.812
67286W        W39711  39.975  36.013  12.152
67287W        W39712  32.082   9.618  11.061
67288W        W39713  18.869   8.661   4.667
67289W        W39714  39.389  29.212  14.894
67290W        W39715  26.645  16.330   4.280
67291W        W39716  18.719  31.434   3.437
67292W        W39717   7.873  38.456  14.685
67293W        W39718  27.238  26.785  11.733
67294W        W39719  10.597  38.890  11.919
67295W        W39720  28.221  15.619  10.561
67296W        W39721  37.636   5.708  12.054
67297W        W39722  40.788   8.992  14.329
67298W        W39723  25.794  42.337   0.656
67299W        W39724  11.377  25.667  11.566
67300W        W39725  22.493  30.964   4.489
67301W        W39726  36.525  18.075  14.843
67302W        W39727  44.462  42.843  14.396
67303W        W39728  23.233  13.082   2.271
67304W        W39729  41.871  40.822  10.654
67305W        W39730  22.031  17.757  12.760
67306W        W39731  28.704   2.499  11.202
67307W        W39732  20.720  13.135  14.865
67308W        W39733   4.517  25.532   4.955
67309W        W39734  13.081   2.288   0.945
67310W        W39735  34.069  30.638  14.360
67311W        W39736  42.364  27.736  14.928
67312W        W39737  26.999  35.473  10.694
67313W        W39738  24.355  18.574  11.707
67314W        W39739  35.055  13.959  12.952
67315W        W39740  39.791  40.035  11.393
67316W        W39741  27.895  13.623  14.184
67317W        W39742   0.203  35.576  14.183
67318W        W39743  19.022   4.907   1.270
67319W        W39744  22.860  10.570  11.035
67320W        W39745   8.871   7.303  11.603
67321W        W39746  21.193   6.789  12.473
67322W        W39747  22.266   3.456  12.399
67323W        W39748  44.748  10.118   3.162
67324W        W39749  10.659  10.463   2.915
67325W        W39750  20.002  15.104   4.487
67326W        W39751  16.684  32.663  14.667
67327W        W39752  22.521  37.078  13.993
67328W        W39753   4.745  29.762  13.094
67329W        W39754  13.721   3.914   4.607
67330W        W39755  20.178  10.584  12.003
67331W        W39756  40.407  30.188  13.843
67332W        W39757  44.007  11.984  11.417
67333W        W39758   4.255  44.270   0.781
67334W        W39759  17.254  34.323  13.855
67335W        W39760   8.722  25.520  11.509
67336W        W39761  44.041  13.262  10.667
67337W        W39762  44.332  25.938   2.646
67338W        W39763  15.812   6.727   4.672
67339W        W39764   6.128   7.334   4.963
67340W        W39765   5.928  42.442   2.632
67341W        W39766  39.236  16.579  12.048
67342W        W39767  41.741  27.207  11.855
67343W        W39768  13.150   4.521   4.300
67344W        W39769   7.008   0.568  12.315
67345W        W39770  31.682   5.814  12.719
67346W        W39771  14.945  33.902  14.192
67347W        W39772  29.041  25.501  13.879
67348W        W39773   2.854   3.749  11.567
67349W        W39774  29.995  41.022  11.046
67350W        W39775  21.172  28.966   4.445
67351W        W39776  29.701  26.673   2.788
67352W        W39777  21.711   8.279  11.391
67353W        W39778  32.100  43.384   0.546
67354W        W39779  22.724   2.890   3.397
67355W        W39780   9.116  11.204   4.752
67356W        W39781  43.282  31.011   1.667
67357W        W39782  19.733  28.860   3.162
67358W        W39783  19.313  32.162  11.628
67359W        W39784   7.349  32.538   2.876
67360W        W39785  11.360  28.501  13.184
67361W        W39786  22.933  40.964  10.587
67362W        W39787  41.504  16.994   4.412
67363W        W39788  34.435   0.070   3.164
67364W        W39789  27.032   4.870   4.661
67365W        W39790  27.620  39.755  14.714
67366W        W39791  40.029  21.630   3.627
67367W        W39792  27.066  16.066   4.109
67368W        W39793   7.211  13.695  13.608
67369W        W39794   9.420  26.208   0.515
67370W        W39795   6.090  16.847   2.358
67371W        W39796  41.348  32.166  14.355
67372W        W39797  44.779  42.388  14.465
67373W        W39798   0.255  17.497  11.127
67374W        W39799   9.819  27.571  10.736
67375W        W39800  44.957  30.086  12.345
67376W        W39801   4.012  21.341  11.011
67377W        W39802   1.711  38.616  13.078
67378W        W39803   1.924   5.156   4.107
67379W        W39804  29.497  36.915   3.077
67380W        W39805   3.004  29.599   0.379
67381W        W39806  13.138  18.737   3.378
67382W        W39807  39.817  19.635  10.563
67383W        W39808   7.108   2.335  12.400
67384W        W39809  29.852  34.458   0.069
67385W        W39810  18.486  43.944  11.547
67386W        W39811  27.044  14.529   3.057
67387W        W39812   5.616   6.886   3.824
67388W        W39813  13.710  38.816  10.711
67389W        W39814  35.955   9.662   2.704
67390W        W39815   6.885  36.500  10.496
67391W        W39816  32.672  23.945  11.213
67392W        W39817   1.481  19.135   2.636
67393W        W39818  23.029   4.848   0.433
67394W        W39819   5.017   1.740   4.421
67395W        W39820  33.238  35.698  12.981
67396W        W39821  10.745  34.503   0.198
67397W        W39822   9.948   4.594   2.349
67398W        W39823  44.602   2.132   0.367
67399W        W39824  13.709  19.745   0.873
67400W        W39825  22.957  28.877   0.290
67401W        W39826  44.513  31.005  12.867
67402W        W39827  11.326  37.218   3.354
67403W        W39828  11.440  12.045  14.492
67404W        W39829  12.338  20.716   3.811
67405W        W39830  22.749  32.549  10.441
67406W        W39831  30.929  19.590  14.078
67407W        W39832  17.012  30.673  11.151
67408W        W39833  40.398  15.292   3.241
67409W        W39834  38.333  32.692  14.760
67410W        W39835  21.304  11.677   0.483
67411W        W39836  16.643  23.973  11.247
67412W        W39837  39.941   6.369  11.622
67413W        W39838  14.493  11.267  11.544
67414W        W39839  31.940  27.532  11.032
67415W        W39840  42.412   5.910   1.810
67416W        W39841  11.809  35.628  10.029
67417W        W39842  31.125  44.226  11.121
67418W        W39843  18.994  24.165   1.711
67419W        W39844   9.180  21.999   4.553
67420W        W39845  24.044   5.223   0.248
67421W        W39846  42.817  12.793  12.439
67422W        W39847   3.440  12.397  14.799
67423W        W39848   3.974  24.708   3.122
67424W        W39849  42.057   6.197   0.746
67425W        W39850  37.938  36.097   4.623
67426W        W39851  35.116  43.989  10.736
67427W        W39852  33.313   9.270  13.052
67428W        W39853  39.349   4.731  14.372
67429W        W39854  33.824  13.657   0.016
67430W        W39855   4.294  22.820   3.178
67431W        W39856  34.667  22.533   2.594
67432W        W39857   4.683  12.151  14.416
67433W        W39858   1.992  32.822  12.054
67434W        W39859  38.576  22.405  11.998
67435W        W39860  31.119  31.053  14.463
67436W        W39861   5.746  25.723   0.474
67437W        W39862  44.268  37.535   1.388
67438W        W39863  17.787  26.092   1.291
67439W        W39864  27.671  40.549   1.220
67440W        W39865  41.560  16.558   1.296
67441W        W39866  30.968  30.440   5.053
67442W        W39867  32.946   4.482   2.810
67443W        W39868   6.225   5.699   1.843
67444W        W39869  20.716  24.587  12.688
67445W        W39870  24.527   8.996   5.050
67446W        W39871   1.449  33.396  10.185
67447W        W39872  32.349  22.610  12.390
67448W        W39873  13.551  15.620   1.851
67449W        W39874  27.671  15.146   0.280
67450W        W39875  22.600   0.518  14.760
67451W        W39876  14.603   0.701   0.883
67452W        W39877   7.409   4.289  10.410
67453W        W39878  42.719  32.376  11.084
67454W        W39879  23.240  35.027   3.675
67455W        W39880   3.838   6.423  10.631
67456W        W39881  17.615   7.677   1.849
67457W        W39882  36.657  16.748   3.824
67458W        W39883  43.280  38.455   1.443
67459W        W39884  33.746  27.084  14.395
67460W        W39885  39.519   9.138  14.271
67461W        W39886  32.905  21.269  13.506
67462W        W39887  31.980  37.333   2.292
67463W        W39888  22.813   9.733   2.012
67464W        W39889   6.176  40.289  12.917
67465W        W39890  35.949   9.728  11.030
67466W        W39891  25.018  15.129   2.360
67467W        W39892  38.965   8.675   0.949
67468W        W39893  28.202  42.459  11.462
67469W        W39894  25.019  13.622   3.356
67470W        W39895   8.840  23.154   4.379
67471W        W39896   8.173   0.075   1.838
67472W        W39897  33.446  38.142   4.869
67473W        W39898  34.149  31.584   4.186
67474W        W39899  16.605  41.443   4.998
67475W        W39900   6.662   0.486   0.713
67476W        W39901  30.028   8.134   0.902
67477W        W39902  30.564  19.564   0.280
67478W        W39903   9.808   4.009  13.795
67479W        W39904  26.468  25.661  13.318
67480W        W39905  24.400  22.890   1.970
67481W        W39906  30.016   6.358   2.353
67482W        W39907  10.429  44.818  10.621
67483W        W39908   2.670   6.170  14.867
67484W        W39909   2.472  22.668   4.373
67485W        W39910  28.013  30.915   4.614
67486W        W39911  27.972   7.740   0.860
67487W        W39912   1.206  23.220  13.081
67488W        W39913   9.460  11.632  13.567
67489W        W39914   3.285  44.536   4.537
67490W        W39915  44.606   7.199   2.149
67491W        W39916  23.512  20.462   4.008
67492W        W39917  34.501   7.770   3.834
67493W        W39918  24.201  10.911   3.896
67494W        W39919  20.563  44.994  13.404
67495W        W39920  36.449  36.825   1.173
67496W        W39921  14.833  44.237   0.675
67497W        W39922  24.180  32.854   2.630
67498W        W39923  44.550  18.361   4.958
67499W        W39924   0.785  29.483  12.842
67500W        W39925   8.413  10.909   4.080
67501W        W39926   8.129  21.563  10.907
67502W        W39927  22.075   7.086   2.186
67503W        W39928  21.484  32.774   2.767
67504W        W39929  29.847  20.012   1.266
67505W        W39930  21.174   0.804  11.513
67506W        W39931  14.763  44.917   2.977
67507W        W39932  33.970  15.666   2.829
67508W        W39933  21.527  20.019   1.332
67509W        W39934  16.856   9.694   4.752
67510W        W39935   8.984  26.854  13.888
67511W        W39936   6.721  27.410   3.957
67512W        W39937   0.757  14.016  10.670
67513W        W39938  39.441  33.075  11.021
67514W        W39939  44.691   1.355  14.417
67515W        W39940  35.896  16.458   4.819
67516W        W39941  15.260   1.681  11.878
67517W        W39942  10.305  24.362  14.250
67518W        W39943   0.756  14.294   0.249
67519W        W39944  21.027  38.523   1.042
67520W        W39945  29.869   7.806  12.855
67521W        W39946  25.276  21.275  11.649
67522W        W39947  40.053  19.591   3.166
67523W        W39948  12.064   9.650  13.822
67524W        W39949  41.323  42.031  14.128
67525W        W39950  31.015  36.046  13.169
67526W        W39951  16.848   8.811   1.352
67527W        W39952  42.939  41.224  14.382
67528W        W39953  17.575  24.156  14.353
67529W        W39954  30.684  42.504  13.401
67530W        W39955  31.828  31.500   0.982
67531W        W39956  42.849   0.325   4.845
67532W        W39957  38.188  30.149  13.510
67533W        W39958   8.354  19.111   3.691
67534W        W39959  43.331  34.353  10.076
67535W        W39960   9.207  13.701   0.986
67536W        W39961  42.512  11.187  13.121
67537W        W39962  34.071   2.316  11.058
67538W        W39963  40.965   5.469  12.589
67539W        W39964  30.202  38.662  14.749
67540W        W39965   7.575  27.965   4.952
67541W        W39966   7.231  13.750  12.179
67542W        W39967  20.660   3.297  14.942
67543W        W39968   6.801  15.649   1.463
67544W        W39969   4.263  37.889  12.910
67545W        W39970  39.316  12.762  13.618
67546W        W39971  23.458   2.480   1.681
67547W        W39972  32.675  11.334   3.021
67548W        W39973  32.864  16.991  13.488
67549W        W39974   5.122  39.597  14.547
67550W        W39975   1.079  26.976   3.215
67551W        W39976   8.884  35.538   3.597
67552W        W39977  37.628   0.090  14.299
67553W        W39978  42.913  26.782  11.594
67554W        W39979   3.288  13.350   2.209
67555W        W39980  39.561   3.229  13.412
67556W        W39981   8.902  25.691  11.966
67557W        W39982  41.554  29.052  11.070
67558W        W39983  34.126  37.558   2.859
67559W        W39984  29.923  35.275  11.561
67560W        W39985  11.151  44.412  11.140
67561W        W39986  43.004  36.315   3.172
67562W        W39987   6.956  33.019  14.313
67563W        W39988  40.979  15.870   2.894
67564W        W39989  41.305  43.906   4.094
67565W        W39990  42.798   9.900  13.171
67566W        W39991  24.107  37.574  11.246
67567W        W39992  24.302  23.639   2.232
67568W        W39993  19.784  15.654  14.878
67569W        W39994  30.588  34.252   3.102
67570W        W39995  40.525   3.526   1.775
67571W        W39996  20.252  25.515   1.805
67572W        W39997  39.882  26.543   1.435
67573W        W39998  36.299  11.048  10.903
67574W        W39999  22.116   9.707  10.185
67575W        W40000   3.007  21.578  13.292
67576W        W40001  37.124  34.582   2.439
67577W        W40002  26.908  29.267  12.974
67578W        W40003   4.597  13.694   4.726
67579W        W40004  26.731  42.781   0.043
67580W        W40005  27.962  33.064   4.604
67581W        W40006  31.702  29.599  12.519
67582W        W40007  21.475  32.122   0.023
67583W        W40008  36.577  12.865  11.174
67584W        W40009  18.821  13.123   1.024
67585W        W40010   1.309  44.917   4.425
67586W        W40011  27.120   0.894  12.010
67587W        W40012  28.745  43.696  14.902
67588W        W40013  35.446  28.131   0.889
67589W        W40014   3.105   8.653  13.318
67590W        W40015  25.443  38.459   2.190
67591W        W40016  23.670  26.262   2.291
67592W        W40017  36.352   3.348   5.180
67593W        W40018   0.507  14.134  12.546
67594W        W40019  38.469   5.649  14.371
67595W        W40020  29.355   2.408  12.033
67596W        W40021  34.649  34.568   0.438
67597W        W40022   3.676   9.267  10.367
67598W        W40023  35.768  31.112  10.425
67599W        W40024  30.629  22.747   3.808
67600W        W40025   9.339   8.100   0.992
67601W        W40026  27.554  14.774   2.881
67602W        W40027  16.137  42.974  13.590
67603W        W40028  39.791  33.443  11.140
67604W        W40029  21.799  35.862  10.610
67605W        W40030  44.018  25.256  12.838
67606W        W40031  26.929   5.720  10.637
67607W        W40032   6.668  38.173   0.224
67608W        W40033  36.442  18.172   0.775
67609W        W40034  14.220   3.407   2.227
67610W        W40035   3.358  32.293  13.858
67611W        W40036   6.605  26.929   1.301
67612W        W40037  43.507  36.953  14.324
67613W        W40038  39.894  23.259  13.014
67614W        W40039  41.839   4.597  11.617
67615W        W40040  44.909  12.708   2.709
67616W        W40041  43.998  21.656   0.421
67617W        W40042  14.658   2.154   4.647
67618W        W40043  22.560  16.341   4.562
67619W        W40044  31.963  27.833  12.094
67620W        W40045  35.530  35.045  14.548
67621W        W40046  19.150  19.646   4.266
67622W        W40047   8.705   4.887  10.499
67623W        W40048  21.277  11.723   4.650
67624W        W40049   7.208  12.823  14.483
67625W        W40050   1.779  30.596  13.944
67626W        W40051  38.288   0.943   3.024
67627W        W40052   5.592  26.641   0.317
67628W        W40053   9.996   6.480   4.029
67629W        W40054   9.922  42.414   2.724
67630W        W40055   4.745  27.011   0.086
67631W        W40056  35.044  37.541  10.078
67632W        W40057  24.419  25.884   1.784
67633W        W40058  42.212  10.156   1.290
67634W        W40059   1.025  32.908   5.046
67635W        W40060  42.563   7.753  11.162
67636W        W40061  38.259  19.963  13.517
67637W        W40062   2.043  22.116   2.289
67638W        W40063  43.986  44.793   3.745
67639W        W40064  25.556  37.940   0.996
67640W        W40065  13.764  36.483  14.358
67641W        W40066  17.104  35.635   0.985
67642W        W40067  26.160   5.194   1.042
67643W        W40068  15.195   2.165  12.071
67644W        W40069  30.171   5.572   4.471
67645W        W40070  19.792  39.494   1.297
67646W        W40071  28.379  14.952  12.636
67647W        W40072   2.834  10.397   0.290
67648W        W40073   3.199  32.608  10.809
67649W        W40074  24.126  13.443   3.173
67650W        W40075  34.040  31.150   2.413
67651W        W40076  20.621  24.166  10.768
67652W        W40077  34.334   2.397   2.217
67653W        W40078  19.728   0.676   0.267
67654W        W40079   1.850  28.643  14.861
67655W        W40080   2.750  15.703   4.316
67656W        W40081   1.937  33.881   0.382
67657W        W40082  20.350  42.339   2.229
67658W        W40083  44.847  38.872  11.344
67659W        W40084  29.876  37.850   2.674
67660W        W40085  20.183   6.847  11.666
67661W        W40086  41.782  27.468  14.204
67662W        W40087  24.134  17.422  13.854
67663W        W40088  14.923   7.699   4.231
67664W        W40089  20.321   7.322  11.566
67665W        W40090   6.590  27.060  12.926
67666W        W40091   0.541  35.896   1.499
67667W        W40092  12.017  38.017  12.081
67668W        W40093   3.055  34.032   3.289
67669W        W40094  44.480   7.712  11.145
67670W        W40095  38.454  38.843  14.534
67671W        W40096   0.419  13.307   2.662
67672W        W40097   4.718  33.533   1.884
67673W        W40098  15.425  37.967  14.797
67674W        W40099  24.783   9.388   2.574
67675W        W40100  28.437  20.010  10.353
67676W        W40101   1.409  13.307  12.899
67677W        W40102  23.733  23.292   0.522
67678W        W40103  17.164  20.183   0.235
67679W        W40104  14.795  17.501   4.177
67680W        W40105  38.543  14.287   0.478
67681W        W40106  29.953  20.774   1.789
67682W        W40107  33.289   9.124   3.219
67683W        W40108  11.751  10.383  14.064
67684W        W40109  28.698  40.534  13.498
67685W        W40110   2.731  31.051  13.539
67686W        W40111   4.351  10.882  11.875
67687W        W40112  28.472  32.638   2.334
67688W        W40113  23.119  43.092   2.654
67689W        W40114   9.272  38.572   3.292
67690W        W40115   5.800  31.620  11.925
67691W        W40116  20.761  14.333  14.359
67692W        W40117   1.642  26.924  14.911
67693W        W40118  12.371  38.366   4.039
67694W        W40119  43.033   3.297  13.779
67695W        W40120  24.307  32.338  10.067
67696W        W40121  16.583  15.266  13.171
67697W        W40122  36.506  34.718   4.699
67698W        W40123  30.005  29.662   3.467
67699W        W40124  35.029   1.960   2.215
67700W        W40125  11.599  37.024   1.288
67701W        W40126  40.863  19.845   1.355
67702W        W40127  21.000  40.947  13.915
67703W        W40128   4.202  20.544  14.350
67704W        W40129   5.825  13.904   0.901
67705W        W40130  34.504  25.083   3.199
67706W        W40131   1.482  30.063  13.355
67707W        W40132  16.021   8.258   1.195
67708W        W40133  41.561  33.510   0.575
67709W        W40134  38.798  22.634   1.342
67710W        W40135  19.280   4.385   2.627
67711W        W40136  30.410  18.483  10.474
67712W        W40137  10.415  20.469   2.178
67713W        W40138  27.049   3.998   4.145
67714W        W40139   4.403   0.345   4.631
67715W        W40140  44.585   8.207  12.025
67716W        W40141  32.054  42.780  14.758
67717W        W40142  44.840   0.416   3.606
67718W        W40143  16.723  37.141   3.179
67719W        W40144   1.638   2.972  14.261
67720W        W40145  14.081  33.309   1.244
67721W        W40146  39.534  12.340  13.038
67722W        W40147  22.715  20.775   1.083
67723W        W40148  21.061   3.141  11.608
67724W        W40149  16.714   9.320   2.241
67725W        W40150  37.026  41.775  10.810
67726W        W40151   1.787  42.872  11.871
67727W        W40152  31.221  33.744  10.719
67728W        W40153  38.217  42.265  11.184
67729W        W40154  12.148  40.505   4.098
67730W        W40155  43.814  19.947  11.414
67731W        W40156  31.836  31.172   0.371
67732W        W40157  18.237   4.267  11.114
67733W        W40158  34.845  12.588  13.275
67734W        W40159   2.934   8.155  13.584
67735W        W40160  40.093  29.458  13.049
67736W        W40161  38.626  29.480  12.865
67737W        W40162   7.909  39.586  11.033
67738W        W40163  40.405  23.236  13.871
67739W        W40164  32.607  29.109   3.174
67740W        W40165  26.723  18.895   4.224
67741W        W40166  12.790  25.024  14.757
67742W        W40167  37.618   9.442   0.992
67743W        W40168  28.949  33.625  11.211
67744W        W40169  29.890  20.476   2.205
67745W        W40170  42.399  31.976  11.973
67746W        W40171  18.807  16.641  12.526
67747W        W40172  12.306   1.985   0.922
67748W        W40173  17.196  30.046  10.725
67749W        W40174   6.803  28.629   1.664
67750W        W40175  28.686  11.697   2.360
67751W        W40176  19.324   7.172   2.347
67752W        W40177  25.773  14.945  11.206
67753W        W40178  32.783  42.648  14.457
67754W        W40179   1.292  19.240   1.705
67755W        W40180  27.874  28.653  13.413
67756W        W40181  27.443  22.480   3.632
67757W        W40182  27.073   7.485  12.758
67758W        W40183   0.889  32.693   2.162
67759W        W40184  30.073  25.021   0.368
67760W        W40185  27.820   7.920  10.570
67761W        W40186  36.679  11.308  11.133
67762W        W40187  44.701  32.949   0.848
67763W        W40188  13.296   0.841   2.603
67764W        W40189  41.692   1.785  14.919
67765W        W40190  32.550   5.202   4.683
67766W        W40191  12.883  10.790   3.730
67767W        W40192  36.806  36.900  12.836
67768W        W40193  26.981   4.662  13.452
67769W        W40194  18.561  28.272   2.242
67770W        W40195  24.084   8.686   3.790
67771W        W40196  19.706  17.879  13.517
67772W        W40197  26.785  24.545  14.870
67773W        W40198   6.036   1.946  14.776
67774W        W40199  12.872  33.956  14.055
67775W        W40200   0.459  24.641  13.890
67776W        W40201  27.915  26.231  13.421
67777W        W40202  42.815   9.190   0.523
67778W        W40203   5.480  33.474   4.161
67779W        W40204  14.752  38.022   2.775
67780W        W40205  20.058   9.903   1.417
67781W        W40206  41.760  32.113   3.990
67782W        W40207  17.276  28.105  11.177
67783W        W40208  14.959   0.197  14.892
67784W        W40209  26.677  38.583   0.622
67785W        W40210  38.126  14.872   3.853
67786W        W40211   6.403  24.462   0.520
67787W        W40212  10.379   7.080  14.297
67788W        W40213   8.212   6.974  13.922
67789W        W40214  10.321   0.391  14.368
67790W        W40215  43.310   7.456  10.704
67791W        W40216   1.487  39.739   1.799
67792W        W40217  26.788  41.777  10.900
67793W        W40218   3.467   9.098   1.404
67794W        W40219   3.005  36.295   4.607
67795W        W40220   7.767  35.755   4.968
67796W        W40221  19.702   7.932   3.805
67797W        W40222  28.892   5.705   0.025
67798W        W40223   7.391  22.122  11.124
67799W        W40224  10.286  13.620   3.757
67800W        W40225  14.608   1.273   0.878
67801W        W40226  36.411  19.819   3.706
67802W        W40227  28.058  35.278  12.489
67803W        W40228  15.306  25.442   0.528
67804W        W40229   1.632  26.451   3.948
67805W        W40230  29.135   8.789   2.738
67806W        W40231   2.309  15.927  12.921
67807W        W40232  19.507  26.712   2.275
67808W        W40233  13.398  21.114   0.212
67809W        W40234   1.827  31.741  10.824
67810W        W40235  21.485  42.464  11.194
67811W        W40236  34.533  32.111   4.174
67812W        W40237  20.103  14.084   2.656
67813W        W40238  36.567  29.446   3.116
67814W        W40239  24.191  32.611  10.910
67815W        W40240  38.778  28.566   3.733
67816W        W40241  43.035  26.978  11.141
67817W        W40242  12.143   3.405  11.497
67818W        W40243  36.811  34.158  11.080
67819W        W40244  15.174  37.122   2.426
67820W        W40245   5.386   8.161   3.731
67821W        W40246  41.121  32.869  12.003
67822W        W40247  11.912  38.923   0.595
67823W        W40248  22.729  15.321  14.371
67824W        W40249   8.916   8.898  13.930
67825W        W40250  42.837  24.463   0.462
67826W        W40251  44.634  14.712   1.780
67827W        W40252  15.513  15.331  10.329
67828W        W40253  23.972  14.220   5.041
67829W        W40254   6.250  43.098   0.566
67830W        W40255  35.824  27.554  13.816
67831W        W40256  37.410  44.451   4.163
67832W        W40257  27.166   4.905  13.026
67833W        W40258   7.458  22.965  10.787
67834W        W40259  30.215  31.065  13.328
67835W        W40260  11.351  20.119   1.952
67836W        W40261   8.818   6.163  13.907
67837W        W40262  39.550   4.976   0.694
67838W        W40263  28.229   4.979  12.546
67839W        W40264  41.520   1.898   4.188
67840W        W40265  17.596  15.031  14.843
67841W        W40266  40.626  15.005  13.944
67842W        W40267  20.461   1.538   1.863
67843W        W40268  32.073  30.468  12.102
67844W        W40269  33.381  31.660   3.763
67845W        W40270  40.960   4.845   0.104
67846W        W40271  20.102  23.514   3.735
67847W        W40272   1.892  25.220   4.568
67848W        W40273   5.722  22.450  10.916
67849W        W40274   8.779   4.641  14.261
67850W        W40275  41.337  41.070  11.396
67851W        W40276  17.733   8.464  13.915
67852W        W40277  11.234  13.893  12.773
67853W        W40278   8.205  14.642   4.193
67854W        W40279  17.063  28.018  14.440
67855W        W40280  11.358  14.218   0.373
67856W        W40281  24.155  26.388  13.884
67857W        W40282  25.139  10.002   0.349
67858W        W40283  33.238  20.733   2.746
67859W        W40284  13.707   1.834   0.138
67860W        W40285  32.345  14.718   3.743
67861W        W40286  18.546  41.001  11.191
67862W        W40287  35.793  29.649  14.737
67863W        W40288  40.331  40.764  11.622
67864W        W40289  43.429  15.157   3.195
67865W        W40290  42.694  15.486  14.056
67866W        W40291   2.972   5.761  13.602
67867W        W40292  19.010  30.998  12.545
67868W        W40293   3.284  10.081  13.104
67869W        W40294   1.298  29.042  12.931
67870W        W40295   9.117  21.224  14.700
67871W        W40296   7.961  31.649  14.821
67872W        W40297  31.603   9.161  14.457
67873W        W40298   0.881  13.528   3.781
67874W        W40299   6.289  10.272   2.139
67875W        W40300  33.898   4.455   1.351
67876W        W40301   5.847   4.182   3.675
67877W        W40302  41.285  25.645   4.544
67878W        W40303  20.549  24.042  13.067
67879W        W40304  18.754  42.813   0.426
67880W        W40305  29.132  28.448   1.724
67881W        W40306  22.837   3.058  12.303
67882W        W40307  33.161  36.029   1.883
67883W        W40308  32.581  26.584   0.640
67884W        W40309  18.721  24.016   3.346
67885W        W40310  44.459   3.671  11.089
67886W        W40311  25.222  20.937   1.163
67887W        W40312  42.553  34.575   0.475
67888W        W40313  21.341  41.949  12.595
67889W        W40314  34.080  16.210  12.950
67890W        W40315  15.589  44.388  13.347
67891W        W40316  19.293   6.183  12.141
67892W        W40317  33.509  16.553   3.556
67893W        W40318  16.621  28.370  14.942
67894W        W40319  25.359  40.381  13.749
67895W        W40320  26.996  11.302  12.965
67896W        W40321   4.192  23.658  11.079
67897W        W40322  34.211  19.029  12.521
67898W        W40323  40.459  18.067  13.052
67899W        W40324   6.071  32.239   2.526
67900W        W40325  33.828  40.823   2.315
67901W        W40326  35.848  25.366  14.580
67902W        W40327  31.588  39.266  14.841
67903W        W40328   5.125  27.504  10.307
67904W        W40329  33.940  27.155  10.848
67905W        W40330  15.627  13.134   4.451
67906W        W40331  10.098  43.953  14.070
67907W        W40332   7.324  30.479  13.163
67908W        W40333   9.686  43.734   2.298
67909W        W40334  41.559  30.139  12.526
67910W        W40335  30.282   4.675   3.766
67911W        W40336   0.771  37.818  12.633
67912W        W40337  10.815  28.147  13.407
67913W        W40338  17.286   3.023  11.142
67914W        W40339   3.028   8.235  10.765
67915W        W40340   0.420  26.896   2.694
67916W        W40341  24.951  34.901   3.835
67917W        W40342  19.063  19.331  11.457
67918W        W40343  21.454  25.410   0.115
67919W        W40344  16.123   7.731  11.791
67920W        W40345  35.514  26.472  13.040
67921W        W40346  43.371  39.058  12.918
67922W        W40347  44.870  38.041   1.480
67923W        W40348   2.806  37.857   3.105
67924W        W40349  40.929  18.957  14.926
67925W        W40350  14.894  39.974   3.599
67926W        W40351  13.712  16.680  10.878
67927W        W40352  15.832  26.441   0.365
67928W        W40353  10.023  17.276   0.768
67929W        W40354   5.769   4.186   4.209
67930W        W40355  30.688  23.372   9.732
67931W        W40356  43.018  26.214   2.714
67932W        W40357  35.086  28.465  12.020
67933W        W40358  15.237  13.244  13.572
67934W        W40359  20.421  37.595  10.227
67935W        W40360  12.156  25.078  10.987
67936W        W40361  24.491  37.201  14.713
67937W        W40362  35.873   0.295  11.220
67938W        W40363   7.208  25.983   0.385
67939W        W40364  32.940  30.373   2.601
67940W        W40365  35.390   5.333   0.354
67941W        W40366  38.608  38.027   4.166
67942W        W40367  30.092  30.090  12.005
67943W        W40368  38.827  14.377  10.301
67944W        W40369   8.858   2.840   0.985
67945W        W40370  11.330  33.584   4.549
67946W        W40371  13.860  42.086  14.444
67947W        W40372   4.327  30.729  14.072
67948W        W40373  34.628  24.281  13.803
67949W        W40374  29.538   3.740   3.370
67950W        W40375  10.263  24.661  11.062
67951W        W40376  16.430  19.140   3.767
67952W        W40377  12.848  34.078   1.896
67953W        W40378  15.503  18.098   2.209
67954W        W40379  35.530  15.278   4.474
67955W        W40380  17.570  40.004   2.674
67956W        W40381  28.748  30.708   0.826
67957W        W40382   6.628  42.989   0.936
67958W        W40383  10.054  19.697   1.852
67959W        W40384   9.762  29.127  12.362
67960W        W40385  12.764   7.867   1.974
67961W        W40386  28.429  13.073  11.899
67962W        W40387   1.851  32.670  14.986
67963W        W40388   3.940  25.907  13.730
67964W        W40389  16.159   8.215  12.146
67965W        W40390  38.929  25.640   3.173
67966W        W40391  26.042  21.977  14.451
67967W        W40392  26.546   9.225  12.456
67968W        W40393  14.304  27.826   0.806
67969W        W40394  33.801  33.129   0.052
67970W        W40395  35.904  35.584  11.614
67971W        W40396  12.214  27.633  12.581
67972W        W40397  19.088  22.101  13.462
67973W        W40398  43.703  11.931   3.745
67974W        W40399   0.873   7.912   0.357
67975W        W40400  10.234  25.602   4.580
67976W        W40401  22.094  27.222   1.350
67977W        W40402  31.413  34.775   0.847
67978W        W40403  15.061  18.176  14.138
67979W        W40404  27.069   6.495   2.241
67980W        W40405  20.006  31.917  14.865
67981W        W40406  21.008  40.986  10.688
67982W        W40407   3.889  39.397   0.129
67983W        W40408   6.375  44.521  12.293
67984W        W40409  36.785  34.910   1.887
67985W        W40410  28.899  41.509   1.924
67986W        W40411   3.194  38.686  14.190
67987W        W40412  25.918  30.964  13.888
67988W        W40413  12.379  16.905  14.720
67989W        W40414  15.390   2.902   3.641
67990W        W40415  41.888  10.848   4.141
67991W        W40416  38.915  25.235   0.605
67992W        W40417  17.248   1.014  12.861
67993W        W40418  23.690  19.925  13.842
67994W        W40419  20.770  17.067   1.881
67995W        W40420  23.640  13.595   3.336
67996W        W40421  38.812  17.667   3.154
67997W        W40422  29.919   2.983  14.793
67998W        W40423  16.865  40.834  11.938
67999W        W40424  14.811   6.212   1.954
68000W        W40425  10.892   6.852   0.290
68001W        W40426  10.369  11.864  10.677
68002W        W40427   4.882  41.430  11.200
68003W        W40428  44.232   6.171  13.000
68004W        W40429  12.298   0.774  14.313
68005W        W40430  10.207  19.866  14.355
68006W        W40431  40.483  18.067   3.713
68007W        W40432  16.848   0.257  14.472
68008W        W40433  35.400   8.790   4.546
68009W        W40434   5.284  28.728   2.161
68010W        W40435  23.422  35.867   3.145
68011W        W40436  10.787  23.311   2.364
68012W        W40437  30.153   8.477   4.277
68013W        W40438  18.217  15.461  10.669
68014W        W40439  23.497  38.429   3.189
68015W        W40440  44.998  29.407  12.133
68016W        W40441  12.453  35.821   1.816
68017W        W40442  19.720  34.461   1.041
68018W        W40443  27.457  40.756  14.862
68019W        W40444   7.410  42.357   4.107
68020W        W40445  42.653   0.356  14.770
68021W        W40446  18.235  44.449   2.230
68022W        W40447  13.408  16.992  11.241
68023W        W40448  40.384  27.928   4.581
68024W        W40449   0.539  35.641  11.296
68025W        W40450  33.956  22.281   0.757
68026W        W40451  17.856   8.219  14.336
68027W        W40452  24.715  14.771  10.724
68028W        W40453   6.293   3.481   2.802
68029W        W40454  42.431   5.148   1.369
68030W        W40455  25.665   7.118   3.273
68031W        W40456  13.858  23.024   2.719
68032W        W40457  20.788   2.809  10.243
68033W        W40458   5.846  11.210   2.912
68034W        W40459  33.033  23.960  11.634
68035W        W40460   5.643  13.140   3.859
68036W        W40461  32.634  34.992   2.748
68037W        W40462  20.806   8.239   3.176
68038W        W40463  18.800  29.284   3.816
68039W        W40464  38.491  15.392  10.865
68040W        W40465   6.103  40.514   4.780
68041W        W40466  30.068  33.094  11.717
68042W        W40467  44.930   9.824   2.642
68043W        W40468  26.010   0.309  14.861
68044W        W40469  17.074  17.180   5.114
68045W        W40470  19.143   8.213   4.726
68046W        W40471  21.115  10.240  13.055
68047W        W40472  26.031   2.033  11.962
68048W        W40473  27.828  24.296   1.254
68049W        W40474  23.465  37.174  13.803
68050W        W40475  20.960   1.449   4.935
68051W        W40476  23.994   3.089  12.091
68052W        W40477  10.464   3.365  12.384
68053W        W40478  21.193  18.590  11.616
68054W        W40479  34.871  44.739   3.201
68055W        W40480   9.424  30.133  11.050
68056W        W40481  15.862  11.730  10.960
68057W        W40482  32.869  31.391  13.148
68058W        W40483  14.375  17.691  13.445
68059W        W40484  35.646  29.510   3.886
68060W        W40485  34.075  12.626   1.503
68061W        W40486   1.566  19.087   4.473
68062W        W40487  10.236  39.930   4.230
68063W        W40488  23.023  34.325  11.426
68064W        W40489  23.688  20.879   2.274
68065W        W40490  14.398  40.956   0.743
68066W        W40491  22.096   5.100   2.374
68067W        W40492  29.703  37.841  11.639
68068W        W40493  41.086  14.961  11.624
68069W        W40494  39.984  17.343   3.594
68070W        W40495  39.426  23.629   0.332
68071W        W40496  36.019  27.988  13.993
68072W        W40497  18.098  24.076  14.372
68073W        W40498  39.502  31.883   2.677
68074W        W40499  25.269  25.028   4.628
68075W        W40500  44.984  16.308  11.400
68076W        W40501  30.187  35.624   4.618
68077W        W40502  14.746  15.234  10.515
68078W        W40503  34.402  40.880   4.621
68079W        W40504  36.154  43.141  10.656
68080W        W40505  30.969   5.775  11.630
68081W        W40506  40.717  37.476  10.830
68082W        W40507  29.083  33.050  12.081
68083W        W40508  29.935  44.920   1.647
68084W        W40509   1.172   2.182   3.741
68085W        W40510  23.150   0.426   1.331
68086W        W40511  24.882  23.353  14.879
68087W        W40512  44.921  43.299   2.005
68088W        W40513   0.776  13.804   3.339
68089W        W40514  35.894  37.067  14.487
68090W        W40515  42.015  34.218  14.841
68091W        W40516  22.550  34.403   4.984
68092W        W40517  32.960  18.788  12.761
68093W        W40518  27.249  39.992  12.393
68094W        W40519  43.947  31.618  14.868
68095W        W40520  26.306  17.655  14.810
68096W        W40521  40.202  42.273   1.232
68097W        W40522   8.658   9.273   4.106
68098W        W40523  27.936  27.846   1.477
68099W        W40524  39.826   6.465   1.161
68100W        W40525  39.386   7.839   1.223
68101W        W40526  16.316   3.567   3.305
68102W        W40527  31.776   4.312  13.827
68103W        W40528  33.181  33.151   3.316
68104W        W40529  34.617  35.665  10.377
68105W        W40530   3.416  19.120   4.345
68106W        W40531  15.142   4.411   3.211
68107W        W40532  16.697   3.962   1.736
68108W        W40533  19.676  19.747  10.887
68109W        W40534  41.999  32.664  11.643
68110W        W40535  14.838   7.927  12.562
68111W        W40536  21.738  11.161   0.995
68112W        W40537  23.509  34.011   2.394
68113W        W40538  34.697   6.742  10.986
68114W        W40539   2.162  10.344   0.921
68115W        W40540  40.365   5.678   3.542
68116W        W40541  31.725   3.867   1.898
68117W        W40542  36.140  36.503  12.527
68118W        W40543  32.853  19.414   2.301
68119W        W40544  31.479  17.685   3.717
68120W        W40545   4.067  39.365  12.490
68121W        W40546  37.909  32.176  12.549
68122W        W40547  23.846  20.349   4.837
68123W        W40548  40.787   1.841   0.938
68124W        W40549  12.736  29.705  10.721
68125W        W40550  12.305   6.796  12.941
68126W        W40551  38.489  23.825  12.900
68127W        W40552  41.565  40.921   0.259
68128W        W40553  13.364  32.866  13.070
68129W        W40554  23.392  16.141   2.782
68130W        W40555  34.921  33.565   2.316
68131W        W40556   3.194  22.520  11.413
68132W        W40557  37.531   2.278  14.897
68133W        W40558  24.830  14.689   2.168
68134W        W40559  22.907  34.937   2.200
68135W        W40560  35.159  10.959   4.081
68136W        W40561  43.033   9.482  12.957
68137W        W40562   4.726  11.010  12.541
68138W        W40563  25.821  41.164   2.443
68139W        W40564  10.900  22.719   4.107
68140W        W40565  44.436  42.836   2.887
68141W        W40566   2.992  35.806   3.616
68142W        W40567  42.429  29.056   4.910
68143W        W40568  25.834  21.585   4.507
68144W        W40569  43.843   1.473   2.374
68145W        W40570  41.821   9.700   4.746
68146W        W40571  29.682  28.657  13.883
68147W        W40572  20.126  23.193   2.893
68148W        W40573  35.664  17.493  11.120
68149W        W40574  39.936  12.082  12.841
68150W        W40575  34.953   1.856  12.993
68151W        W40576   8.841   8.653   0.318
68152W        W40577  31.078  34.423   3.138
68153W        W40578  26.521  44.419  14.906
68154W        W40579  12.549   1.751   3.671
68155W        W40580   3.905   4.867  10.356
68156W        W40581  44.191  36.574   3.555
68157W        W40582   5.710  10.761   2.703
68158W        W40583  44.288  21.544   2.144
68159W        W40584   4.042  24.006  14.858
68160W        W40585   9.749  37.985   4.195
68161W        W40586  29.383  17.979  14.341
68162W        W40587  27.918  32.610   1.511
68163W        W40588  17.640   3.942   2.905
68164W        W40589  41.851  31.789   0.876
68165W        W40590  36.994  40.003  11.568
68166W        W40591   0.084  34.347   4.860
68167W        W40592  38.344  18.716  11.391
68168W        W40593  33.019  17.652   1.436
68169W        W40594  18.968  27.541  10.736
68170W        W40595   2.387  21.998  14.003
68171W        W40596  43.288  44.910  10.942
68172W        W40597   4.387  13.066  14.521
68173W        W40598  28.044  19.488   3.802
68174W        W40599  38.073   3.221   1.420
68175W        W40600  37.451  19.679  11.915
68176W        W40601  20.622  11.941   1.672
68177W        W40602  37.181   5.862  13.519
68178W        W40603  33.939  19.719  11.818
68179W        W40604  41.178   3.964  12.073
68180W        W40605  35.243  23.536  12.209
68181W        W40606  12.833  42.473  13.177
68182W        W40607  27.634   5.664   2.418
68183W        W40608   9.803  23.108  11.208
68184W        W40609  14.714  34.049   5.335
68185W        W40610  29.961  43.751  12.576
68186W        W40611  16.256  28.098   0.814
68187W        W40612  27.012  38.218   2.345
68188W        W40613  21.005  21.732   1.223
68189W        W40614  11.869   3.362  11.081
68190W        W40615  18.136   5.890   1.683
68191W        W40616  24.728  28.115  10.574
68192W        W40617  16.724  41.419   3.566
68193W        W40618   2.934  36.382   0.374
68194W        W40619  25.157   8.814  14.265
68195W        W40620  42.256  38.035   0.899
68196W        W40621   8.798   3.988  11.425
68197W        W40622  12.764  39.946   1.186
68198W        W40623  18.524  24.366   1.698
68199W        W40624  42.847  15.319  12.596
68200W        W40625  37.697  30.239  13.809
68201W        W40626  17.102  22.672   2.268
68202W        W40627   8.460  31.023  12.472
68203W        W40628   5.288  18.141   2.766
68204W        W40629  31.134  33.845   3.910
68205W        W40630  18.548  31.619   4.398
68206W        W40631  18.812  40.434  13.314
68207W        W40632  22.148  43.652  11.623
68208W        W40633  12.177  15.580  14.500
68209W        W40634  32.820  37.566  10.810
68210W        W40635  15.017   4.696  14.360
68211W        W40636  24.017  15.905  14.421
68212W        W40637  44.722  24.477   3.289
68213W        W40638  25.458  34.010   0.407
68214W        W40639  42.027  33.961  11.944
68215W        W40640  20.362  31.933  12.530
68216W        W40641  25.628  11.121  14.945
68217W        W40642  23.072   7.942   5.048
68218W        W40643  11.954  25.570   3.249
68219W        W40644  22.943  28.049  11.229
68220W        W40645  20.326  37.812   4.067
68221W        W40646   8.149   1.921  14.459
68222W        W40647  10.428  42.798  13.275
68223W        W40648  44.015   0.565   1.773
68224W        W40649  36.414  24.534   4.727
68225W        W40650  13.192  12.190  10.654
68226W        W40651  28.406  17.881  13.540
68227W        W40652  35.866   2.956  12.679
68228W        W40653   9.886  18.871   3.114
68229W        W40654  13.395  43.806  14.500
68230W        W40655   2.497  33.163  11.087
68231W        W40656   7.721  14.236  12.992
68232W        W40657  17.185   9.210  11.004
68233W        W40658  29.000  29.112  10.725
68234W        W40659  33.389  35.433  12.555
68235W        W40660  31.383  16.148   1.778
68236W        W40661  44.215  43.444  12.122
68237W        W40662  37.607  19.816   4.097
68238W        W40663  11.693  26.047   4.286
68239W        W40664  44.080  13.415   0.350
68240W        W40665  20.088   9.859  13.425
68241W        W40666  15.860   0.281  10.579
68242W        W40667  42.054  34.544   0.375
68243W        W40668   8.862  31.604   3.779
68244W        W40669  22.009  17.167  11.082
68245W        W40670  28.534  43.848   4.540
68246W        W40671  40.239  22.652   5.043
68247W        W40672  26.737  24.608  12.641
68248W        W40673  28.036  43.993  11.940
68249W        W40674  37.995  33.499  11.843
68250W        W40675  30.827   1.861  14.051
68251W        W40676  13.202   5.370  13.442
68252W        W40677  28.986  13.132  10.616
68253W        W40678  44.082   8.955   3.832
68254W        W40679  26.358  38.789  11.612
68255W        W40680  43.828   0.314   1.282
68256W        W40681  15.235  14.407  14.070
68257W        W40682   8.194  40.035   0.268
68258W        W40683  23.726  32.621   1.860
68259W        W40684  20.580  29.055  11.837
68260W        W40685   1.461  37.154  12.556
68261W        W40686  41.767  41.885  14.572
68262W        W40687  24.841  18.490   4.129
68263W        W40688  14.146  36.450  11.528
68264W        W40689   8.755  33.923  14.774
68265W        W40690   5.325   5.051   3.615
68266W        W40691   7.389  31.164  10.516
68267W        W40692  22.062   6.222  14.997
68268W        W40693  39.632   6.832  10.993
68269W        W40694  11.300  33.834  12.952
68270W        W40695  31.263  20.661  14.792
68271W        W40696  22.239  11.924   5.555
68272W        W40697  16.384  44.560  12.942
68273W        W40698  28.566  20.139  13.638
68274W        W40699  25.381  20.405   2.472
68275W        W40700  35.877  28.955   3.331
68276W        W40701  40.379  29.114   0.142
68277W        W40702  44.820   7.623   1.935
68278W        W40703  31.662   0.232  10.545
68279W        W40704  26.243  14.739  11.899
68280W        W40705  15.076   5.935   0.822
68281W        W40706  31.593  19.341   1.063
68282W        W40707  26.858  10.357   2.711
68283W        W40708  32.549  43.484  10.850
68284W        W40709  40.944  17.696   3.780
68285W        W40710  37.927   8.410   1.820
68286W        W40711  10.654  19.798   2.738
68287W        W40712  35.238  18.383  14.986
68288W        W40713  12.727  30.231  10.543
68289W        W40714  15.043  12.665  10.653
68290W        W40715  19.037  40.576  12.858
68291W        W40716  18.629  14.248  11.979
68292W        W40717  15.624  35.498   1.443
68293W        W40718  31.350  15.852  11.855
68294W        W40719  12.851  25.521   9.813
68295W        W40720  18.274   9.679   0.363
68296W        W40721  31.584  31.618   0.471
68297W        W40722  43.931  16.228   2.771
68298W        W40723   1.429  24.193   3.624
68299W        W40724  41.320  27.845  12.432
68300W        W40725  16.884  26.037   0.589
68301W        W40726  37.828   0.225  13.843
68302W        W40727  34.727  41.767  13.093
68303W        W40728  34.616  13.632   3.590
68304W        W40729  19.227  36.961   3.165
68305W        W40730  27.771  10.350   3.799
68306W        W40731  27.586   3.146   3.342
68307W        W40732  36.755   9.390  14.052
68308W        W40733  17.118  19.492  13.078
68309W        W40734   2.763  42.137  10.626
68310W        W40735  28.681  26.611   1.905
68311W        W40736   9.011  13.566  14.290
68312W        W40737  16.477  24.378  10.935
68313W        W40738   3.407  35.502  11.916
68314W        W40739  40.368  40.443   4.125
68315W        W40740  13.281  37.095  12.157
68316W        W40741  20.622  23.254  11.643
68317W        W40742  17.962  13.051  14.918
68318W        W40743  11.567  38.548   3.126
68319W        W40744  20.536  39.972   1.448
68320W        W40745  38.503   4.962   2.763
68321W        W40746  35.281  12.636  14.007
68322W        W40747  22.288   1.453   3.721
68323W        W40748  17.357  15.116   3.236
68324W        W40749  36.909  12.729   0.327
68325W        W40750   1.926  22.879  14.793
68326W        W40751   2.335  26.451   0.480
68327W        W40752  16.227  14.843   1.282
68328W        W40753   9.893  20.024   3.816
68329W        W40754  18.283  38.109  13.362
68330W        W40755  25.694   0.639   4.119
68331W        W40756  27.445  27.234  11.636
68332W        W40757   5.173  13.807  10.638
68333W        W40758   7.653  29.146   4.650
68334W        W40759  15.378  14.096   4.102
68335W        W40760  25.436  37.549  13.336
68336W        W40761  16.867  21.293   3.195
68337W        W40762  19.789  20.502  12.033
68338W        W40763  42.920   7.514  10.355
68339W        W40764  26.705  38.028   4.097
68340W        W40765  12.194  37.081   4.829
68341W        W40766  16.789   4.749  14.798
68342W        W40767  39.610  17.602   0.263
68343W        W40768  33.137  30.579   2.135
68344W        W40769  42.779  23.239  14.259
68345W        W40770   9.333   1.308   4.960
68346W        W40771   2.687  44.786  13.603
68347W        W40772  21.613  30.910  13.102
68348W        W40773  19.005   0.873  12.479
68349W        W40774  36.078   3.642   2.716
68350W        W40775  20.563  39.331  13.559
68351W        W40776  39.157  40.437  13.049
68352W        W40777   6.167  14.640   4.013
68353W        W40778  16.261  19.776  13.384
68354W        W40779  32.429  32.068   0.445
68355W        W40780  15.939   7.425  11.362
68356W        W40781  29.703  12.748  14.466
68357W        W40782   6.824  36.382   3.204
68358W        W40783  24.654  24.024   1.028
68359W        W40784  12.155   1.845   3.296
68360W        W40785  26.452  24.084   4.538
68361W        W40786  39.063  12.578   2.678
68362W        W40787  29.755  44.548   3.329
68363W        W40788  19.271  22.049   0.994
68364W        W40789  25.964  35.047  12.855
68365W        W40790  34.082  42.531  12.073
68366W        W40791   9.824  19.714   4.249
68367W        W40792  22.454   0.796  13.978
68368W        W40793  22.295  10.675   4.613
68369W        W40794   2.819  15.700   3.159
68370W        W40795  26.187   8.772  10.648
68371W        W40796  18.061   5.895   2.717
68372W        W40797  30.211  17.465  11.576
68373W        W40798  20.637   4.863  14.151
68374W        W40799  34.466  20.684  13.305
68375W        W40800  29.327   9.993   1.231
68376W        W40801  36.107  38.013   2.797
68377W        W40802  40.007   4.197   2.755
68378W        W40803   3.458   0.910   0.637
68379W        W40804  18.562  22.975  10.731
68380W        W40805  22.292  15.890  10.642
68381W        W40806  44.759  31.440   1.386
68382W        W40807   1.983  20.042   2.722
68383W        W40808  10.245  14.722   4.469
68384W        W40809   0.612  41.965  13.453
68385W        W40810  27.717  22.194  13.825
68386W        W40811  22.193  23.024   4.166
68387W        W40812  11.917  22.659   3.121
68388W        W40813  17.087  36.755  10.678
68389W        W40814  32.364  36.513   3.595
68390W        W40815  21.305   0.563   0.487
68391W        W40816   4.252  25.142  14.248
68392W        W40817   6.370   4.579   3.758
68393W        W40818  22.751  44.232  12.492
68394W        W40819  44.848   8.298  10.729
68395W        W40820  41.832   1.026  13.554
68396W        W40821  42.254  39.860  11.349
68397W        W40822   9.952  20.949  14.524
68398W        W40823  25.074   2.455  11.102
68399W        W40824  17.287  24.170  13.898
68400W        W40825  30.932  31.304   2.748
68401W        W40826  23.037  30.918   2.410
68402W        W40827  42.870  31.425  12.620
68403W        W40828  38.440   6.005   0.681
68404W        W40829   4.884  37.919   1.743
68405W        W40830  43.020   3.022   1.273
68406W        W40831   0.253  43.505   4.331
68407W        W40832   2.396  29.217  11.996
68408W        W40833   4.515  32.062  12.805
68409W        W40834   6.349  23.143  14.055
68410W        W40835  19.510   4.649  10.629
68411W        W40836  24.117  41.858   2.244
68412W        W40837   9.426  41.080  10.663
68413W        W40838  11.653  10.299  14.633
68414W        W40839  30.782  40.847  13.074
68415W        W40840  40.501   0.065   4.041
68416W        W40841   9.642  26.722  10.603
68417W        W40842  39.829  29.929   1.011
68418W        W40843  29.564  25.164  13.050
68419W        W40844  43.553  12.745   2.339
68420W        W40845   7.444   4.198  14.308
68421W        W40846  32.856  44.738   2.185
68422W        W40847   1.884  43.538  10.671
68423W        W40848  35.162  23.111   0.225
68424W        W40849  11.546   1.518  12.510
68425W        W40850  12.320  40.524   1.755
68426W        W40851  36.115  24.949  10.531
68427W        W40852  21.545   8.872   0.449
68428W        W40853  38.819   3.592  12.954
68429W        W40854  20.272   8.261  12.964
68430W        W40855   7.331  17.890  14.671
68431W        W40856  30.927  22.252   2.752
68432W        W40857  25.185   8.740   0.626
68433W        W40858  39.034  15.292  12.562
68434W        W40859  38.462  13.688  13.069
68435W        W40860  41.732   7.753   4.449
68436W        W40861  14.146   0.408  12.541
68437W        W40862  29.927  24.978  12.199
68438W        W40863  11.498  21.679  10.104
68439W        W40864  43.323  12.917  11.027
68440W        W40865  12.978   4.804  10.171
68441W        W40866   8.689  27.261  14.508
68442W        W40867   7.719  25.270  13.029
68443W        W40868  36.585   5.872  11.083
68444W        W40869  23.126  32.867  11.602
68445W        W40870  15.593  30.107  13.773
68446W        W40871  16.066  20.057   2.736
68447W        W40872  32.082  17.808   1.436
68448W        W40873  20.792  12.608  12.448
68449W        W40874   7.567  37.041   1.892
68450W        W40875  16.087  21.752   2.197
68451W        W40876  38.355  27.181  11.509
68452W        W40877   8.006   2.775   3.023
68453W        W40878  17.081  34.105   3.657
68454W        W40879  19.128  14.316  11.740
68455W        W40880  28.997  12.777  12.490
68456W        W40881  37.867  26.520   0.952
68457W        W40882  14.062   6.122  12.504
68458W        W40883  14.759  37.747   4.133
68459W        W40884  44.665  22.255  11.490
68460W        W40885  17.457  25.653   2.710
68461W        W40886  17.983  12.732   2.240
68462W        W40887  17.739   5.352   1.293
68463W        W40888  43.027  43.735  14.344
68464W        W40889   0.049  30.476   3.699
68465W        W40890   6.701  10.971  10.760
68466W        W40891  13.253  21.817  14.498
68467W        W40892  38.736   1.757   3.158
68468W        W40893  16.969   8.671   3.711
68469W        W40894  40.027   9.101   2.331
68470W        W40895  16.254   0.315   4.616
68471W        W40896  31.103  32.701  12.802
68472W        W40897   2.347   6.336  13.555
68473W        W40898  27.007  21.296   1.694
68474W        W40899  24.190   9.872  12.094
68475W        W40900  25.233   2.784  13.348
68476W        W40901   3.267  36.935   3.062
68477W        W40902   5.461   0.795  13.809
68478W        W40903   4.871  22.038  13.036
68479W        W40904  42.781  15.061   4.513
68480W        W40905   4.913  38.080   1.250
68481W        W40906  31.662  32.015  11.191
68482W        W40907  42.357   4.854   0.913
68483W        W40908  37.907  24.076   5.133
68484W        W40909   1.966  19.229   2.483
68485W        W40910  44.209  14.190  10.745
68486W        W40911  40.857   0.023   0.293
68487W        W40912  20.677   2.226   0.849
68488W        W40913  29.837   9.953  12.850
68489W        W40914   7.818  16.075  11.548
68490W        W40915  16.514  16.434   2.599
68491W        W40916  10.735  23.547  13.255
68492W        W40917  25.751  34.802  13.826
68493W        W40918  26.964  28.382   5.004
68494W        W40919  22.687  33.595  11.988
68495W        W40920  19.720  35.723  13.629
68496W        W40921  22.975  15.864   2.588
68497W        W40922  32.279  23.575  14.312
68498W        W40923  32.319  11.491   2.173
68499W        W40924  23.011  24.726   3.150
68500W        W40925   7.672  40.075  11.047
68501W        W40926   2.663  38.910   2.688
68502W        W40927   4.226  18.115   2.549
68503W        W40928  31.078   3.401  11.348
68504W        W40929  25.221  34.607  12.340
68505W        W40930  36.662   5.031  14.989
68506W        W40931   9.694  10.326   1.188
68507W        W40932  28.808  32.596   0.344
68508W        W40933   7.808  26.251   4.166
68509W        W40934  26.752  41.482   2.836
68510W        W40935  11.257  14.061  14.849
68511W        W40936  17.916  17.223   0.340
68512W        W40937  15.979  18.150  11.318
68513W        W40938  15.725  36.286   4.516
68514W        W40939  38.550   1.707  10.206
68515W        W40940  17.571  31.770  11.923
68516W        W40941  40.943  21.628   3.595
68517W        W40942  10.216  23.729  12.129
68518W        W40943  30.552   0.442   0.699
68519W        W40944   5.406  14.746   0.862
68520W        W40945   6.321  29.891   0.403
68521W        W40946  31.818  13.701  13.816
68522W        W40947   4.287   3.654  13.017
68523W        W40948  44.345  42.363  14.746
68524W        W40949  20.615  16.806   4.816
68525W        W40950   6.920  17.302  14.027
68526W        W40951   3.844   5.875  13.347
68527W        W40952  21.011  42.308   2.820
68528W        W40953  31.926   2.755  12.408
68529W        W40954  15.243  25.532   1.383
68530W        W40955  17.080  38.136   0.702
68531W        W40956  30.451  21.588   1.469
68532W        W40957  15.296   6.258  12.938
68533W        W40958  36.237   8.254  13.145
68534W        W40959  39.023   9.913   1.891
68535W        W40960  21.036  15.539   0.745
68536W        W40961  27.147  13.185  13.931
68537W        W40962  13.433   9.454   2.216
68538W        W40963  43.168   7.413  14.483
68539W        W40964  14.112   0.421  11.180
68540W        W40965  36.174  32.058   1.742
68541W        W40966  12.276  25.971   2.640
68542W        W40967  19.305  40.065   2.539
68543W        W40968  14.182  21.215  11.092
68544W        W40969  18.220   2.984   3.670
68545W        W40970  35.905   8.950   4.513
68546W        W40971  42.320   2.676  11.156
68547W        W40972  19.101  10.135  13.349
68548W        W40973  18.900  31.045  13.787
68549W        W40974  33.908  19.970  13.458
68550W        W40975  39.877  23.199  14.221
68551W        W40976  24.556  42.268  11.906
68552W        W40977  25.067   2.402  12.158
68553W        W40978  31.033   5.719   3.310
68554W        W40979  44.059  16.133  13.594
68555W        W40980  13.988  31.183  11.787
68556W        W40981  35.540  19.135   3.304
68557W        W40982  13.341  33.440   0.491
68558W        W40983  39.144   3.526  13.375
68559W        W40984  23.055  21.281  12.011
68560W        W40985   2.520  13.154  11.715
68561W        W40986  11.283  10.673  14.567
68562W        W40987  26.874  39.958   3.807
68563W        W40988  42.063  23.659  11.912
68564W        W40989  27.190  38.341  10.985
68565W        W40990  19.711   9.723  11.036
68566W        W40991  20.611  39.361   0.712
68567W        W40992  15.810  10.270   2.706
68568W        W40993  10.695  36.161   1.776
68569W        W40994  32.633  22.294  12.682
68570W        W40995  17.767  34.660   4.320
68571W        W40996  17.229  13.288  11.136
68572W        W40997   7.893  40.960  14.201
68573W        W40998  40.835  31.950   4.587
68574W        W40999  19.332   3.805  10.424
68575W        W41000  28.927  23.579  12.486
68576W        W41001   4.388  26.061  11.033
68577W        W41002  40.207  15.242   4.158
68578W        W41003  34.121  37.542   2.333
68579W        W41004  18.106  41.496  11.270
68580W        W41005  12.882  32.930   4.044
68581W        W41006  21.394  12.311  14.785
68582W        W41007   5.906   0.670   4.370
68583W        W41008  34.915  27.686  14.460
68584W        W41009  17.715  39.358   3.140
68585W        W41010  20.638   9.870   3.574
68586W        W41011  28.648   1.456  12.990
68587W        W41012   4.054   2.470   4.449
68588W        W41013  32.315  39.548   2.273
68589W        W41014  43.839  14.961  14.270
68590W        W41015  13.599  29.991  10.835
68591W        W41016  39.113  27.093   4.926
68592W        W41017   9.724  32.006   3.716
68593W        W41018   2.675  35.374  12.389
68594W        W41019  30.438  14.233   4.618
68595W        W41020  27.775  26.007   2.858
68596W        W41021  42.506  29.980   4.364
68597W        W41022  44.876  36.770   0.706
68598W        W41023  24.586  24.745  13.376
68599W        W41024  32.930  29.577   4.488
68600W        W41025  42.850  14.178   2.676
68601W        W41026  42.103  33.809  13.628
68602W        W41027  12.353   5.953  11.214
68603W        W41028  29.074  13.634   4.179
68604W        W41029  41.790  23.662   4.124
68605W        W41030   1.458  14.082   1.337
68606W        W41031  40.854  20.238   4.565
68607W        W41032   7.405  19.505  11.992
68608W        W41033  38.918   8.447   4.136
68609W        W41034  21.345  26.503  10.944
68610W        W41035  19.517  10.448  13.450
68611W        W41036  21.694  24.661   5.017
68612W        W41037  44.321  41.503   0.364
68613W        W41038  41.262   5.881   3.390
68614W        W41039  14.261  36.034  12.494
68615W        W41040   6.022   6.863   0.308
68616W        W41041   7.133  20.141  10.655
68617W        W41042   6.846  34.332   0.711
68618W        W41043   8.789  23.285   0.272
68619W        W41044  18.267   2.896   0.970
68620W        W41045  30.417  42.325  13.812
68621W        W41046  10.700  25.823   2.402
68622W        W41047  38.072   3.180   4.207
68623W        W41048   8.654  35.193   3.286
68624W        W41049  39.590  37.617   0.959
68625W        W41050  15.300  24.432   1.892
68626W        W41051   4.938  38.071   2.258
68627W        W41052   2.755   9.910  13.837
68628W        W41053  30.442  19.077   0.905
68629W        W41054   6.746  34.850  14.913
68630W        W41055   6.695   8.765  11.157
68631W        W41056  28.569  31.476  10.673
68632W        W41057   1.622  19.669  13.020
68633W        W41058  17.392   2.958   4.690
68634W        W41059   4.227  44.769  11.662
68635W        W41060  37.968  10.542   4.517
68636W        W41061  40.457  39.586   1.705
68637W        W41062  25.981  35.114   1.265
68638W        W41063  24.444  40.487  13.453
68639W        W41064  19.347   4.330  12.982
68640W        W41065   3.909  30.507   3.275
68641W        W41066  20.277  25.446  13.704
68642W        W41067  37.791  40.547  14.904
68643W        W41068  21.423  17.949   5.089
68644W        W41069  41.523   4.976  11.662
68645W        W41070  13.303  11.688   0.763
68646W        W41071  12.260  23.736   0.169
68647W        W41072  25.377  19.749  13.391
68648W        W41073  32.864  16.205   0.525
68649W        W41074   8.310  25.799   0.814
68650W        W41075   1.043  36.996   4.527
68651W        W41076  16.246  40.258  10.390
68652W        W41077  23.111  28.871   1.311
68653W        W41078  40.632  22.739  11.701
68654W        W41079  19.887   8.651  14.244
68655W        W41080  23.781  29.088   4.521
68656W        W41081  33.324   2.702  13.828
68657W        W41082  32.537   2.066   3.728
68658W        W41083  27.650  11.394   2.423
68659W        W41084  13.399  10.992  11.149
68660W        W41085  11.698   5.837  10.709
68661W        W41086  18.542  20.490   2.775
68662W        W41087  32.074  37.957  10.627
68663W        W41088  26.965  33.570  10.973
68664W        W41089   4.702  30.417   1.419
68665W        W41090   3.027   5.354  13.904
68666W        W41091  10.877   4.587  10.673
68667W        W41092   5.230  39.480   1.738
68668W        W41093   8.211  27.923   2.850
68669W        W41094   0.244  22.599  14.973
68670W        W41095   9.837  30.722  11.573
68671W        W41096  25.539   9.281  11.444
68672W        W41097   1.040   2.344   0.653
68673W        W41098   7.864  12.617   4.710
68674W        W41099  10.503   9.357   0.614
68675W        W41100  21.465   3.798  13.462
68676W        W41101  42.148   5.443   1.865
68677W        W41102  35.434  18.603  10.629
68678W        W41103  27.436   3.059  12.962
68679W        W41104   4.344  25.961  10.523
68680W        W41105  27.169  30.370   1.434
68681W        W41106  24.471  26.575   4.604
68682W        W41107  42.408  23.666   3.416
68683W        W41108  34.659  18.902   4.237
68684W        W41109   5.051  31.489  10.217
68685W        W41110   7.756  31.405   4.257
68686W        W41111  25.499  36.627  14.367
68687W        W41112  29.013   3.613   1.657
68688W        W41113  40.345   2.429  12.918
68689W        W41114  35.401  41.542   1.188
68690W        W41115  38.591  19.494   0.789
68691W        W41116   3.342   7.841   0.940
68692W        W41117  34.363  13.910  14.401
68693W        W41118   4.484  29.441   1.650
68694W        W41119  21.608  27.936   3.324
68695W        W41120  36.713  21.922  10.678
68696W        W41121  18.834  19.343   0.836
68697W        W41122  22.023  29.410   1.745
68698W        W41123  24.071  11.801   3.555
68699W        W41124  34.113  38.382  14.826
68700W        W41125  17.323  36.863  14.875
68701W        W41126  33.414  41.832   4.168
68702W        W41127   4.941  17.394   2.400
68703W        W41128  20.128   5.839   4.657
68704W        W41129  26.508  21.013   2.780
68705W        W41130  14.394   2.974  11.218
68706W        W41131  26.139  22.985   0.307
68707W        W41132   6.777  43.931   4.385
68708W        W41133  33.535  33.685   4.484
68709W        W41134  14.586  23.966   1.469
68710W        W41135  18.866  21.297  12.735
68711W        W41136  21.093  12.259   9.553
68712W        W41137  17.010  34.939  14.978
68713W        W41138  33.458  28.085   0.794
68714W        W41139  14.377  36.383   2.418
68715W        W41140  26.108  41.075   0.251
68716W        W41141  22.135  30.496   3.654
68717W        W41142   3.566  24.967  13.447
68718W        W41143  33.812  26.776   1.336
68719W        W41144  26.952  20.684  10.325
68720W        W41145  41.549  36.715  12.918
68721W        W41146  28.659  39.871   4.629
68722W        W41147  12.601  27.088  13.449
68723W        W41148  16.196  12.058   1.820
68724W        W41149   1.877  30.446  12.131
68725W        W41150  30.192   6.445  12.864
68726W        W41151  32.628   1.182   4.210
68727W        W41152  10.304   4.927   4.120
68728W        W41153  36.851   7.096  12.383
68729W        W41154  43.374  29.074   2.833
68730W        W41155  14.278  44.452  10.690
68731W        W41156   4.698  35.520  11.437
68732W        W41157  41.653   6.453  11.665
68733W        W41158  25.084  28.501   2.010
68734W        W41159   6.285  43.466  12.456
68735W        W41160  14.589  31.123   0.809
68736W        W41161  34.055  32.816  13.926
68737W        W41162  25.948   2.745  12.052
68738W        W41163  32.095   1.825  12.551
68739W        W41164  23.330  38.712  13.020
68740W        W41165  13.521  24.504  13.273
68741W        W41166   1.789  43.972  10.943
68742W        W41167   2.491  19.023   4.245
68743W        W41168   5.675  38.887  11.991
68744W        W41169   7.939  29.603  14.285
68745W        W41170   6.268  41.324   2.192
68746W        W41171  17.613   2.886   0.825
68747W        W41172  39.062  29.645  14.930
68748W        W41173   3.998  34.046  14.347
68749W        W41174  14.052  28.695   0.098
68750W        W41175  43.532  20.332   4.972
68751W        W41176  35.949  33.056   1.435
68752W        W41177  22.000  44.742  12.500
68753W        W41178   6.043  26.547   2.113
68754W        W41179  19.669  17.298  10.684
68755W        W41180  32.655  12.334   3.680
68756W        W41181  23.633   9.409   0.334
68757W        W41182   8.769  13.582   0.339
68758W        W41183   6.597  20.493   3.793
68759W        W41184  21.355  30.504   2.240
68760W        W41185   8.453   3.323  12.499
68761W        W41186  41.806   9.257   3.258
68762W        W41187   9.583  39.833  14.440
68763W        W41188  40.247  37.020   0.842
68764W        W41189   7.204  29.180  12.414
68765W        W41190  23.472  41.487   1.381
68766W        W41191  15.786   9.340   2.695
68767W        W41192  27.211  43.221   3.253
68768W        W41193  37.323  43.341  14.891
68769W        W41194   5.176  43.034  13.856
68770W        W41195  20.374  41.841   2.452
68771W        W41196   2.232  12.137  10.432
68772W        W41197  21.997  18.127  11.453
68773W        W41198  27.900   2.117  13.002
68774W        W41199  14.622   8.692  12.988
68775W        W41200  34.445   0.183   0.584
68776W        W41201  38.886  43.630  14.792
68777W        W41202  20.285  20.885   3.646
68778W        W41203  29.756  23.643   1.830
68779W        W41204   6.258   4.339   0.504
68780W        W41205  32.484  18.671   1.356
68781W        W41206  33.645  19.536  10.581
68782W        W41207  22.723  44.329   1.053
68783W        W41208  38.128  41.545  12.850
68784W        W41209  36.538   9.716   4.250
68785W        W41210  20.300   3.531   1.224
68786W        W41211  20.509  42.175  13.185
68787W        W41212   2.692  32.400  11.701
68788W        W41213   7.378  32.958   0.493
68789W        W41214   6.755  31.894  10.569
68790W        W41215  44.255  34.946   5.101
68791W        W41216  44.105   2.622   0.098
68792W        W41217  15.036  21.478   3.053
68793W        W41218  28.065   2.240  12.521
68794W        W41219  25.499  14.326   0.460
68795W        W41220  33.552  35.402   4.970
68796W        W41221   5.941  28.506  13.322
68797W        W41222  41.738  40.319   1.758
68798W        W41223  26.581  23.233   3.461
68799W        W41224   1.365  26.872   2.809
68800W        W41225  23.530   9.469  13.009
68801W        W41226  15.872  18.338   3.196
68802W        W41227  44.784  28.974  10.767
68803W        W41228  41.113   8.713  11.897
68804W        W41229  12.690  39.634  11.634
68805W        W41230  15.749  36.642   2.775
68806W        W41231  37.110   0.519   2.640
68807W        W41232  11.548  14.719   3.159
68808W        W41233   8.633  22.105  14.944
68809W        W41234  27.381  43.999  12.532
68810W        W41235  29.535  21.073   0.011
68811W        W41236   5.449  17.207  11.984
68812W        W41237  34.390  16.900  12.895
68813W        W41238  43.043   9.925  11.624
68814W        W41239  34.642   0.677   3.593
68815W        W41240  13.834  29.671  13.510
68816W        W41241  41.003  27.949   1.137
68817W        W41242  28.952  21.823   4.144
68818W        W41243  42.904  22.704  12.495
68819W        W41244  21.032   1.043   3.198
68820W        W41245  16.813  33.520   0.258
68821W        W41246  25.265  14.007   3.602
68822W        W41247  43.516  12.281  14.991
68823W        W41248  11.249   1.938  12.992
68824W        W41249  19.733   8.450   3.687
68825W        W41250  27.971  21.721  14.372
68826W        W41251  36.784  26.458   3.264
68827W        W41252  26.037  25.752  12.939
68828W        W41253  37.409  33.171  12.852
68829W        W41254  13.698  32.472  10.548
68830W        W41255  37.626  25.247   0.696
68831W        W41256   1.059   4.867  11.199
68832W        W41257  42.055  36.504   4.242
68833W        W41258  17.173   3.939   3.141
68834W        W41259  44.768  36.546   1.732
68835W        W41260  34.090  18.206  12.360
68836W        W41261  13.349  22.731   2.248
68837W        W41262  40.572  33.133   1.439
68838W        W41263  31.867  36.471   1.809
68839W        W41264  21.791  23.873  14.834
68840W        W41265  39.417   4.334  11.388
68841W        W41266  30.752   0.986   2.670
68842W        W41267  21.711  42.883  14.012
68843W        W41268   0.445   2.065  13.490
68844W        W41269  15.086   6.740  12.934
68845W        W41270  25.608  30.434   0.318
68846W        W41271  36.606  27.228  11.545
68847W        W41272  31.158  22.683  14.713
68848W        W41273  41.730  17.731  14.589
68849W        W41274   8.350  27.523   0.345
68850W        W41275  43.885   5.045   3.499
68851W        W41276  21.485  18.810  12.502
68852W        W41277  10.255  36.521   4.513
68853W        W41278  18.723   0.929   1.305
68854W        W41279  28.081   0.255  11.524
68855W        W41280  42.161  39.602   4.960
68856W        W41281  31.490   2.467   0.503
68857W        W41282   9.185   8.636  12.160
68858W        W41283  27.097   4.181   2.360
68859W        W41284  19.056  13.150  13.767
68860W        W41285  14.250  38.786  14.655
68861W        W41286  42.295   5.794  10.483
68862W        W41287  15.380  24.176  11.518
68863W        W41288  44.325   7.896   0.796
68864W        W41289  14.373   6.526  14.474
68865W        W41290  24.619  44.061  13.377
68866W        W41291  35.889  13.236   3.683
68867W        W41292  14.135  10.283   0.726
68868W        W41293  28.061   3.238  11.570
68869W        W41294  29.955   3.320  10.578
68870W        W41295   7.141  39.800   1.834
68871W        W41296  22.599   7.834   0.229
68872W        W41297  29.498  32.131  13.052
68873W        W41298  18.585  25.158   9.899
68874W        W41299  13.914  23.974   2.573
68875W        W41300  15.987  39.408   0.819
68876W        W41301   8.739   0.687   1.262
68877W        W41302  17.856  21.430   2.305
68878W        W41303  40.888  18.291  12.861
68879W        W41304  30.390  35.405  10.743
68880W        W41305  11.702  22.662  13.442
68881W        W41306   7.105   8.257  13.913
68882W        W41307  32.531  42.965  14.794
68883W        W41308  23.085  23.572  14.801
68884W        W41309   2.890  33.095  14.715
68885W        W41310   8.372  20.166   2.208
68886W        W41311   0.445  40.069   4.306
68887W        W41312  22.532  29.059  13.019
68888W        W41313   6.172  26.202   1.276
68889W        W41314  43.661  22.789  10.086
68890W        W41315   1.766  12.284  14.219
68891W        W41316  30.981   6.414  11.196
68892W        W41317  44.441  38.656  11.535
68893W        W41318   7.314   6.906  10.782
68894W        W41319   5.939   4.949  11.603
68895W        W41320   0.388  29.410  14.538
68896W        W41321   1.012  15.649   2.254
68897W        W41322  13.756  19.456  14.997
68898W        W41323  13.709  16.882  14.791
68899W        W41324   9.916   7.246   4.974
68900W        W41325   8.933   7.194   0.722
68901W        W41326  10.778  35.592   3.724
68902W        W41327  16.039   0.388  14.130
68903W        W41328  26.238  22.932   3.230
68904W        W41329  24.663  30.805   0.987
68905W        W41330  20.273  43.720  11.545
68906W        W41331  22.706  14.624  10.641
68907W        W41332  27.355  42.977   2.331
68908W        W41333  11.775  13.579   4.807
68909W        W41334  38.073   8.223   2.310
68910W        W41335   4.673  19.719   2.791
68911W        W41336  26.391   6.686   0.741
68912W        W41337  25.966  44.616  13.152
68913W        W41338   7.182  13.023  11.140
68914W        W41339  15.581  38.963  11.198
68915W        W41340  11.732  43.390   1.784
68916W        W41341  26.528  26.945   2.184
68917W        W41342  11.316  34.001   4.251
68918W        W41343  38.989  37.902   1.398
68919W        W41344   4.407  20.478  11.408
68920W        W41345  13.716  41.858  10.793
68921W        W41346  30.185  24.696   3.289
68922W        W41347  40.551   8.397   3.481
68923W        W41348   8.387  16.866   1.235
68924W        W41349  14.836  36.853   4.616
68925W        W41350   3.071  14.047  12.364
68926W        W41351  26.976  25.115  12.597
68927W        W41352  19.046  32.058  10.768
68928W        W41353  32.660  19.502  12.090
68929W        W41354   1.016  20.432  13.475
68930W        W41355   6.907   8.397   2.891
68931W        W41356  22.060   3.973   3.587
68932W        W41357  38.067  37.350  14.797
68933W        W41358  27.224  38.938  12.139
68934W        W41359  42.370  29.086  10.715
68935W        W41360  27.596  33.765   1.883
68936W        W41361   7.070  12.711  12.214
68937W        W41362  38.862  28.912   1.274
68938W        W41363  15.296  41.408  12.249
68939W        W41364  14.141  15.824   0.335
68940W        W41365   9.876  17.971  11.875
68941W        W41366  22.330  12.393  10.230
68942W        W41367  23.996   4.753  14.433
68943W        W41368  31.970  39.525  12.891
68944W        W41369  28.635  13.056  11.057
68945W        W41370   3.281  31.284   1.789
68946W        W41371  27.952  10.106  13.335
68947W        W41372   3.894   0.013   1.869
68948W        W41373  31.418  26.169   4.373
68949W        W41374  34.007  36.424  13.780
68950W        W41375  25.280  10.589  11.117
68951W        W41376  37.908  29.893   2.914
68952W        W41377  38.334  21.843  12.061
68953W        W41378  19.355  22.647   0.299
68954W        W41379  40.277  28.631  13.177
68955W        W41380  13.323  42.896   2.253
68956W        W41381  41.049  34.005   1.727
68957W        W41382  17.418  14.257  11.239
68958W        W41383  12.036   1.350  14.419
68959W        W41384  41.320  20.040  14.293
68960W        W41385  35.370  29.314  14.044
68961W        W41386  12.164   2.793  10.156
68962W        W41387   5.328   1.205  12.580
68963W        W41388  36.260  29.906   1.857
68964W        W41389  24.499   4.156  13.970
68965W        W41390  26.047  31.541   3.185
68966W        W41391  37.389  26.300   2.625
68967W        W41392   7.370  40.095  11.773
68968W        W41393   9.736  41.210  12.978
68969W        W41394  23.529  24.947   3.797
68970W        W41395   2.727  29.240  11.597
68971W        W41396   5.341  18.610  12.614
68972W        W41397  27.379   6.509  10.067
68973W        W41398  19.686  10.695   1.722
68974W        W41399   6.770  41.519  14.873
68975W        W41400   7.594  41.854   1.841
68976W        W41401   6.655  30.637  13.873
68977W        W41402  13.584   9.898   3.310
68978W        W41403  29.952   2.824   4.638
68979W        W41404   1.425  10.694   1.975
68980W        W41405  44.985  28.237   4.145
68981W        W41406  10.857  33.411   1.287
68982W        W41407  16.182  12.876  11.723
68983W        W41408  33.275   5.933  13.740
68984W        W41409  36.226   2.268   0.889
68985W        W41410   4.705  32.344   2.293
68986W        W41411  24.590  35.463   4.622
68987W        W41412   3.362  11.207   2.857
68988W        W41413  29.696  24.461   0.750
68989W        W41414  32.839  28.742   0.839
68990W        W41415  44.928   2.938  13.834
68991W        W41416  31.646   4.207  12.454
68992W        W41417   7.892  19.464  14.793
68993W        W41418   0.234  28.120   4.665
68994W        W41419   5.802   2.726   4.165
68995W        W41420  19.989  44.696  11.524
68996W        W41421  39.077   3.325  14.211
68997W        W41422   8.558  11.775   2.380
68998W        W41423  44.287  22.301  12.497
68999W        W41424  37.335  12.275   1.946
69000W        W41425  15.711  18.802   4.484
69001W        W41426  37.388  12.385  12.000
69002W        W41427  16.197  38.556  12.599
69003W        W41428  32.900  29.100  14.923
69004W        W41429  26.410  23.926  13.842
69005W        W41430  11.658  15.858   2.982
69006W        W41431  10.757  31.355  12.444
69007W        W41432  22.693   6.334   0.798
69008W        W41433  29.122  22.823   3.278
69009W        W41434  31.864  33.506   2.928
69010W        W41435   7.121   9.823  11.645
69011W        W41436  15.322   6.126   3.641
69012W        W41437  15.103   8.982   1.673
69013W        W41438   4.402  41.537  11.137
69014W        W41439  38.019  17.860   1.804
69015W        W41440  14.466  39.670  14.784
69016W        W41441  23.525  12.459  12.243
69017W        W41442   1.883  39.032  11.598
69018W        W41443  26.771  32.599   0.359
69019W        W41444  29.969  11.180   1.191
69020W        W41445  30.425  15.892   3.354
69021W        W41446  34.630  30.157   3.227
69022W        W41447  21.670  23.067   0.898
69023W        W41448   1.044  28.993   4.064
69024W        W41449  28.029   9.644  12.470
69025W        W41450   2.318   8.739   4.053
69026W        W41451  41.730  23.749  10.053
69027W        W41452  40.051  39.920   0.011
69028W        W41453  42.455  27.775   4.595
69029W        W41454  39.056  25.605  14.618
69030W        W41455  26.648  32.499  10.392
69031W        W41456  38.964   9.426   4.004
69032W        W41457  11.210  35.850   4.306
69033W        W41458  12.409  22.484  11.777
69034W        W41459   0.240  26.621  13.470
69035W        W41460  12.498  16.305  12.495
69036W        W41461  19.885   5.813  14.940
69037W        W41462   8.286  14.923  13.782
69038W        W41463  33.434  36.441  12.487
69039W        W41464   5.263  29.688   1.381
69040W        W41465  12.301  15.885   3.326
69041W        W41466  33.904  14.785  11.154
69042W        W41467   7.024  32.634   1.424
69043W        W41468  10.839  16.570  12.422
69044W        W41469  17.105  39.271  14.643
69045W        W41470  24.608  40.141  13.829
69046W        W41471   0.947  33.584  12.662
69047W        W41472  30.152  15.140  11.580
69048W        W41473  28.354   6.792  11.381
69049W        W41474  26.509  13.353  12.516
69050W        W41475  14.104  27.811   2.418
69051W        W41476  39.295  42.476  12.353
69052W        W41477  17.392  37.693  14.410
69053W        W41478  13.089   5.705   0.891
69054W        W41479  37.561  34.504   1.676
69055W        W41480   7.796   3.357  13.240
69056W        W41481   6.694  24.954   1.811
69057W        W41482  26.924  29.112   0.868
69058W        W41483   6.447  17.189  14.922
69059W        W41484  24.075   9.572  14.014
69060W        W41485  18.499  12.259   1.058
69061W        W41486   3.363  41.787   4.701
69062W        W41487   2.494  17.816  13.276
69063W        W41488   0.672  22.812   0.208
69064W        W41489  37.804  17.071   3.924
69065W        W41490  30.838   9.762   4.078
69066W        W41491   3.221  34.228  14.590
69067W        W41492  17.810   9.864   0.860
69068W        W41493   6.737  18.554   3.647
69069W        W41494  24.098  44.800  13.298
69070W        W41495   3.394  42.574  13.921
69071W        W41496  17.099   9.438   0.879
69072W        W41497  11.813  43.349  13.285
69073W        W41498  33.290   2.544   0.978
69074W        W41499  26.574  29.547  13.297
69075W        W41500  27.971  14.359  11.537
69076W        W41501  10.607  38.032  11.818
69077W        W41502  31.928  19.471  11.094
69078W        W41503   7.066  19.123  12.587
69079W        W41504  17.250  18.718  14.269
69080W        W41505  38.037  42.981   1.967
69081W        W41506  39.144   0.975   0.694
69082W        W41507  15.030  36.965  11.216
69083W        W41508  16.277  34.543  14.805
69084W        W41509  38.789   5.096  11.698
69085W        W41510  18.162  32.478   2.689
69086W        W41511   7.840   5.477   1.275
69087W        W41512   5.605   3.026  13.199
69088W        W41513  24.575  23.207   1.328
69089W        W41514  29.560   8.412   0.718
69090W        W41515  22.002  43.716   0.349
69091W        W41516  30.473  22.110  11.041
69092W        W41517  20.260  39.673   2.434
69093W        W41518  31.495  15.377   2.375
69094W        W41519   5.287  21.751   0.684
69095W        W41520   3.177   7.573  12.407
69096W        W41521  42.366  13.616  12.954
69097W        W41522  15.274  12.673  12.856
69098W        W41523  41.979  31.962  12.307
69099W        W41524  22.438  19.182   0.772
69100W        W41525  24.637  40.454   0.773
69101W        W41526  41.291  39.492   2.830
69102W        W41527   9.649   4.662   2.757
69103W        W41528  41.473  15.287   0.464
69104W        W41529  40.302  19.773  10.739
69105W        W41530   6.166   7.084   2.266
69106W        W41531  34.025   4.727  11.081
69107W        W41532   5.398  36.036  14.808
69108W        W41533  34.941  35.960   4.497
69109W        W41534  27.198  38.592  10.535
69110W        W41535   7.669   6.663   3.471
69111W        W41536   4.902  35.803  14.875
69112W        W41537  41.939   1.400  12.850
69113W        W41538   5.361  37.816   2.527
69114W        W41539   8.340  30.940  14.535
69115W        W41540  21.754  34.272  11.164
69116W        W41541  26.018   3.243   2.432
69117W        W41542  36.362   8.297  12.625
69118W        W41543  30.808  27.420   2.171
69119W        W41544  20.323  44.891   3.160
69120W        W41545  27.345  16.778  10.584
69121W        W41546   9.017  34.914  10.866
69122W        W41547  33.079  26.069   0.831
69123W        W41548  20.781  15.239  14.904
69124W        W41549  36.343   5.707   2.889
69125W        W41550  35.982  30.041   2.733
69126W        W41551  43.509  30.376   2.864
69127W        W41552  14.303  34.327   4.264
69128W        W41553  38.388  27.417  12.103
69129W        W41554  43.284  37.000   2.196
69130W        W41555  42.881  21.101  11.533
69131W        W41556  40.493  33.898   2.746
69132W        W41557   6.239  42.289  14.831
69133W        W41558   9.305  10.344   3.116
69134W        W41559   5.641  22.048   0.929
69135W        W41560  17.253  19.187   2.195
69136W        W41561  22.615  28.439   3.106
69137W        W41562   4.737  23.017   1.799
69138W        W41563   0.140   8.421   4.602
69139W        W41564  31.559   9.624   0.747
69140W        W41565  20.567  15.643   0.183
69141W        W41566  40.608  41.379   4.146
69142W        W41567  20.285  16.145   1.973
69143W        W41568  33.320  11.637   1.809
69144W        W41569  43.309   0.114   2.871
69145W        W41570  18.534  32.866   1.131
69146W        W41571  21.560  43.280  11.595
69147W        W41572   1.858  12.809  14.931
69148W        W41573  27.754   5.241  13.527
69149W        W41574   4.247  28.575  11.882
69150W        W41575  32.006   2.251   1.194
69151W        W41576  43.380  17.839  14.575
69152W        W41577   6.143   6.271   4.261
69153W        W41578  28.715  31.071   2.434
69154W        W41579  19.418  31.712  12.909
69155W        W41580  28.385  10.246  14.060
69156W        W41581  10.840  34.949   1.923
69157W        W41582   8.898  37.892   1.347
69158W        W41583  33.910  19.127   0.408
69159W        W41584  23.640  20.149  14.315
69160W        W41585  13.138  19.262  12.572
69161W        W41586  24.275  11.384   3.761
69162W        W41587  38.305  44.731   0.237
69163W        W41588  19.620  17.539  12.042
69164W        W41589   6.457  32.583   3.949
69165W        W41590  10.143   0.329   3.613
69166W        W41591  18.478   6.889  14.861
69167W        W41592  11.815  24.734  12.760
69168W        W41593  28.542  18.699   2.723
69169W        W41594  12.302  43.609   0.862
69170W        W41595  26.956  13.136  14.984
69171W        W41596  23.241  42.973   3.610
69172W        W41597  33.332  32.123  10.302
69173W        W41598   9.211  23.660  14.711
69174W        W41599   2.325  16.270   3.676
69175W        W41600  36.811   5.498   3.602
69176W        W41601  14.231   9.159   1.143
69177W        W41602  17.694  12.103  13.471
69178W        W41603  11.766  37.173  14.305
69179W        W41604  11.129   2.627   1.190
69180W        W41605   1.642   6.518  14.776
69181W        W41606  15.744   0.371   4.823
69182W        W41607  37.449  11.919   4.182
69183W        W41608  27.253  36.489   1.218
69184W        W41609  30.000  37.647  11.149
69185W        W41610   8.653  28.566   2.364
69186W        W41611  11.866   0.995   3.158
69187W        W41612  24.505   5.414   1.352
69188W        W41613  31.971   7.821   3.430
69189W        W41614  39.884  19.811   0.234
69190W        W41615   2.401  20.274  14.728
69191W        W41616   5.405  32.407  13.481
69192W        W41617  10.477  40.898  13.991
69193W        W41618  19.704   6.259   1.177
69194W        W41619  12.431  25.502   4.533
69195W        W41620   8.331   5.655   2.228
69196W        W41621  20.801  41.405  13.785
69197W        W41622  19.284   0.487  14.469
69198W        W41623  36.835  34.312  11.946
69199W        W41624  22.958  32.082  11.110
69200W        W41625  41.257   4.728   2.326
69201W        W41626  41.124  22.038  12.109
69202W        W41627  20.387  15.340   3.219
69203W        W41628  32.875  43.284   2.121
69204W        W41629  23.537  10.369   1.460
69205W        W41630  10.685  22.027  14.833
69206W        W41631  17.057  40.455   0.749
69207W        W41632  18.135  11.717  12.533
69208W        W41633  18.318  22.679   4.247
69209W        W41634   0.306  22.757  12.098
69210W        W41635   5.419  24.706   2.503
69211W        W41636  44.493  12.711  11.458
69212W        W41637  28.065  18.295  10.979
69213W        W41638  15.517  37.436   0.586
69214W        W41639   9.375  21.239   0.705
69215W        W41640   4.736  40.927   0.424
69216W        W41641  37.925  12.222   3.286
69217W        W41642  14.266  39.440  12.415
69218W        W41643  19.642  39.428  11.575
69219W        W41644   0.052  38.855  13.283
69220W        W41645  10.164  35.534  12.002
69221W        W41646  37.806  13.413   2.608
69222W        W41647  25.495   6.418  13.095
69223W        W41648  19.723   6.674   3.991
69224W        W41649  40.492  36.481  12.410
69225W        W41650  28.953  27.629  12.146
69226W        W41651  36.264  39.626   0.538
69227W        W41652  32.557  31.621   0.226
69228W        W41653  40.506   4.804  13.888
69229W        W41654  11.089  30.419   3.193
69230W        W41655  31.655   6.695  14.019
69231W        W41656   2.272  12.876  12.374
69232W        W41657   4.296  21.152  14.882
69233W        W41658  18.801  28.179  13.474
69234W        W41659  24.092  34.417   0.283
69235W        W41660   9.876  25.214  13.941
69236W        W41661  22.645  43.276   2.468
69237W        W41662  30.875  21.750  14.306
69238W        W41663  26.979  14.346  14.828
69239W        W41664  11.570  19.306  14.835
69240W        W41665   2.937  11.441  11.931
69241W        W41666  42.425  36.603  11.577
69242W        W41667  32.599  10.952   0.737
69243W        W41668  31.513  19.702   0.236
69244W        W41669   8.227  18.217  13.643
69245W        W41670  19.261   2.717   0.206
69246W        W41671   7.285  23.185   0.449
69247W        W41672  35.969  16.991   4.904
69248W        W41673  44.718  21.953   0.279
69249W        W41674   2.250   8.331  11.011
69250W        W41675  15.716  34.946  12.520
69251W        W41676  26.316  22.790   2.709
69252W        W41677  17.568   9.664   1.602
69253W        W41678  11.256  17.808   0.404
69254W        W41679  25.425  12.981  14.950
69255W        W41680   6.173  43.572   3.167
69256W        W41681  33.896  43.268  13.573
69257W        W41682   2.980  35.294   3.672
69258W        W41683  33.019  39.251   1.703
69259W        W41684   6.042  11.444   1.766
69260W        W41685  29.067   6.601  14.497
69261W        W41686  23.126  14.795   2.726
69262W        W41687   2.496  41.813  12.029
69263W        W41688   8.479  14.282  13.387
69264W        W41689  40.030   3.802  12.973
69265W        W41690   4.125  41.370  10.694
69266W        W41691   8.005  33.546  11.559
69267W        W41692   3.751   8.738  14.604
69268W        W41693  41.348  19.523   2.761
69269W        W41694  44.885  22.999  11.949
69270W        W41695  27.998  35.594   4.529
69271W        W41696   3.686  42.659  14.882
69272W        W41697  10.778   6.078  13.433
69273W        W41698  32.990   8.356   2.600
69274W        W41699  37.977  32.410   0.916
69275W        W41700  43.596  16.692   3.847
69276W        W41701   1.707   5.124   1.349
69277W        W41702  11.170  23.489  11.426
69278W        W41703  17.208  21.329   4.046
69279W        W41704  34.311  30.036   1.175
69280W        W41705  40.850   0.464   3.976
69281W        W41706  43.228   4.055  11.576
69282W        W41707  15.362  39.766  12.453
69283W        W41708  24.532  18.164   0.793
69284W        W41709  20.804   5.313   2.214
69285W        W41710  25.399  41.914   2.711
69286W        W41711  23.638  20.588  11.941
69287W        W41712  10.924   9.602   0.431
69288W        W41713  41.073  11.672  12.859
69289W        W41714  18.750  18.104   4.101
69290W        W41715  36.399  19.498  12.006
69291W        W41716  31.011  43.269  14.583
69292W        W41717  35.029   1.862   3.723
69293W        W41718  22.090  19.780   0.321
69294W        W41719  29.590   9.591   3.005
69295W        W41720  32.469  25.427  13.916
69296W        W41721  19.742  11.746  13.722
69297W        W41722  40.770  15.278   1.841
69298W        W41723   1.935   7.911   4.659
69299W        W41724  27.273  13.980   5.030
69300W        W41725  42.319  44.256   0.454
69301W        W41726  18.247  24.518   3.638
69302W        W41727  39.913  30.042  13.829
69303W        W41728  28.910  14.737   3.236
69304W        W41729  24.146  35.984  12.854
69305W        W41730  23.668  10.755   3.854
69306W        W41731  30.692  25.243  10.644
69307W        W41732  26.931   7.430   0.405
69308W        W41733   9.344  34.072   0.699
69309W        W41734  22.894  20.635   0.018
69310W        W41735  10.972  28.124   4.201
69311W        W41736   7.124  17.104   0.914
69312W        W41737  41.150  35.140  14.508
69313W        W41738  12.892  33.698   2.771
69314W        W41739  10.362  12.141  13.836
69315W        W41740  15.700  17.083  12.400
69316W        W41741  26.989   1.479  12.035
69317W        W41742   6.679  36.002  14.229
69318W        W41743   3.498  17.014   2.801
69319W        W41744  16.299   6.845   1.728
69320W        W41745  17.787  25.933  11.465
69321W        W41746   8.092   7.295   1.708
69322W        W41747   7.388  34.676   1.835
69323W        W41748  26.192   2.190   0.299
69324W        W41749  27.242  11.324  12.402
69325W        W41750   0.417  20.673  11.674
69326W        W41751   1.726  18.630   1.804
69327W        W41752   5.324   7.536   4.684
69328W        W41753  15.121  24.643  11.626
69329W        W41754  38.972  13.102   3.332
69330W        W41755   7.225   1.027  12.141
69331W        W41756  11.773  41.264   4.193
69332W        W41757  42.856  16.876  13.452
69333W        W41758  27.128  17.014   0.420
69334W        W41759   7.547  21.937   3.789
69335W        W41760  27.534  34.568  12.220
69336W        W41761   4.757   1.096  13.374
69337W        W41762  41.886   2.355   3.340
69338W        W41763  17.787  10.971   4.485
69339W        W41764  25.490  44.279  12.032
69340W        W41765  16.550  38.868   1.208
69341W        W41766  43.743  36.999   1.298
69342W        W41767  34.046  25.529  13.094
69343W        W41768   2.806  13.235   1.937
69344W        W41769  19.595   2.228   4.593
69345W        W41770  38.059  20.980  14.340
69346W        W41771  39.542  36.839   1.424
69347W        W41772  38.425  27.689  13.845
69348W        W41773  14.282  44.337   4.610
69349W        W41774  21.173   6.678   3.249
69350W        W41775  24.795  31.716   2.125
69351W        W41776  32.014  28.872  10.753
69352W        W41777  43.841   2.199  11.626
69353W        W41778   9.753  32.249  13.448
69354W        W41779   9.782   6.975  13.451
69355W        W41780   8.443  10.318  11.627
69356W        W41781  28.597  17.230   0.821
69357W        W41782  24.141   3.805   3.176
69358W        W41783  39.972  28.549   2.153
69359W        W41784   5.486  29.313  11.575
69360W        W41785  28.916  24.582   9.927
69361W        W41786  13.358  10.674   0.284
69362W        W41787   6.424  36.082   4.128
69363W        W41788  36.103  27.166  13.562
69364W        W41789  32.973   9.933   2.293
69365W        W41790   2.985  22.452  14.953
69366W        W41791  28.199  32.406   1.936
69367W        W41792  25.587   2.610   2.143
69368W        W41793  17.986  40.954  11.245
69369W        W41794  39.272  14.845  11.746
69370W        W41795  39.030  43.490  11.439
69371W        W41796  33.376  13.612   0.758
69372W        W41797   4.466  21.262  10.764
69373W        W41798  19.547  31.480  13.366
69374W        W41799  27.932   3.765   3.672
69375W        W41800  25.129  14.717  13.855
69376W        W41801   9.712  42.703   2.345
69377W        W41802  10.707  23.839   3.269
69378W        W41803  40.040  44.121  14.401
69379W        W41804   9.594  40.394   4.356
69380W        W41805  22.197  23.056   0.801
69381W        W41806  30.597  30.452   1.937
69382W        W41807   3.920  26.106  10.769
69383W        W41808  11.667  40.749   2.887
69384W        W41809  17.333  15.185   1.668
69385W        W41810  23.708   6.624   0.898
69386W        W41811  10.117  27.712   0.405
69387W        W41812  12.286  33.952   1.027
69388W        W41813  24.073  12.698   1.299
69389W        W41814  17.586   2.855   1.727
69390W        W41815  32.934   6.421   2.478
69391W        W41816  43.157   2.381   1.848
69392W        W41817  12.107  10.745   2.025
69393W        W41818  42.718   9.730   4.131
69394W        W41819   2.221  33.012   2.415
69395W        W41820  15.695  10.689  10.574
69396W        W41821  12.220  42.185  13.974
69397W        W41822  36.359  35.435   0.064
69398W        W41823  33.304  34.522   5.091
69399W        W41824  18.839   6.420  12.093
69400W        W41825  37.018  24.512  14.339
69401W        W41826  12.322  38.526  11.590
69402W        W41827  15.822   0.711  11.250
69403W        W41828  24.311  16.610  11.676
69404W        W41829   7.237   8.340  11.508
69405W        W41830  25.300  31.997   3.786
69406W        W41831  43.151   0.323  10.226
69407W        W41832  33.846   8.814   1.161
69408W        W41833  14.591  40.387  13.964
69409W        W41834  20.132  16.268   0.929
69410W        W41835   1.858   6.285   2.161
69411W        W41836  22.692  37.317   0.235
69412W        W41837  15.589  11.844  12.062
69413W        W41838  37.109   6.746  11.043
69414W        W41839   7.721   6.922   0.131
69415W        W41840  39.608  32.718   4.583
69416W        W41841  41.157   1.717  12.959
69417W        W41842   3.581  24.506   2.802
69418W        W41843  30.983  42.791   2.336
69419W        W41844   3.321  44.454  14.992
69420W        W41845  14.685  11.661  13.821
69421W        W41846   0.739  32.148   2.411
69422W        W41847  23.302  22.159   2.394
69423W        W41848   4.432  12.493   3.951
69424W        W41849  25.270   2.225  11.539
69425W        W41850   3.037   8.759   1.243
69426W        W41851  42.786  10.669  10.734
69427W        W41852  12.416  17.182   1.587
69428W        W41853  29.597  21.156   4.912
69429W        W41854  34.272   7.730  11.042
69430W        W41855  27.527  40.074  14.272
69431W        W41856   7.442  23.722  14.601
69432W        W41857  44.780  15.610   0.560
69433W        W41858  17.039  39.052  12.866
69434W        W41859  41.518  14.650  11.998
69435W        W41860  40.122  19.888   4.804
69436W        W41861  26.146   0.545   1.205
69437W        W41862  38.526  38.079   3.148
69438W        W41863  16.000   1.915  13.845
69439W        W41864  36.988  19.962  14.457
69440W        W41865  35.965  13.642   0.848
69441W        W41866  37.526  25.459   2.250
69442W        W41867  29.078  26.213  14.388
69443W        W41868  22.470   5.506   0.244
69444W        W41869  14.304   8.024   5.139
69445W        W41870  16.720  30.381   2.198
69446W        W41871  31.556  42.989  11.207
69447W        W41872  14.035  29.151  12.031
69448W        W41873  33.862  20.293  11.827
69449W        W41874  34.386  22.746   2.197
69450W        W41875   9.797  27.908   2.806
69451W        W41876  12.823  39.747  13.013
69452W        W41877  41.378  17.518  12.964
69453W        W41878   5.415   2.366   4.921
69454W        W41879   1.236  24.443   3.208
69455W        W41880  18.322  19.826  11.622
69456W        W41881  19.249  15.512   3.354
69457W        W41882  20.768  31.691  14.869
69458W        W41883  25.465  11.578  14.780
69459W        W41884  26.146   8.872  12.439
69460W        W41885   9.693  15.652  11.120
69461W        W41886  23.064   1.196  14.529
69462W        W41887  38.071  15.772   4.349
69463W        W41888  32.883  34.288   4.195
69464W        W41889   8.614  19.548   3.768
69465W        W41890  29.610  36.285  12.639
69466W        W41891  23.766  11.645  12.497
69467W        W41892  36.809  35.086  12.964
69468W        W41893   4.226  16.300   3.282
69469W        W41894   8.333  26.627  11.165
69470W        W41895  42.249  44.918   3.879
69471W        W41896  35.544  30.881   0.062
69472W        W41897   7.855   3.268   2.689
69473W        W41898  36.303  20.213   0.657
69474W        W41899  28.102   7.812  12.972
69475W        W41900  19.248  13.574  12.979
69476W        W41901  33.509  16.064   1.849
69477W        W41902  17.976  25.511  13.286
69478W        W41903  38.331   6.884   1.464
69479W        W41904  23.770  11.695   1.498
69480W        W41905   4.878  29.680   4.601
69481W        W41906  33.753  21.167   0.970
69482W        W41907  22.720   7.777   4.700
69483W        W41908  30.565  37.384  12.847
69484W        W41909  37.015  39.035  14.929
69485W        W41910   0.033  31.035   0.775
69486W        W41911  40.323  32.511  14.553
69487W        W41912   3.249  31.083   0.925
69488W        W41913  35.612   6.017   4.230
69489W        W41914  23.648  15.262  12.638
69490W        W41915  14.910  23.775   4.704
69491W        W41916  15.787   1.258  13.161
69492W        W41917   0.219  20.505  12.183
69493W        W41918  26.401  15.620   4.525
69494W        W41919   0.338  15.896  10.979
69495W        W41920  15.580  32.733  12.914
69496W        W41921   6.142  30.171   0.809
69497W        W41922  40.109   3.359  11.645
69498W        W41923   5.780   5.872   4.485
69499W        W41924  27.740  11.263  12.533
69500W        W41925  19.065  22.207   4.178
69501W        W41926  18.651  22.175   4.805
69502W        W41927  43.949  19.902   0.172
69503W        W41928   0.327   9.759  14.652
69504W        W41929  40.927  15.187  11.020
69505W        W41930  41.440  34.370   3.262
69506W        W41931  35.071  33.271   1.336
69507W        W41932   4.973   1.011  10.129
69508W        W41933   7.253  25.623   1.152
69509W        W41934  40.184  26.461   0.375
69510W        W41935  10.174  15.189  13.461
69511W        W41936  16.648  30.674  14.348
69512W        W41937  44.404  37.488  13.532
69513W        W41938   2.679  24.345  12.022
69514W        W41939  10.898  13.269  13.447
69515W        W41940  21.648   6.572   4.608
69516W        W41941  23.554  36.996   2.346
69517W        W41942  37.498  18.105   2.305
69518W        W41943  33.560  15.721  10.668
69519W        W41944  25.585  44.450  13.474
69520W        W41945  38.905  10.185  11.475
69521W        W41946  24.484  26.018   3.895
69522W        W41947  12.558  12.165   2.263
69523W        W41948  22.594   4.016   1.255
69524W        W41949  11.385  24.057  13.210
69525W        W41950  21.162  27.480   4.860
69526W        W41951   2.536  16.589   4.762
69527W        W41952  18.678  39.511   4.243
69528W        W41953  20.761  25.478   1.913
69529W        W41954  11.883  31.747  12.609
69530W        W41955   3.289   0.709  11.942
69531W        W41956  40.479  13.408  12.909
69532W        W41957  19.023  11.197  13.602
69533W        W41958  39.448   5.438  10.656
69534W        W41959  15.137  12.770  13.427
69535W        W41960   4.364  29.433  10.714
69536W        W41961  28.865  10.276   5.016
69537W        W41962   3.450  26.437  11.913
69538W        W41963  33.217  12.130  12.924
69539W        W41964  36.003  41.770  14.836
69540W        W41965   0.638  11.916  11.113
69541W        W41966  40.549  40.028   2.334
69542W        W41967  27.478  18.510   2.346
69543W        W41968  26.685  32.798  12.058
69544W        W41969  44.102   2.895   2.217
69545W        W41970  24.934   7.787   2.801
69546W        W41971  33.643  36.837   2.238
69547W        W41972  38.302   4.227   1.730
69548W        W41973  37.021  16.138   3.170
69549W        W41974  24.523  10.270   2.316
69550W        W41975  30.393  11.848   4.711
69551W        W41976  16.235  20.298  13.400
69552W        W41977  38.835  40.711   2.197
69553W        W41978  31.822  24.374  12.520
69554W        W41979  35.326  28.059  14.738
69555W        W41980  33.647   9.082   4.049
69556W        W41981  22.954   2.241  10.643
69557W        W41982  25.805  13.205   2.920
69558W        W41983  18.483  33.388  10.587
69559W        W41984  44.978  23.086   3.539
69560W        W41985  20.082  19.719   1.332
69561W        W41986  10.954  16.707   2.743
69562W        W41987  39.173  31.901  12.296
69563W        W41988  16.796  31.637   5.049
69564W        W41989  14.457   7.696   3.344
69565W        W41990   5.148   2.290  11.063
69566W        W41991  17.725  36.475  12.687
69567W        W41992   4.642  12.725  11.124
69568W        W41993  28.368  39.560   4.928
69569W        W41994   7.062   7.158  11.161
69570W        W41995  38.959  30.661  12.128
69571W        W41996  28.427  40.522  14.882
69572W        W41997   2.262  17.300   4.578
69573W        W41998  31.607   9.137  14.975
69574W        W41999  33.991  14.098   4.040
69575W        W42000  17.524  39.826   1.337
69576W        W42001  25.354  22.855  10.287
69577W        W42002  43.405  44.005   0.711
69578W        W42003  23.776  34.503   0.874
69579W        W42004  35.304   7.967  13.978
69580W        W42005   6.781  42.310   3.436
69581W        W42006  40.983  15.573   3.341
69582W        W42007  44.167  35.120  11.973
69583W        W42008  20.922  11.192  12.569
69584W        W42009  28.743  13.858  13.953
69585W        W42010   8.720  42.719   4.006
69586W        W42011   8.413   2.236  12.188
69587W        W42012  33.079  23.575   3.337
69588W        W42013  42.808  13.643   0.848
69589W        W42014  14.525  25.255  13.760
69590W        W42015  35.665   5.664   2.303
69591W        W42016  39.305  20.713   1.397
69592W        W42017   5.841   6.391   0.220
69593W        W42018  33.789  42.826   0.782
69594W        W42019  32.283  21.696  11.509
69595W        W42020  21.913   4.655   3.169
69596W        W42021  14.726   5.452   2.814
69597W        W42022  17.039  39.442  11.106
69598W        W42023   8.093  34.157   2.724
69599W        W42024  35.328  43.841   0.944
69600W        W42025  43.899  26.967  11.169
69601W        W42026  25.639  29.261  14.295
69602W        W42027  39.409   3.850  11.554
69603W        W42028  20.535  41.470   0.228
69604W        W42029  25.417  22.049   1.281
69605W        W42030  10.816  10.166  11.485
69606W        W42031  13.990   4.051   5.034
69607W        W42032   1.686  44.260   0.429
69608W        W42033  30.290  33.043   2.733
69609W        W42034  22.724   8.848  10.994
69610W        W42035   0.764  23.008  12.160
69611W        W42036  30.408  16.573   0.603
69612W        W42037  21.440  13.280   3.790
69613W        W42038  39.992   2.192  11.143
69614W        W42039   7.500  39.449   1.952
69615W        W42040   6.335  15.232  12.007
69616W        W42041  21.694  16.236  13.774
69617W        W42042  21.204  11.918   2.833
69618W        W42043  39.893  35.071   0.517
69619W        W42044  35.107  26.408   0.367
69620W        W42045  19.209   0.013   0.783
69621W        W42046  11.868  15.591   3.371
69622W        W42047  26.582   2.050   1.851
69623W        W42048  34.737  42.716  11.133
69624W        W42049  17.437  23.054   0.282
69625W        W42050  20.627  28.906  13.720
69626W        W42051  39.811   2.183  12.079
69627W        W42052  33.478   6.214   0.229
69628W        W42053  19.144  37.884  10.697
69629W        W42054   3.467   5.926   3.417
69630W        W42055  11.686  23.751  11.075
69631W        W42056  41.410  44.321   1.849
69632W        W42057  25.499   9.661  14.800
69633W        W42058  43.882  23.126   1.732
69634W        W42059  42.252   6.157   1.229
69635W        W42060  32.986  20.016   3.333
69636W        W42061  21.746   1.145   0.735
69637W        W42062   5.723  17.780  14.013
69638W        W42063  18.625  36.303  13.958
69639W        W42064   8.124  31.452  11.640
69640W        W42065  18.084  18.333   2.372
69641W        W42066   4.345  38.603   0.467
69642W        W42067   6.717  39.809  14.400
69643W        W42068  18.747  44.691  10.943
69644W        W42069  30.600  41.858  11.622
69645W        W42070  38.373  16.572  12.514
69646W        W42071  10.707  24.128  11.118
69647W        W42072  25.036   3.522  11.119
69648W        W42073  18.237  33.667   0.388
69649W        W42074  36.395  44.512   1.333
69650W        W42075  22.549  32.648  12.000
69651W        W42076  10.874  18.721   1.392
69652W        W42077  41.893  26.983  12.296
69653W        W42078  41.441   9.161  11.092
69654W        W42079  25.213  14.983  14.306
69655W        W42080  31.670  27.416   2.218
69656W        W42081  11.661  40.528  13.407
69657W        W42082   9.065   1.515   2.106
69658W        W42083   1.972  29.148   5.009
69659W        W42084  30.601  16.167   0.334
69660W        W42085  16.744   4.992  11.763
69661W        W42086  12.123  16.803   1.349
69662W        W42087  17.756   3.948   4.622
69663W        W42088   6.094   1.659   3.394
69664W        W42089  41.220  20.157  10.711
69665W        W42090  22.774  25.980   2.759
69666W        W42091  40.069  37.362  11.642
69667W        W42092  31.584  40.294  12.308
69668W        W42093   8.880  10.264  11.889
69669W        W42094  11.634  25.986   0.059
69670W        W42095  21.488  40.237   2.436
69671W        W42096   1.055  42.078   1.911
69672W        W42097  14.259   7.230   2.757
69673W        W42098  35.628  10.666   0.308
69674W        W42099  21.489   0.309   2.144
69675W        W42100   4.376   8.152   1.949
69676W        W42101   0.393   5.235  12.950
69677W        W42102  38.334   7.953  14.747
69678W        W42103  42.586  22.618   4.272
69679W        W42104   8.110  38.642  11.690
69680W        W42105  15.902  37.481   0.956
69681W        W42106  18.633  43.095  12.193
69682W        W42107   9.799  28.894  11.077
69683W        W42108  10.304  17.210  10.705
69684W        W42109   4.508   4.544  12.829
69685W        W42110  35.027  37.615   4.757
69686W        W42111  37.857  20.265   4.106
69687W        W42112   0.855  37.887  10.583
69688W        W42113   8.448  16.237   2.734
69689W        W42114  41.909   8.474   1.172
69690W        W42115  20.025  36.492   3.837
69691W        W42116  32.618   5.396  14.411
69692W        W42117  23.175  29.488  14.077
69693W        W42118  10.591  39.419   0.728
69694W        W42119  33.363  39.944  11.583
69695W        W42120  27.850  34.548   4.501
69696W        W42121   3.893   8.408   0.970
69697W        W42122  24.243  15.177   1.503
69698W        W42123  30.667   2.527  14.008
69699W        W42124   0.179  31.125   1.315
69700W        W42125  27.299  23.019   5.007
69701W        W42126  38.015  23.506  11.665
69702W        W42127  27.539  30.008   3.029
69703W        W42128  34.424  13.142  14.872
69704W        W42129  18.503  30.087  12.001
69705W        W42130  13.349  19.633   2.618
69706W        W42131   7.705  20.688   0.689
69707W        W42132  27.497   3.764   3.935
69708W        W42133  11.301  17.245  13.423
69709W        W42134  40.466  35.424  12.557
69710W        W42135  27.534  24.945  11.657
69711W        W42136   0.845  12.604   0.342
69712W        W42137  44.892  43.618   0.906
69713W        W42138   9.227  12.187  10.902
69714W        W42139   0.921  20.591   3.820
69715W        W42140  33.649  38.989   4.281
69716W        W42141  20.239  43.840  10.709
69717W        W42142  35.912  16.685   1.744
69718W        W42143  18.475  20.952  13.306
69719W        W42144   2.716  44.508  10.802
69720W        W42145  21.731  11.529  11.852
69721W        W42146  11.700  39.261  11.611
69722W        W42147  16.198  26.784   2.832
69723W        W42148  28.051  15.997  11.388
69724W        W42149  20.751  10.606   4.532
69725W        W42150  27.518  17.886  14.303
69726W        W42151  40.085  23.569   3.370
69727W        W42152  29.863  18.105  12.643
69728W        W42153  16.529  36.814  11.173
69729W        W42154   9.809  27.047  11.427
69730W        W42155  41.124  18.470  14.907
69731W        W42156  29.111   3.913   1.253
69732W        W42157  38.924  26.147  11.236
69733W        W42158  20.595  14.591   2.267
69734W        W42159  10.755  33.644  11.114
69735W        W42160  41.208  30.236  12.887
69736W        W42161  18.099  31.080  12.662
69737W        W42162   3.445  34.905   2.161
69738W        W42163  27.586  12.062  11.154
69739W        W42164   8.122  23.605   3.029
69740W        W42165   5.757  23.218   1.840
69741W        W42166   1.405  24.615   0.547
69742W        W42167  22.875   7.846  12.452
69743W        W42168  34.096   6.089  13.283
69744W        W42169  35.991  22.123  11.801
69745W        W42170  15.423   1.270  12.147
69746W        W42171  34.120  12.607   4.845
69747W        W42172  26.115  14.520  14.459
69748W        W42173  23.796   2.122   0.338
69749W        W42174  43.350  14.495  13.306
69750W        W42175   2.128  19.090   4.643
69751W        W42176   6.868  13.892   3.673
69752W        W42177  12.177  34.208   3.238
69753W        W42178  14.708  42.850  12.832
69754W        W42179  12.632  34.439  14.239
69755W        W42180  27.082  18.975   1.630
69756W        W42181  42.770  36.910   4.672
69757W        W42182  17.786  13.226   2.384
69758W        W42183  17.351  14.379  14.534
69759W        W42184  30.241  25.926   2.853
69760W        W42185  27.017  12.204   4.028
69761W        W42186  24.671  26.457   3.190
69762W        W42187  23.411  12.293  11.456
69763W        W42188  26.507  19.391   2.198
69764W        W42189  21.572  30.822   1.739
69765W        W42190  10.653  37.899   1.343
69766W        W42191  19.587   9.200   3.243
69767W        W42192  34.458  19.034   3.617
69768W        W42193  39.343   1.894  12.487
69769W        W42194  25.899  16.638   3.208
69770W        W42195  22.574   2.786   2.912
69771W        W42196  44.776  14.452  10.332
69772W        W42197  29.572  19.687   4.194
69773W        W42198   9.729   3.711  12.890
69774W        W42199   9.107  19.782  14.262
69775W        W42200  11.251  33.581   0.303
69776W        W42201  31.126  22.937   1.887
69777W        W42202  33.044  37.869   1.710
69778W        W42203  13.897   9.336  11.092
69779W        W42204  17.337  27.505   2.290
69780W        W42205  18.661   2.872   4.366
69781W        W42206  18.854  21.627   0.268
69782W        W42207   6.158   8.481  14.764
69783W        W42208   0.965  14.902  12.471
69784W        W42209  20.847  15.939   0.492
69785W        W42210   7.935  39.971   2.281
69786W        W42211   9.084  25.190  12.658
69787W        W42212  30.675  22.483  14.802
69788W        W42213  22.763  40.084  13.403
69789W        W42214  41.446  44.386  10.686
69790W        W42215  30.256   4.109  14.520
69791W        W42216  31.047  29.991   2.379
69792W        W42217  35.891   9.823   1.368
69793W        W42218  14.868  41.482  13.445
69794W        W42219  24.483   8.192   0.743
69795W        W42220  16.796  29.488   1.201
69796W        W42221  42.062  27.885   5.106
69797W        W42222   1.916  41.191  14.556
69798W        W42223  26.444  38.319   4.883
69799W        W42224   1.662  35.533  10.652
69800W        W42225  35.115  28.124  14.263
69801W        W42226  22.755   6.038  14.487
69802W        W42227  28.661  38.092  14.028
69803W        W42228   1.346  17.758  11.619
69804W        W42229  28.406   2.257  10.808
69805W        W42230  12.292  19.629   2.671
69806W        W42231  44.450   6.644  12.055
69807W        W42232  15.500  27.148   3.199
69808W        W42233  28.660  17.618   1.744
69809W        W42234  13.331   0.780   0.293
69810W        W42235  31.507  23.211  13.101
69811W        W42236  10.794   2.204   4.094
69812W        W42237  11.182  22.201   0.008
69813W        W42238   1.190  26.019  14.803
69814W        W42239   6.470   5.046  10.980
69815W        W42240  44.889  37.113   3.103
69816W        W42241  27.953  11.077   3.253
69817W        W42242  38.038  43.275  12.482
69818W        W42243  18.627  35.584  13.874
69819W        W42244  13.347  12.264  13.517
69820W        W42245  30.347  20.176   1.321
69821W        W42246  28.689  13.913  12.008
69822W        W42247  12.270  44.287  10.862
69823W        W42248   1.920  12.387  13.741
69824W        W42249  18.317  41.236   4.137
69825W        W42250  32.519   2.873   1.173
69826W        W42251   3.735  34.626   1.324
69827W        W42252  14.861  35.199   2.879
69828W        W42253  15.811  14.115   4.365
69829W        W42254  21.591  33.650  11.616
69830W        W42255  12.991  23.137   2.296
69831W        W42256  35.172  11.808   3.650
69832W        W42257   8.772  38.273  14.483
69833W        W42258  31.845  22.105  12.170
69834W        W42259  42.531  20.700   4.095
69835W        W42260  41.258  10.430  11.569
69836W        W42261  26.142  31.735   0.301
69837W        W42262  18.772  41.545   4.139
69838W        W42263  38.836  23.448   4.297
69839W        W42264   3.590  32.885   3.591
69840W        W42265  25.585   1.910   4.707
69841W        W42266  44.602  43.964   3.203
69842W        W42267  42.569  38.921  14.912
69843W        W42268  27.528  16.081  14.027
69844W        W42269  11.343  36.410   0.071
69845W        W42270  23.037  14.155  12.190
69846W        W42271   7.133  40.353   4.713
69847W        W42272  10.053   2.797  11.481
69848W        W42273  18.895  28.514   1.401
69849W        W42274  18.154  14.016   3.755
69850W        W42275  18.191  19.325  14.395
69851W        W42276   5.885  42.316  13.640
69852W        W42277  27.434  16.343   4.333
69853W        W42278  12.157  39.316   0.335
69854W        W42279  36.968   0.210   1.355
69855W        W42280  28.868   0.335   0.696
69856W        W42281  31.513  26.922  10.481
69857W        W42282  31.736   0.380  12.257
69858W        W42283  20.535  35.419   1.854
69859W        W42284   7.637  37.160   3.848
69860W        W42285  42.901   0.815   4.099
69861W        W42286  37.366  29.676   2.648
69862W        W42287  36.485  30.455  14.451
69863W        W42288   8.963  11.815   3.338
69864W        W42289  42.876   4.657   1.806
69865W        W42290   1.297  26.860   1.846
69866W        W42291   5.504   5.331  12.468
69867W        W42292  31.141   7.185   4.517
69868W        W42293  33.615  19.053   1.935
69869W        W42294   6.162  29.372   4.628
69870W        W42295   8.730   4.703   4.567
69871W        W42296   9.909  25.908  13.587
69872W        W42297  11.892   4.347   1.473
69873W        W42298  30.484   6.331  11.002
69874W        W42299  40.368  34.318  13.967
69875W        W42300   2.915  19.642   1.687
69876W        W42301  22.329  42.365  12.948
69877W        W42302   3.952  43.935   1.258
69878W        W42303  19.124  25.183  11.017
69879W        W42304   8.171   8.313  13.973
69880W        W42305  33.009   7.142   1.804
69881W        W42306  41.334   7.219   3.681
69882W        W42307  22.450   0.044  14.949
69883W        W42308  44.535  21.066  13.423
69884W        W42309  36.182  44.277   0.922
69885W        W42310   2.717   5.785   1.934
69886W        W42311   6.997  34.910  10.697
69887W        W42312  20.093  35.613   4.108
69888W        W42313  40.805  42.965   1.446
69889W        W42314  11.160  26.162   4.188
69890W        W42315  35.476  38.547  12.975
69891W        W42316  10.694  19.124  12.486
69892W        W42317  30.516  36.121   0.342
69893W        W42318  32.734  44.717  11.647
69894W        W42319  29.857  30.434   2.426
69895W        W42320  36.306  25.959   0.339
69896W        W42321  33.227   8.548  11.500
69897W        W42322   4.461  38.517  12.089
69898W        W42323  39.263  16.788  13.373
69899W        W42324  35.666  21.919  10.748
69900W        W42325  11.238  18.020  13.786
69901W        W42326  20.650   8.243  12.561
69902W        W42327  39.251   3.196  12.057
69903W        W42328  31.000  17.115   3.898
69904W        W42329   0.700  25.516   4.143
69905W        W42330  24.855  37.677   0.672
69906W        W42331  40.636  21.991  11.960
69907W        W42332   5.287   1.266  10.733
69908W        W42333  10.474  22.622   1.957
69909W        W42334  23.542  18.095  13.320
69910W        W42335  35.125   7.353  13.098
69911W        W42336  33.373   5.418  13.018
69912W        W42337  25.091  14.498   3.552
69913W        W42338  17.605  25.606   2.208
69914W        W42339  33.005  33.992  14.277
69915W        W42340  34.618  15.166   4.793
69916W        W42341  19.987   7.916   2.406
69917W        W42342   5.209  19.147   0.295
69918W        W42343   1.010   5.667  12.510
69919W        W42344  33.994  43.460   4.384
69920W        W42345  24.015  26.271  13.034
69921W        W42346  19.640  40.992   4.589
69922W        W42347  17.305  42.123  12.434
69923W        W42348  19.361   9.407  12.137
69924W        W42349  28.422  13.007  14.387
69925W        W42350  29.180  44.307  12.309
69926W        W42351  32.160   9.051  11.708
69927W        W42352  38.637  25.707   3.678
69928W        W42353  19.579  30.999  11.183
69929W        W42354   3.009  10.399  11.924
69930W        W42355  30.824   1.444  11.930
69931W        W42356  27.035  23.240  11.819
69932W        W42357  11.564  44.899   4.714
69933W        W42358  32.152  12.656  14.382
69934W        W42359  42.926   1.449  13.727
69935W        W42360  16.597  14.723   2.236
69936W        W42361  37.533   0.934  13.793
69937W        W42362  17.541   2.872  12.934
69938W        W42363  19.951  35.578  11.496
69939W        W42364  35.929   5.931  11.073
69940W        W42365  14.928   7.555   3.194
69941W        W42366  24.228   3.235  14.753
69942W        W42367  42.702  41.722  13.463
69943W        W42368  25.175  39.886  14.327
69944W        W42369  10.807  22.797   1.179
69945W        W42370  29.661  38.875   0.280
69946W        W42371  34.983  34.766   2.758
69947W        W42372   8.224   0.900   1.976
69948W        W42373  30.950  20.353   2.270
69949W        W42374  40.849  40.333  14.472
69950W        W42375  14.202  32.815   1.324
69951W        W42376  42.472  27.596  13.966
69952W        W42377  15.707  44.578   4.224
69953W        W42378   9.655  21.798   0.425
69954W        W42379   5.226  26.418   1.512
69955W        W42380  33.017   4.231  11.930
69956W        W42381  25.494  15.937   3.757
69957W        W42382  24.452   9.870   1.318
69958W        W42383  17.084  22.587   2.808
69959W        W42384  41.835  38.029   2.696
69960W        W42385  16.382  26.544  13.056
69961W        W42386  18.879  21.043  11.116
69962W        W42387  43.913  12.124   0.785
69963W        W42388  44.766  25.744   1.978
69964W        W42389   8.812  39.641   0.808
69965W        W42390  25.009  11.177  13.559
69966W        W42391  19.210  31.078  14.251
69967W        W42392   4.173  15.765  10.523
69968W        W42393  14.294  20.278  11.679
69969W        W42394   2.099  31.565  10.408
69970W        W42395   4.211  41.485   3.599
69971W        W42396   0.919  33.172  11.888
69972W        W42397  26.939  13.589  13.588
69973W        W42398  24.016  37.835  13.312
69974W        W42399  15.951  32.009   4.088
69975W        W42400   9.388  38.897   0.438
69976W        W42401  37.098   8.809   5.176
69977W        W42402  33.384  39.554  13.840
69978W        W42403  13.129  44.697  11.209
69979W        W42404  41.265  28.228   3.615
69980W        W42405  34.181  34.318   0.385
69981W        W42406  26.158   7.952   2.279
69982W        W42407  31.875  24.083  11.526
69983W        W42408  40.744   1.807  13.833
69984W        W42409  41.590   7.300   2.155
69985W        W42410  35.703  19.182  10.875
69986W        W42411  40.253  36.154  14.361
69987W        W42412  15.300   4.133  10.809
69988W        W42413  25.076  13.626  11.976
69989W        W42414  22.020   0.398  10.526
69990W        W42415  25.935  42.524  12.363
69991W        W42416  42.323  14.237   2.638
69992W        W42417  32.962  43.476   1.647
69993W        W42418  22.764   3.487   1.845
69994W        W42419   3.908  11.516   5.114
69995W        W42420  13.201  19.455   0.364
69996W        W42421  22.361  21.560   0.961
69997W        W42422  27.329  21.515   0.702
69998W        W42423  37.592   4.576   0.822
69999W        W42424  25.000  10.710   3.746
70000W        W42425  37.748   7.342   4.174
70001W        W42426   7.546  19.785   3.395
70002W        W42427  18.555  21.753   0.800
70003W        W42428  39.502  29.955  13.504
70004W        W42429  15.677  19.516   0.333
70005W        W42430  23.835  16.732  11.522
70006W        W42431  40.553   5.738  14.035
70007W        W42432   7.648  43.895   1.917
70008W        W42433  14.035  39.350  11.912
70009W        W42434   4.097  43.522  13.391
70010W        W42435   9.784  17.218  12.784
70011W        W42436  15.686   2.305   1.861
70012W        W42437  10.607  20.596   3.590
70013W        W42438  29.232  16.063   3.524
70014W        W42439  34.846   2.978  12.592
70015W        W42440   8.905  19.656   4.180
70016W        W42441  33.608  36.092   0.116
70017W        W42442  29.522  33.263   1.441
70018W        W42443  26.586   9.176   3.034
70019W        W42444  26.036  21.192   3.801
70020W        W42445  24.036  39.926   1.421
70021W        W42446   5.823  33.354  12.574
70022W        W42447   8.924   4.637   0.753
70023W        W42448   1.619  36.869   2.778
70024W        W42449  39.321   4.397  12.521
70025W        W42450  30.510  40.961  12.108
70026W        W42451  11.236  14.240   0.900
70027W        W42452  41.759  42.369   4.612
70028W        W42453  40.830  14.287   3.905
70029W        W42454  17.880  37.956   0.040
70030W        W42455  40.290   4.325   0.333
70031W        W42456  18.540  25.918  12.483
70032W        W42457  39.516   2.805   3.762
70033W        W42458   6.271  26.960  11.080
70034W        W42459  18.188  14.624  12.876
70035W        W42460  19.938  32.753   4.939
70036W        W42461   8.230  29.868   0.388
70037W        W42462  21.483  22.578  14.394
70038W        W42463  22.754  28.858   1.715
70039W        W42464  13.615  30.915   4.685
70040W        W42465  11.501  30.859  10.975
70041W        W42466  10.848   2.254  10.313
70042W        W42467   9.101  39.571   5.344
70043W        W42468   4.486   8.823   4.172
70044W        W42469  10.607  11.355  14.860
70045W        W42470  27.120  13.873  12.971
70046W        W42471   6.237  23.622  11.356
70047W        W42472  26.933  31.033  13.015
70048W        W42473  43.480  41.218   3.603
70049W        W42474  34.911  24.469   2.833
70050W        W42475  16.330  41.100   1.982
70051W        W42476  41.815  29.023  14.500
70052W        W42477  28.151  33.934  13.852
70053W        W42478  24.114   3.346  11.101
70054W        W42479  12.928   9.620   1.390
70055W        W42480  14.214  34.340   0.347
70056W        W42481   8.815  20.607  11.631
70057W        W42482  30.667  21.027  12.081
70058W        W42483   8.968  40.978   1.126
70059W        W42484   5.844  17.752   4.590
70060W        W42485   9.984  17.756   4.219
70061W        W42486  26.358  21.121  13.844
70062W        W42487  32.554  43.345   0.799
70063W        W42488  31.439   3.866   0.309
70064W        W42489  25.414  10.244  13.462
70065W        W42490   7.175  27.234   3.635
70066W        W42491  27.141  41.898  12.887
70067W        W42492  24.964  11.594  13.864
70068W        W42493   2.219  28.758   1.900
70069W        W42494  33.397  27.692  12.968
70070W        W42495  15.299  15.697  12.050
70071W        W42496  26.248  39.530  14.331
70072W        W42497  43.435  31.632  13.113
70073W        W42498   1.792   3.935  12.372
70074W        W42499   4.409  35.512  11.012
70075W        W42500  30.096  28.085  10.772
70076W        W42501  17.591  22.899   2.372
70077W        W42502  25.071  16.292  14.871
70078W        W42503  41.046  15.229   2.281
70079W        W42504  17.618  10.206  10.719
70080W        W42505  25.716  16.536   2.719
70081W        W42506  33.353  31.367  11.952
70082W        W42507  16.519  34.078   4.593
70083W        W42508   1.833   5.527  14.916
70084W        W42509  26.528  14.133  14.914
70085W        W42510  23.216  28.149  12.529
70086W        W42511  26.159  35.565  13.606
70087W        W42512  13.589  20.681   0.417
70088W        W42513  35.364   2.432  14.482
70089W        W42514  22.150   9.720   3.753
70090W        W42515  22.333  17.553   3.333
70091W        W42516  36.421   0.895  11.095
70092W        W42517   1.446  13.074  13.876
70093W        W42518  29.598  25.913   3.220
70094W        W42519  16.498  41.336  14.012
70095W        W42520  24.546  21.275  12.401
70096W        W42521  10.293  17.556   2.466
70097W        W42522  10.616  10.742   2.280
70098W        W42523  10.124  14.224  14.066
70099W        W42524   5.814  20.051  10.636
70100W        W42525  43.689  17.249  10.438
70101W        W42526  32.711  40.946   3.836
70102W        W42527  17.084  27.709   3.478
70103W        W42528   8.915  21.688  14.831
70104W        W42529  43.606  42.501   4.168
70105W        W42530   4.728  34.574  12.942
70106W        W42531  23.842  42.459   0.554
70107W        W42532  21.651   7.298   5.097
70108W        W42533   0.757  31.537  10.093
70109W        W42534   3.351  42.245  11.045
70110W        W42535  44.774  10.843   2.713
70111W        W42536   7.916  28.691   4.563
70112W        W42537  30.928   1.267  13.450
70113W        W42538  19.587  11.742  12.462
70114W        W42539  23.531  15.092  11.142
70115W        W42540  23.141   8.808   0.802
70116W        W42541  29.372  14.545   0.972
70117W        W42542  40.487   2.842  10.691
70118W        W42543  31.999  44.910   0.427
70119W        W42544  23.962   0.338  13.046
70120W        W42545  14.995  13.375  12.113
70121W        W42546  21.314  22.802   0.357
70122W        W42547  12.327  25.802   5.461
70123W        W42548  37.970  25.223   2.302
70124W        W42549  38.015  37.816  13.824
70125W        W42550  16.979  25.176  13.556
70126W        W42551   7.361  42.413   4.633
70127W        W42552  24.061  38.926  14.950
70128W        W42553  28.519  11.199  13.599
70129W        W42554  26.800  40.378   4.125
70130W        W42555  27.741  29.415   3.221
70131W        W42556  11.277   2.940   0.791
70132W        W42557   3.273  33.524  13.477
70133W        W42558  17.519  42.802   2.190
70134W        W42559  13.623  37.784   3.660
70135W        W42560   0.396  20.116  14.066
70136W        W42561   8.196  40.397  12.675
70137W        W42562  44.959  10.617   3.139
70138W        W42563  15.431   8.188  11.438
70139W        W42564  32.574  18.657  13.058
70140W        W42565  34.617  42.403   0.866
70141W        W42566  31.100  19.125  13.864
70142W        W42567  44.890   1.341   1.807
70143W        W42568  33.389  30.145   3.661
70144W        W42569  21.776  26.540  13.585
70145W        W42570  11.909  44.044   4.173
70146W        W42571  12.731   7.799   2.498
70147W        W42572  28.547   7.365  14.414
70148W        W42573  28.372  36.162   3.311
70149W        W42574  11.170   4.897   0.369
70150W        W42575  32.193   7.152   5.172
70151W        W42576   6.546  23.666   0.665
70152W        W42577   4.716  15.562  14.963
70153W        W42578   3.294  32.914   2.347
70154W        W42579  36.942  44.915   0.907
70155W        W42580  29.645  42.379  10.067
70156W        W42581   9.966  31.205  11.443
70157W        W42582  33.671  17.029   3.649
70158W        W42583  19.582  35.522   0.404
70159W        W42584   2.181  37.751   0.350
70160W        W42585  25.630  32.724  11.140
70161W        W42586  40.006  41.260  12.108
70162W        W42587  12.151   7.657   3.169
70163W        W42588   2.309   2.972   4.607
70164W        W42589   8.474  30.021  12.466
70165W        W42590  11.870  19.922   1.962
70166W        W42591  28.172   8.123  12.570
70167W        W42592  13.695  38.046  10.681
70168W        W42593  27.890   4.808  11.674
70169W        W42594  19.716  31.699   4.683
70170W        W42595   6.963  43.250   3.198
70171W        W42596  42.539  25.252   3.027
70172W        W42597  24.210   2.827  11.126
70173W        W42598  40.125  44.732   0.963
70174W        W42599  18.166   9.177   2.173
70175W        W42600  11.678  41.225   3.335
70176W        W42601  20.356  38.490  11.880
70177W        W42602   1.304  44.995  13.454
70178W        W42603  30.658  18.859  13.906
70179W        W42604  26.644   5.246  13.873
70180W        W42605  19.678  36.231  11.242
70181W        W42606  12.748  38.276   2.707
70182W        W42607  10.716  22.471   2.793
70183W        W42608  27.610  22.304  14.345
70184W        W42609  19.359  41.841   2.223
70185W        W42610   3.459  38.350   4.339
70186W        W42611  35.162   1.283   0.341
70187W        W42612   5.363   8.411   0.894
70188W        W42613  11.828  34.881   0.451
70189W        W42614  20.239  35.997  11.512
70190W        W42615  42.020  33.921   0.702
70191W        W42616  19.598  19.562   1.730
70192W        W42617   9.281  20.322  11.577
70193W        W42618  22.983  22.236   1.967
70194W        W42619   7.647  21.735  14.289
70195W        W42620  27.051  16.154   4.712
70196W        W42621  11.803  21.046  10.660
70197W        W42622  16.616   7.182  10.736
70198W        W42623  35.546  22.537   1.024
70199W        W42624   0.368  26.389   2.687
70200W        W42625  36.856   3.467   4.481
70201W        W42626  35.862  41.074   2.251
70202W        W42627  21.712   2.324  13.863
70203W        W42628  20.584  37.336   0.718
70204W        W42629  28.597   3.416  14.718
70205W        W42630  22.809  21.297   0.779
70206W        W42631   0.507  43.051  11.924
70207W        W42632  34.581  40.874   4.121
70208W        W42633  36.408  18.777  13.517
70209W        W42634  18.305  24.998  14.525
70210W        W42635  38.566  23.086  13.011
70211W        W42636   6.264   7.068   4.551
70212W        W42637  28.141  23.946  13.881
70213W        W42638  16.896  32.994  14.037
70214W        W42639   8.938  44.484   0.698
70215W        W42640   2.741  15.990  14.848
70216W        W42641  26.305  44.889   1.748
70217W        W42642  24.232  42.833  10.763
70218W        W42643  21.035  21.063   1.672
70219W        W42644  39.339  25.955  13.441
70220W        W42645  21.684  22.073  14.375
70221W        W42646  29.399  20.654  12.919
70222W        W42647  24.340   8.229   3.693
70223W        W42648  16.224  38.796   4.600
70224W        W42649  39.315  42.777   1.282
70225W        W42650  34.367  12.598  13.091
70226W        W42651  39.325  30.444   1.982
70227W        W42652  27.625  20.026  12.547
70228W        W42653  40.334  31.181  13.852
70229W        W42654  28.367  37.719  14.860
70230W        W42655   4.333  38.612   2.238
70231W        W42656   6.692  41.044  12.606
70232W        W42657   3.136  42.300  14.284
70233W        W42658  37.661   6.328   1.635
70234W        W42659  16.483   3.219  13.530
70235W        W42660   9.274  19.312   1.792
70236W        W42661  42.099   1.222   2.160
70237W        W42662  43.328  33.788   4.040
70238W        W42663  10.863   6.922  12.203
70239W        W42664  35.548  11.852  12.364
70240W        W42665  15.169  18.524   1.253
70241W        W42666  27.673  18.585  11.177
70242W        W42667  43.331  17.902  13.990
70243W        W42668   3.167  11.206   0.484
70244W        W42669  24.294  32.272   1.413
70245W        W42670  28.522   9.252  11.241
70246W        W42671  44.823  13.780  12.920
70247W        W42672  31.505   5.743   4.028
70248W        W42673  16.614  15.579   3.587
70249W        W42674  19.582   7.314   2.779
70250W        W42675  36.760  26.010   3.600
70251W        W42676  34.176  21.146   2.293
70252W        W42677  36.975  38.277  13.026
70253W        W42678  20.683  33.835   2.779
70254W        W42679   7.127  16.601  12.069
70255W        W42680   8.145  32.558   0.227
70256W        W42681  29.375  14.914  13.052
70257W        W42682  40.134  33.577  13.627
70258W        W42683  27.172  40.950  10.917
70259W        W42684  24.400  23.994  11.205
70260W        W42685  32.481  40.320  12.095
70261W        W42686  21.999  39.849   0.032
70262W        W42687  41.809   9.588   4.211
70263W        W42688  30.848  11.868  14.046
70264W        W42689  30.337  22.575   2.189
70265W        W42690   7.217  38.538   2.459
70266W        W42691  28.216  39.255   0.909
70267W        W42692  40.192  21.952   2.285
70268W        W42693  23.151   0.195  13.579
70269W        W42694   7.493  37.264  14.846
70270W        W42695   2.011  18.757   2.238
70271W        W42696   5.319  42.266   0.086
70272W        W42697  12.754   9.612  10.427
70273W        W42698  43.501  30.620   0.712
70274W        W42699   2.745  35.917   0.265
70275W        W42700  35.937  12.914   3.285
70276W        W42701  18.643  19.078  14.424
70277W        W42702  22.444   6.418   4.140
70278W        W42703  15.043  29.010  12.060
70279W        W42704   8.379  34.539  12.466
70280W        W42705  28.775  15.474  11.926
70281W        W42706  34.859  25.130   3.793
70282W        W42707   3.880   4.501   3.757
70283W        W42708  38.798  30.610  10.816
70284W        W42709  43.782  12.872   4.857
70285W        W42710  31.662  10.826  12.946
70286W        W42711   9.215  44.931   0.382
70287W        W42712  44.753  21.071   0.478
70288W        W42713  18.376  35.154   2.702
70289W        W42714  29.589   8.540   2.725
70290W        W42715  12.294   5.181   0.973
70291W        W42716  35.744  36.317  13.366
70292W        W42717  41.723   1.279  11.135
70293W        W42718  27.779  40.252  13.338
70294W        W42719  21.065  44.033   3.068
70295W        W42720  39.036  12.388  12.444
70296W        W42721  38.134  34.314   3.606
70297W        W42722  12.570  24.059  11.118
70298W        W42723   4.840  25.491   3.132
70299W        W42724  17.583   6.372  10.235
70300W        W42725   4.913  35.549   1.705
70301W        W42726  37.449  34.509  13.097
70302W        W42727  31.168   0.848   2.398
70303W        W42728  12.603  42.763  13.551
70304W        W42729  11.908  33.356  12.010
70305W        W42730  42.920  10.660  14.362
70306W        W42731   7.419   6.796   1.179
70307W        W42732  33.631  30.801   0.379
70308W        W42733  27.585  19.273  14.493
70309W        W42734   4.672  22.432  12.746
70310W        W42735  44.441  11.567   1.494
70311W        W42736   7.927  36.962  11.103
70312W        W42737  10.818   0.865   0.880
70313W        W42738  36.443   8.614   5.615
70314W        W42739   6.874   4.759  11.972
70315W        W42740   8.933  44.233   5.158
70316W        W42741  44.851  22.910  13.311
70317W        W42742   9.641  43.984  11.828
70318W        W42743  21.609   0.229  12.671
70319W        W42744   8.286   3.199   5.013
70320W        W42745  27.607  38.519  14.034
70321W        W42746  12.294  44.444  11.329
70322W        W42747  22.796  12.681   3.388
70323W        W42748  13.619  39.440   0.385
70324W        W42749  24.625  39.671   2.301
70325W        W42750   7.684   6.822   4.365
70326W        W42751  24.166  36.173   3.479
70327W        W42752  44.727   9.394  12.100
70328W        W42753  41.093  36.244   3.302
70329W        W42754   7.835  20.262   0.953
70330W        W42755  34.991  28.946  13.922
70331W        W42756  15.506   8.933   2.878
70332W        W42757  12.605  27.069  14.914
70333W        W42758  30.313  22.292   5.053
70334W        W42759  11.690   1.765  11.233
70335W        W42760  43.793  37.488   0.068
70336W        W42761  14.284   4.268   1.123
70337W        W42762  42.921   1.763   2.439
70338W        W42763  19.423   7.604   3.220
70339W        W42764   2.459  19.252  14.370
70340W        W42765  40.931   8.196   4.037
70341W        W42766  16.128  23.608   0.380
70342W        W42767  14.533  17.658  12.652
70343W        W42768  21.066  24.159  13.500
70344W        W42769  24.217  21.646   1.868
70345W        W42770  31.941  32.173   0.751
70346W        W42771  24.486  12.728  12.416
70347W        W42772  26.506  11.736  11.904
70348W        W42773  17.157   2.870  11.622
70349W        W42774  27.169  15.370   1.320
70350W        W42775  36.597  19.105  11.043
70351W        W42776   6.153  27.688  11.643
70352W        W42777  15.252  43.636  14.806
70353W        W42778  16.888  10.210  11.812
70354W        W42779  12.543  20.676   4.655
70355W        W42780  27.032   9.614   0.904
70356W        W42781  23.450  23.127   3.407
70357W        W42782   6.993  16.943  13.119
70358W        W42783  22.050  44.978   1.622
70359W        W42784  21.503  35.430  10.526
70360W        W42785  44.316  33.526   2.733
70361W        W42786  32.289  35.231  14.070
70362W        W42787  26.021  24.274  14.316
70363W        W42788  10.483  40.981   1.426
70364W        W42789  16.675  26.555   2.850
70365W        W42790  28.521  40.323  11.594
70366W        W42791  18.187   6.513  14.046
70367W        W42792  17.583  43.863   4.044
70368W        W42793  13.683  12.333  10.742
70369W        W42794  12.374  17.888  13.332
70370W        W42795  34.262   3.915  14.247
70371W        W42796  40.578  26.142   1.662
70372W        W42797  31.602  29.555  13.989
70373W        W42798  25.114  13.934  10.689
70374W        W42799  36.786   2.827   2.821
70375W        W42800  20.237  43.265   1.833
70376W        W42801   1.225   7.434   1.348
70377W        W42802  27.444   1.015  13.758
70378W        W42803  20.608  14.089   2.981
70379W        W42804  35.713  17.405   0.728
70380W        W42805  29.412  27.777   0.517
70381W        W42806  39.406  39.404   3.913
70382W        W42807  17.031  28.881  14.074
70383W        W42808   5.404  17.549   1.224
70384W        W42809  23.637  42.525   2.804
70385W        W42810  27.689  37.188  11.652
70386W        W42811  15.849  20.712  10.588
70387W        W42812  16.703  41.393  14.948
70388W        W42813  33.116  10.936   2.122
70389W        W42814  15.260  38.718   4.966
70390W        W42815  21.209  30.242   3.731
70391W        W42816  44.882  17.011   4.446
70392W        W42817  34.331  27.049   2.874
70393W        W42818  14.910  11.711   1.654
70394W        W42819  39.676  35.105   3.971
70395W        W42820  44.964  26.165  13.497
70396W        W42821  18.693  21.485  10.955
70397W        W42822  30.100  11.411   4.728
70398W        W42823  16.587   4.372  11.007
70399W        W42824   8.336  30.295  11.810
70400W        W42825  28.675  15.558  13.427
70401W        W42826   0.169  39.668  11.295
70402W        W42827  21.186  10.452  10.748
70403W        W42828   8.414  42.068  10.720
70404W        W42829  15.904  41.320   4.494
70405W        W42830   2.783  21.160  11.986
70406W        W42831  41.980  37.551  12.529
70407W        W42832  23.530  16.164   2.232
70408W        W42833  35.676  32.023  14.996
70409W        W42834  31.386  17.639  11.161
70410W        W42835  44.250  27.935   4.604
70411W        W42836  32.998   8.203   3.554
70412W        W42837  37.123  39.362  10.795
70413W        W42838  22.253   8.710  13.955
70414W        W42839   6.234  17.643   0.650
70415W        W42840   8.227   7.703   2.725
70416W        W42841   6.788  19.060   3.651
70417W        W42842   8.645  29.452  13.859
70418W        W42843  36.393   2.293   3.095
70419W        W42844   2.954  24.441  12.489
70420W        W42845  28.039  12.303  12.038
70421W        W42846  19.194  30.534  12.382
70422W        W42847  35.171  20.669   3.816
70423W        W42848   5.226  29.920  10.368
70424W        W42849  13.647  36.510  11.357
70425W        W42850  37.760   0.600  14.211
70426W        W42851  27.753  30.442   4.199
70427W        W42852   7.834  17.060   4.196
70428W        W42853  37.233   3.785   5.222
70429W        W42854  40.271  35.409   2.440
70430W        W42855  12.813   1.391   1.797
70431W        W42856  19.337  22.552  11.706
70432W        W42857  11.563  30.159  11.146
70433W        W42858   6.244  32.360  11.276
70434W        W42859  18.445   0.964   0.860
70435W        W42860  38.120  43.537  11.567
70436W        W42861   9.164  43.956  11.995
70437W        W42862  29.205  39.786  12.544
70438W        W42863  14.903  42.028   1.389
70439W        W42864   6.440  26.269   1.948
70440W        W42865  16.768  16.121  12.596
70441W        W42866   7.204   8.644  11.065
70442W        W42867  26.765   4.703   3.652
70443W        W42868   2.382   6.616   4.250
70444W        W42869  43.557  10.870   4.807
70445W        W42870   8.961  34.517  14.396
70446W        W42871   3.725   0.914  13.105
70447W        W42872  16.148  40.920  13.968
70448W        W42873  32.412  14.090   1.395
70449W        W42874  17.412  28.957   3.701
70450W        W42875  25.006  44.766  11.861
70451W        W42876   3.304  17.664  14.492
70452W        W42877  34.418  41.558  14.362
70453W        W42878  24.986  21.802   4.203
70454W        W42879  21.839  20.623  13.858
70455W        W42880   9.102  17.463   4.504
70456W        W42881   5.339  12.484   0.095
70457W        W42882  22.347  21.038   0.831
70458W        W42883   7.624  35.535   1.435
70459W        W42884  22.518   3.387  13.904
70460W        W42885  16.971  35.600   1.856
70461W        W42886  30.022  29.948  13.442
70462W        W42887   6.953  27.147   1.846
70463W        W42888   1.074  13.181   4.113
70464W        W42889  18.299  41.500  14.334
70465W        W42890  28.843  44.877  10.755
70466W        W42891  44.479   4.882   2.991
70467W        W42892  15.151  13.828  12.293
70468W        W42893  21.001  24.973   3.552
70469W        W42894  35.726  33.266  14.637
70470W        W42895   7.489  17.877   0.408
70471W        W42896  41.013  30.402   3.656
70472W        W42897  35.017  23.246  13.304
70473W        W42898  43.282  19.140  14.948
70474W        W42899   3.556  16.372   2.152
70475W        W42900   7.802  35.872  11.552
70476W        W42901   9.604  33.588   1.809
70477W        W42902  43.104  16.612   2.401
70478W        W42903  39.380  11.221  10.690
70479W        W42904  24.583  43.590  13.588
70480W        W42905  28.158  29.047  10.622
70481W        W42906   7.749  17.637  11.189
70482W        W42907  15.602  37.324   3.751
70483W        W42908  15.935  30.046   3.113
70484W        W42909   3.878  21.009  12.908
70485W        W42910  43.822   5.371   3.910
70486W        W42911  36.636  32.566   3.793
70487W        W42912  27.751  40.853   4.145
70488W        W42913   7.478  35.699  12.433
70489W        W42914  24.943  44.556   1.416
70490W        W42915  30.588  21.297   2.161
70491W        W42916  15.614  37.042   2.149
70492W        W42917  18.977  25.614   2.365
70493W        W42918  35.823   8.187   1.226
70494W        W42919   9.255  21.219   5.005
70495W        W42920   9.986  22.263  13.653
70496W        W42921  28.566  28.170   0.457
70497W        W42922  21.478  23.686  12.667
70498W        W42923  44.836   7.468   3.871
70499W        W42924  14.090  34.147  14.659
70500W        W42925  36.615  23.219  14.512
70501W        W42926  29.536   4.506  12.512
70502W        W42927  44.651   6.340   0.317
70503W        W42928  26.436  26.599  12.804
70504W        W42929  25.627  16.775   1.258
70505W        W42930   5.693  33.834  13.511
70506W        W42931   1.191  36.417  12.989
70507W        W42932  14.757   2.228  14.004
70508W        W42933  30.849  35.125   3.632
70509W        W42934  24.230   5.224   0.914
70510W        W42935  39.607  15.572   0.999
70511W        W42936  30.180  41.840  11.334
70512W        W42937  36.500  23.920  10.590
70513W        W42938  36.510  38.051  12.359
70514W        W42939  42.330  40.152   4.990
70515W        W42940   6.258   0.262  10.250
70516W        W42941   3.009  29.044   1.048
70517W        W42942  24.043  33.104   3.638
70518W        W42943  14.185  32.564  12.009
70519W        W42944  11.232  22.316  14.087
70520W        W42945  42.250  26.573   3.312
70521W        W42946   5.745  23.792   1.646
70522W        W42947   8.167   2.295  13.991
70523W        W42948  37.937  28.277  12.113
70524W        W42949   7.724  36.647   3.862
70525W        W42950  11.210   1.651  14.390
70526W        W42951  13.143   9.897   4.674
70527W        W42952   8.471  39.127  11.033
70528W        W42953  29.409  39.737   1.595
70529W        W42954  18.233  26.210  11.245
70530W        W42955  13.328  19.191  13.143
70531W        W42956  18.687  27.898  13.945
70532W        W42957  29.886   0.457  14.888
70533W        W42958  18.982  14.624  13.136
70534W        W42959  24.734  12.833   3.047
70535W        W42960  12.227  33.653  14.813
70536W        W42961  17.064  31.623   3.694
70537W        W42962  35.133  19.694   3.797
70538W        W42963   3.382  24.441   0.893
70539W        W42964   5.950  37.978   0.811
70540W        W42965   6.639  15.610   2.408
70541W        W42966  37.843   0.729   1.571
70542W        W42967  26.129  44.386   3.671
70543W        W42968  42.341  27.398  10.577
70544W        W42969  13.588  39.998  12.532
70545W        W42970  34.978  38.455  10.578
70546W        W42971  32.861  33.931   1.434
70547W        W42972  14.317  42.505  11.650
70548W        W42973   1.753  43.707   2.170
70549W        W42974  29.874  35.017   3.226
70550W        W42975   9.303   2.001   4.652
70551W        W42976  24.671   7.958   0.299
70552W        W42977  29.192  40.793   3.037
70553W        W42978  38.997  40.238   4.053
70554W        W42979   1.924  10.689  14.724
70555W        W42980   7.102  43.510  12.059
70556W        W42981  37.782  41.102   0.721
70557W        W42982  38.843  12.887  13.447
70558W        W42983   3.474  27.509  10.695
70559W        W42984   6.265  10.174  13.350
70560W        W42985  16.830   8.850   3.220
70561W        W42986  16.027  38.588   1.758
70562W        W42987  35.625  35.412  10.663
70563W        W42988  28.528  21.822   1.849
70564W        W42989   5.488   3.069   3.133
70565W        W42990   2.783  28.524   3.627
70566W        W42991  36.869  31.807   4.122
70567W        W42992  18.472  17.181  11.386
70568W        W42993  31.984  38.525   3.361
70569W        W42994  41.734  20.126   3.313
70570W        W42995  35.094  12.122   4.130
70571W        W42996  34.671  31.203   0.370
70572W        W42997  41.840  12.049   1.266
70573W        W42998  32.550  44.852  11.193
70574W        W42999   0.051   7.841  13.379
70575W        W43000  35.718  15.003  14.822
70576W        W43001  35.387  25.231  14.399
70577W        W43002  14.027  24.745   4.610
70578W        W43003  31.581  22.853  10.867
70579W        W43004  35.509  16.287   3.209
70580W        W43005  18.015  39.773   2.227
70581W        W43006   7.825  14.691  13.810
70582W        W43007  22.698  33.237   4.803
70583W        W43008  38.084  12.589  12.469
70584W        W43009  26.019  26.764  10.866
70585W        W43010  39.523  15.258  11.615
70586W        W43011  37.733   4.304   2.392
70587W        W43012  24.537  29.957  12.879
70588W        W43013   9.920  15.665  13.397
70589W        W43014  20.854  31.661  13.952
70590W        W43015   5.158  43.419   4.619
70591W        W43016  29.102  19.197   0.316
70592W        W43017  17.251   7.162  12.851
70593W        W43018  37.837  39.267  12.455
70594W        W43019   5.942  30.832   4.007
70595W        W43020   3.181   8.468  14.889
70596W        W43021  14.743  30.430  12.033
70597W        W43022  16.822  14.788  11.356
70598W        W43023  23.699   9.943   0.330
70599W        W43024  28.068  20.500   1.831
70600W        W43025  27.625  44.012   1.982
70601W        W43026   5.101  25.156  13.083
70602W        W43027  26.511   9.415   1.272
70603W        W43028  18.027  41.984   3.568
70604W        W43029  36.903  39.153  13.808
70605W        W43030   7.999  33.177  13.792
70606W        W43031  39.520  41.809  10.730
70607W        W43032  33.514  42.750   1.263
70608W        W43033  42.426  40.216  13.892
70609W        W43034  23.878  41.431   1.082
70610W        W43035  34.197  15.612  13.480
70611W        W43036  31.193  25.283  10.732
70612W        W43037  34.961  11.202   3.656
70613W        W43038   6.681  32.888   1.741
70614W        W43039  40.412  41.043  12.493
70615W        W43040  40.453   6.958   1.195
70616W        W43041  12.889  41.305   3.333
70617W        W43042  31.104  41.014   0.804
70618W        W43043   7.108  17.230  13.550
70619W        W43044   6.509  43.485   0.801
70620W        W43045  22.520  32.233   2.204
70621W        W43046  12.915   1.480   2.890
70622W        W43047  23.570  10.938   0.396
70623W        W43048  30.364  16.801   3.661
70624W        W43049  37.419  21.099   4.266
70625W        W43050   9.309  35.609  13.008
70626W        W43051  31.589  11.166  12.571
70627W        W43052  22.177  10.169  12.990
70628W        W43053  11.438  37.963   2.831
70629W        W43054  10.321  27.451  13.340
70630W        W43055   9.900  14.203  13.591
70631W        W43056  24.728   4.815  11.445
70632W        W43057   2.168  39.897  10.714
70633W        W43058  20.170  16.115  11.798
70634W        W43059   9.355  12.160   3.281
70635W        W43060  27.018   6.792  12.073
70636W        W43061  30.635  22.953  13.847
70637W        W43062  31.764  40.472   4.724
70638W        W43063  26.276  15.556  14.480
70639W        W43064  40.849  28.989   0.353
70640W        W43065  27.893  11.403  13.012
70641W        W43066  44.236   1.055  10.333
70642W        W43067  29.587  34.026   1.305
70643W        W43068  44.214  40.944  11.966
70644W        W43069   7.526  18.901  12.797
70645W        W43070   1.854   6.281  10.691
70646W        W43071  28.194  15.255  14.143
70647W        W43072  39.326   0.683  10.501
70648W        W43073  30.826   2.414   1.698
70649W        W43074  31.904  16.839   4.673
70650W        W43075  19.975  11.813   4.769
70651W        W43076  10.352  22.009   3.610
70652W        W43077  44.893   0.305   2.741
70653W        W43078  37.916  38.397   4.309
70654W        W43079  36.058   5.237  14.344
70655W        W43080  39.521  21.156   1.663
70656W        W43081  39.993   4.333  13.038
70657W        W43082  24.430  33.949   0.710
70658W        W43083   6.403  44.782   4.161
70659W        W43084   2.618  13.694  14.358
70660W        W43085  27.207  29.830  11.773
70661W        W43086  35.189   2.873  13.590
70662W        W43087  36.264   8.782   3.441
70663W        W43088  36.751  15.710  12.657
70664W        W43089  33.204  32.892  14.261
70665W        W43090  21.036  38.958   2.277
70666W        W43091  10.314  29.203   3.668
70667W        W43092  38.921  29.013  10.524
70668W        W43093  36.062  24.763   2.182
70669W        W43094  11.407  40.819  10.490
70670W        W43095   3.710  24.548   0.490
70671W        W43096  30.372  16.008  13.863
70672W        W43097  44.800  10.128  13.954
70673W        W43098  20.692  36.487  13.743
70674W        W43099   5.780   9.237   2.089
70675W        W43100  44.369  26.581  10.116
70676W        W43101  16.601   2.464   1.849
70677W        W43102   1.659  36.338  12.080
70678W        W43103  12.224   3.937  12.702
70679W        W43104  18.356   7.294   2.151
70680W        W43105   9.876   3.880   4.624
70681W        W43106  14.107  25.044  12.603
70682W        W43107  11.289  11.094  12.468
70683W        W43108  31.537   2.399  14.007
70684W        W43109   9.449   4.779   0.263
70685W        W43110  24.615  27.177   0.301
70686W        W43111   7.797  16.147   1.339
70687W        W43112   6.923  10.378   2.871
70688W        W43113  26.402   7.254  11.073
70689W        W43114  14.718  15.314  13.338
70690W        W43115  22.242  35.805   1.999
70691W        W43116   8.971   4.046   0.455
70692W        W43117   4.502   5.930  12.135
70693W        W43118  24.767  27.632   0.488
70694W        W43119  14.912  23.016   1.807
70695W        W43120  19.359  11.397  11.146
70696W        W43121  43.899   3.887  14.407
70697W        W43122   4.146   9.587   1.737
70698W        W43123   9.556   6.797  14.806
70699W        W43124  36.189  30.216   0.932
70700W        W43125  26.198   2.719  10.734
70701W        W43126  25.213  18.566   1.951
70702W        W43127  33.824  32.639   0.975
70703W        W43128  18.631   6.073   0.890
70704W        W43129  31.987  38.848   0.544
70705W        W43130  44.361   3.762  13.626
70706W        W43131  22.282  31.689  11.596
70707W        W43132  27.652  10.759  13.845
70708W        W43133  36.425  13.386   4.710
70709W        W43134  28.232  17.073  10.639
70710W        W43135  23.792  30.020   0.202
70711W        W43136  23.968  26.758  10.664
70712W        W43137   1.416  34.174   3.816
70713W        W43138  40.475  41.865   1.365
70714W        W43139  14.710  30.433   4.135
70715W        W43140  26.283  25.413   0.895
70716W        W43141  15.798  10.370   1.777
70717W        W43142  39.466  35.005   0.192
70718W        W43143  35.265  27.479  13.910
70719W        W43144  39.745  42.796   4.889
70720W        W43145  26.236  26.149   2.848
70721W        W43146  30.538  38.126  10.645
70722W        W43147  21.779  41.704   2.350
70723W        W43148  28.837  35.337  10.710
70724W        W43149  44.930   9.712  10.616
70725W        W43150  40.394  29.482   3.302
70726W        W43151  20.083  36.943   1.162
70727W        W43152  42.216  30.924   3.504
70728W        W43153  14.908   2.351   0.344
70729W        W43154  42.159   9.112  12.749
70730W        W43155  12.819  19.555   1.235
70731W        W43156   7.484  19.178   0.425
70732W        W43157   6.664  11.477  10.754
70733W        W43158  24.480  13.903  13.858
70734W        W43159  13.187  23.749   0.441
70735W        W43160  44.281  32.977   3.202
70736W        W43161  39.797  42.814   0.707
70737W        W43162  16.117  23.873  13.786
70738W        W43163  18.782  18.556  11.634
70739W        W43164  12.179  28.158   3.128
70740W        W43165  11.798  32.145  11.735
70741W        W43166  16.791   6.880  12.799
70742W        W43167  14.667  24.569   2.374
70743W        W43168   4.224  27.549   1.173
70744W        W43169  33.390  23.566  12.853
70745W        W43170  10.878  40.809  11.932
70746W        W43171   6.504   0.489  12.288
70747W        W43172   6.777  25.973   1.015
70748W        W43173   4.425  21.750   1.378
70749W        W43174   2.848  32.949  12.871
70750W        W43175  40.359  22.462  14.375
70751W        W43176  42.836   5.277  14.048
70752W        W43177  24.244  20.269  12.461
70753W        W43178  26.466  10.583  10.267
70754W        W43179  28.869   0.794  12.756
70755W        W43180  44.606  29.868   4.748
70756W        W43181  24.625  38.069  14.502
70757W        W43182  13.193   4.358  10.971
70758W        W43183  44.300  10.296  14.545
70759W        W43184  17.176   2.514  11.095
70760W        W43185  40.402  18.141  14.458
70761W        W43186  41.621  29.100   3.347
70762W        W43187  11.769  44.938   4.253
70763W        W43188  26.480  14.634  14.796
70764W        W43189  36.831  37.038  11.008
70765W        W43190  21.723  11.365  12.328
70766W        W43191  29.444  30.050   4.011
70767W        W43192   0.533  40.372   3.233
70768W        W43193  33.588   0.666   2.884
70769W        W43194  14.968  12.694  13.932
70770W        W43195  39.008   3.742   4.577
70771W        W43196  20.216   1.722   2.508
70772W        W43197  10.391  40.939  12.075
70773W        W43198  40.102   6.825  14.044
70774W        W43199  38.187   5.641   2.120
70775W        W43200  24.481  18.212  14.837
70776W        W43201  33.761   0.261   2.210
70777W        W43202   2.171  26.253   2.205
70778W        W43203  22.044  21.399  10.661
70779W        W43204  10.089   7.208   0.228
70780W        W43205  36.943  42.725  11.621
70781W        W43206  26.271  43.319  10.701
70782W        W43207  34.044  10.885   2.332
70783W        W43208   0.795  32.243   1.383
70784W        W43209   5.332  39.848  11.093
70785W        W43210   3.283   5.177   3.814
70786W        W43211  17.746  40.283  12.656
70787W        W43212  24.693  25.191   2.862
70788W        W43213  21.268   1.452   3.446
70789W        W43214  23.490  37.050  11.175
70790W        W43215  31.070  33.105  13.128
70791W        W43216  18.131  14.028   4.850
70792W        W43217  44.409   4.460   3.818
70793W        W43218   4.504  35.085  10.709
70794W        W43219  13.291  37.774  11.467
70795W        W43220   4.604   0.319   4.142
70796W        W43221  24.985  14.734  13.360
70797W        W43222  43.773  34.205   2.180
70798W        W43223   8.899  29.393  10.294
70799W        W43224  34.009   9.986   0.745
70800W        W43225  24.612   0.808  13.907
70801W        W43226  39.523  43.758   2.251
70802W        W43227  26.690  23.691  12.169
70803W        W43228   9.753   1.783  11.050
70804W        W43229  32.480   8.670   2.309
70805W        W43230  34.012  42.795   0.306
70806W        W43231  17.198  38.550   4.170
70807W        W43232   4.428  14.418   3.587
70808W        W43233  15.724  38.804  12.684
70809W        W43234  35.311  17.751  11.977
70810W        W43235   9.122  37.400   0.351
70811W        W43236  18.343  17.310  12.362
70812W        W43237  44.351  15.601   0.256
70813W        W43238   7.455   4.577  11.276
70814W        W43239  19.749  35.824  13.090
70815W        W43240  37.139   0.028   4.847
70816W        W43241  43.349  34.218   9.583
70817W        W43242   0.076  31.951  13.897
70818W        W43243  15.085  23.085  12.655
70819W        W43244   5.305   9.813   2.677
70820W        W43245   0.092  25.469   3.179
70821W        W43246  34.577  39.908  13.554
70822W        W43247  15.651  13.212   1.945
70823W        W43248  22.300  16.826  12.959
70824W        W43249  26.684  27.964   4.816
70825W        W43250  39.507  13.792   0.324
70826W        W43251  18.195  27.639  12.562
70827W        W43252  31.510  19.454  14.781
70828W        W43253  23.723  35.545  14.916
70829W        W43254  14.095  17.498   1.705
70830W        W43255  12.122  36.911  14.774
70831W        W43256  11.209  36.319   2.878
70832W        W43257  14.226  44.675   0.225
70833W        W43258   8.690  23.648  10.454
70834W        W43259  36.399  36.882   3.794
70835W        W43260   7.397   9.760   3.434
70836W        W43261  43.306   5.263   3.977
70837W        W43262  16.424   3.998  10.693
70838W        W43263  36.466   0.197  13.326
70839W        W43264   3.869  13.492   0.898
70840W        W43265  11.134   8.654  14.143
70841W        W43266  31.078  36.445   4.378
70842W        W43267  13.410  22.494  10.153
70843W        W43268  39.009   0.401   1.985
70844W        W43269  25.383  37.532  14.287
70845W        W43270   6.402  10.314   0.175
70846W        W43271  41.817  33.205  13.416
70847W        W43272  15.714  43.246  12.074
70848W        W43273  39.063  12.165  12.902
70849W        W43274  37.342  22.314   3.963
70850W        W43275  23.264  10.578   5.058
70851W        W43276  14.635  17.247   4.606
70852W        W43277  25.361  35.975   4.109
70853W        W43278  13.798  21.151   0.541
70854W        W43279  41.534   6.639  13.106
70855W        W43280  17.818   6.100  14.040
70856W        W43281  15.871  30.646   0.068
70857W        W43282  36.635   6.760  11.293
70858W        W43283  40.765   4.197  12.578
70859W        W43284  41.570  28.580   1.827
70860W        W43285  43.370  22.514   1.146
70861W        W43286   9.773   4.852  14.387
70862W        W43287  28.265  35.005   2.161
70863W        W43288  29.870  12.130  12.879
70864W        W43289  22.568  24.618  12.998
70865W        W43290   5.860  27.077  13.498
70866W        W43291   0.970  16.716   1.548
70867W        W43292   5.775  34.318  11.748
70868W        W43293  21.107  37.279   4.257
70869W        W43294  34.117   4.971  11.542
70870W        W43295  43.042  29.387  11.121
70871W        W43296  37.902  21.810  11.048
70872W        W43297  16.150  40.133   0.294
70873W        W43298  24.724  35.200   2.281
70874W        W43299   9.961  29.050  13.990
70875W        W43300  42.651  17.358   1.830
70876W        W43301   3.684   3.444  14.302
70877W        W43302   1.873  34.297   4.039
70878W        W43303  12.078  34.891  14.994
70879W        W43304  38.944  35.784  10.784
70880W        W43305  19.902  10.628  10.210
70881W        W43306  13.092  32.595   0.854
70882W        W43307   3.455  24.525  10.740
70883W        W43308   8.776  16.769  14.447
70884W        W43309  29.741  32.893   3.648
70885W        W43310  13.238  20.405  11.455
70886W        W43311  12.317  10.865  12.016
70887W        W43312  29.604   1.036  12.082
70888W        W43313  29.107   5.878   1.339
70889W        W43314  10.236   5.736   4.527
70890W        W43315  22.088  35.887   2.954
70891W        W43316   6.703   0.293   1.559
70892W        W43317  16.307   8.304   4.226
70893W        W43318  13.064  12.085   2.218
70894W        W43319  35.103  43.207   2.549
70895W        W43320  14.280  43.342   2.782
70896W        W43321  32.005  14.412   3.256
70897W        W43322  38.303  31.061  13.911
70898W        W43323  35.061  29.969  10.923
70899W        W43324  19.643  33.525   3.827
70900W        W43325  42.934   0.011  12.613
70901W        W43326  18.501   4.083  14.672
70902W        W43327   0.802   9.657  14.846
70903W        W43328  31.020  19.995   0.822
70904W        W43329  19.037   7.245   4.605
70905W        W43330  23.039  37.789   4.736
70906W        W43331  36.488  32.512   0.859
70907W        W43332  23.064  30.211  14.316
70908W        W43333  32.972  16.193   0.015
70909W        W43334  31.778  21.804  11.396
70910W        W43335  24.630  23.664   4.366
70911W        W43336  12.365  33.623   0.328
70912W        W43337  35.055  32.112  10.706
70913W        W43338   4.700   3.414  10.970
70914W        W43339  13.343  44.715   5.016
70915W        W43340  11.223   2.629   4.624
70916W        W43341   6.152  12.238   4.874
70917W        W43342  22.629  28.041  11.620
70918W        W43343  28.575   0.802   4.565
70919W        W43344  34.066  32.803  11.115
70920W        W43345  24.772  36.010   2.688
70921W        W43346  19.668  24.477   2.450
70922W        W43347  40.753   0.967  12.469
70923W        W43348  25.691   2.190  13.151
70924W        W43349   9.354  11.133  13.374
70925W        W43350  32.743  37.531   0.795
70926W        W43351   8.908  22.527   0.024
70927W        W43352  43.289   9.413   0.648
70928W        W43353  20.730  15.657  12.458
70929W        W43354  19.965   2.277   3.659
70930W        W43355  10.187   0.528  11.128
70931W        W43356  23.463  12.389   4.515
70932W        W43357   5.271  10.485  13.654
70933W        W43358  29.734  13.626   2.865
70934W        W43359  41.101   2.372  13.428
70935W        W43360   0.329   0.147  12.472
70936W        W43361  33.019   6.134   3.800
70937W        W43362  44.399  37.390   4.168
70938W        W43363  44.910  33.316  12.309
70939W        W43364  19.529  30.226   0.548
70940W        W43365   6.919  23.019  12.972
70941W        W43366  10.812  31.016   4.503
70942W        W43367  31.905   1.997  13.367
70943W        W43368  17.534  37.357  11.649
70944W        W43369  20.300  14.721  11.484
70945W        W43370  35.393  39.591   1.488
70946W        W43371  40.612  42.377   0.761
70947W        W43372  43.485   8.184  11.366
70948W        W43373  23.865  37.459  14.005
70949W        W43374   4.238   6.962   3.188
70950W        W43375  29.003  29.813   1.905
70951W        W43376  31.909  37.989   3.584
70952W        W43377  24.049   2.647  13.636
70953W        W43378  38.459   7.716  10.254
70954W        W43379  21.743  10.234  11.527
70955W        W43380  44.466  30.459   0.364
70956W        W43381  20.758  37.149   2.355
70957W        W43382  19.000  44.870   3.758
70958W        W43383  23.980  28.936  11.537
70959W        W43384  21.262  16.676  11.157
70960W        W43385  39.780  36.935  13.323
70961W        W43386   7.788  43.795  10.455
70962W        W43387   6.663  16.852   1.660
70963W        W43388  26.523  15.733   3.016
70964W        W43389  29.474  18.784  12.999
70965W        W43390  29.017  39.355  12.204
70966W        W43391  10.782  38.818  10.050
70967W        W43392  12.753  24.978   1.294
70968W        W43393  11.799   5.592   2.802
70969W        W43394  20.779  43.143  13.595
70970W        W43395   3.194  21.106  11.604
70971W        W43396  43.089  14.095  12.553
70972W        W43397  11.221   9.140  12.908
70973W        W43398  10.885  24.600   0.880
70974W        W43399  34.110  19.763  10.561
70975W        W43400  25.667  40.742   3.260
70976W        W43401  32.213  10.826   1.492
70977W        W43402   4.403  32.543   1.005
70978W        W43403  25.247  18.270   1.144
70979W        W43404  22.235  43.261   2.881
70980W        W43405  38.272   2.396   1.778
70981W        W43406  19.557  10.641  14.995
70982W        W43407  16.101  27.094  14.250
70983W        W43408  20.192   0.306  14.389
70984W        W43409  44.424  21.038  10.601
70985W        W43410   9.410  21.130   1.690
70986W        W43411  39.291  14.940   0.482
70987W        W43412  25.578   3.984  12.571
70988W        W43413  35.154  32.762   4.621
70989W        W43414  20.758  20.116   1.911
70990W        W43415  11.545  36.842  13.943
70991W        W43416  30.979  41.596  12.118
70992W        W43417  39.338  25.530  11.939
70993W        W43418  30.178  29.084   2.812
70994W        W43419  38.055  43.378   1.625
70995W        W43420  20.766  15.730   1.180
70996W        W43421   8.872  10.832  13.736
70997W        W43422  31.418  42.505   2.395
70998W        W43423   2.729  43.040   0.012
70999W        W43424  41.429  19.920   9.889
71000W        W43425  10.728  16.728  14.398
71001W        W43426  19.055   2.069  12.120
71002W        W43427  21.108  36.143   0.853
71003W        W43428  39.388   4.993   2.630
71004W        W43429   5.794  35.583  11.944
71005W        W43430  44.405  24.977  13.843
71006W        W43431   9.650  11.014  14.199
71007W        W43432  22.637  26.226  10.542
71008W        W43433  30.095  34.121   3.304
71009W        W43434  41.359  28.474   4.554
71010W        W43435   5.621  37.502   0.156
71011W        W43436  21.613  12.146  11.355
71012W        W43437   5.222   3.706   1.415
71013W        W43438  38.244  12.583   3.032
71014W        W43439  24.394  19.226   4.829
71015W        W43440  21.274  26.137  12.475
71016W        W43441  39.548  25.786   0.844
71017W        W43442   4.368  28.160   4.000
71018W        W43443   2.764   9.426  12.070
71019W        W43444  29.284  44.604  14.931
71020W        W43445  19.504   0.837   0.790
71021W        W43446  31.566  38.910   2.360
71022W        W43447  40.259   5.737  14.472
71023W        W43448  38.387  23.763  13.452
71024W        W43449   2.725  15.774  13.717
71025W        W43450  29.678   5.766   4.641
71026W        W43451  41.370  38.940  13.031
71027W        W43452  11.854  32.074   2.969
71028W        W43453  43.047  20.364  13.323
71029W        W43454  39.842  13.791   2.812
71030W        W43455  13.411  28.954   4.495
71031W        W43456  37.034  15.290  14.845
71032W        W43457   4.131  22.492   0.334
71033W        W43458  39.117  22.472   4.198
71034W        W43459  16.650   1.046  14.520
71035W        W43460  13.307   8.923  12.551
71036W        W43461  16.711  32.562   3.162
71037W        W43462  44.716  38.711   0.768
71038W        W43463  19.950  24.313  11.229
71039W        W43464  18.139  36.332  13.771
71040W        W43465  27.639  39.085  11.209
71041W        W43466  32.631  33.919  10.623
71042W        W43467  19.471  13.831   1.411
71043W        W43468  32.151  22.673  12.845
71044W        W43469   0.743  19.746  10.202
71045W        W43470   5.407  28.216   3.574
71046W        W43471  37.134  44.349   4.611
71047W        W43472  41.005  10.737   0.981
71048W        W43473  23.045  10.718  10.581
71049W        W43474  28.693  39.494   4.173
71050W        W43475  10.222   9.608  13.714
71051W        W43476  14.881   3.391  12.497
71052W        W43477   5.247  13.098   2.600
71053W        W43478   7.414   7.865   0.766
71054W        W43479  30.859  44.834   4.144
71055W        W43480  30.569  28.262   1.843
71056W        W43481   0.330  12.257   4.807
71057W        W43482  41.095  37.268   0.738
71058W        W43483  21.778  32.022   3.011
71059W        W43484  32.026  22.574  11.976
71060W        W43485  15.327  32.123  12.409
71061W        W43486  32.759  26.071   3.281
71062W        W43487   3.429  42.544   3.998
71063W        W43488  43.091  17.065   5.119
71064W        W43489  36.875  30.747   3.530
71065W        W43490   6.083  28.498  14.783
71066W        W43491  21.285  10.659   0.363
71067W        W43492  25.160  15.966   4.147
71068W        W43493  36.143  20.609   3.841
71069W        W43494  17.564  39.536  13.621
71070W        W43495  13.325  44.416  12.995
71071W        W43496  16.475  23.283   4.566
71072W        W43497  20.997  36.453   3.705
71073W        W43498   3.449  10.979   1.672
71074W        W43499  34.298  27.612   3.642
71075W        W43500   9.266  10.596  13.459
71076W        W43501  10.266  25.192   2.904
71077W        W43502  10.936  42.919   0.997
71078W        W43503  43.340  30.003   4.937
71079W        W43504  27.547  14.216   2.182
71080W        W43505   0.970  23.720  14.405
71081W        W43506   7.195  34.861  11.162
71082W        W43507  21.336  37.417   0.258
71083W        W43508  36.485  37.900   0.983
71084W        W43509  33.854   0.318  11.104
71085W        W43510  25.685   1.262   0.885
71086W        W43511   7.849  33.146  11.250
71087W        W43512   0.957  29.731   1.792
71088W        W43513  27.514  35.500  12.036
71089W        W43514  34.107  16.767   3.808
71090W        W43515  19.417  19.227  13.218
71091W        W43516  35.966  27.682   3.962
71092W        W43517  26.398  33.155   0.446
71093W        W43518  28.871  31.613   1.173
71094W        W43519  18.256   9.351  14.401
71095W        W43520  18.478  40.846   1.260
71096W        W43521  33.110   9.589  14.955
71097W        W43522  16.193  22.891  13.407
71098W        W43523  18.676   9.709  12.949
71099W        W43524  33.440  23.251   4.465
71100W        W43525   6.361   4.508   2.849
71101W        W43526   1.452   1.380  11.274
71102W        W43527  16.094  25.232  13.271
71103W        W43528  26.568  34.079   2.923
71104W        W43529   0.982  10.327   4.926
71105W        W43530  41.851  32.453   2.636
71106W        W43531  17.246  27.651  13.827
71107W        W43532  24.978   2.430   3.280
71108W        W43533   8.607  31.854  12.955
71109W        W43534  28.028  16.668  11.973
71110W        W43535  31.190  39.683   9.716
71111W        W43536  11.844  44.384  13.993
71112W        W43537  25.003  26.150   4.015
71113W        W43538   5.380  14.740  12.850
71114W        W43539  10.438  21.863  10.170
71115W        W43540   8.998  18.273  11.352
71116W        W43541  44.922   5.197   4.341
71117W        W43542  41.336  22.036  13.577
71118W        W43543  10.712  37.550  10.638
71119W        W43544  41.823  41.390   0.413
71120W        W43545  41.988  32.953  12.081
71121W        W43546  12.281  24.539  11.559
71122W        W43547   2.664  38.519   3.956
71123W        W43548  17.287  21.646  12.130
71124W        W43549  39.250  19.211   3.763
71125W        W43550  13.315  44.170  12.077
71126W        W43551  43.130  34.862  11.992
71127W        W43552  28.647  22.326   1.871
71128W        W43553   4.853  24.169   3.685
71129W        W43554   1.427   6.879  13.873
71130W        W43555  25.116  21.039   4.480
71131W        W43556  34.064   0.310   4.111
71132W        W43557  19.641   5.368  11.890
71133W        W43558  39.228  19.490  11.719
71134W        W43559   2.439  35.195   3.592
71135W        W43560   5.309  15.614   2.744
71136W        W43561  33.168  24.451  13.270
71137W        W43562  23.262  36.759   3.222
71138W        W43563  26.223  36.459  12.928
71139W        W43564  27.409   2.531  12.966
71140W        W43565  42.978  38.503  14.409
71141W        W43566  10.212  13.050   1.277
71142W        W43567  21.154   3.278   0.147
71143W        W43568   8.850  20.620   2.763
71144W        W43569  29.684  36.936   2.211
71145W        W43570  26.152  19.537  12.960
71146W        W43571  14.387  30.728   1.089
71147W        W43572  44.719  29.692  13.435
71148W        W43573   3.591  11.165  13.839
71149W        W43574  18.739   8.272  13.785
71150W        W43575  10.247  23.301  14.461
71151W        W43576   2.904  21.485   2.156
71152W        W43577  13.363   2.612   4.674
71153W        W43578  30.494  41.819   3.140
71154W        W43579  27.649  19.981  13.985
71155W        W43580   7.218   7.460   4.573
71156W        W43581   0.308  28.091  12.959
71157W        W43582  29.066   8.004   4.638
71158W        W43583  33.395  10.742   1.720
71159W        W43584  37.802  12.315  11.109
71160W        W43585   0.201   6.784   0.914
71161W        W43586  12.136  43.490  12.442
71162W        W43587  10.821  36.872  14.439
71163W        W43588  24.929  41.677   4.104
71164W        W43589  17.399   7.876   2.269
71165W        W43590  42.281  27.419   0.344
71166W        W43591   4.850  44.816  11.039
71167W        W43592   7.636  42.052  14.852
71168W        W43593  30.114   6.934  14.015
71169W        W43594  34.912  13.998   4.965
71170W        W43595  36.208  25.534   1.751
71171W        W43596  43.970  38.489  13.531
71172W        W43597  23.292  19.164   0.380
71173W        W43598  37.966   0.904   3.833
71174W        W43599  18.028   8.393  12.170
71175W        W43600  25.731  12.231  13.206
71176W        W43601  14.905  20.170   3.644
71177W        W43602  30.957  17.623   3.605
71178W        W43603  34.611  27.781  13.090
71179W        W43604   6.384  43.938  13.736
71180W        W43605  28.220  29.881  10.094
71181W        W43606  14.687   5.481  13.482
71182W        W43607  43.510  29.668   0.914
71183W        W43608  14.530   5.004   4.359
71184W        W43609  32.022  34.763   3.144
71185W        W43610   2.525   1.358  10.327
71186W        W43611   6.904  15.972  11.206
71187W        W43612  25.062   7.904   3.305
71188W        W43613  20.104  20.307   4.221
71189W        W43614  19.264  25.168  10.521
71190W        W43615   2.248  26.452   1.723
71191W        W43616  13.190  31.072   3.774
71192W        W43617  16.767   5.359  13.500
71193W        W43618  42.542  25.449   0.345
71194W        W43619  17.685  32.701   4.224
71195W        W43620  19.760  19.027   1.747
71196W        W43621   0.776   2.788  10.965
71197W        W43622   4.818  36.443  10.647
71198W        W43623   3.689  25.934  12.705
71199W        W43624  38.616  30.665  13.857
71200W        W43625  44.983  19.970  12.891
71201W        W43626  27.545  35.055  14.776
71202W        W43627  13.729  13.257  13.960
71203W        W43628   0.971   8.221  11.852
71204W        W43629  43.039  28.122   5.090
71205W        W43630   9.039  27.886  11.168
71206W        W43631   6.741  29.706   3.361
71207W        W43632  23.212  24.663   0.270
71208W        W43633  35.625  20.500  13.888
71209W        W43634  18.328  20.998  14.842
71210W        W43635  12.219  39.863   4.369
71211W        W43636  40.440   1.711  10.841
71212W        W43637  34.766   8.850   1.762
71213W        W43638  15.143  17.590  14.900
71214W        W43639  33.039  10.413   0.287
71215W        W43640  13.260  22.192   4.026
71216W        W43641  20.228  20.288   2.341
71217W        W43642  23.959  28.447   4.124
71218W        W43643   3.738  25.547   1.865
71219W        W43644   8.765   7.937  13.536
71220W        W43645  26.274  29.659  11.954
71221W        W43646  31.346  38.644   3.903
71222W        W43647  15.835   0.477  13.262
71223W        W43648  25.135  28.926   4.702
71224W        W43649  12.877  18.758   2.926
71225W        W43650  11.359  41.466   1.405
71226W        W43651  20.119  15.763   3.304
71227W        W43652  39.678   1.339  10.477
71228W        W43653   4.175   5.094   0.408
71229W        W43654   1.866  21.398  12.626
71230W        W43655  35.356  20.550   2.265
71231W        W43656   4.665   9.658  12.002
71232W        W43657   6.320   8.212  14.348
71233W        W43658  20.827  42.010   0.649
71234W        W43659  38.367  16.825  12.991
71235W        W43660  34.509  26.939  14.966
71236W        W43661  26.170  29.840   4.200
71237W        W43662  38.381  27.394  13.438
71238W        W43663  25.993  22.205   1.895
71239W        W43664   2.818  20.672   4.419
71240W        W43665   0.859  31.066   5.294
71241W        W43666  11.109   1.288   0.968
71242W        W43667  24.027  38.346  13.725
71243W        W43668   6.784   6.250  12.794
71244W        W43669  30.474   6.422   4.760
71245W        W43670  35.132  40.666  13.647
71246W        W43671  33.564  12.827  12.460
71247W        W43672  24.341  30.980   2.434
71248W        W43673   8.173  43.441   4.642
71249W        W43674  19.040   8.406   4.241
71250W        W43675  40.531  13.661   0.382
71251W        W43676  44.032  12.983  11.570
71252W        W43677  43.382  21.740   4.192
71253W        W43678  44.699  39.301   4.055
71254W        W43679   9.093  12.670  12.148
71255W        W43680  41.242  27.545   4.145
71256W        W43681  23.467  11.093   2.693
71257W        W43682   2.444  33.752  10.185
71258W        W43683  44.937  19.565   0.665
71259W        W43684  42.089  31.987   3.054
71260W        W43685   7.307  10.776  14.423
71261W        W43686   0.319  25.904  11.119
71262W        W43687  24.697  24.222   4.491
71263W        W43688  33.974  37.593   1.286
71264W        W43689   6.856  32.389  11.482
71265W        W43690  26.923  32.404   1.207
71266W        W43691  19.634  13.318  14.523
71267W        W43692  33.696  21.809  11.133
71268W        W43693  44.493  38.401  13.500
71269W        W43694   2.854  15.221  13.037
71270W        W43695  31.450  16.885   0.452
71271W        W43696  29.567  29.171   4.502
71272W        W43697  39.606   3.234   0.974
71273W        W43698  18.454  21.167   3.652
71274W        W43699  19.683  35.230  13.727
71275W        W43700  19.802  15.237  14.059
71276W        W43701  15.789   2.405   3.725
71277W        W43702  37.905  42.236   1.671
71278W        W43703  11.833   9.971  10.638
71279W        W43704  36.571  18.662  10.712
71280W        W43705  17.880   9.913   0.028
71281W        W43706  12.089  14.740  12.638
71282W        W43707   6.807   5.617   2.287
71283W        W43708   9.407   2.858   2.224
71284W        W43709  29.532  34.399   0.489
71285W        W43710  11.078  18.775   1.864
71286W        W43711  23.610  37.344  14.819
71287W        W43712  36.897  39.916  14.269
71288W        W43713  37.048  43.316   1.916
71289W        W43714  25.976  38.252   3.741
71290W        W43715  13.719   9.438   0.856
71291W        W43716  35.463  12.140   0.180
71292W        W43717  15.723  15.040  10.720
71293W        W43718  17.816   0.020   1.679
71294W        W43719  41.179  37.455   3.747
71295W        W43720  23.719  42.294   2.320
71296W        W43721  35.264  37.083   3.089
71297W        W43722   8.341  12.281  13.806
71298W        W43723  38.052   0.876   4.335
71299W        W43724  12.737  20.085   1.295
71300W        W43725  21.037  44.861  11.522
71301W        W43726  15.162  40.159  11.108
71302W        W43727  30.799   9.235  10.416
71303W        W43728   8.126   8.228   1.633
71304W        W43729  11.600  12.868  10.580
71305W        W43730  10.321  19.960   2.337
71306W        W43731  24.688  30.112   9.680
71307W        W43732  29.776  24.222  12.534
71308W        W43733  42.956  19.228  10.261
71309W        W43734  38.164  27.951   4.750
71310W        W43735  42.378  37.114  11.723
71311W        W43736  34.510   1.341   1.941
71312W        W43737  20.276  13.293   0.905
71313W        W43738   6.467   9.153   0.215
71314W        W43739  14.127  36.918  13.762
71315W        W43740  18.900  24.389  13.899
71316W        W43741  21.640  44.948   0.288
71317W        W43742  41.835  23.438   3.563
71318W        W43743  15.534  40.294  12.326
71319W        W43744  44.381  44.989   3.150
71320W        W43745   1.307  23.647   3.268
71321W        W43746   3.814  39.610   3.194
71322W        W43747  31.458  39.100  10.948
71323W        W43748  35.344  41.046  13.346
71324W        W43749  16.689  28.451  13.070
71325W        W43750  41.591  26.154  11.894
71326W        W43751  30.552  29.781   1.011
71327W        W43752  21.291  44.379  12.659
71328W        W43753   4.820  30.086   0.061
71329W        W43754   4.312  19.797   4.755
71330W        W43755  18.753  32.184  13.363
71331W        W43756   8.878   1.264   4.602
71332W        W43757  41.456  44.835  10.921
71333W        W43758  21.584  17.824  13.488
71334W        W43759  14.676  24.156  12.898
71335W        W43760  36.679  42.243   0.751
71336W        W43761  39.749  40.022   2.640
71337W        W43762  41.475   4.971   3.243
71338W        W43763  43.522  27.420   1.774
71339W        W43764   9.867  19.644  14.668
71340W        W43765  16.744  27.660  11.723
71341W        W43766   5.972   1.854  14.274
71342W        W43767   3.505  11.309   2.356
71343W        W43768  27.229  23.482  13.381
71344W        W43769   0.385  43.807  10.896
71345W        W43770  41.981   9.252   0.779
71346W        W43771  10.218   4.329  13.778
71347W        W43772  21.093  14.190   4.122
71348W        W43773  38.462   5.033  11.256
71349W        W43774  28.836   9.867   1.344
71350W        W43775   6.187  32.580   0.776
71351W        W43776  43.317  29.603   0.410
71352W        W43777  21.539   1.001  12.688
71353W        W43778  12.158  38.995   2.810
71354W        W43779  10.262   6.163   1.299
71355W        W43780   9.293  21.525   0.143
71356W        W43781   3.207  38.053  11.076
71357W        W43782   8.294  27.273  10.557
71358W        W43783  27.205  12.561   1.860
71359W        W43784   0.057  12.037  14.041
71360W        W43785  20.617  24.968  11.178
71361W        W43786  18.785   0.560  13.602
71362W        W43787   1.210  26.686   0.694
71363W        W43788  32.612  30.302  12.247
71364W        W43789  19.022  42.836  11.010
71365W        W43790  17.656  27.662  12.559
71366W        W43791  41.970  24.799   1.849
71367W        W43792  16.663  29.621  14.425
71368W        W43793  15.878   1.843  12.670
71369W        W43794   3.270  36.105   2.303
71370W        W43795  37.619   7.236   4.697
71371W        W43796  40.486  40.716   2.942
71372W        W43797  19.291  39.578  10.683
71373W        W43798  27.027  32.464   9.710
71374W        W43799  21.115   3.873   1.297
71375W        W43800  33.615  27.237   4.139
71376W        W43801  31.454  21.008  11.708
71377W        W43802  41.547   8.775  14.900
71378W        W43803   6.397  13.522   4.518
71379W        W43804  23.023   3.959  11.958
71380W        W43805  22.596  27.373  13.863
71381W        W43806  33.177   2.310  11.289
71382W        W43807  14.279  22.908   4.430
71383W        W43808  34.378  25.215  11.644
71384W        W43809  20.169   3.493  10.199
71385W        W43810  20.346  17.482  11.247
71386W        W43811   0.376  36.614  10.743
71387W        W43812  24.444   6.254   3.673
71388W        W43813   3.957   6.419  14.407
71389W        W43814  15.003  18.266   2.109
71390W        W43815  30.986  37.531   1.910
71391W        W43816   0.358  15.109   1.710
71392W        W43817   9.196  41.335  14.707
71393W        W43818  29.638   6.743  14.854
71394W        W43819   6.984  25.092   3.182
71395W        W43820  28.021  41.610   4.163
71396W        W43821  24.537  44.981  11.823
71397W        W43822  33.570  39.908   1.366
71398W        W43823   2.990  28.050   3.474
71399W        W43824  44.034   7.557   1.021
71400W        W43825  41.481  15.513  10.581
71401W        W43826  10.910  23.467   3.631
71402W        W43827  35.448  42.782  12.193
71403W        W43828   7.435   3.185  13.537
71404W        W43829  21.386  36.452  14.282
71405W        W43830  32.544  11.599   1.370
71406W        W43831   7.287   2.004  14.268
71407W        W43832  38.596   4.008  11.977
71408W        W43833  34.462  44.025   1.450
71409W        W43834  18.848   5.298  12.048
71410W        W43835   6.441  42.640  14.338
71411W        W43836  32.597   2.806   0.667
71412W        W43837  43.053  21.944   2.503
71413W        W43838   1.977  24.888   2.155
71414W        W43839   0.383  31.475  11.879
71415W        W43840  41.104  20.854  12.811
71416W        W43841   6.805  30.622   1.359
71417W        W43842  23.019   4.983  14.308
71418W        W43843  42.388  24.196  12.646
71419W        W43844  25.140   5.395   3.670
71420W        W43845   8.754  18.875   1.317
71421W        W43846  17.768   8.753   4.005
71422W        W43847  10.439  37.456   4.601
71423W        W43848   4.437   3.760   1.353
71424W        W43849   2.444   6.703   3.750
71425W        W43850  28.783  12.927   0.256
71426W        W43851  30.413  14.207  12.333
71427W        W43852   1.206  21.564   2.194
71428W        W43853  19.616  23.630   3.678
71429W        W43854  35.029   2.252  14.826
71430W        W43855  19.044  44.486  11.712
71431W        W43856  25.060  10.622   2.309
71432W        W43857  25.205  31.163   2.932
71433W        W43858  31.875  33.025  10.753
71434W        W43859  29.019  42.339  10.758
71435W        W43860  33.968  36.426  13.262
71436W        W43861  35.081  30.651  14.077
71437W        W43862  35.300   1.515   4.259
71438W        W43863  18.348   7.849   1.568
71439W        W43864  37.051  44.295  14.225
71440W        W43865  35.478   4.307   3.344
71441W        W43866  12.184  38.379   3.548
71442W        W43867  11.760  36.388   4.382
71443W        W43868  21.050  20.141  13.082
71444W        W43869  19.702   2.786  11.970
71445W        W43870  44.450  33.217  10.274
71446W        W43871  36.128  17.568   0.487
71447W        W43872  31.919  34.296   3.349
71448W        W43873  22.714  36.442   3.955
71449W        W43874  15.040  16.558   4.308
71450W        W43875   1.826  18.569   4.632
71451W        W43876  43.000  24.398  10.576
71452W        W43877  28.541  17.160   4.655
71453W        W43878  14.782   3.856  13.659
71454W        W43879  37.756  37.605   2.851
71455W        W43880  32.417  14.146   2.271
71456W        W43881  35.036  35.822  10.659
71457W        W43882   2.847   1.929  10.937
71458W        W43883  28.423  32.946   0.169
71459W        W43884  32.529  33.137  11.205
71460W        W43885  32.915  34.954   3.583
71461W        W43886  22.958  23.207  11.137
71462W        W43887  22.976  29.502  11.541
71463W        W43888   9.142   7.750   3.182
71464W        W43889  13.415   7.282   9.942
71465W        W43890  29.257  21.504  14.204
71466W        W43891  23.287   3.730   4.615
71467W        W43892   7.660  11.910   3.687
71468W        W43893  23.283  21.251  11.538
71469W        W43894  34.552  24.041   3.063
71470W        W43895   1.649   6.605  12.051
71471W        W43896  37.575   8.863   0.091
71472W        W43897  14.835  40.789  12.935
71473W        W43898  33.444  17.762  10.936
71474W        W43899  36.132  24.194   0.985
71475W        W43900  25.134  44.277   1.879
71476W        W43901   1.190  17.607   2.683
71477W        W43902   3.115  40.755  14.771
71478W        W43903  31.227  15.965   2.253
71479W        W43904  12.136  35.073  13.607
71480W        W43905  38.753  29.387  13.463
71481W        W43906  15.590  11.294  12.117
71482W        W43907  30.477  30.686  11.231
71483W        W43908  13.402  11.200   1.494
71484W        W43909   1.176  33.220  10.612
71485W        W43910  13.800  36.846  14.787
71486W        W43911  22.513  14.245  10.324
71487W        W43912   5.892  29.096   3.148
71488W        W43913   6.873   4.347   1.646
71489W        W43914  18.982   1.375   1.343
71490W        W43915  40.132  40.953  11.151
71491W        W43916  16.354   6.273   2.426
71492W        W43917  13.017  30.664   1.448
71493W        W43918  11.674  17.566  14.014
71494W        W43919  31.680  25.169  13.440
71495W        W43920  12.297  43.825   0.378
71496W        W43921   7.189  24.862   2.723
71497W        W43922  17.694  23.426  10.972
71498W        W43923   9.345  27.437  14.900
71499W        W43924  38.077  29.825   3.907
71500W        W43925  36.654  14.542  11.127
71501W        W43926   7.733  23.038   2.175
71502W        W43927  17.168  12.050  10.534
71503W        W43928  14.703  24.812   3.317
71504W        W43929  42.082  23.810   0.810
71505W        W43930  14.995  14.626  13.466
71506W        W43931  27.306  33.581   2.852
71507W        W43932   3.013  11.668   1.238
71508W        W43933  23.809  19.121   0.520
71509W        W43934  18.470  17.617  11.098
71510W        W43935  16.554  40.471   2.926
71511W        W43936  42.774  12.518  14.981
71512W        W43937   3.852   8.485  11.049
71513W        W43938  34.855  19.261  13.806
71514W        W43939  27.420  27.975   4.198
71515W        W43940  27.690  43.352  10.713
71516W        W43941  24.179  14.207  11.040
71517W        W43942  14.375   0.229   1.355
71518W        W43943   3.853  39.966  13.890
71519W        W43944   0.922  21.618  11.498
71520W        W43945  28.029  40.265   0.888
71521W        W43946  16.800  10.253   1.794
71522W        W43947  15.227   8.628  11.208
71523W        W43948  24.339  12.254  14.909
71524W        W43949  38.889  16.148  12.823
71525W        W43950   9.621  29.685   4.089
71526W        W43951  29.940  12.099  13.887
71527W        W43952  40.934  12.570  13.125
71528W        W43953   8.757  10.194   1.177
71529W        W43954  25.585  19.132  10.950
71530W        W43955   7.262  40.586   3.376
71531W        W43956  35.198  31.071   3.714
71532W        W43957  26.157   2.687   1.328
71533W        W43958  35.962  25.639   5.081
71534W        W43959  38.326  10.345   0.958
71535W        W43960   5.798  25.617  14.068
71536W        W43961  26.309  30.136  12.161
71537W        W43962  44.084  22.515  13.933
71538W        W43963  30.683  25.451  12.093
71539W        W43964  22.922  34.134  14.250
71540W        W43965  34.531  15.170  13.937
71541W        W43966   4.364  28.916   0.478
71542W        W43967  36.450   0.902  11.961
71543W        W43968  23.511   7.053  12.417
71544W        W43969  10.086  27.935  11.047
71545W        W43970   2.402  15.356  12.811
71546W        W43971  12.671  22.763   0.892
71547W        W43972  41.688  41.756   1.969
71548W        W43973  16.772  18.936   2.129
71549W        W43974  23.178  26.171   3.038
71550W        W43975  21.624  37.834  13.422
71551W        W43976   0.344   3.530  11.223
71552W        W43977  44.353  25.634  14.657
71553W        W43978   1.059  26.224  13.544
71554W        W43979  28.090  36.121   4.610
71555W        W43980  19.002  37.351  11.623
71556W        W43981   0.909  20.188   1.176
71557W        W43982  38.021  19.033  12.575
71558W        W43983  23.188  29.436  11.991
71559W        W43984  30.666  15.463  12.399
71560W        W43985  34.013   7.688   1.835
71561W        W43986  27.486  37.784   4.488
71562W        W43987  18.060  39.370  13.692
71563W        W43988   3.757  35.852   2.366
71564W        W43989  21.060  23.674  10.007
71565W        W43990   6.021  16.105  12.947
71566W        W43991   6.204  20.720  13.983
71567W        W43992   9.185  39.407   2.166
71568W        W43993  36.137  17.057   0.410
71569W        W43994  11.222  32.906   2.444
71570W        W43995  33.861  41.950   1.345
71571W        W43996  20.289  32.828   2.297
71572W        W43997  26.368  17.476  12.389
71573W        W43998  39.466   5.919  10.922
71574W        W43999   9.706  39.899  13.519
71575W        W44000  15.877  14.316  13.548
71576W        W44001  13.757   7.578   3.640
71577W        W44002  28.419  24.221   3.818
71578W        W44003  44.280  41.882  10.441
71579W        W44004  24.266  27.056  12.717
71580W        W44005  37.517  44.219   5.201
71581W        W44006  12.863  27.642   0.773
71582W        W44007   9.922  18.597  11.673
71583W        W44008   0.939  28.989   3.164
71584W        W44009  19.759  34.066   0.367
71585W        W44010  44.048  18.824  11.969
71586W        W44011  21.855  17.121  13.942
71587W        W44012  12.312  16.566  13.060
71588W        W44013   2.912  32.095  14.735
71589W        W44014  10.615  26.082   0.458
71590W        W44015   4.623  15.570   2.190
71591W        W44016   3.230  25.186   3.578
71592W        W44017  29.410  17.807  11.919
71593W        W44018   6.321  28.735  13.919
71594W        W44019  44.829  16.552  12.388
71595W        W44020  34.615  29.777  14.979
71596W        W44021   7.278   8.756   0.971
71597W        W44022  40.234  40.013  11.160
71598W        W44023  31.611   8.307  14.982
71599W        W44024  34.301   6.014   1.736
71600W        W44025  43.099  14.707  12.130
71601W        W44026  30.926  37.520   0.253
71602W        W44027   5.793   5.289  13.475
71603W        W44028  39.819  12.836   3.666
71604W        W44029  22.692  40.527  11.543
71605W        W44030  14.687  32.647   4.750
71606W        W44031  10.630  17.390   3.518
71607W        W44032   7.467  34.049   0.308
71608W        W44033  24.922   4.014  14.842
71609W        W44034  21.070   9.489  12.557
71610W        W44035  38.748  13.158  10.446
71611W        W44036  15.579  10.689  13.588
71612W        W44037  16.411  11.589   1.742
71613W        W44038  11.564  26.992  14.898
71614W        W44039  40.825   7.245  13.932
71615W        W44040  30.044  10.749  10.637
71616W        W44041  23.951  36.457  13.574
71617W        W44042   6.734  34.616  11.126
71618W        W44043  42.934  18.764   4.626
71619W        W44044  30.735  38.663  11.375
71620W        W44045  24.722  29.983   5.047
71621W        W44046   6.890  33.102   0.368
71622W        W44047  27.492   1.704  14.766
71623W        W44048  41.757  44.927  11.670
71624W        W44049  43.306  12.826   1.887
71625W        W44050  30.494  31.388   3.707
71626W        W44051   7.714  29.741  10.979
71627W        W44052  37.602  29.926   2.148
71628W        W44053  29.244   0.761   2.289
71629W        W44054  25.963  38.602   3.232
71630W        W44055  13.420   0.248  11.973
71631W        W44056   1.957  15.167   1.136
71632W        W44057  21.239  20.765   2.156
71633W        W44058  11.587  19.844  14.860
71634W        W44059   9.591  37.444   4.989
71635W        W44060  30.471  44.247  13.864
71636W        W44061  37.596  15.280  13.950
71637W        W44062  32.620   3.043  12.880
71638W        W44063  35.055  36.106  14.818
71639W        W44064   8.657  13.571  13.867
71640W        W44065  38.492   3.917  10.450
71641W        W44066  18.206  40.539   2.403
71642W        W44067   5.837  40.360  10.472
71643W        W44068  13.074   1.422   9.783
71644W        W44069   1.411  41.678  12.090
71645W        W44070  14.739  18.988  10.620
71646W        W44071  38.409  34.049   1.022
71647W        W44072  19.485  11.774   3.247
71648W        W44073  14.468  14.259  11.862
71649W        W44074  10.866  30.662   0.883
71650W        W44075  23.757   3.822   1.872
71651W        W44076  35.141  34.465  12.552
71652W        W44077  32.999  13.114   3.699
71653W        W44078  33.381   2.305  14.338
71654W        W44079  32.042  26.953  11.767
71655W        W44080  28.643  34.036  14.615
71656W        W44081  29.946  18.610   1.237
71657W        W44082  19.965   6.958   0.597
71658W        W44083  34.639  36.950   3.770
71659W        W44084  33.524   2.240   2.644
71660W        W44085   6.318  25.463  10.887
71661W        W44086  28.801  34.121  11.214
71662W        W44087  18.294   8.208   0.204
71663W        W44088  19.675  10.093   4.592
71664W        W44089  41.065  37.504   2.008
71665W        W44090  13.507  38.073   2.268
71666W        W44091  37.190  37.565  10.576
71667W        W44092  42.993   9.389   2.861
71668W        W44093   2.311  22.380  14.375
71669W        W44094  23.951  38.321  11.758
71670W        W44095  24.705  26.866  12.512
71671W        W44096  30.001  11.872   3.857
71672W        W44097  17.105   3.437  14.948
71673W        W44098  14.271  25.486   0.880
71674W        W44099  38.286  40.377  13.293
71675W        W44100  27.695   0.022  13.008
71676W        W44101  29.769   0.673   2.422
71677W        W44102  11.178  34.550   3.206
71678W        W44103  24.639  44.743   2.812
71679W        W44104  16.844  29.697   0.283
71680W        W44105  25.043  14.208   0.261
71681W        W44106  36.657  28.131  11.373
71682W        W44107   0.560   5.986  12.675
71683W        W44108  14.555  31.502  14.004
71684W        W44109  28.938  11.823  12.050
71685W        W44110   4.695  43.926   4.113
71686W        W44111   3.999  35.294  14.318
71687W        W44112  29.263  18.596  12.114
71688W        W44113  37.518  13.849   3.838
71689W        W44114  12.607  17.056   0.379
71690W        W44115   8.322  35.029   1.234
71691W        W44116  25.205  19.312   2.470
71692W        W44117  15.879  16.289   0.278
71693W        W44118  13.590   7.186   3.182
71694W        W44119  44.999   6.788  13.885
71695W        W44120  24.793  30.434   1.335
71696W        W44121  30.507  30.941  10.381
71697W        W44122  23.583  16.610   1.971
71698W        W44123  17.185  11.923  11.030
71699W        W44124  44.236  40.568  11.607
71700W        W44125  24.564  27.667   3.712
71701W        W44126  27.630   7.139  14.974
71702W        W44127  23.413  21.075  10.211
71703W        W44128   4.550  39.068   2.136
71704W        W44129   6.021   9.938   0.204
71705W        W44130   9.636  10.610  12.914
71706W        W44131   8.306  44.983  14.482
71707W        W44132  42.123  39.507  12.032
71708W        W44133  28.941  33.326  11.620
71709W        W44134   9.315  13.978   1.434
71710W        W44135  10.318  23.518   4.181
71711W        W44136   6.878   7.611   2.458
71712W        W44137  22.030  30.056   1.712
71713W        W44138   2.803  26.998  12.133
71714W        W44139  42.103  43.427  13.083
71715W        W44140  14.137  11.612   5.040
71716W        W44141  18.980  34.399  13.136
71717W        W44142   7.136  40.040   0.335
71718W        W44143  38.447  25.181   0.397
71719W        W44144  18.009  28.598  12.457
71720W        W44145  30.874  44.785  12.350
71721W        W44146  43.547  23.104  13.542
71722W        W44147  35.480   8.760   0.799
71723W        W44148   1.332  17.154   4.732
71724W        W44149  32.345  22.513   2.665
71725W        W44150  38.644  24.120   2.141
71726W        W44151  41.852  32.697  13.402
71727W        W44152  20.025  24.097   1.688
71728W        W44153  36.588  12.363  11.183
71729W        W44154  31.593   7.836   4.259
71730W        W44155  22.419  42.090   4.084
71731W        W44156  15.195  26.688  10.764
71732W        W44157  22.042  25.037   1.817
71733W        W44158  15.294  35.251   4.166
71734W        W44159   2.171  43.923   1.897
71735W        W44160  30.004  26.142   2.327
71736W        W44161  28.658   9.094   0.334
71737W        W44162  41.330  39.549  11.614
71738W        W44163  32.669  22.613   1.292
71739W        W44164   4.886  43.252   9.919
71740W        W44165  27.447  22.515  11.496
71741W        W44166  24.286  32.913  13.441
71742W        W44167  35.825  19.016  14.494
71743W        W44168   4.145  36.786  12.436
71744W        W44169  31.405  26.893  12.969
71745W        W44170   6.400  38.981   5.067
71746W        W44171  38.932  40.799   0.421
71747W        W44172  29.909  24.071   2.222
71748W        W44173  14.201   5.882  13.730
71749W        W44174  38.783  11.924  10.699
71750W        W44175  44.221   9.857  13.574
71751W        W44176  11.645  24.969  10.065
71752W        W44177  38.881  37.477   2.192
71753W        W44178   1.393  20.548   0.484
71754W        W44179  33.949  23.528   3.056
71755W        W44180  32.358  12.354  12.015
71756W        W44181  19.103  32.583   1.669
71757W        W44182  42.009  17.582   2.759
71758W        W44183   5.401  37.701   3.409
71759W        W44184  32.595  41.917  14.064
71760W        W44185  15.675  27.234   4.856
71761W        W44186  11.272  23.291   1.798
71762W        W44187  38.713  31.967  12.061
71763W        W44188  37.826  23.699  13.549
71764W        W44189  40.788  21.208   3.299
71765W        W44190  19.342  30.061   2.842
71766W        W44191  11.470  17.091  14.836
71767W        W44192  18.761  20.010   0.002
71768W        W44193   6.421   9.351  11.979
71769W        W44194  37.535  34.808  11.786
71770W        W44195  12.287  44.311   1.613
71771W        W44196   0.517  41.248  12.309
71772W        W44197  29.839  11.642   3.166
71773W        W44198  42.029  23.495  10.397
71774W        W44199  14.617  31.007   1.952
71775W        W44200  19.685  22.680   4.705
71776W        W44201  21.066  30.538   2.663
71777W        W44202  11.705   6.214  13.314
71778W        W44203  20.469  29.641   2.326
71779W        W44204  26.026  27.691   0.914
71780W        W44205  27.469  37.950  10.670
71781W        W44206  15.149  27.041   4.652
71782W        W44207  15.004  22.926  10.257
71783W        W44208  41.493  42.775   4.905
71784W        W44209  24.042  37.407   3.284
71785W        W44210  33.140  12.912  11.627
71786W        W44211  43.733  24.602   1.730
71787W        W44212   5.787  36.184  12.790
71788W        W44213   8.872   0.793   0.326
71789W        W44214  13.215  16.154  11.498
71790W        W44215  40.791  21.592   0.791
71791W        W44216  33.902  26.465   4.554
71792W        W44217  33.741   1.298   3.143
71793W        W44218  10.129  31.462   4.887
71794W        W44219  41.053  10.354   0.259
71795W        W44220  23.044  38.335   1.380
71796W        W44221  17.157   1.056   4.547
71797W        W44222  30.420  18.602   3.761
71798W        W44223  37.858   8.700  11.921
71799W        W44224  22.186  44.411   1.823
71800W        W44225  12.579  10.454  12.159
71801W        W44226   2.774  26.666  10.698
71802W        W44227  43.747  31.653   1.437
71803W        W44228   2.240   3.938  12.001
71804W        W44229  36.548  28.667   0.950
71805W        W44230  10.034   9.700   4.189
71806W        W44231  18.970  13.207   3.903
71807W        W44232   3.906  20.076  14.431
71808W        W44233  16.740   3.263   2.130
71809W        W44234  18.395  41.497  13.399
71810W        W44235  38.558  34.852   4.569
71811W        W44236  28.141  21.778   2.381
71812W        W44237  15.864  40.863   1.343
71813W        W44238  17.169   5.989  11.056
71814W        W44239  13.001  11.060   1.775
71815W        W44240  32.618   3.812   1.271
71816W        W44241  40.976   9.900   4.620
71817W        W44242  43.270  10.729  10.567
71818W        W44243  21.328   3.869  13.969
71819W        W44244   9.163  29.386  11.573
71820W        W44245   8.629  37.941  13.131
71821W        W44246  43.345   8.886   0.928
71822W        W44247  30.569  11.397   3.309
71823W        W44248  43.713  30.050   3.235
71824W        W44249  44.670  17.722   4.526
71825W        W44250  28.920  20.631   4.698
71826W        W44251  33.966   8.401   0.300
71827W        W44252  30.243  14.208  12.837
71828W        W44253  26.548  16.316  10.415
71829W        W44254  20.081  17.310   4.062
71830W        W44255  17.628  40.516   1.823
71831W        W44256  12.477  23.049   2.380
71832W        W44257  28.066  17.761   0.354
71833W        W44258  43.624  12.792  13.096
71834W        W44259  24.143  22.015  14.304
71835W        W44260  38.409   2.930  10.708
71836W        W44261  24.084  17.066  13.471
71837W        W44262  33.997  25.568  13.609
71838W        W44263  25.983  30.106  10.129
71839W        W44264  24.173  38.766   3.623
71840W        W44265   6.933  42.476   4.315
71841W        W44266  29.915  26.555   0.436
71842W        W44267  35.446   4.661  10.695
71843W        W44268   8.612   5.295   0.258
71844W        W44269  34.340  28.958   3.636
71845W        W44270   0.340  14.177   2.175
71846W        W44271  16.808   1.286   0.379
71847W        W44272  43.805   8.626   0.962
71848W        W44273  41.363   6.402  10.731
71849W        W44274  31.100  35.494   3.332
71850W        W44275  12.773  40.100   2.008
71851W        W44276  29.878  34.472   4.111
71852W        W44277  39.245  31.937  11.351
71853W        W44278  23.732  17.667  11.659
71854W        W44279  26.661  23.214   1.071
71855W        W44280   4.144  40.718  11.230
71856W        W44281  43.475  42.989   0.638
71857W        W44282  27.063  22.945   2.546
71858W        W44283  36.528   2.782  13.266
71859W        W44284  32.492   1.736  10.969
71860W        W44285   2.926  42.998   1.817
71861W        W44286  32.867  36.564   1.954
71862W        W44287   6.517  10.997   4.118
71863W        W44288   3.320   2.792   0.006
71864W        W44289  22.026  38.828  12.125
71865W        W44290  40.250  10.375   1.513
71866W        W44291  29.027  29.641   0.404
71867W        W44292  27.894   6.024   2.730
71868W        W44293  14.644  26.725  13.454
71869W        W44294   9.706   7.492   0.426
71870W        W44295  44.031  34.686   3.553
71871W        W44296  17.800  11.186   0.972
71872W        W44297  18.807  29.963   2.715
71873W        W44298  12.991  24.853  13.933
71874W        W44299   9.895  43.597   3.185
71875W        W44300  19.733  17.789  14.329
71876W        W44301  33.609   8.617  13.557
71877W        W44302  36.131   9.758  12.623
71878W        W44303  25.565  35.320  13.075
71879W        W44304   5.410  22.431   2.200
71880W        W44305  32.302  44.009   0.751
71881W        W44306  37.152  35.444   4.353
71882W        W44307  24.117  10.916  10.602
71883W        W44308   5.987  36.584   1.206
71884W        W44309  43.004  19.636  13.898
71885W        W44310   3.476   9.806   0.243
71886W        W44311   7.813   0.978  13.814
71887W        W44312  43.066  33.641   4.510
71888W        W44313  28.888   9.148   0.933
71889W        W44314   1.252  17.704   3.540
71890W        W44315  44.496   8.454   1.694
71891W        W44316   6.058  20.252  12.643
71892W        W44317   9.361   7.917  11.537
71893W        W44318  41.006  11.663  14.035
71894W        W44319   4.988  23.531  13.381
71895W        W44320  42.687  36.278  13.107
71896W        W44321  42.847   8.180  12.000
71897W        W44322  39.043  10.735   2.860
71898W        W44323  24.979  32.643   2.662
71899W        W44324   3.864  10.619   4.159
71900W        W44325  28.126  10.859   0.857
71901W        W44326   1.284  17.354   2.250
71902W        W44327  20.872  10.057  10.110
71903W        W44328  38.549  21.710  13.427
71904W        W44329  40.734   1.442   4.218
71905W        W44330   0.483  29.400  11.183
71906W        W44331  30.950   1.442  12.422
71907W        W44332  39.480  22.211  11.157
71908W        W44333  17.617  21.815   2.852
71909W        W44334  33.035  17.531  12.639
71910W        W44335  30.689  25.224  14.404
71911W        W44336  36.820  42.847   1.903
71912W        W44337   3.243  28.484  14.758
71913W        W44338  13.643  31.155   2.171
71914W        W44339  40.558  35.770   2.196
71915W        W44340  10.866  24.183   9.463
71916W        W44341  32.129   0.986  12.358
71917W        W44342  22.178  42.700   4.827
71918W        W44343  13.161  24.399  12.860
71919W        W44344  31.535  33.573  14.898
71920W        W44345   3.818  42.916   2.447
71921W        W44346  30.744   3.737   2.927
71922W        W44347  27.821  27.883  13.665
71923W        W44348   9.575   0.718  14.297
71924W        W44349  22.239  25.089   2.297
71925W        W44350   3.294  28.628   3.817
71926W        W44351  35.857  24.140   4.124
71927W        W44352  20.155  41.909   4.206
71928W        W44353   6.845  11.880  14.038
71929W        W44354   2.938  41.730  13.265
71930W        W44355  24.487  26.545  10.796
71931W        W44356  32.191  25.933  13.540
71932W        W44357  24.118  13.101  12.410
71933W        W44358  37.230  31.146   2.842
71934W        W44359  12.104  27.363   0.305
71935W        W44360  31.952  25.038   1.362
71936W        W44361   8.174  36.525   2.043
71937W        W44362  19.265  25.559   4.630
71938W        W44363  35.365  29.712   1.978
71939W        W44364   9.348  14.251   2.855
71940W        W44365   5.062  32.759  13.391
71941W        W44366  12.228  10.627   3.525
71942W        W44367  18.331   6.130   0.341
71943W        W44368  30.585   6.861   1.177
71944W        W44369  11.681   4.208  10.996
71945W        W44370  27.542  30.300   5.057
71946W        W44371  42.922  26.650  10.738
71947W        W44372   3.390  35.997  11.656
71948W        W44373  33.072  24.504   1.775
71949W        W44374  16.166  27.618  10.722
71950W        W44375   4.764  38.339   3.108
71951W        W44376  34.390  23.787   1.704
71952W        W44377  24.318  43.780   4.444
71953W        W44378  43.531  43.263  14.685
71954W        W44379  16.194  40.273   3.270
71955W        W44380  40.981   5.612  11.318
71956W        W44381  23.999  14.082  14.584
71957W        W44382   3.173  36.095  12.447
71958W        W44383  41.478   5.797   1.429
71959W        W44384  21.021  15.827   4.655
71960W        W44385  38.798  28.986  12.775
71961W        W44386  37.258  39.429  13.455
71962W        W44387   5.720  43.021  12.936
71963W        W44388  17.836  26.459  11.475
71964W        W44389  29.777   0.212   2.732
71965W        W44390  26.664  12.352   0.018
71966W        W44391  17.063  26.083  12.060
71967W        W44392   4.863  31.784   0.746
71968W        W44393  11.762   4.543   5.005
71969W        W44394   0.769   0.399  14.389
71970W        W44395  38.764  10.335   3.642
71971W        W44396  32.009  28.099  12.791
71972W        W44397  31.837  23.469   2.122
71973W        W44398  35.097  20.610  14.974
71974W        W44399  32.650  33.595  14.299
71975W        W44400   1.888  38.780  13.569
71976W        W44401  12.074  14.851  11.501
71977W        W44402  24.805  25.743  11.322
71978W        W44403  31.510   0.108   0.837
71979W        W44404  21.056  17.330   2.248
71980W        W44405  28.612  12.303  13.540
71981W        W44406  33.974   6.454   3.577
71982W        W44407  13.834  28.643   0.796
71983W        W44408   8.758  17.347  12.935
71984W        W44409  44.884  12.340  13.357
71985W        W44410  19.100  11.596   0.377
71986W        W44411  16.665  33.253  11.546
71987W        W44412  12.644  37.120   3.578
71988W        W44413  31.924  32.049   3.763
71989W        W44414  16.659  30.390   1.183
71990W        W44415  27.770   8.154   2.653
71991W        W44416  40.382  41.544   3.221
71992W        W44417  29.901  11.241  11.290
71993W        W44418  33.166  16.852   3.815
71994W        W44419   8.572  44.959   3.256
71995W        W44420  32.018  31.552   0.055
71996W        W44421   6.589   1.978  13.471
71997W        W44422  37.306  40.929  13.471
71998W        W44423  13.879  10.894  14.284
71999W        W44424   9.449  23.816  14.274
72000W        W44425  12.182  43.810  11.090
72001W        W44426  17.225  36.393   2.135
72002W        W44427  16.404   6.233  11.179
72003W        W44428  17.137  21.505  13.101
72004W        W44429  21.454   7.118  11.034
72005W        W44430  42.611  24.527  13.397
72006W        W44431  21.327  24.584   1.683
72007W        W44432  24.718  33.973   3.342
72008W        W44433  13.607   1.546   4.462
72009W        W44434  15.019  33.968   4.518
72010W        W44435  35.102  43.412   1.219
72011W        W44436   7.096  39.260   1.691
72012W        W44437  42.411  21.524  12.774
72013W        W44438  30.243  26.654   1.876
72014W        W44439  43.612  10.390  12.028
72015W        W44440  31.866  28.455   0.697
72016W        W44441  10.710   8.003   3.257
72017W        W44442  12.085  37.577  10.978
72018W        W44443  16.519  23.794   4.515
72019W        W44444  26.656   1.867   4.464
72020W        W44445   5.503  31.584   3.611
72021W        W44446  23.111  31.236  10.923
72022W        W44447  16.803  35.044   9.363
72023W        W44448  22.301  11.819   9.834
72024W        W44449   4.385   6.695  14.522
72025W        W44450  13.848  38.571  13.359
72026W        W44451   5.191  44.531   1.196
72027W        W44452  44.250   1.908   0.684
72028W        W44453  43.934   1.549  12.217
72029W        W44454  21.553  13.662  12.641
72030W        W44455  29.588  23.996  14.815
72031W        W44456  41.946  15.753  10.631
72032W        W44457  42.837  31.080  14.564
72033W        W44458  12.048   6.417  14.017
72034W        W44459  38.913   2.158   4.511
72035W        W44460  22.926  12.198  11.596
72036W        W44461   5.692  34.942  12.939
72037W        W44462  41.544  17.735   1.855
72038W        W44463  10.890  23.110  10.431
72039W        W44464  13.601  40.806  11.614
72040W        W44465  26.678  10.077  14.356
72041W        W44466  36.519  21.739  14.561
72042W        W44467  22.159  42.740   2.747
72043W        W44468  22.480   0.511  10.275
72044W        W44469  41.607   1.401  12.428
72045W        W44470  21.753  20.030  11.617
72046W        W44471   3.915  31.768  14.492
72047W        W44472  27.062  18.062   0.019
72048W        W44473   0.789  17.704   3.218
72049W        W44474  17.603   7.157  11.578
72050W        W44475  37.270  31.456   4.493
72051W        W44476  18.594   1.370  13.596
72052W        W44477   8.726  38.830   5.114
72053W        W44478  22.220  39.538   4.223
72054W        W44479  29.083  33.616   1.455
72055W        W44480  36.348  31.240   3.362
72056W        W44481   0.520  31.984   4.948
72057W        W44482   8.320   0.006  11.680
72058W        W44483  21.787  44.355  12.762
72059W        W44484  40.782   3.346  14.422
72060W        W44485   3.963  34.448   0.878
72061W        W44486  24.163   5.823   1.108
72062W        W44487   3.127  22.350   2.329
72063W        W44488  27.826  11.876   3.191
72064W        W44489  25.504  22.654  13.928
72065W        W44490  22.005   8.323   4.504
72066W        W44491  15.457  34.868   4.817
72067W        W44492  36.439  26.020  13.974
72068W        W44493   0.991  21.278  12.458
72069W        W44494   2.957  23.611   2.600
72070W        W44495   1.001  13.924  12.479
72071W        W44496  35.859  11.159   2.340
72072W        W44497  33.987  34.130  12.012
72073W        W44498  12.192   7.576  10.585
72074W        W44499  40.291  38.206  14.037
72075W        W44500  27.183  12.371  11.021
72076W        W44501  44.935  11.909  11.890
72077W        W44502  19.695   4.646  14.065
72078W        W44503  37.555  13.770   2.861
72079W        W44504   5.597  35.793  13.066
72080W        W44505   4.932   8.865   3.270
72081W        W44506  32.447  37.587  12.580
72082W        W44507  28.993  14.434  11.033
72083W        W44508  11.188  39.779  10.810
72084W        W44509  43.563  13.844  11.290
72085W        W44510   1.289  35.203  14.479
72086W        W44511  16.116   0.720   2.825
72087W        W44512  32.157  37.429  14.498
72088W        W44513  11.127   1.538   1.861
72089W        W44514  22.477  26.556   2.458
72090W        W44515   7.846  15.315   2.867
72091W        W44516   4.201  23.101  12.408
72092W        W44517  10.203   5.603  14.382
72093W        W44518   8.650  35.855   2.150
72094W        W44519  41.953  27.154   3.371
72095W        W44520  39.004  27.905   4.317
72096W        W44521  28.638  38.733   4.616
72097W        W44522  13.386   3.879   5.004
72098W        W44523  29.977  25.002  11.172
72099W        W44524   0.288  20.958   3.690
72100W        W44525   3.707  37.681   2.955
72101W        W44526  39.166  15.606  14.308
72102W        W44527   7.376  28.492  14.003
72103W        W44528  25.122   0.202   1.878
72104W        W44529  18.596  35.430  11.209
72105W        W44530  31.809  38.637   1.904
72106W        W44531  13.904  11.686   4.087
72107W        W44532  39.869  16.999  14.912
72108W        W44533   7.230  17.179   1.877
72109W        W44534  32.581   1.638  12.889
72110W        W44535  35.393  13.062   4.571
72111W        W44536  32.012  33.845   1.036
72112W        W44537   0.864   2.989   3.056
72113W        W44538  40.973  26.938   4.739
72114W        W44539  22.706  17.709   0.951
72115W        W44540  33.942  38.541  10.948
72116W        W44541   6.104  43.641  12.016
72117W        W44542  34.422  25.020  14.213
72118W        W44543  43.763  24.570  14.012
72119W        W44544  44.391  19.787  14.894
72120W        W44545  37.645   3.736   0.717
72121W        W44546  10.056  41.153  14.538
72122W        W44547  36.866  10.871   0.007
72123W        W44548  26.142  33.358   0.866
72124W        W44549  19.954  25.220   5.066
72125W        W44550  34.332  43.210   0.395
72126W        W44551  28.598  23.051  10.632
72127W        W44552   2.839   3.291  11.010
72128W        W44553  21.051  42.324  10.939
72129W        W44554  10.941  19.237  10.534
72130W        W44555  31.466  32.085  10.738
72131W        W44556  34.621  35.873  13.059
72132W        W44557  25.262  13.140  11.991
72133W        W44558  38.001  10.295  12.462
72134W        W44559  38.029  18.742  13.033
72135W        W44560  43.289  41.795   0.342
72136W        W44561   7.184  44.002   3.621
72137W        W44562   3.033   1.399  14.848
72138W        W44563  13.716  11.898   4.534
72139W        W44564   7.416   0.884   0.834
72140W        W44565  38.102  38.326   4.825
72141W        W44566  19.564  19.681  14.344
72142W        W44567  40.538   0.795  11.196
72143W        W44568  15.473  18.724  13.797
72144W        W44569  13.435  11.769  12.054
72145W        W44570  36.636   2.971  11.517
72146W        W44571  43.660   5.293  12.785
72147W        W44572  22.788   8.079  11.604
72148W        W44573  42.130   1.633  12.065
72149W        W44574   1.203   3.405   3.195
72150W        W44575   4.896   9.375   2.406
72151W        W44576  44.635  27.860  12.947
72152W        W44577  17.800  42.928  11.695
72153W        W44578  20.363  21.260  10.241
72154W        W44579  24.274  13.837   1.824
72155W        W44580  12.873  44.961   2.867
72156W        W44581  40.069  10.413   2.779
72157W        W44582  31.588  34.226  11.381
72158W        W44583  24.676  26.362   0.116
72159W        W44584  19.941  32.836   0.454
72160W        W44585   2.401   3.978   4.607
72161W        W44586   9.027  33.929  12.157
72162W        W44587  13.298  35.198   1.897
72163W        W44588  35.964  10.881   3.343
72164W        W44589  34.947  28.953   3.758
72165W        W44590   1.953   5.810   2.366
72166W        W44591   9.391   9.873   1.777
72167W        W44592  34.815  18.067   2.346
72168W        W44593  24.805  44.973  11.394
72169W        W44594  44.362  31.995   1.737
72170W        W44595   2.279   6.873  12.400
72171W        W44596   6.945  10.743  11.151
72172W        W44597  30.212  39.082   1.885
72173W        W44598  22.369   7.777  12.521
72174W        W44599  41.352  37.980  12.916
72175W        W44600  35.563  26.544   1.151
72176W        W44601  11.637  21.017  12.983
72177W        W44602  31.449  32.129   0.495
72178W        W44603  16.380  23.218  11.392
72179W        W44604   7.917  31.059  12.375
72180W        W44605   5.866   9.183  13.235
72181W        W44606  43.888   0.216   4.543
72182W        W44607  41.367  12.341  13.317
72183W        W44608  31.730  21.880   5.042
72184W        W44609  11.891   1.504  10.468
72185W        W44610  13.286  24.245   2.646
72186W        W44611  34.906  16.759   2.695
72187W        W44612  11.225  24.448   2.690
72188W        W44613  43.053   8.375  11.580
72189W        W44614  13.157  22.676  11.054
72190W        W44615   2.314  12.774   0.494
72191W        W44616  12.585   9.485   3.741
72192W        W44617  26.934   4.592   5.082
72193W        W44618  14.167  15.027  14.954
72194W        W44619  34.606  37.468   5.006
72195W        W44620  18.682  33.820   1.506
72196W        W44621   0.733  40.848   3.218
72197W        W44622  31.015   3.974  13.428
72198W        W44623  27.156  27.442   0.631
72199W        W44624  25.016  41.536  11.224
72200W        W44625   8.824   1.253  12.974
72201W        W44626  23.517   8.329   1.771
72202W        W44627  14.246  18.516  14.281
72203W        W44628  41.635  34.052  13.629
72204W        W44629  36.920  25.756  12.135
72205W        W44630  32.107  10.198   0.915
72206W        W44631  26.015   0.317   2.244
72207W        W44632  30.631  38.175  11.575
72208W        W44633   2.518  18.746   1.437
72209W        W44634  32.389   1.426  12.429
72210W        W44635  33.190  32.967   2.226
72211W        W44636  16.313  40.900  11.924
72212W        W44637  35.084  25.953  14.038
72213W        W44638  16.800  43.345   1.727
72214W        W44639  25.265  42.924   3.469
72215W        W44640  36.571  32.544  11.399
72216W        W44641  14.680  28.489   0.383
72217W        W44642  13.304  24.733  10.532
72218W        W44643   7.421  38.389   4.586
72219W        W44644  41.055  39.972   3.631
72220W        W44645  22.885  31.917   2.444
72221W        W44646  10.672  19.506   4.747
72222W        W44647  44.468  29.002  12.997
72223W        W44648  43.053  15.345   0.424
72224W        W44649  29.486  32.964   3.168
72225W        W44650   7.254   6.762  14.324
72226W        W44651  21.168   7.883   3.072
72227W        W44652  35.899  42.545  13.889
72228W        W44653  33.374  21.521   2.357
72229W        W44654   1.824  22.650   3.467
72230W        W44655  14.663  11.770  14.320
72231W        W44656  20.102  29.443  10.636
72232W        W44657  39.991  43.362   2.551
72233W        W44658  15.099  44.509  13.403
72234W        W44659   0.838  25.377  10.708
72235W        W44660  44.710   4.746   4.116
72236W        W44661  18.269  37.902  10.666
72237W        W44662  15.301  15.811  14.961
72238W        W44663  40.243  18.778  12.230
72239W        W44664  38.376   6.800  11.928
72240W        W44665   0.686  40.346  11.842
72241W        W44666  17.028  29.759   1.643
72242W        W44667  44.651  15.060   0.823
72243W        W44668  37.567  28.951   4.206
72244W        W44669  19.669  36.563  13.842
72245W        W44670  35.653  20.624   3.687
72246W        W44671  28.503  15.008   0.639
72247W        W44672  17.377   2.789   2.179
72248W        W44673  23.150   1.351   2.348
72249W        W44674   5.892  37.019  10.991
72250W        W44675  27.658  30.097  11.020
72251W        W44676  11.253  42.999  12.109
72252W        W44677   1.817   6.630  14.069
72253W        W44678  32.864  28.237  11.455
72254W        W44679  24.243  11.001   3.371
72255W        W44680  37.767  11.716  13.994
72256W        W44681  40.411  14.269  11.691
72257W        W44682   1.225  24.930  13.583
72258W        W44683  29.066  29.131   4.391
72259W        W44684   8.654  10.305   3.186
72260W        W44685  12.057  44.374  12.274
72261W        W44686   2.846  33.541  12.827
72262W        W44687  39.756  27.762   3.894
72263W        W44688   2.410  32.021  12.514
72264W        W44689  39.272   4.348   4.456
72265W        W44690  25.341  35.304   3.093
72266W        W44691  21.676  10.322  10.742
72267W        W44692  24.452  16.388   1.030
72268W        W44693   4.958  19.577   1.698
72269W        W44694   1.180  24.075  12.547
72270W        W44695  41.029  16.081  12.918
72271W        W44696  15.705   1.069   1.254
72272W        W44697  13.133  37.990   3.738
72273W        W44698  26.394   7.203  13.996
72274W        W44699  35.283  16.094   4.141
72275W        W44700   3.201  13.621  11.522
72276W        W44701   1.671  43.995   1.751
72277W        W44702  34.962  20.046  14.364
72278W        W44703  36.394  21.274  11.443
72279W        W44704  31.751  40.769  10.201
72280W        W44705   0.317  37.406  13.249
72281W        W44706  21.786  25.496   1.872
72282W        W44707  24.166  23.590   0.453
72283W        W44708   5.075   4.921   5.024
72284W        W44709  38.033   7.790   0.427
72285W        W44710   0.053   5.975   2.746
72286W        W44711  16.746  32.481   1.176
72287W        W44712   1.465  10.633  11.436
72288W        W44713  36.169  14.721   1.986
72289W        W44714  35.567   3.609  14.762
72290W        W44715  23.459   2.671   4.638
72291W        W44716  11.311   1.030  13.779
72292W        W44717   2.971  34.120   2.244
72293W        W44718  10.908  16.057  12.315
72294W        W44719  10.840  44.048   2.735
72295W        W44720  14.910   4.353  10.372
72296W        W44721  25.471  24.262   1.024
72297W        W44722  15.144  22.571   3.819
72298W        W44723  34.103  25.140   2.481
72299W        W44724  43.535  13.598   3.177
72300W        W44725  34.479  26.419  13.548
72301W        W44726  34.852  13.504  14.892
72302W        W44727  14.230  27.725  14.418
72303W        W44728  35.839  15.907  12.533
72304W        W44729  15.219  21.467   1.446
72305W        W44730   8.659  17.320  10.722
72306W        W44731  38.488  20.589  10.715
72307W        W44732  25.059  17.304   2.859
72308W        W44733  20.692  16.256   4.729
72309W        W44734  36.379  22.554   1.936
72310W        W44735   2.749  20.596   0.392
72311W        W44736  40.759  15.745  13.247
72312W        W44737  14.630  11.662  14.825
72313W        W44738   7.870  21.125   1.832
72314W        W44739  38.740  43.239  12.285
72315W        W44740  42.492  26.010  14.456
72316W        W44741  43.247  34.119   1.172
72317W        W44742  30.376   2.319   1.958
72318W        W44743  28.595  22.371   0.864
72319W        W44744  44.567  21.173  14.801
72320W        W44745  29.146  15.027   4.379
72321W        W44746  36.335  15.266   0.235
72322W        W44747   5.487  16.048  14.389
72323W        W44748  41.376  14.025  10.522
72324W        W44749   9.698  26.241  13.974
72325W        W44750  27.101  38.375  13.376
72326W        W44751  37.012  19.965  11.599
72327W        W44752  37.842  24.284  11.955
72328W        W44753  22.176  33.617   0.379
72329W        W44754  22.414  36.482   2.965
72330W        W44755  34.580   2.033  14.342
72331W        W44756  21.950  19.035   0.601
72332W        W44757   5.977   0.987   0.757
72333W        W44758  25.653  40.677  14.474
72334W        W44759  38.444   7.389   2.465
72335W        W44760  44.093  36.287   0.031
72336W        W44761   4.907  38.814  10.733
72337W        W44762  33.821   9.895   0.286
72338W        W44763  17.894  44.309   1.355
72339W        W44764  17.901  28.047   3.747
72340W        W44765  25.151  25.661  13.784
72341W        W44766  31.452  43.374  11.546
72342W        W44767  20.513  21.996  13.826
72343W        W44768  11.098   6.074  13.844
72344W        W44769  16.505  29.509   2.333
72345W        W44770  34.024  18.721   2.124
72346W        W44771  35.357  23.579  10.632
72347W        W44772  33.451  30.706  13.041
72348W        W44773  22.560  20.947   3.704
72349W        W44774  16.355  35.406   4.772
72350W        W44775  41.825  34.463   2.914
72351W        W44776  43.959  20.192   5.577
72352W        W44777  40.731  20.780  11.082
72353W        W44778  19.230  13.831   3.100
72354W        W44779  35.061  29.011  14.441
72355W        W44780  16.779  44.365   4.379
72356W        W44781  13.162  10.835  14.812
72357W        W44782   6.163  13.562  10.445
72358W        W44783  29.894  17.860  11.293
72359W        W44784  21.566  13.986   4.303
72360W        W44785  34.934  40.379   5.035
72361W        W44786  26.607  27.042   0.859
72362W        W44787  28.422   2.470  12.003
72363W        W44788  26.066  12.834   3.436
72364W        W44789  40.420  12.906   1.847
72365W        W44790  14.661  32.867   3.309
72366W        W44791   8.195   2.377   2.716
72367W        W44792  34.983   2.800   4.054
72368W        W44793   9.926  31.151   3.538
72369W        W44794   6.373   8.571   2.006
72370W        W44795   3.717  16.711  10.916
72371W        W44796   2.506  25.017  13.900
72372W        W44797   1.295  40.038  10.606
72373W        W44798  16.681   8.836  12.580
72374W        W44799  37.581  38.922  12.004
72375W        W44800  10.213   0.285   1.871
72376W        W44801   3.865  37.080  14.188
72377W        W44802  37.279   5.238   3.777
72378W        W44803  30.922  25.208   2.280
72379W        W44804   9.134  21.550   3.681
72380W        W44805  35.245  31.495   3.356
72381W        W44806  18.636  25.000   4.936
72382W        W44807   2.313   3.162  10.982
72383W        W44808  41.879   5.711  11.753
72384W        W44809  32.887  36.365   2.813
72385W        W44810   4.743  16.249  12.324
72386W        W44811  41.337  44.071   3.225
72387W        W44812  20.163  30.144   0.284
72388W        W44813  42.375  13.649  11.009
72389W        W44814  30.042  10.619  11.998
72390W        W44815  27.566   6.250  13.809
72391W        W44816  13.257  18.558  11.390
72392W        W44817  18.438  11.417  14.845
72393W        W44818   5.456   5.707  10.766
72394W        W44819  16.684  21.491  14.038
72395W        W44820  42.051  18.810  11.076
72396W        W44821  14.692  36.409   0.784
72397W        W44822   5.781  23.549   3.047
72398W        W44823  30.007   9.971  13.895
72399W        W44824   0.705  11.224  11.291
72400W        W44825   6.779  15.028   4.424
72401W        W44826  42.539  19.367  13.965
72402W        W44827  41.768  11.652  14.693
72403W        W44828   1.804  33.779   4.729
72404W        W44829  20.726  34.011  13.290
72405W        W44830  10.272  10.351  11.948
72406W        W44831  44.949  24.989   4.367
72407W        W44832   8.392  23.619   2.595
72408W        W44833   0.465   5.182  14.795
72409W        W44834  21.588  32.293  12.814
72410W        W44835   1.529   8.920   1.235
72411W        W44836   6.792  27.001   2.623
72412W        W44837  19.205  34.541   1.917
72413W        W44838   2.902  26.069  12.216
72414W        W44839  32.832   9.730   2.752
72415W        W44840  43.041  12.159   4.181
72416W        W44841  23.935  21.149  12.416
72417W        W44842  33.626  30.977   0.862
72418W        W44843   0.817  34.056  11.935
72419W        W44844  35.682  18.583  11.585
72420W        W44845  37.368  14.681   4.237
72421W        W44846  37.934   0.855   0.575
72422W        W44847  12.403  16.172   0.286
72423W        W44848  27.647  20.290   4.170
72424W        W44849  24.303  22.532  14.494
72425W        W44850  44.752  28.925  12.153
72426W        W44851  33.531  14.201  10.667
72427W        W44852   5.662   6.193  11.600
72428W        W44853  32.598  42.900   4.664
72429W        W44854  22.401  38.489  13.824
72430W        W44855  29.409  15.765  12.996
72431W        W44856   3.768  18.504  11.544
72432W        W44857   4.135  25.845  14.892
72433W        W44858  29.055  37.882  13.739
72434W        W44859  30.418  11.464  10.968
72435W        W44860   9.268  31.616  13.982
72436W        W44861  10.744  27.821   2.986
72437W        W44862  38.451   3.561   3.464
72438W        W44863   1.853  31.174  12.505
72439W        W44864  30.449  44.531  11.564
72440W        W44865  29.702  24.169   1.171
72441W        W44866  25.995  10.203   3.730
72442W        W44867  20.316  43.433   2.680
72443W        W44868  32.855  13.600   3.625
72444W        W44869  36.627  24.618   0.328
72445W        W44870  13.125  31.426   4.161
72446W        W44871  13.831   8.382  10.732
72447W        W44872  11.857  18.707   0.347
72448W        W44873  11.715  16.606  12.450
72449W        W44874  28.690  13.826   1.095
72450W        W44875   8.084  21.697  10.421
72451W        W44876   0.283  24.550  12.452
72452W        W44877  27.402   3.945  13.597
72453W        W44878  21.428   3.900  12.023
72454W        W44879  31.607  34.929   1.728
72455W        W44880   6.737  12.887  12.545
72456W        W44881   4.218  29.932  14.369
72457W        W44882  22.208  24.942  10.522
72458W        W44883  14.378  21.621   4.183
72459W        W44884  15.846  16.928  11.908
72460W        W44885  39.504  24.714   3.307
72461W        W44886  12.429   5.170  13.915
72462W        W44887  27.355  44.879   3.746
72463W        W44888   6.365  28.410  11.162
72464W        W44889  14.401  41.705   0.518
72465W        W44890  33.330   3.215  11.557
72466W        W44891  36.876   8.814  13.404
72467W        W44892   2.932   5.938   1.471
72468W        W44893  35.359   8.441   4.176
72469W        W44894  10.652  11.753   3.682
72470W        W44895  43.243   0.886   2.225
72471W        W44896  22.542  38.414   2.143
72472W        W44897  38.002  34.877  12.013
72473W        W44898  33.842  43.947  14.613
72474W        W44899  38.086  30.543   3.531
72475W        W44900  29.301  43.846   0.897
72476W        W44901  22.590  40.345   3.729
72477W        W44902  27.904  42.042  11.555
72478W        W44903  37.467  30.594  11.577
72479W        W44904  32.604  20.854  14.952
72480W        W44905  28.252  30.509   4.233
72481W        W44906  32.412  12.329  12.941
72482W        W44907  20.450   3.709  11.646
72483W        W44908  27.333  34.558  14.510
72484W        W44909  44.814  17.307  11.338
72485W        W44910   4.707  28.155  11.381
72486W        W44911  36.150  17.634  12.449
72487W        W44912  10.313  32.647  11.965
72488W        W44913  12.178  28.707   3.724
72489W        W44914  31.137  16.532   2.317
72490W        W44915   5.742   4.232  12.359
72491W        W44916  22.688  20.967   2.444
72492W        W44917  15.616  44.234  10.617
72493W        W44918  34.995  34.893  11.275
72494W        W44919  40.554  37.005  10.527
72495W        W44920  21.506  28.185  11.102
72496W        W44921  41.856   7.491   3.113
72497W        W44922  42.839   4.779   1.290
72498W        W44923  40.885   2.861  11.621
72499W        W44924  32.043  42.090  11.976
72500W        W44925  42.376   9.162  12.285
72501W        W44926  16.065  40.317   2.773
72502W        W44927   2.436  20.949  13.790
72503W        W44928  23.160   0.455   4.154
72504W        W44929  43.509  36.230   3.176
72505W        W44930  12.226  38.882  14.394
72506W        W44931  30.064  42.389   2.542
72507W        W44932   5.446   1.452  12.106
72508W        W44933   0.878  30.824  14.250
72509W        W44934   2.772  38.046   4.177
72510W        W44935  42.792  19.708  10.396
72511W        W44936   4.497  38.479  14.560
72512W        W44937  32.604   1.278   0.361
72513W        W44938  24.766  44.086  14.319
72514W        W44939  13.641   8.437  14.145
72515W        W44940  16.550  21.513   2.242
72516W        W44941  21.429  19.687   3.452
72517W        W44942   1.502   5.290   3.565
72518W        W44943   5.368  39.920   4.511
72519W        W44944  43.012  28.843   3.702
72520W        W44945  36.517  29.060   2.787
72521W        W44946  33.732   6.912   1.450
72522W        W44947  43.412  41.121   2.723
72523W        W44948  26.250  19.809   0.848
72524W        W44949  10.742  11.840   2.805
72525W        W44950  15.620  32.142   4.812
72526W        W44951  31.413  33.061   1.888
72527W        W44952   7.370  32.547   4.344
72528W        W44953  12.350   1.164   2.232
72529W        W44954  28.176  10.304  11.074
72530W        W44955  23.218  42.395   4.217
72531W        W44956  31.542   7.251  14.322
72532W        W44957   0.412  16.770   3.199
72533W        W44958  32.521  40.074   3.683
72534W        W44959   8.876   1.501   4.129
72535W        W44960  44.316  21.273   1.674
72536W        W44961  13.344  42.376  12.476
72537W        W44962  27.045  26.622   1.388
72538W        W44963  26.458  33.921   3.779
72539W        W44964   2.693  38.092  11.048
72540W        W44965  41.895  42.855  13.491
72541W        W44966  14.227  29.527   2.926
72542W        W44967  24.599  17.796  13.741
72543W        W44968   0.779  13.031   3.700
72544W        W44969  38.277  12.841  14.851
72545W        W44970  12.056  15.353  11.401
72546W        W44971  10.868  11.077   0.762
72547W        W44972  39.153  10.044  11.916
72548W        W44973   3.462  25.731   0.945
72549W        W44974  44.581  44.526   3.269
72550W        W44975  39.360  31.374   0.839
72551W        W44976  21.290  14.323  12.420
72552W        W44977   2.920  30.831  11.089
72553W        W44978  41.619  40.934   2.272
72554W        W44979  44.882  40.845  13.303
72555W        W44980  43.710  27.595   3.938
72556W        W44981   9.961  34.449   2.863
72557W        W44982  41.378  25.150   4.455
72558W        W44983  41.820  14.262  10.737
72559W        W44984   6.400  23.655  14.552
72560W        W44985   9.237  30.493  13.283
72561W        W44986  22.179  34.089  10.950
72562W        W44987  28.201  24.118  10.103
72563W        W44988  34.920   8.063  14.359
72564W        W44989  43.242  43.080  12.913
72565W        W44990  20.511  14.121  10.923
72566W        W44991  18.774  28.242  14.913
72567W        W44992   5.355  42.316  11.088
72568W        W44993  37.339  16.110  14.430
72569W        W44994  34.607  38.689  13.988
72570W        W44995  34.785  23.184  12.378
72571W        W44996  15.202  15.474   2.735
72572W        W44997   3.737  24.259   3.236
72573W        W44998  32.030  21.214   2.484
72574W        W44999  42.003   7.665  11.950
72575W        W45000  42.359  22.556  13.719
72576W        W45001  23.659  39.328  14.958
72577W        W45002  14.290  28.068  11.099
72578W        W45003  11.864  31.450   1.273
72579W        W45004  36.839  19.559  11.244
72580W        W45005  21.272  33.768  13.746
72581W        W45006  37.682  36.564   4.644
72582W        W45007   3.704  43.759   4.061
72583W        W45008  20.073  30.471  10.787
72584W        W45009  33.162   6.468   4.195
72585W        W45010   1.700  14.074  14.365
72586W        W45011  43.258  31.851  13.576
72587W        W45012  36.932  35.270  11.569
72588W        W45013  13.681  14.309   3.661
72589W        W45014  40.302  23.026  12.048
72590W        W45015  24.571  23.036  12.014
72591W        W45016  24.543  12.365  11.197
72592W        W45017  30.088   8.342  12.183
72593W        W45018  22.019  40.792   1.977
72594W        W45019  15.204  20.595   2.776
72595W        W45020   8.942  23.967  13.656
72596W        W45021   1.460  39.795  12.381
72597W        W45022  10.241  25.380   0.930
72598W        W45023  26.075  31.352   1.251
72599W        W45024  26.047  11.056   4.400
72600W        W45025  41.076  10.063  11.205
72601W        W45026  20.564   0.415   2.564
72602W        W45027  23.519   2.693  11.635
72603W        W45028  37.860  21.995  11.554
72604W        W45029  28.045  36.937  10.240
72605W        W45030  43.613  34.512  12.964
72606W        W45031  22.224  29.983  12.073
72607W        W45032  35.877  32.582  13.913
72608W        W45033  18.517  22.747   3.609
72609W        W45034   8.407   9.619   3.708
72610W        W45035  32.200  43.721   3.194
72611W        W45036  35.653  40.601   2.242
72612W        W45037  41.799  25.388  10.847
72613W        W45038  31.109  36.453   3.199
72614W        W45039  23.720  41.976  13.573
72615W        W45040  13.761  36.055   3.336
72616W        W45041  40.929   2.722   4.083
72617W        W45042  42.759  21.183   2.432
72618W        W45043  40.420  26.006   0.267
72619W        W45044  31.287   0.518  13.835
72620W        W45045  18.297  26.582  11.952
72621W        W45046   6.474  38.835  10.709
72622W        W45047   2.809  29.722   3.648
72623W        W45048  37.997  40.322  11.585
72624W        W45049  25.527   6.642   2.336
72625W        W45050  10.114   0.028   2.303
72626W        W45051  43.819   6.864  12.594
72627W        W45052   4.575  34.832  14.817
72628W        W45053  11.440  30.382   4.152
72629W        W45054  44.539   8.290  12.875
72630W        W45055   7.214   8.698   0.415
72631W        W45056  27.719  41.985  11.054
72632W        W45057   8.313   0.879  13.577
72633W        W45058  19.304  34.190   2.264
72634W        W45059  35.481  41.977  10.795
72635W        W45060  39.088   8.139  14.981
72636W        W45061   3.682  40.721  12.119
72637W        W45062  21.413  17.387   4.415
72638W        W45063  18.618   5.184   4.633
72639W        W45064  24.998   0.989  14.431
72640W        W45065  25.166  21.629  13.491
72641W        W45066  16.629  40.865  14.717
72642W        W45067  15.154  41.291  14.416
72643W        W45068  29.373   0.764  12.882
72644W        W45069  32.810  31.854   3.762
72645W        W45070  20.086  37.045  12.292
72646W        W45071  41.288  21.266   3.433
72647W        W45072  23.186  13.350   3.622
72648W        W45073   7.999  40.118  13.859
72649W        W45074  12.788   6.393  11.998
72650W        W45075  27.205   2.038  14.517
72651W        W45076  18.671  22.654  14.743
72652W        W45077  12.361  18.627   0.181
72653W        W45078   2.214  44.661  13.843
72654W        W45079  28.690  19.599   3.631
72655W        W45080  25.693  43.522   0.320
72656W        W45081  42.590  44.869   4.842
72657W        W45082  41.834  35.701  12.507
72658W        W45083  10.878  16.224  12.811
72659W        W45084  14.047  39.282   3.173
72660W        W45085  11.206  34.104   0.289
72661W        W45086   3.217  41.416  12.551
72662W        W45087  12.286  39.333  13.318
72663W        W45088  10.407  15.641  11.955
72664W        W45089  37.738  22.770  11.127
72665W        W45090  28.539  38.643  10.963
72666W        W45091   6.350   1.932  11.155
72667W        W45092  21.258  30.569  10.310
72668W        W45093   7.849  37.551  14.275
72669W        W45094  26.754  10.898  11.948
72670W        W45095  11.742  32.452  12.974
72671W        W45096   8.350  21.707   2.350
72672W        W45097  13.616   5.873  14.845
72673W        W45098  28.577  44.935   4.486
72674W        W45099  29.446   3.238  14.079
72675W        W45100  22.364   6.637  10.221
72676W        W45101  13.806   5.450   2.887
72677W        W45102   9.813  27.016   0.585
72678W        W45103  15.678  13.666   3.724
72679W        W45104  30.896  28.889  14.054
72680W        W45105  28.629  42.137   0.695
72681W        W45106  39.900  41.102  11.607
72682W        W45107   7.912  41.327   2.690
72683W        W45108  40.020  16.354  10.657
72684W        W45109  15.526  26.281   3.251
72685W        W45110  15.608  16.654  13.993
72686W        W45111  18.604  34.524  12.760
72687W        W45112   0.300  42.923  10.406
72688W        W45113  26.937  41.083   4.631
72689W        W45114  31.094  39.769   4.575
72690W        W45115  23.148   9.845   0.883
72691W        W45116  41.350  35.936  12.499
72692W        W45117  30.281   6.113   2.748
72693W        W45118  33.908  28.075  12.005
72694W        W45119  37.283   2.744  14.045
72695W        W45120  27.283  42.077  10.710
72696W        W45121  44.383  44.402  13.853
72697W        W45122  21.752  15.039  11.419
72698W        W45123  18.545  12.270  14.032
72699W        W45124  27.642   2.694   0.850
72700W        W45125  23.290   9.336  11.632
72701W        W45126  19.643  21.064   4.072
72702W        W45127   1.385  40.322  12.543
72703W        W45128  19.303  16.677   1.211
72704W        W45129  37.071  12.524  11.252
72705W        W45130  31.652  17.576  13.510
72706W        W45131   3.488  32.384  11.185
72707W        W45132  39.589  10.806  13.141
72708W        W45133  31.136  20.076   1.850
72709W        W45134  16.092  25.682  14.410
72710W        W45135   6.695  26.176  11.363
72711W        W45136  20.033  20.430   1.878
72712W        W45137  19.307  14.616   3.651
72713W        W45138  21.954  11.806  12.236
72714W        W45139  20.230   8.151   2.825
72715W        W45140   9.472  25.577  10.933
72716W        W45141  34.083   0.964   3.781
72717W        W45142  26.555  35.882   2.348
72718W        W45143  25.448   0.310  11.932
72719W        W45144  31.880  12.144  14.395
72720W        W45145  27.946   2.852   3.132
72721W        W45146  15.597   2.477   1.367
72722W        W45147  40.241  21.218   3.222
72723W        W45148  34.380  31.425   3.732
72724W        W45149   8.910  23.746   1.389
72725W        W45150  18.691  34.477  11.865
72726W        W45151  11.240  26.914  10.774
72727W        W45152  26.863  23.429  10.284
72728W        W45153  32.529   0.842   2.732
72729W        W45154  16.031   5.775  11.905
72730W        W45155  33.912  39.751   4.301
72731W        W45156  42.236  30.590  10.822
72732W        W45157  33.409  25.264   0.916
72733W        W45158  20.669  32.460  11.463
72734W        W45159  34.079  24.911   2.944
72735W        W45160  20.008   0.930  12.440
72736W        W45161  16.435  17.025  14.291
72737W        W45162  39.369  19.119  12.103
72738W        W45163  22.294  13.969  13.500
72739W        W45164   5.444  44.340  11.140
72740W        W45165  20.204   7.925  11.197
72741W        W45166  38.098  12.043  12.384
72742W        W45167  41.703  37.891   1.697
72743W        W45168  13.224   1.382   4.169
72744W        W45169  14.263  34.493  10.256
72745W        W45170   4.945  29.438   2.655
72746W        W45171  41.591  30.310   0.051
72747W        W45172  39.380   0.319   2.656
72748W        W45173  27.217  32.405   1.649
72749W        W45174  16.136  32.007   2.186
72750W        W45175  23.250   2.506  14.842
72751W        W45176  42.387  27.775   2.413
72752W        W45177  26.554  21.650   0.222
72753W        W45178   7.942   5.553  12.651
72754W        W45179  31.073  44.350   4.097
72755W        W45180  27.067   4.984  11.598
72756W        W45181   9.821  30.148   1.450
72757W        W45182   8.797  44.684   1.184
72758W        W45183  42.688  14.863   3.985
72759W        W45184  29.960  31.312   2.674
72760W        W45185   0.410  15.606  11.403
72761W        W45186  12.207  29.337   1.089
72762W        W45187  23.965   0.971  14.487
72763W        W45188  33.948  11.727   4.272
72764W        W45189  12.976   8.788  10.605
72765W        W45190  20.909  28.456   1.901
72766W        W45191  30.481  15.219   4.019
72767W        W45192  29.703  23.027  11.549
72768W        W45193   2.799  36.037  13.087
72769W        W45194   5.351  18.988   4.239
72770W        W45195   1.973  43.833   3.867
72771W        W45196   5.896  26.024   4.078
72772W        W45197  41.750  35.353  13.831
72773W        W45198   2.786  34.349   3.604
72774W        W45199  11.542  41.437   3.775
72775W        W45200  43.243  41.301   0.416
72776W        W45201  24.653  26.189   2.743
72777W        W45202  33.867   6.505   0.485
72778W        W45203  13.138  11.824  13.331
72779W        W45204  19.546   3.657   0.496
72780W        W45205   5.934  35.894   1.707
72781W        W45206  35.099  30.432   3.298
72782W        W45207   0.166  32.644   4.213
72783W        W45208  27.876   4.618   4.195
72784W        W45209  43.950  22.450   4.353
72785W        W45210  30.255  36.355  14.968
72786W        W45211   5.218   2.769   2.429
72787W        W45212  42.798  28.498   2.706
72788W        W45213  16.589  43.426   4.090
72789W        W45214  20.139  40.106   0.671
72790W        W45215  12.324  24.203   5.002
72791W        W45216  17.127  18.095  12.956
72792W        W45217  25.336  22.732  12.941
72793W        W45218  32.129  25.802   0.695
72794W        W45219  31.539  30.917  14.966
72795W        W45220  31.589  16.956  14.891
72796W        W45221  42.807  40.797  12.090
72797W        W45222  12.817  39.871   2.486
72798W        W45223  35.791  32.998   1.940
72799W        W45224  25.177  33.927  14.482
72800W        W45225   8.976   7.514   4.980
72801W        W45226  44.046   8.210   1.868
72802W        W45227  44.549  41.187   0.716
72803W        W45228  16.684  16.110  12.079
72804W        W45229  14.141  32.560  12.932
72805W        W45230  20.160   2.500  11.172
72806W        W45231  18.282  25.210   2.281
72807W        W45232  14.885  20.947  11.663
72808W        W45233  23.279  17.105   0.411
72809W        W45234  35.347   3.134   3.890
72810W        W45235  16.068  34.899   2.794
72811W        W45236  12.905  37.297   2.686
72812W        W45237  13.811  21.469  10.769
72813W        W45238  44.403  28.765  12.534
72814W        W45239  12.651  27.170   0.837
72815W        W45240  19.995  13.253  12.682
72816W        W45241  17.590  38.593  13.483
72817W        W45242  33.906  30.471   3.683
72818W        W45243  20.188  31.222  14.297
72819W        W45244  11.207  42.856  11.214
72820W        W45245  12.808  17.128  10.653
72821W        W45246  41.184   1.742  14.811
72822W        W45247  23.037  33.426  13.519
72823W        W45248   7.803  26.757  14.443
72824W        W45249  32.953  16.970   2.011
72825W        W45250   0.251   6.006   1.348
72826W        W45251   5.916  26.873   3.508
72827W        W45252   6.214  43.967   0.547
72828W        W45253  26.285  41.499  14.423
72829W        W45254  36.384  37.050   0.685
72830W        W45255  17.546  23.868  14.860
72831W        W45256  22.336  43.719  11.120
72832W        W45257  26.898  15.721   4.487
72833W        W45258  34.611   6.384  10.635
72834W        W45259  34.468  35.876   4.270
72835W        W45260  33.516  27.969  11.004
72836W        W45261  39.358  33.036   0.068
72837W        W45262  42.266  17.615  12.209
72838W        W45263  27.560   4.605  14.690
72839W        W45264  14.664  33.986  10.997
72840W        W45265  40.425  20.712   4.877
72841W        W45266  31.545  32.771   2.292
72842W        W45267  11.767   0.771  12.082
72843W        W45268  10.701  13.952   3.855
72844W        W45269  17.299  32.393  11.090
72845W        W45270  40.127   8.838  11.802
72846W        W45271  43.019  30.330  11.040
72847W        W45272  33.634  17.227  14.563
72848W        W45273   5.659  27.589  12.934
72849W        W45274  20.879  14.685  13.501
72850W        W45275  20.007  32.392  11.173
72851W        W45276   1.029   4.396   2.766
72852W        W45277  13.599  39.338  14.070
72853W        W45278  34.352   6.662  11.668
72854W        W45279  41.430  38.419   2.229
72855W        W45280  23.216  41.339  14.929
72856W        W45281   7.802  40.490  14.971
72857W        W45282  25.628  23.037   1.071
72858W        W45283  24.166  29.059  10.436
72859W        W45284  30.992   0.959  12.084
72860W        W45285  11.365  24.399   3.636
72861W        W45286  38.755  17.802  10.691
72862W        W45287  14.362  34.997  12.138
72863W        W45288  44.972  20.687   3.370
72864W        W45289  39.668  13.294   2.866
72865W        W45290  14.031  43.769   0.305
72866W        W45291  40.327  15.049   3.695
72867W        W45292  12.585  34.095   2.372
72868W        W45293  16.068  41.785  12.871
72869W        W45294   7.745  16.647  14.188
72870W        W45295  28.418  28.658   4.668
72871W        W45296  26.029  31.436   3.934
72872W        W45297   8.839  18.446   4.645
72873W        W45298  31.167  18.880  11.127
72874W        W45299  20.807  27.695  14.572
72875W        W45300  28.701  44.002  14.486
72876W        W45301  14.980  39.371   0.500
72877W        W45302  12.421   9.695  11.520
72878W        W45303  44.055  38.027  13.813
72879W        W45304  41.587   7.517  12.220
72880W        W45305  37.468   1.996   1.996
72881W        W45306  43.297   2.711  12.062
72882W        W45307  37.875   2.278  13.439
72883W        W45308  10.295  25.515  11.604
72884W        W45309  21.811  26.357  11.657
72885W        W45310  28.082  22.655   5.121
72886W        W45311  22.938  11.582   0.696
72887W        W45312  32.469  33.543   4.710
72888W        W45313  31.488  37.595  12.405
72889W        W45314   3.971  20.988   0.264
72890W        W45315  15.665  22.742   3.638
72891W        W45316  11.431   6.859  10.831
72892W        W45317  23.070  42.416   4.718
72893W        W45318  30.177  36.930   1.330
72894W        W45319  43.353  31.182  11.369
72895W        W45320  24.369   2.189  11.769
72896W        W45321  41.669  13.309  14.830
72897W        W45322  20.007  29.013  11.928
72898W        W45323   4.674  40.460  11.896
72899W        W45324  30.153  38.458  12.411
72900W        W45325  43.117  31.940  14.064
72901W        W45326   8.205  35.465  12.971
72902W        W45327  36.030   4.783  12.138
72903W        W45328  19.551  37.602  12.957
72904W        W45329  43.212  32.399   4.354
72905W        W45330   7.508  34.062  13.974
72906W        W45331  13.055  10.813   2.606
72907W        W45332  10.981  40.213  14.692
72908W        W45333  22.218  11.791   4.573
72909W        W45334  35.162  33.536  11.482
72910W        W45335   0.506  31.668   2.402
72911W        W45336  18.917  14.242   0.508
72912W        W45337  44.211   8.773  10.303
72913W        W45338  44.433  28.714   0.732
72914W        W45339  22.283  33.444  14.886
72915W        W45340  31.535  18.307  14.035
72916W        W45341  14.306  26.612  10.581
72917W        W45342  31.975  27.027   1.126
72918W        W45343  34.326  42.764  12.927
72919W        W45344  36.413  33.369  11.117
72920W        W45345  41.903  41.049  11.179
72921W        W45346  24.531  10.259  10.279
72922W        W45347  39.329  14.542  10.776
72923W        W45348  42.950  33.456   4.042
72924W        W45349  25.268  16.098  11.160
72925W        W45350  21.318  10.902  12.448
72926W        W45351  23.158  19.035  14.864
72927W        W45352  34.821  21.673  14.570
72928W        W45353  37.533   8.713   1.364
72929W        W45354  43.706  37.240  11.082
72930W        W45355  20.682  34.203  10.938
72931W        W45356  28.665  18.713  11.147
72932W        W45357  18.165  15.619  12.865
72933W        W45358  13.838  12.870   2.296
72934W        W45359  15.173  28.524   0.671
72935W        W45360  40.845   2.383   3.679
72936W        W45361  26.925  34.980   0.330
72937W        W45362  40.633  42.775   3.674
72938W        W45363  26.277  23.162   1.452
72939W        W45364  23.078   0.473  14.962
72940W        W45365  29.894  35.113  13.376
72941W        W45366  38.338  17.425   1.331
72942W        W45367  43.943  18.260  10.742
72943W        W45368   5.366  12.705   4.625
72944W        W45369   6.219   1.255  12.350
72945W        W45370  19.451  18.069   0.868
72946W        W45371   6.318   0.240  13.845
72947W        W45372   4.937  36.893   0.712
72948W        W45373   1.357  11.720  11.603
72949W        W45374  20.997  13.556   3.606
72950W        W45375  22.422  23.135  11.996
72951W        W45376  31.370  22.628   2.306
72952W        W45377   0.913  28.254  13.963
72953W        W45378  38.848  39.761   0.285
72954W        W45379  15.248  12.372  12.412
72955W        W45380  26.984  21.627   3.260
72956W        W45381  17.595   8.346   3.236
72957W        W45382  41.333  13.113   1.288
72958W        W45383  15.721  32.680   2.705
72959W        W45384   8.467  18.633  12.973
72960W        W45385  30.144   9.336   4.207
72961W        W45386   1.859  19.109   1.015
72962W        W45387   2.252  14.107   0.468
72963W        W45388  32.056  44.401   3.740
72964W        W45389  34.982  20.632  13.131
72965W        W45390  32.864  19.182  13.093
72966W        W45391  28.962   6.381   1.376
72967W        W45392  13.380  35.263  12.600
72968W        W45393  22.130  20.165  14.038
72969W        W45394  44.763  21.746  11.457
72970W        W45395  43.870  15.003  11.480
72971W        W45396   9.444  34.358   0.248
72972W        W45397  17.050   6.501  12.545
72973W        W45398  37.026  11.620   5.037
72974W        W45399  15.967  14.536   1.841
72975W        W45400  23.710   6.015  14.655
72976W        W45401   0.431  21.946  14.090
72977W        W45402   2.687  24.740   1.154
72978W        W45403  35.625  19.660   2.077
72979W        W45404  31.416  15.889   3.833
72980W        W45405  21.258  27.194  11.476
72981W        W45406  23.603  30.150   9.833
72982W        W45407  42.839   1.264   2.215
72983W        W45408  32.838   5.276   3.388
72984W        W45409  24.156  32.613  13.016
72985W        W45410  17.794  36.016  13.974
72986W        W45411  32.908  35.280   1.013
72987W        W45412  35.466  40.056  10.947
72988W        W45413   2.330  22.619   1.190
72989W        W45414  31.617  34.980   4.136
72990W        W45415  40.914  40.311   2.109
72991W        W45416  29.520   5.471  10.757
72992W        W45417   3.234   0.413  13.379
72993W        W45418  28.003  18.783  13.940
72994W        W45419  35.058  11.134  14.445
72995W        W45420  17.649  30.418   3.065
72996W        W45421   3.309   5.012   1.589
72997W        W45422   5.423  20.587   3.753
72998W        W45423  27.921   3.951  12.029
72999W        W45424   7.901  41.097  14.705
73000W        W45425   6.796  19.831   1.951
73001W        W45426   7.156  40.752   2.323
73002W        W45427  38.091  23.789   3.198
73003W        W45428  10.750   3.146  13.337
73004W        W45429  10.838   0.798  12.057
73005W        W45430  23.001   1.537  14.930
73006W        W45431   8.048  18.860  11.984
73007W        W45432  39.721  36.765   3.217
73008W        W45433  15.641  12.386  12.073
73009W        W45434  25.443  36.379   4.619
73010W        W45435  28.935   6.060   1.790
73011W        W45436   9.344  36.756  11.938
73012W        W45437  15.663  22.737  10.973
73013W        W45438  34.561  22.341  11.390
73014W        W45439   3.269  44.213   3.097
73015W        W45440  36.445   5.426   1.570
73016W        W45441  11.715  10.351  12.648
73017W        W45442   3.069  41.411   0.902
73018W        W45443  13.670  40.759  10.721
73019W        W45444  19.832   1.225  14.436
73020W        W45445  29.713  38.101   0.351
73021W        W45446  30.404  17.012  10.761
73022W        W45447   0.279   0.721  11.620
73023W        W45448  34.597  16.807   3.118
73024W        W45449  16.547   6.849  13.343
73025W        W45450  12.297  21.292  14.414
73026W        W45451  17.817  15.662  10.397
73027W        W45452   3.779   0.814   4.575
73028W        W45453  21.307   2.780   3.431
73029W        W45454  21.685  30.362   4.561
73030W        W45455   7.672   8.767   2.294
73031W        W45456   3.392  13.922  13.283
73032W        W45457  36.538  10.506   4.257
73033W        W45458  30.011  27.584   1.899
73034W        W45459  31.088   1.015  14.584
73035W        W45460  42.716  34.515   2.721
73036W        W45461  21.188   4.400   0.988
73037W        W45462   0.647  30.654   4.640
73038W        W45463  13.044   0.503  14.301
73039W        W45464  11.648  14.317  13.966
73040W        W45465  40.476  10.597   0.233
73041W        W45466   0.752  23.189   2.123
73042W        W45467  35.932  28.649  11.463
73043W        W45468   0.347   7.860  13.832
73044W        W45469   3.192   0.232   2.311
73045W        W45470  12.620  18.642   3.434
73046W        W45471  23.446   2.868   2.630
73047W        W45472  23.253  20.803   0.399
73048W        W45473   5.955  19.532   2.371
73049W        W45474  42.901  33.256  12.053
73050W        W45475  44.960  24.270  11.183
73051W        W45476  19.597  26.918  12.820
73052W        W45477  29.868  44.786   4.105
73053W        W45478  39.468  30.956   0.479
73054W        W45479   6.165  19.303  13.091
73055W        W45480  36.181  34.387   2.311
73056W        W45481  27.510  18.732   2.861
73057W        W45482  22.995  37.957  12.215
73058W        W45483  20.096  16.745   2.683
73059W        W45484  25.296  11.388   1.715
73060W        W45485  10.823  18.069  11.221
73061W        W45486  20.767  35.113  10.658
73062W        W45487   0.877  41.497   0.154
73063W        W45488   3.270  14.520  12.411
73064W        W45489   6.644  43.250  11.960
73065W        W45490   0.769  29.896   4.159
73066W        W45491  24.630   4.057   1.424
73067W        W45492  36.640  38.373   3.080
73068W        W45493  36.404  36.075   4.449
73069W        W45494  23.102   8.106   3.334
73070W        W45495  21.694  22.493  11.032
73071W        W45496  29.449  43.953   1.732
73072W        W45497  18.569  31.413   0.493
73073W        W45498  26.496  21.735  11.471
73074W        W45499  24.783   5.722  10.569
73075W        W45500  29.451  23.161   3.485
73076W        W45501  19.784  20.027   1.661
73077W        W45502   4.616  16.724  13.129
73078W        W45503   3.186  28.392   0.286
73079W        W45504   1.221  37.514  11.090
73080W        W45505  13.299  11.981   0.303
73081W        W45506  10.414  18.865  11.116
73082W        W45507   6.864  13.633   1.308
73083W        W45508   4.550   0.447  10.653
73084W        W45509  43.539  27.091   1.359
73085W        W45510  11.494   2.736   0.366
73086W        W45511  15.787  15.453   2.246
73087W        W45512  19.510   3.040  14.838
73088W        W45513   0.140  34.931  10.904
73089W        W45514   9.465  34.846  14.471
73090W        W45515  39.866  14.550  12.853
73091W        W45516   2.980  36.814   4.709
73092W        W45517  27.590  10.581  12.932
73093W        W45518   5.255   8.728  14.268
73094W        W45519   9.923  16.694   3.693
73095W        W45520  27.683  14.363  10.758
73096W        W45521  34.354   3.459  11.624
73097W        W45522  36.438  43.888   0.703
73098W        W45523  21.097  39.429   2.505
73099W        W45524  34.318  41.034  14.301
73100W        W45525  27.497   7.726   2.595
73101W        W45526  24.736  22.550   2.246
73102W        W45527  35.958  37.017   2.525
73103W        W45528  10.162  42.518   0.463
73104W        W45529   9.014  18.723  12.145
73105W        W45530  33.866  28.850  10.662
73106W        W45531  12.980  32.593  13.861
73107W        W45532   6.402   8.128   3.611
73108W        W45533  27.158  19.753   0.758
73109W        W45534  21.547  23.259  11.666
73110W        W45535  36.065  42.829   2.699
73111W        W45536  22.788   3.744  10.727
73112W        W45537  37.361  33.954  10.319
73113W        W45538  24.239  39.426   1.397
73114W        W45539  42.359  19.233  14.984
73115W        W45540  13.189  19.914  11.351
73116W        W45541  41.247  15.775   0.384
73117W        W45542  36.043   0.452   2.224
73118W        W45543   3.618  10.690   2.843
73119W        W45544  10.706  10.633  11.301
73120W        W45545   3.747  43.406   1.348
73121W        W45546   0.003  24.497  14.114
73122W        W45547   9.289   5.474  13.358
73123W        W45548  15.070   6.204   0.203
73124W        W45549  25.626  20.741   2.785
73125W        W45550  28.962  44.433   0.337
73126W        W45551  26.455  14.117   2.182
73127W        W45552   9.750  32.176   2.293
73128W        W45553   6.405  30.860   3.306
73129W        W45554  13.154   3.913   0.979
73130W        W45555   5.245   4.435   4.998
73131W        W45556   8.255  18.305   3.899
73132W        W45557  32.952  41.665  12.088
73133W        W45558   8.981  18.599  12.985
73134W        W45559  43.694  14.226  10.678
73135W        W45560  37.476  39.305   0.841
73136W        W45561   9.607  21.217   4.624
73137W        W45562  40.694   9.118  10.240
73138W        W45563   3.097  26.588   2.458
73139W        W45564  37.497  22.668  14.079
73140W        W45565  40.297  30.290  12.930
73141W        W45566  40.521  19.277  10.707
73142W        W45567   9.752  25.859  12.207
73143W        W45568  44.696   0.313   2.257
73144W        W45569   3.730  44.732   2.290
73145W        W45570  34.172  15.101   3.861
73146W        W45571  42.550   8.260  14.418
73147W        W45572  18.455  34.945  11.102
73148W        W45573  12.215  38.975   4.310
73149W        W45574  10.791  44.038   1.882
73150W        W45575  23.222  12.765   0.751
73151W        W45576  34.166  20.018  13.914
73152W        W45577  26.683  38.291   1.650
73153W        W45578  42.365  39.504   4.114
73154W        W45579  30.013   2.194  11.429
73155W        W45580  41.933  43.318  14.462
73156W        W45581   2.019  41.971   1.975
73157W        W45582  38.337  23.488  10.886
73158W        W45583  37.630  14.022   1.440
73159W        W45584  13.817  38.117   3.987
73160W        W45585  14.990  23.168   4.158
73161W        W45586  42.075  33.016  13.821
73162W        W45587  27.922  22.507   2.869
73163W        W45588  33.336  32.349  12.002
73164W        W45589  31.667   2.925   0.674
73165W        W45590  27.467  26.238   0.536
73166W        W45591  34.581  32.202  11.560
73167W        W45592  43.370  36.906  13.453
73168W        W45593  19.696   0.009   2.836
73169W        W45594   1.348   8.891  14.803
73170W        W45595  29.859   6.381   2.859
73171W        W45596  32.709  38.841   1.834
73172W        W45597  38.319  22.547   3.709
73173W        W45598   1.219  15.652   2.730
73174W        W45599  12.738  41.492   2.875
73175W        W45600   7.492  34.392  10.475
73176W        W45601  13.475   4.027  12.576
73177W        W45602  11.423  26.200  13.385
73178W        W45603  30.133  17.290   3.653
73179W        W45604  41.943  31.134   0.021
73180W        W45605   5.206  16.508   1.215
73181W        W45606  19.808  20.548  14.580
73182W        W45607  28.451  12.741  14.870
73183W        W45608  13.713  26.240  13.045
73184W        W45609   2.812  32.711   1.472
73185W        W45610  10.165  14.333   0.353
73186W        W45611  41.300  12.145  11.931
73187W        W45612  15.780  12.308  11.018
73188W        W45613   8.604  23.679  11.960
73189W        W45614  31.106  26.596  12.638
73190W        W45615  40.579  11.317  10.638
73191W        W45616  12.871  10.711  14.381
73192W        W45617  11.821  15.540   4.262
73193W        W45618  40.369   5.738   2.609
73194W        W45619  13.638   9.212  14.460
73195W        W45620  13.914  41.746  12.533
73196W        W45621  35.917  34.067  14.989
73197W        W45622  25.038  26.160   0.407
73198W        W45623  38.385  27.712  10.634
73199W        W45624   3.358  41.477   3.113
73200W        W45625  32.844  30.123   1.079
73201W        W45626  15.224  13.836  11.466
73202W        W45627  13.846  31.419   0.814
73203W        W45628   6.714  36.549  12.979
73204W        W45629  31.701  33.349  11.220
73205W        W45630  13.406  39.823   3.134
73206W        W45631  31.484  25.187   4.670
73207W        W45632  10.188  14.884   3.093
73208W        W45633  21.533  13.519  13.979
73209W        W45634  36.476   5.272  13.527
73210W        W45635   0.403   9.823  13.946
73211W        W45636   0.468  27.868  12.497
73212W        W45637   3.426  41.735  11.094
73213W        W45638  17.676   6.250   2.653
73214W        W45639  33.969  43.996   4.515
73215W        W45640   5.973  34.005   1.812
73216W        W45641   1.158   8.919  10.753
73217W        W45642  29.915  23.199   3.237
73218W        W45643  10.125  11.278   4.870
73219W        W45644  24.592  29.475  14.756
73220W        W45645   9.164   3.911   2.935
73221W        W45646   1.502  17.191   4.161
73222W        W45647  43.363  18.464   0.270
73223W        W45648  10.082  24.725  13.935
73224W        W45649   9.926   6.508   2.257
73225W        W45650  10.888  23.310   0.972
73226W        W45651  37.078  14.015  12.879
73227W        W45652   1.807  13.784  12.169
73228W        W45653  11.411  19.683  11.243
73229W        W45654  19.163  42.327   2.381
73230W        W45655  11.858   9.205   3.176
73231W        W45656  14.314  17.044   0.934
73232W        W45657  26.265   1.131   3.112
73233W        W45658   5.020  12.814  10.765
73234W        W45659  10.439  16.701   2.632
73235W        W45660   6.196  20.624  12.994
73236W        W45661  27.264   5.335   4.517
73237W        W45662   4.392  22.415  11.924
73238W        W45663  26.075  19.378   4.549
73239W        W45664   5.202  23.531  11.201
73240W        W45665  19.297  44.927   3.226
73241W        W45666  44.442  15.079   4.510
73242W        W45667  36.070  15.132  12.960
73243W        W45668  12.516  19.809  12.352
73244W        W45669  16.227   3.905  11.650
73245W        W45670  43.728  35.939   0.245
73246W        W45671  12.291  23.600  11.118
73247W        W45672   5.981  16.928  14.067
73248W        W45673  14.018  17.505   0.749
73249W        W45674  36.097  42.636  10.610
73250W        W45675  34.029   0.078   0.281
73251W        W45676  37.905  23.569  12.543
73252W        W45677  43.871  14.865   3.168
73253W        W45678   0.822  39.753   2.287
73254W        W45679  43.464   4.755  12.138
73255W        W45680   1.966  43.193   3.621
73256W        W45681  25.048   5.869  12.034
73257W        W45682  44.402  13.162   2.860
73258W        W45683   8.784  36.414  12.123
73259W        W45684  19.707  25.215  14.870
73260W        W45685  20.072  10.749  11.509
73261W        W45686  29.304  11.614   3.168
73262W        W45687  36.683  32.044   0.771
73263W        W45688  36.890  37.579  11.428
73264W        W45689  37.435  28.904  13.085
73265W        W45690  13.643  16.912  13.451
73266W        W45691  12.155  12.189  11.604
73267W        W45692  38.489   8.215  10.108
73268W        W45693  18.093  41.028  14.450
73269W        W45694   5.900  18.263   1.205
73270W        W45695  13.591  44.978  11.157
73271W        W45696  14.493  22.498   5.288
73272W        W45697  16.139  16.349   2.256
73273W        W45698  14.216  11.836  14.027
73274W        W45699  23.578  23.439   4.615
73275W        W45700  33.880  33.412   0.475
73276W        W45701   7.865  30.361  13.053
73277W        W45702  38.012  13.094  12.529
73278W        W45703  20.174  21.764   3.294
73279W        W45704  10.617  22.508   0.776
73280W        W45705  20.514   2.166  12.041
73281W        W45706  40.612  33.133  11.075
73282W        W45707   3.079  36.459  10.958
73283W        W45708  24.283  19.083   3.124
73284W        W45709  10.376   6.101   0.792
73285W        W45710  11.221  43.268   1.829
73286W        W45711  34.714  24.710  14.541
73287W        W45712  15.621   5.318   0.954
73288W        W45713  38.064  14.399   4.569
73289W        W45714  23.034  17.559   0.329
73290W        W45715  18.129  25.683   2.076
73291W        W45716  14.633  24.706  11.090
73292W        W45717  29.450  41.633   0.317
73293W        W45718  24.707   2.942   3.914
73294W        W45719  30.181   1.770  13.417
73295W        W45720  30.063  36.430   0.466
73296W        W45721  27.438   0.396  13.822
73297W        W45722  31.437   4.243   1.709
73298W        W45723  28.670  43.213  10.733
73299W        W45724  30.102  41.161  14.484
73300W        W45725  22.176  31.663  14.692
73301W        W45726   5.550  35.844   3.952
73302W        W45727   1.708  10.092   0.861
73303W        W45728  43.356  44.231   0.244
73304W        W45729   2.215  19.595   2.910
73305W        W45730  26.580  18.839  14.087
73306W        W45731  15.017  18.273  12.306
73307W        W45732  40.776  12.263   1.405
73308W        W45733  26.808  10.371  13.933
73309W        W45734  32.615  40.874   0.860
73310W        W45735  13.055  30.914  11.189
73311W        W45736  33.504  20.911   3.635
73312W        W45737  31.627  37.510   2.605
73313W        W45738   9.685  31.029  11.071
73314W        W45739  12.407  32.023   4.224
73315W        W45740  11.534  32.439   2.813
73316W        W45741  36.024  33.529   4.629
73317W        W45742  36.441  30.432   4.486
73318W        W45743  23.317   4.428  13.522
73319W        W45744  18.137  23.674  10.639
73320W        W45745  36.052  13.700  14.398
73321W        W45746  38.390  25.739  13.861
73322W        W45747  36.466   1.661  14.624
73323W        W45748  18.545   9.658  12.100
73324W        W45749  34.563  28.228  12.890
73325W        W45750  44.745  40.110   0.546
73326W        W45751   0.870   9.997  12.147
73327W        W45752   6.252  32.683  13.865
73328W        W45753  17.356   4.926   0.462
73329W        W45754  25.157  43.497  12.997
73330W        W45755   6.835  38.721  11.535
73331W        W45756  25.446  40.660  11.959
73332W        W45757  16.985  29.374  13.382
73333W        W45758  22.532  17.312  14.228
73334W        W45759  25.150  39.413  10.402
73335W        W45760  20.624  18.164  13.161
73336W        W45761  27.482   5.047  10.071
73337W        W45762  43.908  27.828  14.819
73338W        W45763  11.239  10.620  12.724
73339W        W45764  19.277  43.274  11.055
73340W        W45765   9.941   2.364  12.093
73341W        W45766  36.467   2.869   4.949
73342W        W45767  14.319   4.862  14.777
73343W        W45768  18.380  32.381   0.914
73344W        W45769  34.029  22.693  12.425
73345W        W45770  22.730   5.925   0.408
73346W        W45771  10.176  37.027  11.136
73347W        W45772   7.774   4.958   1.294
73348W        W45773   5.581  40.892  11.152
73349W        W45774  35.486  40.695  11.944
73350W        W45775  12.300   4.210  13.711
73351W        W45776  28.139  32.912  13.788
73352W        W45777  39.108  24.154  14.001
73353W        W45778  19.571  12.087  10.498
73354W        W45779  29.435  43.831   2.241
73355W        W45780  15.667   4.055  12.849
73356W        W45781   4.544  29.756   0.324
73357W        W45782  24.518  16.164   4.600
73358W        W45783  25.538  19.562   1.167
73359W        W45784  35.392   5.228   2.352
73360W        W45785  28.215  27.631  14.769
73361W        W45786  34.217  38.109  11.119
73362W        W45787  33.626  21.901  13.534
73363W        W45788   4.082  20.650  12.366
73364W        W45789  21.085  13.765   2.115
73365W        W45790  18.631  31.189   4.052
73366W        W45791  23.570  37.322  13.290
73367W        W45792  21.527  15.645   2.318
73368W        W45793   0.836  20.017  13.255
73369W        W45794   7.953   9.079  14.283
73370W        W45795  12.682  28.730   4.977
73371W        W45796  14.592  25.066   3.968
73372W        W45797  35.583  19.959  13.823
73373W        W45798  36.984  18.701  11.048
73374W        W45799  26.459   3.936  14.394
73375W        W45800  19.823   0.181  11.423
73376W        W45801   8.514  28.904  12.895
73377W        W45802   9.789  28.340  11.128
73378W        W45803  38.626  12.244   1.294
73379W        W45804   6.136  28.995  13.465
73380W        W45805  38.456  42.589   0.329
73381W        W45806  35.886  29.656   0.648
73382W        W45807  13.385  33.340  12.548
73383W        W45808  43.175  44.491  11.557
73384W        W45809  36.041  34.837  13.311
73385W        W45810   7.824  15.730   0.204
73386W        W45811  22.429  15.593  12.490
73387W        W45812   2.016  18.253   3.623
73388W        W45813   4.828  37.161   1.134
73389W        W45814  39.367  32.835  11.480
73390W        W45815   2.361  34.030   4.627
73391W        W45816  33.099   7.268  11.743
73392W        W45817  16.632   6.236   2.877
73393W        W45818  41.656  35.637   2.770
73394W        W45819  26.008  27.676  10.639
73395W        W45820  22.350  10.176   0.460
73396W        W45821  43.427   7.814  14.873
73397W        W45822  30.721  29.121  13.581
73398W        W45823   3.292  42.895   2.381
73399W        W45824   3.029  41.499   3.852
73400W        W45825  28.078  43.133  13.407
73401W        W45826  20.546  16.570   1.832
73402W        W45827  28.120   8.095  11.468
73403W        W45828   2.849   4.906   0.548
73404W        W45829  16.815  19.822   0.483
73405W        W45830  42.112  29.601   4.398
73406W        W45831  16.630  13.449  13.170
73407W        W45832  33.500  38.800  11.108
73408W        W45833  21.034  18.019  10.866
73409W        W45834  19.002  25.686  11.141
73410W        W45835  33.453  16.723  14.555
73411W        W45836  29.927  35.301   3.717
73412W        W45837  33.512  14.096   4.908
73413W        W45838  21.445  40.001  11.153
73414W        W45839  13.157   3.028   1.175
73415W        W45840   3.407  20.550   3.761
73416W        W45841   8.677  34.542   0.911
73417W        W45842  18.247  38.426  12.336
73418W        W45843  11.579  28.078   0.699
73419W        W45844  18.771  17.026   3.719
73420W        W45845  16.388  28.294  13.483
73421W        W45846  32.918   7.247  12.373
73422W        W45847  21.051  24.183  14.405
73423W        W45848  25.900  17.860  13.580
73424W        W45849  38.037   2.252   1.302
73425W        W45850   4.291  20.144   3.190
73426W        W45851   4.029   1.354  14.658
73427W        W45852  22.302  38.903   4.741
73428W        W45853  28.699   2.708   3.355
73429W        W45854  15.248  34.065  10.693
73430W        W45855  10.144  11.705   3.692
73431W        W45856  27.938  35.370  14.960
73432W        W45857   8.960  19.183  11.021
73433W        W45858   6.647  27.611   0.954
73434W        W45859  43.264  33.414   0.230
73435W        W45860  24.904   6.613  12.406
73436W        W45861  28.454  31.184   4.822
73437W        W45862  44.196   1.974  13.964
73438W        W45863  29.072  14.586  12.824
73439W        W45864  13.553   4.849  11.801
73440W        W45865  12.330  20.561  13.251
73441W        W45866  39.838   7.026   2.131
73442W        W45867   7.572  26.251  12.092
73443W        W45868  24.196   0.938   0.885
73444W        W45869  24.277  43.541  14.484
73445W        W45870  29.075  21.118  14.756
73446W        W45871  10.039  30.105   1.934
73447W        W45872  37.715  21.804  12.897
73448W        W45873  24.712  33.643   2.608
73449W        W45874  27.543  32.059  10.841
73450W        W45875  32.037  19.057  13.337
73451W        W45876   5.909  39.843   4.515
73452W        W45877  44.248  42.393  13.705
73453W        W45878   0.334  33.594  14.920
73454W        W45879  16.604  34.552   3.097
73455W        W45880  39.121  17.110  12.831
73456W        W45881  34.120   9.475   0.373
73457W        W45882   9.074  39.838  14.330
73458W        W45883  12.289  22.717   2.725
73459W        W45884  34.485   2.486  12.521
73460W        W45885  19.483  21.489  13.038
73461W        W45886  30.526  29.075  12.569
73462W        W45887  41.827   7.473   1.247
73463W        W45888  22.837   9.837  11.034
73464W        W45889  28.168  44.884  12.824
73465W        W45890  41.359  33.850  11.290
73466W        W45891  31.970  42.029  10.759
73467W        W45892  39.754  16.600  13.087
73468W        W45893   1.171  35.175   0.832
73469W        W45894   1.903   8.782  13.998
73470W        W45895  10.899  21.948   9.882
73471W        W45896  35.400  10.841   3.657
73472W        W45897  29.470  18.582  11.572
73473W        W45898  25.050  17.161  13.828
73474W        W45899  17.037  10.817  13.582
73475W        W45900  42.001  22.197  12.182
73476W        W45901   0.542   4.664  13.927
73477W        W45902   0.868   7.189   2.849
73478W        W45903  38.059  20.947  11.940
73479W        W45904  41.243   9.888  13.985
73480W        W45905  32.295  21.322   3.329
73481W        W45906   7.880  33.023  14.783
73482W        W45907  40.064  21.334  11.353
73483W        W45908   5.151  43.222  14.360
73484W        W45909  13.817  33.778  14.359
73485W        W45910  23.085  24.919   1.143
73486W        W45911   4.425   8.072  13.759
73487W        W45912  29.131  11.616   4.369
73488W        W45913  36.024  38.521  10.533
73489W        W45914  16.548  22.589   0.873
73490W        W45915   9.987  18.575  11.182
73491W        W45916  23.294  18.309  11.058
73492W        W45917  39.592  12.846   4.182
73493W        W45918   0.861  19.272  11.108
73494W        W45919  14.251  24.302   1.197
73495W        W45920   2.773   4.284  11.411
73496W        W45921  31.052  32.610   2.145
73497W        W45922   3.697  31.852  12.118
73498W        W45923  30.673  33.610   0.253
73499W        W45924  35.361  44.820  10.710
73500W        W45925  16.113  25.447   0.792
73501W        W45926   8.992   0.685  10.705
73502W        W45927   0.551  33.925  10.551
73503W        W45928  35.210  38.647  11.023
73504W        W45929  20.663   8.147   1.314
73505W        W45930  27.571  20.287  14.406
73506W        W45931  15.570   1.638  13.913
73507W        W45932   3.299   7.448  14.878
73508W        W45933  17.076   2.849  10.711
73509W        W45934  28.372  15.127  13.442
73510W        W45935  12.692  13.249   0.738
73511W        W45936  23.722   3.017  13.349
73512W        W45937   9.428  40.537  14.978
73513W        W45938   3.227  19.061   0.383
73514W        W45939  10.179  30.415   0.514
73515W        W45940  42.566  11.878  12.429
73516W        W45941   9.965  34.626  14.265
73517W        W45942  23.307   9.419  12.499
73518W        W45943  14.139   1.773  10.226
73519W        W45944   4.754   7.218  13.340
73520W        W45945  39.035  21.462   0.828
73521W        W45946  38.280  44.786   1.356
73522W        W45947  29.415  33.692  14.794
73523W        W45948  24.653  29.447   4.168
73524W        W45949   9.874   6.435   3.182
73525W        W45950  23.754  44.556   4.128
73526W        W45951  25.728  14.883  11.975
73527W        W45952   2.321  34.387   3.801
73528W        W45953  20.208   2.207  11.600
73529W        W45954   2.223   7.814  10.729
73530W        W45955   2.088  11.914  11.868
73531W        W45956  37.020  12.896   0.918
73532W        W45957  20.174  17.727  13.323
73533W        W45958  39.655   9.266   4.565
73534W        W45959  35.997  25.785   1.279
73535W        W45960  16.821  22.187   3.939
73536W        W45961  27.164  40.488  14.442
73537W        W45962  12.734  42.442  11.321
73538W        W45963  27.650  36.237   2.475
73539W        W45964  10.871  15.558   1.440
73540W        W45965  10.667  25.966   4.265
73541W        W45966   2.236  32.670  11.148
73542W        W45967  18.045  40.297   3.242
73543W        W45968  32.402  29.544   0.753
73544W        W45969  35.551  33.231   1.168
73545W        W45970  44.509  32.112   1.265
73546W        W45971  38.451  12.072   4.099
73547W        W45972  42.310   0.934  13.953
73548W        W45973  21.309  13.923  11.595
73549W        W45974  12.314  15.481   1.390
73550W        W45975  39.867  23.844  13.589
73551W        W45976  32.554  23.943   2.480
73552W        W45977   4.299   7.228   2.658
73553W        W45978  37.903  23.708  14.728
73554W        W45979   7.798  17.122  13.882
73555W        W45980  43.529  27.628   4.426
73556W        W45981  30.137  39.542   2.707
73557W        W45982  18.900  28.414  10.650
73558W        W45983  10.789   3.667   4.149
73559W        W45984   2.477  42.193  11.091
73560W        W45985  18.834   8.590   3.802
73561W        W45986  35.495   0.517  14.735
73562W        W45987  28.663  12.696  11.520
73563W        W45988  16.273   4.633  14.881
73564W        W45989  30.623  32.075  10.924
73565W        W45990  16.902  25.088   4.601
73566W        W45991  39.911  26.233  11.565
73567W        W45992  28.984  22.712  12.699
73568W        W45993   0.986  29.230   0.806
73569W        W45994  30.337  20.793   4.926
73570W        W45995  31.824   4.334  13.293
73571W        W45996  24.054   6.190  11.667
73572W        W45997  39.401  38.617  12.564
73573W        W45998   0.589  31.006  11.946
73574W        W45999  16.311  32.381   0.415
73575W        W46000  11.346  17.154  10.546
73576W        W46001  19.973  11.310  11.420
73577W        W46002  15.704  35.996   1.596
73578W        W46003  25.012  29.524   1.999
73579W        W46004  25.101  12.668   2.335
73580W        W46005  37.437   6.628  12.197
73581W        W46006  42.923  26.625   0.454
73582W        W46007   3.032  10.825  13.313
73583W        W46008  27.088  32.207   3.858
73584W        W46009   4.502  24.135   2.762
73585W        W46010  32.069  17.411  12.615
73586W        W46011  14.109   3.836   1.343
73587W        W46012  15.245  22.701   2.932
73588W        W46013  29.021  12.076  10.482
73589W        W46014  34.818  43.070   0.074
73590W        W46015  11.140  21.742   3.870
73591W        W46016  33.941   0.488  14.948
73592W        W46017  41.723   9.775  13.833
73593W        W46018  42.058  18.784   0.799
73594W        W46019  13.802  25.508  14.703
73595W        W46020  32.867  13.533   0.944
73596W        W46021   8.143   6.203   0.839
73597W        W46022  12.311  42.987  12.584
73598W        W46023  27.048  34.019  12.844
73599W        W46024   5.828  40.585   1.877
73600W        W46025   1.917   7.446   2.960
73601W        W46026   8.924  44.244  14.750
73602W        W46027  32.040  34.119   2.422
73603W        W46028  41.885   3.053  11.623
73604W        W46029  22.757  16.837   4.731
73605W        W46030  39.583  40.407   0.885
73606W        W46031   6.635  36.048  12.887
73607W        W46032  42.069   6.173  11.498
73608W        W46033  22.463  11.741  12.956
73609W        W46034  29.542  14.253  14.003
73610W        W46035  40.636  41.747  11.512
73611W        W46036  10.102  18.273   4.137
73612W        W46037  18.636   4.209   4.434
73613W        W46038  38.077  32.625   4.726
73614W        W46039  28.052  36.294   2.145
73615W        W46040   9.040   1.764   3.320
73616W        W46041  16.323  43.080   0.524
73617W        W46042  38.693  29.014  11.343
73618W        W46043  43.498  10.160  11.583
73619W        W46044  18.184   6.781   3.450
73620W        W46045  37.673  31.375  14.231
73621W        W46046  35.106  40.008  13.836
73622W        W46047   9.612  20.648   1.904
73623W        W46048  28.910  22.221   1.405
73624W        W46049  16.251  20.731  14.761
73625W        W46050  41.919  35.441  14.346
73626W        W46051  23.071  43.532   2.264
73627W        W46052   0.338  34.154   3.233
73628W        W46053  21.930  31.828   4.624
73629W        W46054   6.657   5.372   1.819
73630W        W46055  28.095  43.014  12.899
73631W        W46056   9.720  17.855   3.291
73632W        W46057   4.509  31.369  13.468
73633W        W46058  34.298   8.655  11.076
73634W        W46059   6.669  42.420  11.612
73635W        W46060  30.568   0.196   3.165
73636W        W46061  17.878  25.692  14.747
73637W        W46062   0.454  35.482  12.138
73638W        W46063  31.297  12.728  10.767
73639W        W46064  23.426  12.890   4.401
73640W        W46065  16.969   9.604  10.677
73641W        W46066  34.958  14.151   1.260
73642W        W46067   9.265  35.346   4.534
73643W        W46068  10.330  11.643  12.888
73644W        W46069  43.096  22.600   4.111
73645W        W46070  38.162  11.734   0.484
73646W        W46071  35.410  15.015  14.011
73647W        W46072   9.750  39.013  11.567
73648W        W46073  34.905  24.010  11.220
73649W        W46074  26.058   8.129   1.774
73650W        W46075   2.484   5.825  13.419
73651W        W46076  41.533  24.275   3.591
73652W        W46077   4.213  36.086   2.287
73653W        W46078  22.267  42.664  11.578
73654W        W46079  17.787  23.183   1.700
73655W        W46080  35.090   9.112  12.068
73656W        W46081   6.082  41.721  12.906
73657W        W46082  35.229  18.126   1.330
73658W        W46083  15.630  35.091   3.301
73659W        W46084  11.917  31.404   3.556
73660W        W46085  18.633  22.173  14.551
73661W        W46086  40.079  13.660   4.116
73662W        W46087  40.225  16.499   0.298
73663W        W46088  44.416  14.061   4.625
73664W        W46089  26.091  27.075  13.300
73665W        W46090  32.179  29.654   4.293
73666W        W46091  16.208  14.341   4.114
73667W        W46092  17.841  19.996  11.701
73668W        W46093  21.679  35.605   3.174
73669W        W46094  22.753  35.364   4.043
73670W        W46095  10.086  27.822   9.733
73671W        W46096   3.326   0.932  10.402
73672W        W46097  37.360  20.779   1.246
73673W        W46098  28.115  38.324  13.584
73674W        W46099  38.708  10.108  13.950
73675W        W46100  25.718  18.097  14.174
73676W        W46101  43.311  36.441  11.353
73677W        W46102  36.519   4.434   3.101
73678W        W46103  17.074  14.132   4.050
73679W        W46104   7.820   2.329  12.999
73680W        W46105  19.305  25.932  14.480
73681W        W46106   9.357   7.287  13.471
73682W        W46107  36.097  37.997  14.956
73683W        W46108  19.493  25.001   1.688
73684W        W46109  35.105  23.207  12.789
73685W        W46110  43.343  32.681  12.457
73686W        W46111  40.398  29.934  11.526
73687W        W46112  11.160  29.270  11.758
73688W        W46113  30.691  41.849   0.093
73689W        W46114  28.278  13.103   3.985
73690W        W46115  13.710   4.788   3.169
73691W        W46116   2.918   0.264  12.007
73692W        W46117   7.639   2.400  11.733
73693W        W46118  12.399   7.240  14.855
73694W        W46119  42.775   0.513  14.301
73695W        W46120   3.466  24.135   5.140
73696W        W46121  26.089  33.644  12.988
73697W        W46122  32.672  41.693   4.529
73698W        W46123  17.758  23.648   4.087
73699W        W46124  32.861  29.624  14.822
73700W        W46125  19.862  40.850  11.379
73701W        W46126  23.969  10.326  13.489
73702W        W46127  23.474  42.271  11.154
73703W        W46128  21.472  40.459   0.555
73704W        W46129  33.985  42.960   1.304
73705W        W46130  34.664  22.128  14.379
73706W        W46131   4.278  11.686   4.714
73707W        W46132  40.539  34.868  11.079
73708W        W46133  21.798  24.586   1.882
73709W        W46134  30.509  27.110   3.395
73710W        W46135  15.216  15.568   1.845
73711W        W46136   7.409   0.530   1.780
73712W        W46137   2.340  21.012   3.352
73713W        W46138  44.338  29.858  10.648
73714W        W46139   6.162   3.698  11.526
73715W        W46140  39.923  38.886   1.309
73716W        W46141  17.518  30.673  13.777
73717W        W46142  38.410  43.213   3.169
73718W        W46143  43.453  42.042  13.048
73719W        W46144  29.496  11.566  11.255
73720W        W46145  21.992  33.570  10.873
73721W        W46146  24.235  44.233  12.386
73722W        W46147  44.510  18.723   2.761
73723W        W46148  30.594  18.208  14.811
73724W        W46149  34.942  31.564   0.820
73725W        W46150  16.327  10.866   2.222
73726W        W46151  30.944  12.148  14.464
73727W        W46152   9.564  29.969   2.766
73728W        W46153  44.303  19.445   4.670
73729W        W46154  28.085  24.442  10.509
73730W        W46155  14.324   1.312  11.616
73731W        W46156  11.154  22.390   0.814
73732W        W46157  11.071  26.557  11.841
73733W        W46158  23.726  17.119  10.912
73734W        W46159  14.137   3.186  14.484
73735W        W46160  16.827  40.092  12.091
73736W        W46161   6.228  30.534  11.213
73737W        W46162  33.693  44.825  14.903
73738W        W46163   8.645  39.381   1.245
73739W        W46164   6.741  33.646   1.240
73740W        W46165  36.878  44.722   1.469
73741W        W46166  18.588  20.143  14.530
73742W        W46167  43.262  42.608   3.273
73743W        W46168  44.388  38.483   2.007
73744W        W46169  41.932   2.357  12.987
73745W        W46170  20.626   7.664   1.049
73746W        W46171  44.926  26.638   1.527
73747W        W46172  34.031  29.896  13.074
73748W        W46173  23.492  37.484  12.788
73749W        W46174  30.216  17.268  12.578
73750W        W46175   7.741  41.328   4.708
73751W        W46176  30.937  30.019  11.720
73752W        W46177  10.760  24.651  11.222
73753W        W46178  36.482  32.157   4.082
73754W        W46179  33.862  17.279   3.221
73755W        W46180  27.797  34.664  13.378
73756W        W46181  38.306   5.250  12.408
73757W        W46182  27.745  18.787  14.402
73758W        W46183  32.078  10.217  13.347
73759W        W46184   0.475  21.350   3.949
73760W        W46185  18.115  16.430   0.772
73761W        W46186  26.929  21.124  13.952
73762W        W46187  25.030  29.132  11.986
73763W        W46188  42.034  26.109   3.195
73764W        W46189  30.344  43.848  11.096
73765W        W46190  41.279  17.512   3.408
73766W        W46191   7.922  32.137   0.931
73767W        W46192  37.497   0.901  11.884
73768W        W46193  24.538   7.816  11.498
73769W        W46194  19.136  36.554  12.031
73770W        W46195  41.409  22.240   3.311
73771W        W46196  31.384  40.882   9.803
73772W        W46197  27.530  27.157   3.304
73773W        W46198  38.455   3.445   3.969
73774W        W46199   5.759  12.728  12.344
73775W        W46200  25.622  28.165   1.332
73776W        W46201  37.400   9.186   9.756
73777W        W46202  17.103   7.953   0.777
73778W        W46203  12.852  36.117   0.469
73779W        W46204  11.382  18.668   1.462
73780W        W46205  19.208  18.902   0.781
73781W        W46206  22.616   1.719   0.877
73782W        W46207  31.633  25.578  14.966
73783W        W46208  12.170  23.273  10.705
73784W        W46209  16.463  39.022   4.188
73785W        W46210  17.032  30.541  10.665
73786W        W46211  12.829  24.576   9.822
73787W        W46212  33.922   0.934  14.678
73788W        W46213  12.599  14.791   1.205
73789W        W46214  38.795  24.272   0.796
73790W        W46215  36.809  35.928   0.693
73791W        W46216   2.046   8.232  11.571
73792W        W46217  23.163   7.680  10.732
73793W        W46218  44.266  13.130  14.893
73794W        W46219  28.763  19.724  11.205
73795W        W46220  27.524  23.209   5.870
73796W        W46221  23.038  20.834   2.828
73797W        W46222  34.839  33.484  10.072
73798W        W46223  34.328  27.120   1.916
73799W        W46224  30.983  31.339  10.622
73800W        W46225  32.759  32.695   2.702
73801W        W46226   5.369   2.913  11.029
73802W        W46227  40.079   7.353   1.146
73803W        W46228  25.504  25.946   2.397
73804W        W46229  32.563   3.770  13.353
73805W        W46230  26.412  11.411  13.982
73806W        W46231   7.587  24.500  11.122
73807W        W46232  11.948  13.284  10.673
73808W        W46233  10.385  35.930  11.077
73809W        W46234  15.824  35.004   5.173
73810W        W46235  38.475   9.719   3.131
73811W        W46236   6.883  37.017  11.237
73812W        W46237  20.948  25.877  11.536
73813W        W46238   8.898  18.890  14.004
73814W        W46239  27.580  43.435  13.908
73815W        W46240  38.976  42.931   3.737
73816W        W46241  11.320  43.506   0.012
73817W        W46242  40.931  18.521   0.822
73818W        W46243  14.644   7.830   3.813
73819W        W46244  28.081  19.988   1.818
73820W        W46245  13.526  23.391  10.716
73821W        W46246   0.020  38.349  13.484
73822W        W46247  31.610   0.698   4.787
73823W        W46248   6.169  19.482  12.584
73824W        W46249  25.960  33.135   3.704
73825W        W46250  22.441  24.185   0.284
73826W        W46251  41.373  39.385   1.668
73827W        W46252  33.819  35.804  14.539
73828W        W46253  35.446  18.220  11.833
73829W        W46254  41.769  16.654   1.765
73830W        W46255  37.078   9.439   0.876
73831W        W46256  36.781  12.755  13.936
73832W        W46257  10.757  16.694  11.543
73833W        W46258  35.632  17.155  12.952
73834W        W46259  18.124  19.609  12.852
73835W        W46260  40.376  36.784  13.905
73836W        W46261   6.865  30.085  11.112
73837W        W46262  20.257  37.644   0.413
73838W        W46263   2.497   0.275  12.938
73839W        W46264   5.389   1.399   2.406
73840W        W46265   7.766  34.960   5.069
73841W        W46266  30.174  37.432  12.482
73842W        W46267   1.306   1.841  11.601
73843W        W46268  31.753   3.326  12.097
73844W        W46269  33.209   7.069  12.761
73845W        W46270  21.004  14.082   3.579
73846W        W46271  32.537  40.432  14.064
73847W        W46272  15.350   4.016  11.349
73848W        W46273  13.624  19.808  12.596
73849W        W46274  27.023  38.820  14.144
73850W        W46275   3.364   9.015  10.741
73851W        W46276  30.496   7.750  11.176
73852W        W46277  41.573   9.712  14.332
73853W        W46278  41.736  44.414  11.625
73854W        W46279  22.770  15.147  10.780
73855W        W46280  13.166   8.757  13.479
73856W        W46281  14.791   1.192  11.473
73857W        W46282  29.042  30.709   3.215
73858W        W46283  32.468  33.955  14.992
73859W        W46284  39.402  33.507  10.166
73860W        W46285  35.180   6.901   1.823
73861W        W46286  35.115  37.453  11.065
73862W        W46287  28.666   2.969  14.508
73863W        W46288  42.517  25.080   1.504
73864W        W46289  41.403  21.268   3.948
73865W        W46290  31.682  13.653   1.126
73866W        W46291  28.263  37.914  14.325
73867W        W46292  20.975  34.979   2.239
73868W        W46293  10.377   8.156   3.630
73869W        W46294  27.553  26.818   0.691
73870W        W46295  11.198  16.325  13.588
73871W        W46296  41.982  26.041  14.659
73872W        W46297  35.062  15.475   1.299
73873W        W46298  42.016   5.286  11.001
73874W        W46299  24.256  15.980   4.052
73875W        W46300  26.611   5.682  11.465
73876W        W46301  13.363  16.033   2.680
73877W        W46302   1.943   1.951  14.367
73878W        W46303   0.482  14.173   1.160
73879W        W46304  14.749  22.997  14.208
73880W        W46305   0.111  10.451  11.150
73881W        W46306  27.670  44.107  14.332
73882W        W46307  35.656  15.523  14.882
73883W        W46308   8.904  18.150  14.739
73884W        W46309  38.075  41.339   2.140
73885W        W46310  33.495   3.209  10.237
73886W        W46311   8.733  40.573   1.328
73887W        W46312  12.370  21.577   3.238
73888W        W46313  28.040  43.220   1.949
73889W        W46314   7.866  43.670   3.410
73890W        W46315  14.262   3.280   0.862
73891W        W46316  10.591  14.124  11.135
73892W        W46317   6.231   3.655  13.397
73893W        W46318  23.234  43.521   4.417
73894W        W46319  29.638   7.403  10.728
73895W        W46320  24.889  39.755  12.845
73896W        W46321  29.906  29.116  13.992
73897W        W46322  14.855  28.760  11.597
73898W        W46323  13.765  25.686  11.390
73899W        W46324  41.360  33.155  10.646
73900W        W46325  10.708   1.806  11.407
73901W        W46326  38.037  10.203   0.544
73902W        W46327  11.262   3.422   4.253
73903W        W46328  41.653  13.790   2.907
73904W        W46329  16.342  19.068   3.163
73905W        W46330  17.676  39.292  14.566
73906W        W46331   2.092  26.765   3.234
73907W        W46332  20.050  44.765  13.513
73908W        W46333  39.974  39.034  11.634
73909W        W46334  13.097  14.216   1.847
73910W        W46335   8.018  30.234  12.235
73911W        W46336  12.128  34.357  12.030
73912W        W46337  23.974  24.944  11.171
73913W        W46338   2.653  11.944   0.238
73914W        W46339  29.231   3.444  11.137
73915W        W46340   8.859  24.444   2.065
73916W        W46341  43.334  29.151  13.797
73917W        W46342  12.687  31.220  10.931
73918W        W46343   4.383  14.751   4.360
73919W        W46344  11.293  41.982   1.372
73920W        W46345  18.227  18.288  14.544
73921W        W46346  40.515   5.285  14.241
73922W        W46347   4.236   1.940  13.920
73923W        W46348  37.448  32.649  14.869
73924W        W46349  20.455  28.655  11.531
73925W        W46350  43.572   3.878   3.958
73926W        W46351  38.059   9.325  14.265
73927W        W46352  29.884  38.132  11.061
73928W        W46353   0.022  39.365   4.463
73929W        W46354  32.902  16.807  11.584
73930W        W46355  43.843  39.590  13.498
73931W        W46356  32.568   9.663  14.328
73932W        W46357  30.041  18.333  14.960
73933W        W46358  32.408  18.315  12.722
73934W        W46359  19.657   3.352  10.376
73935W        W46360  36.908  24.233  10.778
73936W        W46361  28.229   5.912  14.048
73937W        W46362  22.235  36.680  10.449
73938W        W46363  18.750   0.403  11.663
73939W        W46364  44.784   5.487   3.597
73940W        W46365  26.683  31.157   2.733
73941W        W46366  17.040   9.969  11.379
73942W        W46367  12.576  28.946  11.055
73943W        W46368  10.171  37.026   4.708
73944W        W46369   9.277   5.533  12.059
73945W        W46370  31.179  39.541   4.060
73946W        W46371   3.944  11.665  14.414
73947W        W46372  38.160   5.397   0.437
73948W        W46373   0.814  21.691  14.334
73949W        W46374  20.526  14.642  11.036
73950W        W46375  11.759  10.173   5.009
73951W        W46376  43.263  23.047   3.856
73952W        W46377  41.310  24.182  11.958
73953W        W46378  23.500  17.237  11.349
73954W        W46379  14.813   1.413   2.571
73955W        W46380  25.967   8.492  14.514
73956W        W46381  44.019  28.455  12.385
73957W        W46382  42.716  30.897   3.697
73958W        W46383  20.142   5.447  10.972
73959W        W46384  31.959  29.997   3.858
73960W        W46385   7.774   1.011   1.636
73961W        W46386  20.538  20.666   0.869
73962W        W46387  14.796   3.879   1.783
73963W        W46388  35.849  20.656   1.368
73964W        W46389  34.813  20.789   0.474
73965W        W46390  17.320   0.929  13.835
73966W        W46391   3.755  26.002   1.274
73967W        W46392  42.411  16.648  13.417
73968W        W46393  36.294   7.111   5.089
73969W        W46394  29.438  11.086  14.560
73970W        W46395  37.638   8.809  10.634
73971W        W46396  21.536  44.890  13.515
73972W        W46397  25.308  10.120  10.917
73973W        W46398   1.223  17.390   3.147
73974W        W46399   7.670  34.626   1.230
73975W        W46400   7.716   6.841  14.625
73976W        W46401  34.546  40.808  13.875
73977W        W46402  44.233  17.682  11.959
73978W        W46403  17.529   3.696   2.093
73979W        W46404  31.121   7.197   2.248
73980W        W46405   5.089  38.342   2.685
73981W        W46406   1.768  38.481  14.752
73982W        W46407  19.477  12.433   4.737
73983W        W46408  29.528  30.885   2.750
73984W        W46409  16.642  32.981   0.986
73985W        W46410  42.300  26.549   1.681
73986W        W46411  27.290   7.452   3.163
73987W        W46412  15.984  28.991   0.354
73988W        W46413  23.123  22.199  11.894
73989W        W46414  20.076  37.402  14.903
73990W        W46415  41.576  44.481  14.823
73991W        W46416   7.712   7.509   1.956
73992W        W46417  41.640   5.454   3.340
73993W        W46418  40.846  42.847   4.477
73994W        W46419  28.722  31.812   2.805
73995W        W46420  18.667  17.654  13.400
73996W        W46421  15.732  20.623   0.405
73997W        W46422  25.540  16.429   3.515
73998W        W46423   1.242  26.650   1.209
73999W        W46424  28.335  14.643   2.447
74000W        W46425   5.992   6.265   2.255
74001W        W46426  14.163  11.884  11.384
74002W        W46427  11.160   5.725   1.688
74003W        W46428  37.064  12.682   1.696
74004W        W46429  36.108   2.851   2.236
74005W        W46430  33.628  13.702  13.037
74006W        W46431  35.950  33.340   2.803
74007W        W46432  35.891  36.135  14.334
74008W        W46433  41.010  24.467   1.902
74009W        W46434  20.753  15.508  10.704
74010W        W46435   6.282  14.766   4.503
74011W        W46436  35.050   3.291  13.932
74012W        W46437  26.489  26.236  13.545
74013W        W46438   1.427  39.336   0.367
74014W        W46439  29.702   2.795   0.458
74015W        W46440  25.639  16.329  10.889
74016W        W46441   7.395   0.662  14.001
74017W        W46442  37.420   7.727  12.836
74018W        W46443  24.734   5.240  13.668
74019W        W46444  12.616  38.779   2.800
74020W        W46445  34.807  34.245   2.854
74021W        W46446  27.918  22.275   0.265
74022W        W46447  44.963  34.996   2.808
74023W        W46448   2.364  23.018   0.393
74024W        W46449  14.211  17.392  11.381
74025W        W46450  15.036  10.158  14.513
74026W        W46451  20.174  37.583  10.686
74027W        W46452  14.106  43.279   0.488
74028W        W46453   2.285  22.973   2.749
74029W        W46454  30.492  24.238   0.242
74030W        W46455  37.017   1.500   2.905
74031W        W46456  38.406  14.593   4.913
74032W        W46457  14.972  37.818  11.119
74033W        W46458  19.930  36.919   4.110
74034W        W46459  39.003  31.720   0.598
74035W        W46460  32.996  23.997   3.635
74036W        W46461  20.786  26.690  11.603
74037W        W46462  24.208  24.018   0.750
74038W        W46463  29.545  27.935   3.333
74039W        W46464  36.101  22.037   1.441
74040W        W46465  13.710  37.040   3.188
74041W        W46466   5.895  33.430  14.858
74042W        W46467  27.873  26.097  10.075
74043W        W46468   8.293   2.834  14.201
74044W        W46469  22.337  43.929  12.034
74045W        W46470  23.567   4.665   0.781
74046W        W46471   3.659  44.469  14.604
74047W        W46472  40.786  38.379   1.595
74048W        W46473   0.949  41.063  11.557
74049W        W46474   2.633   6.280   2.871
74050W        W46475  35.116  27.918  12.999
74051W        W46476  44.419  39.655   0.952
74052W        W46477  39.693  23.820  12.159
74053W        W46478   7.912  37.469  11.071
74054W        W46479  42.083  14.054   3.133
74055W        W46480  14.774  17.063   1.351
74056W        W46481  20.749   4.175   3.907
74057W        W46482  12.218  42.844  13.912
74058W        W46483  29.439  25.540  11.512
74059W        W46484  13.868  30.892  14.399
74060W        W46485  10.060  18.314  10.079
74061W        W46486  27.159  41.016  12.321
74062W        W46487  29.682   7.293  14.038
74063W        W46488  31.556  22.235  11.624
74064W        W46489  32.626  18.770   0.441
74065W        W46490  32.423   2.027   2.389
74066W        W46491  18.659  26.250   1.323
74067W        W46492   6.017  26.152  13.352
74068W        W46493  19.055   1.189  10.648
74069W        W46494  21.472  29.638   2.219
74070W        W46495   5.005  23.993   4.141
74071W        W46496  37.006  26.708  11.172
74072W        W46497   3.025  41.230  12.104
74073W        W46498  35.406   0.981  11.270
74074W        W46499  16.709   1.990  10.772
74075W        W46500  24.904   0.446  13.647
74076W        W46501   5.348  29.946   4.647
74077W        W46502  28.527  24.348  10.910
74078W        W46503  24.682  16.951   4.905
74079W        W46504  21.802  36.161  11.495
74080W        W46505  31.857  18.250   4.280
74081W        W46506   0.306  36.445   0.671
74082W        W46507   9.218  31.437  11.880
74083W        W46508   0.631  38.623   4.447
74084W        W46509  27.734   3.871  11.506
74085W        W46510  35.310  10.360   3.459
74086W        W46511   9.571  27.018   0.120
74087W        W46512  34.937  40.057   2.203
74088W        W46513  32.554  27.609  12.897
74089W        W46514   0.952   7.689   2.997
74090W        W46515  32.586  29.465   0.283
74091W        W46516  20.577   1.940  10.641
74092W        W46517  36.117   5.254   2.909
74093W        W46518  19.588  12.832  14.400
74094W        W46519   5.426   9.727   4.546
74095W        W46520  34.660  22.783   3.682
74096W        W46521  32.962   0.085  13.080
74097W        W46522   6.387  36.646  12.545
74098W        W46523  34.081  10.143  12.405
74099W        W46524  26.216  30.559  10.265
74100W        W46525  36.012  38.501   0.716
74101W        W46526  18.851   8.857   0.173
74102W        W46527   6.679  18.758   3.166
74103W        W46528   5.186  29.698   3.970
74104W        W46529  41.384  11.674   2.404
74105W        W46530  42.120  18.559  12.134
74106W        W46531   1.365  37.523   4.561
74107W        W46532  39.995  35.474  11.425
74108W        W46533  10.154   5.406  11.251
74109W        W46534  28.026  41.466   4.967
74110W        W46535  37.408  41.717   0.848
74111W        W46536  37.393  23.158  13.067
74112W        W46537  13.037  28.701  11.181
74113W        W46538  11.603  36.894   4.281
74114W        W46539  30.393  14.341   4.098
74115W        W46540  40.397  11.675   0.464
74116W        W46541  31.599  21.502   2.648
74117W        W46542   7.188  12.681   3.578
74118W        W46543  24.483   0.970  14.378
74119W        W46544  40.831  23.998  13.295
74120W        W46545  10.855   6.328  12.990
74121W        W46546  44.000  33.926   2.556
74122W        W46547  40.337  14.406  13.062
74123W        W46548  34.917  22.120  13.881
74124W        W46549  33.911  28.512  14.469
74125W        W46550  26.035  12.683   1.100
74126W        W46551  38.334  26.758   1.549
74127W        W46552  12.596   9.177  11.552
74128W        W46553  29.457  15.700  10.763
74129W        W46554  10.452  42.729   0.878
74130W        W46555  12.873  17.570  13.434
74131W        W46556  27.949  24.116  10.950
74132W        W46557   9.361  28.459  12.807
74133W        W46558  26.167  40.341  11.534
74134W        W46559  41.545  23.680  12.005
74135W        W46560   9.650  24.504  12.402
74136W        W46561   0.176  38.911   1.085
74137W        W46562  10.030  23.059  14.882
74138W        W46563  15.839  11.664  11.473
74139W        W46564  29.543   6.330  11.615
74140W        W46565  27.440  11.194   3.260
74141W        W46566  34.494  21.136   2.726
74142W        W46567  20.750  12.458  11.500
74143W        W46568   0.222  39.637  13.461
74144W        W46569  20.863   8.552  11.219
74145W        W46570  15.165  11.499   4.017
74146W        W46571  23.398  40.294   3.269
74147W        W46572  40.440   6.900   3.168
74148W        W46573   6.223  28.246   0.692
74149W        W46574  17.175  30.304   3.205
74150W        W46575  18.336  34.602  12.243
74151W        W46576   0.932  15.858   4.111
74152W        W46577  42.976  20.896  11.004
74153W        W46578  10.150  38.401   2.247
74154W        W46579  29.723  18.205  13.938
74155W        W46580  29.591  20.052  10.670
74156W        W46581  24.108  18.153  10.713
74157W        W46582  42.561  42.589   4.203
74158W        W46583   7.003  37.913  11.397
74159W        W46584  20.339  27.599  11.426
74160W        W46585  33.924  43.951  12.803
74161W        W46586  40.908  43.783   3.202
74162W        W46587  29.381  11.879  13.039
74163W        W46588  29.580   3.561   5.121
74164W        W46589   7.265  24.633   4.525
74165W        W46590   4.911  29.376   5.041
74166W        W46591  23.426  33.049   1.847
74167W        W46592  35.287  41.926   2.447
74168W        W46593  15.208  29.475   3.299
74169W        W46594  43.353  23.225   0.482
74170W        W46595  39.804  22.178   3.157
74171W        W46596  35.104   7.851  11.711
74172W        W46597  23.512  23.000  12.028
74173W        W46598  41.427   8.362  14.469
74174W        W46599  17.442   4.738  11.069
74175W        W46600  32.282  14.733  14.649
74176W        W46601   7.207  40.932  11.113
74177W        W46602  27.630  19.696   1.848
74178W        W46603  22.935  39.234  12.503
74179W        W46604   1.254  17.728  13.881
74180W        W46605  17.086  33.684   2.888
74181W        W46606  12.901   5.374  13.878
74182W        W46607  37.744   0.887  13.321
74183W        W46608   1.362  14.583  12.353
74184W        W46609  11.235  26.480   1.517
74185W        W46610  36.170  32.138  13.909
74186W        W46611  23.088  10.755   0.533
74187W        W46612   2.496  21.084  14.263
74188W        W46613  14.820  28.660  12.481
74189W        W46614  33.970  30.286  14.734
74190W        W46615  27.435  27.059  13.384
74191W        W46616   4.553  32.832  13.356
74192W        W46617   9.267  25.997  14.142
74193W        W46618  11.604  22.243   3.238
74194W        W46619  26.738   7.037   2.190
74195W        W46620   9.649  19.549  12.989
74196W        W46621  24.094  34.560   3.622
74197W        W46622   8.604   5.955   0.904
74198W        W46623  18.638  34.715   3.802
74199W        W46624  16.113  33.833   2.335
74200W        W46625  33.531   0.814   0.047
74201W        W46626   8.235  14.836   0.303
74202W        W46627  38.255  37.504  10.660
74203W        W46628   3.252   3.295   0.230
74204W        W46629  43.917   9.807   0.267
74205W        W46630  12.415  33.424  11.090
74206W        W46631  21.788  17.321   1.762
74207W        W46632  31.065  33.019   3.243
74208W        W46633  14.369  29.027  13.718
74209W        W46634   8.403  14.197   4.058
74210W        W46635  19.669  37.266   4.638
74211W        W46636  39.890  41.026   4.549
74212W        W46637  27.181   9.313   4.866
74213W        W46638  17.924  23.596   0.360
74214W        W46639  40.497  32.054  11.185
74215W        W46640  15.675  26.694  10.637
74216W        W46641  22.416  13.695  13.944
74217W        W46642  40.030  22.060  10.716
74218W        W46643  22.282  16.094   2.488
74219W        W46644   7.353  26.213  11.072
74220W        W46645  24.369   2.328   4.118
74221W        W46646  44.481  13.226  11.626
74222W        W46647  36.137  11.869  14.059
74223W        W46648  12.413  29.182  12.506
74224W        W46649  40.867  18.786   1.287
74225W        W46650  11.140  40.521   4.419
74226W        W46651  13.642  26.034   4.351
74227W        W46652  28.741   6.187   3.707
74228W        W46653   1.020  35.120  10.786
74229W        W46654   5.374   4.540   0.032
74230W        W46655   8.922  29.420  14.792
74231W        W46656  20.722   9.503  10.073
74232W        W46657  19.634  33.119   2.777
74233W        W46658  19.095  37.524   1.756
74234W        W46659  37.799  18.578  14.444
74235W        W46660  22.217  10.634   1.885
74236W        W46661   7.264  16.208   4.184
74237W        W46662   5.983   7.550   1.994
74238W        W46663   9.338  26.828   3.359
74239W        W46664  36.825  39.417  11.228
74240W        W46665   8.227  32.324  12.015
74241W        W46666  44.402  22.721  12.084
74242W        W46667  33.392   3.458   3.744
74243W        W46668   8.151   6.660   3.682
74244W        W46669  28.039   6.692  12.988
74245W        W46670   1.357  20.046  13.644
74246W        W46671  10.405  23.005  14.031
74247W        W46672  38.962  40.333  12.104
74248W        W46673  43.345  41.853  10.891
74249W        W46674   5.982  34.868   1.960
74250W        W46675  12.400  20.738  12.447
74251W        W46676   2.974  18.775   1.692
74252W        W46677  17.766  29.470   1.161
74253W        W46678  13.039  31.772   0.828
74254W        W46679  29.075  24.452   3.880
74255W        W46680  18.627  38.271  14.506
74256W        W46681   8.143   5.180   2.302
74257W        W46682  41.731  33.003   0.629
74258W        W46683  40.475  26.729   0.809
74259W        W46684   5.147  32.841  14.426
74260W        W46685  13.402  32.966   0.678
74261W        W46686  28.441  34.281  11.556
74262W        W46687  23.311  35.955   2.287
74263W        W46688  21.185  39.409   3.536
74264W        W46689  21.339  44.907  11.093
74265W        W46690  44.053  26.168  10.571
74266W        W46691  36.863  11.360   1.933
74267W        W46692  32.959   6.872  13.191
74268W        W46693  33.089  39.036   2.164
74269W        W46694  32.510   0.781  12.630
74270W        W46695   4.780  11.377   4.551
74271W        W46696  20.566  16.019   3.243
74272W        W46697   4.967  34.806   1.347
74273W        W46698   3.725  24.250   2.370
74274W        W46699  36.203  15.788  10.518
74275W        W46700  41.007  14.680  13.581
74276W        W46701  13.406  37.473  10.688
74277W        W46702   6.047   5.190   4.678
74278W        W46703  41.501  38.010  10.947
74279W        W46704  29.429  26.988   1.627
74280W        W46705   2.029  43.062  10.956
74281W        W46706  36.063   9.689   2.198
74282W        W46707  25.859  38.754   0.792
74283W        W46708   2.050  20.601   2.117
74284W        W46709   0.946  14.719   2.645
74285W        W46710   3.070  15.754  13.322
74286W        W46711  43.919   0.586  13.772
74287W        W46712  34.145  11.927   0.336
74288W        W46713  40.731  34.873   0.416
74289W        W46714  21.573  11.115   3.018
74290W        W46715   3.384  39.843  12.657
74291W        W46716  15.444  20.767   1.843
74292W        W46717  16.252  24.638  14.536
74293W        W46718  41.412  20.658  11.987
74294W        W46719  12.789  43.372   4.499
74295W        W46720   1.707  29.933  14.324
74296W        W46721   1.315  29.263  11.621
74297W        W46722   5.625  38.552  13.136
74298W        W46723  32.620   9.910   0.890
74299W        W46724   6.384  27.867   2.117
74300W        W46725  43.713  41.843  13.734
74301W        W46726  35.408  34.988  12.353
74302W        W46727  14.536  12.658  10.683
74303W        W46728  18.706   6.110   2.245
74304W        W46729  36.530  30.627  12.490
74305W        W46730   3.742   7.301  13.397
74306W        W46731  35.524  40.802  12.889
74307W        W46732   6.802  12.396   2.778
74308W        W46733  15.050  22.943  11.112
74309W        W46734  25.958   3.749   2.363
74310W        W46735  42.609  22.067   5.187
74311W        W46736   4.290  33.960   0.788
74312W        W46737  12.385  30.549   2.827
74313W        W46738  36.288  12.768  14.065
74314W        W46739  21.699  33.360  13.955
74315W        W46740  23.283  36.650  14.895
74316W        W46741  16.818  40.072  13.742
74317W        W46742   1.647  15.134   1.573
74318W        W46743  21.346  29.789   0.760
74319W        W46744  29.429   5.547   2.357
74320W        W46745  33.879  27.912   3.624
74321W        W46746   6.739  30.970   2.522
74322W        W46747  26.253   4.465   4.724
74323W        W46748  30.033  24.186   0.001
74324W        W46749  30.735  15.822   1.467
74325W        W46750   4.351  38.960   9.962
74326W        W46751  34.517  39.958   1.466
74327W        W46752  22.210  19.508  12.578
74328W        W46753  24.761   0.502  14.275
74329W        W46754  18.617  37.515  13.091
74330W        W46755  39.546  32.864  14.057
74331W        W46756  33.638  22.265  14.421
74332W        W46757  43.796  30.702  12.937
74333W        W46758  28.493  40.576   1.608
74334W        W46759  43.739  16.653  13.014
74335W        W46760  36.454  30.188  12.197
74336W        W46761  27.896  11.867   5.018
74337W        W46762  13.370   7.715   4.220
74338W        W46763   5.907   6.767   4.314
74339W        W46764   3.090  39.075  14.521
74340W        W46765   6.174   4.954  10.173
74341W        W46766  32.978  20.773   3.643
74342W        W46767  10.776  29.056  13.564
74343W        W46768  23.692  25.404   2.770
74344W        W46769  35.494  24.978   4.926
74345W        W46770   3.777  21.559   3.592
74346W        W46771   0.693   5.491   0.529
74347W        W46772  20.313  27.964   1.625
74348W        W46773  19.813  28.201   4.575
74349W        W46774   4.072  20.286   0.854
74350W        W46775  37.024   8.584   1.049
74351W        W46776  33.484   0.753  12.455
74352W        W46777  29.532  24.582  14.251
74353W        W46778  38.991  30.812   3.846
74354W        W46779  41.922  34.969   4.650
74355W        W46780  20.224   2.363  13.812
74356W        W46781  19.132  31.510   3.125
74357W        W46782  29.326  19.168  10.592
74358W        W46783  41.064  35.809  13.033
74359W        W46784  10.238  35.927  12.581
74360W        W46785  11.630  31.553  14.359
74361W        W46786  37.408  43.274   4.922
74362W        W46787   0.771   7.290   3.879
74363W        W46788  28.181  26.966  10.557
74364W        W46789  24.654   8.150  13.009
74365W        W46790  10.685  23.534  12.288
74366W        W46791   1.247  31.298  14.973
74367W        W46792  25.752  43.815  11.052
74368W        W46793  42.975   7.777   0.422
74369W        W46794  28.312  34.569   2.428
74370W        W46795  12.784   3.141  12.979
74371W        W46796  41.895  32.573   0.872
74372W        W46797  34.022  36.882  14.031
74373W        W46798   1.459  35.033   3.209
74374W        W46799  23.913  34.933   2.565
74375W        W46800  43.787   3.350  11.538
74376W        W46801  21.722  34.970   3.686
74377W        W46802   7.392  39.410  12.519
74378W        W46803   2.204   7.954   0.446
74379W        W46804   0.519   6.500  14.071
74380W        W46805  20.570  31.177  10.654
74381W        W46806  37.377  26.103  10.493
74382W        W46807  40.508  42.347   1.695
74383W        W46808  19.310  23.607  14.217
74384W        W46809   1.744  33.180   3.748
74385W        W46810  40.534  20.323   0.786
74386W        W46811   3.440  11.760  14.542
74387W        W46812  42.508  35.754   4.624
74388W        W46813  29.081  15.222   1.530
74389W        W46814  24.124  37.151   1.212
74390W        W46815   3.648  38.262   0.860
74391W        W46816  22.516  33.016  12.370
74392W        W46817   1.378  22.927   0.423
74393W        W46818  42.574  21.235  11.126
74394W        W46819  30.574   4.658   1.681
74395W        W46820  43.899   1.626   0.271
74396W        W46821  18.938  36.149  13.002
74397W        W46822  33.327  29.592   3.046
74398W        W46823  38.328  17.130   4.152
74399W        W46824  37.576  37.006   2.483
74400W        W46825  33.743  30.668  11.353
74401W        W46826  37.490   4.693  12.895
74402W        W46827  37.343  27.631  14.558
74403W        W46828   3.409  43.004   4.728
74404W        W46829  40.802  32.389   2.664
74405W        W46830  30.089  26.161   4.169
74406W        W46831   5.815   5.970   1.691
74407W        W46832   2.350  10.287  11.530
74408W        W46833  33.495  42.419  14.888
74409W        W46834  20.835  33.002   3.597
74410W        W46835  42.801  27.305  13.150
74411W        W46836  23.858  16.863  10.123
74412W        W46837  23.783  26.557  12.561
74413W        W46838  27.216  28.186   4.613
74414W        W46839   4.428  23.148   0.455
74415W        W46840   2.721   3.930   3.641
74416W        W46841   3.848  39.209  13.393
74417W        W46842  32.999  21.342  11.902
74418W        W46843  40.420  22.871  10.250
74419W        W46844   2.796  42.841  11.617
74420W        W46845  43.742   8.593  11.140
74421W        W46846  23.913  38.009   2.059
74422W        W46847  22.737  25.636  13.370
74423W        W46848  10.768  39.635  12.893
74424W        W46849  29.878  17.567  13.281
74425W        W46850   6.358  21.833  14.738
74426W        W46851  35.341   4.767  13.104
74427W        W46852  13.986  22.423   5.527
74428W        W46853  35.055  40.733   2.842
74429W        W46854  44.964  40.572  10.552
74430W        W46855  12.631   6.914   0.889
74431W        W46856   1.881  18.811  12.020
74432W        W46857  15.649  21.334   3.586
74433W        W46858  22.031  23.359   2.254
74434W        W46859   8.218  22.033   1.452
74435W        W46860  34.613  12.177   3.226
74436W        W46861  21.248  38.623   4.383
74437W        W46862  34.958  26.353  10.671
74438W        W46863  37.378  11.678   4.648
74439W        W46864  37.578   6.172   0.767
74440W        W46865  25.506  15.156   2.239
74441W        W46866  10.819  29.645  14.468
74442W        W46867   3.309   2.365   3.211
74443W        W46868   6.366  19.524  12.107
74444W        W46869  32.182   6.215   0.707
74445W        W46870  33.570  32.968  13.885
74446W        W46871  27.495   5.468   1.981
74447W        W46872  37.919   7.777  14.017
74448W        W46873  22.950   9.771   2.848
74449W        W46874   1.637   8.168   4.255
74450W        W46875  14.053  32.828  11.128
74451W        W46876   2.848  28.931  11.987
74452W        W46877  44.800   4.907  12.380
74453W        W46878  42.048  23.753  13.741
74454W        W46879  13.641  24.206  12.872
74455W        W46880  23.292  24.044  14.867
74456W        W46881  42.863  40.500  13.795
74457W        W46882  17.198  37.634   5.169
74458W        W46883  25.618  42.453   2.743
74459W        W46884  29.886  29.132  11.321
74460W        W46885  29.374  28.805   3.200
74461W        W46886  37.632  20.297   3.627
74462W        W46887  32.421   4.328   4.955
74463W        W46888  44.310   8.485  10.755
74464W        W46889  23.977  29.452  10.756
74465W        W46890  43.451  13.740   4.123
74466W        W46891  12.922   4.859  13.993
74467W        W46892  30.476   1.833  11.876
74468W        W46893  12.260  38.254   0.218
74469W        W46894  19.711  12.544   2.074
74470W        W46895  34.009  29.047  14.332
74471W        W46896  31.477  31.619  13.291
74472W        W46897   1.798  32.689  10.351
74473W        W46898  10.771  41.370  12.520
74474W        W46899  25.920   6.317   3.960
74475W        W46900  30.620  32.626   1.816
74476W        W46901   2.239  29.400  11.536
74477W        W46902  11.585  23.613  13.816
74478W        W46903  14.202  26.900  12.702
74479W        W46904  21.736  22.067  10.717
74480W        W46905  29.897  41.748   1.242
74481W        W46906  16.215  34.181  10.646
74482W        W46907  12.378  36.622  12.470
74483W        W46908   0.999  27.479   3.287
74484W        W46909  44.947  16.703  11.067
74485W        W46910  31.810  37.833  12.025
74486W        W46911  30.939  12.088  13.571
74487W        W46912  41.973   0.448   1.183
74488W        W46913  24.341  34.915  11.086
74489W        W46914   7.557  17.992   0.942
74490W        W46915  18.101  27.962   4.236
74491W        W46916  18.342  16.787   4.075
74492W        W46917  16.399   8.178   4.742
74493W        W46918   6.368   0.376  11.788
74494W        W46919  39.463  26.926  14.388
74495W        W46920  15.790   9.743  12.114
74496W        W46921  18.575  42.948   3.679
74497W        W46922  19.581  27.221   4.413
74498W        W46923  21.933  39.436   3.052
74499W        W46924  42.719   4.665   0.416
74500W        W46925  42.712  27.874  11.397
74501W        W46926  10.775  25.475   4.576
74502W        W46927   0.355   4.059   4.583
74503W        W46928   0.505  41.534  11.012
74504W        W46929  41.865  17.986   4.145
74505W        W46930  44.943   1.925  12.716
74506W        W46931  40.820  44.867   2.334
74507W        W46932  26.180   0.987   4.789
74508W        W46933   2.918  40.375  14.490
74509W        W46934   6.287  36.222   1.969
74510W        W46935  24.654  40.581  11.569
74511W        W46936  36.555  37.570  12.155
74512W        W46937  39.437  25.004   3.727
74513W        W46938  26.980   0.337  11.929
74514W        W46939  43.993  10.706   1.878
74515W        W46940  14.778  40.488  14.440
74516W        W46941   9.950  42.907  13.364
74517W        W46942  22.534  10.933  12.833
74518W        W46943   5.335  39.248   0.346
74519W        W46944  12.315  34.401  13.420
74520W        W46945  38.232  10.447   2.761
74521W        W46946   7.765  30.111   3.828
74522W        W46947  24.438  37.097  11.466
74523W        W46948  19.169  19.684   3.743
74524W        W46949  10.084   9.349   0.283
74525W        W46950  39.370  44.260  11.670
74526W        W46951   9.778   6.216  14.840
74527W        W46952  28.107  11.687   1.514
74528W        W46953  13.340  44.834  10.732
74529W        W46954  42.785  36.563   1.334
74530W        W46955  12.680  24.938  10.938
74531W        W46956  39.870  11.929   0.095
74532W        W46957  43.760  15.757   2.699
74533W        W46958  10.409  34.332  13.284
74534W        W46959  12.124  21.908   5.380
74535W        W46960  43.430  43.774  14.717
74536W        W46961  39.954  23.902  11.273
74537W        W46962  27.898  28.611   4.704
74538W        W46963  34.609  43.074  10.761
74539W        W46964  24.605   4.733   4.252
74540W        W46965  33.847   5.679  11.088
74541W        W46966  35.710  11.833  11.080
74542W        W46967   7.119  21.826  14.339
74543W        W46968  35.030  31.945   4.033
74544W        W46969  20.576  34.122   2.344
74545W        W46970  12.182  28.343  12.055
74546W        W46971  12.647   0.283  12.525
74547W        W46972  13.826  21.987  10.865
74548W        W46973  34.886  37.098   4.236
74549W        W46974  19.593  22.089  11.677
74550W        W46975  20.211  39.428   4.443
74551W        W46976  21.241  34.637  13.616
74552W        W46977  39.461  15.187   2.717
74553W        W46978   3.921  17.630   4.742
74554W        W46979  36.600  19.954   2.780
74555W        W46980   9.411  28.647   1.281
74556W        W46981  41.479  39.726  12.407
74557W        W46982  38.817  25.422   4.558
74558W        W46983  36.638  25.584  10.453
74559W        W46984  42.031  39.257   2.399
74560W        W46985  28.201  23.945   1.263
74561W        W46986  20.071  34.549  14.383
74562W        W46987  39.868  39.157  13.006
74563W        W46988  13.701   4.307   9.662
74564W        W46989  38.978  28.683   1.855
74565W        W46990  14.354  43.019   3.756
74566W        W46991   9.334   1.541  12.538
74567W        W46992  43.074   7.680  11.229
74568W        W46993  33.604   5.626  10.626
74569W        W46994  12.671  25.152   3.546
74570W        W46995   9.090  15.195   2.362
74571W        W46996  33.306  31.577  14.700
74572W        W46997  18.288  14.591   1.399
74573W        W46998  32.629  11.259   3.530
74574W        W46999  42.351  23.041   3.776
74575W        W47000  12.584  21.713   4.645
74576W        W47001  29.839  42.566   4.242
74577W        W47002  43.731  41.831   4.238
74578W        W47003  38.919  38.524  12.046
74579W        W47004  23.187  15.604  11.926
74580W        W47005  27.230  27.989   0.003
74581W        W47006   9.292   3.456  10.609
74582W        W47007  26.196  14.266  12.168
74583W        W47008  35.716  28.400  13.802
74584W        W47009  44.856  36.830   2.196
74585W        W47010  24.010  44.981  14.113
74586W        W47011   0.870  33.944  14.419
74587W        W47012  32.690  30.931  11.053
74588W        W47013  13.697  32.041   1.787
74589W        W47014  22.646  24.022  10.594
74590W        W47015  19.789  22.602   2.320
74591W        W47016  13.611  32.000  14.945
74592W        W47017  32.804  26.980  12.959
74593W        W47018  40.370  44.394  13.313
74594W        W47019  38.857  30.195   0.782
74595W        W47020  11.966  29.511   3.397
74596W        W47021   2.296  37.607   2.930
74597W        W47022  31.887  43.070   1.843
74598W        W47023  38.975  25.923   0.025
74599W        W47024  36.466  21.795   3.224
74600W        W47025   6.736  31.969   3.556
74601W        W47026   6.331  15.796   3.612
74602W        W47027   3.505   5.552  13.770
74603W        W47028  25.933   8.440   3.265
74604W        W47029  30.382  28.962  14.965
74605W        W47030  22.628  11.840   2.263
74606W        W47031  17.119  28.828  10.247
74607W        W47032  23.594   4.258  13.970
74608W        W47033  44.548  12.373  10.203
74609W        W47034  11.591  29.581   1.231
74610W        W47035  12.872  44.453  12.053
74611W        W47036  34.975  44.283  14.243
74612W        W47037  19.184  42.381   4.290
74613W        W47038  43.531  34.404   0.445
74614W        W47039   5.028  11.826  11.580
74615W        W47040  19.668  20.536   4.062
74616W        W47041   5.308  17.023   1.228
74617W        W47042   3.069  26.165   2.739
74618W        W47043  33.316  37.469   1.840
74619W        W47044  10.602   5.762  12.163
74620W        W47045  27.645  22.798  13.020
74621W        W47046  22.377  12.110  14.829
74622W        W47047  39.119  44.957   0.866
74623W        W47048   2.528   6.143   0.722
74624W        W47049  19.617  33.175  13.462
74625W        W47050  33.480  34.033   4.948
74626W        W47051  42.132  26.465   5.139
74627W        W47052   0.930  29.424   9.914
74628W        W47053  27.474  39.596   1.384
74629W        W47054  41.012  39.789   2.152
74630W        W47055  32.847  22.671   3.257
74631W        W47056  29.474  41.021  10.345
74632W        W47057  30.016  38.516   0.404
74633W        W47058  39.501  34.309  10.677
74634W        W47059   0.821  18.519  11.602
74635W        W47060  17.685  18.675   2.392
74636W        W47061  38.730  38.836   3.809
74637W        W47062  14.818  33.190   2.638
74638W        W47063  10.595   1.430   1.922
74639W        W47064  43.208  39.934  13.975
74640W        W47065  18.132  20.438   0.734
74641W        W47066   7.363  13.608   1.606
74642W        W47067   5.708   2.872  13.696
74643W        W47068  22.039  35.708  13.633
74644W        W47069  41.793  14.301  11.701
74645W        W47070  31.320  33.685   1.212
74646W        W47071   7.295  31.147   3.734
74647W        W47072  24.748  11.180   3.761
74648W        W47073  38.495  41.903   2.671
74649W        W47074  25.920  26.512   1.279
74650W        W47075  22.542  20.597  11.594
74651W        W47076   1.264  21.915   1.179
74652W        W47077  30.117  10.315   0.785
74653W        W47078  36.058  41.149   4.192
74654W        W47079  14.357  23.396  13.937
74655W        W47080  16.203  16.639  11.453
74656W        W47081  10.863  37.812   2.209
74657W        W47082  22.492  11.916  10.299
74658W        W47083  22.249  36.073   4.687
74659W        W47084  41.965   9.314  10.449
74660W        W47085   5.437  40.857   4.864
74661W        W47086  41.596  37.227   0.861
74662W        W47087  12.502  36.108   2.238
74663W        W47088  23.821  22.136   3.238
74664W        W47089  43.793  29.287   1.391
74665W        W47090   7.327  40.543  11.464
74666W        W47091  19.522  42.819   3.574
74667W        W47092  27.153  34.047   0.952
74668W        W47093  17.680  11.838  10.798
74669W        W47094  19.483  44.220  11.610
74670W        W47095  25.015  38.944  11.165
74671W        W47096  21.210  37.469  11.541
74672W        W47097  11.638  33.923  12.351
74673W        W47098  32.834  16.469  13.440
74674W        W47099   5.517  37.481   2.948
74675W        W47100  20.874  22.453  12.685
74676W        W47101   2.346   9.674   2.881
74677W        W47102  20.875   0.459   4.686
74678W        W47103  11.267   4.408   0.140
74679W        W47104  28.954   6.123   4.180
74680W        W47105   8.148  25.609   1.744
74681W        W47106   3.064  30.683   3.550
74682W        W47107   4.867  11.537  10.651
74683W        W47108  29.554  10.692  12.631
74684W        W47109  19.531  41.505   4.695
74685W        W47110  34.965  14.900   2.216
74686W        W47111   9.624   4.164   2.801
74687W        W47112  15.228  15.092  13.579
74688W        W47113   1.768   5.171  12.817
74689W        W47114  36.820  21.141   4.294
74690W        W47115   9.607  32.969  12.925
74691W        W47116   8.174  18.628  12.547
74692W        W47117   5.374  32.780   4.719
74693W        W47118  42.839  11.372  12.255
74694W        W47119  29.050  33.078   1.438
74695W        W47120  33.214   1.930   4.578
74696W        W47121  31.054   2.916  11.165
74697W        W47122  29.952  32.440  13.920
74698W        W47123  21.147   9.760  14.441
74699W        W47124  14.319  27.687  14.934
74700W        W47125  20.305  17.292   2.095
74701W        W47126  25.591  41.352  11.224
74702W        W47127   2.764  21.062   0.110
74703W        W47128   6.981   2.721   0.422
74704W        W47129  13.575  37.464  12.948
74705W        W47130  12.563  29.947   2.162
74706W        W47131  39.741   4.704   4.119
74707W        W47132  12.758  15.155   0.757
74708W        W47133  36.827  38.529   2.623
74709W        W47134  31.915  25.923   1.185
74710W        W47135  41.952  39.305  11.320
74711W        W47136  23.918  27.002  12.348
74712W        W47137  30.186  34.296  11.365
74713W        W47138  35.300   8.199   4.656
74714W        W47139  14.848  25.881  13.362
74715W        W47140   6.898  15.748  14.360
74716W        W47141  18.863  10.551  11.574
74717W        W47142  32.027   4.339   3.750
74718W        W47143  21.306  17.068   1.868
74719W        W47144  10.152  22.081   4.367
74720W        W47145  26.675  30.900   0.854
74721W        W47146   9.344  40.873  14.051
74722W        W47147  22.763  16.290  10.729
74723W        W47148  34.148  10.640  13.115
74724W        W47149  38.987   4.911  12.537
74725W        W47150  34.182   6.235  11.930
74726W        W47151  42.202  32.391  11.228
74727W        W47152  24.755  11.928  12.560
74728W        W47153  33.561  34.729  13.284
74729W        W47154  31.983  13.899   3.187
74730W        W47155   7.898  37.083  12.452
74731W        W47156  38.576  37.119   4.190
74732W        W47157   2.193  37.469   1.173
74733W        W47158  34.453  41.299   1.890
74734W        W47159  18.335  11.933   0.095
74735W        W47160  32.533   2.691  11.153
74736W        W47161  41.808  24.908  11.061
74737W        W47162  35.522   6.895   4.069
74738W        W47163  31.457  24.105   4.537
74739W        W47164  14.687  36.693  14.865
74740W        W47165  20.463  40.484  12.750
74741W        W47166  14.425  22.484   3.183
74742W        W47167  14.720  19.707  14.910
74743W        W47168  34.428  13.812   4.115
74744W        W47169  21.541  42.442  11.929
74745W        W47170  15.525   2.690   0.440
74746W        W47171  15.250   7.417  11.964
74747W        W47172  14.203  32.000   2.024
74748W        W47173   9.254   7.798  10.777
74749W        W47174  43.816   7.269   4.852
74750W        W47175   8.881  35.006   0.634
74751W        W47176  26.718  15.217   0.421
74752W        W47177  23.011   8.096  13.818
74753W        W47178  41.078  16.040   4.504
74754W        W47179  15.210  16.746  11.423
74755W        W47180  30.460  29.096   4.200
74756W        W47181  10.263  44.612  12.410
74757W        W47182  14.637  27.468   3.847
74758W        W47183  39.410   9.610  11.931
74759W        W47184  13.656  27.014   2.457
74760W        W47185  18.590  13.852  14.332
74761W        W47186  42.132   6.325   4.281
74762W        W47187  23.688   5.749   3.293
74763W        W47188  28.061  43.728   1.974
74764W        W47189  17.899   9.439   2.935
74765W        W47190   6.408  19.837  14.864
74766W        W47191   7.374  29.573  13.415
74767W        W47192  40.438  37.896   2.806
74768W        W47193  43.346  35.973   1.829
74769W        W47194  34.453   4.200   2.581
74770W        W47195  31.006   0.853  10.721
74771W        W47196   2.722   7.584   2.740
74772W        W47197   8.402  19.753  10.572
74773W        W47198  40.394  27.701   2.730
74774W        W47199  20.022  22.343   0.702
74775W        W47200   2.909  20.086   4.608
74776W        W47201  43.648  10.289   2.437
74777W        W47202  25.733  32.405  12.116
74778W        W47203  15.200  37.968   3.618
74779W        W47204   0.262  26.255   3.499
74780W        W47205   9.310  30.520   3.228
74781W        W47206  21.630  28.994  11.989
74782W        W47207  40.394  27.418   4.590
74783W        W47208  23.139  40.728   1.483
74784W        W47209  30.870  41.865   5.848
74785W        W47210  23.985  16.830   1.725
74786W        W47211  40.364  12.328  12.104
74787W        W47212  26.489  21.952   1.100
74788W        W47213  24.639  25.842   0.301
74789W        W47214   9.499   7.842  13.871
74790W        W47215  44.708  38.406  11.132
74791W        W47216  42.825   0.867   3.077
74792W        W47217   9.148  10.837  13.014
74793W        W47218  25.094   6.439   4.294
74794W        W47219  24.077   7.818   0.658
74795W        W47220   0.156   2.348   0.997
74796W        W47221  22.928  34.512   1.891
74797W        W47222  22.716  22.454   3.656
74798W        W47223  35.864  17.529  14.256
74799W        W47224   4.485   3.861   0.836
74800W        W47225  40.506  17.015  12.834
74801W        W47226  28.165   3.493  12.024
74802W        W47227  41.338  15.026  14.503
74803W        W47228   0.389  44.515   1.826
74804W        W47229  28.393  30.126   4.795
74805W        W47230   0.007  20.329   1.609
74806W        W47231  33.078  14.275  14.851
74807W        W47232   9.685  11.218   2.616
74808W        W47233  22.449  18.182   0.827
74809W        W47234  20.483  30.087   4.182
74810W        W47235  34.083   6.476   1.384
74811W        W47236  12.042  13.640   1.017
74812W        W47237  30.880   6.784   4.767
74813W        W47238  20.785   9.810   4.996
74814W        W47239   4.651  24.956  10.487
74815W        W47240  30.767  11.359  10.274
74816W        W47241  23.065   0.180  14.490
74817W        W47242  18.206  14.231   2.900
74818W        W47243  13.348  15.801   3.150
74819W        W47244  35.664  26.631   2.625
74820W        W47245  24.459   3.856  13.541
74821W        W47246  38.500  14.758  13.094
74822W        W47247  32.327  42.859  14.307
74823W        W47248   5.867  40.067   1.984
74824W        W47249  22.255  29.940   0.664
74825W        W47250  30.934   5.224   2.110
74826W        W47251  34.159  19.988   0.286
74827W        W47252  33.138  44.854   4.641
74828W        W47253   5.036  32.587   5.074
74829W        W47254  17.835  22.159   1.246
74830W        W47255   6.389  21.075  14.343
74831W        W47256   2.633  20.791   1.420
74832W        W47257  22.405  12.069   2.706
74833W        W47258  25.034   9.485   0.288
74834W        W47259  38.055  19.564   0.784
74835W        W47260  16.370   7.792   4.115
74836W        W47261  21.584   9.079  13.544
74837W        W47262   1.054  25.112  14.423
74838W        W47263  32.446  29.578  14.357
74839W        W47264  37.165  29.193   1.858
74840W        W47265  32.892   7.471   4.237
74841W        W47266   1.701  28.049  12.028
74842W        W47267  22.741  31.089   1.691
74843W        W47268  21.080  38.021   2.917
74844W        W47269  39.971  33.001  12.343
74845W        W47270  12.560  38.907  13.688
74846W        W47271  19.534  29.116   5.019
74847W        W47272  27.193   9.153  13.595
74848W        W47273  11.722  38.713  11.901
74849W        W47274  26.555  25.709  10.878
74850W        W47275   3.714   7.031   1.360
74851W        W47276   3.788   9.833  10.562
74852W        W47277  16.419  21.561   3.144
74853W        W47278  38.335  20.233  14.796
74854W        W47279  25.914  44.277   2.327
74855W        W47280  22.226  17.617  11.271
74856W        W47281  14.685  36.943  12.058
74857W        W47282   2.722   9.838   3.193
74858W        W47283  38.121  17.797   4.340
74859W        W47284  33.192  21.422  10.681
74860W        W47285  15.671  22.733   0.720
74861W        W47286  12.871  41.861  13.330
74862W        W47287  26.239  18.535  14.932
74863W        W47288  43.865  29.182   2.800
74864W        W47289  24.472  37.243  12.998
74865W        W47290  34.113  38.492  12.531
74866W        W47291  25.996  23.362   4.839
74867W        W47292   3.356   4.403   3.321
74868W        W47293  16.364   9.820  12.117
74869W        W47294  30.960  23.496  10.139
74870W        W47295  20.877  31.911  12.649
74871W        W47296  11.773   4.495  14.959
74872W        W47297   5.346  35.581  13.567
74873W        W47298  38.997  13.249  11.437
74874W        W47299  32.397  13.481   0.569
74875W        W47300  44.409  42.029  11.910
74876W        W47301  17.725   2.921   3.050
74877W        W47302  31.046  15.982  11.259
74878W        W47303  38.108  43.736  14.674
74879W        W47304  41.870  28.453   1.412
74880W        W47305  38.390  24.078  14.237
74881W        W47306   7.980   9.599   4.028
74882W        W47307  20.519  11.575   0.763
74883W        W47308   4.348   9.225  14.331
74884W        W47309  25.324  29.886  14.808
74885W        W47310   7.277  25.671   4.603
74886W        W47311   2.913   8.095   0.796
74887W        W47312  42.951  17.537   3.660
74888W        W47313  20.038   1.368   0.277
74889W        W47314  42.759   1.870   0.924
74890W        W47315  18.315  41.777   4.062
74891W        W47316   8.199  35.899   3.419
74892W        W47317  39.539  14.116  14.467
74893W        W47318  34.737  39.339  12.439
74894W        W47319  11.343  30.028   3.798
74895W        W47320   9.123  23.093  12.570
74896W        W47321  13.653  35.642  13.943
74897W        W47322   2.712  17.782   2.921
74898W        W47323   8.341  21.437   4.724
74899W        W47324  20.310  14.135  12.633
74900W        W47325  10.057   8.624   2.769
74901W        W47326  28.769  14.164  10.635
74902W        W47327   5.862  38.691   1.348
74903W        W47328  26.048  38.460   4.581
74904W        W47329  29.853  17.524   3.191
74905W        W47330  30.615  29.602   4.171
74906W        W47331  21.648  21.615   3.850
74907W        W47332  23.496  22.638   2.342
74908W        W47333   8.809  25.123   3.239
74909W        W47334  32.390  11.562   3.868
74910W        W47335  27.557  23.536  13.772
74911W        W47336  39.919  34.631   3.986
74912W        W47337  42.869  30.180   1.802
74913W        W47338  38.304   8.365   2.816
74914W        W47339   6.092  30.201   1.670
74915W        W47340   4.236   1.769   1.204
74916W        W47341  32.034  21.521   4.710
74917W        W47342   4.557  10.859  14.337
74918W        W47343  23.098  26.391  12.108
74919W        W47344  42.566   0.751  12.118
74920W        W47345   9.754  17.210  13.742
74921W        W47346  13.208  36.823  11.432
74922W        W47347  17.770  12.090   2.680
74923W        W47348  40.544  16.859   2.295
74924W        W47349  29.900  35.534   1.445
74925W        W47350  29.667  32.859  14.696
74926W        W47351  40.902  31.689   4.142
74927W        W47352  31.340  32.052  13.985
74928W        W47353  26.344  13.110  12.949
74929W        W47354  10.744  34.816   4.671
74930W        W47355  21.488  28.151  12.896
74931W        W47356  10.722  39.554  10.678
74932W        W47357  13.278  12.844  12.854
74933W        W47358  44.848   9.471  11.080
74934W        W47359  11.703  34.460   3.582
74935W        W47360  30.503   4.044   2.560
74936W        W47361  29.121   2.430  13.983
74937W        W47362  23.593  41.587  12.614
74938W        W47363  34.148  28.639  12.668
74939W        W47364  36.123   2.795   4.063
74940W        W47365  10.705  38.087  13.104
74941W        W47366   3.459  43.849   1.364
74942W        W47367   6.546  12.308  10.600
74943W        W47368  21.646  41.561   4.581
74944W        W47369  25.379   4.256  10.568
74945W        W47370  33.804   3.271   2.231
74946W        W47371   2.745  34.914   4.860
74947W        W47372  11.641  43.104  11.031
74948W        W47373  40.801  21.077   4.787
74949W        W47374   0.343  21.688   0.021
74950W        W47375  24.552  34.299  12.088
74951W        W47376  44.025  16.998   2.103
74952W        W47377   1.006  41.221  12.059
74953W        W47378  42.946  35.273  10.720
74954W        W47379  25.600  41.731   4.551
74955W        W47380  30.604  25.068   2.863
74956W        W47381  43.322   3.345   1.617
74957W        W47382  39.009  10.405  14.281
74958W        W47383  22.035  36.520   0.658
74959W        W47384  39.612  11.129   0.275
74960W        W47385  40.114  10.257  11.960
74961W        W47386  25.942   0.172   3.222
74962W        W47387  16.330  21.136  12.806
74963W        W47388  28.254  41.858  14.020
74964W        W47389  32.910   8.429   0.439
74965W        W47390  22.763  13.141   3.173
74966W        W47391  33.887   5.535  13.974
74967W        W47392   6.110  13.098   4.600
74968W        W47393   0.070  13.700  13.381
74969W        W47394  12.201  33.305   2.325
74970W        W47395  42.721  20.624  11.366
74971W        W47396   6.582  17.313  11.591
74972W        W47397   4.026  18.864  12.488
74973W        W47398  35.070  39.932  11.251
74974W        W47399  15.596   1.584   1.310
74975W        W47400  28.980  17.810  13.526
74976W        W47401  43.708  40.813  14.964
74977W        W47402   6.454  15.912   0.245
74978W        W47403  43.378   2.484  11.577
74979W        W47404  42.624   9.296   0.068
74980W        W47405  12.921  27.452  11.076
74981W        W47406  19.065  41.812   1.312
74982W        W47407  32.680  21.939   0.710
74983W        W47408  23.296  32.706   4.563
74984W        W47409  23.179  13.682  14.769
74985W        W47410  37.368  32.735   4.514
74986W        W47411  12.575  35.459   3.291
74987W        W47412  19.994  34.434   4.550
74988W        W47413  30.486  26.046   3.856
74989W        W47414  44.030  29.272  13.036
74990W        W47415  36.614  10.129   4.599
74991W        W47416  39.387   7.901  10.497
74992W        W47417  19.646   3.705   1.418
74993W        W47418  15.137  41.560   3.207
74994W        W47419   1.558  25.190  14.410
74995W        W47420  13.579   7.864  10.687
74996W        W47421  10.615  15.426   3.301
74997W        W47422   4.047  27.676  12.311
74998W        W47423  24.631   8.675  13.050
74999W        W47424   5.754  28.064   0.842
75000W        W47425  12.730  44.518  14.266
75001W        W47426  32.271  40.393   4.554
75002W        W47427  36.387  16.449   2.167
75003W        W47428  27.338  16.397   0.842
75004W        W47429  40.470  39.402  13.898
75005W        W47430  13.848  41.282  12.324
75006W        W47431  18.361  19.182   0.921
75007W        W47432  26.541  37.520   4.641
75008W        W47433   8.284  41.906   0.861
75009W        W47434  12.792  35.883  14.091
75010W        W47435   8.833   1.925   1.802
75011W        W47436   3.313  38.901   3.160
75012W        W47437  38.048  42.484   2.147
75013W        W47438  33.414  39.935   5.348
75014W        W47439  12.710  29.067  12.969
75015W        W47440  29.807  18.224  11.671
75016W        W47441  37.199   5.271   4.482
75017W        W47442   7.913  12.014  12.134
75018W        W47443  16.673  23.314  12.586
75019W        W47444  27.976  19.776   0.406
75020W        W47445  21.600  24.923   0.073
75021W        W47446  10.730  37.578  11.619
75022W        W47447  15.599  19.547  10.748
75023W        W47448  20.713   0.731  11.276
75024W        W47449  15.553  27.433   1.786
75025W        W47450  35.382  40.213   2.830
75026W        W47451   2.278  42.468   1.261
75027W        W47452  24.134   1.540  13.794
75028W        W47453  21.144   0.060   0.438
75029W        W47454   8.854  35.390  14.283
75030W        W47455   9.397  36.350  13.520
75031W        W47456  44.258  19.696  10.566
75032W        W47457  36.310  24.891   5.102
75033W        W47458   3.511   4.792  13.405
75034W        W47459  25.177  20.231   4.773
75035W        W47460   9.911   6.142  11.731
75036W        W47461  39.263  35.842  12.519
75037W        W47462  13.635   7.801  11.526
75038W        W47463  13.228   2.080   0.492
75039W        W47464  24.286  26.583  12.503
75040W        W47465   9.153  31.181   0.050
75041W        W47466  11.628   0.237  10.233
75042W        W47467  39.008  36.006   9.860
75043W        W47468  23.708   6.341  12.657
75044W        W47469   6.698  34.932   1.655
75045W        W47470   3.285  17.696  12.051
75046W        W47471  13.382  40.960  12.065
75047W        W47472  14.828  43.789   2.604
75048W        W47473  44.006   1.460   2.887
75049W        W47474  18.624  44.616   2.845
75050W        W47475  26.052  21.538  14.149
75051W        W47476  10.995   3.758   4.608
75052W        W47477  33.425  24.928   9.944
75053W        W47478  36.872   5.789   5.031
75054W        W47479  28.160  28.230  11.176
75055W        W47480  17.764  19.241   4.244
75056W        W47481  29.834   2.920  13.899
75057W        W47482   3.366  26.125   3.185
75058W        W47483  11.347  14.279  11.938
75059W        W47484  27.534  18.513   3.720
75060W        W47485  15.882  15.934  13.480
75061W        W47486  19.301  33.487  12.155
75062W        W47487   6.401  18.215   3.360
75063W        W47488   2.397  19.151   2.764
75064W        W47489   4.371   5.875   0.923
75065W        W47490  43.735  12.831  14.006
75066W        W47491  18.354  38.507   4.110
75067W        W47492  31.399  41.458  11.872
75068W        W47493  36.476  34.166  12.337
75069W        W47494   5.369  37.010  10.991
75070W        W47495  28.770  12.428   4.135
75071W        W47496  37.631   3.515   3.199
75072W        W47497  40.962  18.648   4.290
75073W        W47498  15.007  10.478   0.755
75074W        W47499  36.281  14.823  11.902
75075W        W47500   6.280  31.275  12.753
75076W        W47501  42.210  16.896   3.463
75077W        W47502  18.704  37.645   4.231
75078W        W47503   2.236  42.778   2.348
75079W        W47504  29.692  23.250  12.407
75080W        W47505  43.448  39.495  13.874
75081W        W47506  31.185  23.985  13.579
75082W        W47507  10.545  36.385   0.367
75083W        W47508   9.138  36.576   2.263
75084W        W47509  40.235  15.716  13.059
75085W        W47510  36.875  35.924  12.460
75086W        W47511   2.689  11.935  13.476
75087W        W47512  30.888  30.037  10.747
75088W        W47513  38.302  39.348  14.561
75089W        W47514   6.478   7.321   2.615
75090W        W47515  12.645   0.831  13.102
75091W        W47516  18.197   7.171  13.478
75092W        W47517  32.642  19.666  12.952
75093W        W47518  30.029  27.699   4.324
75094W        W47519  27.055  24.922   1.249
75095W        W47520  17.582  13.216  10.718
75096W        W47521  22.685  30.520  14.917
75097W        W47522   8.332  25.026   3.670
75098W        W47523  28.667  26.523   5.375
75099W        W47524   6.216  11.179  10.883
75100W        W47525  34.855  16.707  12.999
75101W        W47526  33.139  29.528   1.012
75102W        W47527  41.231   9.168   0.454
75103W        W47528  10.692   7.693   4.368
75104W        W47529   9.239  22.234   0.812
75105W        W47530  22.171  37.174   3.718
75106W        W47531  40.981  20.323  11.164
75107W        W47532  36.573   6.315  12.563
75108W        W47533  18.060  38.558   1.787
75109W        W47534   4.285  13.566   3.154
75110W        W47535  15.861   2.326   0.602
75111W        W47536   5.750  19.052  13.330
75112W        W47537  38.941   7.291  12.972
75113W        W47538  19.879  11.821  12.055
75114W        W47539   5.471  44.096   1.361
75115W        W47540  26.027  39.539  12.426
75116W        W47541  39.416  28.511  11.922
75117W        W47542  13.151  15.506   0.725
75118W        W47543   4.242  24.188  13.436
75119W        W47544  30.915  10.696   3.251
75120W        W47545   4.166  11.569   1.813
75121W        W47546   2.232  41.996   1.504
75122W        W47547   0.207  19.072  12.885
75123W        W47548  13.318  10.774   4.070
75124W        W47549   9.273   7.932  12.555
75125W        W47550   4.188  31.330  11.594
75126W        W47551  37.469  23.715  11.475
75127W        W47552  26.664   0.839   4.659
75128W        W47553  41.003  32.960  12.568
75129W        W47554  30.057   0.447  11.580
75130W        W47555  36.123  33.427  12.903
75131W        W47556  32.706   4.411   1.897
75132W        W47557  14.312  22.281  13.560
75133W        W47558  24.898  20.518   2.330
75134W        W47559  10.349   9.600   1.261
75135W        W47560   1.364  21.269   1.730
75136W        W47561   3.253   8.554  11.946
75137W        W47562  28.083  30.475  10.530
75138W        W47563  29.659  30.022  12.473
75139W        W47564  28.231  31.375  14.044
75140W        W47565  33.708  37.544  14.522
75141W        W47566  27.100  20.309  11.444
75142W        W47567  15.342  30.042  13.318
75143W        W47568   3.155  24.599  13.862
75144W        W47569  23.723  43.724   1.770
75145W        W47570  19.269  40.415   5.181
75146W        W47571  13.115   5.908   4.610
75147W        W47572  37.045  30.445   0.631
75148W        W47573   4.373  26.658   1.169
75149W        W47574  15.072  35.139   1.310
75150W        W47575   2.504   3.751  13.364
75151W        W47576  37.014  29.048  12.559
75152W        W47577  44.485  20.781   3.678
75153W        W47578  37.506   8.397   2.672
75154W        W47579  29.519  33.643   1.762
75155W        W47580  22.557   4.816   0.785
75156W        W47581   0.366  36.749   1.875
75157W        W47582  37.476  23.440  10.442
75158W        W47583  21.706   3.855   2.757
75159W        W47584  23.792   9.918   3.382
75160W        W47585   2.880  20.749  12.350
75161W        W47586  22.087  35.389   0.624
75162W        W47587  11.219  44.376  10.220
75163W        W47588  20.099   7.611   5.017
75164W        W47589  20.512  40.251  10.967
75165W        W47590   0.938  38.469   1.855
75166W        W47591  36.930  22.232   1.687
75167W        W47592  40.478  36.239   4.522
75168W        W47593   1.968   0.504  13.895
75169W        W47594  28.916  14.312   2.351
75170W        W47595   5.736  20.484   2.383
75171W        W47596  14.979   2.848   5.073
75172W        W47597  42.893   6.118   1.759
75173W        W47598  17.025  28.105   0.320
75174W        W47599  17.593  10.384   3.134
75175W        W47600  12.697  28.534  13.630
75176W        W47601  35.611  23.639   3.374
75177W        W47602   2.221  12.883  12.893
75178W        W47603  29.560  38.342   3.412
75179W        W47604  39.690   8.368   4.546
75180W        W47605  22.097  36.611   4.566
75181W        W47606  33.653  17.545   3.628
75182W        W47607   6.075  37.508  12.628
75183W        W47608   0.532  22.503   1.515
75184W        W47609  19.772   3.752  10.687
75185W        W47610  31.966  20.699   2.817
75186W        W47611   5.905  41.224  13.056
75187W        W47612  12.153  16.912  13.436
75188W        W47613  10.434  37.595  14.950
75189W        W47614  18.369   8.707   1.452
75190W        W47615  42.382  36.960  11.213
75191W        W47616   2.376  15.880   3.336
75192W        W47617   9.562  42.574   1.234
75193W        W47618  44.482  23.696   0.193
75194W        W47619   3.875  41.439  12.895
75195W        W47620  30.207  34.087  10.793
75196W        W47621  10.452   0.681  10.704
75197W        W47622  26.465  25.086  12.628
75198W        W47623  38.842  17.788  12.105
75199W        W47624  25.407  34.120  12.157
75200W        W47625   8.725  13.043   4.492
75201W        W47626  11.647  10.753  13.050
75202W        W47627  10.356   6.623  14.568
75203W        W47628  43.703  31.868  11.054
75204W        W47629  40.551  35.317   4.823
75205W        W47630  25.699  31.123   2.200
75206W        W47631  38.638   5.448  12.091
75207W        W47632  29.850  40.152   3.307
75208W        W47633  44.307  22.042   4.413
75209W        W47634  30.479  44.168   3.091
75210W        W47635  44.309  19.369   0.945
75211W        W47636  38.179   9.342   3.558
75212W        W47637  24.005   1.169   3.744
75213W        W47638  37.748  27.595   4.044
75214W        W47639  10.856  36.975   3.467
75215W        W47640  39.970   5.971   3.758
75216W        W47641   1.868  18.779   0.622
75217W        W47642  22.068  17.639   0.327
75218W        W47643   2.339  21.536  11.241
75219W        W47644  40.440  28.684   1.396
75220W        W47645  43.735  21.126   2.679
75221W        W47646  32.933   5.215   3.946
75222W        W47647  23.113   9.175  12.931
75223W        W47648  43.469  43.921  11.958
75224W        W47649  42.927  19.511  12.539
75225W        W47650  34.909  13.344   4.556
75226W        W47651   8.459  13.328   4.159
75227W        W47652  30.345  21.827   0.508
75228W        W47653  22.099   4.188   1.434
75229W        W47654  17.224  11.484  11.621
75230W        W47655  43.763   6.388   3.267
75231W        W47656   6.087  30.079  13.404
75232W        W47657  24.192  34.060  14.885
75233W        W47658  43.362   1.130   1.397
75234W        W47659  33.687  24.541   3.776
75235W        W47660  41.787   1.006  10.713
75236W        W47661   6.700  19.984  11.491
75237W        W47662  17.588   8.182  11.216
75238W        W47663   4.555   4.787  11.008
75239W        W47664  42.226  37.994   1.864
75240W        W47665  14.872  34.036   4.045
75241W        W47666   4.342  27.118   2.486
75242W        W47667   9.728   5.798   4.502
75243W        W47668  14.774  43.413  13.108
75244W        W47669  22.069  29.446   0.377
75245W        W47670  12.271  33.587  11.599
75246W        W47671  14.389   7.707   4.239
75247W        W47672  35.018  36.488  11.126
75248W        W47673  15.191  33.426   0.555
75249W        W47674   7.174  41.444   0.229
75250W        W47675   5.406  44.287   0.210
75251W        W47676  37.929  26.409  14.766
75252W        W47677  27.665  15.289  14.330
75253W        W47678  41.510  31.626   0.063
75254W        W47679  33.504  32.918   4.100
75255W        W47680   3.222  41.061   4.038
75256W        W47681   9.901  42.008  13.350
75257W        W47682  32.136  12.316  11.558
75258W        W47683  25.873  20.302   2.606
75259W        W47684  41.862  31.558   3.262
75260W        W47685  33.424  38.435   1.898
75261W        W47686  32.513  11.751   4.891
75262W        W47687  26.144  23.944   4.981
75263W        W47688  21.000  15.860  13.777
75264W        W47689  31.606  26.867   1.461
75265W        W47690   9.639  39.374   0.392
75266W        W47691  11.143   8.654   0.218
75267W        W47692  32.449  23.299  14.893
75268W        W47693  18.060  13.809  14.400
75269W        W47694  29.671  35.929  10.622
75270W        W47695  36.991  38.546   3.401
75271W        W47696  20.607  26.629  14.427
75272W        W47697  22.744  30.499   5.200
75273W        W47698  32.590  18.145   2.788
75274W        W47699  10.317  42.739  14.985
75275W        W47700  28.200   4.591   0.489
75276W        W47701  10.855  12.136  13.517
75277W        W47702  17.203  20.009  11.080
75278W        W47703   0.803  16.541   0.058
75279W        W47704   3.362  42.006   0.541
75280W        W47705  28.753  32.370  13.850
75281W        W47706  28.432  18.358   1.941
75282W        W47707  28.867  39.359  11.634
75283W        W47708  28.916  27.010   3.644
75284W        W47709  17.609  31.208  12.554
75285W        W47710   4.538  10.207  12.549
75286W        W47711  28.439  39.902   2.198
75287W        W47712  31.968  10.440  13.823
75288W        W47713   6.267  27.607   3.320
75289W        W47714  10.920  36.448  12.641
75290W        W47715  26.698  38.941  12.091
75291W        W47716   2.517  19.679   3.327
75292W        W47717   7.192  35.994   0.298
75293W        W47718   5.734  26.357  10.633
75294W        W47719  42.507  19.764   1.781
75295W        W47720  22.076  27.961   1.019
75296W        W47721   8.709  22.466   0.889
75297W        W47722  20.280  40.409   1.261
75298W        W47723   2.526   5.874   0.272
75299W        W47724  40.808  35.982   0.669
75300W        W47725  37.614  19.707  12.925
75301W        W47726   7.752  10.378   3.674
75302W        W47727  20.849  39.030   3.662
75303W        W47728  37.107  13.573  14.133
75304W        W47729  23.768  25.327  11.979
75305W        W47730   1.509  14.236  14.814
75306W        W47731  36.568   7.433  12.065
75307W        W47732  14.557  11.811  12.921
75308W        W47733  29.284  13.076   3.754
75309W        W47734  21.976  18.071  10.537
75310W        W47735   6.618  26.131   1.489
75311W        W47736  33.985  41.040  13.059
75312W        W47737  29.544  25.707   1.866
75313W        W47738  10.759  17.464   0.953
75314W        W47739   1.568  27.558   4.549
75315W        W47740  16.280  37.849   2.818
75316W        W47741  14.720  23.270   2.232
75317W        W47742  33.957  11.126   3.642
75318W        W47743   0.403  36.911  13.284
75319W        W47744  40.678  25.260   2.833
75320W        W47745  31.254   1.608   0.742
75321W        W47746  14.872  43.572  11.542
75322W        W47747  40.752  30.544   1.258
75323W        W47748  21.623  11.554   0.041
75324W        W47749  11.146  17.657  11.428
75325W        W47750  14.620   7.694  14.543
75326W        W47751  42.312  19.855   2.752
75327W        W47752  36.268  10.699   1.426
75328W        W47753  14.136  10.911  14.981
75329W        W47754   4.160  30.918  12.774
75330W        W47755  32.868  33.060   1.146
75331W        W47756   6.454  43.231  11.222
75332W        W47757  20.132  29.554   4.135
75333W        W47758   2.997   6.859  11.905
75334W        W47759  10.427  40.189  11.132
75335W        W47760  42.579   5.263   0.343
75336W        W47761  43.798  28.085   3.660
75337W        W47762   1.546  36.994  11.701
75338W        W47763  29.355  17.081   2.326
75339W        W47764  26.423  27.471   0.157
75340W        W47765   7.029  32.436   0.931
75341W        W47766  23.742  25.693   0.994
75342W        W47767  27.154  10.120   4.499
75343W        W47768  12.752  40.820   3.196
75344W        W47769  35.796  28.608  12.348
75345W        W47770  23.534  23.649   2.721
75346W        W47771  35.093  16.164  14.722
75347W        W47772  30.588  35.274   4.620
75348W        W47773   7.229  17.844   3.905
75349W        W47774  41.463   6.131   0.471
75350W        W47775  16.020  43.530   3.343
75351W        W47776  16.046  25.262  13.778
75352W        W47777  41.785   4.537   0.329
75353W        W47778  24.035  38.977   2.203
75354W        W47779  14.710  26.567  10.894
75355W        W47780  17.052  15.600  11.529
75356W        W47781  28.582  19.416   2.112
75357W        W47782  38.972  20.114   4.155
75358W        W47783  12.850  43.209  11.949
75359W        W47784   8.796  12.042   1.310
75360W        W47785  15.701  20.350   3.953
75361W        W47786   3.595   5.707  10.607
75362W        W47787  23.617  17.407   3.683
75363W        W47788  31.901   0.171  14.501
75364W        W47789  31.344   8.695  11.588
75365W        W47790   3.890  35.048  11.711
75366W        W47791  39.772  27.741   3.136
75367W        W47792  24.861  17.236  10.964
75368W        W47793  15.101  34.528  14.370
75369W        W47794  39.356   6.143  14.276
75370W        W47795  44.964  14.639   4.211
75371W        W47796   3.764   7.226   2.646
75372W        W47797  44.526   7.690   2.764
75373W        W47798  38.535   4.230   5.126
75374W        W47799  10.312   1.410   3.761
75375W        W47800  35.742  43.528   2.379
75376W        W47801  36.148   1.952  14.298
75377W        W47802  39.322  27.549  11.060
75378W        W47803  26.687   2.752   3.718
75379W        W47804   7.319  30.389   3.688
75380W        W47805  19.179  16.077   1.861
75381W        W47806  36.833   3.886  14.386
75382W        W47807  31.936  39.307  14.107
75383W        W47808  36.388   0.305  11.198
75384W        W47809  43.488  13.087   3.236
75385W        W47810  26.724  44.863   4.628
75386W        W47811  29.413  17.815   3.650
75387W        W47812  36.823  26.732   2.740
75388W        W47813  42.464   3.635   4.663
75389W        W47814  35.418   3.668  13.894
75390W        W47815  29.066  21.726  12.414
75391W        W47816  37.376  17.598  14.759
75392W        W47817   4.928  39.022  12.847
75393W        W47818  33.667  28.428  14.025
75394W        W47819  32.585  17.274   2.933
75395W        W47820  34.610  29.420   3.841
75396W        W47821  13.154  27.962   3.275
75397W        W47822  21.140  18.361   4.299
75398W        W47823  13.840  25.989   3.877
75399W        W47824  18.226  11.877  11.665
75400W        W47825  13.239  29.231  13.007
75401W        W47826  19.732  36.240   4.600
75402W        W47827  14.918  23.300  14.664
75403W        W47828  26.434  40.455  11.073
75404W        W47829  30.362   0.670  10.770
75405W        W47830  20.297  33.963  10.631
75406W        W47831  36.447  18.283  13.284
75407W        W47832  13.812  17.722   0.303
75408W        W47833  18.693   3.995  11.038
75409W        W47834  40.079  44.583   1.458
75410W        W47835  25.686  19.146   1.693
75411W        W47836   9.834  11.636  11.962
75412W        W47837  25.212  30.108   3.810
75413W        W47838  11.691   0.563  10.698
75414W        W47839   9.576  10.331  10.624
75415W        W47840  16.186   4.866   0.326
75416W        W47841  31.463  40.488   1.222
75417W        W47842  29.135  31.456   4.623
75418W        W47843  21.667  24.410  12.162
75419W        W47844   1.828  33.653  13.549
75420W        W47845   8.647  44.592  12.453
75421W        W47846  32.960  42.440  14.895
75422W        W47847  37.547  27.073  13.752
75423W        W47848  14.732   1.563   1.921
75424W        W47849  11.601  40.372  10.210
75425W        W47850   5.995  37.909  11.656
75426W        W47851  31.444  10.783   1.409
75427W        W47852  32.329  26.103   3.904
75428W        W47853  11.743   0.671   2.756
75429W        W47854  28.612  24.698   3.855
75430W        W47855  14.825   1.358  14.470
75431W        W47856  14.140   1.369  12.457
75432W        W47857  23.641  39.504  13.904
75433W        W47858  21.463  40.032   0.905
75434W        W47859  25.976  41.057  14.355
75435W        W47860  31.240  22.442   1.835
75436W        W47861  34.167   6.670   1.852
75437W        W47862  37.551  18.845  12.836
75438W        W47863  41.783  35.494  10.599
75439W        W47864  13.839  17.040   4.214
75440W        W47865   5.323  20.045   3.888
75441W        W47866  44.527  40.987  12.376
75442W        W47867  32.487  11.587   4.364
75443W        W47868   5.727   3.320   4.582
75444W        W47869  22.593  27.232  10.624
75445W        W47870   6.344  22.630   0.737
75446W        W47871   3.460   7.873  13.886
75447W        W47872  40.258  38.982  11.186
75448W        W47873  40.734  16.155   1.182
75449W        W47874  30.370   6.646   0.757
75450W        W47875   8.254  25.144  12.833
75451W        W47876   7.445  11.779   4.202
75452W        W47877   2.870  39.611   3.147
75453W        W47878  26.513   3.409  13.552
75454W        W47879   9.061  15.686   3.501
75455W        W47880  13.070   3.743   4.624
75456W        W47881  37.392   0.879  10.356
75457W        W47882  24.183  25.098  14.844
75458W        W47883  26.524  11.168   0.276
75459W        W47884  24.282  14.899  14.415
75460W        W47885  24.120  11.872  12.881
75461W        W47886   1.364  28.733  11.658
75462W        W47887  33.711   5.037  13.928
75463W        W47888   8.225  43.955  10.692
75464W        W47889  26.252   4.055   3.980
75465W        W47890  38.041   5.891  10.915
75466W        W47891  10.586  37.066  11.527
75467W        W47892  35.361  23.623  11.701
75468W        W47893   0.238  36.625  12.470
75469W        W47894  30.996  31.125  14.968
75470W        W47895  27.802  44.861  14.916
75471W        W47896  35.779   4.537  13.295
75472W        W47897   9.381  30.397  10.562
75473W        W47898  25.491  18.233   4.200
75474W        W47899  24.897  31.529   3.100
75475W        W47900   4.501  17.260  12.992
75476W        W47901  15.274  32.141  11.452
75477W        W47902   7.197  30.457  12.106
75478W        W47903  21.065   3.525  13.292
75479W        W47904   9.738  40.417  13.562
75480W        W47905   6.283  19.802  10.706
75481W        W47906  43.365  41.724  11.375
75482W        W47907  23.203  44.688  13.571
75483W        W47908  14.614  24.155  11.980
75484W        W47909  32.243  13.274  12.593
75485W        W47910  13.216   6.250   3.904
75486W        W47911  34.149  33.564   0.874
75487W        W47912  27.109   1.794   3.422
75488W        W47913  36.309  32.411  10.429
75489W        W47914  15.305  19.581   1.663
75490W        W47915   3.350  21.862   3.692
75491W        W47916  32.508  38.516   2.351
75492W        W47917  32.126  19.980   2.031
75493W        W47918  38.359   2.158   3.975
75494W        W47919  23.334  37.570   0.996
75495W        W47920  27.496  13.921   3.461
75496W        W47921  39.515  31.467  14.474
75497W        W47922  40.836  35.752  11.128
75498W        W47923  20.787  32.673  10.658
75499W        W47924  12.578   4.206  11.977
75500W        W47925   1.794  21.204   0.416
75501W        W47926  22.699  22.110  10.578
75502W        W47927  35.960  23.622  10.548
75503W        W47928  41.358  17.165  14.947
75504W        W47929  25.176  13.358  11.532
75505W        W47930  22.717  44.764   2.828
75506W        W47931  32.466  25.598   0.335
75507W        W47932  22.646   3.397   4.640
75508W        W47933  29.642  26.123  10.634
75509W        W47934  13.179   3.932  14.864
75510W        W47935  18.042  33.797  12.389
75511W        W47936  25.720  39.523   4.039
75512W        W47937  31.346  20.152   0.453
75513W        W47938  40.531  30.404   9.461
75514W        W47939   3.721  19.438   4.597
75515W        W47940  30.241   8.608   2.636
75516W        W47941  22.447  14.235   1.363
75517W        W47942  44.839  42.774  11.122
75518W        W47943  33.827  10.279  12.846
75519W        W47944   2.057  32.175  11.073
75520W        W47945  22.020  41.746  14.439
75521W        W47946  42.964  25.121   2.755
75522W        W47947  22.808   4.514   3.304
75523W        W47948  42.333  14.250  13.976
75524W        W47949   7.565   1.354  13.487
75525W        W47950  20.099  36.889   2.599
75526W        W47951   3.969  17.463   1.275
75527W        W47952  33.959  33.995   2.276
75528W        W47953  35.527  44.350   1.674
75529W        W47954  24.777  23.523   2.371
75530W        W47955  43.562  38.800  10.544
75531W        W47956  24.578  12.125   4.745
75532W        W47957  14.287  15.623   3.589
75533W        W47958  26.377  26.207   3.795
75534W        W47959  21.994   1.845  13.515
75535W        W47960  15.663  32.235   5.337
75536W        W47961  16.446  14.107  11.123
75537W        W47962   3.529  41.238   2.258
75538W        W47963   2.239   5.788   4.194
75539W        W47964  43.237  23.562   2.795
75540W        W47965   0.957   0.800  11.071
75541W        W47966  43.968   1.300  14.893
75542W        W47967  27.612   8.643   2.712
75543W        W47968  31.502   0.957  12.071
75544W        W47969  30.459  38.971   3.958
75545W        W47970  11.852  33.919   2.907
75546W        W47971  35.948  27.157  12.003
75547W        W47972  38.053   4.232  12.999
75548W        W47973  16.614   3.725  14.834
75549W        W47974  10.411  16.304  12.568
75550W        W47975  16.724  13.602  11.896
75551W        W47976   8.386  24.982   1.327
75552W        W47977  25.114  10.515   3.264
75553W        W47978  29.697  28.132   2.187
75554W        W47979   4.354  23.723   1.660
75555W        W47980   4.662  13.001  13.710
75556W        W47981  44.528  26.579   4.937
75557W        W47982  24.305  20.820   3.132
75558W        W47983  14.166   7.218  13.935
75559W        W47984  19.058  16.110  14.939
75560W        W47985  38.598  24.550   2.417
75561W        W47986  15.256  39.598   3.581
75562W        W47987  43.764   9.247  14.238
75563W        W47988  36.935   5.921   0.973
75564W        W47989  32.821  38.514   3.671
75565W        W47990  13.095   9.914   3.499
75566W        W47991  30.278   7.924  14.360
75567W        W47992  28.298   3.857   4.648
75568W        W47993  32.213  18.185   4.672
75569W        W47994  21.795  31.077  13.584
75570W        W47995  24.357  28.186  14.502
75571W        W47996  11.379  43.000  13.482
75572W        W47997  31.359  15.236   0.392
75573W        W47998   0.066  34.101   2.774
75574W        W47999  32.354  24.237  12.102
75575W        W48000  12.252  43.725   2.375
75576W        W48001   4.614  30.145   4.660
75577W        W48002  27.509  34.997   2.661
75578W        W48003   4.416   3.276  14.381
75579W        W48004  42.054  38.443   2.926
75580W        W48005  15.133  35.496   4.586
75581W        W48006   7.134   5.275  11.999
75582W        W48007  31.390  25.156  12.466
75583W        W48008  36.558  17.346  14.139
75584W        W48009  36.540  30.553  10.716
75585W        W48010  25.471  23.379  10.355
75586W        W48011   9.388  17.124   4.816
75587W        W48012  28.134  12.124  11.085
75588W        W48013   3.981   0.155  11.230
75589W        W48014  35.707  30.139   0.798
75590W        W48015  38.593  10.814  13.379
75591W        W48016  21.559   7.389  13.701
75592W        W48017  41.432  42.055  12.592
75593W        W48018  38.167  42.538   0.748
75594W        W48019  24.280  16.690   4.637
75595W        W48020   8.433  35.905  12.757
75596W        W48021  18.548  31.097  14.690
75597W        W48022  14.058  24.672  11.046
75598W        W48023  40.291  11.244  12.968
75599W        W48024  42.432  27.915   0.419
75600W        W48025   5.530   7.826   0.181
75601W        W48026  39.382  11.410  12.007
75602W        W48027  37.338  28.655  12.594
75603W        W48028   1.070  19.690  14.678
75604W        W48029  14.764  40.252   0.391
75605W        W48030  24.476  38.165   3.247
75606W        W48031  28.708  26.983   4.156
75607W        W48032  43.299  43.290  12.383
75608W        W48033  22.142  10.600  13.312
75609W        W48034  27.205  43.456   0.478
75610W        W48035  33.125  35.858   2.723
75611W        W48036   1.521   7.676  12.754
75612W        W48037  17.250  38.547  12.995
75613W        W48038  10.369  35.682   3.364
75614W        W48039  29.322  39.022   3.654
75615W        W48040  43.735  40.094   0.358
75616W        W48041  38.092  37.594   3.689
75617W        W48042  29.117  23.703  13.507
75618W        W48043  31.761  35.956  12.211
75619W        W48044   7.404   2.931  10.559
75620W        W48045  15.588  36.540   3.263
75621W        W48046  36.262  34.373   1.437
75622W        W48047  20.525  18.617  13.447
75623W        W48048  12.934   0.213  12.095
75624W        W48049  42.950  28.533  13.122
75625W        W48050   3.676  19.719   3.749
75626W        W48051  31.208  33.576  12.969
75627W        W48052  25.892  35.961   3.950
75628W        W48053  26.597  29.616  11.151
75629W        W48054  36.452  12.080  11.585
75630W        W48055   3.446  44.021  14.719
75631W        W48056  16.754  38.335  14.726
75632W        W48057  38.264  27.605   4.043
75633W        W48058  20.409  14.765   1.328
75634W        W48059   1.862  24.967   3.589
75635W        W48060   5.202  23.127  12.453
75636W        W48061  28.602  31.135  11.094
75637W        W48062   4.874  37.467  10.486
75638W        W48063   7.711  34.476   0.717
75639W        W48064   3.009  31.357   1.297
75640W        W48065   2.344   3.163  12.517
75641W        W48066  41.860  34.950   0.631
75642W        W48067  36.320  14.067   2.363
75643W        W48068  21.668  27.548   4.987
75644W        W48069   4.213  13.887  13.497
75645W        W48070  10.092  38.930  11.991
75646W        W48071  20.012  12.244   3.271
75647W        W48072  40.931  24.039   1.193
75648W        W48073  24.625  10.165  12.026
75649W        W48074  42.738  12.115  11.082
75650W        W48075  22.790  44.281   4.258
75651W        W48076  38.907   5.450   4.106
75652W        W48077  43.144  11.916  14.061
75653W        W48078   9.096  43.572  11.037
75654W        W48079  14.282  43.286   5.208
75655W        W48080   8.975  15.122   4.213
75656W        W48081  36.446   1.062  13.965
75657W        W48082   5.982   5.726   3.149
75658W        W48083  17.342  28.170   0.789
75659W        W48084  17.375   8.800   1.269
75660W        W48085  10.590  16.567   3.134
75661W        W48086   3.395  24.159  14.893
75662W        W48087  11.372   1.499  10.505
75663W        W48088  30.301  24.462   5.166
75664W        W48089  12.128   0.262  12.420
75665W        W48090  32.933  10.901  14.234
75666W        W48091  32.982   4.187   4.387
75667W        W48092  23.326  24.248   4.334
75668W        W48093   2.426  35.786   5.075
75669W        W48094  28.995  44.661  12.979
75670W        W48095  21.075  38.073   2.405
75671W        W48096   0.665  15.168   0.778
75672W        W48097   7.445   0.263  11.732
75673W        W48098  18.818  42.160   4.603
75674W        W48099   5.201  12.125   3.296
75675W        W48100  37.470  33.131   3.646
75676W        W48101  41.337  42.493   3.196
75677W        W48102  42.317   6.931   0.180
75678W        W48103  19.812  20.121  14.916
75679W        W48104   6.702  24.663   3.270
75680W        W48105  10.630  14.891   2.726
75681W        W48106  24.942  13.287  12.909
75682W        W48107  10.863  24.596  12.554
75683W        W48108  20.613  27.134  14.511
75684W        W48109  36.597  36.572  11.051
75685W        W48110   2.286  14.623   3.672
75686W        W48111   0.746  32.892   0.868
75687W        W48112  33.083  26.589  10.633
75688W        W48113  31.550  43.959  10.292
75689W        W48114  22.361  14.337   3.698
75690W        W48115   7.294  33.179  13.394
75691W        W48116  20.047  40.087  13.490
75692W        W48117  16.662  16.204   3.068
75693W        W48118  14.860  13.708  12.923
75694W        W48119  25.129  43.549   1.585
75695W        W48120  19.456  15.678   1.682
75696W        W48121  15.730  12.061  10.580
75697W        W48122   3.333   1.427   0.712
75698W        W48123   7.311  43.673  14.730
75699W        W48124  11.372  39.864   0.626
75700W        W48125  39.296  39.096   0.771
75701W        W48126  28.341  32.406  11.145
75702W        W48127   8.374  31.473  11.182
75703W        W48128  22.079  10.904   2.322
75704W        W48129  25.627  43.433   4.641
75705W        W48130  42.274  33.410   4.678
75706W        W48131   0.890  17.980   5.021
75707W        W48132  20.242  34.356   1.066
75708W        W48133  17.250  13.656   3.853
75709W        W48134  42.369  17.531   4.596
75710W        W48135   9.645  40.439  14.067
75711W        W48136  39.601  17.092  11.192
75712W        W48137  39.736  32.706  14.901
75713W        W48138  25.119  29.951  10.649
75714W        W48139  30.979  30.355   3.169
75715W        W48140  20.180   3.184  14.200
75716W        W48141  30.919  39.574   2.168
75717W        W48142   4.796   0.554   1.822
75718W        W48143  41.614  38.061   0.375
75719W        W48144   1.255  42.396   2.684
75720W        W48145  14.854   2.273   2.683
75721W        W48146   7.536  44.208   4.439
75722W        W48147  42.130  19.816   4.567
75723W        W48148  31.948  20.138   5.171
75724W        W48149  44.021  40.994   4.161
75725W        W48150  31.970  19.980  11.080
75726W        W48151  24.112  36.432   2.920
75727W        W48152  14.802  22.027   0.277
75728W        W48153  29.081  24.130  11.130
75729W        W48154  33.985  24.325   0.223
75730W        W48155  28.721   3.995   3.419
75731W        W48156  26.537  42.576  13.254
75732W        W48157  31.530  43.993   2.345
75733W        W48158  10.411  37.989   0.884
75734W        W48159  23.808  12.891   0.478
75735W        W48160   4.441  31.608  10.825
75736W        W48161  28.151  10.860  13.742
75737W        W48162  37.836  20.542  12.188
75738W        W48163  22.712  11.952   4.931
75739W        W48164  43.841  24.964   1.007
75740W        W48165   4.208  27.382  12.956
75741W        W48166   0.983   5.175  10.204
75742W        W48167   7.912  34.899  11.563
75743W        W48168   9.623  14.025   0.317
75744W        W48169  14.035  29.959   0.972
75745W        W48170  39.927   5.895  14.901
75746W        W48171  18.103  10.659   0.481
75747W        W48172   7.863   6.421   4.030
75748W        W48173   8.244  43.797  14.833
75749W        W48174   7.197   2.302   0.676
75750W        W48175  14.909  26.999   4.150
75751W        W48176   2.189  32.206  12.041
75752W        W48177  31.154  10.783  14.712
75753W        W48178   5.661  11.289   4.392
75754W        W48179  41.729  34.806   3.316
75755W        W48180  37.876   2.306   3.263
75756W        W48181   0.478  23.042  14.773
75757W        W48182  37.947  40.627   1.633
75758W        W48183  40.553  39.934  13.965
75759W        W48184  24.468  23.074  11.127
75760W        W48185  28.508   0.311   2.248
75761W        W48186  33.401  20.707  11.210
75762W        W48187   9.171  11.375   2.694
75763W        W48188  13.525  13.609  14.824
75764W        W48189  41.581  35.943  10.747
75765W        W48190  10.178   1.992  12.865
75766W        W48191  25.455  33.791  12.952
75767W        W48192  37.959  31.172  11.006
75768W        W48193  42.046   4.760  12.054
75769W        W48194  23.105   2.902   3.056
75770W        W48195  29.029  24.681   0.005
75771W        W48196  13.375  31.489  12.412
75772W        W48197   3.158   9.589  13.326
75773W        W48198  22.048  25.682   4.505
75774W        W48199  14.260  22.463   0.802
75775W        W48200  39.501  42.410  11.336
75776W        W48201  36.202  12.805   3.704
75777W        W48202  17.670  12.327   2.222
75778W        W48203  10.158  16.855   1.160
75779W        W48204  23.681   1.009   4.108
75780W        W48205  11.929  31.855  14.978
75781W        W48206  20.798  19.783   0.361
75782W        W48207  42.956  22.204   0.761
75783W        W48208   7.869  15.539   0.673
75784W        W48209  34.823  40.920  14.335
75785W        W48210  18.082  32.222  13.747
75786W        W48211  38.090   3.707   4.234
75787W        W48212  28.413   6.350  11.086
75788W        W48213  42.818  13.791   3.359
75789W        W48214   1.255  12.229   0.508
75790W        W48215   3.458  39.321  11.556
75791W        W48216  12.565   0.491  13.458
75792W        W48217  27.528  39.337  12.453
75793W        W48218  13.842  42.647  12.457
75794W        W48219  30.214  15.082   1.768
75795W        W48220  22.827  22.414  10.178
75796W        W48221  43.316  25.592  14.368
75797W        W48222  14.649  34.613   3.689
75798W        W48223   5.380   9.382   4.174
75799W        W48224  43.911  18.991  14.782
75800W        W48225   3.967  28.030  13.538
75801W        W48226  36.760  29.159   0.255
75802W        W48227  35.069   0.858  11.989
75803W        W48228  43.890  23.735  11.541
75804W        W48229  15.703  33.886  10.913
75805W        W48230  11.868  44.361   0.767
75806W        W48231  29.389  21.821   3.242
75807W        W48232  34.698  19.240   2.597
75808W        W48233  33.072  12.610   3.778
75809W        W48234  15.758   3.074  14.243
75810W        W48235  42.559   9.752  11.594
75811W        W48236  34.942  33.853  12.333
75812W        W48237  24.678   7.227  13.455
75813W        W48238  18.492   1.247   0.419
75814W        W48239   6.912   0.227  14.102
75815W        W48240  21.510  10.281  12.007
75816W        W48241  30.211  39.807  10.507
75817W        W48242  43.721  26.719  11.851
75818W        W48243   3.354  13.836  11.957
75819W        W48244   8.923  23.217   0.785
75820W        W48245  21.481  15.095   1.207
75821W        W48246  43.432  34.984  14.289
75822W        W48247  29.645  12.873   1.867
75823W        W48248   5.397  10.620  14.143
75824W        W48249  33.812  14.901  13.814
75825W        W48250  12.759  13.066   0.266
75826W        W48251  14.859  24.066  13.388
75827W        W48252  23.196  14.549  13.215
75828W        W48253  15.248  30.876  14.438
75829W        W48254   7.247  36.423  13.788
75830W        W48255  44.879   1.694   2.203
75831W        W48256  32.620  43.406  12.379
75832W        W48257  15.295  35.371   0.276
75833W        W48258  15.089  19.005  13.976
75834W        W48259  14.964  41.514   2.278
75835W        W48260  18.914  20.648  13.065
75836W        W48261  40.417  42.966  12.184
75837W        W48262   0.183  25.956   2.920
75838W        W48263  41.494  25.928   3.776
75839W        W48264  32.454   1.793   0.367
75840W        W48265   1.382  39.310   4.729
75841W        W48266   7.621  27.567   3.758
75842W        W48267  26.454   4.780   0.972
75843W        W48268   1.364  23.660  13.307
75844W        W48269  22.810  31.918  12.437
75845W        W48270   7.965   7.916  13.134
75846W        W48271  21.001   4.539   3.623
75847W        W48272  14.159  37.549   3.314
75848W        W48273  43.541  40.677  13.306
75849W        W48274   5.722   8.131  14.806
75850W        W48275  38.038  28.592  11.731
75851W        W48276  43.861   6.886  11.116
75852W        W48277  36.323  11.983  14.542
75853W        W48278   4.750  30.954   0.050
75854W        W48279  35.885  20.668  11.800
75855W        W48280  33.937  10.969  14.533
75856W        W48281  13.261  32.567   3.355
75857W        W48282  25.100  19.177  11.661
75858W        W48283  18.315  20.743   2.388
75859W        W48284  30.601  16.073   4.620
75860W        W48285  20.200  14.722   0.437
75861W        W48286  19.657  18.752  13.064
75862W        W48287   5.825  40.860   4.484
75863W        W48288  21.988  31.637   3.291
75864W        W48289  10.514   0.279  10.340
75865W        W48290  37.432   5.067   0.702
75866W        W48291  42.064   9.195  13.247
75867W        W48292  11.809   0.510  11.647
75868W        W48293   8.826  31.864  13.852
75869W        W48294  35.943  12.904  11.594
75870W        W48295   7.921  34.510  13.357
75871W        W48296   2.827  37.237   3.798
75872W        W48297  13.320   1.873  14.480
75873W        W48298  18.095  22.372  14.450
75874W        W48299  22.013  41.681   2.795
75875W        W48300  19.576  33.075  12.030
75876W        W48301  26.983   0.713  10.243
75877W        W48302  32.649  39.090   9.793
75878W        W48303  21.180   5.308  12.436
75879W        W48304  31.118  22.965   0.489
75880W        W48305  18.999  36.133   1.062
75881W        W48306   1.822  15.908  12.630
75882W        W48307   4.953  33.871  13.674
75883W        W48308  25.145  40.082   4.481
75884W        W48309  28.160   8.617   0.544
75885W        W48310  11.305  23.013  11.182
75886W        W48311  19.445  37.029   4.210
75887W        W48312  14.944  34.678  13.029
75888W        W48313  16.271  35.994   5.157
75889W        W48314  13.578  39.840   0.708
75890W        W48315  40.330  31.653  14.070
75891W        W48316  29.964  33.375   3.636
75892W        W48317  26.432  30.904  13.822
75893W        W48318   6.177  41.424  12.463
75894W        W48319  20.509  17.689  11.734
75895W        W48320  28.730   5.345   3.676
75896W        W48321   1.177  41.939   1.407
75897W        W48322  38.305  20.982   3.399
75898W        W48323  28.805  39.109  14.883
75899W        W48324   9.605   5.722   1.870
75900W        W48325  32.055  23.068   0.480
75901W        W48326  40.497   0.781   4.952
75902W        W48327  37.085  22.810   2.665
75903W        W48328  43.069   3.729   3.800
75904W        W48329  14.819   1.699  11.563
75905W        W48330  12.442   4.814   3.207
75906W        W48331   8.681  39.388   3.388
75907W        W48332  21.559  22.789  11.427
75908W        W48333   4.178  30.662  11.864
75909W        W48334  39.613  44.811   1.853
75910W        W48335  19.794   0.941   1.245
75911W        W48336   4.099   9.640  13.502
75912W        W48337  21.624  29.242   3.601
75913W        W48338  14.104  37.575   4.675
75914W        W48339  27.532  22.563   0.469
75915W        W48340  25.324   9.879  12.892
75916W        W48341  20.878  44.443  12.960
75917W        W48342   2.282  13.703  12.382
75918W        W48343  44.028   5.222   0.667
75919W        W48344  23.243  17.638  13.319
75920W        W48345  16.150   1.874  14.786
75921W        W48346  22.624  42.706  12.543
75922W        W48347   7.221  11.109   2.200
75923W        W48348  39.016  17.497  13.614
75924W        W48349  21.552  27.886   4.098
75925W        W48350  34.572  34.433  10.556
75926W        W48351  36.625  17.426   0.458
75927W        W48352  34.677   2.838   5.040
75928W        W48353  36.823  20.220   0.503
75929W        W48354   1.893  18.294  11.990
75930W        W48355  18.492  16.996  12.739
75931W        W48356  11.795  24.738   0.878
75932W        W48357   5.674   8.617  14.964
75933W        W48358  11.825  29.868   2.703
75934W        W48359  25.280   1.128  10.725
75935W        W48360  40.652  16.265  13.907
75936W        W48361  36.958  35.019  10.789
75937W        W48362  32.919  26.719  14.240
75938W        W48363  31.173   8.850   0.261
75939W        W48364  16.666  24.757   2.993
75940W        W48365  34.495   3.747   0.900
75941W        W48366   2.702  19.026   1.053
75942W        W48367   5.676  17.659  12.049
75943W        W48368  24.323   2.811   4.298
75944W        W48369  16.217  43.007  14.093
75945W        W48370   1.046  13.706   2.173
75946W        W48371  18.162  24.524   2.038
75947W        W48372  18.625   2.155   4.627
75948W        W48373  14.220   8.577   1.952
75949W        W48374   3.270  42.212   3.057
75950W        W48375  26.137  43.488  12.535
75951W        W48376  25.389  31.000  13.883
75952W        W48377   1.855   7.913  12.453
75953W        W48378  41.568  10.664  14.746
75954W        W48379  20.595  13.647   2.240
75955W        W48380  36.929  10.838   1.977
75956W        W48381   9.584   0.015   3.293
75957W        W48382   2.433   0.022   0.186
75958W        W48383   4.406  30.623   4.612
75959W        W48384  24.106  23.438   1.332
75960W        W48385  37.823  27.543   2.355
75961W        W48386   8.205  39.527   0.276
75962W        W48387  11.813   1.232  13.054
75963W        W48388  19.919  22.514  14.303
75964W        W48389  29.869  35.434  12.971
75965W        W48390   1.726  23.250   0.750
75966W        W48391  38.563   8.680  14.335
75967W        W48392  42.661  22.754  10.072
75968W        W48393  23.653  17.689   4.141
75969W        W48394   8.400  19.557  14.838
75970W        W48395  41.726  41.556  11.985
75971W        W48396  33.425   6.809  11.585
75972W        W48397  40.009   4.946  13.950
75973W        W48398  25.959   9.765  12.305
75974W        W48399  34.489  27.364  12.382
75975W        W48400  24.542  35.337   4.124
75976W        W48401   4.003   8.338  14.420
75977W        W48402  36.177  38.955   1.885
75978W        W48403  40.464   2.933   1.102
75979W        W48404  16.253   8.399  13.562
75980W        W48405  37.069  41.266  14.347
75981W        W48406   4.336  41.844  10.730
75982W        W48407  34.927  44.496  10.744
75983W        W48408  11.291  11.608  14.223
75984W        W48409   1.824  39.453  12.522
75985W        W48410  32.942  21.636   4.749
75986W        W48411  41.243  30.584   2.616
75987W        W48412   6.857  30.440  13.435
75988W        W48413  41.963   7.803  14.284
75989W        W48414  17.062   0.718   1.751
75990W        W48415  38.958  35.668  10.287
75991W        W48416   0.426  13.760   3.936
75992W        W48417  30.269  13.415   2.197
75993W        W48418  42.056  13.475  11.366
75994W        W48419  41.629  35.299  11.039
75995W        W48420  31.099  11.617  14.446
75996W        W48421  12.952  19.481  11.249
75997W        W48422  37.938  12.389   4.219
75998W        W48423   7.388   3.266   2.929
75999W        W48424  33.119  42.477   3.225
76000W        W48425  23.026  34.915   2.696
76001W        W48426  29.121   6.174   0.887
76002W        W48427  10.732  25.161   0.410
76003W        W48428  35.019  19.706   4.304
76004W        W48429  43.868  41.080  11.025
76005W        W48430  14.547  30.117  12.984
76006W        W48431   3.188  35.922  14.485
76007W        W48432  17.964   3.292   0.826
76008W        W48433  28.040   5.894   2.223
76009W        W48434  32.374  31.394  13.033
76010W        W48435   0.890  35.158  12.153
76011W        W48436   2.467  33.364  14.133
76012W        W48437  18.630  31.600   1.897
76013W        W48438  32.359  34.354   3.120
76014W        W48439   5.686  33.553   3.683
76015W        W48440  26.139  19.081  13.962
76016W        W48441  20.974  24.282   2.682
76017W        W48442   7.017   6.093   2.280
76018W        W48443  16.720  23.125  14.601
76019W        W48444  20.993  30.024   4.158
76020W        W48445  41.002  39.961  12.246
76021W        W48446  32.436   7.859   3.198
76022W        W48447  17.421  24.159   4.607
76023W        W48448  14.241   5.355   4.623
76024W        W48449  25.166  42.674  12.974
76025W        W48450  19.514  37.586   4.279
76026W        W48451  42.821  16.263  12.185
76027W        W48452  35.881  40.560  12.551
76028W        W48453  16.051  12.501  10.632
76029W        W48454  38.715  34.923   5.043
76030W        W48455  15.689  44.887  11.207
76031W        W48456  20.378   4.389  11.177
76032W        W48457   5.915  28.692   1.774
76033W        W48458  43.994  23.698   3.379
76034W        W48459  14.470   9.377   3.706
76035W        W48460   9.624  34.012   2.746
76036W        W48461  10.266   1.462  12.879
76037W        W48462  18.658  30.428   3.767
76038W        W48463  42.041  44.995   2.827
76039W        W48464  38.150  17.036  12.482
76040W        W48465  20.989  11.690   3.639
76041W        W48466  22.422  28.821  11.626
76042W        W48467  21.507  42.957  12.067
76043W        W48468  35.859  16.490   2.220
76044W        W48469  44.943  41.564   2.304
76045W        W48470  29.448  42.767   4.516
76046W        W48471  35.507   2.333  11.597
76047W        W48472  35.621  25.225  12.568
76048W        W48473  26.674  39.981  10.899
76049W        W48474  36.017  17.717   3.596
76050W        W48475  26.150  42.827  10.519
76051W        W48476  33.271  26.191   1.865
76052W        W48477  21.725  43.314   4.194
76053W        W48478  32.416  36.149   4.520
76054W        W48479   0.731  19.374  14.427
76055W        W48480  24.545  43.393   3.739
76056W        W48481   4.702  30.477   3.993
76057W        W48482   7.693  25.171  12.143
76058W        W48483  29.854  17.841   0.145
76059W        W48484  42.530  24.442  14.766
76060W        W48485  44.279  44.636  10.673
76061W        W48486  11.664  25.031  14.408
76062W        W48487  38.904  41.920   3.045
76063W        W48488  22.088   2.968   2.884
76064W        W48489  13.255  18.711  13.954
76065W        W48490  36.599  22.808   2.842
76066W        W48491  33.542  22.692  13.273
76067W        W48492  19.246  27.251  14.263
76068W        W48493  33.014  21.743  14.985
76069W        W48494  38.383  31.900  13.456
76070W        W48495  31.129  42.439   0.576
76071W        W48496  42.845  23.405   1.299
76072W        W48497   0.727  27.481  10.719
76073W        W48498  43.516  14.047   4.558
76074W        W48499   8.516  36.139  10.313
76075W        W48500   9.200  18.577  14.808
76076W        W48501  41.248  30.069   3.248
76077W        W48502  12.872  43.369   0.933
76078W        W48503  33.614  18.382   2.826
76079W        W48504   9.795  22.721  13.770
76080W        W48505  19.173   5.472  11.662
76081W        W48506   3.040  22.661  10.729
76082W        W48507   4.282  21.668   3.354
76083W        W48508   4.355  16.767   2.736
76084W        W48509   8.780  34.640  11.629
76085W        W48510  41.555  26.172  14.341
76086W        W48511  13.550  39.270  12.084
76087W        W48512   5.147  37.003   3.827
76088W        W48513   0.904  17.446  14.503
76089W        W48514  21.362  15.108   4.316
76090W        W48515  36.868  20.086   3.806
76091W        W48516  23.430  40.963  10.751
76092W        W48517  21.140  16.975  13.443
76093W        W48518  41.302  25.306   0.802
76094W        W48519  19.854  22.267  11.286
76095W        W48520  19.035   7.464   2.015
76096W        W48521   6.622  17.679   4.614
76097W        W48522  17.619  29.224   2.662
76098W        W48523  16.530   5.693   1.649
76099W        W48524  26.043  25.795  14.044
76100W        W48525  34.379  10.554  13.729
76101W        W48526  33.827  29.459   3.152
76102W        W48527   0.059  11.259  10.692
76103W        W48528  27.727   8.639  14.948
76104W        W48529   3.434  16.225  11.590
76105W        W48530  14.746  10.354  13.794
76106W        W48531  33.970   6.415   2.256
76107W        W48532  16.692   1.409  13.016
76108W        W48533  40.393  31.633   3.438
76109W        W48534  15.651   1.354   1.796
76110W        W48535  14.301  16.696   2.137
76111W        W48536  18.079  31.212   1.341
76112W        W48537  26.531  43.225  12.011
76113W        W48538  36.945  35.596  11.979
76114W        W48539  33.091   1.505   0.873
76115W        W48540   5.267   7.284  12.241
76116W        W48541  26.149   1.925  12.447
76117W        W48542  21.234   7.396   0.577
76118W        W48543  31.194   3.947  12.404
76119W        W48544  15.178  42.611   3.247
76120W        W48545   9.205  39.384   3.671
76121W        W48546  34.101   4.439  10.660
76122W        W48547  25.730  18.339  13.713
76123W        W48548  19.158   1.652  10.849
76124W        W48549  15.759   4.913  12.891
76125W        W48550  13.644  35.615   2.426
76126W        W48551  25.344   3.306   4.638
76127W        W48552  18.770   9.850   3.304
76128W        W48553  43.775  41.069  14.495
76129W        W48554  31.645  30.641   1.443
76130W        W48555   1.384   9.407  10.771
76131W        W48556  32.871  31.855  10.266
76132W        W48557  22.002   4.784  10.648
76133W        W48558   2.890   1.492  10.671
76134W        W48559  21.585  24.275  13.528
76135W        W48560  23.090  44.225  10.337
76136W        W48561  33.617  29.939  10.768
76137W        W48562  41.038  17.038   2.101
76138W        W48563  26.557  26.161  13.057
76139W        W48564  30.940  41.480   4.155
76140W        W48565  23.868   4.086  14.972
76141W        W48566   7.343  12.595  10.891
76142W        W48567  10.410  33.879   1.790
76143W        W48568  16.770  14.095  12.013
76144W        W48569   5.903  20.859   1.491
76145W        W48570  16.070  17.341   2.333
76146W        W48571  43.941  43.197   0.771
76147W        W48572  44.879  18.627  10.578
76148W        W48573  41.263  39.018   1.278
76149W        W48574   6.166   7.930   0.719
76150W        W48575  23.813  36.623   3.523
76151W        W48576   9.610  19.210  14.294
76152W        W48577  38.340  38.762   0.867
76153W        W48578  28.600  22.661   1.319
76154W        W48579   5.437  35.003  14.297
76155W        W48580  39.952  18.324   1.942
76156W        W48581   8.123  37.199  14.039
76157W        W48582  29.503  17.429  10.681
76158W        W48583   6.584  43.464  14.868
76159W        W48584  15.178   1.477   2.201
76160W        W48585   5.236  22.752  11.176
76161W        W48586   6.829   0.591  13.197
76162W        W48587  27.606  41.245  12.179
76163W        W48588  41.434  38.421  12.671
76164W        W48589  32.158  26.015  14.420
76165W        W48590  20.361  42.310   0.789
76166W        W48591  37.221   7.422   3.773
76167W        W48592  30.207  33.172  14.332
76168W        W48593   4.821  30.977  11.125
76169W        W48594  19.181  25.307  12.915
76170W        W48595  22.084  24.482  13.321
76171W        W48596  25.260   4.211   4.445
76172W        W48597  27.709  44.096  13.369
76173W        W48598  29.719  33.139  12.120
76174W        W48599  14.368   5.140  10.758
76175W        W48600  12.347   4.203  14.241
76176W        W48601  15.155  35.556   1.656
76177W        W48602  18.857  35.017   2.817
76178W        W48603  12.320  43.214  12.027
76179W        W48604  30.220  36.507  11.543
76180W        W48605  11.878   8.413   3.731
76181W        W48606   3.294  14.189  12.826
76182W        W48607  33.632  37.352   2.216
76183W        W48608  12.197  10.378  14.854
76184W        W48609  32.977  11.403  14.411
76185W        W48610  23.042  21.692  11.645
76186W        W48611  20.247  32.639  14.600
76187W        W48612  28.988  14.149  14.851
76188W        W48613  26.022  41.206  10.999
76189W        W48614  20.892  12.147   4.237
76190W        W48615  22.017  19.671   1.691
76191W        W48616  34.361  10.749   0.189
76192W        W48617  29.525   6.809   4.437
76193W        W48618  14.366  11.255  13.799
76194W        W48619  44.087   9.364   0.483
76195W        W48620  27.047  24.867   1.772
76196W        W48621  10.906  30.875  12.616
76197W        W48622  21.681  41.886  11.340
76198W        W48623  28.563  10.577  11.910
76199W        W48624  24.138  42.352  14.351
76200W        W48625  25.904  38.026  10.714
76201W        W48626  17.183  27.724  10.607
76202W        W48627  18.285   0.162  14.510
76203W        W48628  37.671  18.312   1.847
76204W        W48629  21.072  27.125   3.936
76205W        W48630  15.895   9.708   3.720
76206W        W48631  16.022  39.282   4.654
76207W        W48632   1.230  20.250  10.991
76208W        W48633   4.368   6.834  11.209
76209W        W48634  18.629  16.770   0.939
76210W        W48635  36.893   6.026  13.927
76211W        W48636  29.070  24.972  12.895
76212W        W48637   2.833  21.919   4.886
76213W        W48638   1.020   6.685  12.087
76214W        W48639  41.094  22.949   2.700
76215W        W48640  25.767  14.256   1.440
76216W        W48641  10.388   2.395  13.735
76217W        W48642  34.966  39.956   4.670
76218W        W48643  43.266  27.565  10.775
76219W        W48644  17.173  22.628   4.597
76220W        W48645  30.424   6.732  10.686
76221W        W48646   1.374  42.985   4.555
76222W        W48647  13.208  24.871  11.584
76223W        W48648  37.961  10.306  11.590
76224W        W48649  25.056  17.597   4.643
76225W        W48650   5.208  13.744   2.266
76226W        W48651   1.548  15.242  10.613
76227W        W48652  39.875  39.520  11.508
76228W        W48653   2.267  37.218   2.068
76229W        W48654  29.013  21.059  12.888
76230W        W48655  19.843  14.620  11.645
76231W        W48656  12.599  19.016  14.918
76232W        W48657  14.318  41.766  11.441
76233W        W48658  34.358  26.177   2.581
76234W        W48659  37.036   2.273  14.674
76235W        W48660  34.541  15.196   2.163
76236W        W48661  20.839  41.531  10.556
76237W        W48662  19.756  37.649   3.358
76238W        W48663  20.700   1.434  12.567
76239W        W48664  36.014   6.359  10.766
76240W        W48665  39.877   7.813   0.474
76241W        W48666  42.649  39.087  10.819
76242W        W48667  35.743   1.392   3.349
76243W        W48668  44.457  35.125   2.786
76244W        W48669  37.367  40.104  14.108
76245W        W48670   6.913  16.700   3.226
76246W        W48671  22.557  42.080  13.581
76247W        W48672  32.027  38.253   2.209
76248W        W48673  23.914  43.621  13.971
76249W        W48674  18.742  15.382  10.731
76250W        W48675  35.594   1.255  10.866
76251W        W48676  34.546  21.386  10.666
76252W        W48677  12.344  10.767   0.262
76253W        W48678  26.955  35.401  13.353
76254W        W48679  18.716  35.314   1.701
76255W        W48680  27.347  30.192  11.434
76256W        W48681  31.086  22.052  13.964
76257W        W48682  18.123  12.354  14.342
76258W        W48683  28.353  13.615  13.419
76259W        W48684  44.284   2.765   2.685
76260W        W48685  19.684  12.056   1.945
76261W        W48686  44.272   6.278  11.066
76262W        W48687   0.262  34.120  13.910
76263W        W48688  12.217  36.455   1.942
76264W        W48689   0.632  12.462   0.905
76265W        W48690  29.246  22.691  11.712
76266W        W48691  24.708  13.544  11.497
76267W        W48692  35.372  16.709  13.005
76268W        W48693  15.641  27.042  12.877
76269W        W48694   4.486  13.260  11.382
76270W        W48695  11.349   8.646  12.806
76271W        W48696  42.341  23.904   2.530
76272W        W48697  26.242  25.759   3.263
76273W        W48698   3.891  11.327   4.644
76274W        W48699  40.509  13.285   1.124
76275W        W48700  44.690  30.374   4.702
76276W        W48701  10.287  26.127  12.663
76277W        W48702  28.037  29.262   2.666
76278W        W48703   1.722   6.018  14.857
76279W        W48704  11.595   7.252  13.125
76280W        W48705  39.601  17.813   2.719
76281W        W48706   9.148  16.664   3.150
76282W        W48707  22.764  19.056   2.636
76283W        W48708  27.942  16.357  11.041
76284W        W48709  27.500  37.989  14.738
76285W        W48710  37.474  29.129  12.297
76286W        W48711  40.436  25.154   3.298
76287W        W48712   5.849  29.825   3.857
76288W        W48713   2.191  12.711   3.711
76289W        W48714  36.323  39.683  11.938
76290W        W48715  26.711  10.927   0.868
76291W        W48716  23.152  23.733   0.303
76292W        W48717  42.879  26.441  11.209
76293W        W48718  42.678  26.667  12.375
76294W        W48719   1.936  41.126  11.725
76295W        W48720  36.005  20.188  13.993
76296W        W48721  20.140  25.563  14.968
76297W        W48722  33.998  24.188   0.729
76298W        W48723  17.728  33.053   0.756
76299W        W48724  34.478  24.118  10.959
76300W        W48725  36.887  20.699  12.979
76301W        W48726  17.149  33.741  12.077
76302W        W48727  25.853  35.375   0.789
76303W        W48728   3.720  41.619  11.517
76304W        W48729  22.227   0.433   1.429
76305W        W48730  44.895  29.404  14.786
76306W        W48731  41.820  22.815   4.594
76307W        W48732  29.588  11.308  11.687
76308W        W48733   9.192  33.829   3.715
76309W        W48734  29.384   2.367  14.445
76310W        W48735  33.405  30.598   2.610
76311W        W48736   1.826  17.667  12.668
76312W        W48737   1.994  14.522  12.535
76313W        W48738   1.237  13.064  12.477
76314W        W48739  14.920  10.768  11.142
76315W        W48740  17.807  35.176  12.580
76316W        W48741  45.000  34.359   0.382
76317W        W48742  35.554  32.995   2.952
76318W        W48743  20.640  38.130   2.691
76319W        W48744  15.663  15.788   2.745
76320W        W48745  40.063   0.808   1.862
76321W        W48746  10.759  25.704   3.738
76322W        W48747  39.551  29.569  11.049
76323W        W48748  26.965   2.314   3.775
76324W        W48749  29.841  43.829   4.694
76325W        W48750   5.983  24.804  14.394
76326W        W48751  20.817  37.663   1.142
76327W        W48752  31.580   8.944   1.791
76328W        W48753  10.868   9.642   1.271
76329W        W48754  36.548  24.721  14.417
76330W        W48755  12.152  27.386  13.965
76331W        W48756  27.688  32.889  11.857
76332W        W48757  31.639   2.829  14.263
76333W        W48758  25.608  25.196   3.370
76334W        W48759  25.090   9.745  13.903
76335W        W48760  42.286  21.688  10.505
76336W        W48761  10.395  11.141  13.904
76337W        W48762  14.075  13.273  13.010
76338W        W48763  29.676  41.883  14.941
76339W        W48764  15.695  33.359  11.625
76340W        W48765   9.514  33.487  10.696
76341W        W48766  29.573  14.660   1.952
76342W        W48767  37.528  13.562   0.440
76343W        W48768   9.173  38.490   1.232
76344W        W48769  10.955  25.384  12.812
76345W        W48770  20.737  31.921  14.399
76346W        W48771   9.663  44.245   2.243
76347W        W48772  28.951   1.368   0.143
76348W        W48773  30.404   7.288   1.390
76349W        W48774  29.023  31.652  14.416
76350W        W48775   1.902  41.492  12.094
76351W        W48776   1.935   2.398  13.508
76352W        W48777  28.021  34.004  11.644
76353W        W48778  13.741  27.589  14.974
76354W        W48779  24.063  15.079  13.978
76355W        W48780  35.501  12.131   3.267
76356W        W48781   6.406   4.748   1.489
76357W        W48782  42.512  25.684   3.712
76358W        W48783  26.774  20.178  12.876
76359W        W48784  44.788   1.066  10.735
76360W        W48785  22.546   5.340  12.476
76361W        W48786  20.102  18.258   2.598
76362W        W48787  42.752  26.428   1.442
76363W        W48788  16.753  21.776   0.367
76364W        W48789  32.519  11.448   0.679
76365W        W48790  26.466  14.921   3.717
76366W        W48791  35.907  16.547  11.458
76367W        W48792  35.663  21.645   2.852
76368W        W48793  29.145   5.239   0.910
76369W        W48794  29.547  20.550   3.156
76370W        W48795  41.071  41.911   3.591
76371W        W48796  17.308  24.701  10.690
76372W        W48797   1.798  17.489   1.054
76373W        W48798  35.959  37.333  11.097
76374W        W48799  38.400  35.383  13.446
76375W        W48800  18.144  27.186  11.480
76376W        W48801  24.538  44.573  13.471
76377W        W48802  42.590  37.520   2.747
76378W        W48803   2.333  44.446  13.412
76379W        W48804  43.743  41.302  12.671
76380W        W48805  42.602  14.709  13.872
76381W        W48806  25.405   7.235   3.740
76382W        W48807  26.598  37.496  10.748
76383W        W48808   9.118  12.618   3.300
76384W        W48809  40.806   7.272  14.716
76385W        W48810   4.136  36.060  13.186
76386W        W48811  17.132   8.220  13.517
76387W        W48812  30.250  24.968   5.025
76388W        W48813  26.115  14.200  13.206
76389W        W48814   4.301   0.991  13.807
76390W        W48815  39.514  23.318   2.149
76391W        W48816   3.306  14.138  10.982
76392W        W48817  19.588   9.023  11.510
76393W        W48818   7.637   9.289   2.274
76394W        W48819  19.141   3.926   1.367
76395W        W48820  20.547  15.851  12.033
76396W        W48821  22.162  17.232   0.979
76397W        W48822   8.542  40.407   9.996
76398W        W48823   1.772  31.589  11.321
76399W        W48824  25.937  15.613  14.011
76400W        W48825  15.705  14.072  10.712
76401W        W48826   7.256  44.162  14.850
76402W        W48827  14.499  30.880  11.976
76403W        W48828  39.312  24.307   0.775
76404W        W48829  27.477  12.150  13.041
76405W        W48830  15.834  12.619   0.808
76406W        W48831  32.396  17.314  14.988
76407W        W48832  19.699  44.523   1.943
76408W        W48833  31.156  12.189   3.068
76409W        W48834   4.748  12.336   1.810
76410W        W48835  34.740  44.960   1.435
76411W        W48836  29.549  15.952   3.916
76412W        W48837  40.399  43.156   4.404
76413W        W48838  10.796  35.374   1.649
76414W        W48839   6.945  27.670   0.308
76415W        W48840  34.128   1.336   1.597
76416W        W48841  41.015   3.605   0.792
76417W        W48842   3.180  38.316  11.525
76418W        W48843  27.417  20.108   2.780
76419W        W48844   1.467  42.126   3.255
76420W        W48845  37.380  24.457  11.999
76421W        W48846  31.162  11.870  10.850
76422W        W48847  34.122   8.772  12.875
76423W        W48848  11.051  12.300  13.075
76424W        W48849  18.258  26.207  10.741
76425W        W48850  15.554  31.826  14.340
76426W        W48851   0.575  10.105   1.412
76427W        W48852  42.995  11.427  13.877
76428W        W48853  32.663  39.656  13.489
76429W        W48854  39.246  14.282   2.632
76430W        W48855   9.944  40.964   3.705
76431W        W48856  25.011  20.178   1.372
76432W        W48857  27.354  44.291  10.136
76433W        W48858  17.087  37.332  14.980
76434W        W48859   0.337  10.833  13.896
76435W        W48860  44.970  44.096  11.078
76436W        W48861  31.619  18.232  12.146
76437W        W48862  22.854  24.209  12.898
76438W        W48863   6.682  38.648   3.234
76439W        W48864   9.875  41.756   0.551
76440W        W48865   8.627  25.605  14.411
76441W        W48866  28.513  30.713   1.289
76442W        W48867  16.729  43.052   1.300
76443W        W48868  19.656  11.092  14.414
76444W        W48869  15.603  33.917  12.449
76445W        W48870   4.783  18.246   3.972
76446W        W48871  12.124   8.923   2.829
76447W        W48872   3.703  18.142   0.190
76448W        W48873  19.064  37.388  14.849
76449W        W48874  14.646  10.822  13.017
76450W        W48875  17.126   9.764  10.120
76451W        W48876  18.716  28.704   0.859
76452W        W48877  34.153  40.499   2.027
76453W        W48878  31.959  23.472  12.325
76454W        W48879  22.608  27.373  11.532
76455W        W48880  11.164   7.927   4.552
76456W        W48881   8.757  18.337  11.843
76457W        W48882   6.001  29.660   0.815
76458W        W48883  19.694   3.620  13.596
76459W        W48884  34.778   2.180   0.285
76460W        W48885  29.166   7.235  12.380
76461W        W48886  16.183   9.711   2.597
76462W        W48887  27.486  32.542  10.657
76463W        W48888  27.043   1.239   1.426
76464W        W48889  10.795  18.238   0.412
76465W        W48890   3.419  38.315  13.296
76466W        W48891  23.025  42.509  12.773
76467W        W48892  42.545  32.649  12.107
76468W        W48893  20.747  44.171  14.479
76469W        W48894  38.787  43.684  13.161
76470W        W48895   4.858  35.064   0.483
76471W        W48896  12.755  20.538  11.155
76472W        W48897  34.826   4.729  11.935
76473W        W48898  20.740   6.681   1.915
76474W        W48899  12.850   9.316  13.878
76475W        W48900   1.705   7.861  11.599
76476W        W48901  28.587   2.782   4.908
76477W        W48902  34.594  37.465   2.619
76478W        W48903  24.658  38.227   1.342
76479W        W48904  33.073  23.256  13.962
76480W        W48905  38.431   1.936  14.025
76481W        W48906  34.981  34.832  12.076
76482W        W48907  41.319  24.490   4.001
76483W        W48908  24.353  34.098   1.205
76484W        W48909  25.115  16.225  11.603
76485W        W48910   7.291  20.797   3.275
76486W        W48911  40.917   0.868  13.767
76487W        W48912   8.343  40.921  11.083
76488W        W48913  28.076  11.617  10.959
76489W        W48914   4.434  22.670   0.743
76490W        W48915   7.751  18.702   1.417
76491W        W48916  35.855  39.395   1.759
76492W        W48917  14.580  28.531   2.312
76493W        W48918   2.691  14.664  11.246
76494W        W48919  37.621  22.288  12.716
76495W        W48920  36.519  25.204  12.573
76496W        W48921  10.943  10.646   4.664
76497W        W48922  13.100  41.528   0.795
76498W        W48923   0.014  27.081  13.446
76499W        W48924   3.230  17.810   3.030
76500W        W48925  15.814  32.450   1.846
76501W        W48926  25.688  34.563  12.678
76502W        W48927  10.878  10.226  10.969
76503W        W48928  29.998  14.420   2.478
76504W        W48929  29.256  10.038  11.091
76505W        W48930  21.681  42.611  10.734
76506W        W48931  37.944  43.233   4.099
76507W        W48932  10.248   8.591   4.286
76508W        W48933  11.802  30.050  14.386
76509W        W48934  31.430  27.700   0.798
76510W        W48935  28.036  26.003   0.716
76511W        W48936  22.074  40.866  14.927
76512W        W48937  12.653  26.747   2.798
76513W        W48938  30.574  28.985   3.270
76514W        W48939  40.634   2.394   2.530
76515W        W48940  16.216  14.901  10.790
76516W        W48941  14.102   7.333  13.421
76517W        W48942  40.369   0.778   2.340
76518W        W48943  37.880  29.120   3.333
76519W        W48944  15.088  38.307  12.342
76520W        W48945  12.908   0.172   1.247
76521W        W48946  23.184  33.488  12.018
76522W        W48947  18.414  38.342   2.728
76523W        W48948  17.297   7.695  10.683
76524W        W48949  14.189   4.835   3.397
76525W        W48950  23.030  14.107   0.036
76526W        W48951  13.648   0.392   0.993
76527W        W48952  43.604  20.418   4.113
76528W        W48953  27.235  40.879  13.176
76529W        W48954  30.878  16.053   1.895
76530W        W48955   4.452  28.134  14.784
76531W        W48956  22.553  39.271  13.118
76532W        W48957   1.716  25.635   0.890
76533W        W48958  28.379  21.128   0.313
76534W        W48959  25.280  20.547   1.967
76535W        W48960  41.483  10.585   4.897
76536W        W48961  37.163  31.469  14.285
76537W        W48962   4.988  22.665  13.092
76538W        W48963  29.481  30.384   1.442
76539W        W48964  17.795  30.585  14.732
76540W        W48965  40.661   3.854  14.374
76541W        W48966  28.133  22.027   2.928
76542W        W48967  23.136   8.226  12.016
76543W        W48968  14.032  16.179   1.936
76544W        W48969  36.170  28.651   3.640
76545W        W48970  20.256  20.448  11.117
76546W        W48971  34.449  26.090  11.502
76547W        W48972  44.782  44.459  10.775
76548W        W48973  13.528  16.132  13.819
76549W        W48974  19.737  24.046   1.249
76550W        W48975  43.125  33.287   3.144
76551W        W48976  15.753  27.462  11.474
76552W        W48977  37.154  33.227   2.186
76553W        W48978  27.109  25.004   0.238
76554W        W48979  32.631  30.535   4.167
76555W        W48980  34.437   4.675  13.518
76556W        W48981   9.141   0.990   2.172
76557W        W48982  15.450  34.895  11.673
76558W        W48983  40.361  14.114   4.640
76559W        W48984  41.799  19.860  12.025
76560W        W48985  32.601  43.795  13.187
76561W        W48986  28.684  37.409  10.644
76562W        W48987  10.004  39.162   3.355
76563W        W48988   4.928  40.753  14.298
76564W        W48989  27.934  28.990   1.219
76565W        W48990   6.445  28.858  14.871
76566W        W48991   3.377  24.043   1.698
76567W        W48992  10.525  18.733   3.647
76568W        W48993  14.170  34.484   3.809
76569W        W48994  37.488   6.942  14.485
76570W        W48995  17.702   1.715   0.323
76571W        W48996   1.035  21.645  13.855
76572W        W48997  17.620   5.193  14.740
76573W        W48998  15.678  43.226  13.406
76574W        W48999  34.514   1.865   2.278
76575W        W49000   0.927  10.185  11.131
76576W        W49001  27.385   2.002  13.047
76577W        W49002  22.049  11.797  14.513
76578W        W49003  32.562  41.810  10.678
76579W        W49004  19.168  37.930   4.164
76580W        W49005  30.531   0.502   3.571
76581W        W49006   1.172  19.640   0.178
76582W        W49007  29.360  19.357  14.361
76583W        W49008  32.402  37.393  13.924
76584W        W49009  42.738  37.598  10.888
76585W        W49010  38.566  11.215  14.457
76586W        W49011  40.054  21.303   4.134
76587W        W49012  28.417  31.991   3.204
76588W        W49013  27.511  11.766  12.472
76589W        W49014   2.900   9.376  11.546
76590W        W49015  22.372  23.154  14.458
76591W        W49016  20.125  13.112  11.736
76592W        W49017  11.095  16.581  14.031
76593W        W49018  18.041  18.628  13.568
76594W        W49019  14.327  40.238  14.405
76595W        W49020   6.834  21.208   0.357
76596W        W49021  41.001  13.368  12.529
76597W        W49022  26.696   2.861  10.654
76598W        W49023  37.401  37.560  11.990
76599W        W49024   4.922  36.108  11.826
76600W        W49025  22.815   7.727   3.103
76601W        W49026  21.728   4.886  14.832
76602W        W49027  15.374  13.207   3.077
76603W        W49028  25.275   7.294   4.686
76604W        W49029  16.743  16.682  12.886
76605W        W49030  10.670  10.674  11.835
76606W        W49031  36.142   7.408  14.409
76607W        W49032  15.864   2.335   2.893
76608W        W49033   4.106   0.432   1.439
76609W        W49034  36.785   9.256  10.204
76610W        W49035   2.809   6.770  12.386
76611W        W49036  32.056   2.190   1.704
76612W        W49037  16.531  13.109   3.493
76613W        W49038  44.112  31.612  11.327
76614W        W49039   8.963   9.223  14.358
76615W        W49040   9.266  30.912   4.840
76616W        W49041  36.377  25.233  11.494
76617W        W49042  39.790  18.322   3.785
76618W        W49043  39.423  38.816   1.197
76619W        W49044  31.456  32.139  11.992
76620W        W49045  43.335   8.192   1.325
76621W        W49046  39.878  22.704   2.261
76622W        W49047  14.860  37.386   1.776
76623W        W49048  33.608  40.124  13.376
76624W        W49049  30.111  44.310  11.219
76625W        W49050  23.460  36.951   4.995
76626W        W49051  38.315  17.715   2.238
76627W        W49052  20.613  31.487  12.622
76628W        W49053  26.553   1.947  10.793
76629W        W49054  37.440  43.533   3.225
76630W        W49055  39.374  39.427   3.400
76631W        W49056  14.214  26.007  13.956
76632W        W49057  13.656  10.327   1.349
76633W        W49058  30.858  20.005   0.333
76634W        W49059  27.517  10.529  11.193
76635W        W49060  42.530  25.873  13.435
76636W        W49061  10.778  31.700  11.487
76637W        W49062  12.093   5.322   3.972
76638W        W49063  32.089  21.453  14.897
76639W        W49064  29.017  36.917   1.803
76640W        W49065  30.539   4.799   4.183
76641W        W49066  37.498  43.553   1.249
76642W        W49067   8.880  34.027   1.764
76643W        W49068   8.788  42.235   4.209
76644W        W49069  25.051  16.317   2.861
76645W        W49070  19.116  38.522  12.847
76646W        W49071  27.907  10.311  13.871
76647W        W49072   6.766   8.719   0.805
76648W        W49073  19.540   1.169   0.272
76649W        W49074  29.573   9.841   2.557
76650W        W49075  26.596  22.707  13.495
76651W        W49076  14.556  42.984   3.062
76652W        W49077   4.262  12.289  13.465
76653W        W49078  41.844  13.366   4.651
76654W        W49079  26.467  24.804   2.149
76655W        W49080  26.482   8.226  13.087
76656W        W49081   6.191  13.956   4.748
76657W        W49082  26.979   1.814  14.962
76658W        W49083  26.635   4.168  12.979
76659W        W49084  11.117   5.766  14.700
76660W        W49085  11.052  35.797   1.743
76661W        W49086  44.040  15.600  14.822
76662W        W49087  22.303   4.815   1.859
76663W        W49088  33.424  11.166  11.697
76664W        W49089  43.092  11.969  14.979
76665W        W49090   9.353  43.915  14.207
76666W        W49091  19.463  24.466   3.017
76667W        W49092  44.541  14.420  13.874
76668W        W49093  35.855  30.478  14.735
76669W        W49094  18.682  33.362   3.176
76670W        W49095   7.760  23.207   1.244
76671W        W49096  17.135  28.936  14.574
76672W        W49097  17.480  31.441   0.622
76673W        W49098  19.278  25.270   2.071
76674W        W49099  15.986  38.271   3.551
76675W        W49100  14.344  27.559  11.020
76676W        W49101  12.632  34.518   1.711
76677W        W49102  31.808   6.958   0.358
76678W        W49103  28.848  26.380   1.465
76679W        W49104  41.770  30.957   0.464
76680W        W49105  33.925  13.589   4.197
76681W        W49106  30.434   1.477   3.726
76682W        W49107  39.239  36.937  13.283
76683W        W49108   3.126   7.258   4.062
76684W        W49109   8.101  17.536   1.795
76685W        W49110   8.297  28.423   1.311
76686W        W49111  34.129   7.395  12.690
76687W        W49112  30.584  21.709  12.152
76688W        W49113  34.096   2.079  14.522
76689W        W49114   6.239  30.569  13.530
76690W        W49115  13.267  40.721   2.729
76691W        W49116  35.940  41.866  12.061
76692W        W49117  20.916  35.717   1.645
76693W        W49118   5.942  20.702   0.041
76694W        W49119  16.629  10.750  11.604
76695W        W49120  39.041  14.200  13.346
76696W        W49121  30.174  44.024  12.970
76697W        W49122  35.438  18.756   3.619
76698W        W49123  43.398  42.897  13.381
76699W        W49124  14.824   5.886   4.822
76700W        W49125  21.117  30.567   1.741
76701W        W49126  19.032   3.826   4.472
76702W        W49127   2.238  22.602   2.131
76703W        W49128  12.380   8.768   3.281
76704W        W49129   3.559  29.617   4.792
76705W        W49130  40.778  33.347   3.702
76706W        W49131  30.626  15.922  13.382
76707W        W49132  26.859  43.989  11.009
76708W        W49133  23.718  10.563  11.858
76709W        W49134  27.484  20.777   4.160
76710W        W49135  42.497  28.526   1.717
76711W        W49136  27.110  10.361  14.428
76712W        W49137  13.288  33.901  14.403
76713W        W49138  28.617  32.224  14.340
76714W        W49139   7.000  17.298   2.344
76715W        W49140  18.783  17.949  10.138
76716W        W49141  42.447  32.939   4.806
76717W        W49142   5.842  32.725   2.617
76718W        W49143   9.817  44.810  13.338
76719W        W49144  23.051  34.064   2.146
76720W        W49145  33.841  18.321   0.964
76721W        W49146  16.836   0.679  13.642
76722W        W49147  40.898  40.350   3.079
76723W        W49148  36.017  26.302   1.304
76724W        W49149  12.291  33.999  13.085
76725W        W49150   5.001  40.151   2.143
76726W        W49151  41.826  21.240  11.620
76727W        W49152  42.791  44.751  10.706
76728W        W49153   4.124   7.910  11.900
76729W        W49154   7.334  10.314   0.250
76730W        W49155  22.630   0.906   1.860
76731W        W49156   9.195  23.773   3.090
76732W        W49157  36.757  40.997  10.787
76733W        W49158  39.991  44.975  12.383
76734W        W49159  41.934   7.116  14.853
76735W        W49160  25.052  15.897   1.409
76736W        W49161   7.173  19.445   2.670
76737W        W49162  20.109  38.474  12.356
76738W        W49163  25.665  33.400  10.604
76739W        W49164   5.799  38.087   2.697
76740W        W49165  44.011  43.613   0.465
76741W        W49166  27.110  27.952   0.513
76742W        W49167  15.556  28.157  13.677
76743W        W49168  22.263  26.603  13.409
76744W        W49169  13.252  34.249   5.121
76745W        W49170  43.951  21.173   4.660
76746W        W49171   0.285   0.327  12.936
76747W        W49172  29.157   1.610  14.712
76748W        W49173  31.968  18.821  13.813
76749W        W49174  25.351  40.046   1.867
76750W        W49175   5.203   8.639   3.642
76751W        W49176  27.383   7.167  13.593
76752W        W49177  20.180  36.951   3.112
76753W        W49178  35.571  33.355  12.869
76754W        W49179  43.427  37.015   1.706
76755W        W49180  27.277  26.057  12.585
76756W        W49181  22.380   7.395  11.132
76757W        W49182   9.299  14.800  12.475
76758W        W49183  30.303   8.731  11.574
76759W        W49184  12.182  44.459   3.132
76760W        W49185  14.878  40.605   5.093
76761W        W49186  30.798   2.455   3.774
76762W        W49187  36.328  17.142   3.885
76763W        W49188  44.806   7.948   2.397
76764W        W49189  41.316  10.464   3.314
76765W        W49190  26.261  40.823  10.768
76766W        W49191   5.824  11.163   1.361
76767W        W49192  24.343  13.161  11.501
76768W        W49193  44.915  24.967   2.900
76769W        W49194  33.197  29.978   0.287
76770W        W49195  35.410  36.161  11.113
76771W        W49196  32.388  27.171  10.948
76772W        W49197  22.982  15.257   4.579
76773W        W49198  28.552  21.273   1.808
76774W        W49199  43.349  31.597  11.968
76775W        W49200  27.991  11.699  14.304
76776W        W49201  36.192  12.528  12.449
76777W        W49202   6.722   7.452  12.264
76778W        W49203   3.468  15.333  11.971
76779W        W49204  41.513  22.782   3.857
76780W        W49205  24.244  45.000  10.816
76781W        W49206   1.312   3.417  14.936
76782W        W49207  38.787  36.815  13.602
76783W        W49208  28.970  10.857   1.418
76784W        W49209  36.088  44.990  10.471
76785W        W49210  26.601  28.768  12.402
76786W        W49211  27.561   1.706  10.727
76787W        W49212   9.837  24.564   3.896
76788W        W49213  18.288  38.380   2.222
76789W        W49214  34.670   2.854  13.501
76790W        W49215   4.959  37.528  13.822
76791W        W49216  30.992   1.419  14.282
76792W        W49217  38.112  26.072   0.880
76793W        W49218  30.975  37.267   3.684
76794W        W49219  22.220   4.363  12.504
76795W        W49220  10.720  42.655   3.777
76796W        W49221  38.563  10.418  12.464
76797W        W49222  32.229  35.954  11.994
76798W        W49223   2.948  40.783   3.671
76799W        W49224  37.843  24.005   3.630
76800W        W49225   6.760  40.335  10.629
76801W        W49226  39.262  38.123   1.775
76802W        W49227   5.700   6.760   3.226
76803W        W49228   6.883  33.143  12.057
76804W        W49229  40.526  41.862  10.648
76805W        W49230   3.174  31.174   4.103
76806W        W49231  41.722  43.219  11.049
76807W        W49232  38.329  29.851  11.533
76808W        W49233  15.777  42.606   1.443
76809W        W49234  37.747  22.281  11.138
76810W        W49235   8.956  30.719  10.635
76811W        W49236  24.817  26.650  11.557
76812W        W49237   0.827  26.570   3.409
76813W        W49238  11.571  15.202  11.523
76814W        W49239   7.863  15.278  10.531
76815W        W49240   4.772   9.112   2.855
76816W        W49241  32.660   4.349   2.403
76817W        W49242  36.020   0.744  13.488
76818W        W49243  23.755  20.787  11.053
76819W        W49244  32.899   6.751   4.602
76820W        W49245  44.361  38.438   1.468
76821W        W49246  21.298  20.086   4.573
76822W        W49247  31.340   5.006  12.486
76823W        W49248  16.214  24.943   0.628
76824W        W49249   9.187  39.338   0.634
76825W        W49250  29.512   1.498  12.999
76826W        W49251  28.540  17.522   0.360
76827W        W49252  10.563  31.635   0.740
76828W        W49253  37.545  14.428  14.918
76829W        W49254  24.236  30.710   4.541
76830W        W49255  12.600   8.846   0.329
76831W        W49256  14.299   2.197  13.089
76832W        W49257   7.750   5.373  10.340
76833W        W49258  21.746  30.146   0.739
76834W        W49259  14.742  27.138   2.307
76835W        W49260  30.911  10.859   1.760
76836W        W49261  15.681  36.821  11.633
76837W        W49262  41.354   8.673  12.631
76838W        W49263  34.009  43.595   1.374
76839W        W49264   0.868  33.224   1.264
76840W        W49265  19.965  26.781   1.531
76841W        W49266  26.055   3.801   3.156
76842W        W49267   7.190   9.897   2.990
76843W        W49268  20.004  11.214  12.992
76844W        W49269   7.671  29.004  10.735
76845W        W49270   4.718  24.650  13.963
76846W        W49271   0.428  23.751  12.002
76847W        W49272  21.793  18.642  13.761
76848W        W49273   1.639  26.135   4.754
76849W        W49274  36.863  29.884   3.208
76850W        W49275   8.132  12.119   3.652
76851W        W49276  21.657  28.998  14.816
76852W        W49277  30.998  14.120  11.711
76853W        W49278  34.981   6.755   0.903
76854W        W49279  22.495   5.956   3.214
76855W        W49280  37.358  28.575  13.477
76856W        W49281  42.450  22.121   1.879
76857W        W49282  31.418  25.110  14.929
76858W        W49283  30.134  39.287  10.445
76859W        W49284  21.013  25.011   1.830
76860W        W49285  38.354  40.817   4.533
76861W        W49286   6.590  26.980  11.929
76862W        W49287  40.905  27.640  10.341
76863W        W49288  41.236  38.337   4.663
76864W        W49289  24.503  38.120   2.316
76865W        W49290  34.256  30.454  11.225
76866W        W49291   7.087  23.599   4.570
76867W        W49292  21.324   1.804  11.139
76868W        W49293  23.013  13.845   4.396
76869W        W49294  44.320  34.579   2.747
76870W        W49295   2.744  30.354  11.974
76871W        W49296   2.855  26.208   3.245
76872W        W49297  23.728  35.131  13.002
76873W        W49298   1.804  34.807  11.895
76874W        W49299  12.811  36.827   1.856
76875W        W49300  14.023  21.729  10.381
76876W        W49301  34.049  43.500  12.564
76877W        W49302  14.799  36.482  13.044
76878W        W49303  14.289  32.036  13.762
76879W        W49304  35.442  34.617   3.844
76880W        W49305  11.257  17.759  14.262
76881W        W49306  37.540  21.127   1.937
76882W        W49307  33.958  40.227   4.077
76883W        W49308  24.635  26.499   4.127
76884W        W49309  44.694   5.599   1.995
76885W        W49310  28.077  26.109   0.204
76886W        W49311  11.864   5.356  13.093
76887W        W49312  32.111   3.182  13.839
76888W        W49313  10.518   0.844   2.218
76889W        W49314  40.403  10.908  14.836
76890W        W49315  36.444  15.125  11.073
76891W        W49316  42.501  40.777   4.225
76892W        W49317   3.091  21.884  12.863
76893W        W49318  14.282  28.398   0.957
76894W        W49319  22.396  11.226   1.212
76895W        W49320   0.550  30.111   4.601
76896W        W49321  44.350  13.422  13.895
76897W        W49322  10.721  22.984  12.050
76898W        W49323  36.404  34.309  13.814
76899W        W49324  18.130  12.377   1.896
76900W        W49325  14.033   3.842  11.203
76901W        W49326   7.792  10.095   4.138
76902W        W49327  14.162  20.416  12.160
76903W        W49328  15.628  18.929   0.569
76904W        W49329  40.298   5.138  11.659
76905W        W49330  25.565  21.069  10.615
76906W        W49331  40.420  10.098   0.865
76907W        W49332   6.309  13.631  14.301
76908W        W49333  15.978  20.756  13.413
76909W        W49334  11.678   5.440   1.009
76910W        W49335  29.318  35.538  10.665
76911W        W49336  38.019  11.183  14.665
76912W        W49337  40.390   1.071   4.021
76913W        W49338  24.898  29.876   1.632
76914W        W49339   0.015  35.521  13.074
76915W        W49340   0.892  38.638   3.597
76916W        W49341   6.132   7.696   3.815
76917W        W49342   8.102   0.405  13.510
76918W        W49343  30.761   2.499  12.335
76919W        W49344  29.697  23.391   1.369
76920W        W49345   3.381  44.947  13.025
76921W        W49346  21.372  13.541   1.758
76922W        W49347  40.096  10.181   0.246
76923W        W49348   4.969  24.265  12.124
76924W        W49349  43.310  19.295   2.790
76925W        W49350   3.292   1.452  13.327
76926W        W49351   6.774  33.331  13.407
76927W        W49352  18.979  17.056  12.895
76928W        W49353  23.515  43.324  11.069
76929W        W49354   5.150  27.590  10.819
76930W        W49355   8.177   8.645  14.389
76931W        W49356   9.641  14.790  11.756
76932W        W49357  30.926  29.881  13.523
76933W        W49358  42.803  40.887  11.589
76934W        W49359   6.069  41.048   1.698
76935W        W49360   6.327  10.676  13.592
76936W        W49361  43.432  24.956  14.021
76937W        W49362  14.187  39.915   2.062
76938W        W49363   8.933  14.229   4.240
76939W        W49364  38.904   9.308  11.420
76940W        W49365  37.929   4.249  11.434
76941W        W49366  41.990  13.625  13.469
76942W        W49367  37.303  30.448  13.140
76943W        W49368  38.125  20.110   0.252
76944W        W49369  30.089  31.581   3.098
76945W        W49370  32.039  39.489  14.998
76946W        W49371  35.630  29.797   2.412
76947W        W49372  32.875  32.108   1.300
76948W        W49373  40.704   6.054  11.257
76949W        W49374  44.384  24.979   1.662
76950W        W49375  32.044  43.446  10.706
76951W        W49376  35.125   9.801  10.436
76952W        W49377  22.168  41.419  13.971
76953W        W49378  42.792  41.993   1.130
76954W        W49379  22.706  20.577   0.516
76955W        W49380  24.160   9.218  11.407
76956W        W49381  32.166  35.864   4.133
76957W        W49382   3.702  12.336   3.365
76958W        W49383  27.973  28.043  10.717
76959W        W49384  30.080  21.139  13.750
76960W        W49385  17.677   5.191   0.768
76961W        W49386  18.285  37.578   4.557
76962W        W49387   4.793  44.315   0.949
76963W        W49388  13.238  31.166  13.858
76964W        W49389  27.409  38.446   3.896
76965W        W49390   0.043   8.248  13.027
76966W        W49391   8.936  37.320  14.438
76967W        W49392  29.454   1.427  13.553
76968W        W49393  30.364  24.002  12.453
76969W        W49394  35.750  28.709   1.452
76970W        W49395  28.530  23.335   0.714
76971W        W49396  21.195   5.599  12.957
76972W        W49397  32.306  34.676  12.037
76973W        W49398  43.573   2.808   2.167
76974W        W49399   7.167  32.635  12.617
76975W        W49400   8.993   0.549  12.580
76976W        W49401  37.527  10.659  11.066
76977W        W49402   4.822  13.033   2.853
76978W        W49403  32.974  12.158  11.213
76979W        W49404  33.678  34.860   1.129
76980W        W49405   6.138  13.198   3.680
76981W        W49406  40.787   0.157   1.839
76982W        W49407  40.514  22.731  13.911
76983W        W49408  41.871   3.045  14.300
76984W        W49409   7.075  20.634  13.846
76985W        W49410   0.451   8.598   1.214
76986W        W49411   8.497  40.881  13.458
76987W        W49412  29.207   9.272   3.161
76988W        W49413  39.235   5.304  12.827
76989W        W49414  17.994  26.167  14.935
76990W        W49415  29.157  37.146  10.652
76991W        W49416  40.055   6.302  12.931
76992W        W49417  40.524  43.860  14.470
76993W        W49418  41.957   5.894   2.065
76994W        W49419  17.561  16.510  13.887
76995W        W49420  16.072  20.071   1.230
76996W        W49421  25.128   3.802  10.691
76997W        W49422   6.926  23.217  11.593
76998W        W49423  28.304   4.415  11.055
76999W        W49424   9.212   1.601   0.182
77000W        W49425  22.237  23.729   1.242
77001W        W49426  36.358  44.263   3.263
77002W        W49427  10.991  40.919  14.118
77003W        W49428  29.053   4.205   2.852
77004W        W49429  12.386  21.808  14.502
77005W        W49430  38.069  12.901   4.199
77006W        W49431  26.240   2.456  11.653
77007W        W49432  26.027  25.340   3.060
77008W        W49433  36.922   9.194   1.818
77009W        W49434   6.288  23.079  12.129
77010W        W49435  17.346  27.622  12.961
77011W        W49436  22.986  34.361  13.007
77012W        W49437  24.749  27.154  12.925
77013W        W49438  11.614  41.839  11.483
77014W        W49439  18.758  24.678   0.788
77015W        W49440  24.972  42.786  12.407
77016W        W49441   2.521  24.371   0.840
77017W        W49442   3.327  11.189  13.031
77018W        W49443  23.132  19.522  11.641
77019W        W49444  43.857  43.899   2.828
77020W        W49445  33.873  40.556  14.348
77021W        W49446  13.743  37.622  13.818
77022W        W49447   4.874  39.729   3.074
77023W        W49448  41.348  31.413   4.117
77024W        W49449  44.927  13.693   4.120
77025W        W49450  12.886  44.348   3.356
77026W        W49451  11.343  34.480  13.559
77027W        W49452  43.524  12.886   3.714
77028W        W49453  44.330   1.509   2.129
77029W        W49454  37.377  20.830  13.079
77030W        W49455  43.034  44.515  13.691
77031W        W49456  33.786  27.957  11.523
77032W        W49457  21.180   3.345   2.280
77033W        W49458  40.234  26.420   4.590
77034W        W49459  40.511   9.351   2.350
77035W        W49460  13.650  21.759   3.244
77036W        W49461   4.507  25.128   1.261
77037W        W49462  38.889  31.091   1.726
77038W        W49463  42.396  10.281   3.696
77039W        W49464  33.903  22.079   4.170
77040W        W49465  27.253  10.301   3.045
77041W        W49466  32.003  36.832   2.180
77042W        W49467  17.600  23.629  12.028
77043W        W49468  36.017  10.702   2.853
77044W        W49469  10.839   8.511   3.228
77045W        W49470  15.133  11.562  12.079
77046W        W49471  32.437  20.358   2.163
77047W        W49472  35.182   0.969   2.092
77048W        W49473  37.369  38.611  14.888
77049W        W49474  27.948  13.300  11.635
77050W        W49475  10.500  15.726   3.693
77051W        W49476  21.642   9.838  14.530
77052W        W49477  31.005  11.680  13.100
77053W        W49478  10.220   2.433   3.262
77054W        W49479   3.659  15.604   2.598
77055W        W49480  42.383  29.104   1.389
77056W        W49481  27.575  17.709   2.810
77057W        W49482  44.342  22.289   3.371
77058W        W49483  40.381   6.437   3.397
77059W        W49484  20.581  10.737  10.120
77060W        W49485   5.251  20.668  11.581
77061W        W49486  13.103   8.628  11.080
77062W        W49487  13.724   9.080  13.529
77063W        W49488   9.998  41.464   2.134
77064W        W49489   0.530   0.796   3.068
77065W        W49490  27.197  12.191  11.484
77066W        W49491   0.478  33.118   1.931
77067W        W49492  32.149  33.399  10.988
77068W        W49493  16.747   3.783  13.905
77069W        W49494   5.887  36.377  13.739
77070W        W49495  28.892  38.876  12.409
77071W        W49496  40.923  32.181  14.630
77072W        W49497  31.286  33.060   3.721
77073W        W49498   4.334  39.418  12.022
77074W        W49499   0.493  21.446  12.531
77075W        W49500  19.532   4.759  12.555
77076W        W49501  44.394  28.342   4.333
77077W        W49502  21.894   5.292  11.591
77078W        W49503  22.798  16.759  13.532
77079W        W49504   6.366  42.338   3.138
77080W        W49505  37.057   7.852  11.593
77081W        W49506   5.903  41.320  11.149
77082W        W49507  22.184   2.518  13.983
77083W        W49508  33.587   2.817   3.417
77084W        W49509   2.408  10.766  14.515
77085W        W49510  17.036  43.980   2.174
77086W        W49511  24.258   3.031  13.378
77087W        W49512  44.765  18.071   3.254
77088W        W49513   4.219  21.434  11.695
77089W        W49514  24.638  40.426   0.216
77090W        W49515  20.652  11.361  14.316
77091W        W49516   5.307   3.334   4.925
77092W        W49517  33.814   1.673  11.240
77093W        W49518   1.329   1.509  13.622
77094W        W49519  28.774  27.819  14.008
77095W        W49520   5.701   5.797  13.552
77096W        W49521  39.273  28.524   3.862
77097W        W49522  27.421  31.533   5.212
77098W        W49523  43.348  29.193   0.728
77099W        W49524   2.522  23.420   2.876
77100W        W49525  24.115  34.556   1.259
77101W        W49526  11.894  19.282   3.903
77102W        W49527  20.024  21.736  13.915
77103W        W49528  37.876   4.984   0.244
77104W        W49529  19.413   8.684  14.478
77105W        W49530   9.222  19.164   1.294
77106W        W49531  20.546   9.620   3.092
77107W        W49532   5.680  33.700   4.613
77108W        W49533  41.622  11.392  13.286
77109W        W49534  35.657   3.727   2.363
77110W        W49535  31.914   0.401  10.991
77111W        W49536  31.572  18.142  12.653
77112W        W49537  16.954  24.485  11.038
77113W        W49538  23.205   6.151  14.850
77114W        W49539  25.340  12.033   3.564
77115W        W49540   7.776  32.084  12.007
77116W        W49541  15.884  26.590  13.008
77117W        W49542  26.750  33.911  14.498
77118W        W49543  26.724  27.054  10.662
77119W        W49544  35.353  28.085   3.146
77120W        W49545   7.604   8.323  11.175
77121W        W49546  29.636  20.148   4.439
77122W        W49547  40.658  44.397  14.766
77123W        W49548  18.329  24.809  12.776
77124W        W49549  33.635  28.608   4.075
77125W        W49550   6.970   1.733   0.348
77126W        W49551  30.256  16.194   2.351
77127W        W49552  32.982   3.818   3.634
77128W        W49553  30.666   2.696   2.567
77129W        W49554  27.967   6.700  11.949
77130W        W49555   3.257  42.733   3.187
77131W        W49556  28.717  32.567  12.951
77132W        W49557  37.879  18.194   4.100
77133W        W49558  18.508  25.360   1.660
77134W        W49559  28.560   9.242   3.695
77135W        W49560  32.247  28.581  12.669
77136W        W49561  17.327  42.602  14.976
77137W        W49562  26.740  25.425  14.520
77138W        W49563  19.155  35.337   2.346
77139W        W49564  20.964   2.901   4.408
77140W        W49565  39.054  44.496   0.421
77141W        W49566   3.787  32.352   4.466
77142W        W49567  33.098   1.362  13.594
77143W        W49568  10.685  31.402   1.767
77144W        W49569  18.092  36.932   2.249
77145W        W49570  39.499   0.279   3.598
77146W        W49571   3.435  12.846  11.951
77147W        W49572  28.628  10.681  13.811
77148W        W49573  29.747   8.273   3.140
77149W        W49574  14.839   3.304   0.370
77150W        W49575   7.279  36.147   1.863
77151W        W49576  38.553  29.150  13.886
77152W        W49577   2.570  23.658  11.560
77153W        W49578  41.564  24.737  14.817
77154W        W49579  25.700   2.928   1.235
77155W        W49580   0.933  31.769  12.489
77156W        W49581   9.313   5.808   2.318
77157W        W49582  13.578  16.757   0.428
77158W        W49583  43.951  21.155   3.152
77159W        W49584  31.012  19.672   1.545
77160W        W49585  36.947  15.165  10.960
77161W        W49586  38.971  16.427  11.345
77162W        W49587  34.622  21.666   4.574
77163W        W49588  35.052  37.926  10.873
77164W        W49589   1.964  11.276   2.567
77165W        W49590  44.959  38.078   2.946
77166W        W49591  44.967   5.854  11.367
77167W        W49592  17.043  15.772  13.868
77168W        W49593   4.212   1.165  11.478
77169W        W49594  15.616  16.310   2.788
77170W        W49595  10.339   7.530  11.576
77171W        W49596   2.523   5.291   1.796
77172W        W49597  28.955  30.163   4.142
77173W        W49598   8.320  17.069   1.714
77174W        W49599  10.675   5.846   2.323
77175W        W49600  19.134  27.625  13.921
77176W        W49601  28.815  17.582   3.169
77177W        W49602   8.488  13.644  14.423
77178W        W49603  38.440  15.216   2.663
77179W        W49604   9.643  30.221  11.522
77180W        W49605  13.853  17.269   0.061
77181W        W49606  40.625  30.287  12.455
77182W        W49607  11.370  22.639  14.791
77183W        W49608   8.697  42.933  13.427
77184W        W49609  35.866  30.921  14.359
77185W        W49610  27.640  21.057  13.874
77186W        W49611  10.688  23.799   4.570
77187W        W49612  13.617  10.701  10.787
77188W        W49613  15.922  11.240  11.139
77189W        W49614   7.695  21.265   2.758
77190W        W49615   1.354  13.298   3.688
77191W        W49616  42.361  32.657  13.598
77192W        W49617   3.188  18.163   0.251
77193W        W49618  22.924  34.479   3.347
77194W        W49619  24.266  24.196  11.692
77195W        W49620  20.101   8.199  11.655
77196W        W49621  14.860  15.662   0.922
77197W        W49622  20.314  35.151   0.566
77198W        W49623  19.527   6.464   1.671
77199W        W49624   1.297   2.641   4.649
77200W        W49625   6.070  42.222   0.787
77201W        W49626   1.396  39.994  14.691
77202W        W49627  17.834   8.794   3.122
77203W        W49628  20.613   0.350  10.965
77204W        W49629  27.268  37.901  13.341
77205W        W49630  35.031  18.525   2.278
77206W        W49631  35.849  42.318  11.190
77207W        W49632  30.686  43.291  12.954
77208W        W49633   2.798  38.520   4.883
77209W        W49634  37.004  22.131  13.913
77210W        W49635  28.125  38.384  14.120
77211W        W49636   3.355  39.553   0.250
77212W        W49637  28.985  37.496  11.849
77213W        W49638  26.230   3.403   2.877
77214W        W49639  40.745  34.530  13.658
77215W        W49640  15.288  39.238  11.563
77216W        W49641  42.766  21.985   1.504
77217W        W49642  28.622  39.068  10.147
77218W        W49643  23.437  44.655   3.719
77219W        W49644  42.412   2.961   4.007
77220W        W49645  42.340  21.710  14.803
77221W        W49646  16.328  28.430   2.384
77222W        W49647  24.932   5.177   4.118
77223W        W49648  13.952  24.309  11.573
77224W        W49649  13.655  30.977   1.103
77225W        W49650  20.123  13.228  10.738
77226W        W49651  19.140  11.493   1.900
77227W        W49652  36.007  11.870   0.836
77228W        W49653  30.768  38.763   1.828
77229W        W49654  16.244  30.093  11.627
77230W        W49655   4.486  24.443  14.388
77231W        W49656   0.383  30.610  10.462
77232W        W49657  15.153   0.271  13.460
77233W        W49658   1.845  32.060   4.338
77234W        W49659  44.599  11.697  14.886
77235W        W49660  23.202   3.025  13.322
77236W        W49661  11.948  38.038  14.279
77237W        W49662  39.489  33.569   3.259
77238W        W49663  34.036  24.536   1.989
77239W        W49664  43.545  37.410  12.913
77240W        W49665  29.155  33.581  14.290
77241W        W49666   8.771  41.761  13.039
77242W        W49667  37.582  38.876   2.148
77243W        W49668  41.998   6.797   3.554
77244W        W49669   4.958  18.428  11.168
77245W        W49670  13.059  32.954  12.662
77246W        W49671  32.501  28.646  10.598
77247W        W49672  44.185  26.283   0.417
77248W        W49673  44.360   8.709   4.877
77249W        W49674  19.479  29.864   3.305
77250W        W49675  20.936  41.188   4.022
77251W        W49676  40.538  32.500   0.218
77252W        W49677  15.120  27.936  11.437
77253W        W49678  30.897  30.001  14.352
77254W        W49679  24.288  14.281   3.858
77255W        W49680  28.374  33.495   3.608
77256W        W49681  33.906  21.817   4.623
77257W        W49682  36.130  39.452   3.757
77258W        W49683   9.118  44.806  11.691
77259W        W49684  17.522  10.193  11.219
77260W        W49685   8.135  38.754  11.167
77261W        W49686   7.903  40.752   1.836
77262W        W49687  11.233  40.473   3.403
77263W        W49688  23.577  17.972  12.418
77264W        W49689  30.096   7.395   0.044
77265W        W49690  31.956  38.984   1.465
77266W        W49691   4.337  24.598  11.660
77267W        W49692  24.474  34.996  12.513
77268W        W49693  17.497  25.371   4.006
77269W        W49694   9.910  11.411  12.620
77270W        W49695  24.957  15.747  11.699
77271W        W49696  34.904  37.959  10.377
77272W        W49697   3.884  21.203   2.261
77273W        W49698  28.256  21.172  12.423
77274W        W49699  14.753  31.883  13.582
77275W        W49700   1.610  33.302  14.462
77276W        W49701  38.661  23.191  13.529
77277W        W49702  20.097   2.826   3.278
77278W        W49703  41.827  44.833   0.120
77279W        W49704  24.669  23.787   0.579
77280W        W49705   2.495  40.494  14.237
77281W        W49706  25.449   6.766  13.501
77282W        W49707  31.119  17.693   0.585
77283W        W49708  37.332  23.009   0.462
77284W        W49709  38.850  19.714   1.211
77285W        W49710  19.810  24.943  14.446
77286W        W49711  18.706  25.025   3.100
77287W        W49712   1.232  33.655   1.446
77288W        W49713  12.259   8.894   4.376
77289W        W49714  27.182  38.636   4.396
77290W        W49715  35.192  38.631   1.836
77291W        W49716  27.534  35.362  14.342
77292W        W49717  43.763  19.099   3.611
77293W        W49718  11.198  11.595  12.370
77294W        W49719  23.748   6.389   1.761
77295W        W49720   4.836  39.029   3.849
77296W        W49721  24.525  27.683  11.577
77297W        W49722   9.343  36.644  12.843
77298W        W49723  41.285  11.288   4.163
77299W        W49724  32.109  25.472   3.131
77300W        W49725  28.574  40.876  10.785
77301W        W49726  42.779   1.931  13.039
77302W        W49727  15.694  28.664  12.067
77303W        W49728  25.683  20.844   1.791
77304W        W49729  34.774  20.222  11.634
77305W        W49730  31.959   5.802  11.577
77306W        W49731   9.239  36.321   4.194
77307W        W49732  26.266  39.523   3.262
77308W        W49733   6.617  22.620   3.578
77309W        W49734  38.479  33.998  14.598
77310W        W49735   3.728  42.566   4.945
77311W        W49736  33.348  17.588   1.998
77312W        W49737  23.208   5.748  11.623
77313W        W49738  35.352  28.721  10.690
77314W        W49739  19.012  16.088  12.865
77315W        W49740   1.485  25.387   1.332
77316W        W49741  32.465  37.984   0.904
77317W        W49742  10.417  16.694  12.168
77318W        W49743   6.866  17.252   0.491
77319W        W49744  15.426  35.730   0.640
77320W        W49745  38.363   6.866   5.171
77321W        W49746  42.898   9.718   0.453
77322W        W49747  17.554  38.562   1.819
77323W        W49748  13.959   9.432  12.027
77324W        W49749  30.563  32.017  11.902
77325W        W49750  19.755  24.704  14.953
77326W        W49751   4.226   3.311   0.227
77327W        W49752   6.495  25.241   1.399
77328W        W49753   8.881  14.743   2.267
77329W        W49754  29.022  41.837  10.011
77330W        W49755  27.589  30.155  11.913
77331W        W49756  24.036  30.214   1.776
77332W        W49757  32.945  10.699   4.058
77333W        W49758   3.793  33.641  11.073
77334W        W49759   3.023  30.829   2.911
77335W        W49760  15.140  23.995  11.979
77336W        W49761   7.319   2.877   1.386
77337W        W49762  12.405   8.522  14.617
77338W        W49763  32.589  35.631  13.607
77339W        W49764  35.958  21.516  11.408
77340W        W49765  15.048  39.592   1.471
77341W        W49766  42.980  11.046  14.948
77342W        W49767   0.463  40.010   1.755
77343W        W49768  14.026  33.111   0.762
77344W        W49769  29.247   7.807   2.510
77345W        W49770   6.670  21.755   3.926
77346W        W49771  40.152  28.850   0.981
77347W        W49772  17.191  23.172   2.152
77348W        W49773  20.974  31.380   1.305
77349W        W49774  33.860  25.762  14.430
77350W        W49775  22.524  19.537  14.266
77351W        W49776   6.718  10.082   5.029
77352W        W49777  10.096  18.341  14.827
77353W        W49778  34.578  10.805   0.659
77354W        W49779  33.797  36.605   3.844
77355W        W49780   4.027   3.443  14.746
77356W        W49781   5.911  33.094   3.530
77357W        W49782  39.424  31.967   1.690
77358W        W49783  18.594  40.075   3.182
77359W        W49784  19.758  42.366  10.629
77360W        W49785  12.341   2.832  13.441
77361W        W49786  18.142   9.675   4.008
77362W        W49787  12.124  14.897   4.625
77363W        W49788  26.421  28.402  13.461
77364W        W49789   2.277  37.099   0.717
77365W        W49790  37.983  35.351  10.587
77366W        W49791  10.828  13.643   1.044
77367W        W49792  36.772  29.530   1.683
77368W        W49793  35.909   2.891  14.118
77369W        W49794   7.785   8.767  11.040
77370W        W49795  30.323   2.290  12.567
77371W        W49796  20.923  19.062  14.026
77372W        W49797  10.430  22.253  14.424
77373W        W49798  17.579   4.744  11.557
77374W        W49799  21.299  33.652   3.234
77375W        W49800  12.211  30.184   3.644
77376W        W49801  17.607  33.694  10.275
77377W        W49802  25.127  14.729  14.761
77378W        W49803  40.585  20.489   3.131
77379W        W49804  11.744  34.947   4.985
77380W        W49805  20.256  34.553   9.985
77381W        W49806  20.902  36.383  14.482
77382W        W49807   1.808  41.075   4.043
77383W        W49808   7.145  29.011  10.722
77384W        W49809  34.374  18.368   2.305
77385W        W49810  44.306  25.252  13.358
77386W        W49811   9.696  33.423  13.164
77387W        W49812  16.354   9.301  12.614
77388W        W49813  27.107  43.033  14.756
77389W        W49814   8.806  25.299   1.207
77390W        W49815  33.857   3.324  11.506
77391W        W49816  12.405  18.663   2.138
77392W        W49817  44.121  32.019  14.054
77393W        W49818  13.211  20.912   3.941
77394W        W49819  23.645  27.938  11.593
77395W        W49820  29.048   9.700   0.880
77396W        W49821   3.322  21.492   1.866
77397W        W49822  27.739  39.206  13.511
77398W        W49823  40.385  34.020  10.956
77399W        W49824  16.663  13.239   1.978
77400W        W49825  39.378  21.176   1.134
77401W        W49826  43.532  22.834   0.769
77402W        W49827  30.045  23.223   2.718
77403W        W49828   0.688  18.245   2.913
77404W        W49829  41.236  26.969  12.457
77405W        W49830   3.520  43.066   2.859
77406W        W49831  41.617  41.211   3.674
77407W        W49832  36.961  25.471  13.428
77408W        W49833  18.131   6.907   4.710
77409W        W49834  41.295  15.825  11.426
77410W        W49835  44.297  22.921   4.916
77411W        W49836  30.694  42.138   4.507
77412W        W49837   6.739  41.225   1.049
77413W        W49838  42.343  39.937  11.837
77414W        W49839  37.581  39.853  10.821
77415W        W49840   0.766   8.669   4.062
77416W        W49841  40.804  17.541  11.240
77417W        W49842  29.152  18.692  13.628
77418W        W49843  44.748  20.561  12.017
77419W        W49844  14.372  38.026  10.556
77420W        W49845  22.103  40.800   0.437
77421W        W49846  24.814  24.719  12.867
77422W        W49847   8.938  35.222   2.496
77423W        W49848  39.488  37.397   2.292
77424W        W49849  12.303  25.947   0.322
77425W        W49850  26.382  40.111   3.706
77426W        W49851  18.578  43.436   3.927
77427W        W49852  16.595  18.447  12.429
77428W        W49853  25.769  22.497  13.395
77429W        W49854  15.336  26.994   1.587
77430W        W49855  20.141  28.500  12.116
77431W        W49856  14.375  24.524   0.747
77432W        W49857  23.119   4.892   4.327
77433W        W49858  29.534  35.770  12.518
77434W        W49859  13.019  39.114   3.647
77435W        W49860  38.766  40.941   1.717
77436W        W49861  20.765  32.422   0.822
77437W        W49862   4.371  11.675  10.723
77438W        W49863  23.177  18.030  11.947
77439W        W49864  26.245  36.838   0.410
77440W        W49865  16.552   9.772   2.972
77441W        W49866  11.553  23.972   3.384
77442W        W49867  22.453  33.406  12.710
77443W        W49868  37.390   6.713  14.937
77444W        W49869   6.192  23.987  12.542
77445W        W49870  17.697  32.907   0.260
77446W        W49871  14.188  33.015  14.852
77447W        W49872  39.582   7.415   0.980
77448W        W49873  22.263  19.238   0.248
77449W        W49874   9.185  12.940   0.267
77450W        W49875  13.723  36.598  13.865
77451W        W49876  38.473   2.726  13.031
77452W        W49877  23.863  23.627   0.909
77453W        W49878  35.307   9.442  12.657
77454W        W49879  21.336  40.942  14.315
77455W        W49880  40.099  11.945   1.823
77456W        W49881  32.194  18.217   2.271
77457W        W49882   4.844  32.703  12.159
77458W        W49883  29.577   0.295  12.843
77459W        W49884  36.895  38.080  13.508
77460W        W49885  43.342   0.326   0.917
77461W        W49886  30.941  24.513   0.395
77462W        W49887  33.633   1.846   3.234
77463W        W49888  22.109  22.044   0.947
77464W        W49889  14.199   0.193   0.834
77465W        W49890   3.909  11.161  12.029
77466W        W49891   1.926  33.165  14.931
77467W        W49892  41.842  18.544  10.521
77468W        W49893   8.639   8.127  11.839
77469W        W49894   5.634   2.408  11.119
77470W        W49895   9.042  31.173   0.584
77471W        W49896  40.246  18.530   4.695
77472W        W49897  39.390   8.252  12.149
77473W        W49898  14.374   4.177   1.632
77474W        W49899  26.162   7.741  12.595
77475W        W49900  29.097  33.956  13.506
77476W        W49901  28.587  18.222   3.876
77477W        W49902  22.263  16.310  12.945
77478W        W49903  31.909  10.676   3.323
77479W        W49904  37.344  30.030  12.390
77480W        W49905  28.106  42.348  14.089
77481W        W49906  13.808  19.594  11.976
77482W        W49907  24.119  31.073   3.772
77483W        W49908  10.019  39.381   1.984
77484W        W49909  23.404  38.057   1.956
77485W        W49910  22.665  37.544  13.846
77486W        W49911  21.399  27.132   5.283
77487W        W49912  24.602  13.871   4.104
77488W        W49913  23.358  10.256  11.681
77489W        W49914  23.787  10.727   1.788
77490W        W49915   8.568  22.748   4.196
77491W        W49916   2.850  33.314  11.469
77492W        W49917   6.978  21.102   3.668
77493W        W49918  37.071  35.880   0.246
77494W        W49919  30.593  30.096  12.094
77495W        W49920  30.190  16.986  14.634
77496W        W49921  43.262   5.001  12.590
77497W        W49922   9.666  38.844  10.265
77498W        W49923   0.244  15.096   4.274
77499W        W49924  27.200  14.432  12.093
77500W        W49925   7.849   0.037   4.350
77501W        W49926  18.705  18.845   0.709
77502W        W49927   9.782  34.835  12.233
77503W        W49928  13.211  42.297  13.459
77504W        W49929  33.953   3.052   1.373
77505W        W49930  36.795  14.792  11.963
77506W        W49931  25.796  41.401  13.022
77507W        W49932  35.900  42.380   1.305
77508W        W49933  36.327  43.775  11.027
77509W        W49934   0.284   8.131   2.305
77510W        W49935  38.977  35.681  11.751
77511W        W49936   7.760  15.073   0.490
77512W        W49937  34.917   4.110   4.087
77513W        W49938   0.530  27.678   3.361
77514W        W49939  32.233  19.262  13.769
77515W        W49940   0.739  22.665  12.958
77516W        W49941  32.502  13.322   3.842
77517W        W49942  43.744  30.757  12.036
77518W        W49943  24.226  28.559  11.275
77519W        W49944  18.062  15.892   3.828
77520W        W49945  43.383  29.844   3.901
77521W        W49946   1.370  27.372   2.780
77522W        W49947  12.596  42.865   4.556
77523W        W49948  18.535   4.285  14.179
77524W        W49949  37.801   3.309   1.911
77525W        W49950  19.081  14.131  13.857
77526W        W49951  44.606  34.602  10.043
77527W        W49952  24.156   8.964  10.553
77528W        W49953  42.852   9.396  10.736
77529W        W49954  26.357  34.178   1.468
77530W        W49955  13.783  22.253   3.254
77531W        W49956  37.091  33.443  12.391
77532W        W49957  39.312   4.388  10.364
77533W        W49958   6.493   3.608  11.133
77534W        W49959   7.432  44.728   4.328
77535W        W49960  27.274   2.506   2.767
77536W        W49961  33.749  35.568  13.887
77537W        W49962  18.071   4.031  10.658
77538W        W49963   6.898  13.759   0.010
77539W        W49964  37.062  14.262  14.948
77540W        W49965   8.270  33.762   4.065
77541W        W49966  37.995  42.425   3.286
77542W        W49967  12.317  29.138  11.583
77543W        W49968   0.401  21.588   2.046
77544W        W49969  40.501  26.562  11.029
77545W        W49970  18.180  14.750   0.444
77546W        W49971  33.898  39.033  10.695
77547W        W49972  40.743   7.052  13.429
77548W        W49973  24.570  20.794  13.709
77549W        W49974   7.476  25.431   5.023
77550W        W49975  41.499  29.280  12.871
77551W        W49976  15.817  17.805  14.465
77552W        W49977   6.370  44.549   5.119
77553W        W49978  17.688   9.441  14.919
77554W        W49979   4.944  15.766   3.636
77555W        W49980  39.849  14.519  14.350
77556W        W49981   0.209  15.249  10.726
77557W        W49982  26.094  37.594   3.145
77558W        W49983  36.417  40.278  13.731
77559W        W49984  22.621   4.288   0.816
77560W        W49985  26.135  27.952   4.650
77561W        W49986  28.956   6.731   2.798
77562W        W49987  43.888  38.013  11.417
77563W        W49988  10.370  26.092  11.695
77564W        W49989  41.596   4.444   4.133
77565W        W49990  21.690  22.046   0.458
77566W        W49991   4.933  28.544  11.121
77567W        W49992  15.025  25.565  14.424
77568W        W49993  19.698  15.264  12.118
77569W        W49994  37.537  37.612  13.987
77570W        W49995   6.174  37.908   4.031
77571W        W49996   1.931   5.620   1.477
77572W        W49997   9.918   2.158   2.933
77573W        W49998   5.743  31.931   0.007
77574W        W49999  41.978   9.697  12.360
77575W        W50000  22.975  29.482   2.246
77576W        W50001   3.943  10.292   3.035
77577W        W50002  13.402  42.731   4.875
77578W        W50003  32.787  20.422   1.339
77579W        W50004  11.432   8.281   0.457
77580W        W50005  24.951   7.427   3.485
77581W        W50006  15.025   6.450  12.510
77582W        W50007  32.513  40.975   4.981
77583W        W50008  27.383  17.677   4.566
77584W        W50009   7.544  17.528   4.930
77585W        W50010  23.547  12.282   5.456
77586W        W50011  16.094  22.157  14.859
77587W        W50012  30.792  38.567   1.111
77588W        W50013  37.672  33.353   2.184
77589W        W50014  20.526   9.123   3.250
77590W        W50015   5.349  13.616  13.971
77591W        W50016  35.876   6.388   3.441
77592W        W50017  25.230  41.111   2.360
77593W        W50018  13.841  44.325  10.932
77594W        W50019  23.133  20.197  12.876
77595W        W50020  26.527  20.233   0.724
77596W        W50021  44.590  23.330   4.878
77597W        W50022  21.278  38.086  12.618
77598W        W50023  32.325  29.949  13.455
77599W        W50024  21.076  39.588  11.581
77600W        W50025  30.984  10.178   4.807
77601W        W50026  16.210  13.069   2.696
77602W        W50027  38.528  36.139   4.053
77603W        W50028  41.961  21.636  12.582
77604W        W50029  26.908  31.015  14.029
77605W        W50030  40.375  20.698   9.813
77606W        W50031  22.827  35.337   3.534
77607W        W50032  28.680  30.074  11.021
77608W        W50033  25.491  39.690  11.124
77609W        W50034  30.817  17.132   1.344
77610W        W50035  30.941  41.476  11.615
77611W        W50036  25.231   4.292  13.313
77612W        W50037  16.821  27.010   2.625
77613W        W50038  32.963  39.822   0.475
77614W        W50039  33.296   6.393  14.772
77615W        W50040   5.615   8.870  12.918
77616W        W50041   2.721  20.694   4.940
77617W        W50042   9.656  42.473  13.435
77618W        W50043   1.869   8.275   0.247
77619W        W50044   4.733  29.267   0.375
77620W        W50045  14.420  27.487   0.404
77621W        W50046  30.207  33.911   2.869
77622W        W50047   8.891  44.677  10.379
77623W        W50048  10.752   2.862  11.623
77624W        W50049  14.236  43.061  12.866
77625W        W50050   0.458  28.584   4.661
77626W        W50051  10.607  42.603  10.762
77627W        W50052  34.507  34.703   3.402
77628W        W50053   1.089  43.433  12.425
77629W        W50054  38.657  37.133  10.645
77630W        W50055  10.702   1.402   4.749
77631W        W50056  34.202   1.139  14.253
77632W        W50057  22.183  20.073   4.612
77633W        W50058  33.309  35.369   2.407
77634W        W50059  12.371   4.933   2.194
77635W        W50060  29.468  39.875   2.635
77636W        W50061   4.578  41.525   1.109
77637W        W50062   8.801   7.400   1.179
77638W        W50063  24.137  44.461  11.451
77639W        W50064  32.341  15.257  13.093
77640W        W50065  32.393   6.773   4.791
77641W        W50066  44.912   2.964   0.416
77642W        W50067  21.254   5.560   3.656
77643W        W50068  21.192   5.195   1.604
77644W        W50069   4.936  33.124   3.366
77645W        W50070   6.684   3.331  12.039
77646W        W50071  14.875  37.964  12.001
77647W        W50072  12.407  32.627  13.951
77648W        W50073   0.661   0.383   4.126
77649W        W50074  43.763  33.464   0.037
77650W        W50075  24.235  31.927   3.632
77651W        W50076  22.739  25.043  10.398
77652W        W50077  11.867  28.485   0.837
77653W        W50078   6.147  41.816  11.166
77654W        W50079  30.134  25.194  14.343
77655W        W50080   0.733   1.882   3.813
77656W        W50081  42.864  21.614   3.809
77657W        W50082  41.085  11.772   2.830
77658W        W50083  42.919   4.960   0.810
77659W        W50084  38.241   3.279  11.080
77660W        W50085  21.232  25.327  12.178
77661W        W50086  24.574  20.560  10.672
77662W        W50087  37.845  28.869   3.787
77663W        W50088   5.292  30.076  12.314
77664W        W50089  44.109   7.254   2.161
77665W        W50090   4.951  31.198  10.666
77666W        W50091  37.664  35.653   4.512
77667W        W50092  43.289  14.522  12.766
77668W        W50093  42.885  21.609  14.086
77669W        W50094  44.246  38.336   3.336
77670W        W50095  20.032  30.339   0.750
77671W        W50096  10.650  28.148   3.820
77672W        W50097  27.559  16.179  12.985
77673W        W50098  31.410  11.148  13.490
77674W        W50099  12.445   6.725  13.482
77675W        W50100  21.801  43.426  13.281
77676W        W50101  24.451  33.199   1.915
77677W        W50102  18.239   1.823  11.910
77678W        W50103  16.308  18.668  10.700
77679W        W50104  37.623  35.429  10.954
77680W        W50105  16.166  30.063   1.695
77681W        W50106  39.866   3.815   4.854
77682W        W50107  37.020  18.063  13.794
77683W        W50108  38.877   7.662  12.593
77684W        W50109  16.158   4.553  11.219
77685W        W50110  13.882  25.601   0.212
77686W        W50111  40.295  32.182   1.184
77687W        W50112  34.855  27.480  11.847
77688W        W50113   6.379  23.765   2.333
77689W        W50114  25.162  34.888   4.318
77690W        W50115  42.803  32.638   1.733
77691W        W50116  17.748  42.758   2.690
77692W        W50117  32.991   7.760  12.526
77693W        W50118   1.636  35.091  12.434
77694W        W50119  36.882  30.065  13.449
77695W        W50120  28.066  22.607   0.612
77696W        W50121   1.217  26.592  11.944
77697W        W50122  12.120  14.074   3.660
77698W        W50123   2.802   4.673   2.243
77699W        W50124  11.456  22.365  10.655
77700W        W50125  25.536  40.819  13.950
77701W        W50126  18.278  29.186   3.688
77702W        W50127  36.114  42.295   1.788
77703W        W50128  21.098  26.688   3.605
77704W        W50129  11.543  39.648   2.142
77705W        W50130   0.453  39.390  13.912
77706W        W50131  29.609  40.326   4.149
77707W        W50132   6.423  23.126  10.636
77708W        W50133  29.308  32.503   4.835
77709W        W50134  40.860  19.650  11.656
77710W        W50135   6.007  36.070   3.823
77711W        W50136   1.369  24.666   1.049
77712W        W50137   4.450  43.589  10.418
77713W        W50138  15.390  28.868   2.603
77714W        W50139   7.702  36.558  10.905
77715W        W50140  17.532   3.337  12.623
77716W        W50141  22.524  17.700   2.876
77717W        W50142  29.023  12.715   1.193
77718W        W50143  27.093  27.218  11.244
77719W        W50144   8.944  37.524  12.959
77720W        W50145   5.873  38.268  14.445
77721W        W50146  42.461  13.403   1.841
77722W        W50147  15.250  26.769   2.373
77723W        W50148  26.546  29.456  13.802
77724W        W50149  28.372  39.280  11.614
77725W        W50150  18.024  36.997   3.590
77726W        W50151  37.866  33.417   2.658
77727W        W50152  31.643  39.102   4.597
77728W        W50153   1.302  40.258   1.852
77729W        W50154  22.214  21.264  12.867
77730W        W50155  20.480  43.490  12.889
77731W        W50156  44.540  13.263   1.229
77732W        W50157  41.175  13.653   2.772
77733W        W50158  19.074  34.814  11.917
77734W        W50159  43.994  14.295   4.471
77735W        W50160   6.973   7.013  12.373
77736W        W50161  21.187  18.191  14.364
77737W        W50162  40.871   3.823   1.275
77738W        W50163  25.699  15.709   2.821
77739W        W50164  19.258  43.007  13.827
77740W        W50165  26.543   6.565   2.315
77741W        W50166   4.012  10.781   1.014
77742W        W50167   6.956  10.626   1.481
77743W        W50168  10.446   3.288  13.777
77744W        W50169  28.079   8.867  13.090
77745W        W50170  11.270  14.381  12.951
77746W        W50171  44.035  43.927  12.220
77747W        W50172  25.195  44.321  14.487
77748W        W50173  38.836  19.809  10.318
77749W        W50174  40.353  44.206   1.732
77750W        W50175   9.187  42.518  11.152
77751W        W50176  35.366  18.816  14.698
77752W        W50177  12.205  20.074  11.184
77753W        W50178   3.361  41.537   1.872
77754W        W50179  13.235  38.362  12.557
77755W        W50180   1.082  35.634   2.479
77756W        W50181   2.127  18.263  14.408
77757W        W50182  17.803  15.341   3.101
77758W        W50183  41.056   4.827   1.499
77759W        W50184   3.568  13.967  12.439
77760W        W50185  22.243   0.769  11.614
77761W        W50186  15.122   5.427   0.868
77762W        W50187  19.270   1.350   0.892
77763W        W50188  30.205   3.164   2.800
77764W        W50189  40.252  16.960   2.755
77765W        W50190  14.443  42.137   2.828
77766W        W50191  33.598  35.254   4.137
77767W        W50192  22.727  13.480  11.938
77768W        W50193   1.281  28.890   2.813
77769W        W50194  41.912  12.294  10.706
77770W        W50195  40.024  42.378   3.043
77771W        W50196  37.487  13.740  12.650
77772W        W50197  30.611   1.463  11.071
77773W        W50198  37.059  42.018  12.657
77774W        W50199  14.786  13.318   3.836
77775W        W50200   6.433   8.076   2.126
77776W        W50201   3.503  36.892   0.378
77777W        W50202   9.988  17.852  14.245
77778W        W50203  24.576  23.396   1.859
77779W        W50204  14.603  44.018  11.479
77780W        W50205   4.523   6.663   1.796
77781W        W50206  40.374  38.355  11.864
77782W        W50207  43.828   4.190  10.639
77783W        W50208  20.694  17.453  10.820
77784W        W50209  28.734  30.646   4.078
77785W        W50210   1.262  13.341   1.838
77786W        W50211  40.756  27.753   4.916
77787W        W50212  30.757   9.267  10.919
77788W        W50213   7.694  12.275  11.082
77789W        W50214  23.871   6.384  13.933
77790W        W50215  30.942  41.984   4.087
77791W        W50216  14.511  38.351   1.820
77792W        W50217  26.548  16.744   3.948
77793W        W50218  39.313  18.648  11.361
77794W        W50219   0.871  25.534  14.185
77795W        W50220  40.283  27.142   4.146
77796W        W50221  14.130  38.794   2.728
77797W        W50222   5.356  19.568   2.514
77798W        W50223  33.072  23.441  11.925
77799W        W50224   5.629   3.686  14.989
77800W        W50225  27.659  42.759  13.100
77801W        W50226  16.774   2.193   0.776
77802W        W50227  16.311  41.630  13.309
77803W        W50228  34.781  42.989  11.619
77804W        W50229  24.215  33.931   4.326
77805W        W50230  40.724  29.026   4.259
77806W        W50231   2.585  29.626  12.348
77807W        W50232  26.798   8.250  14.952
77808W        W50233  16.233   5.596  13.823
77809W        W50234  17.683  17.396  10.656
77810W        W50235  42.278  35.915  11.205
77811W        W50236  31.886   0.498   0.793
77812W        W50237  27.714   9.343  14.434
77813W        W50238   4.179   4.308  12.493
77814W        W50239  40.117  16.198  13.906
77815W        W50240  38.130   3.269  12.257
77816W        W50241  31.539  32.918   0.897
77817W        W50242  23.583  40.337  13.671
77818W        W50243  44.207  38.367  11.182
77819W        W50244  20.695  17.561   0.935
77820W        W50245  11.787  24.046   1.519
77821W        W50246  42.471  26.933  14.577
77822W        W50247  44.346  22.852  13.128
77823W        W50248  23.084  35.902   1.835
77824W        W50249  22.081   1.182   0.302
77825W        W50250  15.117  34.345  10.242
77826W        W50251  36.804  14.361   3.656
77827W        W50252  18.377   3.697  12.397
77828W        W50253   9.894   4.257  12.844
77829W        W50254   3.357   2.331  13.843
77830W        W50255  25.274  38.345  10.341
77831W        W50256   0.011  37.014  11.046
77832W        W50257  27.017  14.963  12.110
77833W        W50258   0.445   8.593   0.400
77834W        W50259  44.750  31.663   2.826
77835W        W50260  34.017  14.349  11.410
77836W        W50261  40.116  30.179  11.121
77837W        W50262  25.422   6.225   0.468
77838W        W50263  17.481  33.823  11.122
77839W        W50264  18.674  29.695  13.084
77840W        W50265  28.411  28.610  12.526
77841W        W50266  41.554  23.295  13.475
77842W        W50267  31.134   6.692  14.992
77843W        W50268  11.247  22.120  11.092
77844W        W50269  14.262   2.403   4.895
77845W        W50270  37.180  40.718  14.778
77846W        W50271  16.593  23.749  13.924
77847W        W50272  12.613  29.553  13.103
77848W        W50273  24.917  31.893  13.901
77849W        W50274  18.696   1.527   3.207
77850W        W50275  20.412  25.052  10.206
77851W        W50276  44.112  26.789  14.800
77852W        W50277  44.295  22.118  10.184
77853W        W50278  18.140   3.432   3.899
77854W        W50279  10.967  37.228   2.584
77855W        W50280  29.725  39.018   4.589
77856W        W50281  23.867  15.199   0.367
77857W        W50282  29.527  24.171  10.565
77858W        W50283  22.138  43.918  13.383
77859W        W50284  30.103  32.653  11.472
77860W        W50285  35.627  22.034   1.192
77861W        W50286  44.224  10.640   0.508
77862W        W50287  31.973  34.026   0.508
77863W        W50288  32.858   9.979  13.991
77864W        W50289  14.837  26.560   2.607
77865W        W50290  44.509  10.731   0.041
77866W        W50291  43.596  22.790   4.154
77867W        W50292  16.159  30.994   3.338
77868W        W50293   0.405  26.468  12.546
77869W        W50294   5.400  37.186   3.366
77870W        W50295   1.374   5.773   3.270
77871W        W50296  29.856  40.773  10.620
77872W        W50297  29.404  15.678   0.465
77873W        W50298  36.576   6.966   9.842
77874W        W50299   7.713   5.878  10.162
77875W        W50300  15.539   1.764  10.122
77876W        W50301  22.579  28.572  14.475
77877W        W50302   2.752  36.318  12.307
77878W        W50303  41.053  16.823   4.210
77879W        W50304  30.286  44.697   0.199
77880W        W50305  11.657  31.071   0.991
77881W        W50306  13.297  13.254   0.867
77882W        W50307  20.896   2.923  13.816
77883W        W50308  11.643  16.687  11.440
77884W        W50309  30.562  40.817   3.336
77885W        W50310  24.156   5.796   3.579
77886W        W50311   9.359  18.365   1.855
77887W        W50312   6.859  28.138   1.857
77888W        W50313  20.150  10.719  13.843
77889W        W50314  21.053   0.561   2.336
77890W        W50315  25.897  13.048  13.257
77891W        W50316  12.151   4.831  13.564
77892W        W50317   3.821  26.889  12.686
77893W        W50318  11.679  27.541   4.128
77894W        W50319  43.330  12.380  13.151
77895W        W50320  22.046   2.399   3.700
77896W        W50321   7.835  17.670  13.782
77897W        W50322  43.294  14.832   1.308
77898W        W50323   0.677  23.140   3.354
77899W        W50324  37.559  31.628   4.899
77900W        W50325  44.859  43.996   1.267
77901W        W50326   0.878  16.047   2.692
77902W        W50327  21.462  31.514  13.135
77903W        W50328  31.572  21.347   4.533
77904W        W50329  42.306  44.875  10.453
77905W        W50330   1.444  31.407  13.721
77906W        W50331  21.382  23.135  14.491
77907W        W50332  14.289   3.162   1.742
77908W        W50333  38.242  26.040   1.955
77909W        W50334  23.464  23.036  11.197
77910W        W50335  37.753  18.587   2.279
77911W        W50336   8.176  34.915   3.281
77912W        W50337  17.201  31.992  10.776
77913W        W50338  29.792  21.401   9.994
77914W        W50339  32.721  34.582  13.457
77915W        W50340  28.096  31.835  10.150
77916W        W50341  41.888  39.605  14.991
77917W        W50342  43.051  21.538   1.208
77918W        W50343  30.102  41.967  10.861
77919W        W50344  20.642  33.326   2.693
77920W        W50345  25.198  16.293   1.742
77921W        W50346   9.008  33.494  10.659
77922W        W50347  35.585  40.697   2.760
77923W        W50348   5.120   0.238  12.398
77924W        W50349  13.126  30.934   0.978
77925W        W50350   4.479  24.115  13.920
77926W        W50351  22.238  35.087   1.924
77927W        W50352  44.791  37.424  12.504
77928W        W50353  43.923  24.113   1.762
77929W        W50354  43.445   1.709  11.085
77930W        W50355  12.472  19.065  13.320
77931W        W50356  22.946  42.995   1.641
77932W        W50357  16.411  22.166  14.437
77933W        W50358  44.603  13.510  14.979
77934W        W50359  33.607  13.806   3.851
77935W        W50360  14.283  32.564   3.493
77936W        W50361  14.281  33.224   2.636
77937W        W50362   1.478   5.673  12.775
77938W        W50363   3.594  30.717   1.021
77939W        W50364  11.188  43.877   0.754
77940W        W50365  28.163  33.058  14.301
77941W        W50366  42.898  34.849   0.758
77942W        W50367  12.865   7.656  11.299
77943W        W50368  31.404  12.422  12.023
77944W        W50369   1.193  43.722  14.882
77945W        W50370   2.537   8.274  11.509
77946W        W50371  30.413   5.315  11.841
77947W        W50372  10.172   0.533   1.411
77948W        W50373   6.263  28.091   3.497
77949W        W50374  44.811  29.704   2.332
77950W        W50375  43.148  40.917  13.544
77951W        W50376  23.747  15.059   4.299
77952W        W50377   9.474  15.089   4.121
77953W        W50378  15.021  28.461   2.570
77954W        W50379  42.556   8.342  14.943
77955W        W50380   4.959  26.665   3.796
77956W        W50381  32.936  24.643   4.478
77957W        W50382   2.566  18.262   1.248
77958W        W50383  16.142  28.925  14.305
77959W        W50384  43.229  10.353   4.776
77960W        W50385  21.739  20.094   4.289
77961W        W50386  20.925  38.085   3.739
77962W        W50387  25.559   3.073  11.519
77963W        W50388  21.662  10.584  14.043
77964W        W50389  44.802  25.395  14.842
77965W        W50390  32.146   1.921   0.827
77966W        W50391  42.254  40.601   3.389
77967W        W50392   6.275  40.342  14.048
77968W        W50393   9.383  44.796   2.859
77969W        W50394  40.250  28.737   4.839
77970W        W50395  37.647  26.100   3.925
77971W        W50396  43.970  19.111  12.407
77972W        W50397  33.342  38.575  13.096
77973W        W50398  36.649   7.919  11.270
77974W        W50399  37.063  32.709   2.197
77975W        W50400  25.778   9.413  14.453
77976W        W50401  10.797  38.836  10.967
77977W        W50402  22.905  42.828  10.384
77978W        W50403  44.871  23.594   1.183
77979W        W50404  36.878   6.373   1.228
77980W        W50405   1.650  34.439  11.061
77981W        W50406  14.046   4.739  10.842
77982W        W50407  20.192  22.124   1.159
77983W        W50408  22.672   7.581  11.634
77984W        W50409  35.054  23.751  14.069
77985W        W50410  25.989  24.573  13.485
77986W        W50411  23.787  35.485   3.214
77987W        W50412  26.054  13.771   2.290
77988W        W50413  36.956  40.522  10.720
77989W        W50414   2.777   5.918   2.451
77990W        W50415  44.350   2.451   1.359
77991W        W50416   6.902   0.526   4.698
77992W        W50417  16.737  33.792  11.629
77993W        W50418  11.652   9.009  10.569
77994W        W50419  15.422  37.970  13.083
77995W        W50420   9.783  41.808  12.502
77996W        W50421  21.528  27.382   3.943
77997W        W50422  36.721   1.542   3.802
77998W        W50423  32.875   2.313   1.200
77999W        W50424   8.397   7.688  10.662
78000W        W50425  41.427   6.778   3.388
78001W        W50426  11.884  17.764  13.143
78002W        W50427  23.653  33.389  14.195
78003W        W50428   8.868  38.348   2.638
78004W        W50429  31.608  21.226   1.116
78005W        W50430  20.271  29.340   0.656
78006W        W50431   7.185   8.099  11.025
78007W        W50432  35.112  25.422   4.126
78008W        W50433  14.542  20.015   3.283
78009W        W50434   8.284  15.151  14.849
78010W        W50435  23.114  14.780   0.827
78011W        W50436  23.822  17.715   4.627
78012W        W50437   0.492  15.304  13.332
78013W        W50438  13.304   1.246   0.512
78014W        W50439  27.966  44.180  13.919
78015W        W50440  19.694   9.406  10.621
78016W        W50441  14.366  15.601  11.886
78017W        W50442  20.207   0.744   3.107
78018W        W50443   8.820  36.274   3.181
78019W        W50444  29.951  31.454  13.005
78020W        W50445   3.854  31.860   4.953
78021W        W50446   6.745  23.415   1.081
78022W        W50447   1.624   9.779  13.363
78023W        W50448  11.319   9.417   4.547
78024W        W50449  22.793  39.579  13.478
78025W        W50450   4.836  32.941  13.832
78026W        W50451  37.318   0.857  14.800
78027W        W50452  37.978  39.402  12.960
78028W        W50453  43.395  14.638   3.248
78029W        W50454  24.251   3.656   1.787
78030W        W50455  40.585   7.150   2.272
78031W        W50456   6.140  43.522  14.232
78032W        W50457  22.583  38.026  13.699
78033W        W50458  22.255  31.780  12.976
78034W        W50459   9.484   1.917  10.027
78035W        W50460  11.804   2.448   3.258
78036W        W50461  21.123  37.647   1.636
78037W        W50462  19.932  23.023  14.226
78038W        W50463  24.382   4.452  10.633
78039W        W50464  25.988  28.672  13.482
78040W        W50465  43.987  13.301   3.147
78041W        W50466  38.122  14.399  13.861
78042W        W50467  21.715  15.167   0.741
78043W        W50468   6.807  20.485  11.587
78044W        W50469  12.273  11.351   4.661
78045W        W50470  10.596  23.709   0.788
78046W        W50471  37.548  23.256  14.407
78047W        W50472  27.277  12.882  11.125
78048W        W50473  16.799  38.131  12.902
78049W        W50474   6.140  29.896  10.866
78050W        W50475  12.240  15.074   2.865
78051W        W50476  40.285  22.279   2.743
78052W        W50477  28.287  14.138   1.008
78053W        W50478   2.663  22.915   0.912
78054W        W50479  39.708  12.773  13.274
78055W        W50480  31.029  15.078  11.775
78056W        W50481  43.765  38.660  13.972
78057W        W50482  38.757   1.155   1.780
78058W        W50483  42.867  40.916  12.594
78059W        W50484   0.097  31.098  12.147
78060W        W50485  38.556  31.659   3.746
78061W        W50486  28.863   6.166   2.773
78062W        W50487  30.647   5.600   2.659
78063W        W50488  30.425  25.533  14.732
78064W        W50489  24.453  37.129   4.072
78065W        W50490  12.048   3.220  13.312
78066W        W50491   0.925   1.156   2.169
78067W        W50492  12.118   2.277  10.058
78068W        W50493  21.994   3.678   2.150
78069W        W50494  37.295  14.139  10.158
78070W        W50495  39.670  13.625  14.434
78071W        W50496  22.512  11.198  13.921
78072W        W50497  39.864   0.211   2.864
78073W        W50498  25.017  25.358  11.048
78074W        W50499  22.061  16.186  11.506
78075W        W50500  24.467  22.103   1.500
78076W        W50501  29.408  38.947   1.252
78077W        W50502  11.348  44.058  12.875
78078W        W50503   0.705  39.063   3.310
78079W        W50504  11.253  20.316  10.601
78080W        W50505  24.334  27.097  13.229
78081W        W50506  23.079  28.915  12.930
78082W        W50507  30.667  16.362   1.442
78083W        W50508  19.629  44.649  10.549
78084W        W50509  38.745  17.004   4.473
78085W        W50510  18.789  26.553   3.066
78086W        W50511  18.611  41.909  14.406
78087W        W50512  40.820  17.702   3.282
78088W        W50513  26.216  22.342   4.235
78089W        W50514  29.964   3.975   3.121
78090W        W50515   1.458  17.278  12.962
78091W        W50516   7.307  17.734  13.477
78092W        W50517   0.520  43.270   2.223
78093W        W50518  29.156   9.838   4.958
78094W        W50519  30.705   9.782  12.206
78095W        W50520  19.200  44.892   1.315
78096W        W50521  18.493  35.513   1.254
78097W        W50522  15.897   8.901  12.718
78098W        W50523  13.080  10.775  12.861
78099W        W50524  25.145  25.566  12.304
78100W        W50525  11.856   6.383   3.635
78101W        W50526  33.656  29.508  11.068
78102W        W50527  20.726   0.752   3.927
78103W        W50528  19.644  17.006   3.850
78104W        W50529  10.415  32.495   4.227
78105W        W50530  19.596  31.427   1.366
78106W        W50531  31.685   4.093   5.010
78107W        W50532  20.709  23.559  11.151
78108W        W50533  35.844   1.883  11.621
78109W        W50534  42.855  11.505  10.469
78110W        W50535  18.177  41.785   2.722
78111W        W50536  16.110  20.152   1.764
78112W        W50537   6.393  17.328  10.964
78113W        W50538  41.304  28.083  14.456
78114W        W50539  19.268  32.831   2.501
78115W        W50540  14.672  19.399   2.631
78116W        W50541  24.378   9.534   4.873
78117W        W50542  27.647  42.811  14.561
78118W        W50543  16.108  35.278   1.294
78119W        W50544  32.242  12.027   3.687
78120W        W50545  25.745  40.866  12.417
78121W        W50546  18.711   6.834  10.636
78122W        W50547  23.106  17.830  11.047
78123W        W50548  16.559  28.518   0.927
78124W        W50549  39.518  44.826   2.793
78125W        W50550  14.339   1.762  14.278
78126W        W50551  44.378  17.819  12.851
78127W        W50552  39.102   1.303  14.328
78128W        W50553  25.366  30.586  14.208
78129W        W50554  40.762  24.594  14.437
78130W        W50555  17.569  21.224  13.251
78131W        W50556  17.800  31.979  14.083
78132W        W50557  41.300  19.798  10.365
78133W        W50558  36.420  43.431  13.040
78134W        W50559  35.398  43.556  10.806
78135W        W50560  21.224  42.498  10.477
78136W        W50561  18.080   8.368   1.733
78137W        W50562  35.277  13.310  12.030
78138W        W50563  24.828   8.669  11.129
78139W        W50564  15.921   7.710   2.494
78140W        W50565   2.424  27.029   4.303
78141W        W50566  26.013  31.849   4.229
78142W        W50567  25.891  26.371   1.993
78143W        W50568  13.699  22.244   1.313
78144W        W50569   2.796  43.571  11.047
78145W        W50570  17.776  44.502  14.396
78146W        W50571  27.036   2.849  14.763
78147W        W50572  28.168  16.000  10.044
78148W        W50573  37.497   7.794   3.996
78149W        W50574  36.624   5.765  13.436
78150W        W50575  41.555  41.753  10.694
78151W        W50576  29.985  38.454   1.459
78152W        W50577  41.295  12.742   0.927
78153W        W50578  10.109  37.051   1.493
78154W        W50579  35.469  34.073  12.424
78155W        W50580  25.286  23.079  11.527
78156W        W50581   5.380  23.133  11.952
78157W        W50582  30.725  36.607  10.785
78158W        W50583   1.224  19.188   3.071
78159W        W50584  27.663  31.968   9.370
78160W        W50585  31.080  32.932  14.622
78161W        W50586  37.467  17.293   0.763
78162W        W50587  31.925   1.126  14.338
78163W        W50588   1.791  23.157  14.391
78164W        W50589  13.278   3.296  11.195
78165W        W50590  11.338  29.166   0.206
78166W        W50591  32.016   9.691   1.689
78167W        W50592  18.495  40.363  12.916
78168W        W50593  13.705   4.741  10.382
78169W        W50594  19.561  20.080  13.978
78170W        W50595  34.424   0.369   2.739
78171W        W50596   7.398  20.655  14.984
78172W        W50597  43.606  31.479  13.596
78173W        W50598  41.929  10.844  11.904
78174W        W50599  38.774  13.322  12.264
78175W        W50600  24.965  24.392  13.473
78176W        W50601  35.273   8.518  10.183
78177W        W50602  10.876  38.990   3.540
78178W        W50603  30.831  44.166  11.600
78179W        W50604   6.742   2.710   3.667
78180W        W50605  16.093  10.980   4.272
78181W        W50606  30.650   3.176   4.923
78182W        W50607   1.306  36.461   2.823
78183W        W50608  31.117  23.658  11.868
78184W        W50609  41.894  14.127   0.974
78185W        W50610   9.638   3.294  10.956
78186W        W50611   4.708  27.650   2.921
78187W        W50612  38.376  31.453  13.195
78188W        W50613   7.418  39.915   2.258
78189W        W50614   9.833  41.856   4.995
78190W        W50615  17.646  34.921   1.033
78191W        W50616  10.747   7.165   2.380
78192W        W50617  15.140  14.254   0.670
78193W        W50618   0.455   9.879  12.591
78194W        W50619  25.440  27.625   2.075
78195W        W50620  15.918  24.022   1.373
78196W        W50621   7.491  44.337  14.393
78197W        W50622  22.137   3.221  13.406
78198W        W50623   2.906  26.088  13.896
78199W        W50624  14.317  36.664   4.699
78200W        W50625  33.348  12.824   2.267
78201W        W50626  41.399   3.640  14.961
78202W        W50627  15.831  19.303   4.428
78203W        W50628   2.643  23.135  11.604
78204W        W50629   7.392   8.910  14.889
78205W        W50630  18.675   6.959   1.378
78206W        W50631   4.829  32.476  12.663
78207W        W50632  16.606  23.670   2.726
78208W        W50633  44.704  42.563  13.950
78209W        W50634  21.123  22.302   2.117
78210W        W50635  41.862   7.749   2.166
78211W        W50636  13.338   1.274  13.044
78212W        W50637  34.260  12.795  11.143
78213W        W50638   9.828  11.622   3.312
78214W        W50639  22.048  35.821   4.240
78215W        W50640  32.363  14.131  12.545
78216W        W50641   8.936  35.486   0.877
78217W        W50642   2.765   7.752  10.768
78218W        W50643  39.018  35.834   2.258
78219W        W50644  38.070   7.244  12.000
78220W        W50645   4.823  29.993   4.198
78221W        W50646  13.902  29.663   4.184
78222W        W50647   9.038   4.235  14.538
78223W        W50648  34.905  10.084   0.701
78224W        W50649   7.608  29.065   3.773
78225W        W50650  17.665  17.982   0.217
78226W        W50651   0.022  36.602   0.218
78227W        W50652  20.900  26.554   4.611
78228W        W50653   0.600  26.123   0.529
78229W        W50654  27.102   8.166  13.506
78230W        W50655  14.228   7.810  13.281
78231W        W50656  34.621  30.633  14.373
78232W        W50657  13.684  41.373   0.360
78233W        W50658  17.079   0.277   9.960
78234W        W50659  34.945  30.324  13.069
78235W        W50660  21.139   0.760  10.492
78236W        W50661   2.991  12.478  11.142
78237W        W50662  16.352  35.848  11.618
78238W        W50663   3.306   8.219  13.098
78239W        W50664  31.424  29.584   4.717
78240W        W50665   0.414  10.583   2.288
78241W        W50666  14.048  23.146   0.531
78242W        W50667  30.873  25.703  14.322
78243W        W50668  38.527  39.780  10.973
78244W        W50669  42.814  12.631   4.138
78245W        W50670   4.327  30.656  14.979
78246W        W50671  20.258   2.830   0.492
78247W        W50672  32.476  39.023   1.424
78248W        W50673   3.288  22.624  14.550
78249W        W50674   0.964  11.325   3.765
78250W        W50675   0.621  20.690   3.415
78251W        W50676  33.343  11.750  10.060
78252W        W50677  42.689  23.429   0.422
78253W        W50678  18.033  39.372   0.870
78254W        W50679  19.273  10.258   1.460
78255W        W50680  20.640   2.667   2.700
78256W        W50681  36.294  28.032   1.817
78257W        W50682  22.440   0.614   3.295
78258W        W50683  16.267   0.413   0.368
78259W        W50684  30.435  10.313  13.916
78260W        W50685  32.647   0.616  14.545
78261W        W50686  31.931   1.931   0.322
78262W        W50687  43.712  23.679   0.835
78263W        W50688   0.113  21.791  12.950
78264W        W50689   6.409  17.842  14.776
78265W        W50690  44.390  23.724   3.916
78266W        W50691  10.223  30.402  10.424
78267W        W50692  21.226   5.000  11.985
78268W        W50693  29.987  23.151   0.028
78269W        W50694  32.303  32.511  13.804
78270W        W50695   5.615  15.689  14.804
78271W        W50696  22.628   1.537  12.858
78272W        W50697  13.767  24.636   0.007
78273W        W50698  10.256  24.240  13.243
78274W        W50699   9.590  32.046   3.195
78275W        W50700  16.804  10.216   2.830
78276W        W50701  11.858  22.141   0.372
78277W        W50702   3.818   6.052  10.267
78278W        W50703  10.098  15.411   0.261
78279W        W50704   6.482  34.218  13.124
78280W        W50705  15.730  19.762   4.698
78281W        W50706  36.796  33.859  12.622
78282W        W50707   6.744  23.741  12.013
78283W        W50708  18.157  36.564  14.233
78284W        W50709  15.174  33.149  14.484
78285W        W50710  32.987  34.959  12.498
78286W        W50711  25.554  20.619  10.337
78287W        W50712  12.610  22.174  14.791
78288W        W50713  11.082  42.989   2.265
78289W        W50714  22.534  15.062   2.754
78290W        W50715  27.532   4.150   3.556
78291W        W50716   8.899  44.361   4.606
78292W        W50717  40.787  13.686   3.307
78293W        W50718  42.362  27.726  13.450
78294W        W50719  35.956  12.783  13.671
78295W        W50720  22.318  13.394   3.330
78296W        W50721   8.323  42.127  11.913
78297W        W50722  37.940  25.622   1.923
78298W        W50723  37.600  10.651   2.289
78299W        W50724  14.546  26.475   0.671
78300W        W50725  28.553  21.853   0.944
78301W        W50726  11.642  38.372   1.918
78302W        W50727  34.457   3.972  11.121
78303W        W50728  18.303  27.431  13.039
78304W        W50729  43.075   5.834  11.492
78305W        W50730  26.257  37.089  10.727
78306W        W50731  35.927  18.782   1.838
78307W        W50732  27.429  34.830   4.390
78308W        W50733  29.472   9.762  14.547
78309W        W50734  23.643  37.000  10.690
78310W        W50735  25.789   4.868  13.996
78311W        W50736   0.175  37.552  11.002
78312W        W50737  38.457  21.914   0.660
78313W        W50738  38.749  41.857  14.924
78314W        W50739  14.388  20.440  12.611
78315W        W50740  27.606  38.269   2.671
78316W        W50741  31.866  42.813   1.404
78317W        W50742   2.001  37.074  12.462
78318W        W50743  22.810  19.353  13.769
78319W        W50744   0.337  18.789  11.611
78320W        W50745  30.445   4.200   3.032
78321W        W50746  17.285  24.085   0.583
78322W        W50747   0.300  44.744  12.794
78323W        W50748  10.641  38.900  14.790
78324W        W50749  20.779  13.152   3.376
78325W        W50750  14.337  43.860   0.715
78326W        W50751  38.946   5.808   2.811
78327W        W50752  33.931  37.983   2.625
78328W        W50753  29.254  13.805  13.845
78329W        W50754  41.404  43.440  12.789
78330W        W50755  34.637  33.725   1.893
78331W        W50756   1.851  29.382   3.601
78332W        W50757  13.227  40.039  13.940
78333W        W50758   1.295   4.308   0.212
78334W        W50759  26.961  17.245   3.321
78335W        W50760   0.209  24.830  13.447
78336W        W50761  22.674  30.836  11.119
78337W        W50762  38.309  41.762  11.176
78338W        W50763  43.789  29.427  12.556
78339W        W50764  18.618   8.213  11.845
78340W        W50765  25.462  33.207  11.063
78341W        W50766  37.534   3.966  11.158
78342W        W50767   5.148  20.449   1.912
78343W        W50768  30.836  20.772   1.298
78344W        W50769  10.182  43.488   1.433
78345W        W50770  42.761  22.547  12.036
78346W        W50771  40.667   5.772   1.781
78347W        W50772  33.453  24.667   4.615
78348W        W50773   4.677  11.795  13.338
78349W        W50774  39.045  18.211   2.285
78350W        W50775  11.151  40.522   4.958
78351W        W50776   6.048  34.538   3.152
78352W        W50777  13.290  31.867  10.421
78353W        W50778  36.542   6.687  14.364
78354W        W50779  43.403  39.145  11.257
78355W        W50780  20.759   3.381  12.494
78356W        W50781  39.337  25.153   0.289
78357W        W50782  30.335  28.480  14.413
78358W        W50783  11.737  41.871   4.594
78359W        W50784  14.393  36.944  14.217
78360W        W50785  23.264   9.177   5.058
78361W        W50786  33.178  21.023  12.875
78362W        W50787  29.531  41.878   2.161
78363W        W50788  36.288   3.245  10.686
78364W        W50789   8.748  21.163   4.941
78365W        W50790  12.826  31.856   0.362
78366W        W50791   3.286  16.670  13.590
78367W        W50792   0.440  19.241  13.301
78368W        W50793  22.183   3.417  14.816
78369W        W50794  10.261   6.369  11.054
78370W        W50795  17.182  17.194   4.589
78371W        W50796  39.396  44.357  13.694
78372W        W50797  23.440  12.585   2.279
78373W        W50798  27.710  42.200   4.503
78374W        W50799   8.879   7.879   0.974
78375W        W50800   7.644  13.765   4.215
78376W        W50801  21.243  44.568   0.270
78377W        W50802  17.779  20.842  12.301
78378W        W50803   7.475   5.089   4.184
78379W        W50804   6.089  44.024   0.027
78380W        W50805  20.688  35.890   2.854
78381W        W50806  29.481  21.528   0.438
78382W        W50807  32.369  18.746  14.978
78383W        W50808  42.486  25.161  10.651
78384W        W50809  42.979  31.634   3.923
78385W        W50810   6.789  41.081  14.569
78386W        W50811  34.334  33.597  13.593
78387W        W50812   0.721  18.213  12.433
78388W        W50813  10.652  22.782   4.591
78389W        W50814  24.629  21.745   3.355
78390W        W50815  17.757  40.027  12.067
78391W        W50816   6.922  14.090  11.686
78392W        W50817  29.466  13.787   1.894
78393W        W50818   2.816  14.666  11.739
78394W        W50819   4.824  31.726   0.068
78395W        W50820   7.859  31.410  11.201
78396W        W50821  12.031  19.323  13.415
78397W        W50822   3.734  30.436   2.810
78398W        W50823   4.631   9.740   1.814
78399W        W50824   4.201  35.919  11.256
78400W        W50825  32.889  30.109   1.600
78401W        W50826  35.080  22.937   4.263
78402W        W50827  42.420  11.825  14.491
78403W        W50828  15.989   2.727  12.926
78404W        W50829   8.893  33.176   3.254
78405W        W50830  37.108   7.079   4.755
78406W        W50831  26.487  17.649   5.099
78407W        W50832  39.027   0.803  12.127
78408W        W50833  28.666  24.685   0.387
78409W        W50834  35.132  16.116   1.857
78410W        W50835   7.191  23.741   1.928
78411W        W50836   1.966   0.741   3.339
78412W        W50837  20.044   3.675   0.458
78413W        W50838   0.555  10.569   0.005
78414W        W50839  36.431   9.074   1.717
78415W        W50840  15.856  20.816  12.520
78416W        W50841   8.265  29.969  11.422
78417W        W50842  39.273  27.148   3.226
78418W        W50843  38.857  19.950   0.714
78419W        W50844  31.623   2.966   1.678
78420W        W50845  21.561  29.965  12.907
78421W        W50846  19.763  21.911   1.882
78422W        W50847  10.609   7.389  12.992
78423W        W50848  22.667  35.838  13.563
78424W        W50849  13.652  41.264   0.983
78425W        W50850  15.411  18.303  14.870
78426W        W50851   6.522  33.134  13.842
78427W        W50852  41.498  40.782  11.000
78428W        W50853  26.570   4.026   1.256
78429W        W50854   7.410  39.612  11.104
78430W        W50855  40.931  41.397  12.482
78431W        W50856  16.709   6.779   3.716
78432W        W50857   6.421   9.652  12.439
78433W        W50858  18.206  20.684  12.044
78434W        W50859  14.230  12.261   1.899
78435W        W50860  13.568  33.206  12.057
78436W        W50861  42.292  32.907  14.802
78437W        W50862   0.917  10.807  13.511
78438W        W50863   7.388  32.077   0.874
78439W        W50864  34.784  16.210   4.141
78440W        W50865  19.582  36.949   1.421
78441W        W50866   0.491  17.265   4.115
78442W        W50867  11.902  27.741  11.089
78443W        W50868  37.498  43.052  12.378
78444W        W50869  37.340  36.146  12.409
78445W        W50870  22.570  34.589  11.545
78446W        W50871  31.103   3.386   3.090
78447W        W50872  12.817  25.516   1.699
78448W        W50873  34.550  16.438   0.987
78449W        W50874   8.880  21.772  13.489
78450W        W50875  13.162  28.819   3.099
78451W        W50876  32.111  15.593   1.956
78452W        W50877   7.228  29.708  11.137
78453W        W50878  12.880  24.470   2.843
78454W        W50879  14.885  30.571   3.664
78455W        W50880   0.366  20.005   2.294
78456W        W50881  17.616  21.706  13.075
78457W        W50882  28.553   6.325  14.130
78458W        W50883  32.820  12.245  13.242
78459W        W50884  15.066   2.336  14.432
78460W        W50885  11.594   5.480  11.110
78461W        W50886  35.461  10.229   1.949
78462W        W50887  25.790   0.939  10.731
78463W        W50888   7.814  17.962   1.903
78464W        W50889  27.902  27.316  10.130
78465W        W50890  10.291  35.633   4.668
78466W        W50891  40.511  29.925  14.371
78467W        W50892  32.658  12.352  11.581
78468W        W50893  11.891  18.612   2.377
78469W        W50894  13.534  10.628  12.366
78470W        W50895   3.832  23.980   4.182
78471W        W50896  19.206  14.312   2.331
78472W        W50897  21.502  15.206  10.583
78473W        W50898  29.770  34.803   3.706
78474W        W50899   7.947   8.767   1.835
78475W        W50900  31.510  41.257   3.609
78476W        W50901  35.679  11.885   3.692
78477W        W50902   9.938  38.426  10.600
78478W        W50903  44.197  29.655  13.392
78479W        W50904  34.210  18.697   3.162
78480W        W50905  21.155  32.216   4.999
78481W        W50906  18.661  27.140   1.850
78482W        W50907   0.236  24.099  12.670
78483W        W50908  40.830  27.592  10.873
78484W        W50909  41.468   4.839   0.066
78485W        W50910  33.811  20.114  14.928
78486W        W50911  32.602  40.422   4.117
78487W        W50912  33.900  19.195  13.342
78488W        W50913   5.249  13.727  12.494
78489W        W50914  22.528  34.511  10.646
78490W        W50915   1.174  44.077   1.845
78491W        W50916   9.395  22.498  14.892
78492W        W50917  12.781  11.655   2.284
78493W        W50918  35.191  13.146  11.156
78494W        W50919  28.828  12.822   3.110
78495W        W50920  34.317  43.027  14.498
78496W        W50921  29.072  38.538   0.819
78497W        W50922  15.720  43.829   3.054
78498W        W50923  25.937   5.292   1.513
78499W        W50924  22.621  24.483  11.267
78500W        W50925  32.403  38.068   1.448
78501W        W50926  42.998  24.534  11.535
78502W        W50927  27.024  34.033   3.850
78503W        W50928  35.289  36.431   3.590
78504W        W50929  25.034  22.265  14.808
78505W        W50930  20.633  27.956   0.458
78506W        W50931  17.641   8.962  13.554
78507W        W50932  24.992  26.614  12.868
78508W        W50933  30.938  21.977   3.847
78509W        W50934   9.798   8.886  10.599
78510W        W50935  37.950  25.060  12.483
78511W        W50936  39.788  36.959  14.541
78512W        W50937  22.910  23.894  14.435
78513W        W50938  35.029  36.988  10.805
78514W        W50939  23.975  36.096   1.269
78515W        W50940  37.748  39.550  13.427
78516W        W50941  24.137  25.710   0.355
78517W        W50942  15.227  40.613  12.596
78518W        W50943   0.099   0.535   3.145
78519W        W50944  11.697  31.328   4.032
78520W        W50945  32.672  44.339  12.423
78521W        W50946   5.471  28.069   0.395
78522W        W50947  30.316  23.696  14.388
78523W        W50948  42.136   4.218  11.087
78524W        W50949  43.890  12.413  12.483
78525W        W50950  10.242   3.306   2.268
78526W        W50951  37.014  41.433   1.355
78527W        W50952  13.599  22.975  11.014
78528W        W50953  20.121   3.284   4.141
78529W        W50954   6.689  25.515  14.488
78530W        W50955  37.079   2.294   0.197
78531W        W50956  29.733  36.050   3.211
78532W        W50957  16.427  42.965  10.694
78533W        W50958  14.407   1.941   4.203
78534W        W50959  30.354  35.766  13.902
78535W        W50960  16.701  39.313   2.295
78536W        W50961  13.735  28.100  12.486
78537W        W50962  39.569   5.435   2.344
78538W        W50963   5.264   4.231  10.689
78539W        W50964  13.629  44.081  12.767
78540W        W50965  33.812   7.671  14.985
78541W        W50966  11.080  22.735  13.805
78542W        W50967   4.790   5.437   4.328
78543W        W50968  20.134  16.285  13.597
78544W        W50969   2.185   9.196  14.121
78545W        W50970  19.255  23.536  13.448
78546W        W50971  19.855   8.296  11.232
78547W        W50972  17.984  19.235   3.767
78548W        W50973  43.010  43.651   1.760
78549W        W50974  32.128  10.541   3.802
78550W        W50975  23.700  12.721   3.536
78551W        W50976   4.099  29.452  14.528
78552W        W50977  35.100   9.796  14.257
78553W        W50978  15.876  43.419   4.703
78554W        W50979  37.351  26.504   5.209
78555W        W50980  18.693  16.839  10.710
78556W        W50981  34.059  29.685  12.595
78557W        W50982  26.396  16.630  13.915
78558W        W50983   7.847  23.813   9.879
78559W        W50984  34.085  35.803   1.966
78560W        W50985  15.528  29.339   1.215
78561W        W50986  10.460  37.894   2.510
78562W        W50987  21.125  18.005  13.344
78563W        W50988  34.939  37.358   3.743
78564W        W50989  25.051   8.963  12.951
78565W        W50990  33.053   9.388   0.428
78566W        W50991   2.533  13.549  10.965
78567W        W50992  16.692  11.972   4.605
78568W        W50993   6.573  37.207   3.428
78569W        W50994  20.200   2.783  11.610
78570W        W50995  40.547  33.243   4.904
78571W        W50996   5.699  36.379   2.139
78572W        W50997  16.087  23.898   1.848
78573W        W50998  35.902  32.764   3.318
78574W        W50999  16.327   8.638  11.893
78575W        W51000  31.825  31.547   3.938
78576W        W51001  20.523  26.479   0.310
78577W        W51002  21.789  15.126   2.420
78578W        W51003  31.519  32.001  12.919
78579W        W51004  14.021  35.962  13.544
78580W        W51005  27.152  31.383  14.791
78581W        W51006  44.931   0.997   2.887
78582W        W51007  13.710   8.285   1.032
78583W        W51008  37.928  24.001  11.532
78584W        W51009  16.453   9.019   5.185
78585W        W51010  32.699  39.527   1.342
78586W        W51011  26.515   9.282   0.214
78587W        W51012  38.331   5.701  10.524
78588W        W51013  13.112  30.243  13.014
78589W        W51014  18.101  38.900  10.719
78590W        W51015   3.861  37.303   4.646
78591W        W51016  37.904  10.343  13.358
78592W        W51017  30.530   8.191   0.347
78593W        W51018  43.562  14.741  14.951
78594W        W51019  24.686  25.613  12.969
78595W        W51020  35.153  19.282  11.546
78596W        W51021  14.350   9.892  12.055
78597W        W51022  40.852  31.630   3.227
78598W        W51023  39.669   3.754   1.010
78599W        W51024  21.291  32.401  10.670
78600W        W51025  23.577  22.338  14.896
78601W        W51026  39.463  22.093  13.344
78602W        W51027  43.254   4.839   4.250
78603W        W51028  22.476  23.549   5.165
78604W        W51029  43.264  28.583   4.185
78605W        W51030  41.226  15.619  13.469
78606W        W51031   9.580  20.053   2.671
78607W        W51032   7.881  25.710   3.335
78608W        W51033   8.253  42.967   1.357
78609W        W51034  28.885  29.549  12.584
78610W        W51035  21.568  12.126   1.365
78611W        W51036  32.253  14.947   4.587
78612W        W51037  37.399  24.344   4.344
78613W        W51038  44.469  25.286   3.735
78614W        W51039  20.513   8.783  12.547
78615W        W51040   6.905  19.111  13.392
78616W        W51041  34.208  19.336   2.760
78617W        W51042  26.130  23.013  12.753
78618W        W51043  32.628  22.645  14.610
78619W        W51044  16.108   8.129   2.860
78620W        W51045  24.188  43.935   2.685
78621W        W51046   0.138   0.832   4.592
78622W        W51047   0.477   0.212   4.598
78623W        W51048   1.970  40.699   3.244
78624W        W51049  33.567  28.378  11.347
78625W        W51050  27.225   7.422  11.401
78626W        W51051  10.844  27.576   0.911
78627W        W51052  43.903  15.774   4.650
78628W        W51053  27.420  41.267   4.704
78629W        W51054  44.616  35.335   4.559
78630W        W51055  17.015  33.984  14.979
78631W        W51056  39.511  11.067   4.499
78632W        W51057  29.985  20.175   3.202
78633W        W51058  11.109  25.669   0.527
78634W        W51059   5.803  24.515   3.093
78635W        W51060   9.464  17.704   2.831
78636W        W51061   8.727  29.141   0.296
78637W        W51062   8.216  29.579   1.384
78638W        W51063   2.894  21.685   1.677
78639W        W51064  29.610   8.736   4.531
78640W        W51065  37.993   4.746   4.027
78641W        W51066  23.260  16.774  14.994
78642W        W51067  24.198   0.385   4.378
78643W        W51068  10.439  36.519   3.587
78644W        W51069  22.225  20.701  14.239
78645W        W51070   3.464  14.704  12.891
78646W        W51071  19.674   8.427  13.798
78647W        W51072   6.727   2.002  12.548
78648W        W51073   6.032   5.593  13.913
78649W        W51074  25.334  11.899   0.178
78650W        W51075   0.472  26.650  13.958
78651W        W51076   0.056  21.589   1.269
78652W        W51077  12.906  30.496   0.925
78653W        W51078  39.461   1.770   0.283
78654W        W51079  19.328  14.345  14.406
78655W        W51080  17.139   3.425  10.850
78656W        W51081   2.515  30.104   1.749
78657W        W51082   6.194  15.699  13.481
78658W        W51083   0.447  33.099  12.982
78659W        W51084  11.991  19.705   3.102
78660W        W51085  37.482  13.593   2.231
78661W        W51086  41.455  40.678  13.793
78662W        W51087  38.396  25.990  14.318
78663W        W51088  12.337  10.381  10.380
78664W        W51089  28.947   9.837  10.741
78665W        W51090  41.089  11.533   2.010
78666W        W51091  29.119  28.681   1.227
78667W        W51092   9.297  17.335  10.157
78668W        W51093  11.819  11.253  12.733
78669W        W51094  37.280  39.975   2.654
78670W        W51095  18.769  41.604  14.946
78671W        W51096  21.876  36.371   2.858
78672W        W51097  10.971  19.308  13.499
78673W        W51098  23.344  10.843  12.577
78674W        W51099  16.797  23.511  10.747
78675W        W51100   4.720   2.387   0.276
78676W        W51101  17.617  34.536   0.270
78677W        W51102   4.041   6.196  12.366
78678W        W51103  36.989   6.580  12.449
78679W        W51104  26.007  44.975  10.913
78680W        W51105   5.436  29.483   2.870
78681W        W51106   4.975  39.953   0.916
78682W        W51107   0.998   5.876   4.583
78683W        W51108  35.590  37.324  13.489
78684W        W51109   8.100  25.548  14.512
78685W        W51110  14.285   1.892   3.630
78686W        W51111   3.234  23.147  14.715
78687W        W51112  14.040   5.698  14.504
78688W        W51113  40.332   1.263  11.105
78689W        W51114  42.598   1.259   3.580
78690W        W51115  11.195  39.731  14.682
78691W        W51116  18.123  25.267  11.919
78692W        W51117  38.384  24.790  12.608
78693W        W51118  30.060   9.383   3.083
78694W        W51119  12.160  22.183   1.811
78695W        W51120  44.357   6.424  10.580
78696W        W51121  26.874  32.060   0.200
78697W        W51122   8.103  41.568   5.005
78698W        W51123  18.504  12.888  14.866
78699W        W51124  21.028  29.019   2.764
78700W        W51125   9.764  39.944   1.877
78701W        W51126  33.173  34.861   1.228
78702W        W51127  33.173  44.329  12.479
78703W        W51128  15.977   0.438  14.918
78704W        W51129  31.652  41.056  12.072
78705W        W51130  37.949   9.162   5.024
78706W        W51131   3.278  38.967   1.778
78707W        W51132  25.533  16.963   2.214
78708W        W51133  12.572   2.168   2.242
78709W        W51134  21.976  15.200  14.181
78710W        W51135  39.825   6.654   1.750
78711W        W51136  31.617   9.400   1.503
78712W        W51137   8.095   3.719   3.778
78713W        W51138   2.904  25.802  13.474
78714W        W51139  29.609   8.253  14.012
78715W        W51140  40.053  36.341   3.327
78716W        W51141   4.182   1.243   4.613
78717W        W51142  10.800  38.477  11.667
78718W        W51143  40.317  42.922  14.456
78719W        W51144  26.044  17.551  12.771
78720W        W51145   2.037  33.871   1.414
78721W        W51146  38.338  11.377   0.877
78722W        W51147  21.600  37.950   0.617
78723W        W51148  20.857  41.812  12.479
78724W        W51149  10.065   4.181   5.013
78725W        W51150   3.514  40.288  10.710
78726W        W51151  43.764  33.410  12.819
78727W        W51152  33.491  38.465  10.720
78728W        W51153  18.216  16.610  12.564
78729W        W51154  40.371  33.033   2.245
78730W        W51155  13.936  20.496   3.710
78731W        W51156   0.962  17.156   1.867
78732W        W51157   5.899   5.155   1.030
78733W        W51158  34.911  30.094   3.699
78734W        W51159   4.675   2.948  12.130
78735W        W51160   7.939  44.540   4.518
78736W        W51161  25.108  10.224   0.844
78737W        W51162  25.943  13.123  14.964
78738W        W51163  33.696  15.821   3.224
78739W        W51164  28.100  41.288   2.832
78740W        W51165  29.919  36.917   2.664
78741W        W51166   7.192  19.919   1.318
78742W        W51167  23.150   9.405   3.708
78743W        W51168  29.394   8.334  14.471
78744W        W51169  38.438  19.111   1.445
78745W        W51170  41.831  12.545  13.471
78746W        W51171  43.459  30.170   2.199
78747W        W51172  26.752   2.917  13.523
78748W        W51173  10.334  25.129  10.782
78749W        W51174  12.627  30.604   4.773
78750W        W51175  44.547  16.054  14.545
78751W        W51176  26.092  28.392  11.186
78752W        W51177  29.134  26.700  14.514
78753W        W51178  42.449  19.085  10.929
78754W        W51179  24.659  41.262  11.982
78755W        W51180  17.718   6.145  11.230
78756W        W51181  25.383  23.942   3.831
78757W        W51182  27.547  39.595  13.944
78758W        W51183  23.742  12.772   1.839
78759W        W51184  16.198  39.349  13.089
78760W        W51185  40.963  44.281  10.829
78761W        W51186   3.954  36.151  14.471
78762W        W51187  30.345  19.059   4.559
78763W        W51188  34.988  32.496   0.907
78764W        W51189  43.059  10.755  11.162
78765W        W51190  27.495  28.941  12.633
78766W        W51191  41.040  40.046   4.126
78767W        W51192  26.391  13.336   0.911
78768W        W51193   9.761   0.428   0.022
78769W        W51194  22.706  41.030   1.647
78770W        W51195  30.084  34.596  13.288
78771W        W51196  18.573  28.103  12.859
78772W        W51197  23.246  33.626  13.966
78773W        W51198  33.978  22.743  11.896
78774W        W51199  29.597  42.423   3.264
78775W        W51200   0.860  22.449   2.641
78776W        W51201  16.016  13.690   4.565
78777W        W51202  16.003  31.847   4.602
78778W        W51203  33.045  31.569   3.393
78779W        W51204  27.884  29.138  11.739
78780W        W51205  37.517  14.806  14.556
78781W        W51206  16.948  41.440   4.539
78782W        W51207  14.501   5.251   1.691
78783W        W51208  32.901   7.411  14.424
78784W        W51209   7.739  44.207  10.776
78785W        W51210  30.615   6.844  13.525
78786W        W51211   6.826  34.905   3.277
78787W        W51212   2.637  24.170  11.550
78788W        W51213  14.271   3.420  10.991
78789W        W51214  15.122  42.058  12.984
78790W        W51215  37.791   9.254   5.742
78791W        W51216  11.261  10.483   2.618
78792W        W51217  35.587  12.059   1.437
78793W        W51218  33.711  22.285   1.482
78794W        W51219   3.453  36.519   3.275
78795W        W51220   0.885  10.848  14.702
78796W        W51221   7.838  43.683  14.072
78797W        W51222  34.555  44.773   4.640
78798W        W51223   9.431  15.798  13.514
78799W        W51224   8.805  12.115  14.737
78800W        W51225  30.577   3.441   1.407
78801W        W51226  35.045  22.720  10.674
78802W        W51227  31.693  28.081   3.051
78803W        W51228  32.993  17.162   0.597
78804W        W51229   2.764  22.419   0.781
78805W        W51230   8.358  26.894  11.952
78806W        W51231  26.468  20.651   1.013
78807W        W51232   6.266   9.915   2.485
78808W        W51233  32.532  41.503   4.981
78809W        W51234   3.460  26.560  14.998
78810W        W51235  40.554  31.288  12.494
78811W        W51236  20.616  34.620   3.211
78812W        W51237  27.953  35.112   3.160
78813W        W51238  18.838   1.821  13.569
78814W        W51239  34.122  41.278  10.697
78815W        W51240  14.767   9.734  12.978
78816W        W51241  21.233   4.479  11.207
78817W        W51242  43.350  10.163  12.432
78818W        W51243   1.419  10.929  13.407
78819W        W51244  25.025  41.754   0.034
78820W        W51245  30.995  23.957   1.808
78821W        W51246   7.583  31.792   1.258
78822W        W51247  35.439  24.602   1.167
78823W        W51248  11.905  23.579   0.947
78824W        W51249  39.289  21.347  13.753
78825W        W51250   7.716  35.613  13.309
78826W        W51251  22.640   1.060  11.058
78827W        W51252  11.785   0.994  13.555
78828W        W51253  44.217  35.499  14.925
78829W        W51254  38.069  16.298  11.554
78830W        W51255  43.668  43.454   3.630
78831W        W51256  36.929  34.896   1.048
78832W        W51257  39.178  13.586   3.316
78833W        W51258   6.077  21.634  12.403
78834W        W51259  29.752  32.220   5.015
78835W        W51260  10.734  42.332  11.186
78836W        W51261  21.036  11.773   1.940
78837W        W51262  28.431   7.334  12.044
78838W        W51263  10.539  42.490  12.579
78839W        W51264  27.623  43.186   4.604
78840W        W51265  28.179  34.551   1.926
78841W        W51266  17.305  21.088  12.117
78842W        W51267  24.728  42.602   4.097
78843W        W51268  41.053  12.357  10.697
78844W        W51269  44.759  23.648  11.077
78845W        W51270  33.590  16.314   3.985
78846W        W51271  33.277  29.852   1.391
78847W        W51272   1.339  24.162  11.183
78848W        W51273   9.920   5.333  10.786
78849W        W51274  42.422  33.757  11.198
78850W        W51275   8.316   5.270  11.149
78851W        W51276  39.906  32.873  12.835
78852W        W51277  39.380  20.062   2.283
78853W        W51278  21.581  29.989   1.216
78854W        W51279  35.200  22.549   2.775
78855W        W51280  19.222  44.235   0.309
78856W        W51281  27.512  34.379   3.359
78857W        W51282   2.800  29.976  14.487
78858W        W51283  32.424  30.448  12.825
78859W        W51284   1.990  34.080   0.882
78860W        W51285   5.823  38.277  10.500
78861W        W51286   3.236   2.939  13.353
78862W        W51287  16.078  41.280  12.993
78863W        W51288  34.602  26.080   2.134
78864W        W51289  27.639   0.301   4.597
78865W        W51290  19.997  12.378  14.847
78866W        W51291   6.969  22.966   0.814
78867W        W51292  33.613   4.003   0.431
78868W        W51293  28.567   8.315   2.374
78869W        W51294  22.600  36.478   3.459
78870W        W51295   9.770  21.725   2.596
78871W        W51296  43.654  10.278  12.952
78872W        W51297  21.299  15.037  13.492
78873W        W51298  40.762   0.462   0.031
78874W        W51299  24.556  43.077  13.462
78875W        W51300   5.201  21.072  11.963
78876W        W51301  29.611  10.769   1.970
78877W        W51302   7.353  36.483  11.783
78878W        W51303  19.165  40.087   3.834
78879W        W51304  28.244  40.714  14.433
78880W        W51305   5.478   1.922   4.631
78881W        W51306  15.375  34.675   0.869
78882W        W51307  44.786  10.211   0.885
78883W        W51308  15.537  24.450  13.469
78884W        W51309  21.079   5.907  12.101
78885W        W51310  43.899  14.782  11.021
78886W        W51311  41.531  44.701  12.078
78887W        W51312   1.785  38.517  14.241
78888W        W51313  33.204  20.186   4.223
78889W        W51314  26.456  27.628   1.190
78890W        W51315  25.883  19.782  13.366
78891W        W51316  44.841  27.107   4.693
78892W        W51317  17.545  39.394  13.084
78893W        W51318  36.860  44.403   1.073
78894W        W51319   3.046  29.979  13.926
78895W        W51320  22.649   9.399  12.985
78896W        W51321  25.017  38.954  10.649
78897W        W51322  28.524  40.328  10.642
78898W        W51323  17.997   9.936   3.057
78899W        W51324  34.106  34.082   0.875
78900W        W51325   3.400   3.755   0.952
78901W        W51326  22.658  13.069   1.390
78902W        W51327  18.285  14.749  14.935
78903W        W51328   3.787  11.822   4.634
78904W        W51329  30.127  26.616  11.815
78905W        W51330  31.919   5.915   3.474
78906W        W51331  38.538  27.944   2.091
78907W        W51332  13.735  33.862  11.036
78908W        W51333  23.729  37.924  12.904
78909W        W51334  20.462   9.593  14.974
78910W        W51335  12.178  21.644  14.058
78911W        W51336  32.627  22.488  14.136
78912W        W51337  28.296  23.946   4.268
78913W        W51338  44.804  33.481  10.566
78914W        W51339  30.837  39.531   0.213
78915W        W51340   5.199  23.053  13.391
78916W        W51341  39.462  10.146   1.721
78917W        W51342  11.758  28.081   1.730
78918W        W51343   4.707   1.857   4.839
78919W        W51344   2.741  26.221   2.223
78920W        W51345  40.241  38.395   0.746
78921W        W51346  29.549   1.844  14.447
78922W        W51347  11.206  22.000   5.637
78923W        W51348   3.695   1.025  11.656
78924W        W51349  20.614  26.635   5.037
78925W        W51350  44.281  33.656  14.392
78926W        W51351  25.045   3.476  13.083
78927W        W51352  21.704   2.424  12.881
78928W        W51353  15.246  17.233   4.127
78929W        W51354   0.906  30.460   3.379
78930W        W51355  20.303  20.276  12.522
78931W        W51356  10.347  16.552  13.536
78932W        W51357  20.904   1.651  10.356
78933W        W51358  27.674   7.478  14.574
78934W        W51359  37.040  38.997   0.917
78935W        W51360  30.695  12.967   0.372
78936W        W51361  29.392  22.745  13.460
78937W        W51362   3.334   3.436  13.897
78938W        W51363  26.125  10.782   0.996
78939W        W51364  35.377  25.533   3.418
78940W        W51365  38.384  16.541  13.456
78941W        W51366  25.664  40.817   0.346
78942W        W51367   3.832  32.211   2.690
78943W        W51368   3.208   9.570   0.641
78944W        W51369  27.482  28.937  14.898
78945W        W51370  20.807  20.764   3.695
78946W        W51371  11.276  16.618   2.299
78947W        W51372   5.818   5.184  14.856
78948W        W51373  12.198   7.286  11.009
78949W        W51374  30.186   5.196   4.843
78950W        W51375  10.550  25.908  10.203
78951W        W51376  10.375   0.569  12.409
78952W        W51377  29.895  21.585  13.939
78953W        W51378  26.649  15.644  14.847
78954W        W51379  40.080  14.098  10.396
78955W        W51380  26.110  36.148   2.363
78956W        W51381  26.514  16.646   1.085
78957W        W51382  13.789  23.729   1.630
78958W        W51383  30.100   0.341   1.288
78959W        W51384   5.479   7.000  10.532
78960W        W51385   6.721  17.531  12.026
78961W        W51386  18.956  20.107   2.581
78962W        W51387   5.379  25.922  11.195
78963W        W51388  30.784   1.499   2.628
78964W        W51389  26.501  40.836   0.496
78965W        W51390  19.289   5.244   2.880
78966W        W51391  25.654  43.387   2.187
78967W        W51392  19.777  30.226  11.617
78968W        W51393  11.297   2.997   2.086
78969W        W51394   8.977  19.328  12.365
78970W        W51395  42.663  36.104   4.280
78971W        W51396  43.362  16.816   1.047
78972W        W51397  29.099  17.346   0.968
78973W        W51398  23.700  33.991   1.911
78974W        W51399  18.155  35.421  10.909
78975W        W51400   5.238  27.715  14.785
78976W        W51401  35.392  26.129  11.549
78977W        W51402  43.157   6.626   4.101
78978W        W51403   6.267  32.713  13.045
78979W        W51404  44.831  22.720  12.398
78980W        W51405   7.361  24.038  11.173
78981W        W51406   9.679   1.162  14.557
78982W        W51407  36.665   0.555   2.894
78983W        W51408  43.086  17.678   0.479
78984W        W51409  18.572  22.221   4.297
78985W        W51410  32.008  38.069   3.083
78986W        W51411  29.612  27.767   4.640
78987W        W51412  11.853  12.839  11.612
78988W        W51413  26.362  10.320   1.947
78989W        W51414  14.403  20.146  13.871
78990W        W51415   7.572  24.663   0.312
78991W        W51416  12.570  11.696   1.379
78992W        W51417  25.034  10.089   1.418
78993W        W51418  24.221  19.172  12.949
78994W        W51419  17.574   7.022   4.060
78995W        W51420  30.351  18.757  14.882
78996W        W51421   0.799  35.965  14.353
78997W        W51422  35.024  12.319   2.346
78998W        W51423  28.154  19.852  13.991
78999W        W51424   8.220  35.436   3.183
79000W        W51425  20.370  20.824   1.370
79001W        W51426  26.568  27.158   1.371
79002W        W51427  11.530  12.905  12.441
79003W        W51428  13.515  16.148   1.841
79004W        W51429  23.563  30.951   0.252
79005W        W51430  16.534  39.792   2.339
79006W        W51431  29.028  31.616   0.660
79007W        W51432  27.899  44.580   0.354
79008W        W51433  11.665   6.501   0.926
79009W        W51434  25.680   1.460  10.695
79010W        W51435  23.968  31.936   5.014
79011W        W51436  19.795  39.840   2.651
79012W        W51437  44.778   6.432   0.880
79013W        W51438  27.718   0.007   1.934
79014W        W51439   4.844   0.358  14.374
79015W        W51440   2.823  25.186   1.903
79016W        W51441  34.615   8.787   4.902
79017W        W51442  31.020  27.970   4.395
79018W        W51443  31.502  17.409   2.333
79019W        W51444  24.326   6.392   5.004
79020W        W51445  12.162  13.802   4.481
79021W        W51446  17.154  18.560  10.728
79022W        W51447   3.185  42.365   1.505
79023W        W51448  33.316  11.267   0.247
79024W        W51449   6.931  30.446  11.476
79025W        W51450  10.031  40.637   2.432
79026W        W51451  15.328  42.787  12.530
79027W        W51452  37.008  40.783  11.182
79028W        W51453   2.403  19.596  11.974
79029W        W51454  40.505   7.564  11.224
79030W        W51455  29.943   6.664  14.420
79031W        W51456  16.011   1.391  14.924
79032W        W51457  39.746   3.723  13.408
79033W        W51458  21.641  32.078   2.131
79034W        W51459  29.715  16.966  14.916
79035W        W51460  32.639  29.968  12.679
79036W        W51461  35.348   0.056   3.175
79037W        W51462   2.189  41.590  11.694
79038W        W51463  11.849  25.762   3.704
79039W        W51464   0.792  13.092  14.494
79040W        W51465  36.409  22.265  11.520
79041W        W51466  13.736  36.482  11.869
79042W        W51467  15.476  30.803  12.477
79043W        W51468  34.376  23.867   0.892
79044W        W51469  14.984  38.977  13.875
79045W        W51470  41.522  32.193   0.900
79046W        W51471  21.662  28.072   0.224
79047W        W51472  36.430   3.732  10.624
79048W        W51473  42.851  44.606   5.184
79049W        W51474   7.126  36.384   3.674
79050W        W51475  11.895  25.178  13.016
79051W        W51476  21.480   5.264  10.516
79052W        W51477  44.225  16.554  12.901
79053W        W51478  15.327  41.282  11.764
79054W        W51479  25.106  30.013   0.645
79055W        W51480  38.326   6.248  12.630
79056W        W51481  43.459  42.984  10.747
79057W        W51482  18.266  30.850  11.483
79058W        W51483   0.889  35.453  13.422
79059W        W51484   6.840  35.570  12.910
79060W        W51485  16.731  40.398  14.467
79061W        W51486  36.882  12.621  10.788
79062W        W51487   9.432  15.760  12.085
79063W        W51488  27.433  35.351   3.072
79064W        W51489  18.007  37.792   3.223
79065W        W51490  15.457   4.211   5.518
79066W        W51491  36.300  27.002  12.359
79067W        W51492   1.958  38.536   1.996
79068W        W51493   1.215  33.519   4.325
79069W        W51494   6.793  35.855   3.285
79070W        W51495  39.306  13.024   1.981
79071W        W51496   1.049  34.060   1.853
79072W        W51497  29.916  38.934   2.752
79073W        W51498   2.683  30.502   1.423
79074W        W51499  11.896   8.809   1.491
79075W        W51500  39.154  18.401   4.991
79076W        W51501  14.604  43.056  10.421
79077W        W51502  28.159  11.634   2.508
79078W        W51503  15.814   3.984   2.755
79079W        W51504   8.685  32.369  14.774
79080W        W51505  17.433   0.547  11.678
79081W        W51506  34.590   2.877   2.259
79082W        W51507  22.291  20.004  14.909
79083W        W51508  25.896  39.268   0.882
79084W        W51509  44.550  31.215   0.750
79085W        W51510  18.122  16.521  14.431
79086W        W51511  22.622  24.596   2.817
79087W        W51512  44.597  34.121   5.348
79088W        W51513  13.647  43.797  11.148
79089W        W51514  10.326  44.240  11.465
79090W        W51515   0.963  26.508  13.969
79091W        W51516  13.673   7.209   0.522
79092W        W51517  35.828  27.882   1.698
79093W        W51518  24.460  31.136   0.238
79094W        W51519   3.454  17.018   3.797
79095W        W51520  44.640  20.729   0.884
79096W        W51521  26.762  26.009   0.019
79097W        W51522  17.657  34.206  12.381
79098W        W51523   3.756  39.404  11.157
79099W        W51524  12.229   0.264  14.319
79100W        W51525  26.256  31.058   3.104
79101W        W51526  24.733   4.375  13.144
79102W        W51527  28.734   3.741  11.640
79103W        W51528  11.391   5.402  13.355
79104W        W51529  31.244  16.958   3.127
79105W        W51530  34.527   0.871   2.646
79106W        W51531  10.966  18.863  13.796
79107W        W51532  30.265  20.152  14.551
79108W        W51533   6.440  42.299   2.618
79109W        W51534  11.824  33.940  14.715
79110W        W51535  12.056   2.283   3.662
79111W        W51536  26.439  37.791  11.613
79112W        W51537  20.040   8.896   3.226
79113W        W51538  26.700  18.093   4.923
79114W        W51539  32.036  30.413   0.672
79115W        W51540  36.864  31.713  10.960
79116W        W51541   3.674  19.953  13.086
79117W        W51542  15.579  38.461  12.341
79118W        W51543  21.508  27.129   1.807
79119W        W51544   6.787   9.622   3.248
79120W        W51545  24.328  28.043   1.482
79121W        W51546  11.837  28.432  13.367
79122W        W51547  37.174  14.137   1.260
79123W        W51548   4.281   5.821   1.435
79124W        W51549  19.574  25.145  12.211
79125W        W51550  42.576  39.962   4.117
79126W        W51551  39.964  19.479  14.838
79127W        W51552   7.158  39.328  12.050
79128W        W51553  29.587  10.374   0.808
79129W        W51554  43.811  11.374  12.613
79130W        W51555   5.983  24.115   1.264
79131W        W51556  40.426  21.737   1.853
79132W        W51557  21.728  19.168   3.162
79133W        W51558  19.960   6.377  11.217
79134W        W51559   2.832   2.898   2.624
79135W        W51560  26.046  13.585  12.411
79136W        W51561  20.066  11.893  13.357
79137W        W51562  27.136  30.016   1.058
79138W        W51563  26.153   1.993  12.996
79139W        W51564  22.067  24.923   4.258
79140W        W51565   2.699  36.582  11.307
79141W        W51566  41.238  44.087   1.398
79142W        W51567  24.255  18.384  11.205
79143W        W51568   4.614  38.903   4.567
79144W        W51569  43.258  33.488   3.610
79145W        W51570  20.462  31.129   0.243
79146W        W51571  27.962  20.083   3.678
79147W        W51572  42.516  32.467  14.033
79148W        W51573   2.250  30.299  11.758
79149W        W51574   6.351  16.978  12.085
79150W        W51575  19.251  32.414   3.254
79151W        W51576  11.520   3.032   4.465
79152W        W51577  15.500   0.273  11.918
79153W        W51578   0.871  36.848  14.767
79154W        W51579   3.358  23.954  14.295
79155W        W51580   0.247  32.448   2.727
79156W        W51581  30.472  27.655   0.413
79157W        W51582  43.050  40.467  13.299
79158W        W51583  17.262  39.981   4.925
79159W        W51584   2.305  22.061   4.528
79160W        W51585  31.988   7.698  11.586
79161W        W51586   6.700  27.939   3.826
79162W        W51587  29.265  11.089  12.469
79163W        W51588  29.008   0.635   4.854
79164W        W51589  25.968  23.226  10.979
79165W        W51590  44.755  34.491   1.591
79166W        W51591  39.067   6.669  12.421
79167W        W51592  28.153  18.563   0.805
79168W        W51593  41.030  12.697   1.373
79169W        W51594  21.492  11.092  10.641
79170W        W51595  16.313  34.200   5.047
79171W        W51596  24.613  30.973  13.258
79172W        W51597  39.881  12.724  10.686
79173W        W51598  14.111   1.555   9.758
79174W        W51599  42.319  39.862   4.545
79175W        W51600  16.773   5.314  10.907
79176W        W51601  35.652  27.321  13.369
79177W        W51602   9.258  10.311  14.321
79178W        W51603  40.457  18.579  13.051
79179W        W51604  22.626  15.609   3.253
79180W        W51605  11.588  11.196  14.400
79181W        W51606   9.555   3.787   1.969
79182W        W51607  39.472  40.614  13.998
79183W        W51608  30.074  15.028   1.295
79184W        W51609  16.212  18.448   4.672
79185W        W51610  43.350  17.397  13.924
79186W        W51611  19.255  10.045   3.275
79187W        W51612   4.019   1.309   3.777
79188W        W51613  14.772  25.862   4.240
79189W        W51614  42.858  35.831   3.316
79190W        W51615   1.720  17.201  12.510
79191W        W51616  37.977   4.850   3.080
79192W        W51617   0.750   9.429  13.993
79193W        W51618  36.952  36.445  12.188
79194W        W51619  26.493   6.221  11.660
79195W        W51620  33.323  19.112   3.733
79196W        W51621  41.419  24.366  13.865
79197W        W51622  33.010  14.642   1.793
79198W        W51623  44.962   1.380  12.834
79199W        W51624  35.068  30.409  13.602
79200W        W51625  29.613  43.871  11.895
79201W        W51626  24.110  31.165  12.467
79202W        W51627  37.913  44.399   2.356
79203W        W51628  34.550   2.419   1.206
79204W        W51629  12.512  33.205   1.056
79205W        W51630   6.758  37.775   2.905
79206W        W51631  16.521   0.182  11.183
79207W        W51632  12.040  40.941   2.566
79208W        W51633   4.917  20.729   2.722
79209W        W51634  31.517  19.540  11.794
79210W        W51635  27.756  27.172  14.349
79211W        W51636  31.426  44.908   2.686
79212W        W51637  32.641   5.389   1.867
79213W        W51638  26.485   7.851   1.866
79214W        W51639  17.497  13.324   4.186
79215W        W51640  24.557   7.340  11.270
79216W        W51641  42.889  37.243   5.042
79217W        W51642  11.792  23.715  14.914
79218W        W51643  23.515  13.019  11.026
79219W        W51644  16.169  37.791   4.499
79220W        W51645  17.459  15.705   1.671
79221W        W51646  44.329  35.525   0.904
79222W        W51647  16.288  25.808   0.389
79223W        W51648   6.923  22.984  10.778
79224W        W51649  22.273  19.865  11.787
79225W        W51650  26.141   2.055  13.951
79226W        W51651   3.210  32.619   1.864
79227W        W51652  44.450   7.169  12.000
79228W        W51653  36.258  13.050  12.093
79229W        W51654   3.716  11.841  11.966
79230W        W51655  10.690  14.285  11.635
79231W        W51656  18.626  21.942  10.753
79232W        W51657  23.071  18.094  13.568
79233W        W51658   5.896  13.295  11.574
79234W        W51659  13.902  20.018  13.904
79235W        W51660  30.311  27.491   1.434
79236W        W51661  33.288   5.728   5.180
79237W        W51662  26.582  22.069  12.507
79238W        W51663  28.788  15.260  12.462
79239W        W51664  32.692  15.172  10.820
79240W        W51665  13.809  33.073  11.585
79241W        W51666  18.548  15.732  13.543
79242W        W51667  10.542   3.893  14.887
79243W        W51668  21.460   5.521   4.127
79244W        W51669  20.011  33.075   3.152
79245W        W51670   9.397   9.076   1.377
79246W        W51671   9.770  32.008  11.979
79247W        W51672  37.851  36.074  12.147
79248W        W51673  37.983  28.171   3.232
79249W        W51674  36.848  33.995   0.859
79250W        W51675  30.884  11.687   2.271
79251W        W51676  36.347  13.564   2.262
79252W        W51677  13.164  22.003  10.232
79253W        W51678  14.738  21.072   0.799
79254W        W51679   8.731  33.765   4.335
79255W        W51680  29.040   3.685   3.097
79256W        W51681  16.004  29.878   3.595
79257W        W51682  17.068  36.863   2.291
79258W        W51683   5.879   9.902  12.861
79259W        W51684   1.141  25.566   1.695
79260W        W51685  28.492   3.336   0.220
79261W        W51686   8.756  11.891  12.343
79262W        W51687  20.133  32.169  12.926
79263W        W51688  36.089  20.777  13.934
79264W        W51689  23.273  27.533   0.421
79265W        W51690   3.465  29.147   4.093
79266W        W51691  31.186  13.196   3.854
79267W        W51692  18.054  35.851   0.357
79268W        W51693  20.975  33.416   2.206
79269W        W51694   7.081   9.545   0.857
79270W        W51695  44.537  31.750   3.322
79271W        W51696  20.429  12.109   4.493
79272W        W51697  14.855  36.501   2.757
79273W        W51698  37.341  42.983  11.450
79274W        W51699  37.567  36.058   0.088
79275W        W51700   7.852   0.334   2.187
79276W        W51701   0.775  16.897  10.850
79277W        W51702  40.493  29.487   2.347
79278W        W51703  38.797  22.614  12.995
79279W        W51704   3.848  25.002  14.840
79280W        W51705  30.606  31.381   1.401
79281W        W51706  17.036  40.464  10.444
79282W        W51707  44.604  41.805  13.544
79283W        W51708  11.375  29.513  10.863
79284W        W51709  41.679  12.676   3.564
79285W        W51710  43.529  22.193   3.292
79286W        W51711  36.650   3.239  13.471
79287W        W51712   4.337  32.986   4.600
79288W        W51713   0.419  17.460  14.704
79289W        W51714   2.764   7.269  12.309
79290W        W51715  24.079  44.130  10.137
79291W        W51716   1.416  40.409   2.825
79292W        W51717  36.340  29.231   5.197
79293W        W51718   8.748  34.029   3.887
79294W        W51719  42.258   6.230  13.013
79295W        W51720  17.500  37.633   3.754
79296W        W51721  13.129  22.226  14.837
79297W        W51722  39.767  40.056   0.465
79298W        W51723  29.265  20.743   5.095
79299W        W51724  35.923  11.412  13.033
79300W        W51725   8.635  14.787  13.287
79301W        W51726  14.115  30.048  14.982
79302W        W51727  16.027  32.483  10.378
79303W        W51728  24.660  42.097   4.120
79304W        W51729   2.395  23.928  11.988
79305W        W51730  18.336  22.665   0.391
79306W        W51731  13.396   2.859  14.410
79307W        W51732  26.622  39.745   1.972
79308W        W51733  28.137  15.703   4.981
79309W        W51734  16.590  36.426  11.671
79310W        W51735  15.754   4.451  14.824
79311W        W51736  43.825  15.069  12.443
79312W        W51737  40.419  28.964   3.297
79313W        W51738  30.381   6.166   0.426
79314W        W51739  18.006  34.393  13.306
79315W        W51740  39.178  20.526   2.415
79316W        W51741  23.012  29.441  10.700
79317W        W51742  37.522   0.511  11.549
79318W        W51743   7.735  40.533   3.156
79319W        W51744   1.820  16.694  11.062
79320W        W51745  14.121   5.771  14.999
79321W        W51746   2.970   7.126   0.749
79322W        W51747  31.824  41.358   4.546
79323W        W51748  22.623  27.643  14.295
79324W        W51749  38.879  25.550  12.170
79325W        W51750  33.634  32.823   1.859
79326W        W51751  25.758  29.886   5.108
79327W        W51752  29.506   0.956  13.340
79328W        W51753  31.381   0.923  11.512
79329W        W51754   7.149  17.499  12.571
79330W        W51755  28.183  20.092  14.470
79331W        W51756  12.331  14.475   1.533
79332W        W51757   7.158   0.064   1.746
79333W        W51758  26.548   3.707  10.621
79334W        W51759  19.130  22.302   3.165
79335W        W51760   8.854  26.553   4.189
79336W        W51761  39.773  21.102   4.602
79337W        W51762  20.011  22.425  10.812
79338W        W51763   8.844  32.676   4.107
79339W        W51764  24.564   6.142   4.183
79340W        W51765  13.579  27.575   2.449
79341W        W51766   0.100  35.466   4.595
79342W        W51767  22.480  16.263  11.160
79343W        W51768   0.888  20.888  13.319
79344W        W51769  29.572  12.616   3.651
79345W        W51770   6.835   4.020  11.622
79346W        W51771   9.229  42.000   2.607
79347W        W51772  25.424   8.293  12.144
79348W        W51773  30.507  41.943  13.493
79349W        W51774  22.593   3.778  12.660
79350W        W51775  34.973  36.836  12.046
79351W        W51776  28.146   7.126  11.680
79352W        W51777  22.082  19.236  14.330
79353W        W51778  22.979  42.475   1.632
79354W        W51779  39.070  12.848  14.363
79355W        W51780  19.271  37.594  11.986
79356W        W51781  31.771  18.695   1.781
79357W        W51782  27.732   5.267   4.727
79358W        W51783   2.226   9.955   3.956
79359W        W51784   9.154  31.911   3.455
79360W        W51785   7.619   8.982  10.047
79361W        W51786  29.608  38.011   5.908
79362W        W51787  11.466   1.387   2.226
79363W        W51788  22.988   3.751  14.915
79364W        W51789  42.965  35.956   2.792
79365W        W51790  37.629   8.933   5.357
79366W        W51791  27.496  27.925  11.695
79367W        W51792  17.024   3.523  11.867
79368W        W51793  32.065  10.521  12.924
79369W        W51794  15.849  19.555  14.288
79370W        W51795   5.367  33.890   3.423
79371W        W51796  13.564  13.814   3.441
79372W        W51797  26.577  16.109  11.420
79373W        W51798  29.036  23.531   1.354
79374W        W51799  16.399  30.667  12.421
79375W        W51800  31.639  35.227  13.071
79376W        W51801  20.071  29.129   1.144
79377W        W51802  14.953  20.550   0.838
79378W        W51803  25.418  44.278  13.977
79379W        W51804  20.529  43.281   1.378
79380W        W51805   7.962  43.464   1.903
79381W        W51806   4.920  28.855   5.075
79382W        W51807   7.761  33.665  11.127
79383W        W51808   4.631  43.528   0.032
79384W        W51809  23.237  22.978  10.747
79385W        W51810  21.176   1.103   2.313
79386W        W51811  16.820  28.097   0.791
79387W        W51812  29.188  21.313  13.318
79388W        W51813  16.193  31.972  11.046
79389W        W51814  26.591  32.517  11.632
79390W        W51815  15.870  12.551   5.215
79391W        W51816  14.197   8.440   1.072
79392W        W51817  23.370   7.285   0.407
79393W        W51818   8.218  34.436   0.579
79394W        W51819  21.433   2.719   4.492
79395W        W51820  41.284   6.322  13.412
79396W        W51821  26.842   0.987  10.692
79397W        W51822  10.834  44.441   3.544
79398W        W51823  31.974  13.810   0.689
79399W        W51824  13.250  30.580  10.828
79400W        W51825  43.413  31.962   1.763
79401W        W51826   2.891   3.625  10.043
79402W        W51827  21.817  43.552  11.216
79403W        W51828  42.391   6.180  12.025
79404W        W51829  22.119   2.315   1.142
79405W        W51830  24.386  33.668  11.587
79406W        W51831   2.862  21.990   2.088
79407W        W51832   4.736  30.308   2.928
79408W        W51833   2.332   0.042   2.838
79409W        W51834  33.231  30.503   0.224
79410W        W51835  31.832   5.255  13.801
79411W        W51836  29.336  13.180  11.960
79412W        W51837  44.260  11.813  13.906
79413W        W51838   1.357  11.437  13.310
79414W        W51839  42.007  31.460   1.239
79415W        W51840  13.124  40.464   3.261
79416W        W51841  27.107  20.571  14.238
79417W        W51842   3.246   0.772  12.851
79418W        W51843  30.832  10.083  10.254
79419W        W51844  17.759  44.024  12.071
79420W        W51845  10.169  15.728   2.657
79421W        W51846   1.574  34.809  14.744
79422W        W51847  16.007  20.516  11.291
79423W        W51848  15.268  41.764  12.588
79424W        W51849  27.496  28.078  14.552
79425W        W51850  29.170  37.582   3.752
79426W        W51851  14.276  24.898   9.587
79427W        W51852   4.846  19.609   0.206
79428W        W51853  33.827  43.008  11.215
79429W        W51854  30.021  33.952  14.822
79430W        W51855  31.444  13.790   4.679
79431W        W51856  21.697   8.841  14.455
79432W        W51857  23.042  26.031  12.515
79433W        W51858  28.118  24.373   1.831
79434W        W51859  27.030  37.338   0.697
79435W        W51860  41.127   6.349  11.602
79436W        W51861  17.598  18.775  10.892
79437W        W51862  36.369  44.525  12.480
79438W        W51863  42.481  12.642   4.923
79439W        W51864  14.629  29.197   0.731
79440W        W51865  43.256  31.597   0.528
79441W        W51866  12.111   6.415   0.244
79442W        W51867  14.738  44.513   3.310
79443W        W51868  18.513   1.920  14.884
79444W        W51869  33.880  32.441  12.108
79445W        W51870  41.379   3.916   0.413
79446W        W51871  34.397  38.437   0.283
79447W        W51872  15.504  32.102   4.319
79448W        W51873   7.726  14.274   3.304
79449W        W51874  19.201   0.735   3.806
79450W        W51875  27.704  44.256   4.546
79451W        W51876   6.271   6.660  14.524
79452W        W51877  36.555   5.434  10.541
79453W        W51878  11.194   1.890   4.143
79454W        W51879  23.068  22.093   3.565
79455W        W51880  34.859   3.984  14.055
79456W        W51881   5.962  22.737   0.354
79457W        W51882  21.468  38.448   1.299
79458W        W51883  18.834  41.635   3.175
79459W        W51884  15.893  42.572  13.376
79460W        W51885  16.329  18.610   0.298
79461W        W51886  43.315  11.726   0.390
79462W        W51887  27.879  43.003   2.488
79463W        W51888  38.173  18.363  13.990
79464W        W51889  33.349   9.799  13.119
79465W        W51890   3.147  24.287   4.086
79466W        W51891  23.026  19.694   1.618
79467W        W51892   7.664  44.784  11.948
79468W        W51893   2.165  17.566  11.042
79469W        W51894  20.996  34.444   1.436
79470W        W51895   2.002  38.264  13.316
79471W        W51896  43.019  16.545   1.321
79472W        W51897  44.896  20.566   0.361
79473W        W51898  38.836   9.090  13.918
79474W        W51899   7.433  27.602  10.405
79475W        W51900  37.017  29.677  12.882
79476W        W51901  43.063   8.714   3.644
79477W        W51902  25.841  29.918  12.124
79478W        W51903  16.791  26.510   0.390
79479W        W51904   4.942  32.442  10.930
79480W        W51905   1.672  15.164   4.287
79481W        W51906  27.706  19.253   0.013
79482W        W51907  35.812  20.061   0.514
79483W        W51908  18.803  20.010   3.926
79484W        W51909  32.934   4.105  13.895
79485W        W51910   8.403  16.069   1.899
79486W        W51911   2.081  13.260   3.215
79487W        W51912  27.579  41.894   1.847
79488W        W51913  13.818  40.884   2.331
79489W        W51914  21.693  39.924   4.177
79490W        W51915  42.608  11.754  11.477
79491W        W51916   7.267  24.646   1.179
79492W        W51917  26.560  31.100   2.246
79493W        W51918  38.895   4.950   3.119
79494W        W51919  28.530  44.795   2.201
79495W        W51920  12.362  21.600   0.959
79496W        W51921  36.230  38.912   0.475
79497W        W51922   8.150   4.128  12.077
79498W        W51923  11.697  15.175   1.623
79499W        W51924  26.274  22.794  14.293
79500W        W51925  41.888  32.520   3.699
79501W        W51926  14.477  44.394   2.326
79502W        W51927  43.551  37.215  11.563
79503W        W51928   2.850   7.291  13.809
79504W        W51929  35.441   0.438  13.812
79505W        W51930   3.713   2.766  11.223
79506W        W51931  17.186  26.693  13.475
79507W        W51932  16.270  18.200  13.488
79508W        W51933   0.777  25.222   0.386
79509W        W51934   5.138  20.169  10.781
79510W        W51935  42.516   4.973   3.191
79511W        W51936  25.651  44.377   1.888
79512W        W51937  19.538  27.657  14.978
79513W        W51938  42.805  13.255  13.058
79514W        W51939  14.100  17.093  14.532
79515W        W51940  13.555  20.740   1.311
79516W        W51941  12.433   7.698   0.254
79517W        W51942   1.232  15.878   1.283
79518W        W51943  33.554  44.436   3.320
79519W        W51944  41.361   0.035  14.478
79520W        W51945   3.483  16.578   0.330
79521W        W51946  44.498  14.999   1.331
79522W        W51947  21.025  33.507   3.678
79523W        W51948  27.440  11.816  10.711
79524W        W51949   2.776  27.138   3.691
79525W        W51950  32.965  30.517  12.897
79526W        W51951   2.864  28.080   4.470
79527W        W51952  17.328  37.672   0.827
79528W        W51953  28.632  36.447  12.471
79529W        W51954  30.054  19.605  13.827
79530W        W51955  35.328  31.103   1.189
79531W        W51956  14.861  21.118   0.300
79532W        W51957   4.522  32.494   4.640
79533W        W51958   6.583  23.719   4.530
79534W        W51959  42.950  35.411   0.009
79535W        W51960  40.928   9.882   2.629
79536W        W51961  31.599   1.878  12.397
79537W        W51962   5.453  41.864  14.267
79538W        W51963  25.915   6.326   3.433
79539W        W51964  14.006  16.246  13.988
79540W        W51965   3.687  39.497  12.971
79541W        W51966  20.367  13.710   1.759
79542W        W51967  10.572   7.262   0.382
79543W        W51968  43.570  20.138  12.678
79544W        W51969  33.882  30.467  12.221
79545W        W51970  16.456  24.248   4.279
79546W        W51971  17.949  12.882   1.229
79547W        W51972  27.108  35.064   3.417
79548W        W51973  33.380  35.930  10.757
79549W        W51974   6.743  19.101   2.761
79550W        W51975   7.172   9.218   2.613
79551W        W51976  40.247  16.014   3.545
79552W        W51977  33.583  22.118   0.402
79553W        W51978  37.932  13.199  14.727
79554W        W51979  24.981  40.985   0.963
79555W        W51980  29.202  18.822   2.544
79556W        W51981  42.308  21.800  10.008
79557W        W51982  22.463   0.691   4.122
79558W        W51983  23.146  42.264  12.337
79559W        W51984  32.312  36.060  11.459
79560W        W51985  32.522  10.172   2.256
79561W        W51986  43.781  25.631   3.934
79562W        W51987  20.189   1.242   2.305
79563W        W51988   3.861  35.522  13.872
79564W        W51989  29.039  10.652  11.644
79565W        W51990  32.404   4.816   0.860
79566W        W51991  33.916  30.462   4.537
79567W        W51992  35.663  39.630  11.732
79568W        W51993   3.583  23.263   2.207
79569W        W51994   0.955   5.105   0.765
79570W        W51995  34.854  27.128  11.054
79571W        W51996  34.263  41.786   2.092
79572W        W51997  15.081   4.394   1.673
79573W        W51998   8.145   9.335  14.710
79574W        W51999  41.611  19.713   4.591
79575W        W52000  18.499   5.152  10.074
79576W        W52001  44.604  30.327   1.656
79577W        W52002  38.419  28.978  13.343
79578W        W52003   5.266  42.541  11.543
79579W        W52004  18.668  24.272  11.565
79580W        W52005   9.591  38.607   0.976
79581W        W52006   6.260   2.154  12.362
79582W        W52007  24.080   7.643   2.891
79583W        W52008  32.059  18.638   0.402
79584W        W52009   7.662  19.214   1.430
79585W        W52010  36.313   4.727  12.571
79586W        W52011   7.809   3.596   0.917
79587W        W52012  10.150  20.817  11.126
79588W        W52013  16.236  13.341   2.238
79589W        W52014   6.328  42.505  13.339
79590W        W52015  19.627  33.424  14.851
79591W        W52016   1.988  27.873   4.480
79592W        W52017  23.691  40.309  13.152
79593W        W52018  40.785   4.556   0.550
79594W        W52019  12.122  34.304   2.702
79595W        W52020  25.687   5.375   2.720
79596W        W52021  25.963   9.244  10.645
79597W        W52022  12.946  27.897   0.330
79598W        W52023   9.791  38.594  13.225
79599W        W52024  32.910   7.445   0.496
79600W        W52025   5.357  36.422  13.005
79601W        W52026  19.002  29.099  11.259
79602W        W52027  21.784   1.768   4.538
79603W        W52028  10.383   8.688   3.646
79604W        W52029  11.355  30.145   4.625
79605W        W52030  22.167  27.534  12.109
79606W        W52031  26.016   3.983  14.814
79607W        W52032  39.520   7.852  10.996
79608W        W52033  26.042  10.265   3.175
79609W        W52034   8.592  26.835  14.843
79610W        W52035  14.106  27.293   0.765
79611W        W52036  35.454  27.542  14.837
79612W        W52037  42.115   7.203   2.706
79613W        W52038  39.921  11.132   1.342
79614W        W52039   8.617   4.126  14.927
79615W        W52040   6.971   8.466  12.137
79616W        W52041   0.845  41.011   4.430
79617W        W52042  17.163  40.879   9.993
79618W        W52043  11.362  24.689   5.619
79619W        W52044  16.602   5.788   0.387
79620W        W52045  38.056   0.996   0.102
79621W        W52046   3.371  23.449  14.291
79622W        W52047   7.740  11.401   3.593
79623W        W52048  13.707  41.935   2.370
79624W        W52049  23.811   2.223  12.937
79625W        W52050   6.307  44.451   3.209
79626W        W52051  13.886  26.904   0.408
79627W        W52052   6.798  43.459   2.357
79628W        W52053  35.091  33.280   2.809
79629W        W52054   1.469  21.171  14.782
79630W        W52055  31.432   1.789  13.396
79631W        W52056   0.554  11.714  14.741
79632W        W52057   6.014  41.803   2.044
79633W        W52058   7.357  36.414   3.223
79634W        W52059  37.006  18.015   4.774
79635W        W52060  34.444   6.738  14.087
79636W        W52061  39.210  37.961  11.733
79637W        W52062  39.969  23.535   2.039
79638W        W52063  37.769  29.033  11.816
79639W        W52064  43.679   2.065  13.948
79640W        W52065  22.469  32.150  11.906
79641W        W52066   7.838   3.269   4.697
79642W        W52067  39.049  23.754  14.594
79643W        W52068  21.234  20.456  10.968
79644W        W52069  34.377  24.257   3.524
79645W        W52070  38.606   9.193  12.080
79646W        W52071  36.350  17.598  11.592
79647W        W52072  12.708  20.348   0.462
79648W        W52073  41.900  42.445  13.182
79649W        W52074  15.635  24.815   5.024
79650W        W52075  30.367  38.814   2.987
79651W        W52076  12.106  41.684  11.104
79652W        W52077  43.693  31.312  14.461
79653W        W52078   8.488  24.752  13.145
79654W        W52079  17.511  33.458  13.517
79655W        W52080  14.065  24.159  11.112
79656W        W52081  14.837  25.764  11.119
79657W        W52082   0.213  24.577   4.212
79658W        W52083  34.361  33.107  13.062
79659W        W52084  10.802  26.357   2.431
79660W        W52085  41.361  42.061   2.237
79661W        W52086  18.843  18.093   2.206
79662W        W52087  17.248  10.978  11.529
79663W        W52088  17.826   5.655   4.540
79664W        W52089  32.475   4.814  14.737
79665W        W52090  26.215  17.685   4.035
79666W        W52091  42.035  29.654   3.888
79667W        W52092  27.503   1.120  12.884
79668W        W52093   2.770   2.756  11.534
79669W        W52094   7.800  33.964  14.879
79670W        W52095  30.947   8.927  13.912
79671W        W52096  39.335  26.212  10.943
79672W        W52097  26.603  43.062  10.993
79673W        W52098  22.152  37.487   1.791
79674W        W52099  21.701  26.411  14.875
79675W        W52100   1.178  20.121  14.971
79676W        W52101   6.234  41.454   4.684
79677W        W52102   2.731  40.337   4.121
79678W        W52103  15.510  37.421   3.249
79679W        W52104  35.316  22.279  12.508
79680W        W52105  33.390  16.573   2.723
79681W        W52106  12.255  27.040   2.592
79682W        W52107  31.543  44.864  12.857
79683W        W52108  30.452  23.322  10.245
79684W        W52109  37.656  41.484   4.214
79685W        W52110  16.168   1.429  12.833
79686W        W52111  41.651   7.381  14.427
79687W        W52112  41.254  19.792   2.293
79688W        W52113  29.282  17.599   2.286
79689W        W52114  17.612   8.192  11.720
79690W        W52115  13.793  22.777   4.576
79691W        W52116  11.863  28.580   1.378
79692W        W52117  27.598   5.411  10.511
79693W        W52118  23.958  14.735  11.825
79694W        W52119   4.265  27.553   1.707
79695W        W52120  42.945  27.495  11.161
79696W        W52121   8.601  41.019   3.341
79697W        W52122   2.655  26.028  11.238
79698W        W52123   3.885   5.271  10.702
79699W        W52124  19.107  15.354  12.416
79700W        W52125   5.625  36.397  11.957
79701W        W52126  37.715   7.290   2.730
79702W        W52127  42.979   8.010   4.154
79703W        W52128   7.778   4.003  12.412
79704W        W52129  15.966   4.973  11.043
79705W        W52130  24.661  32.562   4.244
79706W        W52131   0.744  17.693  12.546
79707W        W52132  15.860  28.364  11.649
79708W        W52133  30.977  19.381  11.191
79709W        W52134  22.282  16.543   1.108
79710W        W52135  42.590  43.998  14.486
79711W        W52136  16.371  36.549   1.560
79712W        W52137  21.025  35.523  10.332
79713W        W52138  13.705  19.546  13.935
79714W        W52139  24.697  33.942  14.772
79715W        W52140  20.304   1.221   3.261
79716W        W52141  14.126   9.452  12.865
79717W        W52142  37.526  38.085  12.484
79718W        W52143  41.345   2.854  13.518
79719W        W52144  24.570  18.985  10.767
79720W        W52145  40.349  39.746  13.519
79721W        W52146   2.211  43.753  11.135
79722W        W52147  37.149  11.688   0.292
79723W        W52148   9.523  26.605   4.835
79724W        W52149  26.477  12.613   4.657
79725W        W52150  37.555  41.387  10.680
79726W        W52151  21.269  15.630  10.757
79727W        W52152  23.209  39.628  14.228
79728W        W52153  24.777  42.323   0.712
79729W        W52154  44.181  41.793   1.344
79730W        W52155  35.439  39.703  14.639
79731W        W52156  14.981   3.181  11.645
79732W        W52157  13.781   2.500   3.683
79733W        W52158  27.569  16.304  10.693
79734W        W52159  35.983  19.695  12.980
79735W        W52160  37.966   9.648   1.423
79736W        W52161  42.850  37.576   1.312
79737W        W52162   9.879   9.990  13.841
79738W        W52163  24.733  19.525   0.085
79739W        W52164  31.711  21.342  12.073
79740W        W52165  10.397  10.860   2.722
79741W        W52166  24.054   3.493   2.234
79742W        W52167  36.493  19.680   2.302
79743W        W52168  16.068  14.407  11.511
79744W        W52169   1.444  38.806   0.372
79745W        W52170  38.457  23.247   2.156
79746W        W52171   8.148   7.175   3.672
79747W        W52172  31.895   6.682  13.029
79748W        W52173  20.466  29.989  14.045
79749W        W52174  36.499  37.486   4.505
79750W        W52175  17.198  37.258  13.513
79751W        W52176  22.593   3.703   0.847
79752W        W52177  18.948   2.444   0.537
79753W        W52178  18.793   2.681   1.412
79754W        W52179  26.555   8.482  11.399
79755W        W52180   1.239  34.647  14.399
79756W        W52181  27.204   4.982   3.691
79757W        W52182  15.798  13.228  11.748
79758W        W52183  19.624  14.317  14.848
79759W        W52184  39.339   2.453   4.629
79760W        W52185   0.385  30.133  12.016
79761W        W52186  19.582  12.923   4.608
79762W        W52187   7.405  33.873   1.332
79763W        W52188   9.227   9.318  13.919
79764W        W52189   2.463   3.374  13.724
79765W        W52190   4.237  34.556  12.702
79766W        W52191  38.202   5.571   4.567
79767W        W52192  31.603  31.183   1.370
79768W        W52193  14.684   4.955   2.685
79769W        W52194   6.620  18.048  10.510
79770W        W52195  20.996  34.393   0.512
79771W        W52196  20.108  43.895  14.476
79772W        W52197  21.154  10.042   2.333
79773W        W52198  19.579  14.078  13.996
79774W        W52199  19.188  33.628   1.388
79775W        W52200   7.664  38.796  11.469
79776W        W52201  33.180  11.844  12.484
79777W        W52202  22.057  26.406   1.734
79778W        W52203  38.493  40.531  12.352
79779W        W52204   9.180  37.479   2.158
79780W        W52205  12.808  36.958  14.455
79781W        W52206  20.171  18.177   1.250
79782W        W52207   6.743  21.313  11.177
79783W        W52208  22.610  32.313   1.170
79784W        W52209   4.206  11.742  12.047
79785W        W52210  41.497  31.396   2.227
79786W        W52211   8.139  29.415  13.846
79787W        W52212  17.589  39.897  14.432
79788W        W52213  23.701   5.175  14.848
79789W        W52214  34.492  18.148  11.577
79790W        W52215  43.469  24.526  12.867
79791W        W52216   0.407  14.957  13.719
79792W        W52217   1.347  40.304   4.241
79793W        W52218  25.552  28.640  14.940
79794W        W52219  17.825  11.238  14.006
79795W        W52220  43.329  34.539  10.982
79796W        W52221  28.134   4.021  14.081
79797W        W52222  26.524  35.056   2.771
79798W        W52223  23.138  43.786   1.345
79799W        W52224  34.251  29.134   3.142
79800W        W52225   2.916   2.172  13.088
79801W        W52226  10.817  24.260  11.597
79802W        W52227  23.644  31.505   4.271
79803W        W52228   3.620  27.699   3.807
79804W        W52229   8.888  43.717   3.082
79805W        W52230  36.800  17.037  13.804
79806W        W52231  42.149  27.814   4.122
79807W        W52232  21.222  41.297  13.482
79808W        W52233  31.131  14.996   2.951
79809W        W52234  18.323   7.276   4.131
79810W        W52235  32.143  21.697  10.535
79811W        W52236   2.052   8.636   1.229
79812W        W52237  34.632  41.935   4.087
79813W        W52238  32.557  38.768  10.976
79814W        W52239  13.324   7.201  14.693
79815W        W52240  32.570  23.541   1.696
79816W        W52241  15.209  36.998  11.689
79817W        W52242   8.509  30.438  14.617
79818W        W52243  16.912   5.136   2.333
79819W        W52244  13.087  38.584   2.929
79820W        W52245   0.343  13.141   4.683
79821W        W52246  13.591  35.507  11.761
79822W        W52247  38.963  14.337   0.813
79823W        W52248  11.650  14.187   1.716
79824W        W52249  26.020  28.184   0.786
79825W        W52250  21.971   9.424  14.614
79826W        W52251  12.961   7.295   1.188
79827W        W52252  37.908   1.844   4.596
79828W        W52253  12.827  36.557  11.211
79829W        W52254   6.613  20.387  13.902
79830W        W52255  13.161   2.337   1.704
79831W        W52256  12.378  30.509  11.215
79832W        W52257  34.646  11.581   1.748
79833W        W52258  36.036  33.570  11.386
79834W        W52259  23.125   3.366  14.585
79835W        W52260  11.285  11.702  10.670
79836W        W52261  39.831  19.301   0.500
79837W        W52262  38.838  30.083  10.671
79838W        W52263  38.363  42.705   3.098
79839W        W52264   0.729  42.948   3.321
79840W        W52265   5.791  33.020   0.157
79841W        W52266  15.329  17.716  13.513
79842W        W52267   5.431  20.017  12.086
79843W        W52268  24.591  44.364   4.201
79844W        W52269  19.687  13.340   0.022
79845W        W52270  30.547  23.188  11.172
79846W        W52271  19.067  43.064   3.611
79847W        W52272  25.953  43.184  14.814
79848W        W52273  20.966   2.459  12.049
79849W        W52274  31.037   9.625   4.530
79850W        W52275  20.425   3.619   5.048
79851W        W52276  42.042   0.180  12.493
79852W        W52277  33.137  37.099  14.020
79853W        W52278   0.720  18.200   4.512
79854W        W52279  35.783  37.127   3.015
79855W        W52280  39.974  40.983  12.987
79856W        W52281   7.702   6.968   3.866
79857W        W52282  25.502  12.926   2.571
79858W        W52283  37.596   4.883   1.661
79859W        W52284  34.916   7.894  12.709
79860W        W52285   0.765   0.335   0.525
79861W        W52286   8.917  21.868   2.340
79862W        W52287  36.391   8.211  14.827
79863W        W52288  30.052  37.513   0.853
79864W        W52289  15.592  33.258  12.874
79865W        W52290  42.406  17.066  12.160
79866W        W52291  36.364  32.963   3.177
79867W        W52292  40.824  21.771  12.904
79868W        W52293  32.403  31.978   0.994
79869W        W52294  22.687  19.590  12.415
79870W        W52295  26.095   1.437   3.922
79871W        W52296  35.158  29.166   0.885
79872W        W52297  23.144  29.679   2.705
79873W        W52298  21.429  19.088  12.070
79874W        W52299   0.758  13.175  12.289
79875W        W52300  25.736  22.684   4.186
79876W        W52301  36.009   7.266   3.362
79877W        W52302   1.364  22.692   4.253
79878W        W52303  10.927  30.609   4.146
79879W        W52304  11.393  42.227   3.447
79880W        W52305  34.789   9.065   2.579
79881W        W52306   3.989  26.922   1.626
79882W        W52307  12.881   5.503   4.310
79883W        W52308  27.104   1.085   4.539
79884W        W52309  14.551   2.213  14.505
79885W        W52310   5.667  42.369  11.808
79886W        W52311  19.853  14.650  12.632
79887W        W52312  13.549  15.150   4.112
79888W        W52313  18.175  35.385  10.381
79889W        W52314  44.604   3.172  10.200
79890W        W52315  40.458  34.919   2.660
79891W        W52316  12.200  40.832  10.618
79892W        W52317   0.062  31.887  11.083
79893W        W52318  39.561  33.512   1.896
79894W        W52319  33.345  13.499   3.542
79895W        W52320  39.470  27.488   0.319
79896W        W52321  18.001  40.716   0.417
79897W        W52322  40.906  32.352   3.565
79898W        W52323  11.145  33.902  10.917
79899W        W52324   0.913  22.917  13.394
79900W        W52325  22.200  20.756  11.990
79901W        W52326  25.925  30.292   0.816
79902W        W52327   7.295  12.885   0.390
79903W        W52328   5.659  26.229   2.280
79904W        W52329  43.477   1.360  12.487
79905W        W52330  16.031  38.091  13.974
79906W        W52331  43.984  41.212  13.106
79907W        W52332   9.435  28.919   2.437
79908W        W52333   5.472  44.224  14.395
79909W        W52334  15.208  32.147   2.271
79910W        W52335  15.028   3.842  12.242
79911W        W52336  28.100  11.220  14.977
79912W        W52337   8.211  15.347   0.330
79913W        W52338   6.739   6.870   2.735
79914W        W52339  13.709   6.630   0.873
79915W        W52340   0.444  39.544   4.191
79916W        W52341   6.333   6.553  11.149
79917W        W52342   3.486  42.025   3.864
79918W        W52343  27.292   3.326  12.388
79919W        W52344  27.368  28.506   1.665
79920W        W52345  43.095  27.716   1.815
79921W        W52346   0.394  14.617   4.525
79922W        W52347  21.022  41.549   0.414
79923W        W52348  12.512  40.382   2.378
79924W        W52349   9.104  21.374   4.541
79925W        W52350   8.443  20.303   3.279
79926W        W52351  29.500   8.749  14.758
79927W        W52352   1.729  35.656   0.266
79928W        W52353  16.306  32.004  13.930
79929W        W52354  14.610  25.105   0.270
79930W        W52355  16.112  40.086  11.255
79931W        W52356  28.597  12.756  10.636
79932W        W52357  19.679  40.801  14.634
79933W        W52358  12.714  11.601   4.608
79934W        W52359  44.848  37.253  14.360
79935W        W52360   8.819  10.453  10.968
79936W        W52361  44.202  19.778   2.774
79937W        W52362   5.141  11.178   0.413
79938W        W52363  13.883  30.464   3.803
79939W        W52364  13.659  19.772  11.516
79940W        W52365  38.952  32.967  14.736
79941W        W52366   1.757  18.886  10.752
79942W        W52367  37.974  34.457  10.871
79943W        W52368   5.722  33.045   1.647
79944W        W52369  15.688  22.969  14.900
79945W        W52370  18.151  20.931  11.575
79946W        W52371  26.750  15.819  12.104
79947W        W52372  32.607  40.771   1.891
79948W        W52373   1.413  17.880   3.082
79949W        W52374   3.825  27.724   1.940
79950W        W52375  44.289  35.146  13.973
79951W        W52376  14.274  37.900   1.841
79952W        W52377  23.626  20.528   0.728
79953W        W52378  16.210  17.073   1.690
79954W        W52379  14.757  21.655   0.796
79955W        W52380  25.547  23.894   1.389
79956W        W52381   4.952  11.727  14.307
79957W        W52382  10.172  12.225  10.291
79958W        W52383   3.827   8.142   2.771
79959W        W52384  14.154  37.278   3.774
79960W        W52385  25.647  42.054   1.408
79961W        W52386  17.238  16.755  12.969
79962W        W52387   5.953  29.520   2.800
79963W        W52388  44.741  38.523   3.344
79964W        W52389  39.441  23.714   2.934
79965W        W52390   8.852  36.905  14.073
79966W        W52391   0.339   2.729   0.214
79967W        W52392  19.455  10.955  13.494
79968W        W52393  40.440  33.454  12.117
79969W        W52394  18.931  16.404  11.583
79970W        W52395  39.845   5.926   2.340
79971W        W52396  26.091  40.444  13.054
79972W        W52397  16.781  28.166  12.598
79973W        W52398  26.037  17.041  14.040
79974W        W52399  37.004   2.279   1.156
79975W        W52400   5.383   4.717   4.016
79976W        W52401  12.928   2.294  11.524
79977W        W52402  42.906  33.465  12.514
79978W        W52403   1.756  24.477  11.047
79979W        W52404   6.170  42.067   1.639
79980W        W52405  20.710  16.718  13.419
79981W        W52406  15.279   4.141   2.668
79982W        W52407  15.228  12.833   3.899
79983W        W52408  30.210  30.927   5.025
79984W        W52409   7.724  19.593   1.817
79985W        W52410  13.351  19.660  12.185
79986W        W52411  21.890  21.675  12.917
79987W        W52412  27.413   1.996  13.758
79988W        W52413   2.934  19.868  11.825
79989W        W52414  28.533  33.599  14.942
79990W        W52415  42.693  32.853  14.446
79991W        W52416  27.121  28.446   0.281
79992W        W52417   9.745   3.842  11.410
79993W        W52418  20.001   4.014  13.473
79994W        W52419  34.531  13.265  12.558
79995W        W52420  42.512  12.736   3.707
79996W        W52421  31.985  17.615   0.423
79997W        W52422  32.149   4.342  12.314
79998W        W52423   2.961  33.496   4.210
79999W        W52424  37.860   6.663  14.751
80000W        W52425  13.603  44.464  10.491
80001W        W52426  39.076  17.835   2.691
80002W        W52427  43.992   3.214   1.812
80003W        W52428  32.380  33.058   2.703
80004W        W52429  17.222  27.869   4.349
80005W        W52430  16.736  28.585  14.459
80006W        W52431  23.782   4.125   4.532
80007W        W52432  13.309   4.394   1.280
80008W        W52433   6.329   1.119   2.433
80009W        W52434  11.401  31.335  10.747
80010W        W52435   6.678  22.591   1.643
80011W        W52436  23.960  35.895  13.837
80012W        W52437  10.123  13.162  10.316
80013W        W52438   9.831  18.263  12.966
80014W        W52439  30.137  35.501   0.025
80015W        W52440   8.883   4.348   3.160
80016W        W52441  41.505  27.039  12.899
80017W        W52442  10.958  17.748   1.329
80018W        W52443  22.174  11.663  14.998
80019W        W52444  28.980  22.667   1.648
80020W        W52445  44.502   4.187  11.056
80021W        W52446  44.244  32.587  11.083
80022W        W52447  25.198  25.932   4.440
80023W        W52448  19.853  38.238   0.733
80024W        W52449  27.622  29.177  14.328
80025W        W52450  30.693  41.022   5.138
80026W        W52451   2.683   1.583   4.177
80027W        W52452  28.443  32.451   4.120
80028W        W52453  16.343  28.427  11.407
80029W        W52454  30.134  23.028  13.827
80030W        W52455   4.692  15.376   3.318
80031W        W52456   9.392   4.919   0.772
80032W        W52457  12.900  39.751   1.665
80033W        W52458  34.847   2.816  13.987
80034W        W52459  31.176   5.795   0.333
80035W        W52460   3.729  17.137  12.121
80036W        W52461  27.652   2.704  10.808
80037W        W52462  19.303   3.333   4.432
80038W        W52463   8.150  32.347   3.714
80039W        W52464  27.291  42.022  12.384
80040W        W52465  23.555  16.531  14.049
80041W        W52466  22.067  37.464  11.859
80042W        W52467  25.977  39.943   4.176
80043W        W52468   6.977  14.252  12.613
80044W        W52469   7.348  26.545  14.470
80045W        W52470  43.393  33.599  13.751
80046W        W52471  24.244  43.493   2.939
80047W        W52472  20.675  37.530  11.633
80048W        W52473   3.429  14.588  13.899
80049W        W52474  34.849  23.335  11.872
80050W        W52475  37.229  35.326  14.579
80051W        W52476  40.613  23.144   2.685
80052W        W52477   8.740  23.775  10.951
80053W        W52478  39.092  43.170  14.792
80054W        W52479  16.735  19.943   2.350
80055W        W52480  26.976  43.458  12.127
80056W        W52481  32.112  34.351   0.112
80057W        W52482  14.049  17.694  11.746
80058W        W52483   5.958   7.251   3.129
80059W        W52484  21.385  43.778   3.967
80060W        W52485  26.501  41.117   3.794
80061W        W52486   4.744   1.932  14.842
80062W        W52487  41.508   6.375   1.658
80063W        W52488  43.873  26.201  11.820
80064W        W52489  32.010   8.312   3.886
80065W        W52490  33.213  10.706   2.616
80066W        W52491  18.677  40.786   3.689
80067W        W52492   6.450  13.932   0.252
80068W        W52493  27.155  10.744  14.036
80069W        W52494  24.801  15.327   3.493
80070W        W52495  26.352  21.623  12.665
80071W        W52496   2.148  10.535   2.673
80072W        W52497   4.052  17.170  11.688
80073W        W52498  38.113  35.941  10.672
80074W        W52499   9.628  27.463  14.370
80075W        W52500  39.786  17.783  14.243
80076W        W52501  29.621   3.752  13.326
80077W        W52502  15.360   4.796   4.645
80078W        W52503  39.272   2.130   3.197
80079W        W52504  40.537  10.668   2.836
80080W        W52505  43.269  33.549   2.701
80081W        W52506  43.270  21.744   3.286
80082W        W52507  42.485  19.520   3.119
80083W        W52508  30.188  15.195   3.253
80084W        W52509   5.449  32.448  11.978
80085W        W52510  19.229  12.995  12.092
80086W        W52511  32.838   9.484  13.884
80087W        W52512  40.598  13.758   1.345
80088W        W52513   8.600   4.279  12.428
80089W        W52514  32.188  30.040   4.849
80090W        W52515  14.082  42.874   0.151
80091W        W52516   7.041  36.558  11.365
80092W        W52517  13.169  13.772  11.146
80093W        W52518  16.265  31.671   5.036
80094W        W52519  27.585  29.342   0.943
80095W        W52520  10.627  17.672  11.496
80096W        W52521   5.254  27.068  12.629
80097W        W52522  26.867  40.113  13.368
80098W        W52523  31.860  12.866   0.929
80099W        W52524  30.387   8.447  13.547
80100W        W52525  24.552   1.229   0.310
80101W        W52526  22.649  28.178  12.106
80102W        W52527  42.465  24.111  11.196
80103W        W52528  30.779  38.112  13.002
80104W        W52529  13.154  35.584  10.525
80105W        W52530  42.954   3.385  12.942
80106W        W52531  28.899  39.236  13.955
80107W        W52532  35.798  14.854   4.277
80108W        W52533  43.892   9.457   1.275
80109W        W52534  12.370  17.230  13.830
80110W        W52535  39.820  15.146  12.915
80111W        W52536  44.366  37.811  11.205
80112W        W52537   0.608  23.148   4.872
80113W        W52538  36.331  27.685  13.663
80114W        W52539   0.574  14.423  12.975
80115W        W52540  28.341   5.284   1.762
80116W        W52541  34.988   5.915  14.955
80117W        W52542  23.577  43.586   4.030
80118W        W52543  26.097  11.919   2.852
80119W        W52544  27.424  21.038   0.334
80120W        W52545  44.848   3.534  11.477
80121W        W52546  44.427  31.140   1.679
80122W        W52547  31.570  15.640   3.392
80123W        W52548  34.819  17.201  14.909
80124W        W52549  11.156  31.668   4.684
80125W        W52550  40.772  28.502  10.767
80126W        W52551  43.379  30.198   1.686
80127W        W52552  32.094  24.178   4.319
80128W        W52553  19.749  14.112  13.477
80129W        W52554  27.651  13.610  12.123
80130W        W52555  21.618  18.188   4.090
80131W        W52556   0.312  37.075   2.277
80132W        W52557  42.743  44.979  14.389
80133W        W52558  27.713  20.554   2.828
80134W        W52559  31.930  38.288  13.892
80135W        W52560  40.789  34.042  10.582
80136W        W52561  21.696  35.092  13.033
80137W        W52562  10.702  34.834  12.008
80138W        W52563  33.125  35.461  10.728
80139W        W52564  31.381  21.735   0.911
80140W        W52565  44.423  42.356   3.179
80141W        W52566  36.955   1.584  12.404
80142W        W52567  32.013   8.341   0.351
80143W        W52568   9.735   9.137   1.788
80144W        W52569   0.057  38.372  10.726
80145W        W52570  28.164  36.650   3.399
80146W        W52571  14.635  24.479   1.490
80147W        W52572  33.032  17.624  11.221
80148W        W52573  18.288  19.068  11.143
80149W        W52574  27.900  31.075   3.606
80150W        W52575  18.369  41.942  14.873
80151W        W52576  42.776  37.986   2.619
80152W        W52577   3.783  35.137  11.239
80153W        W52578  27.549  22.840   2.293
80154W        W52579  10.371   1.290  10.675
80155W        W52580  14.185  15.003   1.916
80156W        W52581   4.512  14.907  13.981
80157W        W52582  10.588  32.602  11.422
80158W        W52583  11.509   3.926   0.833
80159W        W52584   4.315  17.622  14.372
80160W        W52585  40.035  44.712   2.818
80161W        W52586  14.631   1.374   5.064
80162W        W52587   3.879  11.924  14.853
80163W        W52588  22.580  42.500   1.249
80164W        W52589  40.985  21.841   0.363
80165W        W52590  31.079   2.300  14.768
80166W        W52591  11.409  24.438   0.702
80167W        W52592  19.954   5.929   0.810
80168W        W52593   7.205  32.895   2.401
80169W        W52594   4.786  24.502   3.288
80170W        W52595  29.183   8.507   3.770
80171W        W52596  42.393  13.359   1.025
80172W        W52597  31.120  27.195  10.679
80173W        W52598  20.290  14.556  14.318
80174W        W52599   5.505  30.183   3.635
80175W        W52600  41.071  44.466   0.072
80176W        W52601  14.362  12.605  12.454
80177W        W52602  42.121  39.500  12.897
80178W        W52603   7.162  18.349  12.998
80179W        W52604  37.637  25.583   0.271
80180W        W52605  19.567  25.121  13.986
80181W        W52606  25.580  42.816   0.649
80182W        W52607  32.608  19.012  14.594
80183W        W52608  27.677  27.579  10.857
80184W        W52609  28.708  16.831  12.525
80185W        W52610  29.770  38.351  11.534
80186W        W52611  44.207  15.055  12.955
80187W        W52612  24.536  11.864   2.171
80188W        W52613  40.229  26.157  11.171
80189W        W52614  42.765   5.778  14.416
80190W        W52615  33.289  30.038   0.834
80191W        W52616  30.630  35.702   3.334
80192W        W52617  44.326  16.296  12.462
80193W        W52618  28.557  37.178  14.876
80194W        W52619  21.099  29.627   0.229
80195W        W52620   4.938  33.889   2.151
80196W        W52621  27.361   3.669   0.089
80197W        W52622   5.634  32.946  14.297
80198W        W52623  39.067   9.189  11.885
80199W        W52624  37.327   8.291  11.623
80200W        W52625  10.624  18.964   0.078
80201W        W52626  22.022  30.121  10.684
80202W        W52627  11.075   2.944  12.009
80203W        W52628  17.644  33.817  12.736
80204W        W52629  43.561  42.372   1.384
80205W        W52630   0.537  14.798   3.540
80206W        W52631  30.673  17.549   2.382
80207W        W52632   5.924  13.261   2.441
80208W        W52633  13.031  40.506  13.909
80209W        W52634  37.151  16.723   3.672
80210W        W52635  10.894  36.576  10.647
80211W        W52636   0.664  37.299  14.926
80212W        W52637  17.238  26.721   1.748
80213W        W52638   5.594  41.324   1.289
80214W        W52639  15.483  35.369   5.026
80215W        W52640  37.298  30.544   1.942
80216W        W52641  22.750  25.253  14.482
80217W        W52642  44.366   5.327   0.296
80218W        W52643  27.656  36.461   1.515
80219W        W52644  20.591  41.124   4.413
80220W        W52645   5.954  10.777   3.210
80221W        W52646  29.147  35.732  14.264
80222W        W52647  37.241   4.972  10.979
80223W        W52648  44.135  31.284   3.888
80224W        W52649  40.872  13.000  14.593
80225W        W52650  20.571  29.649  10.698
80226W        W52651  27.509  31.477  11.553
80227W        W52652  22.707  36.807   0.300
80228W        W52653   0.856  31.041  10.241
80229W        W52654  33.476  24.258  10.451
80230W        W52655  39.500   0.544   3.105
80231W        W52656   0.249  18.249   1.240
80232W        W52657   8.273   2.705  13.693
80233W        W52658  17.055   6.688   1.349
80234W        W52659  37.430  20.769   2.844
80235W        W52660  39.685  34.962   1.347
80236W        W52661  13.339  17.534  11.481
80237W        W52662  17.755  36.013  11.356
80238W        W52663  10.547  41.429  12.056
80239W        W52664   6.022  43.862   2.761
80240W        W52665  14.074   7.353   3.269
80241W        W52666  22.491  13.371   1.772
80242W        W52667  32.467  25.929  14.006
80243W        W52668   2.756  26.101  13.069
80244W        W52669   1.825  29.006  10.420
80245W        W52670  37.985  24.034   1.404
80246W        W52671  31.172   7.264   3.387
80247W        W52672  20.971  31.948   0.814
80248W        W52673  42.866  12.285   5.041
80249W        W52674  40.306  14.123  13.494
80250W        W52675  21.791  10.814   4.597
80251W        W52676  23.765  24.255  11.649
80252W        W52677  41.730  31.913   2.693
80253W        W52678   1.901  28.241  13.903
80254W        W52679  35.018   8.155  10.447
80255W        W52680  14.266   9.378   0.681
80256W        W52681  27.578  38.542   1.242
80257W        W52682  10.387  39.387  11.995
80258W        W52683  41.254  16.117   1.176
80259W        W52684  18.583  26.577  11.070
80260W        W52685   7.105  16.087   0.723
80261W        W52686  21.748  34.090   4.608
80262W        W52687  25.617   4.497  13.570
80263W        W52688  29.250   4.941  12.563
80264W        W52689  32.156  21.658   3.751
80265W        W52690  17.037  30.682  14.006
80266W        W52691  41.203  35.943  11.625
80267W        W52692  33.442  36.002   0.597
80268W        W52693  12.095  22.457  11.247
80269W        W52694  25.767   9.192   1.771
80270W        W52695  25.104  44.257   4.176
80271W        W52696  20.115  27.796  12.913
80272W        W52697   4.778   1.913  13.898
80273W        W52698   8.918  40.309   2.321
80274W        W52699   9.434  28.251  13.522
80275W        W52700  19.852  23.533   0.435
80276W        W52701  42.778  11.088   2.833
80277W        W52702  14.055  17.730   3.675
80278W        W52703  22.148  38.559   3.141
80279W        W52704  25.533  19.034   0.180
80280W        W52705  16.575  36.980   1.768
80281W        W52706   5.072  44.286  10.177
80282W        W52707  18.804  13.099   2.187
80283W        W52708  27.774  17.242  12.648
80284W        W52709   1.824  25.055  13.894
80285W        W52710  41.663  20.557   4.641
80286W        W52711  32.470  36.656   4.445
80287W        W52712  44.223  40.892  12.789
80288W        W52713  39.731   0.419  11.189
80289W        W52714  27.494  31.801   2.474
80290W        W52715   0.291  42.737  14.806
80291W        W52716  31.375  11.161  14.391
80292W        W52717  15.582   6.736  13.502
80293W        W52718  17.469  13.425   0.973
80294W        W52719   1.168  37.578   0.850
80295W        W52720  12.772   5.243  11.967
80296W        W52721   1.894  32.048  12.589
80297W        W52722  31.265  21.259   2.983
80298W        W52723  21.092  23.022  11.589
80299W        W52724  42.073  19.054   1.466
80300W        W52725  29.198  17.702   0.022
80301W        W52726   0.988  14.293  11.631
80302W        W52727  24.704   9.089   1.719
80303W        W52728  28.014  38.092  14.744
80304W        W52729  12.497  30.703  10.452
80305W        W52730  21.715   9.736   0.834
80306W        W52731  39.734  30.408   4.500
80307W        W52732  18.659  33.565  13.968
80308W        W52733  34.113  28.693   2.286
80309W        W52734  43.805  33.480   1.596
80310W        W52735  35.212   8.779   5.028
80311W        W52736  11.343  22.157  12.500
80312W        W52737   4.849  12.396  14.924
80313W        W52738   5.726  14.808   4.278
80314W        W52739  29.903  22.939   1.312
80315W        W52740  19.232   0.331  13.480
80316W        W52741  12.835  21.963   4.245
80317W        W52742  35.042  22.466   4.068
80318W        W52743   0.210  28.993  11.901
80319W        W52744   6.851  34.376  12.592
80320W        W52745  40.894  43.500  12.049
80321W        W52746  44.978  17.097   0.373
80322W        W52747  31.936  17.945   1.910
80323W        W52748   9.276  19.436  13.327
80324W        W52749   7.302  15.141   0.747
80325W        W52750  22.579   1.875  14.886
80326W        W52751  30.082  22.137   2.399
80327W        W52752   1.507   4.189   2.780
80328W        W52753  19.960  29.515   2.283
80329W        W52754  28.375  38.830   3.748
80330W        W52755  42.819  16.762  10.503
80331W        W52756  24.513  13.716   4.587
80332W        W52757  22.531  25.334  11.519
80333W        W52758  20.727  25.095   2.306
80334W        W52759  42.386  21.688   4.102
80335W        W52760  30.980  18.609  11.534
80336W        W52761   1.534   1.946   1.372
80337W        W52762  21.258   8.767  13.784
80338W        W52763  43.873  40.336  14.784
80339W        W52764   3.782  37.231  13.318
80340W        W52765  17.751  14.902  12.903
80341W        W52766  22.630  24.230  13.362
80342W        W52767  20.635  38.154   1.048
80343W        W52768   0.706  38.400  11.150
80344W        W52769  42.554  29.223  11.165
80345W        W52770  26.230   8.361  12.410
80346W        W52771   5.374  10.807  12.830
80347W        W52772  17.822  34.818   2.891
80348W        W52773  15.846  35.979  10.626
80349W        W52774  22.852   8.985   3.694
80350W        W52775  39.539  18.590  13.771
80351W        W52776  26.192   0.525  10.366
80352W        W52777  31.583  36.377   4.536
80353W        W52778  36.837  40.401  13.078
80354W        W52779  25.863  27.953  11.040
80355W        W52780   4.818  20.195  14.551
80356W        W52781  22.418  40.557   4.170
80357W        W52782   3.939  23.476   1.463
80358W        W52783  24.430  21.782  11.697
80359W        W52784  23.722  41.921  10.756
80360W        W52785   7.724  37.435  13.776
80361W        W52786   2.356   2.819   0.333
80362W        W52787   8.844  44.711  14.316
80363W        W52788  30.838   3.005  13.851
80364W        W52789  23.338  10.071   5.097
80365W        W52790  25.096  33.592  11.151
80366W        W52791  10.885  10.302   3.348
80367W        W52792  37.025  26.635   1.760
80368W        W52793  41.907  22.650  12.439
80369W        W52794  38.770  19.879  13.417
80370W        W52795  30.557   6.519   3.779
80371W        W52796   3.768  29.859   2.004
80372W        W52797  26.013   6.411   1.038
80373W        W52798  11.155   6.405  10.768
80374W        W52799  15.620  16.620  12.631
80375W        W52800  31.472  18.313   0.385
80376W        W52801  13.950  42.083   2.982
80377W        W52802  11.650  21.725  12.457
80378W        W52803   7.649   8.384   1.440
80379W        W52804  39.726  10.070   3.612
80380W        W52805   7.842   3.102   0.711
80381W        W52806  30.629   5.461   3.516
80382W        W52807   5.610  31.360   2.749
80383W        W52808  21.132  15.370  13.891
80384W        W52809  41.889  40.501  14.013
80385W        W52810  19.121  20.812  12.572
80386W        W52811   0.710  35.354  12.600
80387W        W52812  25.766  12.275   2.653
80388W        W52813  38.743   4.663  14.396
80389W        W52814  28.996  30.896  14.861
80390W        W52815   3.452   3.286   0.725
80391W        W52816  25.449  19.995  11.083
80392W        W52817  39.978  41.220   2.272
80393W        W52818  24.035   0.255  13.570
80394W        W52819   7.617  44.950   4.805
80395W        W52820  18.578   6.485  11.091
80396W        W52821   6.472   0.376  12.821
80397W        W52822  38.337  43.903  13.037
80398W        W52823  26.339   9.922   1.386
80399W        W52824  44.515  17.183  14.068
80400W        W52825  27.038  31.815  12.125
80401W        W52826  23.488  26.112  13.566
80402W        W52827   7.624  13.297   0.381
80403W        W52828  43.442   3.309   2.737
80404W        W52829  12.877  43.814  14.551
80405W        W52830  29.713  37.865  14.900
80406W        W52831  23.076  31.988  13.335
80407W        W52832  42.425  23.193   1.571
80408W        W52833  14.316  11.263   2.454
80409W        W52834   0.241  22.118   2.868
80410W        W52835  23.624  43.028  14.853
80411W        W52836   9.095   6.188   2.608
80412W        W52837   2.368  28.449  13.556
80413W        W52838  31.460  37.371   0.055
80414W        W52839  13.119   4.465  11.928
80415W        W52840  27.070  12.333   0.401
80416W        W52841  40.449  14.111  14.000
80417W        W52842  23.604  30.497   1.539
80418W        W52843  38.447  43.562   1.897
80419W        W52844  44.631  20.303  11.568
80420W        W52845  24.489  40.765  12.099
80421W        W52846  14.184  28.873   2.372
80422W        W52847  40.875  29.222   3.366
80423W        W52848  10.199  10.747  11.108
80424W        W52849   6.905   8.129   2.413
80425W        W52850  41.374   8.737   2.221
80426W        W52851  21.849  21.670  14.715
80427W        W52852  42.159  28.549  13.078
80428W        W52853   6.352   1.588  14.507
80429W        W52854  29.623  25.670  12.848
80430W        W52855   5.807  13.290   2.953
80431W        W52856  16.587  41.986   1.901
80432W        W52857  39.628  13.088   1.591
80433W        W52858  31.171   8.022  14.845
80434W        W52859  22.575  30.784  12.981
80435W        W52860  22.293  38.991  14.907
80436W        W52861  25.689   2.553  10.722
80437W        W52862  15.158  21.372   4.049
80438W        W52863  15.639  25.555  10.134
80439W        W52864  31.095   5.547  13.561
80440W        W52865  40.608  44.376  13.795
80441W        W52866   5.338   9.671  14.463
80442W        W52867  43.437  29.283  10.553
80443W        W52868  21.411  26.388   4.427
80444W        W52869  32.567  44.272  12.954
80445W        W52870  43.276   4.639  10.760
80446W        W52871  22.586  38.146   0.554
80447W        W52872   6.820  36.835   2.128
80448W        W52873  15.144  30.977  10.724
80449W        W52874  38.205  30.818   2.775
80450W        W52875  39.354   0.394   4.507
80451W        W52876  14.988  44.214   2.349
80452W        W52877  31.890  21.220   2.984
80453W        W52878  26.457   4.884   1.843
80454W        W52879  16.626  19.751   4.904
80455W        W52880   7.883  30.916   4.263
80456W        W52881  27.051   5.514   3.541
80457W        W52882  32.915   1.991  11.606
80458W        W52883  27.526  39.228   0.529
80459W        W52884   4.406  39.471   3.205
80460W        W52885  38.595  13.211  11.761
80461W        W52886   0.502  32.448   0.966
80462W        W52887   7.866  42.026  13.543
80463W        W52888  24.506  13.705  12.468
80464W        W52889  17.678   7.671  11.044
80465W        W52890  26.747  16.638  11.646
80466W        W52891  40.355  30.706   2.758
80467W        W52892   6.823  21.656   2.457
80468W        W52893  44.345  21.804   3.559
80469W        W52894  14.264  34.390   1.220
80470W        W52895  43.763  42.069  11.170
80471W        W52896   0.833  23.445   4.127
80472W        W52897   5.270   9.231  13.108
80473W        W52898  36.314  42.393  11.015
80474W        W52899  15.427  34.865  13.017
80475W        W52900   7.790  39.664   1.112
80476W        W52901  15.097   6.852  11.180
80477W        W52902  38.755   5.963   1.988
80478W        W52903  36.278  12.773  12.923
80479W        W52904  14.669  16.281  10.682
80480W        W52905   9.375  40.661   3.622
80481W        W52906  34.743  18.246   3.648
80482W        W52907  13.230  43.602   2.730
80483W        W52908  17.347  18.337   0.024
80484W        W52909   5.377  28.170  13.716
80485W        W52910  10.821  13.849   2.527
80486W        W52911   6.695  18.152  14.223
80487W        W52912   5.897  43.586   4.251
80488W        W52913  37.912  39.576   0.783
80489W        W52914   6.864  32.697   2.731
80490W        W52915  35.481  13.964  14.835
80491W        W52916  35.621  17.790   0.407
80492W        W52917  16.176  40.630   0.438
80493W        W52918   4.448  34.112   3.215
80494W        W52919  15.273  27.530  11.717
80495W        W52920  39.306   2.202  12.062
80496W        W52921  10.111  16.743  12.597
80497W        W52922   5.301  38.281   0.373
80498W        W52923  12.482  38.040   2.339
80499W        W52924  12.286  36.798  10.560
80500W        W52925  43.168  22.466  13.977
80501W        W52926  39.779  39.407  14.358
80502W        W52927  18.275  28.754   4.465
80503W        W52928  32.746   1.142   0.854
80504W        W52929  12.387  18.063   1.422
80505W        W52930  23.606  28.597   4.616
80506W        W52931  27.067  36.019  13.994
80507W        W52932  41.891  22.761   1.495
80508W        W52933  28.814  27.715   1.247
80509W        W52934  34.051  13.117   1.362
80510W        W52935  11.120  12.740  13.385
80511W        W52936  31.349  33.963   1.693
80512W        W52937  34.353  35.202  13.917
80513W        W52938  37.050  28.408  14.942
80514W        W52939   1.481   5.148  14.994
80515W        W52940  31.987   2.720  11.530
80516W        W52941  40.355  21.339  10.554
80517W        W52942  17.885  13.632   1.875
80518W        W52943  11.847   4.172  13.023
80519W        W52944  27.002  35.407  12.047
80520W        W52945  26.739   4.222  11.894
80521W        W52946  30.112  10.080  14.880
80522W        W52947  33.247  33.339   0.931
80523W        W52948  41.801  17.767  13.138
80524W        W52949  42.558   1.667   1.348
80525W        W52950  33.346  12.111   2.722
80526W        W52951  24.684  43.496   3.205
80527W        W52952   7.013  36.078  11.210
80528W        W52953  10.669  39.860  13.558
80529W        W52954  41.910  35.748   1.331
80530W        W52955  15.376  13.685   1.823
80531W        W52956  30.462  27.006  14.291
80532W        W52957  26.927  16.763  10.899
80533W        W52958  35.287  37.885  11.328
80534W        W52959  39.487  19.092  13.094
80535W        W52960  38.109   3.690   3.073
80536W        W52961  25.574  38.834   2.957
80537W        W52962  37.955  19.544  12.604
80538W        W52963   6.174  39.858   0.260
80539W        W52964  24.002  11.909  10.232
80540W        W52965  32.458  15.490   0.269
80541W        W52966  29.784  34.955  12.370
80542W        W52967  16.203  12.252   0.374
80543W        W52968  14.768  42.850  13.974
80544W        W52969  27.714   0.964   0.227
80545W        W52970   6.135  27.403   0.479
80546W        W52971  35.269   9.126   2.782
80547W        W52972   3.960  23.289  12.826
80548W        W52973   3.973  16.268   0.370
80549W        W52974   4.310  31.149   4.626
80550W        W52975   9.235  39.221  13.200
80551W        W52976   8.344   4.827  12.301
80552W        W52977   0.090  35.065  14.948
80553W        W52978   4.729  13.146   4.908
80554W        W52979  30.176  39.985  11.030
80555W        W52980   3.795  18.557   1.944
80556W        W52981  30.886  25.013   1.444
80557W        W52982  17.402  35.005   0.405
80558W        W52983  38.445   6.873   2.414
80559W        W52984  32.230   6.651   0.418
80560W        W52985  11.463   4.232  11.491
80561W        W52986  12.070  24.431   5.455
80562W        W52987  17.003  43.420  14.384
80563W        W52988  29.448  12.527  11.193
80564W        W52989  39.240  32.560  14.870
80565W        W52990  29.504  10.209   4.166
80566W        W52991  39.064  26.434   1.858
80567W        W52992  41.918  44.312  12.113
80568W        W52993  19.036  22.693  12.132
80569W        W52994   0.512   9.239   4.545
80570W        W52995  11.341  36.910   1.742
80571W        W52996  10.591  22.974   2.785
80572W        W52997  28.979  13.295   3.291
80573W        W52998  39.906  13.646   1.674
80574W        W52999  28.329  33.855  11.273
80575W        W53000  15.085  37.872  14.413
80576W        W53001  29.715  31.921  11.548
80577W        W53002  32.435  14.463   2.946
80578W        W53003   1.294   3.649  10.708
80579W        W53004  20.530  32.396  12.654
80580W        W53005   1.226  19.554   4.552
80581W        W53006  28.575  28.748  10.628
80582W        W53007  23.925  42.982   3.416
80583W        W53008   6.805  38.923   1.957
80584W        W53009  14.077   1.048  13.794
80585W        W53010  28.394  37.403   0.854
80586W        W53011  32.048  22.124  11.706
80587W        W53012  19.212  10.367   4.599
80588W        W53013  31.933  44.862   1.887
80589W        W53014  15.159  10.074   3.201
80590W        W53015   4.340  22.667  14.467
80591W        W53016  23.597  30.148  13.002
80592W        W53017  32.723  42.394   4.547
80593W        W53018  38.925  26.960  10.549
80594W        W53019  29.301  39.244  14.789
80595W        W53020  36.377  12.054   0.445
80596W        W53021  12.327  34.838  12.132
80597W        W53022  33.140  23.791   0.322
80598W        W53023   2.284  30.510   3.249
80599W        W53024  21.295   1.649  13.172
80600W        W53025  42.831  31.527   4.949
80601W        W53026  25.537  32.673   0.895
80602W        W53027  34.853  42.462  13.912
80603W        W53028  12.642  29.432  11.169
80604W        W53029  35.341  35.976  12.427
80605W        W53030  25.941   3.270   3.832
80606W        W53031  42.246  43.315   3.663
80607W        W53032  40.399  25.730  13.828
80608W        W53033  38.847   1.650  14.055
80609W        W53034  22.078  32.503  13.823
80610W        W53035  28.002  12.131  14.583
80611W        W53036   9.614  21.578  11.101
80612W        W53037  41.620   3.221  12.527
80613W        W53038  41.745  15.679   0.277
80614W        W53039  25.626  18.473  12.566
80615W        W53040   0.914  41.885   0.530
80616W        W53041  35.709  14.715   1.669
80617W        W53042  44.059  33.827   0.832
80618W        W53043  17.980   3.378   0.305
80619W        W53044  22.150  27.770  14.493
80620W        W53045  42.022   2.087  14.335
80621W        W53046  23.430   3.504   5.077
80622W        W53047  35.094  22.464   3.553
80623W        W53048  36.791  10.137   2.559
80624W        W53049  38.485  14.142  11.209
80625W        W53050  18.503  40.246  14.179
80626W        W53051  20.560  12.279   2.309
80627W        W53052  11.278   2.348   5.407
80628W        W53053  37.023   8.257  11.112
80629W        W53054  29.712  34.181  12.483
80630W        W53055   6.189  14.288  13.028
80631W        W53056  44.350  30.021   1.301
80632W        W53057  25.707  11.704  12.503
80633W        W53058   5.456  38.890  10.740
80634W        W53059   2.752  28.597   3.102
80635W        W53060  11.295  17.969  14.726
80636W        W53061   4.456  13.371   2.698
80637W        W53062  37.830  34.156  12.545
80638W        W53063  36.300   8.372  11.649
80639W        W53064  43.244  24.150  14.511
80640W        W53065  20.176  11.363  10.604
80641W        W53066  16.578  29.919   1.395
80642W        W53067  36.153  29.982  11.332
80643W        W53068   7.001  25.199   1.439
80644W        W53069  26.888  24.176   3.712
80645W        W53070  29.159   4.619  13.446
80646W        W53071  29.823  39.391   0.317
80647W        W53072  17.263  33.005   1.817
80648W        W53073   8.109   1.224   4.596
80649W        W53074   7.696  18.498   0.071
80650W        W53075  43.803  19.320   4.084
80651W        W53076   7.371  19.141   3.569
80652W        W53077   3.590  10.945  10.788
80653W        W53078  36.425  27.377  12.013
80654W        W53079   2.794  23.427  14.749
80655W        W53080  32.091   1.027  10.607
80656W        W53081  31.642  22.361   9.670
80657W        W53082  11.539  22.574  10.190
80658W        W53083  19.347   5.053   0.876
80659W        W53084  20.966   6.423  11.138
80660W        W53085  37.237   6.243  11.915
80661W        W53086   1.774  18.198  13.390
80662W        W53087  42.544  16.504   4.593
80663W        W53088  44.367  43.433  14.272
80664W        W53089  43.818  11.722  13.013
80665W        W53090  30.948  22.037   4.388
80666W        W53091   7.462   2.748   0.904
80667W        W53092  17.264  26.573  12.070
80668W        W53093  18.624   8.278   1.467
80669W        W53094  16.844  24.597   3.844
80670W        W53095   0.007  31.897  12.571
80671W        W53096  24.317  20.174   1.836
80672W        W53097  25.251   8.580   0.136
80673W        W53098  19.331  35.462  14.032
80674W        W53099  43.959  37.318   0.928
80675W        W53100  23.566  27.850   0.709
80676W        W53101  40.613  31.935   5.232
80677W        W53102  27.496  31.863  14.046
80678W        W53103  23.290  30.256   4.068
80679W        W53104  18.657  18.222   5.086
80680W        W53105   8.064  44.534  13.817
80681W        W53106  36.365  18.891  13.028
80682W        W53107  38.143  29.147   4.752
80683W        W53108   0.020  37.915  14.830
80684W        W53109  15.804  20.714   2.214
80685W        W53110  10.851  12.318  11.138
80686W        W53111   8.064  27.937   3.670
80687W        W53112  39.261  42.307  13.013
80688W        W53113  22.094  31.412   1.179
80689W        W53114  12.050  35.256  12.047
80690W        W53115   3.944  42.062   2.307
80691W        W53116   0.276   8.525  11.644
80692W        W53117  18.721  36.068  11.925
80693W        W53118  17.948  28.850   2.821
80694W        W53119  29.459  26.814   0.299
80695W        W53120  41.222  14.113   0.000
80696W        W53121  22.208  10.700   0.409
80697W        W53122   7.148  39.491  14.243
80698W        W53123  26.954  24.129   1.002
80699W        W53124   3.213  36.049   1.349
80700W        W53125   6.325  16.015  14.757
80701W        W53126  10.284  23.254   5.191
80702W        W53127  34.339  39.875  10.724
80703W        W53128  19.116  29.118  10.765
80704W        W53129  13.126  33.385   2.399
80705W        W53130  16.247  22.106   2.605
80706W        W53131  34.812   7.814  13.929
80707W        W53132  15.963   8.572  11.505
80708W        W53133  24.266   3.210  12.505
80709W        W53134  22.752  29.960   2.344
80710W        W53135  44.882   2.852  11.962
80711W        W53136  10.217  35.429  14.400
80712W        W53137  12.905   8.486  14.424
80713W        W53138  39.588   5.411  11.150
80714W        W53139  17.673  32.316   1.238
80715W        W53140   5.003   6.216  14.400
80716W        W53141  11.684  13.764  10.613
80717W        W53142  22.399  31.316   2.950
80718W        W53143   2.412  31.078  13.967
80719W        W53144  31.536  18.218   1.727
80720W        W53145   8.625   3.710   1.364
80721W        W53146  38.989  22.731   3.220
80722W        W53147  11.429  21.028   4.532
80723W        W53148   2.717  14.179   1.004
80724W        W53149   9.716   6.902   1.169
80725W        W53150  11.389  38.727  14.361
80726W        W53151  20.787  42.766  10.988
80727W        W53152  14.373   7.676  12.437
80728W        W53153  31.157  34.176   4.522
80729W        W53154  24.242  12.132   0.933
80730W        W53155   2.523  42.790   5.016
80731W        W53156  38.412  17.809  14.823
80732W        W53157  39.393  22.857   2.378
80733W        W53158  33.717   7.229  12.418
80734W        W53159  12.117  34.409   0.789
80735W        W53160  25.056  19.702  14.718
80736W        W53161  39.664  15.532   1.651
80737W        W53162  14.584  14.592  14.879
80738W        W53163  28.931  11.176  10.691
80739W        W53164  26.023  23.225   2.858
80740W        W53165  19.114   8.927  14.097
80741W        W53166  19.087  21.611  10.644
80742W        W53167  15.133  12.050   0.477
80743W        W53168   4.913  39.565   1.293
80744W        W53169  23.911  25.961   4.141
80745W        W53170   3.881  44.247   2.239
80746W        W53171  20.242  27.226   2.925
80747W        W53172  25.709  34.582  12.168
80748W        W53173  31.630   5.422   4.845
80749W        W53174  14.256  17.206  11.872
80750W        W53175  32.596  28.949  14.490
80751W        W53176  34.490  14.852  12.998
80752W        W53177  12.734  16.626   0.063
80753W        W53178  19.275  26.596   3.308
80754W        W53179  27.892  19.298   1.066
80755W        W53180   8.623  22.092  14.426
80756W        W53181  32.586  30.164   3.324
80757W        W53182  12.291   6.133   4.887
80758W        W53183  18.195  32.468   3.216
80759W        W53184  16.301   1.927   0.783
80760W        W53185  32.662  36.057   0.946
80761W        W53186   0.371  33.910   3.707
80762W        W53187  37.581  31.883  14.295
80763W        W53188  26.255   5.876  13.837
80764W        W53189  29.697  37.361   4.560
80765W        W53190  14.248  24.391  13.768
80766W        W53191  27.930  44.501  11.972
80767W        W53192  20.049  20.789  14.969
80768W        W53193   8.735   4.700   2.791
80769W        W53194  34.803   5.949   1.802
80770W        W53195  43.016  34.458  13.642
80771W        W53196  35.100   6.473  10.778
80772W        W53197  24.421  43.068   3.330
80773W        W53198  34.025  26.907   4.300
80774W        W53199  15.109  24.702   1.485
80775W        W53200  32.511  41.065  11.603
80776W        W53201  30.385  26.772   0.322
80777W        W53202   0.208   9.899  12.148
80778W        W53203   2.887  32.942  11.885
80779W        W53204   9.422  36.857  13.340
80780W        W53205  38.024   2.262  14.294
80781W        W53206   5.433   6.854  13.905
80782W        W53207   0.458  29.230   0.907
80783W        W53208  40.490  27.397  10.491
80784W        W53209  22.987   1.982  13.117
80785W        W53210  10.108  31.996   5.016
80786W        W53211  29.191  13.337   2.109
80787W        W53212  31.141  23.827   9.779
80788W        W53213  27.139  19.684   2.711
80789W        W53214  33.937  23.467  14.875
80790W        W53215   9.667  23.113  12.650
80791W        W53216  36.336  11.042  13.886
80792W        W53217  13.200  30.927   2.366
80793W        W53218  10.682  42.070   3.766
80794W        W53219  31.184  19.791  12.086
80795W        W53220  10.871  11.604   3.240
80796W        W53221  16.543  25.476  13.513
80797W        W53222  30.417  22.952   4.229
80798W        W53223  19.226  44.708   2.206
80799W        W53224  14.221  10.712   1.638
80800W        W53225  42.561  20.179   3.257
80801W        W53226  30.973  40.303  10.537
80802W        W53227   5.513  39.449  13.597
80803W        W53228  32.389  36.519   1.739
80804W        W53229  13.323   0.343  12.903
80805W        W53230  20.025   2.209   0.317
80806W        W53231   0.894  25.122   3.620
80807W        W53232  28.897  38.506   1.843
80808W        W53233  34.068  32.483   1.438
80809W        W53234   2.264  21.723  12.549
80810W        W53235   6.221  22.079   1.585
80811W        W53236  32.907   2.568   1.914
80812W        W53237  22.409   9.477   4.173
80813W        W53238   3.446  23.624  10.633
80814W        W53239  19.753  18.354  11.521
80815W        W53240  14.775   9.126   3.359
80816W        W53241  26.907  38.402  12.891
80817W        W53242  26.888  31.180   0.445
80818W        W53243  40.911   9.665   3.161
80819W        W53244  28.044   2.898  13.737
80820W        W53245  10.910  11.954   4.701
80821W        W53246  11.718  20.064  11.369
80822W        W53247  20.024  32.385  13.379
80823W        W53248  42.902  36.509  12.669
80824W        W53249  31.581  18.880  13.164
80825W        W53250  43.312  42.245  13.912
80826W        W53251  34.658  38.607   1.226
80827W        W53252  24.530  28.453   3.379
80828W        W53253  39.025   0.509  12.554
80829W        W53254  16.711  16.746   0.377
80830W        W53255   7.104  37.969   3.657
80831W        W53256  39.425  38.311  13.011
80832W        W53257  20.095  42.335   0.331
80833W        W53258   4.117  31.236  13.186
80834W        W53259  39.057  14.795   2.672
80835W        W53260  39.366   4.758   1.664
80836W        W53261  40.507  28.524  12.721
80837W        W53262  36.352  15.640  12.975
80838W        W53263  30.018  14.846   0.462
80839W        W53264  42.907   9.887   3.679
80840W        W53265   4.364  30.765   3.198
80841W        W53266   0.235   7.381   1.760
80842W        W53267  12.056  39.579   2.198
80843W        W53268  28.391  20.595  13.784
80844W        W53269   1.475  28.573  13.066
80845W        W53270   6.402   9.856  12.930
80846W        W53271  34.520   8.409   3.092
80847W        W53272   3.672   3.238   4.638
80848W        W53273  42.043  13.651   3.851
80849W        W53274   1.330  28.933   1.966
80850W        W53275  15.298  33.452   3.731
80851W        W53276  34.853   6.693   2.218
80852W        W53277   9.722  34.708  14.942
80853W        W53278  15.393  39.802   1.017
80854W        W53279  12.780  18.567   0.498
80855W        W53280  13.887  31.818  11.154
80856W        W53281  10.761   9.213   4.535
80857W        W53282  33.528  43.309   4.186
80858W        W53283  36.858  25.088   0.301
80859W        W53284  17.611   9.920  12.977
80860W        W53285  25.656  44.513   3.805
80861W        W53286  39.730  37.617   1.868
80862W        W53287  39.802  40.934   0.853
80863W        W53288  15.275  40.681  13.550
80864W        W53289  40.410  20.362   4.123
80865W        W53290  43.643  39.753   5.078
80866W        W53291  15.086  13.342   2.092
80867W        W53292  25.869  34.114  12.862
80868W        W53293   2.925  28.168   2.281
80869W        W53294  33.639  19.512   3.687
80870W        W53295   3.965  27.603  11.810
80871W        W53296  10.807  33.470  13.975
80872W        W53297   6.699  34.458  10.650
80873W        W53298  26.372  23.164  13.543
80874W        W53299  15.373   4.426  12.191
80875W        W53300  42.488   5.516  12.484
80876W        W53301  17.294  39.450   4.035
80877W        W53302  14.128  38.537  13.786
80878W        W53303   7.135  41.443  14.379
80879W        W53304  12.855   9.726  14.820
80880W        W53305  43.754  19.710  13.663
80881W        W53306   8.967   5.588   1.008
80882W        W53307  13.349  37.944   3.236
80883W        W53308   8.147  28.728   0.882
80884W        W53309  26.946  32.531  13.460
80885W        W53310  31.892  36.855  12.455
80886W        W53311  11.668  14.817  14.308
80887W        W53312  16.730   1.307  13.569
80888W        W53313  41.131  14.625   0.777
80889W        W53314  32.658   2.206  11.186
80890W        W53315   5.111  16.296   4.478
80891W        W53316  38.093  44.912  13.483
80892W        W53317   0.827  11.569  10.742
80893W        W53318  25.225  34.378  14.218
80894W        W53319   5.746  22.049   3.138
80895W        W53320  42.548  28.475  12.312
80896W        W53321  41.514   1.971  14.432
80897W        W53322  14.633   7.770  11.655
80898W        W53323   7.292  37.993   1.724
80899W        W53324   7.670  10.121   1.826
80900W        W53325  29.992  10.573  14.838
80901W        W53326  40.600   2.361  13.496
80902W        W53327  26.146  20.958   4.245
80903W        W53328  19.858  33.555   0.318
80904W        W53329  43.030  39.794   3.057
80905W        W53330  43.567  34.619  11.432
80906W        W53331  30.377  24.404   4.137
80907W        W53332  25.161  22.672   4.390
80908W        W53333   4.689   0.257   2.247
80909W        W53334  30.384  43.748   0.486
80910W        W53335  24.644  11.573   4.670
80911W        W53336  24.459  29.164  12.981
80912W        W53337   8.774  31.596  12.099
80913W        W53338  38.444  13.711   2.341
80914W        W53339   9.363  28.096   3.640
80915W        W53340   9.439  21.681   4.881
80916W        W53341  38.910   6.631   2.399
80917W        W53342  29.468  22.508  12.611
80918W        W53343   4.305  30.080   4.250
80919W        W53344  40.999   0.270  11.619
80920W        W53345  38.379  39.873  14.469
80921W        W53346  43.885  41.738  11.560
80922W        W53347  10.429   3.800  12.095
80923W        W53348  44.014   7.263  14.721
80924W        W53349  10.023   3.369  11.304
80925W        W53350  35.546  12.752   1.962
80926W        W53351  37.691  11.086  11.308
80927W        W53352  25.698  24.634   2.849
80928W        W53353  39.252  19.245   1.888
80929W        W53354  34.137  19.206  14.943
80930W        W53355  23.455  14.988  14.015
80931W        W53356  10.749   0.238  10.791
80932W        W53357  22.697  26.322  11.661
80933W        W53358   1.329  26.652  10.948
80934W        W53359  28.420  28.035   1.475
80935W        W53360  23.668  17.263  10.427
80936W        W53361   2.315   8.091  14.411
80937W        W53362   6.793  30.971   3.016
80938W        W53363  15.796  17.548   4.331
80939W        W53364  41.969  39.598  10.900
80940W        W53365   2.373   4.794  12.010
80941W        W53366  27.447  11.119   4.434
80942W        W53367  36.626  19.157  10.528
80943W        W53368  43.595  43.794   1.435
80944W        W53369  38.065   9.730  12.379
80945W        W53370  44.718  11.449  11.930
80946W        W53371   4.861  11.153   2.643
80947W        W53372  13.085  43.126  10.354
80948W        W53373  37.207  23.109   3.322
80949W        W53374   1.234   4.687  14.824
80950W        W53375  21.815  17.686  11.643
80951W        W53376  44.479   1.392   4.530
80952W        W53377  25.073  44.687  10.538
80953W        W53378  21.628   6.318   1.546
80954W        W53379  24.569  44.942   3.757
80955W        W53380  17.326  26.871  14.468
80956W        W53381  21.227  25.068  13.528
80957W        W53382  14.823  40.029   4.520
80958W        W53383  41.719  28.008   3.821
80959W        W53384  35.650  23.507   3.873
80960W        W53385  34.160  26.239  11.074
80961W        W53386  14.495  27.679   4.332
80962W        W53387  10.741  39.751   3.219
80963W        W53388  25.934  44.107  13.251
80964W        W53389  43.563   1.017   3.748
80965W        W53390  25.622  17.507  10.269
80966W        W53391  26.854  44.107   3.259
80967W        W53392  12.545  37.136   2.248
80968W        W53393  12.270   5.978  10.679
80969W        W53394  27.909   4.408   1.779
80970W        W53395  26.494  39.907   4.163
80971W        W53396  16.046  17.609  13.994
80972W        W53397  23.473  25.534  11.608
80973W        W53398  13.722  26.038   0.421
80974W        W53399  10.596   3.299   0.279
80975W        W53400  16.129  24.487  12.660
80976W        W53401   7.339  20.105   0.839
80977W        W53402  13.029  24.227   1.655
80978W        W53403  38.872   3.192  10.647
80979W        W53404  18.313  37.868  12.884
80980W        W53405  40.420   5.656  11.120
80981W        W53406   1.751  37.501   3.812
80982W        W53407   0.755  11.083   4.154
80983W        W53408  24.680  24.708   4.312
80984W        W53409  15.518  42.892   1.789
80985W        W53410  15.107  41.924   0.065
80986W        W53411  24.144  11.583   2.762
80987W        W53412   5.069  34.297   1.190
80988W        W53413  10.157   9.651  14.857
80989W        W53414   4.931  40.881  12.507
80990W        W53415  25.444  32.635  14.982
80991W        W53416  28.867   3.011   2.670
80992W        W53417  28.125  39.547   2.875
80993W        W53418  19.067  11.702  12.480
80994W        W53419   1.427   3.552  11.834
80995W        W53420  18.362   6.481   2.132
80996W        W53421  35.813  36.570  12.925
80997W        W53422  15.538   8.861  11.634
80998W        W53423  12.224  19.309  11.847
80999W        W53424  28.133  22.214  14.371
81000W        W53425  11.217   6.268  14.827
81001W        W53426  41.357  25.515   4.047
81002W        W53427  21.283   1.337   1.491
81003W        W53428  17.619   3.532   2.577
81004W        W53429   6.803  19.092   1.157
81005W        W53430  22.240  31.184  11.496
81006W        W53431  43.795  29.068  14.066
81007W        W53432  43.843  14.390   1.598
81008W        W53433   7.360   9.240   1.209
81009W        W53434  11.613   0.945   4.725
81010W        W53435   9.680  35.965   2.712
81011W        W53436   2.890   4.519   0.900
81012W        W53437   8.084  33.959  13.304
81013W        W53438  38.470  19.288   4.906
81014W        W53439  19.016  16.204   3.621
81015W        W53440  44.988  10.604  14.205
81016W        W53441  15.525  21.614  10.475
81017W        W53442   4.953  24.789  12.221
81018W        W53443  42.856  28.385  14.026
81019W        W53444  30.063  44.412   2.932
81020W        W53445  23.645  10.886   3.261
81021W        W53446  28.949  36.090   3.725
81022W        W53447   0.576   2.300  10.998
81023W        W53448  20.149  37.512  12.011
81024W        W53449   1.789   8.601  13.133
81025W        W53450  20.579   9.674   4.069
81026W        W53451  30.462  20.410  11.517
81027W        W53452   2.347  33.933   2.849
81028W        W53453  11.301  29.287   2.341
81029W        W53454  39.033   1.479  12.478
81030W        W53455  14.030  44.454  12.661
81031W        W53456   5.849  25.019  14.871
81032W        W53457  11.575  27.036  13.010
81033W        W53458  16.798  38.290   1.474
81034W        W53459  31.533  26.452   2.325
81035W        W53460  31.388  15.139  13.996
81036W        W53461  18.578   5.022   1.086
81037W        W53462  15.636  31.683  12.942
81038W        W53463  27.513  16.055   2.341
81039W        W53464  30.987   5.743   2.287
81040W        W53465  33.167  17.566  14.331
81041W        W53466  25.631   9.959   3.055
81042W        W53467  12.167  37.811   1.981
81043W        W53468   9.134  17.974  13.551
81044W        W53469  24.049  39.471   4.502
81045W        W53470  11.912   2.406   0.534
81046W        W53471  10.540   8.304   1.243
81047W        W53472  17.350  26.339   1.361
81048W        W53473  23.651  14.966   0.929
81049W        W53474  42.879  19.902  13.474
81050W        W53475  11.699  26.499  14.879
81051W        W53476  26.080  19.296   3.698
81052W        W53477  27.910  12.675   2.237
81053W        W53478   4.219  26.144   3.683
81054W        W53479   9.542  20.680  12.747
81055W        W53480  23.769  32.970  13.334
81056W        W53481  15.744  24.539   3.808
81057W        W53482  43.175   3.344  11.263
81058W        W53483  29.907   0.346  13.490
81059W        W53484  13.073  14.972   4.233
81060W        W53485  43.297  40.414  10.631
81061W        W53486  35.257  14.605  10.912
81062W        W53487   4.427  22.066  12.321
81063W        W53488  15.830  22.543  14.639
81064W        W53489  22.828  24.077   9.937
81065W        W53490  18.194  35.902   3.047
81066W        W53491  28.076  14.822  11.244
81067W        W53492  31.870  36.109   0.471
81068W        W53493  31.797  36.306   2.755
81069W        W53494  26.768  42.060  12.341
81070W        W53495  44.800  43.735  11.401
81071W        W53496  35.154  29.433  12.335
81072W        W53497  18.465  42.892   2.230
81073W        W53498  30.962  31.814   2.682
81074W        W53499  12.253   7.388   1.765
81075W        W53500  32.478  15.571   3.781
81076W        W53501  22.201  22.597   0.058
81077W        W53502  41.093   2.393  12.526
81078W        W53503   5.871  15.510  12.062
81079W        W53504  34.470  19.698   2.486
81080W        W53505  16.713  32.386   1.665
81081W        W53506  17.608  18.199  11.983
81082W        W53507  30.120  27.499   2.781
81083W        W53508  23.917  19.530  14.389
81084W        W53509  19.295  20.030  14.975
81085W        W53510  27.777  30.252   2.639
81086W        W53511   5.276   9.399   0.478
81087W        W53512  27.350  38.884   3.642
81088W        W53513   3.374  22.562  12.401
81089W        W53514  15.310   9.129   1.209
81090W        W53515  18.333  30.018  14.586
81091W        W53516  32.347  28.999   0.835
81092W        W53517  38.856  33.056  13.741
81093W        W53518  43.519  21.241  12.617
81094W        W53519  43.937  31.620  13.239
81095W        W53520   1.115  34.519   0.256
81096W        W53521  20.747  12.645  13.558
81097W        W53522  23.238  44.821  11.483
81098W        W53523  22.479  24.954  11.196
81099W        W53524  40.454  21.834  10.511
81100W        W53525  24.671  18.668  12.728
81101W        W53526   1.869  34.942  13.744
81102W        W53527  19.020  28.086  11.711
81103W        W53528  29.412  42.932   5.018
81104W        W53529  18.013  18.580  12.008
81105W        W53530  39.455  25.737   3.264
81106W        W53531  28.002  22.776   0.129
81107W        W53532  23.018  31.573  11.289
81108W        W53533  36.290  22.936  12.087
81109W        W53534  36.553  32.511  12.677
81110W        W53535  24.315  23.423  14.597
81111W        W53536   4.717  19.524   4.529
81112W        W53537  39.277   0.182  10.428
81113W        W53538   0.500  38.133  13.537
81114W        W53539  24.795  35.982   0.215
81115W        W53540  33.822   7.160  14.925
81116W        W53541   7.311  13.656   3.564
81117W        W53542  13.717  22.069   0.767
81118W        W53543  43.472  17.565   3.851
81119W        W53544  37.690  27.651  14.942
81120W        W53545   3.964  20.775  14.769
81121W        W53546  31.927  19.563   0.552
81122W        W53547   6.722  40.166   2.704
81123W        W53548  24.175   4.387  14.721
81124W        W53549  29.006  23.826   9.697
81125W        W53550  23.511  21.285   2.017
81126W        W53551  22.130  32.397   1.345
81127W        W53552  24.387  18.219  13.957
81128W        W53553  35.520  26.808  13.448
81129W        W53554  35.074   2.015  13.476
81130W        W53555   2.900  13.282   0.897
81131W        W53556  13.085  32.679  10.999
81132W        W53557  23.926  21.506  13.074
81133W        W53558   2.416  22.160   1.918
81134W        W53559  34.100   0.463  10.678
81135W        W53560   6.680  31.007   2.019
81136W        W53561  32.085  13.206   0.280
81137W        W53562   3.678   5.717  14.275
81138W        W53563   8.625  28.494   0.914
81139W        W53564  39.352  11.263  13.091
81140W        W53565  11.104  44.328  14.420
81141W        W53566   9.174  25.705   4.341
81142W        W53567  28.463  32.161  10.349
81143W        W53568   1.223  29.373  13.578
81144W        W53569  36.479   7.435   3.248
81145W        W53570  15.360  37.517  12.376
81146W        W53571  40.812   0.087   1.315
81147W        W53572   8.778  15.593   2.241
81148W        W53573   5.888  32.520   0.306
81149W        W53574  42.715   9.162  12.688
81150W        W53575  11.076  14.633   2.839
81151W        W53576   9.629  10.310   4.686
81152W        W53577  24.665   1.282   2.955
81153W        W53578  34.058   3.677  11.185
81154W        W53579   6.486  11.807  12.943
81155W        W53580  28.079  27.960   0.448
81156W        W53581  20.283  12.370  13.406
81157W        W53582   9.938  23.105   4.221
81158W        W53583  37.425  29.984  12.896
81159W        W53584  26.089  41.090  12.106
81160W        W53585  20.389  29.968  11.565
81161W        W53586  24.528  33.791  12.066
81162W        W53587  11.871   6.824   0.524
81163W        W53588  35.257  15.689   0.839
81164W        W53589   7.313  18.697  11.448
81165W        W53590  40.727  25.695  13.128
81166W        W53591  22.748   7.120  10.856
81167W        W53592  19.851  26.847  11.380
81168W        W53593  27.768  12.248   4.358
81169W        W53594  20.088  23.665  14.534
81170W        W53595  44.346   2.395   3.311
81171W        W53596  17.622  12.289  13.963
81172W        W53597  13.783  37.620   2.296
81173W        W53598  22.670  34.393   2.331
81174W        W53599  27.028  33.414   2.448
81175W        W53600   3.935  39.829  10.924
81176W        W53601  23.157   7.946   0.361
81177W        W53602  37.307   2.485   1.982
81178W        W53603   3.327  14.725  14.912
81179W        W53604  24.169  14.597  12.686
81180W        W53605  37.053  40.874   0.256
81181W        W53606   4.741  21.509  13.943
81182W        W53607  18.047  19.589   1.056
81183W        W53608   9.870   1.862  11.979
81184W        W53609  30.953  31.099  12.720
81185W        W53610  22.341   4.923   4.995
81186W        W53611  19.944   2.735  14.086
81187W        W53612  27.644  41.890   0.673
81188W        W53613  21.129   3.993  11.077
81189W        W53614  28.832  39.400   0.309
81190W        W53615   4.165  12.537  10.983
81191W        W53616  32.043  28.115   1.869
81192W        W53617   5.368  22.014   4.477
81193W        W53618   0.439  12.691  14.394
81194W        W53619  33.711  32.512   2.821
81195W        W53620  11.400  27.650   0.945
81196W        W53621  11.345   7.896   2.239
81197W        W53622  20.383  27.390  10.924
81198W        W53623   4.215   5.936   2.443
81199W        W53624  23.432  33.505  11.522
81200W        W53625  40.384  44.814   4.466
81201W        W53626  21.071  24.627   4.473
81202W        W53627   3.396  17.147  14.420
81203W        W53628  24.488   0.793   4.482
81204W        W53629  11.784   0.789   0.559
81205W        W53630   3.543  26.948   1.327
81206W        W53631  20.457  29.112  12.823
81207W        W53632  40.633  16.181  12.467
81208W        W53633  23.686  17.674  13.590
81209W        W53634  26.442  10.814  13.992
81210W        W53635  21.207  12.647   3.728
81211W        W53636   9.753   5.730  13.835
81212W        W53637  20.721   8.538  12.997
81213W        W53638  38.965  23.093  13.981
81214W        W53639  34.531  40.471   0.924
81215W        W53640   6.210  32.871   1.401
81216W        W53641  40.327  24.513   0.492
81217W        W53642  27.486  30.251   0.218
81218W        W53643   0.700   1.420   2.569
81219W        W53644  44.847   1.772  11.073
81220W        W53645  31.111   5.253   3.565
81221W        W53646  15.023  28.108   0.403
81222W        W53647  28.468  24.153  12.995
81223W        W53648  14.829  44.725  11.878
81224W        W53649   7.570  37.392   4.550
81225W        W53650  18.277  15.519  14.438
81226W        W53651  27.173   9.007  12.652
81227W        W53652  26.021  34.212   3.670
81228W        W53653  30.093   5.077   4.316
81229W        W53654   4.886   8.760  12.443
81230W        W53655  10.269   7.755  13.279
81231W        W53656  24.256   8.578   3.297
81232W        W53657  14.312   5.765   4.938
81233W        W53658  11.725  15.698  11.600
81234W        W53659  34.543  32.562  11.158
81235W        W53660  13.321   0.194  13.405
81236W        W53661  13.683  24.626   1.382
81237W        W53662  27.608  32.125   1.463
81238W        W53663  36.485   5.227  14.047
81239W        W53664  33.351  30.958   3.177
81240W        W53665  39.961  25.144  13.397
81241W        W53666  25.200  33.678  12.515
81242W        W53667  26.755   4.344   4.657
81243W        W53668  37.065  14.503  11.575
81244W        W53669  15.548   3.957  12.332
81245W        W53670  29.602  44.056  13.460
81246W        W53671  39.814  22.600  12.408
81247W        W53672  44.968  12.513  13.840
81248W        W53673  43.477  26.804   3.617
81249W        W53674  38.051  42.867  11.126
81250W        W53675  21.059   3.188  12.904
81251W        W53676  31.418   5.252  14.289
81252W        W53677  36.632  26.463   3.784
81253W        W53678  20.241  10.172   3.739
81254W        W53679   1.484  19.878  11.202
81255W        W53680  17.853   7.891   1.432
81256W        W53681  28.384   8.871   4.040
81257W        W53682   7.601   1.341   0.926
81258W        W53683  30.413   4.249   4.034
81259W        W53684   2.339  13.206   3.649
81260W        W53685  26.973  36.957  12.953
81261W        W53686  20.729  38.537   4.496
81262W        W53687  28.196   2.049  14.219
81263W        W53688  12.127  10.891  14.815
81264W        W53689   6.642  21.278   4.144
81265W        W53690  43.060  44.009  11.666
81266W        W53691  31.612  29.623   5.212
81267W        W53692   6.885  29.501   2.360
81268W        W53693  23.151   9.765  13.826
81269W        W53694  22.828   6.855   0.849
81270W        W53695  34.391  24.293   2.628
81271W        W53696  26.165  40.963   1.610
81272W        W53697   2.765  37.740  14.146
81273W        W53698  36.408   6.156   0.211
81274W        W53699  21.229  15.524  14.689
81275W        W53700  33.553  32.828   3.192
81276W        W53701   6.984  44.303  13.461
81277W        W53702  34.721  41.452   4.875
81278W        W53703  31.611   1.419   2.548
81279W        W53704   2.175  31.620   4.930
81280W        W53705   5.392  18.217  13.563
81281W        W53706   6.242  35.891  10.746
81282W        W53707  35.501  40.835  14.933
81283W        W53708   9.205  39.816   3.392
81284W        W53709  23.111  18.785  12.397
81285W        W53710  20.006  40.969  13.975
81286W        W53711  36.126  19.135   1.478
81287W        W53712  12.883  27.676  14.257
81288W        W53713  40.861   2.767   1.369
81289W        W53714  37.663  43.347   3.683
81290W        W53715  17.309  23.367   4.111
81291W        W53716  30.963  36.064  14.028
81292W        W53717  40.313  37.018  13.429
81293W        W53718   7.838   5.945  11.711
81294W        W53719   2.186   5.769   1.016
81295W        W53720   4.652   4.096   5.015
81296W        W53721  40.782  14.255  13.336
81297W        W53722  35.426  30.183   3.630
81298W        W53723   4.789  39.962  12.621
81299W        W53724  24.105   9.825   2.343
81300W        W53725  44.413  17.792  13.379
81301W        W53726  25.662  44.008   1.095
81302W        W53727  18.658  30.239  14.960
81303W        W53728  28.052   9.613  13.344
81304W        W53729   7.633  43.708  12.080
81305W        W53730   7.708   4.659   0.895
81306W        W53731  39.621  12.868  11.108
81307W        W53732  13.117  25.988   4.215
81308W        W53733   9.937  37.589   4.611
81309W        W53734  28.028   9.132  12.534
81310W        W53735  19.176  41.527  11.436
81311W        W53736  42.334  43.756   0.339
81312W        W53737   9.695   1.277   1.396
81313W        W53738  10.276  35.670  10.070
81314W        W53739  40.818  33.840   0.373
81315W        W53740  25.662  31.430  13.966
81316W        W53741   6.770  25.764   0.538
81317W        W53742   2.029  13.543   1.981
81318W        W53743  16.247  36.079   1.725
81319W        W53744   1.211  32.973   2.460
81320W        W53745   8.255  17.639  10.991
81321W        W53746  16.222   8.706  12.382
81322W        W53747  14.175  42.442  12.131
81323W        W53748   4.941  18.718   1.782
81324W        W53749  35.803  26.986   1.831
81325W        W53750  21.061  33.754  11.639
81326W        W53751  39.614  31.643   4.056
81327W        W53752  33.476  18.729  12.924
81328W        W53753  37.934  36.512  14.460
81329W        W53754  11.207  15.340   0.396
81330W        W53755  24.482  19.807  11.138
81331W        W53756  38.983  37.915   3.332
81332W        W53757   3.326  29.022   2.519
81333W        W53758  30.210  34.612   3.160
81334W        W53759  26.890  33.960  11.888
81335W        W53760   5.724   5.435  10.393
81336W        W53761  28.563  37.829  11.506
81337W        W53762  41.498  10.684   1.152
81338W        W53763  13.682  24.144  14.887
81339W        W53764  40.458  12.471   2.757
81340W        W53765  19.054  21.585   3.590
81341W        W53766  21.313  40.188  12.968
81342W        W53767   7.382  42.943   0.250
81343W        W53768  27.258  13.519   4.164
81344W        W53769   1.449  35.344   4.204
81345W        W53770  34.365  17.794  12.904
81346W        W53771  26.131   4.476   4.239
81347W        W53772  36.991  12.795  13.457
81348W        W53773  28.417   1.353  11.176
81349W        W53774  27.270   0.743   0.009
81350W        W53775  35.945  37.940  11.698
81351W        W53776  29.667  27.893   5.179
81352W        W53777  27.355   7.973  10.797
81353W        W53778   9.844  21.327  10.678
81354W        W53779  43.124  27.106   0.386
81355W        W53780   9.185   8.976   2.841
81356W        W53781   5.301  12.245   1.214
81357W        W53782  32.368  37.828  11.044
81358W        W53783   1.728  31.905   1.331
81359W        W53784   0.385  35.344  13.385
81360W        W53785  34.795  10.531  11.939
81361W        W53786  35.459  31.790   0.411
81362W        W53787  24.610  19.491  12.892
81363W        W53788  32.983   0.888  13.792
81364W        W53789  11.060  33.453  14.830
81365W        W53790  32.475  39.256  14.837
81366W        W53791  19.092   8.417  14.119
81367W        W53792   4.190   0.802  13.315
81368W        W53793  23.521  12.473   0.420
81369W        W53794  38.749   0.488   3.798
81370W        W53795  12.260  37.529   4.450
81371W        W53796  26.943  17.747   0.692
81372W        W53797   2.865  19.365  11.222
81373W        W53798  12.651  38.165   3.637
81374W        W53799  34.143  29.336   0.675
81375W        W53800  23.587  29.431   2.847
81376W        W53801  30.052   4.492   0.407
81377W        W53802  12.453  12.277  14.315
81378W        W53803   0.945  36.113   1.235
81379W        W53804  30.636   6.025   3.579
81380W        W53805  38.418  39.609   0.504
81381W        W53806   8.803  44.971   0.703
81382W        W53807  11.926  40.928   2.002
81383W        W53808   4.486  38.874  10.456
81384W        W53809  40.282  41.702   2.699
81385W        W53810  20.668  38.852   0.811
81386W        W53811  31.218  23.531   4.662
81387W        W53812  40.537  40.884   4.301
81388W        W53813   4.945  23.108   2.698
81389W        W53814   4.281  17.901  12.104
81390W        W53815  38.625  10.194  11.001
81391W        W53816  25.049  41.897  11.594
81392W        W53817   3.558  38.884  14.493
81393W        W53818  39.686  33.908  10.952
81394W        W53819  37.907  24.192   0.928
81395W        W53820  30.707  11.745  10.636
81396W        W53821  21.556  10.981   3.741
81397W        W53822  38.014   1.671   1.194
81398W        W53823  28.987   0.857   1.830
81399W        W53824  35.066  20.181  12.072
81400W        W53825  15.376   4.664   3.626
81401W        W53826   5.507  12.202  13.779
81402W        W53827  23.335  32.884  12.873
81403W        W53828   1.424  30.963  13.971
81404W        W53829  42.371   6.723   4.522
81405W        W53830   4.806   6.999   5.015
81406W        W53831  21.189  35.976   2.956
81407W        W53832  12.124  15.912  12.400
81408W        W53833  25.135  11.976  12.183
81409W        W53834  38.958  42.457  14.088
81410W        W53835  43.237   2.841  13.964
81411W        W53836  20.933  44.851   0.865
81412W        W53837  30.439  15.731   2.476
81413W        W53838  22.718  37.635   3.436
81414W        W53839  37.024   0.422  10.622
81415W        W53840  31.659  19.129   2.900
81416W        W53841  41.277  13.224   3.993
81417W        W53842  14.194  14.257  11.352
81418W        W53843  19.308  24.976  14.452
81419W        W53844   5.173   6.076  10.519
81420W        W53845  44.952   4.615  14.560
81421W        W53846  20.747  27.624  12.064
81422W        W53847  24.968  36.465  13.518
81423W        W53848   4.689  13.667   0.419
81424W        W53849  42.779  17.042  12.564
81425W        W53850  44.910  15.796   0.071
81426W        W53851  23.179   2.580   2.275
81427W        W53852  26.306  11.626  13.514
81428W        W53853  22.684  36.915   2.184
81429W        W53854  23.968  33.132  13.819
81430W        W53855  39.482   0.949  14.862
81431W        W53856  33.891  23.136   1.308
81432W        W53857  23.889  20.049   2.650
81433W        W53858  27.548  12.044  12.029
81434W        W53859  16.706  24.192   1.203
81435W        W53860  27.212  15.020  14.282
81436W        W53861  10.428   9.891  11.677
81437W        W53862  14.297   5.633  10.910
81438W        W53863   8.529  35.940  12.236
81439W        W53864   9.637  38.572   3.657
81440W        W53865  13.904  35.850   4.968
81441W        W53866  24.166  27.635   2.789
81442W        W53867   9.678  43.118   3.184
81443W        W53868  37.144   6.451   0.753
81444W        W53869   9.251   0.004   1.461
81445W        W53870  26.491  12.602   3.676
81446W        W53871  33.961  17.123  13.081
81447W        W53872   4.084  34.806  14.482
81448W        W53873  30.680   9.290   4.277
81449W        W53874  28.124   1.449  13.532
81450W        W53875   6.703  30.991  12.749
81451W        W53876   5.531  37.918  10.749
81452W        W53877  38.512  21.072  11.072
81453W        W53878   6.594  24.219   2.415
81454W        W53879   9.623   4.398  11.952
81455W        W53880  44.281  38.069   2.462
81456W        W53881  39.089  11.649  12.883
81457W        W53882   3.826   6.992  11.480
81458W        W53883  39.301   1.241  12.104
81459W        W53884  14.628   8.397  12.506
81460W        W53885  10.150  18.839  14.903
81461W        W53886  27.174  15.104  10.648
81462W        W53887  41.396  19.241  11.051
81463W        W53888  31.741  38.672  11.023
81464W        W53889   9.822  24.941   2.247
81465W        W53890   8.364  35.703  10.779
81466W        W53891  44.482  18.394   0.840
81467W        W53892  34.660  38.367   4.097
81468W        W53893   4.693  26.945  13.905
81469W        W53894  22.795  11.761   9.650
81470W        W53895  21.261  36.008   4.875
81471W        W53896  34.129  26.520   3.086
81472W        W53897  20.644  38.172  14.309
81473W        W53898  30.044  40.275   3.831
81474W        W53899   5.838  35.504  11.426
81475W        W53900  41.411  28.733   1.355
81476W        W53901  43.269  26.817  10.381
81477W        W53902  30.637  33.117   0.006
81478W        W53903  20.599   6.434  12.807
81479W        W53904   3.537  17.103  11.638
81480W        W53905   4.765   3.574  11.461
81481W        W53906  35.197  19.472   5.196
81482W        W53907   5.676  40.087  13.773
81483W        W53908   0.268   1.295   1.161
81484W        W53909   6.086   2.847   2.642
81485W        W53910  38.059  41.825   1.395
81486W        W53911  19.038  18.220  12.898
81487W        W53912  14.096  38.441  11.429
81488W        W53913   0.183  30.478   4.591
81489W        W53914  17.764  22.691   1.406
81490W        W53915   9.455  18.809  11.879
81491W        W53916  33.436  44.500  12.059
81492W        W53917   5.319  27.751   3.107
81493W        W53918  16.586  14.395  12.397
81494W        W53919  39.777  20.849   4.146
81495W        W53920  33.090   5.440  13.459
81496W        W53921   1.762  36.803  10.900
81497W        W53922   9.716  19.269   2.144
81498W        W53923  33.970  24.687  11.579
81499W        W53924   4.367  29.844   1.246
81500W        W53925  27.181  22.554   2.044
81501W        W53926  35.945  36.089  11.564
81502W        W53927  33.042  28.407   2.843
81503W        W53928  20.687  31.623   4.756
81504W        W53929  38.170   8.569   9.899
81505W        W53930  13.614   4.906  12.329
81506W        W53931  40.286  13.091   3.680
81507W        W53932  11.215  27.199  11.199
81508W        W53933   1.162  32.946  10.181
81509W        W53934  16.506   5.267   0.327
81510W        W53935  27.780   9.780   2.227
81511W        W53936  34.364  39.381   2.359
81512W        W53937  10.588  38.361  11.219
81513W        W53938  24.619  31.471  13.793
81514W        W53939  23.032  44.762  10.422
81515W        W53940   4.469  23.212  12.847
81516W        W53941  31.046  26.244  10.483
81517W        W53942   4.816  40.564   3.495
81518W        W53943  26.604  21.987  10.120
81519W        W53944   8.967  24.727   4.078
81520W        W53945  20.727  13.166   2.400
81521W        W53946  41.851  10.358   3.230
81522W        W53947  27.223  31.436  13.866
81523W        W53948  20.527   9.968  11.343
81524W        W53949  15.216  16.249   2.218
81525W        W53950  21.692  35.849  14.023
81526W        W53951   8.785  42.683   4.504
81527W        W53952  24.557  35.050  14.714
81528W        W53953  37.034   4.328   0.853
81529W        W53954  19.754  12.220   0.789
81530W        W53955   4.185  28.511  13.370
81531W        W53956   4.210   2.253   0.473
81532W        W53957  21.846  19.149  13.797
81533W        W53958  18.599  17.821   0.455
81534W        W53959   1.752  15.583   2.727
81535W        W53960  41.290   2.635  10.994
81536W        W53961  33.463  12.896  10.391
81537W        W53962  34.811  27.945   4.679
81538W        W53963   5.817  19.490   1.082
81539W        W53964  13.667  42.515   2.817
81540W        W53965  24.219  11.556   5.343
81541W        W53966  14.325   4.345   4.752
81542W        W53967  13.288  19.886  13.955
81543W        W53968  24.523  20.479   0.661
81544W        W53969  43.128  29.150   3.287
81545W        W53970  14.024   6.083  10.965
81546W        W53971  19.601   2.346  13.479
81547W        W53972  43.355  14.954  13.060
81548W        W53973  34.117  40.090  14.214
81549W        W53974  13.616   9.359   4.066
81550W        W53975  17.909  44.805  13.494
81551W        W53976  38.545  10.705  12.031
81552W        W53977  15.929  17.551   4.840
81553W        W53978   7.727  31.714  13.360
81554W        W53979  19.053   1.834  14.961
81555W        W53980  21.626  35.924  14.530
81556W        W53981   3.665  38.437  14.805
81557W        W53982  25.846  16.799  11.619
81558W        W53983  29.858   6.828  13.008
81559W        W53984  22.605  32.538  12.579
81560W        W53985   1.474  30.659  11.503
81561W        W53986   6.746   1.738   3.149
81562W        W53987   5.415  10.318   2.677
81563W        W53988  23.714  32.416   9.657
81564W        W53989  44.642  41.092   0.217
81565W        W53990   5.140  38.847  11.903
81566W        W53991  10.289  10.083   5.056
81567W        W53992   5.381  43.365  13.508
81568W        W53993  26.422   4.355   1.865
81569W        W53994  44.166  23.164   2.284
81570W        W53995   1.766   2.472  14.383
81571W        W53996  19.675   2.964   2.354
81572W        W53997  23.544  16.467   4.467
81573W        W53998  44.138  18.025   2.253
81574W        W53999  36.315  43.276  11.120
81575W        W54000  15.454   0.845   5.087
81576W        W54001  11.747  18.057  13.838
81577W        W54002   8.218   4.005   4.252
81578W        W54003  28.132  27.962  12.028
81579W        W54004  42.051  19.072  12.297
81580W        W54005   9.643  33.397  12.572
81581W        W54006  27.436  26.674   4.047
81582W        W54007  21.438  18.444   0.230
81583W        W54008  22.236  26.729   1.380
81584W        W54009  20.391  20.216   2.858
81585W        W54010  14.183  17.000   4.593
81586W        W54011   6.783  18.571  12.206
81587W        W54012  13.750  33.110   0.318
81588W        W54013  42.429   4.326  10.658
81589W        W54014   2.739  10.956  13.779
81590W        W54015  23.032  16.996   2.310
81591W        W54016  34.356  24.961   4.694
81592W        W54017  17.492   5.488   0.394
81593W        W54018   5.759  16.884   0.452
81594W        W54019  41.510  30.863   2.258
81595W        W54020  25.227  31.391   2.162
81596W        W54021  17.917   6.443   0.380
81597W        W54022   3.577  19.303   1.333
81598W        W54023  16.067  30.885   5.002
81599W        W54024  43.568  23.424   3.684
81600W        W54025  19.038  32.087   1.481
81601W        W54026  32.065  27.987  13.355
81602W        W54027  26.057  22.982  11.864
81603W        W54028   6.909   0.965   0.766
81604W        W54029   5.276   3.641   4.438
81605W        W54030  24.418  36.487  12.566
81606W        W54031   9.131  30.673   0.623
81607W        W54032  44.043  10.690   1.008
81608W        W54033  36.779   7.010   2.640
81609W        W54034   4.216  14.601   3.159
81610W        W54035   2.819  16.509  14.691
81611W        W54036  16.998  11.880  12.412
81612W        W54037   4.278  20.541  10.597
81613W        W54038  26.461  20.201  14.724
81614W        W54039  35.848  35.911  12.438
81615W        W54040  14.546  24.119  10.578
81616W        W54041   7.874  27.682   1.528
81617W        W54042  32.465  34.864   2.274
81618W        W54043  38.536  27.261  10.362
81619W        W54044  26.619  16.592  12.681
81620W        W54045   1.958  21.551   1.412
81621W        W54046   7.328  23.203   1.644
81622W        W54047  41.330   6.631   0.389
81623W        W54048  17.207   4.687   1.355
81624W        W54049  31.962  13.722  11.555
81625W        W54050   2.028  17.543   1.554
81626W        W54051  32.268  29.419  13.533
81627W        W54052  36.619   5.897   1.413
81628W        W54053  21.215  35.099   2.690
81629W        W54054  29.608   3.342   2.281
81630W        W54055  34.388  10.146  11.504
81631W        W54056  24.151  42.391   0.140
81632W        W54057  24.812  25.881  14.413
81633W        W54058  28.102   9.299  10.629
81634W        W54059   2.060  25.243  14.391
81635W        W54060  28.372  17.058  11.485
81636W        W54061  30.282  11.832  11.913
81637W        W54062  33.887  27.011  13.898
81638W        W54063  14.386  36.812   3.652
81639W        W54064  30.984  26.446   1.003
81640W        W54065  23.117  21.474  13.399
81641W        W54066   1.458  16.973  12.021
81642W        W54067   6.330   4.719  11.367
81643W        W54068  20.588  42.976   0.923
81644W        W54069  30.133  18.247   4.862
81645W        W54070  10.638   9.812   0.831
81646W        W54071  18.156  25.577  11.518
81647W        W54072  12.719  22.662  14.876
81648W        W54073   9.828  10.942   3.813
81649W        W54074  19.431  14.344   1.460
81650W        W54075  10.823  20.637  10.558
81651W        W54076  43.801   2.974   4.781
81652W        W54077   8.309  15.051   2.854
81653W        W54078  21.227  41.659   4.915
81654W        W54079   1.297  31.045   4.978
81655W        W54080   7.709  28.592   1.877
81656W        W54081  34.881   6.515  11.583
81657W        W54082  24.004  25.168   3.685
81658W        W54083  15.004  25.114   3.598
81659W        W54084  29.099  15.605   3.728
81660W        W54085  31.073  33.629   2.002
81661W        W54086  21.732  28.922   3.210
81662W        W54087  10.597  24.754  14.057
81663W        W54088  36.512  41.130  11.885
81664W        W54089  41.306  24.484  14.379
81665W        W54090  43.261   1.673   2.867
81666W        W54091  25.040  36.408  10.729
81667W        W54092  41.223  38.523  13.784
81668W        W54093  39.847  33.040  11.452
81669W        W54094  12.633  43.699   2.916
81670W        W54095  41.389  34.053  13.151
81671W        W54096  12.933  33.529  10.996
81672W        W54097  38.303  26.105  10.707
81673W        W54098  28.549  26.877   3.272
81674W        W54099   6.395   6.147  14.448
81675W        W54100  15.528   2.796  10.453
81676W        W54101  19.250  39.580   3.936
81677W        W54102  40.906  11.732   4.802
81678W        W54103  24.115  24.140  12.948
81679W        W54104  15.821   6.838   3.672
81680W        W54105  19.758   0.702  14.483
81681W        W54106  32.222  16.828   0.019
81682W        W54107  41.582   2.130   0.274
81683W        W54108  37.094   3.601  10.484
81684W        W54109  16.333  25.660  13.954
81685W        W54110  10.814  15.385  14.851
81686W        W54111  44.534  38.913  13.361
81687W        W54112  23.263  38.798  14.751
81688W        W54113  11.611  25.118  10.946
81689W        W54114  37.959  26.570   0.456
81690W        W54115  24.043  25.810   4.634
81691W        W54116  15.213  24.007   2.191
81692W        W54117  30.214  22.123   3.257
81693W        W54118  21.777   2.014  11.259
81694W        W54119  14.835   6.725  14.286
81695W        W54120  43.414  33.136  13.539
81696W        W54121  31.026   6.880  12.626
81697W        W54122   6.321   6.491   0.018
81698W        W54123   0.283  23.521  11.528
81699W        W54124   5.215   2.775   3.457
81700W        W54125   8.697   0.976  13.933
81701W        W54126  41.534   7.720  13.887
81702W        W54127   0.480  29.925  11.082
81703W        W54128  34.402  37.152   0.470
81704W        W54129   4.494  23.649  10.648
81705W        W54130  27.463  16.224  11.197
81706W        W54131  33.630  29.966   3.206
81707W        W54132   8.309  44.552   1.378
81708W        W54133  28.320   4.904  11.966
81709W        W54134  43.822  28.394   1.904
81710W        W54135  31.887  29.422   3.370
81711W        W54136  20.740  20.063  13.482
81712W        W54137  43.936   8.173  12.810
81713W        W54138  18.169  10.137   4.282
81714W        W54139  35.083   3.207   4.349
81715W        W54140  43.775  30.637   4.640
81716W        W54141  29.687   5.918  13.995
81717W        W54142   6.260  40.118  13.583
81718W        W54143  38.562  24.620   0.473
81719W        W54144  24.623  24.402   3.897
81720W        W54145  29.696  33.665  12.155
81721W        W54146  31.572  24.891  13.870
81722W        W54147   8.245   4.680  13.372
81723W        W54148  17.314  12.342  12.500
81724W        W54149  28.923  34.486  14.731
81725W        W54150  11.696   9.398   3.633
81726W        W54151   3.339  39.238   3.852
81727W        W54152   2.255  32.942   4.903
81728W        W54153  11.557  42.805  14.489
81729W        W54154  27.420  23.597  14.771
81730W        W54155  30.217  26.959   1.438
81731W        W54156   0.037  42.507  12.379
81732W        W54157  30.656  36.099  10.696
81733W        W54158  31.025  28.986  10.938
81734W        W54159  36.980  20.591   3.131
81735W        W54160  28.855  13.263  12.292
81736W        W54161  17.043  32.529  11.927
81737W        W54162  12.814   0.316  13.863
81738W        W54163  30.733  40.904   2.874
81739W        W54164  11.834  26.966   3.294
81740W        W54165   0.413  24.595   0.957
81741W        W54166   5.656  36.919   3.739
81742W        W54167  11.418  44.896   3.853
81743W        W54168  39.017  19.495  14.766
81744W        W54169  40.441  42.471  14.767
81745W        W54170  35.572  23.091   0.556
81746W        W54171  42.735  41.120  10.587
81747W        W54172   4.889  21.136  12.945
81748W        W54173  21.895  13.710   3.230
81749W        W54174  35.443  18.831   0.253
81750W        W54175  11.077  39.169   0.652
81751W        W54176  40.391  16.035  13.491
81752W        W54177  15.945   7.227   1.731
81753W        W54178  16.420   7.679   2.363
81754W        W54179  39.364   5.228   1.400
81755W        W54180   1.433  32.627   2.134
81756W        W54181  10.175  44.418  13.875
81757W        W54182  20.624  17.354   2.893
81758W        W54183   7.687  42.970  12.009
81759W        W54184   2.394   8.388   0.771
81760W        W54185  31.904  26.168   2.672
81761W        W54186  39.311  29.103   2.794
81762W        W54187   2.698  23.154   3.293
81763W        W54188  40.833  12.155  12.759
81764W        W54189  34.356   9.617   1.456
81765W        W54190   5.707   5.429   1.774
81766W        W54191  34.958   6.619   4.524
81767W        W54192  10.179  42.995   2.319
81768W        W54193   4.272  30.188   0.204
81769W        W54194  41.921   3.243  12.961
81770W        W54195   5.239  18.993  12.102
81771W        W54196  27.248  22.739  10.576
81772W        W54197  30.145  37.440  13.962
81773W        W54198  38.086  37.788   3.205
81774W        W54199  25.233   1.326   4.130
81775W        W54200   8.603   0.413  13.421
81776W        W54201  31.272  14.660  13.341
81777W        W54202  36.466  44.270   0.344
81778W        W54203  40.758   8.896   2.687
81779W        W54204  34.323   8.217   0.724
81780W        W54205   9.835  34.649  11.371
81781W        W54206  39.008  30.909   2.829
81782W        W54207   4.931  43.389   1.791
81783W        W54208  33.829  22.472   3.225
81784W        W54209   2.145  25.976  11.184
81785W        W54210  18.852   2.982   0.403
81786W        W54211  33.786   7.011   0.415
81787W        W54212  38.054  31.137  12.526
81788W        W54213   2.916   9.350  12.930
81789W        W54214  18.030  39.811   1.346
81790W        W54215   8.373   4.296  11.463
81791W        W54216  23.518  26.992   2.869
81792W        W54217  38.482   5.139  14.391
81793W        W54218  36.061  28.868   1.056
81794W        W54219  21.812  36.924  13.089
81795W        W54220  44.398   6.858  12.943
81796W        W54221  14.803  21.469  11.632
81797W        W54222  40.081  38.249  14.744
81798W        W54223  25.913   4.724   5.005
81799W        W54224  30.154  38.785  10.307
81800W        W54225   1.936  32.608  13.799
81801W        W54226  14.791   8.944  11.137
81802W        W54227  22.971  43.398  11.751
81803W        W54228  37.329  26.795   2.626
81804W        W54229  27.755  21.210   4.115
81805W        W54230   0.894  38.795   0.832
81806W        W54231   1.874   8.147  13.511
81807W        W54232  30.070  41.243  10.552
81808W        W54233  21.757  40.541   1.531
81809W        W54234  13.797  29.532   1.294
81810W        W54235  16.330  23.479  14.623
81811W        W54236   0.968  15.591   0.923
81812W        W54237  37.129  26.530  14.321
81813W        W54238   2.985  30.189   3.623
81814W        W54239  34.373  21.686   2.359
81815W        W54240   8.415  14.664  10.582
81816W        W54241  34.425  22.625  13.754
81817W        W54242  24.532  10.401   4.355
81818W        W54243   7.694  37.893  12.988
81819W        W54244  28.433  23.833  12.397
81820W        W54245  29.474  13.043  11.141
81821W        W54246  12.254   0.906  11.888
81822W        W54247  38.810  20.707  11.272
81823W        W54248  44.325   7.185   1.265
81824W        W54249  29.198  22.432  13.066
81825W        W54250   6.540  31.771   4.898
81826W        W54251  11.317  18.259   4.603
81827W        W54252   4.582  33.678  13.351
81828W        W54253  19.013  21.706  13.068
81829W        W54254  38.796  12.752  14.812
81830W        W54255  32.096   8.892   9.984
81831W        W54256   0.837  13.737   4.254
81832W        W54257  40.788   5.061  11.895
81833W        W54258   4.707   0.693   4.926
81834W        W54259  23.942  27.210   3.021
81835W        W54260  20.846   0.470  12.226
81836W        W54261  34.080  25.653  11.608
81837W        W54262   9.896  31.514  13.195
81838W        W54263  43.844   5.945  13.291
81839W        W54264  31.512  14.129  14.401
81840W        W54265   8.624  18.109   2.325
81841W        W54266  13.392  35.589   4.156
81842W        W54267  37.744  19.934  13.390
81843W        W54268  29.210   9.384  14.229
81844W        W54269  21.234  41.373  14.564
81845W        W54270  29.650   4.842   1.496
81846W        W54271  42.871  26.558   4.136
81847W        W54272  27.632  28.079   3.736
81848W        W54273  30.572  13.284  14.968
81849W        W54274  35.384  35.298  14.094
81850W        W54275  39.564  12.685   0.277
81851W        W54276  31.162  14.293  14.049
81852W        W54277   6.868  40.707   1.080
81853W        W54278   2.843  37.118   1.892
81854W        W54279   5.490  30.602   2.318
81855W        W54280  15.308   2.000   9.716
81856W        W54281  15.855  26.920   4.071
81857W        W54282  12.614  32.528  13.477
81858W        W54283  16.924  34.597  10.190
81859W        W54284  34.914  14.165  10.863
81860W        W54285  38.944  37.266   4.596
81861W        W54286  11.675   4.267   2.341
81862W        W54287   7.955  44.274   0.737
81863W        W54288  37.509   1.908  13.540
81864W        W54289  21.695  12.752  12.039
81865W        W54290   0.614   1.761   2.987
81866W        W54291  15.831  10.206  12.708
81867W        W54292  24.469   0.360  10.522
81868W        W54293   7.653  34.918   3.967
81869W        W54294  32.471  28.991   2.678
81870W        W54295   1.724   7.208   3.376
81871W        W54296   0.474   6.878  11.197
81872W        W54297  27.970  41.618   0.392
81873W        W54298  23.222  30.932  13.562
81874W        W54299  16.391  24.563  13.110
81875W        W54300  36.900  42.994  12.100
81876W        W54301  44.826  23.668  13.860
81877W        W54302  10.148   7.175   4.528
81878W        W54303  11.658  20.821  14.902
81879W        W54304  24.179  20.981  14.379
81880W        W54305  12.211  25.005   0.697
81881W        W54306  26.591  27.535   2.630
81882W        W54307  32.344  22.577   3.184
81883W        W54308  42.054  24.187  13.038
81884W        W54309  39.031   2.905   3.978
81885W        W54310  19.616  38.772   0.743
81886W        W54311   6.759   2.509   2.742
81887W        W54312  27.621  15.256   4.161
81888W        W54313   4.232   7.093  11.777
81889W        W54314  32.341  42.724   0.215
81890W        W54315  44.866   2.906   1.797
81891W        W54316  41.014  18.494   1.708
81892W        W54317   6.590  20.601  14.368
81893W        W54318   8.657  23.659   2.167
81894W        W54319   0.918  10.279  10.634
81895W        W54320  40.093  39.626  12.960
81896W        W54321  20.512  30.383  12.069
81897W        W54322  14.921  14.233   4.283
81898W        W54323  12.318  35.138   3.630
81899W        W54324   5.538  24.984   4.204
81900W        W54325  35.223   8.408   5.537
81901W        W54326  19.622  33.515  10.541
81902W        W54327  11.318  30.014  10.691
81903W        W54328  40.328  38.481   4.160
81904W        W54329  41.021   8.672  14.903
81905W        W54330  14.245  26.921   2.319
81906W        W54331  29.020  37.931  12.275
81907W        W54332  36.528  34.043  13.394
81908W        W54333   7.926  40.249  13.087
81909W        W54334  19.700  10.973  11.136
81910W        W54335  33.585   1.857  11.955
81911W        W54336  39.897  20.574  13.880
81912W        W54337  41.195  14.463   4.859
81913W        W54338  43.468  35.086   4.536
81914W        W54339   1.345  28.376   2.837
81915W        W54340  10.624  26.456  12.076
81916W        W54341  14.399  41.090   3.887
81917W        W54342  10.395  11.182  10.040
81918W        W54343  35.199  11.604   1.759
81919W        W54344  26.858   6.801   0.938
81920W        W54345  22.017  36.634  11.554
81921W        W54346  10.190  19.014  12.543
81922W        W54347  21.016  15.966  13.286
81923W        W54348  24.493  42.702   0.396
81924W        W54349  43.036  44.981   0.665
81925W        W54350  43.893  44.413  10.936
81926W        W54351  22.596  39.412   3.020
81927W        W54352  38.894   6.225   0.969
81928W        W54353   8.883  25.680   2.586
81929W        W54354  30.470  24.969   2.364
81930W        W54355  42.555  10.617  11.172
81931W        W54356  44.503  17.676   2.117
81932W        W54357  14.348  38.598  11.015
81933W        W54358  22.720  28.602  13.140
81934W        W54359  24.553   2.507   4.741
81935W        W54360   5.386  33.615  12.515
81936W        W54361   7.172  11.223   3.004
81937W        W54362  25.418   4.417  12.366
81938W        W54363  28.585  26.178  12.071
81939W        W54364  17.206  39.114   0.449
81940W        W54365  42.566  39.926   1.861
81941W        W54366  27.362  29.630  14.408
81942W        W54367  42.706  40.215  12.057
81943W        W54368  35.028  18.644  12.969
81944W        W54369  38.786   9.824   0.281
81945W        W54370  18.831  24.659   4.588
81946W        W54371   4.517  41.985   3.681
81947W        W54372  27.851   9.879   1.379
81948W        W54373  29.199  32.018   2.780
81949W        W54374  28.345  15.066   2.106
81950W        W54375   4.905  15.358   4.710
81951W        W54376  43.343  25.081  13.030
81952W        W54377  11.789  34.044  11.011
81953W        W54378  30.646   1.377  13.894
81954W        W54379  36.507  44.649   0.735
81955W        W54380  43.852   8.743  14.342
81956W        W54381  18.492  33.655   0.845
81957W        W54382  14.343  21.604  11.887
81958W        W54383  42.551   6.208  10.649
81959W        W54384   7.742   6.788  14.096
81960W        W54385  13.088   5.472   3.286
81961W        W54386  26.034  30.572   3.756
81962W        W54387  27.159  17.103   1.893
81963W        W54388  24.072  22.457  11.083
81964W        W54389  17.165  15.774  10.031
81965W        W54390  25.745  44.737   4.648
81966W        W54391  26.933  25.016   0.741
81967W        W54392  28.621  15.347   1.756
81968W        W54393  41.109  32.968   1.476
81969W        W54394  39.918   0.272   1.887
81970W        W54395  29.187   1.172  10.908
81971W        W54396  24.184  18.907  12.092
81972W        W54397  17.630   5.737  11.947
81973W        W54398  42.657  27.712   4.125
81974W        W54399  24.076  15.614  11.565
81975W        W54400  44.952  24.024   3.180
81976W        W54401  15.329  11.076   3.168
81977W        W54402  33.075  18.923  11.533
81978W        W54403  38.563  19.162  11.467
81979W        W54404  19.964  18.667  11.147
81980W        W54405  30.537  26.993  11.898
81981W        W54406  16.371  24.141  11.662
81982W        W54407  30.780   7.684  12.322
81983W        W54408  36.104  28.236   0.233
81984W        W54409   5.644  11.638   2.673
81985W        W54410  28.088  21.578   4.004
81986W        W54411   3.380  27.395  13.487
81987W        W54412   4.228  39.559   0.491
81988W        W54413  28.666   0.303  13.926
81989W        W54414  22.257  34.814  14.471
81990W        W54415  16.313  40.833  13.151
81991W        W54416  10.928  26.918   2.961
81992W        W54417   2.496  43.238  11.725
81993W        W54418  29.178  14.679  12.140
81994W        W54419  42.659   6.450   4.142
81995W        W54420  36.416  10.132   2.212
81996W        W54421  16.882  34.664   1.855
81997W        W54422  14.931   4.201   5.351
81998W        W54423  27.251  30.639  12.933
81999W        W54424   9.645   7.088  12.938
82000W        W54425  12.635  22.144   2.197
82001W        W54426  12.166  26.226   4.194
82002W        W54427  33.019   6.690   3.743
82003W        W54428  41.970  30.582  13.426
82004W        W54429  18.207  33.203   0.907
82005W        W54430  27.398  15.801   4.510
82006W        W54431   6.827   5.492  12.354
82007W        W54432  28.618   5.182   2.760
82008W        W54433  39.060   1.868   5.066
82009W        W54434  21.737   1.512  14.407
82010W        W54435   1.802  24.981   4.112
82011W        W54436  32.109   4.547  14.468
82012W        W54437   0.861  23.982  13.408
82013W        W54438   0.859  14.210   2.420
82014W        W54439  41.955  26.167  12.604
82015W        W54440   8.146  29.596  13.026
82016W        W54441  31.038  42.266  13.048
82017W        W54442  38.998  29.982  14.170
82018W        W54443  39.985  31.084   2.762
82019W        W54444   0.914  39.621  14.803
82020W        W54445  19.125  23.874   2.326
82021W        W54446  35.901  24.601  10.845
82022W        W54447  19.760   7.442  12.008
82023W        W54448  24.933  29.459   5.141
82024W        W54449  26.412  16.748  10.134
82025W        W54450  13.259   7.904   2.345
82026W        W54451  42.437  19.047   0.520
82027W        W54452  20.047   4.905   3.367
82028W        W54453  11.074  22.293   3.173
82029W        W54454  31.723  42.570  10.956
82030W        W54455  13.619  17.970  13.859
82031W        W54456  11.385  32.503  14.848
82032W        W54457  28.951   7.492   3.755
82033W        W54458  35.625  34.470  11.610
82034W        W54459  22.357   8.829   3.800
82035W        W54460  44.229   8.926  13.348
82036W        W54461  20.632   2.698  11.267
82037W        W54462   8.880  36.952  13.033
82038W        W54463  33.638  12.324  12.587
82039W        W54464   8.917   5.732   2.865
82040W        W54465  41.902  40.697  13.520
82041W        W54466  19.166  33.233   1.015
82042W        W54467   1.194  31.470  10.395
82043W        W54468   0.715  33.522   4.123
82044W        W54469   4.914  16.591  10.541
82045W        W54470  32.454   7.772   0.871
82046W        W54471  26.589   3.895   4.383
82047W        W54472  25.717   3.448   1.268
82048W        W54473  30.415  33.288  12.553
82049W        W54474  23.901  29.797   3.673
82050W        W54475   4.106  10.868   4.554
82051W        W54476  24.650  21.764  13.566
82052W        W54477   8.381  40.794  11.964
82053W        W54478  23.187  36.339  14.059
82054W        W54479  15.538  18.293  12.086
82055W        W54480   3.855  39.847   3.713
82056W        W54481  13.762   8.450   0.012
82057W        W54482  35.990  28.985  14.080
82058W        W54483  20.558   6.246   1.725
82059W        W54484  43.616  26.531   1.862
82060W        W54485  27.086  37.346   0.185
82061W        W54486   4.807  38.746  11.521
82062W        W54487   8.283  34.606   0.064
82063W        W54488  42.359  29.330  12.335
82064W        W54489  24.568   7.707  14.797
82065W        W54490  43.523   8.272  11.935
82066W        W54491   0.718  31.008  13.801
82067W        W54492   5.125  44.370   4.290
82068W        W54493   7.396  36.874  11.174
82069W        W54494   5.624  27.930  14.521
82070W        W54495  17.407  11.799  12.008
82071W        W54496  44.455  26.029  14.313
82072W        W54497  13.184  10.656   0.811
82073W        W54498  39.773   3.898  12.536
82074W        W54499  32.838   2.115   1.671
82075W        W54500  14.689  12.175  14.761
82076W        W54501  24.195  35.442   1.408
82077W        W54502  13.357  36.297  12.323
82078W        W54503  10.812   7.976   1.681
82079W        W54504  15.924  36.375  13.436
82080W        W54505  40.407   3.141   2.095
82081W        W54506  42.805  30.103   0.487
82082W        W54507  43.998   7.816   1.485
82083W        W54508  35.093  14.680   1.759
82084W        W54509  42.946  33.033  10.662
82085W        W54510  36.966  25.553   1.547
82086W        W54511  33.150  19.627  10.680
82087W        W54512   3.263  34.060   4.814
82088W        W54513  18.985   2.947  13.790
82089W        W54514  24.988  37.904   0.138
82090W        W54515  28.209  27.242   2.871
82091W        W54516  27.612  23.249   3.169
82092W        W54517  20.367  26.416  12.092
82093W        W54518  26.717   0.751  13.733
82094W        W54519  30.124  20.650   3.456
82095W        W54520  19.965  13.604  11.667
82096W        W54521  19.226  43.837   4.525
82097W        W54522   3.053  32.208   3.082
82098W        W54523   9.359  39.897  13.898
82099W        W54524  34.970   4.495   2.679
82100W        W54525  42.245  43.485   4.206
82101W        W54526   2.307  18.114  10.687
82102W        W54527  40.254  34.768   0.255
82103W        W54528  22.808  19.277  11.998
82104W        W54529  22.889  38.345  10.173
82105W        W54530   8.930   6.912   3.287
82106W        W54531   2.842  24.652  11.556
82107W        W54532  20.510   6.957   3.801
82108W        W54533   0.980  19.362  12.048
82109W        W54534   2.934   0.317   1.798
82110W        W54535  30.387   8.912   4.060
82111W        W54536  33.449  27.812   4.997
82112W        W54537   3.577  12.616  14.051
82113W        W54538   5.889   0.447   2.062
82114W        W54539  17.085   6.723  14.017
82115W        W54540  20.840  29.314   1.029
82116W        W54541  32.155   9.871  11.952
82117W        W54542  33.541   7.193   0.822
82118W        W54543  39.059  14.055  12.840
82119W        W54544  36.274   6.158  10.323
82120W        W54545   8.077  44.102   0.268
82121W        W54546  36.419  14.305  10.684
82122W        W54547  13.091  42.356  10.976
82123W        W54548  40.512  32.067  14.904
82124W        W54549  43.991  32.057   0.293
82125W        W54550  33.677  14.171  13.383
82126W        W54551   1.423  43.307  14.664
82127W        W54552  18.636  26.295  11.528
82128W        W54553  42.380  32.207   4.054
82129W        W54554   8.314   7.727   1.915
82130W        W54555  12.566  31.761  11.598
82131W        W54556  33.976  39.333  11.604
82132W        W54557  10.636  21.327  11.081
82133W        W54558  10.674  24.794   0.007
82134W        W54559  30.415   2.838  12.477
82135W        W54560  25.195   7.501   2.197
82136W        W54561  34.503  18.691  12.981
82137W        W54562   9.677  23.495  10.805
82138W        W54563  13.395  35.626   1.640
82139W        W54564  29.400   0.543   0.007
82140W        W54565  12.628  40.727   4.043
82141W        W54566  39.141  42.697  14.974
82142W        W54567   6.397   9.820   4.172
82143W        W54568  25.165  41.255   0.051
82144W        W54569  21.616  29.700  13.342
82145W        W54570  25.280  37.643  11.156
82146W        W54571  32.698  18.527  14.445
82147W        W54572  27.049  33.829  14.967
82148W        W54573  37.823  19.192  13.941
82149W        W54574  44.031  34.111   3.605
82150W        W54575  34.569  41.816   3.590
82151W        W54576   5.853  14.938   1.642
82152W        W54577  11.814  10.963  11.970
82153W        W54578  29.976  42.974  13.969
82154W        W54579  34.599   0.372  13.548
82155W        W54580  37.724   0.215   0.843
82156W        W54581  35.273  43.955   1.869
82157W        W54582  22.225  44.898   2.647
82158W        W54583  41.181  12.805   3.701
82159W        W54584  20.688   8.161   0.776
82160W        W54585  13.970  37.576   0.362
82161W        W54586  35.131  36.539  12.453
82162W        W54587  40.127   7.789   1.433
82163W        W54588  35.603  40.833  13.813
82164W        W54589  21.989  36.480  12.431
82165W        W54590  20.757   9.115  14.975
82166W        W54591  44.829  31.064  10.367
82167W        W54592  14.712  40.378   3.350
82168W        W54593   8.047  13.494  12.334
82169W        W54594   6.809  39.820  11.537
82170W        W54595  35.141  14.321   0.456
82171W        W54596  32.980   6.696   2.903
82172W        W54597  44.714  30.963   1.176
82173W        W54598  25.679  28.418  12.618
82174W        W54599  23.788  29.675  12.978
82175W        W54600  36.273   9.226  13.912
82176W        W54601  30.670  36.838   2.275
82177W        W54602  25.697  31.635  14.838
82178W        W54603   6.209   6.931   2.810
82179W        W54604  10.798  33.312   4.407
82180W        W54605  31.424   5.656  13.964
82181W        W54606  19.049  16.471   0.802
82182W        W54607   6.936  15.431  12.920
82183W        W54608  27.128  30.679  11.480
82184W        W54609  23.202   7.135  11.090
82185W        W54610   9.414   7.362   4.107
82186W        W54611  32.968   1.801   1.284
82187W        W54612  17.067  37.948   1.182
82188W        W54613  16.364  27.189   4.042
82189W        W54614  44.634   5.540  13.521
82190W        W54615  26.649  34.540   1.220
82191W        W54616  28.968  30.944  14.084
82192W        W54617   6.778  16.862   2.168
82193W        W54618  19.750  42.789  13.275
82194W        W54619  35.765  29.955   4.576
82195W        W54620  43.337  25.462   2.699
82196W        W54621  17.223  34.870   1.347
82197W        W54622   2.667   0.589   4.059
82198W        W54623   7.745   0.781  12.830
82199W        W54624  24.197  15.201  12.506
82200W        W54625  28.278  42.167   2.855
82201W        W54626  34.374  36.190  12.523
82202W        W54627   8.914  41.412   1.396
82203W        W54628  15.351   5.738  10.518
82204W        W54629  14.030   6.374  13.819
82205W        W54630  15.797  34.031   5.093
82206W        W54631   7.782  19.017   0.027
82207W        W54632  18.359  14.274   0.544
82208W        W54633  14.528   5.324   2.323
82209W        W54634  19.110  24.821   2.858
82210W        W54635  35.391  39.117  11.142
82211W        W54636  29.004  40.002   2.369
82212W        W54637  36.314  23.237  11.621
82213W        W54638  36.025  33.637  14.478
82214W        W54639  43.856  18.315  13.494
82215W        W54640  30.906  17.344   3.170
82216W        W54641   8.881  35.960   1.108
82217W        W54642  26.960  19.199   2.067
82218W        W54643  28.136  30.986  11.221
82219W        W54644  16.197  28.065   4.634
82220W        W54645  33.149  19.541  12.851
82221W        W54646  18.655  32.551  14.901
82222W        W54647  36.829  39.534  14.969
82223W        W54648  24.567   3.410   2.344
82224W        W54649   8.083   1.995  12.575
82225W        W54650  34.605   3.761   2.314
82226W        W54651  20.886  28.504   2.794
82227W        W54652  39.888  19.591  14.322
82228W        W54653  20.694  27.460  14.128
82229W        W54654  23.811  19.441  13.887
82230W        W54655   0.251  19.237  14.308
82231W        W54656  16.635   9.303   0.688
82232W        W54657  25.636  39.718  13.003
82233W        W54658  22.601  31.016   2.174
82234W        W54659   6.748  44.271  12.025
82235W        W54660  27.015  16.882  12.959
82236W        W54661  30.166  18.062  12.244
82237W        W54662  44.902  41.472   3.290
82238W        W54663  24.513  21.220   1.857
82239W        W54664  16.186  40.574  13.572
82240W        W54665  32.940   2.644   2.835
82241W        W54666   5.322  20.802  13.721
82242W        W54667  33.133  33.855   0.988
82243W        W54668  32.555  23.856  10.338
82244W        W54669  39.826   7.632  10.620
82245W        W54670  42.530  36.008  13.885
82246W        W54671  21.448  26.849  13.992
82247W        W54672  30.560  30.417   4.715
82248W        W54673  20.308  10.897   0.243
82249W        W54674   8.497  17.677  14.461
82250W        W54675  16.132  24.127   4.684
82251W        W54676   2.109  11.625   1.364
82252W        W54677   0.049   2.044  12.213
82253W        W54678  40.041   5.518  10.723
82254W        W54679  25.692   2.571  11.624
82255W        W54680   5.540  16.902   4.824
82256W        W54681  34.011  20.624   3.224
82257W        W54682  44.680  11.171  12.358
82258W        W54683  15.954   6.174  10.235
82259W        W54684  29.989  38.045   0.888
82260W        W54685   4.297   7.649   1.945
82261W        W54686  32.913   7.972   2.250
82262W        W54687   0.921  35.674  12.045
82263W        W54688  27.028   5.752   4.767
82264W        W54689  24.547  32.800   3.793
82265W        W54690  41.541  43.277   3.670
82266W        W54691  40.452  37.949   0.928
82267W        W54692  34.528  21.201   4.329
82268W        W54693   7.866   4.945  12.075
82269W        W54694  44.175   7.994   3.664
82270W        W54695  10.830  27.052  13.780
82271W        W54696  40.288  36.472   1.562
82272W        W54697  29.923   5.130  10.723
82273W        W54698  26.762  13.696   2.125
82274W        W54699  34.163  23.306   0.312
82275W        W54700  18.180  37.545   1.905
82276W        W54701  42.433   9.798   3.514
82277W        W54702  39.515  19.050  11.600
82278W        W54703  19.502  40.547   2.415
82279W        W54704  17.204  40.740  13.568
82280W        W54705  26.350  32.179  11.250
82281W        W54706   1.340   1.241   4.207
82282W        W54707  35.310  17.252  12.557
82283W        W54708  21.515  29.028  12.846
82284W        W54709  35.648  42.332   4.724
82285W        W54710  21.289  19.026  10.744
82286W        W54711  35.070   1.845   3.202
82287W        W54712  40.464   0.823   4.455
82288W        W54713   9.786   2.491   2.120
82289W        W54714   3.581  35.953  12.132
82290W        W54715   7.945  20.376   2.421
82291W        W54716   9.042  43.660   3.656
82292W        W54717   9.130  26.490  14.220
82293W        W54718  38.302  21.991   4.147
82294W        W54719  33.291   1.456  11.962
82295W        W54720   5.384  40.414   1.646
82296W        W54721  27.061  28.658   2.230
82297W        W54722  11.431  20.187  14.055
82298W        W54723  24.892  37.437   1.115
82299W        W54724   6.172   2.233   1.948
82300W        W54725  31.889  14.364   4.159
82301W        W54726  22.100  10.873   4.175
82302W        W54727  15.885  35.118  10.996
82303W        W54728  35.318  34.203   1.476
82304W        W54729  38.550  13.035  13.899
82305W        W54730   7.027  21.611   0.062
82306W        W54731  30.222  23.398   1.209
82307W        W54732  44.865   2.564   1.396
82308W        W54733  41.795  44.228  11.056
82309W        W54734  36.448   6.462  13.023
82310W        W54735  19.325  14.537  12.738
82311W        W54736  25.212  19.765   2.769
82312W        W54737  14.709  22.980  10.673
82313W        W54738  17.708  21.779   1.937
82314W        W54739  39.360  30.634   3.259
82315W        W54740  26.168  13.559   0.485
82316W        W54741  40.708   1.016  11.635
82317W        W54742   7.196  22.819  11.697
82318W        W54743   1.008  13.371   0.942
82319W        W54744  23.770  11.101   2.227
82320W        W54745  25.260   6.366  11.112
82321W        W54746  36.871  32.140   4.512
82322W        W54747  32.402  25.423  10.974
82323W        W54748  27.084  38.914   0.446
82324W        W54749  10.364  32.896   2.402
82325W        W54750  24.426  34.849   3.930
82326W        W54751  30.510  14.253  11.812
82327W        W54752   6.177  21.568   1.678
82328W        W54753   2.061  12.633  13.323
82329W        W54754   8.752  17.590   0.943
82330W        W54755  34.252   5.599  13.016
82331W        W54756  29.825  13.308   0.430
82332W        W54757  18.556  17.183  13.204
82333W        W54758  37.097  18.654  12.728
82334W        W54759   1.027  31.740   3.919
82335W        W54760  41.388  35.386   1.782
82336W        W54761  15.617   3.731   9.909
82337W        W54762  27.982  23.159   2.290
82338W        W54763  19.191  23.488   0.959
82339W        W54764  21.043  37.256  14.135
82340W        W54765  36.354   3.467   2.320
82341W        W54766  28.864   7.378  11.105
82342W        W54767  10.715  27.713  10.628
82343W        W54768  19.666  14.759  14.231
82344W        W54769  16.608  32.408   5.518
82345W        W54770  30.811  36.508   2.722
82346W        W54771  22.514  17.184   1.656
82347W        W54772  23.082  26.467   5.059
82348W        W54773  26.677   5.967   0.405
82349W        W54774  12.057  24.108  11.019
82350W        W54775  41.443  32.010   0.404
82351W        W54776   5.977   6.384   3.752
82352W        W54777   6.879  15.241  14.480
82353W        W54778  34.675  30.989   3.706
82354W        W54779  30.146  12.321   1.552
82355W        W54780   0.998   6.420   2.844
82356W        W54781  19.553  29.029  13.931
82357W        W54782   4.731  32.161   5.012
82358W        W54783  35.546  30.121  13.494
82359W        W54784  30.193  26.852  10.761
82360W        W54785   6.203  18.666   4.797
82361W        W54786   6.532  16.941   4.510
82362W        W54787  31.498  16.588  12.530
82363W        W54788  36.867  12.666   3.170
82364W        W54789  38.764  16.217  12.313
82365W        W54790  42.767  25.511  12.430
82366W        W54791  33.445  33.985   2.284
82367W        W54792  35.825   7.318  11.372
82368W        W54793  19.416  14.216   9.954
82369W        W54794  25.891  15.913  14.460
82370W        W54795  37.444  25.153  10.307
82371W        W54796   8.797  38.385   3.159
82372W        W54797  10.745  32.980  14.167
82373W        W54798   4.410  21.039  13.069
82374W        W54799  30.985  32.929   4.135
82375W        W54800  25.652  18.057  12.008
82376W        W54801  34.992  25.836  10.672
82377W        W54802   1.379  41.315   0.285
82378W        W54803  33.435  37.598  11.521
82379W        W54804  39.221  21.784  12.046
82380W        W54805  13.629  24.743  10.067
82381W        W54806  31.367  21.811   5.416
82382W        W54807  13.560  22.478  14.654
82383W        W54808  15.232  24.707  14.668
82384W        W54809  18.607  16.533   2.807
82385W        W54810  30.700   9.651   1.223
82386W        W54811   4.491  12.327   2.287
82387W        W54812  24.731  37.701  12.874
82388W        W54813  16.152  29.471  13.437
82389W        W54814  14.571   3.772   0.402
82390W        W54815   8.664  16.817   3.005
82391W        W54816  41.128  20.104   4.978
82392W        W54817  15.874  28.922  11.638
82393W        W54818  35.522  39.833  14.134
82394W        W54819  37.978   4.558  10.474
82395W        W54820  38.069   5.076   4.449
82396W        W54821  33.944  38.818  11.679
82397W        W54822  18.658  43.122   4.787
82398W        W54823   8.952   9.893   0.503
82399W        W54824  15.877  37.451   1.907
82400W        W54825   3.349  31.104   2.255
82401W        W54826  43.960  43.367   4.593
82402W        W54827   1.853   2.846   1.783
82403W        W54828  21.538  22.267   3.448
82404W        W54829  25.246  20.145  11.530
82405W        W54830   5.690   0.754   3.146
82406W        W54831  32.920   2.991  12.384
82407W        W54832  38.527  34.001   2.967
82408W        W54833  17.637  22.602  10.348
82409W        W54834  33.076  43.333  12.184
82410W        W54835  11.938  22.434   5.010
82411W        W54836  21.848  28.870   1.695
82412W        W54837  32.484  10.831  14.863
82413W        W54838  31.753  15.620  14.981
82414W        W54839  33.997   4.304  13.276
82415W        W54840   1.302  34.561  12.460
82416W        W54841   9.324  37.208   0.803
82417W        W54842  23.603   8.288   3.240
82418W        W54843   5.900   5.635  12.237
82419W        W54844  34.883  25.112  13.819
82420W        W54845  24.470  44.803  13.926
82421W        W54846  34.277   9.260  11.763
82422W        W54847  25.111  21.725   0.825
82423W        W54848  14.880  38.623  13.053
82424W        W54849  40.041   2.825   3.699
82425W        W54850  40.297  39.610  14.347
82426W        W54851  22.698  30.405   4.680
82427W        W54852  26.519  40.234  11.895
82428W        W54853  22.067  29.420  13.301
82429W        W54854  25.552  35.129   2.645
82430W        W54855  34.181  44.519  12.444
82431W        W54856   3.687   0.465   0.707
82432W        W54857  29.772   8.186   3.649
82433W        W54858  42.973  19.620   9.905
82434W        W54859  10.339  27.961  13.287
82435W        W54860   0.019  38.263  14.424
82436W        W54861  21.237  42.192   4.974
82437W        W54862  15.395   6.566   0.386
82438W        W54863   6.149  37.597  11.256
82439W        W54864  30.308  19.065  14.217
82440W        W54865   9.119   4.149   4.534
82441W        W54866  17.528  28.091  10.728
82442W        W54867   3.341  14.367   2.312
82443W        W54868   5.312  33.411   0.635
82444W        W54869  12.629  19.133   3.188
82445W        W54870  18.623   0.499   0.011
82446W        W54871  35.110  19.756   3.297
82447W        W54872  17.372  23.656  12.860
82448W        W54873  32.032  15.700   4.685
82449W        W54874  15.376  30.730  11.690
82450W        W54875   3.672  20.173  11.744
82451W        W54876  33.023   4.833  12.579
82452W        W54877   7.255  23.645  14.133
82453W        W54878   3.746   2.302  10.813
82454W        W54879  17.436  44.691   1.526
82455W        W54880  28.389  20.025   3.010
82456W        W54881  27.520  41.805   0.168
82457W        W54882   9.776  19.299   1.632
82458W        W54883  40.760  30.312   1.865
82459W        W54884   1.517  19.034  14.281
82460W        W54885  12.207   2.342  13.339
82461W        W54886  35.513  21.004   4.768
82462W        W54887  11.315  26.659  14.557
82463W        W54888  32.935  25.011   1.812
82464W        W54889   6.701  28.314  10.424
82465W        W54890  23.488  18.612  13.432
82466W        W54891  33.993  21.206   0.512
82467W        W54892  13.587  31.111   2.690
82468W        W54893  23.690  30.664   4.560
82469W        W54894  41.724  24.910   3.677
82470W        W54895   3.350  28.226   4.269
82471W        W54896  12.700  12.304  13.816
82472W        W54897  29.287  40.360   2.681
82473W        W54898  12.299   2.204   1.406
82474W        W54899  37.284  14.160  13.357
82475W        W54900  12.806  10.672   4.238
82476W        W54901  28.032   9.303   2.281
82477W        W54902  18.590  23.178   1.020
82478W        W54903  32.508  27.465   1.741
82479W        W54904  14.924  39.049  13.349
82480W        W54905  12.940  20.808  11.583
82481W        W54906  16.796  10.743   1.986
82482W        W54907  22.507   5.385   3.255
82483W        W54908  24.522  35.013   4.917
82484W        W54909  10.801  19.616   2.292
82485W        W54910  32.389  30.509  13.420
82486W        W54911  16.288  29.421  10.431
82487W        W54912  15.602  18.190   1.277
82488W        W54913  28.887  18.739   0.050
82489W        W54914   9.319  18.711  13.782
82490W        W54915  35.508  16.484  12.102
82491W        W54916   6.611  36.243   3.656
82492W        W54917  20.786  13.677  13.544
82493W        W54918  25.401  27.266   2.733
82494W        W54919  23.108  16.064   4.482
82495W        W54920  25.112  18.316   2.424
82496W        W54921  22.086   6.184   3.405
82497W        W54922  44.550   9.151   0.428
82498W        W54923  27.665  24.062  13.713
82499W        W54924  44.443  40.007  14.614
82500W        W54925  21.229  43.857  13.258
82501W        W54926  40.513  23.772  10.706
82502W        W54927  27.926  37.679   1.038
82503W        W54928  40.973   6.871  12.302
82504W        W54929  36.859   0.778  13.761
82505W        W54930  40.374  13.905   1.808
82506W        W54931  20.759  44.700   0.316
82507W        W54932  17.283   9.337  13.420
82508W        W54933   4.480  15.152  11.948
82509W        W54934  23.483  22.841  14.945
82510W        W54935   7.477  10.153  13.805
82511W        W54936  13.711  14.775   2.739
82512W        W54937   9.463  43.212   0.215
82513W        W54938   5.523   3.578   0.471
82514W        W54939  11.740  18.051   0.785
82515W        W54940  40.097  36.959   2.762
82516W        W54941  35.832  36.976  13.914
82517W        W54942   7.674  41.804  11.293
82518W        W54943   5.686  39.439  13.097
82519W        W54944  38.938  15.334  12.044
82520W        W54945  12.372  23.992   4.542
82521W        W54946  14.361  34.991   3.852
82522W        W54947   2.901  39.865  12.947
82523W        W54948   6.869  35.427  10.685
82524W        W54949  35.989  26.615  10.288
82525W        W54950  40.269  42.948   2.377
82526W        W54951  36.384  22.467  10.611
82527W        W54952   2.789  22.355   4.595
82528W        W54953  25.654  31.093  13.466
82529W        W54954  30.952  30.462  12.068
82530W        W54955  44.882  25.776  11.425
82531W        W54956   6.897  41.992  14.082
82532W        W54957   3.733  30.515  12.123
82533W        W54958  42.752  44.807   3.889
82534W        W54959  43.068  13.922   3.785
82535W        W54960  12.862  28.472  11.628
82536W        W54961  35.289   8.740   3.708
82537W        W54962  14.766  10.501   2.894
82538W        W54963  17.045  18.218  11.121
82539W        W54964   0.323  31.006  13.460
82540W        W54965  44.762  17.253  11.837
82541W        W54966  32.603   4.779  13.366
82542W        W54967  14.887  33.518  13.367
82543W        W54968  18.513   0.158  10.925
82544W        W54969  20.045  25.576  13.271
82545W        W54970   1.801  19.885  12.535
82546W        W54971  12.888  27.233  13.017
82547W        W54972  35.806   9.375  12.537
82548W        W54973  32.337  18.291   3.232
82549W        W54974  41.683   7.420   0.206
82550W        W54975  28.094   1.170  13.087
82551W        W54976  13.444   0.847   1.778
82552W        W54977  28.717  20.841   0.020
82553W        W54978  21.622  12.492   4.041
82554W        W54979  34.364   5.966   4.301
82555W        W54980  35.499  11.772  13.270
82556W        W54981  18.852  40.575   3.234
82557W        W54982  28.078  26.419   1.041
82558W        W54983  20.189  27.590   0.851
82559W        W54984  11.638  27.900   0.201
82560W        W54985  17.153  16.328   0.865
82561W        W54986  34.427  31.412   4.603
82562W        W54987  28.839  37.521   4.150
82563W        W54988  23.710  30.486   0.409
82564W        W54989   4.906  25.252   2.157
82565W        W54990   3.794   1.707   0.840
82566W        W54991  12.647  26.940  10.999
82567W        W54992   9.328  38.984  14.407
82568W        W54993   4.041  15.308   2.770
82569W        W54994   3.284  18.642   4.523
82570W        W54995  33.468   4.281  11.028
82571W        W54996  36.414  39.083  11.259
82572W        W54997  27.032   2.987   0.715
82573W        W54998  33.124  24.443  14.539
82574W        W54999   7.397  10.429  12.424
82575W        W55000  17.992   8.851  13.196
82576W        W55001  27.855  20.207  14.840
82577W        W55002  42.952   8.165  11.142
82578W        W55003   9.437  14.104  12.410
82579W        W55004  34.155  30.954   3.728
82580W        W55005  35.285  35.315  12.862
82581W        W55006  21.719  11.668   4.311
82582W        W55007  43.183  14.035  13.464
82583W        W55008  41.946   2.416   2.718
82584W        W55009  37.067   8.268   2.407
82585W        W55010  32.105  16.065   2.636
82586W        W55011  30.849  43.806  11.031
82587W        W55012   2.334  33.548   3.219
82588W        W55013  33.569  14.185  11.191
82589W        W55014  23.742  33.024   1.386
82590W        W55015  32.045   5.763   3.974
82591W        W55016  26.148  43.973   1.628
82592W        W55017   7.828  43.721  10.961
82593W        W55018   8.123  18.862   1.857
82594W        W55019  23.632  42.546   0.068
82595W        W55020   6.894   3.573  10.739
82596W        W55021   2.997  21.369   2.644
82597W        W55022  11.214  20.927   2.241
82598W        W55023  11.310  12.184  12.285
82599W        W55024  42.607   3.863   0.927
82600W        W55025  18.064   4.883  14.731
82601W        W55026   4.674  18.837  14.940
82602W        W55027   6.896  13.456   1.791
82603W        W55028  16.252  13.635  11.205
82604W        W55029  18.225  23.167   4.077
82605W        W55030  31.023  28.473   1.709
82606W        W55031   4.825  20.116   3.745
82607W        W55032   6.431   1.851   1.131
82608W        W55033   3.824  33.181  13.858
82609W        W55034   8.274  42.503   4.629
82610W        W55035  27.188  34.921  12.110
82611W        W55036   3.932  40.249  11.272
82612W        W55037  11.639  16.115   1.667
82613W        W55038   3.800  26.113   2.177
82614W        W55039  18.243  37.282  12.807
82615W        W55040  35.091  42.929  13.998
82616W        W55041  17.789   8.709   0.345
82617W        W55042  10.414  42.297  14.007
82618W        W55043  19.751  28.600   1.251
82619W        W55044  13.785  33.172  13.388
82620W        W55045   0.312  34.530   2.207
82621W        W55046  14.091  30.877   2.167
82622W        W55047  23.252  31.995  11.510
82623W        W55048   3.316  31.282  13.978
82624W        W55049   8.445  28.748   4.568
82625W        W55050  39.992   5.216   0.836
82626W        W55051  26.695  20.204   4.574
82627W        W55052   8.474  21.654  12.334
82628W        W55053  24.913  19.239   4.658
82629W        W55054  10.442  13.027   3.212
82630W        W55055   1.907   9.203   1.038
82631W        W55056   1.433   0.239   2.636
82632W        W55057  31.015  27.262   3.252
82633W        W55058  42.325   6.801   2.313
82634W        W55059  40.393  21.890   5.351
82635W        W55060   6.465  13.755   1.643
82636W        W55061   1.310  18.535  10.804
82637W        W55062   7.188  26.722   3.653
82638W        W55063  37.879  29.714  13.551
82639W        W55064  16.330   9.577  14.314
82640W        W55065  31.486   2.940   1.168
82641W        W55066   0.603  35.884  13.465
82642W        W55067   8.773  14.822  12.365
82643W        W55068  24.274  29.684  13.232
82644W        W55069  17.842   8.779   2.208
82645W        W55070  21.174   3.336   0.734
82646W        W55071   6.871  43.097   1.411
82647W        W55072  27.666   1.072   3.245
82648W        W55073   0.873   8.051   3.383
82649W        W55074  14.053  12.092   2.357
82650W        W55075  41.381  44.077   2.312
82651W        W55076  44.404  27.176   0.036
82652W        W55077   6.094  26.978  12.976
82653W        W55078   7.887  20.068  12.637
82654W        W55079  25.736   6.937  12.870
82655W        W55080  32.874   4.603  11.567
82656W        W55081  32.627  13.554   1.424
82657W        W55082  16.234  29.485   3.338
82658W        W55083   0.823  42.859  11.588
82659W        W55084  44.719  29.606  12.515
82660W        W55085  19.119   4.465   4.105
82661W        W55086  12.672  16.599  10.806
82662W        W55087  26.582  37.984   2.097
82663W        W55088  17.054  28.977   3.327
82664W        W55089  28.920  43.946   3.620
82665W        W55090  28.695   1.861   1.885
82666W        W55091  38.831  41.843  12.382
82667W        W55092   5.726  24.448   4.147
82668W        W55093  34.879  38.545  14.394
82669W        W55094  17.518  30.538  11.123
82670W        W55095  12.323  31.911   0.343
82671W        W55096  41.907  41.959  14.067
82672W        W55097  35.918  21.037  12.709
82673W        W55098  32.579  12.211   4.607
82674W        W55099  19.728  38.773  12.149
82675W        W55100  38.979  11.274  13.438
82676W        W55101  26.565   7.449  12.430
82677W        W55102  29.894  17.180   2.305
82678W        W55103  25.718   3.926   2.770
82679W        W55104  13.201   7.195   0.201
82680W        W55105  14.541   2.788   4.208
82681W        W55106  13.673  19.278  12.768
82682W        W55107  15.042   6.242  13.859
82683W        W55108  32.875  30.320   0.572
82684W        W55109  25.753   1.672  10.219
82685W        W55110   3.824  14.928   3.038
82686W        W55111  14.353   4.209  12.950
82687W        W55112  25.132  23.469  14.446
82688W        W55113  11.218  43.774   1.726
82689W        W55114   9.147  36.385   0.468
82690W        W55115  39.748   1.427   2.469
82691W        W55116  38.607   4.893  14.846
82692W        W55117  42.603   7.838   0.048
82693W        W55118  38.417  15.154  11.316
82694W        W55119  42.977  35.395  12.218
82695W        W55120  13.574  24.035  10.455
82696W        W55121  10.289  40.032   3.306
82697W        W55122  31.318  19.590   1.980
82698W        W55123  16.326  32.625   4.985
82699W        W55124  16.373  22.299   4.167
82700W        W55125  30.103  44.807   2.593
82701W        W55126  12.667  12.331   4.105
82702W        W55127  23.909  10.673   1.259
82703W        W55128  25.097  39.907  13.754
82704W        W55129  26.026  18.060  14.854
82705W        W55130   5.485  36.624   1.311
82706W        W55131  21.950   6.432   4.212
82707W        W55132  33.295  14.166  10.204
82708W        W55133  14.990  39.318   1.890
82709W        W55134   9.926  37.483   1.738
82710W        W55135  41.966  35.377   0.981
82711W        W55136  12.357  29.893   1.255
82712W        W55137  23.408  32.940  14.202
82713W        W55138   9.076  22.160  14.671
82714W        W55139  36.506   7.877  13.834
82715W        W55140   5.482   7.438  11.799
82716W        W55141  14.806  25.561   0.107
82717W        W55142  37.547  14.003   3.317
82718W        W55143  43.590  29.035   2.358
82719W        W55144  27.682  36.669  11.482
82720W        W55145  10.142  34.770   1.813
82721W        W55146  14.765  23.216  11.510
82722W        W55147   8.300   8.160  12.350
82723W        W55148  24.537  18.845  13.558
82724W        W55149  18.537  20.904  12.809
82725W        W55150  17.677  36.528  13.956
82726W        W55151  37.575   2.350  13.865
82727W        W55152  37.079  14.758   2.059
82728W        W55153  40.307   2.817  12.468
82729W        W55154  44.829  28.773   1.929
82730W        W55155   3.443  28.488   1.796
82731W        W55156  28.908  20.589  10.612
82732W        W55157   4.227   5.287  12.047
82733W        W55158  17.140   9.970  14.705
82734W        W55159   0.270   8.199   3.659
82735W        W55160  39.735   8.557  13.883
82736W        W55161  18.211   9.168   1.270
82737W        W55162  38.811   4.422  12.583
82738W        W55163  21.782  35.398   4.424
82739W        W55164  35.853  36.576  11.675
82740W        W55165  18.156   9.212  10.739
82741W        W55166  34.596  26.251  11.999
82742W        W55167   4.303  24.658  12.575
82743W        W55168  16.799   1.504  14.324
82744W        W55169   6.592  21.133   5.150
82745W        W55170  29.912  21.710   0.825
82746W        W55171  23.442   9.817   2.716
82747W        W55172  22.727  15.057   3.238
82748W        W55173  22.925   0.078   2.416
82749W        W55174   7.259   4.178  13.505
82750W        W55175  28.157  24.559   3.543
82751W        W55176  21.458  38.058   1.637
82752W        W55177  36.786  33.452  10.311
82753W        W55178  31.525  34.118   3.103
82754W        W55179   4.125  31.520   2.126
82755W        W55180   6.354   8.013  11.754
82756W        W55181  30.112  37.273  14.960
82757W        W55182  34.188  11.838  11.487
82758W        W55183   8.866  19.130   0.883
82759W        W55184  19.316   0.721  11.232
82760W        W55185  32.475  44.726   0.304
82761W        W55186  32.542  41.834  13.083
82762W        W55187  35.026   9.613  11.397
82763W        W55188   3.608  31.557   2.198
82764W        W55189  18.580  44.052   2.862
82765W        W55190   0.060   7.362   0.818
82766W        W55191  10.211  39.502   4.577
82767W        W55192   4.187   5.670  14.298
82768W        W55193  16.138   5.294   0.895
82769W        W55194   6.957  28.487  14.317
82770W        W55195   3.485   4.391   1.548
82771W        W55196  28.556  29.938   0.586
82772W        W55197  18.502  23.721   1.081
82773W        W55198   9.845   7.275   2.898
82774W        W55199  38.906   6.947  14.280
82775W        W55200  17.090  19.783   1.369
82776W        W55201  36.140   6.446   0.828
82777W        W55202  41.088  38.024   0.336
82778W        W55203  34.436  27.863   3.095
82779W        W55204  16.685  44.848  10.846
82780W        W55205  41.823  23.330   0.780
82781W        W55206  26.540  33.473  11.838
82782W        W55207   6.332  43.314   4.164
82783W        W55208   9.031  26.917  12.459
82784W        W55209  30.942  35.332   2.779
82785W        W55210  35.637   4.383  12.118
82786W        W55211  19.005  34.132  14.827
82787W        W55212  13.262  30.522  12.582
82788W        W55213  26.002  19.287   2.877
82789W        W55214  34.770  39.826   0.385
82790W        W55215   0.377  27.982   3.778
82791W        W55216  39.069  16.835   0.063
82792W        W55217  13.398  17.735   4.181
82793W        W55218   4.473  34.879   3.749
82794W        W55219  31.001  44.286   0.408
82795W        W55220  28.138  26.054  10.520
82796W        W55221  10.885   0.555  12.522
82797W        W55222  17.819   4.671  13.807
82798W        W55223  37.864  32.443   2.928
82799W        W55224  35.028  41.284  11.201
82800W        W55225   5.909  25.765   1.406
82801W        W55226  37.641  37.657  14.813
82802W        W55227  14.001  11.389  11.503
82803W        W55228  33.338  29.904  11.220
82804W        W55229  22.869  23.347  14.384
82805W        W55230  41.590  33.064  11.108
82806W        W55231   7.710   0.881   4.580
82807W        W55232   0.577   5.739   2.113
82808W        W55233  42.057  34.940  11.071
82809W        W55234   1.307  43.818   0.849
82810W        W55235   4.752   8.269  12.620
82811W        W55236  26.102  33.614  14.043
82812W        W55237   1.414  41.031  13.798
82813W        W55238  28.236  27.916   5.039
82814W        W55239  37.005  25.232  13.904
82815W        W55240  35.540  37.096   2.203
82816W        W55241  21.332  39.824   2.140
82817W        W55242   5.308  12.065  11.930
82818W        W55243  33.276  25.228   0.430
82819W        W55244   5.769   3.246   2.745
82820W        W55245   1.551  16.220  11.090
82821W        W55246  29.962  30.160   1.479
82822W        W55247  34.920  21.098   1.740
82823W        W55248  18.418   3.995   3.123
82824W        W55249  43.190  35.445   4.275
82825W        W55250  36.019  19.513   2.430
82826W        W55251  23.749   8.822   3.394
82827W        W55252  36.533  11.429  12.349
82828W        W55253   4.462  18.878  12.218
82829W        W55254   0.403  33.184  11.647
82830W        W55255   6.921  36.560   2.718
82831W        W55256  36.780   5.695  10.157
82832W        W55257  17.670   2.464  11.764
82833W        W55258  33.537  10.111   0.912
82834W        W55259   1.274  16.570  12.474
82835W        W55260  32.428  25.225   5.048
82836W        W55261  24.327  43.265  13.912
82837W        W55262   3.511  24.254  11.191
82838W        W55263  43.837  20.323  14.439
82839W        W55264  15.423  24.384   0.119
82840W        W55265   0.244   8.327   2.782
82841W        W55266   2.932  27.532   4.298
82842W        W55267  11.131  19.613  14.868
82843W        W55268  32.917   5.391   2.324
82844W        W55269  39.817  11.397   2.806
82845W        W55270  33.672  33.704   2.664
82846W        W55271  38.087   2.433  12.564
82847W        W55272  29.193  42.250   3.583
82848W        W55273  38.976  21.888  14.754
82849W        W55274  10.280   5.378  12.093
82850W        W55275  37.286  44.157   1.908
82851W        W55276   3.979   9.779   2.863
82852W        W55277  20.586  34.794   0.832
82853W        W55278  18.078   0.502   0.836
82854W        W55279  22.407   9.314   3.117
82855W        W55280  14.102  20.250  11.195
82856W        W55281  27.101  10.162  10.768
82857W        W55282  16.102  14.777   3.826
82858W        W55283   8.357  43.037   3.163
82859W        W55284  41.804  24.516   2.245
82860W        W55285   4.938   6.693   4.598
82861W        W55286  40.361  12.574  12.540
82862W        W55287  43.981  11.091   0.716
82863W        W55288  43.744  35.202   1.682
82864W        W55289  28.990  31.737   4.224
82865W        W55290  14.682   4.352   2.007
82866W        W55291  20.055  40.698   2.851
82867W        W55292   3.279   1.836  14.960
82868W        W55293  23.313  42.995  11.932
82869W        W55294   0.337  33.467   0.964
82870W        W55295  13.200  18.261   3.581
82871W        W55296   5.457   0.779   2.667
82872W        W55297  39.240   5.759  13.092
82873W        W55298  13.675  27.444   1.013
82874W        W55299  37.681  43.674   4.166
82875W        W55300  44.370  19.091   0.014
82876W        W55301  16.276  14.368   3.598
82877W        W55302  36.771  25.554   3.341
82878W        W55303  32.845  40.541   1.233
82879W        W55304  33.644  38.444   1.420
82880W        W55305  14.226  29.645  12.873
82881W        W55306  31.072   6.809   1.356
82882W        W55307  26.319   0.412   2.957
82883W        W55308  15.079  37.087   1.416
82884W        W55309  18.857   4.714  11.912
82885W        W55310  37.898   9.828  14.174
82886W        W55311   3.779  26.470   1.805
82887W        W55312   5.361   4.952  14.173
82888W        W55313  42.914  39.838   0.864
82889W        W55314  32.081  42.053   0.905
82890W        W55315  26.901   8.813   2.452
82891W        W55316   6.240  39.029   3.256
82892W        W55317  25.747  22.816  12.436
82893W        W55318  15.872  41.308  10.163
82894W        W55319  36.165  44.474  11.149
82895W        W55320  20.119  28.479   0.001
82896W        W55321  23.272  28.133   1.032
82897W        W55322  29.688   1.578  12.130
82898W        W55323  27.848  13.054  13.476
82899W        W55324  17.949   5.786   3.632
82900W        W55325  22.124  39.589   1.266
82901W        W55326  19.330   8.700   0.013
82902W        W55327   8.570  28.137   1.626
82903W        W55328   3.513  27.211   0.895
82904W        W55329   0.002  38.300   3.734
82905W        W55330  36.937  27.108   0.413
82906W        W55331  24.094  32.400   0.460
82907W        W55332  39.199  11.735  11.612
82908W        W55333  40.341  30.642   1.838
82909W        W55334  20.618   4.828  13.122
82910W        W55335  33.848  38.311   4.543
82911W        W55336  27.085  16.208   2.088
82912W        W55337  25.633   6.881   1.781
82913W        W55338  34.064   0.016   4.561
82914W        W55339  43.904  37.224  14.090
82915W        W55340  24.314  18.731   0.966
82916W        W55341  19.042  14.538   1.174
82917W        W55342  27.262  42.795   4.055
82918W        W55343  36.298   6.178  13.420
82919W        W55344  43.165  21.006  13.841
82920W        W55345  15.620  44.995   2.863
82921W        W55346  16.014  26.916  12.413
82922W        W55347  28.672   0.052   2.800
82923W        W55348  29.405  27.209   2.317
82924W        W55349  12.893  44.380  13.801
82925W        W55350   5.516  25.425  12.432
82926W        W55351  38.413  15.756  13.015
82927W        W55352  39.299  30.489  10.724
82928W        W55353   0.227  39.190  11.128
82929W        W55354  15.225   7.792  10.652
82930W        W55355  28.135  44.068   4.808
82931W        W55356   9.240  16.144  11.760
82932W        W55357  15.645  35.321  12.879
82933W        W55358  41.612  27.649   1.762
82934W        W55359  14.947  26.156  12.950
82935W        W55360  35.138  34.041   3.229
82936W        W55361  26.058  29.376  13.996
82937W        W55362  39.288  39.341  11.255
82938W        W55363  44.915  18.483  11.681
82939W        W55364  23.000   8.294   0.907
82940W        W55365  30.166  26.435   2.763
82941W        W55366   1.970   5.866  13.489
82942W        W55367   4.277  21.912   0.377
82943W        W55368  19.484  31.745  10.656
82944W        W55369  21.331  26.547  11.469
82945W        W55370  34.573  39.997  11.168
82946W        W55371  43.315  20.096   9.679
82947W        W55372  28.041   7.662  11.908
82948W        W55373  34.389  17.569  10.664
82949W        W55374  23.475   3.251  12.898
82950W        W55375  43.522  42.982  14.256
82951W        W55376  17.721  24.162  11.210
82952W        W55377  21.162  12.737   4.791
82953W        W55378  31.505  11.479  12.158
82954W        W55379   9.752  39.961   3.245
82955W        W55380  24.860  19.599  11.490
82956W        W55381  18.541  29.216   1.802
82957W        W55382   6.007  15.236  12.974
82958W        W55383  27.550  34.736  11.146
82959W        W55384  35.910  13.379   0.397
82960W        W55385   9.243  22.149  13.451
82961W        W55386  30.928  15.681   2.665
82962W        W55387  17.127  32.881  10.956
82963W        W55388  28.749  23.590   1.790
82964W        W55389  34.912   0.969   4.165
82965W        W55390  20.377  22.586  12.651
82966W        W55391   9.542  36.202   3.184
82967W        W55392  43.928   6.117   1.933
82968W        W55393   3.736  15.347  11.133
82969W        W55394   4.671  14.770   3.878
82970W        W55395  38.061  21.475  13.418
82971W        W55396  33.090  32.911  13.747
82972W        W55397   1.901   4.314  11.059
82973W        W55398  29.198  16.545  12.551
82974W        W55399   5.398  38.078  14.544
82975W        W55400  18.373  39.336  12.558
82976W        W55401   4.443  11.439  13.638
82977W        W55402  40.727  26.892  13.420
82978W        W55403  40.810  37.258   3.347
82979W        W55404  23.044  40.163  14.960
82980W        W55405  44.925  11.624  12.362
82981W        W55406  26.619  21.569   0.744
82982W        W55407  28.193   9.708  11.151
82983W        W55408  30.227  17.354  13.594
82984W        W55409   4.520  37.293   1.947
82985W        W55410  17.744   5.813   3.162
82986W        W55411   4.754   8.837   4.622
82987W        W55412  32.309   8.768   4.546
82988W        W55413  26.728  32.751   3.157
82989W        W55414  15.093  39.799  13.201
82990W        W55415  37.278  20.068   0.699
82991W        W55416  15.779  26.088  14.390
82992W        W55417  44.716  33.411   0.213
82993W        W55418  11.725  29.655  12.002
82994W        W55419  42.965   3.463   4.700
82995W        W55420  10.798  14.116  12.533
82996W        W55421  23.532  19.021   1.384
82997W        W55422  32.052  11.399  12.682
82998W        W55423  22.120  40.264  10.974
82999W        W55424  41.876  11.776   2.505
83000W        W55425   2.507  24.979   3.180
83001W        W55426  20.549  34.530  14.594
83002W        W55427  12.182  18.270   0.987
83003W        W55428  22.707  17.630   1.495
83004W        W55429   9.428  19.480  12.533
83005W        W55430  12.375  12.778   4.250
83006W        W55431  32.788   3.995   2.778
83007W        W55432   1.153  27.911  11.459
83008W        W55433  29.459  23.046  11.998
83009W        W55434  19.537   2.540   2.692
83010W        W55435   1.748  41.809   2.373
83011W        W55436  28.669  18.196   4.913
83012W        W55437  36.444  38.413   0.364
83013W        W55438  15.899   5.986  14.867
83014W        W55439  25.247  12.284   0.868
83015W        W55440  12.755  44.041   0.529
83016W        W55441  13.533  29.250   4.040
83017W        W55442   4.810  11.912   2.231
83018W        W55443  17.242  18.165   0.503
83019W        W55444   7.823   9.990   2.726
83020W        W55445  31.970  16.767  14.561
83021W        W55446  16.001  29.060   3.163
83022W        W55447  17.383  29.408   0.244
83023W        W55448  40.095  44.392  13.918
83024W        W55449   0.851   5.201  12.674
83025W        W55450  40.763  41.988  11.083
83026W        W55451  13.092   7.132   0.708
83027W        W55452  44.472  30.412  13.569
83028W        W55453  17.596  25.283  14.972
83029W        W55454  44.152   4.906   3.914
83030W        W55455  37.053  39.799   2.202
83031W        W55456  25.409  30.177  12.444
83032W        W55457   0.396  28.984  10.885
83033W        W55458  31.504   9.369  13.447
83034W        W55459  36.021  20.433   0.228
83035W        W55460  42.418  36.515   3.873
83036W        W55461  12.818  21.781   0.760
83037W        W55462  32.456  40.612  12.536
83038W        W55463  22.162  33.923   2.761
83039W        W55464  41.428  42.843   0.461
83040W        W55465  33.565  44.440  13.086
83041W        W55466   5.276  14.691  10.422
83042W        W55467  23.556  26.972  12.754
83043W        W55468  29.543  10.348  13.037
83044W        W55469  21.009  18.568   2.998
83045W        W55470  22.533  36.591  14.856
83046W        W55471  11.083  17.615  10.546
83047W        W55472  42.483   4.369  13.609
83048W        W55473  29.565  26.212   1.932
83049W        W55474  40.883   3.451  10.966
83050W        W55475  28.381  37.848  10.534
83051W        W55476  32.632   8.772  11.784
83052W        W55477  27.495  41.819  13.282
83053W        W55478  25.702  12.687   3.005
83054W        W55479  14.141   3.970  13.796
83055W        W55480  38.241  13.568  11.709
83056W        W55481  42.534  13.594  11.506
83057W        W55482  17.665  26.568   2.924
83058W        W55483   1.006   8.926   1.246
83059W        W55484  36.044   3.866  11.710
83060W        W55485   1.417   3.464   4.201
83061W        W55486  25.867   4.891   3.649
83062W        W55487  34.638  19.952   3.340
83063W        W55488   1.795  22.557   3.966
83064W        W55489  20.550  33.000  12.055
83065W        W55490  40.845  30.858  11.262
83066W        W55491   2.924  11.855  10.666
83067W        W55492  39.347  36.675   1.882
83068W        W55493  23.500  18.111  11.502
83069W        W55494  44.962  22.056  13.891
83070W        W55495  34.033  28.176  14.892
83071W        W55496  28.437   9.611  11.611
83072W        W55497   4.430  13.126  12.446
83073W        W55498  43.927  43.235  14.047
83074W        W55499   2.681  29.268  14.660
83075W        W55500  23.484   5.612  13.440
83076W        W55501  44.883  41.909  12.079
83077W        W55502   4.808  42.531  13.882
83078W        W55503  30.029   1.769  14.278
83079W        W55504   5.859  18.277   3.268
83080W        W55505   9.373  43.573   3.185
83081W        W55506  26.208  44.011   2.645
83082W        W55507   0.850  43.763   1.610
83083W        W55508  35.892  36.893  10.777
83084W        W55509  37.537  14.067   2.431
83085W        W55510  12.512  15.615  10.562
83086W        W55511   1.906  10.427  10.268
83087W        W55512  38.582   2.944   1.728
83088W        W55513  43.730  19.013  11.529
83089W        W55514  23.499  37.946   3.932
83090W        W55515   1.196  26.194  14.311
83091W        W55516  26.200  31.058  14.312
83092W        W55517   6.409  41.846  13.942
83093W        W55518  33.531  33.370  12.032
83094W        W55519  23.935  17.252  14.797
83095W        W55520  19.241  16.377  12.410
83096W        W55521  17.004  42.488  14.024
83097W        W55522  27.196  11.251   0.489
83098W        W55523  17.651  12.322  12.967
83099W        W55524  40.483  30.106   3.688
83100W        W55525  36.943   7.223   3.086
83101W        W55526  42.481  29.815  12.218
83102W        W55527  27.838   0.704  10.584
83103W        W55528  44.643  37.535  14.741
83104W        W55529  42.066  43.768  12.316
83105W        W55530   0.440  18.663   2.117
83106W        W55531  39.771   9.039   3.651
83107W        W55532  43.066  42.579  10.440
83108W        W55533  38.806  39.964   0.998
83109W        W55534  29.977  13.722   1.889
83110W        W55535   6.874   0.701   3.031
83111W        W55536   5.457  10.098   2.219
83112W        W55537  35.576  37.997  13.890
83113W        W55538  44.153  31.989   4.575
83114W        W55539  40.569  21.998  14.529
83115W        W55540  21.158   3.318   4.162
83116W        W55541   3.999   5.388   2.710
83117W        W55542  38.483   9.818  12.950
83118W        W55543  26.483  42.173   4.956
83119W        W55544  34.530  44.099  13.391
83120W        W55545  29.131  27.618   4.460
83121W        W55546  27.378   4.466   1.715
83122W        W55547  27.459  39.266   1.848
83123W        W55548  36.121  33.945   1.735
83124W        W55549   6.534  42.049   1.987
83125W        W55550   7.014  25.379  13.595
83126W        W55551  18.284   0.412   4.630
83127W        W55552   7.170  17.138   2.787
83128W        W55553  34.488  32.533   0.779
83129W        W55554  12.857  38.810   0.245
83130W        W55555  33.483  14.635  10.387
83131W        W55556  22.300  44.556   1.289
83132W        W55557  18.021  16.732  13.963
83133W        W55558  15.948  33.923   1.855
83134W        W55559   6.913  18.107   4.575
83135W        W55560  31.170  15.658   1.712
83136W        W55561   9.628  39.010  13.987
83137W        W55562  12.684  39.313   0.446
83138W        W55563   0.470  19.608  13.991
83139W        W55564  39.452  27.690  12.766
83140W        W55565  16.755  18.853   0.416
83141W        W55566  42.880  27.931   3.715
83142W        W55567  32.993  33.615  12.953
83143W        W55568  22.946  14.814  12.835
83144W        W55569  19.118  32.053   4.313
83145W        W55570  15.584   3.037  12.926
83146W        W55571   1.811  22.247   0.504
83147W        W55572  20.476   1.986   9.926
83148W        W55573  43.539  33.846   0.838
83149W        W55574  12.177  14.555   1.030
83150W        W55575  38.933  15.334   3.932
83151W        W55576   3.696   4.479   0.284
83152W        W55577  32.526  26.567   2.247
83153W        W55578  30.508  37.066  10.685
83154W        W55579   6.315  13.158   0.909
83155W        W55580  42.937  30.623  14.335
83156W        W55581  37.572  26.515  12.373
83157W        W55582  32.539  40.194  10.391
83158W        W55583  42.740  44.372   4.183
83159W        W55584  25.692  34.942  14.766
83160W        W55585  11.253   9.581  12.645
83161W        W55586  13.774  25.589   0.699
83162W        W55587   5.898   4.362  13.172
83163W        W55588  31.173  41.025   4.240
83164W        W55589  30.538   5.314  12.334
83165W        W55590  22.624  22.759   4.044
83166W        W55591  41.825   2.881   1.255
83167W        W55592  32.983  28.119  13.541
83168W        W55593  34.609  11.276   4.598
83169W        W55594  27.085  19.115  12.436
83170W        W55595  38.310  44.486  14.790
83171W        W55596  31.662  13.316   3.661
83172W        W55597   4.710   4.275  12.434
83173W        W55598  38.815  30.998   4.686
83174W        W55599  34.675  18.151  13.782
83175W        W55600  24.883   3.218   4.367
83176W        W55601  16.567  30.136   4.277
83177W        W55602  25.017  25.424  10.539
83178W        W55603  19.065  10.299   0.989
83179W        W55604  33.961  36.451  12.751
83180W        W55605  27.050   6.390  13.957
83181W        W55606   0.071  16.623   3.623
83182W        W55607   2.671  41.440  11.656
83183W        W55608  38.977  44.341  12.451
83184W        W55609  17.686  16.786  11.492
83185W        W55610   4.606   2.910   3.353
83186W        W55611   7.598  23.230  11.714
83187W        W55612   9.363  13.075  11.546
83188W        W55613  31.937   4.426   0.221
83189W        W55614   8.357   2.157  12.984
83190W        W55615  21.590  20.659  12.402
83191W        W55616  44.004  21.212  10.336
83192W        W55617  30.603   5.301   4.008
83193W        W55618  25.731  28.597   0.425
83194W        W55619  34.903  15.786  12.940
83195W        W55620  30.519  18.709  13.011
83196W        W55621  44.260  39.970  12.600
83197W        W55622  16.357   2.391   0.501
83198W        W55623   3.029  32.137   1.740
83199W        W55624   8.664  21.564   1.943
83200W        W55625   1.723  27.785   0.127
83201W        W55626  35.129  28.603   0.042
83202W        W55627   7.715   8.597   0.253
83203W        W55628   4.305  31.369  14.399
83204W        W55629   6.977  21.061   4.534
83205W        W55630  16.310  35.673  12.162
83206W        W55631   0.252  13.602   4.944
83207W        W55632  14.069  25.131   1.849
83208W        W55633  17.398  36.576  11.948
83209W        W55634   9.875  29.917  11.188
83210W        W55635   6.201  14.721   1.991
83211W        W55636  37.801  22.187   4.166
83212W        W55637  40.432  26.683  14.915
83213W        W55638  33.098   3.757  13.541
83214W        W55639  34.351  28.851   2.719
83215W        W55640  27.919   0.724   3.625
83216W        W55641  12.563  21.124   1.197
83217W        W55642  39.163  23.500  10.089
83218W        W55643  32.380  19.076  12.125
83219W        W55644  42.099  14.852  11.449
83220W        W55645   4.308   5.018  12.937
83221W        W55646  33.926  26.003  12.927
83222W        W55647  13.292  27.092  12.349
83223W        W55648  16.297  24.950   1.138
83224W        W55649  12.957  22.691   3.014
83225W        W55650  16.285  30.260  10.723
83226W        W55651   6.009   2.258   5.113
83227W        W55652  34.128   0.591   0.430
83228W        W55653  38.507   4.532  11.101
83229W        W55654  35.203  23.958   3.238
83230W        W55655   2.706   3.477  14.566
83231W        W55656   7.407  35.977   3.881
83232W        W55657  29.939  12.663  10.996
83233W        W55658   7.267  38.446  11.507
83234W        W55659  23.953  15.178   3.860
83235W        W55660   4.450  36.475   1.698
83236W        W55661  38.770   2.467   1.797
83237W        W55662  24.162  32.650   4.888
83238W        W55663  40.375  27.581  12.772
83239W        W55664   8.776   4.487   1.244
83240W        W55665  18.981  32.653  13.786
83241W        W55666   8.243   7.903  13.586
83242W        W55667  42.447  30.398   4.690
83243W        W55668  12.584   4.128   0.309
83244W        W55669  38.760   5.444  11.290
83245W        W55670  43.541  32.641  14.606
83246W        W55671  16.762  10.965   0.307
83247W        W55672   3.470  18.440  13.946
83248W        W55673  23.097   0.444  14.032
83249W        W55674   5.363  34.174  14.860
83250W        W55675  24.082  27.443  14.891
83251W        W55676  32.382  18.282  11.694
83252W        W55677  31.482  24.370   3.643
83253W        W55678   7.443  43.428   1.839
83254W        W55679  12.817  23.193  13.937
83255W        W55680  29.188  44.354   0.831
83256W        W55681  18.251  12.830   0.310
83257W        W55682  35.570  27.926   3.618
83258W        W55683  38.076  10.821   3.841
83259W        W55684  12.691  16.918   0.891
83260W        W55685  19.373  26.543  13.947
83261W        W55686   3.734  15.239   0.982
83262W        W55687   8.463  43.061   2.251
83263W        W55688  21.128  27.180   3.413
83264W        W55689  12.674  43.789  11.298
83265W        W55690  25.622  43.083  11.234
83266W        W55691   6.572  41.114   1.815
83267W        W55692  20.172  36.802  11.314
83268W        W55693  33.507  12.755  14.216
83269W        W55694  20.316  44.945   4.373
83270W        W55695  34.123   4.215   3.023
83271W        W55696  22.406  40.406   0.261
83272W        W55697  27.442  13.341  10.859
83273W        W55698   7.827  19.775  11.712
83274W        W55699  38.001  41.057   3.354
83275W        W55700  36.012  20.892  14.767
83276W        W55701  40.632   5.258   3.434
83277W        W55702  14.065  30.295   4.902
83278W        W55703   8.155  14.780  11.174
83279W        W55704   8.168  26.200  13.816
83280W        W55705  11.546   1.676   3.868
83281W        W55706  35.841  29.196  11.592
83282W        W55707  33.147  11.638   4.921
83283W        W55708   1.787  23.465   4.092
83284W        W55709  16.193  42.592   0.597
83285W        W55710  32.854  20.326   0.437
83286W        W55711  25.163   9.772  13.392
83287W        W55712  26.236  10.946   2.672
83288W        W55713  11.389  10.250  10.804
83289W        W55714  34.051  31.719   1.023
83290W        W55715  23.470  24.482   3.082
83291W        W55716   6.833  18.216  12.622
83292W        W55717   6.830  41.782   0.984
83293W        W55718  44.057  36.970   4.593
83294W        W55719  13.326  40.763  11.167
83295W        W55720  30.889   4.444   4.044
83296W        W55721  41.426  18.238   1.946
83297W        W55722  36.094   4.307  12.363
83298W        W55723  28.628  26.053   1.855
83299W        W55724  41.485  33.920  12.659
83300W        W55725   1.369  41.125   0.804
83301W        W55726   8.645   5.191  12.119
83302W        W55727  25.271  33.484   1.841
83303W        W55728  22.195   2.407  14.851
83304W        W55729  37.804  19.241  13.033
83305W        W55730  40.034  30.623   0.838
83306W        W55731  43.137  36.086  12.905
83307W        W55732  14.070  26.361   4.521
83308W        W55733  44.980  31.976   1.194
83309W        W55734  16.351  34.454   2.652
83310W        W55735  39.917  25.720  13.598
83311W        W55736  15.324  43.839  12.344
83312W        W55737  17.740  36.631   2.620
83313W        W55738   4.179  33.217   1.301
83314W        W55739  40.979  29.136  11.047
83315W        W55740  32.569   5.771   2.273
83316W        W55741  18.088  38.546  14.222
83317W        W55742  33.527   8.651   0.804
83318W        W55743  34.605   6.490   3.172
83319W        W55744  40.981   7.614   3.237
83320W        W55745  33.460  37.672   4.575
83321W        W55746  20.158  15.148  12.801
83322W        W55747  42.556   4.349  13.098
83323W        W55748   8.894   5.426   4.193
83324W        W55749  37.142   2.867  11.459
83325W        W55750  42.228  21.721   0.833
83326W        W55751  27.610  12.624  13.281
83327W        W55752   9.296  25.696   0.026
83328W        W55753   3.577   0.408  12.949
83329W        W55754  44.422  43.937   3.714
83330W        W55755  17.202  21.567  11.196
83331W        W55756  12.438  25.306   4.049
83332W        W55757  42.214  19.569  12.190
83333W        W55758   0.245  23.026   2.182
83334W        W55759  31.967  23.983   2.225
83335W        W55760  34.405  11.110  14.818
83336W        W55761   7.232   6.086  11.151
83337W        W55762  12.241  36.635   4.539
83338W        W55763  42.031   5.905  13.330
83339W        W55764  37.781  38.321   2.327
83340W        W55765  28.464   7.791  12.267
83341W        W55766  22.486  30.168   1.520
83342W        W55767  44.093  23.390   4.753
83343W        W55768  36.025  43.241   3.674
83344W        W55769  20.711   6.457  13.717
83345W        W55770  24.146   1.846  12.915
83346W        W55771  10.797  14.604   4.416
83347W        W55772  40.082  22.976  13.396
83348W        W55773  36.469  40.505  14.733
83349W        W55774  13.612  11.277  12.115
83350W        W55775   7.963  37.909  13.873
83351W        W55776  15.969  40.108  13.488
83352W        W55777  36.684  10.206  10.186
83353W        W55778  22.975  36.033  12.162
83354W        W55779  15.060  30.376  12.987
83355W        W55780  10.848  40.852   1.877
83356W        W55781   8.502  20.921  10.148
83357W        W55782  44.330   9.238   1.489
83358W        W55783  10.152   8.863   3.213
83359W        W55784  41.079  17.261   4.507
83360W        W55785  13.310  15.881   4.845
83361W        W55786  35.203  23.432   4.162
83362W        W55787  11.801  43.548   3.499
83363W        W55788  13.464  19.044   0.153
83364W        W55789  17.867  21.534  14.480
83365W        W55790  11.857  22.183  12.565
83366W        W55791   1.383  18.838  14.856
83367W        W55792  37.427  32.328   2.171
83368W        W55793  20.583   8.927  11.521
83369W        W55794   0.723  10.331  14.104
83370W        W55795   2.692  34.610   2.071
83371W        W55796  31.931  35.105  14.439
83372W        W55797  14.751   2.699   1.086
83373W        W55798   6.706  19.531  12.497
83374W        W55799  33.448  13.631   1.807
83375W        W55800  12.797  22.449   3.833
83376W        W55801  38.145  37.501   0.876
83377W        W55802   8.428  25.545  11.076
83378W        W55803  33.100  11.311  12.246
83379W        W55804  29.167   2.793   0.396
83380W        W55805  25.800  27.181   4.066
83381W        W55806  27.046  18.746  14.301
83382W        W55807  17.058  25.070   2.864
83383W        W55808  12.860  44.206   4.376
83384W        W55809  29.930   7.797   4.298
83385W        W55810  17.346  25.042  14.485
83386W        W55811   4.583  40.809  14.906
83387W        W55812  35.657  20.512  14.799
83388W        W55813  28.383   2.378  12.921
83389W        W55814  10.951  14.094   4.277
83390W        W55815  43.568   6.644  12.038
83391W        W55816  33.854  28.983   2.851
83392W        W55817  38.841  21.251  10.661
83393W        W55818  14.352  11.131  12.426
83394W        W55819  16.056  17.132  13.315
83395W        W55820  29.230  18.740   0.482
83396W        W55821  22.094  28.819  14.522
83397W        W55822  39.744   7.374  14.690
83398W        W55823  20.504  43.977   4.240
83399W        W55824  40.284  15.789   2.314
83400W        W55825   0.830   9.791  10.784
83401W        W55826  35.371   3.624  10.670
83402W        W55827  17.699  31.684  12.843
83403W        W55828  17.047  14.741  14.298
83404W        W55829  20.548   2.300  12.978
83405W        W55830  31.624   5.637  11.235
83406W        W55831  23.178  34.579   0.465
83407W        W55832  28.459   8.903  12.696
83408W        W55833  10.386  14.685   2.328
83409W        W55834  41.934  39.460  13.975
83410W        W55835   1.435  13.804  13.517
83411W        W55836  43.999   5.422  14.788
83412W        W55837  13.130  35.659   0.869
83413W        W55838  34.073  16.083   1.947
83414W        W55839  11.095   5.276  14.528
83415W        W55840   9.648  23.673  12.042
83416W        W55841  38.814  22.482   4.623
83417W        W55842  27.814  31.971   5.118
83418W        W55843  20.035  31.603   1.573
83419W        W55844  29.603  15.802   4.409
83420W        W55845  42.514  12.270  14.164
83421W        W55846  28.037  14.927   3.065
83422W        W55847  14.136  22.623  12.593
83423W        W55848  13.617   4.475  14.521
83424W        W55849  28.918  19.775   1.927
83425W        W55850  27.107  10.077   1.732
83426W        W55851   5.293  40.501   3.301
83427W        W55852   2.387   3.465   1.584
83428W        W55853  25.145   6.664  13.917
83429W        W55854  22.955  42.478  13.687
83430W        W55855  32.748  35.579  13.132
83431W        W55856  24.611  33.394  11.167
83432W        W55857  39.907  15.725  13.798
83433W        W55858  37.997   7.901   1.876
83434W        W55859  38.925  11.665   3.055
83435W        W55860  33.054  22.648  13.858
83436W        W55861  11.293   1.056  11.864
83437W        W55862  13.384   3.769   4.235
83438W        W55863  26.432  25.131  13.447
83439W        W55864  28.979  43.039   3.674
83440W        W55865  28.144  26.072  11.030
83441W        W55866  28.514   7.515  14.914
83442W        W55867  28.296  36.519  13.798
83443W        W55868  38.311  38.838  11.274
83444W        W55869  31.791  17.289   4.987
83445W        W55870   5.248  27.928   1.766
83446W        W55871  35.901  32.959  14.992
83447W        W55872   1.532  21.690  11.992
83448W        W55873   9.826   2.054   4.261
83449W        W55874  26.546  34.577   0.699
83450W        W55875  13.741  42.506   1.397
83451W        W55876   4.624   8.766  13.491
83452W        W55877   6.596  30.597  14.941
83453W        W55878  37.903  38.577  11.132
83454W        W55879  17.825  14.545  11.073
83455W        W55880   0.356  19.415  10.382
83456W        W55881  30.805  23.564  14.339
83457W        W55882  11.339  14.767  12.129
83458W        W55883  17.768  18.501  14.253
83459W        W55884  31.356  15.774   2.938
83460W        W55885  26.054  23.777  14.244
83461W        W55886  20.176  34.647   4.048
83462W        W55887  34.615  39.524  13.162
83463W        W55888   0.767   8.305   4.452
83464W        W55889  35.567  26.021  14.731
83465W        W55890  22.962  12.513  13.898
83466W        W55891   1.764  32.410  14.554
83467W        W55892  22.145  25.286   4.897
83468W        W55893  15.559   7.216   4.614
83469W        W55894  42.223  28.599  10.737
83470W        W55895  44.677  41.398   5.138
83471W        W55896  16.272  39.337  13.600
83472W        W55897  24.799  40.162   2.353
83473W        W55898  18.042  32.670  11.579
83474W        W55899  41.304  24.193   3.110
83475W        W55900  33.429  28.624   4.544
83476W        W55901   7.741  37.959  10.231
83477W        W55902   3.946  20.212  12.663
83478W        W55903  43.980  31.861  12.488
83479W        W55904  18.673  25.246  12.820
83480W        W55905  21.688  33.539   0.578
83481W        W55906  15.198  44.708   2.782
83482W        W55907  22.307  42.096  10.734
83483W        W55908   0.458   5.004  12.367
83484W        W55909  16.649   4.768   2.100
83485W        W55910  44.755  40.949   1.157
83486W        W55911  21.577  36.039  11.042
83487W        W55912  24.190   8.176  14.252
83488W        W55913   0.944  24.877  10.808
83489W        W55914   8.158   2.444  11.717
83490W        W55915   1.115  10.862  12.988
83491W        W55916  14.276  40.949   1.396
83492W        W55917  27.010  41.928   4.092
83493W        W55918  34.574  22.081  13.439
83494W        W55919   6.932  10.106  14.306
83495W        W55920  42.959   3.075  14.402
83496W        W55921  35.372  31.068  14.198
83497W        W55922  16.063  32.356   4.578
83498W        W55923  35.762  39.864   2.737
83499W        W55924  26.523  24.983  11.556
83500W        W55925   8.354  44.512  14.264
83501W        W55926  44.312  44.415  12.916
83502W        W55927   2.835  41.057  12.565
83503W        W55928  36.850  19.143   2.828
83504W        W55929  32.152  13.602  11.105
83505W        W55930   8.151  24.270  14.916
83506W        W55931  17.269  30.407  13.408
83507W        W55932  14.318  19.622   9.728
83508W        W55933  13.293   5.316  11.885
83509W        W55934  15.241  19.873   4.503
83510W        W55935  15.119  33.935  13.152
83511W        W55936  11.660  25.340   2.915
83512W        W55937  43.945  27.069   4.237
83513W        W55938   0.496   3.580   4.632
83514W        W55939  17.995  14.041   4.251
83515W        W55940   2.471  15.512  11.034
83516W        W55941  25.584  19.620  10.748
83517W        W55942  10.040  13.571  12.844
83518W        W55943  42.210  43.528  13.829
83519W        W55944   7.004   7.833  12.534
83520W        W55945  35.404   6.311  14.049
83521W        W55946  27.636   2.570  11.658
83522W        W55947  12.362  28.614  14.556
83523W        W55948  11.033  38.677   0.858
83524W        W55949  42.285  25.744  13.889
83525W        W55950  13.802   5.266  12.009
83526W        W55951  22.534  12.676  14.135
83527W        W55952  35.679  33.965  13.936
83528W        W55953  15.737  28.546   0.443
83529W        W55954  36.801  37.821  14.539
83530W        W55955   3.814  39.340   3.658
83531W        W55956  35.391   9.208   9.376
83532W        W55957  29.597   6.889  12.542
83533W        W55958  17.199   6.907   1.797
83534W        W55959  30.701  19.847   1.188
83535W        W55960  38.295  33.056   4.908
83536W        W55961  41.277  17.873   1.098
83537W        W55962  11.890  13.674  12.282
83538W        W55963  14.792  17.863   1.843
83539W        W55964   5.178  33.908  11.155
83540W        W55965  25.316  26.869  14.578
83541W        W55966  27.909   4.036  11.028
83542W        W55967  10.457  39.937   2.810
83543W        W55968  28.913  13.581   4.680
83544W        W55969  21.126  24.902  11.295
83545W        W55970  32.127  12.300   4.115
83546W        W55971   3.062  26.189  12.662
83547W        W55972  32.142  27.474   1.386
83548W        W55973  44.009  16.123  14.812
83549W        W55974  34.829   1.548  14.279
83550W        W55975  31.540  33.227   1.317
83551W        W55976  41.472  34.958   3.742
83552W        W55977  13.380  26.444  14.778
83553W        W55978  14.264  34.599  14.884
83554W        W55979  42.369  26.328  11.982
83555W        W55980   1.982  44.530  12.591
83556W        W55981  42.565   7.692   4.171
83557W        W55982  22.963   9.673  10.548
83558W        W55983  21.428  22.193   4.687
83559W        W55984  37.583   2.353  11.439
83560W        W55985   2.247  36.157  12.344
83561W        W55986   1.179  35.596  12.482
83562W        W55987  13.242  18.083  12.165
83563W        W55988  21.915  30.957   3.753
83564W        W55989  12.036  20.677   4.801
83565W        W55990  43.489  20.106   4.496
83566W        W55991   9.239  41.809   3.181
83567W        W55992  28.488  18.561   0.403
83568W        W55993  20.498  17.862   3.824
83569W        W55994  32.384  44.882   2.853
83570W        W55995  25.049   0.161  12.240
83571W        W55996   5.239  21.991   1.858
83572W        W55997  12.612  19.078  12.090
83573W        W55998  27.052  34.484   0.679
83574W        W55999  20.098  11.880  14.837
83575W        W56000  39.916  29.661   1.866
83576W        W56001   5.895  35.872  14.666
83577W        W56002   8.903   2.470  12.185
83578W        W56003  42.641  12.693  11.534
83579W        W56004  38.418  12.928   1.714
83580W        W56005  42.840  15.056   1.204
83581W        W56006  33.015  22.036   2.365
83582W        W56007  12.321  29.085  14.782
83583W        W56008  14.217   3.890  10.704
83584W        W56009  34.943  23.219  10.551
83585W        W56010  20.454   4.768   3.079
83586W        W56011  24.499  36.437   2.532
83587W        W56012  44.362  28.235   2.254
83588W        W56013  10.196  19.509   1.339
83589W        W56014   1.979  44.519   2.644
83590W        W56015  15.179  17.069   2.658
83591W        W56016  39.533  36.536  12.457
83592W        W56017  40.734  20.790  12.445
83593W        W56018  31.052  14.793   0.315
83594W        W56019  21.789  37.204   3.324
83595W        W56020  20.125  30.846   3.890
83596W        W56021  22.333  37.253   1.360
83597W        W56022  22.444  34.950  12.509
83598W        W56023  31.995  42.530   4.088
83599W        W56024  26.531  39.265  11.659
83600W        W56025  44.027   5.435  12.413
83601W        W56026  29.550  26.510   0.868
83602W        W56027  20.624  36.011   3.733
83603W        W56028   3.049  28.900  11.057
83604W        W56029  16.649   0.906   4.042
83605W        W56030   7.904  41.317  13.860
83606W        W56031   5.819  17.809  11.574
83607W        W56032  19.350  38.124   0.867
83608W        W56033   9.172  33.309   3.664
83609W        W56034   9.847   4.061   2.339
83610W        W56035  30.359  41.764   2.142
83611W        W56036  14.898  39.027   2.300
83612W        W56037  44.975  18.084  14.047
83613W        W56038  30.388  36.604  14.269
83614W        W56039  22.315   0.365  12.100
83615W        W56040  31.070  20.535   3.237
83616W        W56041  21.716  19.250  11.078
83617W        W56042  18.830  25.767  12.986
83618W        W56043  42.494   9.482   0.831
83619W        W56044  27.796  37.425  13.032
83620W        W56045  31.349  24.703   4.018
83621W        W56046   0.328  28.928   1.855
83622W        W56047  33.537  38.232   0.927
83623W        W56048   8.765  40.675   4.100
83624W        W56049  24.215  30.739  14.935
83625W        W56050  43.045  11.146   1.038
83626W        W56051  18.354  31.081  11.938
83627W        W56052  16.606  18.040   3.796
83628W        W56053   9.295  22.797   3.111
83629W        W56054  43.037   0.501  12.470
83630W        W56055  14.390  26.065  12.034
83631W        W56056  30.950  40.570   4.144
83632W        W56057  33.764  39.131  12.053
83633W        W56058   5.331  21.296   3.108
83634W        W56059  23.453  32.184  14.682
83635W        W56060  36.583  13.147   1.231
83636W        W56061  33.298   3.330  14.876
83637W        W56062  44.993  40.969   0.612
83638W        W56063  15.046  39.442  11.959
83639W        W56064  10.750   1.719   2.370
83640W        W56065  27.960  32.305   4.199
83641W        W56066  15.438  23.875   1.274
83642W        W56067  38.695  29.513  11.440
83643W        W56068  12.152  13.077  14.907
83644W        W56069  41.861  31.842  12.832
83645W        W56070  11.250   5.858  10.974
83646W        W56071  37.081   8.336   1.888
83647W        W56072  12.409  25.412  12.964
83648W        W56073  32.834  16.089   3.195
83649W        W56074  23.970  13.663   1.439
83650W        W56075  30.640   4.333   4.493
83651W        W56076  24.524  25.564   2.173
83652W        W56077  24.275  43.985   3.601
83653W        W56078  20.728  34.387  12.221
83654W        W56079  17.055  36.581   0.858
83655W        W56080  20.600  15.176  11.114
83656W        W56081  23.465  21.615  11.901
83657W        W56082  11.757  38.089   1.205
83658W        W56083  26.680   3.466  10.019
83659W        W56084  31.957  12.510   3.668
83660W        W56085  12.251  43.921   4.563
83661W        W56086  21.287  14.305   4.605
83662W        W56087  28.085  41.779   1.903
83663W        W56088  20.777  28.730   4.171
83664W        W56089  19.153  14.017  10.730
83665W        W56090   5.058   5.934  13.944
83666W        W56091  18.078  39.573  11.314
83667W        W56092  20.639  32.573   3.846
83668W        W56093  29.961  38.992   4.123
83669W        W56094  27.618  10.225   1.033
83670W        W56095  36.948  21.956   3.925
83671W        W56096  20.593  23.572  14.709
83672W        W56097  20.078  15.630   0.306
83673W        W56098  12.201  20.269  10.701
83674W        W56099  43.552  31.472  10.628
83675W        W56100  33.326  25.085  10.844
83676W        W56101  18.668   8.812   5.192
83677W        W56102  29.377   1.971  13.977
83678W        W56103   1.927  35.778  13.953
83679W        W56104  20.744  35.611   3.297
83680W        W56105  32.102   7.901  14.497
83681W        W56106   3.559   0.875   4.084
83682W        W56107  11.610  23.570   1.374
83683W        W56108  12.298  44.793   0.168
83684W        W56109  33.667   2.818  13.456
83685W        W56110  30.619  25.532   1.246
83686W        W56111  13.210  32.079   4.659
83687W        W56112  18.617  22.027  13.002
83688W        W56113  13.126  11.432  10.446
83689W        W56114  21.230  35.584  14.962
83690W        W56115  22.337  14.985  14.503
83691W        W56116  21.012  14.267   2.251
83692W        W56117  16.943  31.091   3.851
83693W        W56118  19.672  35.601   2.710
83694W        W56119   8.750  33.798  12.856
83695W        W56120   3.220  22.404   3.684
83696W        W56121  27.746  36.397  12.930
83697W        W56122   6.660  29.061  13.603
83698W        W56123  33.011  26.608   4.140
83699W        W56124  42.047  41.561  11.192
83700W        W56125  23.311  37.474  10.550
83701W        W56126  28.546  10.633  14.345
83702W        W56127   4.372  14.291   4.110
83703W        W56128   9.101   6.841  10.877
83704W        W56129   3.869  42.089  11.797
83705W        W56130  23.168  40.766  11.613
83706W        W56131  36.577  44.455   1.827
83707W        W56132  20.542  40.566   2.704
83708W        W56133   4.762  39.276  10.246
83709W        W56134  20.351  39.739   5.403
83710W        W56135  14.852  23.518   3.665
83711W        W56136  38.976  32.026   1.436
83712W        W56137  40.019  36.355   4.727
83713W        W56138  24.601  41.546  12.392
83714W        W56139   7.180  34.442  10.877
83715W        W56140  17.785  24.934  10.736
83716W        W56141   7.741  30.589  11.223
83717W        W56142  44.073  14.815   2.667
83718W        W56143  12.597   2.319  14.561
83719W        W56144   3.827   0.531  11.584
83720W        W56145  20.803  25.592  14.353
83721W        W56146  10.234  28.144   3.544
83722W        W56147  29.662  20.551  12.485
83723W        W56148  34.964  11.267   2.609
83724W        W56149  30.594  10.858  14.031
83725W        W56150  24.505  43.771   4.959
83726W        W56151  16.251  41.077  14.999
83727W        W56152  28.372   7.270  11.090
83728W        W56153  25.369  21.219  13.716
83729W        W56154  12.608   0.711   2.225
83730W        W56155  16.341  27.857   4.068
83731W        W56156  10.831  12.275  14.853
83732W        W56157  30.170  39.289   4.625
83733W        W56158  38.249  18.630   2.371
83734W        W56159   8.313  44.429   4.922
83735W        W56160   3.911   3.003  14.472
83736W        W56161  15.502   5.319  11.393
83737W        W56162   6.879  27.128   4.349
83738W        W56163  13.260   9.289  13.542
83739W        W56164  36.632  36.495   1.778
83740W        W56165   2.316  35.900   4.196
83741W        W56166  44.065  17.640   3.875
83742W        W56167  11.858  21.489  12.879
83743W        W56168  18.836   8.696  12.627
83744W        W56169  28.106  21.517  12.033
83745W        W56170  17.630  21.740  12.563
83746W        W56171  10.859  25.134   0.927
83747W        W56172  25.171   6.600   1.903
83748W        W56173  35.508   7.945   3.305
83749W        W56174  31.561   5.145  12.001
83750W        W56175   1.844  16.134   4.173
83751W        W56176   9.872  38.528  11.724
83752W        W56177  41.102  44.477  12.272
83753W        W56178   0.881  15.218   1.737
83754W        W56179   3.300  40.807   4.492
83755W        W56180   6.235  19.859   4.169
83756W        W56181  39.495   4.871  12.662
83757W        W56182  33.382   7.720   2.213
83758W        W56183  12.377  18.164   3.191
83759W        W56184  22.561   5.288   2.162
83760W        W56185  35.623  25.071   1.048
83761W        W56186  43.033  44.850  11.883
83762W        W56187   0.965  20.083   1.671
83763W        W56188  25.027   3.717   4.531
83764W        W56189   2.068  19.710  10.561
83765W        W56190  25.115  24.036  10.679
83766W        W56191  22.689  16.027   4.173
83767W        W56192   7.975  32.750   0.697
83768W        W56193  43.791  26.045  12.902
83769W        W56194  33.856   5.900   0.699
83770W        W56195   1.851   6.542   4.873
83771W        W56196  41.646  22.475   4.249
83772W        W56197   0.385   8.834   1.695
83773W        W56198  16.218   2.876  11.672
83774W        W56199  15.847  15.445   4.974
83775W        W56200  36.511  13.096   3.158
83776W        W56201  29.064  40.057   1.820
83777W        W56202  11.557  39.080  12.814
83778W        W56203  13.167  11.758  12.840
83779W        W56204  23.521  30.285   3.613
83780W        W56205  17.512  26.607  11.064
83781W        W56206  19.766   3.958   0.104
83782W        W56207   8.096  12.594   3.889
83783W        W56208   0.993  17.239   4.320
83784W        W56209   7.255  13.325  12.944
83785W        W56210   1.227  39.224  11.130
83786W        W56211  26.722  22.091  11.157
83787W        W56212  23.923  25.425   3.231
83788W        W56213  27.913  39.795   4.916
83789W        W56214  27.501  24.243   2.774
83790W        W56215   1.068  44.244   5.075
83791W        W56216   0.274  27.192   3.530
83792W        W56217  24.172  31.220  11.508
83793W        W56218   4.826  36.000  10.356
83794W        W56219   1.703  17.454   3.745
83795W        W56220  38.815  17.371   2.708
83796W        W56221  42.300  28.063  14.292
83797W        W56222  27.505   4.377   2.638
83798W        W56223  20.651  29.379   1.889
83799W        W56224  36.726  35.057  14.748
83800W        W56225  17.217  22.581   3.317
83801W        W56226   6.305  37.552   3.676
83802W        W56227  21.095   3.041  10.609
83803W        W56228  26.151  30.432   0.369
83804W        W56229  42.088  35.563  11.547
83805W        W56230  19.109  32.959   2.016
83806W        W56231  19.193   9.800   3.733
83807W        W56232  38.406  30.140   3.661
83808W        W56233  28.554  25.291  10.987
83809W        W56234  32.902   3.271   1.372
83810W        W56235  22.592  11.255  11.434
83811W        W56236  22.144  11.198   0.226
83812W        W56237  29.686  16.579   3.082
83813W        W56238  42.763  36.452   2.723
83814W        W56239  31.637  21.525  10.546
83815W        W56240   7.673  43.533   4.342
83816W        W56241  17.064   6.525   3.183
83817W        W56242  18.094  12.777  11.191
83818W        W56243  32.485  38.581   3.286
83819W        W56244  39.479  22.997  11.392
83820W        W56245  23.194   0.373  12.311
83821W        W56246   2.817   4.871   1.757
83822W        W56247  38.602  38.989  10.304
83823W        W56248   0.227  11.894   0.320
83824W        W56249  20.186  15.201   0.830
83825W        W56250  21.401  44.462   1.264
83826W        W56251  43.168  31.732   2.776
83827W        W56252   0.797  40.441  13.749
83828W        W56253  26.599  21.591  10.973
83829W        W56254  13.301   7.226  12.876
83830W        W56255   9.875  33.901   4.520
83831W        W56256  33.368   0.691   4.660
83832W        W56257  27.031  21.816   0.992
83833W        W56258  27.035  35.865   1.835
83834W        W56259  21.215  21.828  14.402
83835W        W56260  36.555  12.387   3.705
83836W        W56261  18.600  37.442   1.605
83837W        W56262  28.110  26.669   4.603
83838W        W56263  21.393  30.063  14.315
83839W        W56264  42.244  42.447   2.329
83840W        W56265  29.577  18.978   1.236
83841W        W56266  40.546  18.613   0.000
83842W        W56267  17.211  21.101   0.702
83843W        W56268   2.902  41.896   0.737
83844W        W56269  26.072   8.968   2.143
83845W        W56270   6.613   7.497  11.041
83846W        W56271  11.727   4.530  13.571
83847W        W56272  31.618  11.842   4.854
83848W        W56273   8.124   3.893   1.904
83849W        W56274  12.356  11.170   2.291
83850W        W56275  17.078   7.154   2.724
83851W        W56276  28.627   8.764   1.205
83852W        W56277  34.252  44.196   4.082
83853W        W56278  17.533   5.270  11.540
83854W        W56279  30.149  30.436  11.540
83855W        W56280  25.029  38.801   2.309
83856W        W56281   8.540  30.621  10.315
83857W        W56282  11.657  32.941  12.792
83858W        W56283  13.811  33.488   2.670
83859W        W56284  21.524  33.598   3.712
83860W        W56285  42.279  17.682   1.345
83861W        W56286  17.192  27.795   2.779
83862W        W56287  22.169  19.479   4.348
83863W        W56288  43.366  28.092  13.857
83864W        W56289  33.545  36.668   2.756
83865W        W56290  15.544  37.096  11.202
83866W        W56291  16.780   8.144   4.046
83867W        W56292  37.471  16.136  10.948
83868W        W56293   5.125   8.186   4.188
83869W        W56294  29.315  32.402  12.343
83870W        W56295  29.871   0.996   2.845
83871W        W56296   4.849  41.169  13.948
83872W        W56297  34.913  34.405   1.918
83873W        W56298  43.083  19.310  13.057
83874W        W56299  15.389  11.154  13.812
83875W        W56300  33.860  24.141   2.306
83876W        W56301  33.932  26.082  14.041
83877W        W56302  26.209  30.632  11.946
83878W        W56303  22.598  20.313  11.125
83879W        W56304  33.092  36.227  11.519
83880W        W56305   0.426  11.105   2.349
83881W        W56306  22.057  43.840  13.921
83882W        W56307  30.199  36.136   2.184
83883W        W56308  16.465  15.617  13.505
83884W        W56309   8.367  42.120  12.954
83885W        W56310  40.026  23.978  12.529
83886W        W56311  24.082  17.595   1.270
83887W        W56312  44.765  23.305  11.474
83888W        W56313  28.103  21.385  13.983
83889W        W56314  21.005  18.297  12.013
83890W        W56315  34.163  28.942   1.814
83891W        W56316  36.932   9.684   2.743
83892W        W56317  28.347   3.299   1.255
83893W        W56318   3.506  41.728   0.956
83894W        W56319   0.254  13.203  13.471
83895W        W56320  29.879  36.987   0.915
83896W        W56321  28.996  32.544   1.428
83897W        W56322  32.582   9.414  10.947
83898W        W56323  40.824  17.681   1.296
83899W        W56324   1.506  27.141  13.593
83900W        W56325  23.767  42.947  14.345
83901W        W56326  41.999  15.630  11.993
83902W        W56327  39.589  14.614  12.069
83903W        W56328  26.706   6.794  13.951
83904W        W56329  43.254  38.449   0.899
83905W        W56330  42.368  42.306  13.014
83906W        W56331  40.415  35.380   1.903
83907W        W56332   4.295  43.894  11.645
83908W        W56333  14.353  40.868  10.985
83909W        W56334  26.751  33.344   4.587
83910W        W56335  38.233   8.957   4.634
83911W        W56336   4.274  10.242   0.461
83912W        W56337  43.498  33.948  10.432
83913W        W56338  39.334  23.287   1.677
83914W        W56339  35.087  15.871   2.501
83915W        W56340   5.193   9.622  11.559
83916W        W56341  27.186  15.952  11.876
83917W        W56342  20.073  11.589   1.340
83918W        W56343  22.497  36.037   3.227
83919W        W56344  28.611  11.064  14.602
83920W        W56345  32.146  12.609   1.864
83921W        W56346   2.898  35.422   4.715
83922W        W56347  10.899  23.244   4.119
83923W        W56348  35.904  25.426   3.376
83924W        W56349  33.556   1.013  11.950
83925W        W56350  14.204  37.699  13.597
83926W        W56351  20.537  36.568   4.604
83927W        W56352  39.327  33.637   1.455
83928W        W56353   2.381  38.868  10.542
83929W        W56354  16.714   9.314   1.714
83930W        W56355  30.142   7.120  12.481
83931W        W56356  11.863  30.883   1.940
83932W        W56357  30.398   0.524   1.704
83933W        W56358   6.174  39.576  14.386
83934W        W56359  20.568  10.134   0.825
83935W        W56360  43.492  14.173  13.854
83936W        W56361  18.966  30.739   4.202
83937W        W56362  33.057  36.716  11.430
83938W        W56363  43.983  31.592  11.820
83939W        W56364  30.970  33.716   4.386
83940W        W56365  11.077  10.415   1.276
83941W        W56366  34.742  44.766   3.763
83942W        W56367  42.387  33.620   0.431
83943W        W56368  28.926  34.911  13.451
83944W        W56369  14.990  29.875  12.942
83945W        W56370   2.115  29.867  10.694
83946W        W56371  36.376  31.895  10.260
83947W        W56372   5.239  31.953  14.882
83948W        W56373  34.688  15.095  13.425
83949W        W56374  32.147  34.845   1.205
83950W        W56375  20.645  28.881   1.233
83951W        W56376  22.379  31.279  12.912
83952W        W56377  24.182  16.827  13.010
83953W        W56378   1.831   5.942  12.432
83954W        W56379   7.333  13.836   1.156
83955W        W56380   2.879  44.015  10.708
83956W        W56381  21.662   7.985   3.209
83957W        W56382  24.594   7.208  11.773
83958W        W56383  29.068  37.972   4.141
83959W        W56384  36.099  43.919  13.833
83960W        W56385  19.680  16.210   4.382
83961W        W56386  29.865  19.316  14.278
83962W        W56387  10.536  43.442  10.954
83963W        W56388  10.381   1.923   3.048
83964W        W56389  24.669  36.338   3.532
83965W        W56390  22.492  42.955  10.658
83966W        W56391  34.003  41.487   4.125
83967W        W56392  38.523  38.550   3.360
83968W        W56393  23.144   9.919   5.572
83969W        W56394  28.870  38.069  10.144
83970W        W56395  14.343  33.970   3.895
83971W        W56396  33.512  43.781   1.822
83972W        W56397  39.972  11.191   2.299
83973W        W56398  29.015  14.549   4.240
83974W        W56399  22.572  31.992   1.727
83975W        W56400  30.879  14.664  10.999
83976W        W56401  29.348  19.592  12.334
83977W        W56402  30.366  14.739  13.102
83978W        W56403  29.782  17.093  13.514
83979W        W56404   7.312  34.400  12.852
83980W        W56405  31.964   2.512  13.282
83981W        W56406  15.958  35.421  12.462
83982W        W56407  17.823  44.448  12.995
83983W        W56408  31.429  36.082  11.373
83984W        W56409  29.524  42.144   1.266
83985W        W56410  17.141  30.709   3.557
83986W        W56411  17.464  12.164   0.310
83987W        W56412  40.894  10.535  11.102
83988W        W56413  37.546  25.652  12.793
83989W        W56414  38.870  14.345   4.938
83990W        W56415   4.751  21.604  14.966
83991W        W56416  44.363   6.233   2.239
83992W        W56417  10.687  36.053  14.917
83993W        W56418  36.765  16.743   3.274
83994W        W56419  22.473  38.888  11.868
83995W        W56420   2.168  43.231  13.992
83996W        W56421  14.780  25.766  13.854
83997W        W56422  37.544   5.917   1.317
83998W        W56423   2.912   2.226   1.389
83999W        W56424  29.011   2.133   0.953
84000W        W56425  35.797  31.592  10.577
84001W        W56426  12.387  29.281  10.693
84002W        W56427  18.176  23.603   4.963
84003W        W56428  32.354  35.177  11.284
84004W        W56429  16.094   1.859   2.894
84005W        W56430  32.414   4.892  10.664
84006W        W56431   7.421   3.905  13.891
84007W        W56432  42.736  39.759  14.513
84008W        W56433  31.899   4.859   0.884
84009W        W56434  42.419  26.398  13.355
84010W        W56435  33.202   7.378   3.413
84011W        W56436  34.353   6.776   2.340
84012W        W56437  34.966  13.233   0.886
84013W        W56438  27.491   2.710  14.932
84014W        W56439  22.116  23.494  13.382
84015W        W56440  37.004   4.362  14.265
84016W        W56441  11.937  12.178  14.319
84017W        W56442  14.395  23.712   3.894
84018W        W56443  44.578   8.924   3.705
84019W        W56444  26.672  28.085   1.366
84020W        W56445  42.692  23.725   0.864
84021W        W56446  12.224   2.680  12.412
84022W        W56447   3.716  35.880   4.886
84023W        W56448  23.188  17.496   4.020
84024W        W56449  10.238  12.314   0.218
84025W        W56450  43.921  38.539   1.714
84026W        W56451  13.292  34.213   0.789
84027W        W56452  23.318   1.353  11.721
84028W        W56453  39.650   5.884  12.178
84029W        W56454  10.691  26.452   4.149
84030W        W56455  36.107  32.024  12.017
84031W        W56456   8.675  40.581  13.862
84032W        W56457  36.934   7.868  12.955
84033W        W56458  23.670  36.857   1.129
84034W        W56459  41.967  29.695  13.700
84035W        W56460   1.901  14.891  13.899
84036W        W56461  12.169   1.695  14.006
84037W        W56462  43.769  23.934   2.242
84038W        W56463  34.935  36.351   2.661
84039W        W56464  18.039  28.252  12.864
84040W        W56465   7.196  10.637  11.997
84041W        W56466   4.675  28.483   1.332
84042W        W56467  25.470  22.535  14.947
84043W        W56468  29.393  33.383   4.485
84044W        W56469  15.298   8.087  12.794
84045W        W56470  30.490  23.095  12.944
84046W        W56471  22.776  21.425   3.658
84047W        W56472  41.472   7.803   3.340
84048W        W56473   5.378  28.681  14.046
84049W        W56474  18.790  11.828  14.038
84050W        W56475  13.361   4.009  11.764
84051W        W56476  43.744  19.310  13.302
84052W        W56477  40.757   9.639  14.694
84053W        W56478   3.787  15.545   1.795
84054W        W56479  11.865   7.838  12.511
84055W        W56480  22.191  27.701  11.600
84056W        W56481  27.383  32.919  11.344
84057W        W56482  40.397  25.112  12.995
84058W        W56483  43.908  28.906  12.667
84059W        W56484  23.588  11.813  10.551
84060W        W56485  32.323  37.169   9.855
84061W        W56486  22.455  31.972  11.157
84062W        W56487  19.675  19.086  11.165
84063W        W56488  17.356  15.157  13.503
84064W        W56489  27.038  29.865   2.920
84065W        W56490   1.838  19.675   0.895
84066W        W56491  29.976  26.211   0.884
84067W        W56492  16.330  20.559   0.714
84068W        W56493  19.163   1.967  11.635
84069W        W56494   1.156  39.677  10.933
84070W        W56495   3.900   9.537  14.320
84071W        W56496   4.356  40.443  10.471
84072W        W56497  38.242  31.081  12.036
84073W        W56498  38.080   1.788  11.053
84074W        W56499  24.407   7.326   1.537
84075W        W56500  13.124   5.246  14.351
84076W        W56501   1.381  41.309  11.163
84077W        W56502  14.032  38.058   2.277
84078W        W56503   9.167  24.595   2.723
84079W        W56504   4.407  31.135  12.015
84080W        W56505  44.561  40.274  10.252
84081W        W56506  43.245   9.806  10.685
84082W        W56507  28.494  30.981  14.901
84083W        W56508  14.355   1.584  12.052
84084W        W56509  15.823   2.795  14.681
84085W        W56510   0.191  10.783  10.544
84086W        W56511  15.840   3.290   4.184
84087W        W56512  32.098  43.799   4.532
84088W        W56513   6.710  31.824  13.315
84089W        W56514   7.110   0.015   4.637
84090W        W56515  18.306   3.389  13.021
84091W        W56516  40.769   4.343  10.590
84092W        W56517  21.555   7.761  12.104
84093W        W56518   8.530  29.034   2.182
84094W        W56519  25.670  12.148   1.814
84095W        W56520  36.580  28.496   1.802
84096W        W56521  24.606  19.848  13.289
84097W        W56522  29.661  41.009   3.772
84098W        W56523  24.731  10.573   0.877
84099W        W56524  20.609  25.352  14.775
84100W        W56525   0.254   6.669   2.394
84101W        W56526  34.551   6.665  12.631
84102W        W56527  15.582   5.889  10.974
84103W        W56528  34.596   4.483   0.536
84104W        W56529   1.823   2.155   2.263
84105W        W56530  33.342  26.496   0.711
84106W        W56531  29.418  24.206  13.372
84107W        W56532  22.540  26.099   0.820
84108W        W56533   6.797  30.489  14.372
84109W        W56534  38.491  10.245   3.219
84110W        W56535  34.324   5.747   0.877
84111W        W56536  13.510  28.072  11.648
84112W        W56537  21.036  30.558  13.471
84113W        W56538  40.390   9.298  12.967
84114W        W56539   0.007  22.261  13.145
84115W        W56540  26.437  13.328  11.652
84116W        W56541   4.811   9.613  10.696
84117W        W56542   9.153  20.457   3.733
84118W        W56543  28.702  23.077  11.485
84119W        W56544   7.268  36.460  12.286
84120W        W56545  17.289  29.099   4.602
84121W        W56546  36.497  44.201  13.418
84122W        W56547  36.927  35.662   1.474
84123W        W56548  24.503  41.508  14.296
84124W        W56549  42.871  29.876   3.694
84125W        W56550  16.849  18.228  13.882
84126W        W56551  14.573  38.167  12.382
84127W        W56552  30.015  15.572   1.738
84128W        W56553   7.682  40.848   0.692
84129W        W56554  31.360  11.757   3.268
84130W        W56555  26.543  19.182   2.944
84131W        W56556  29.566   5.762  14.473
84132W        W56557  38.609  27.923   0.161
84133W        W56558  36.614  11.807   1.961
84134W        W56559  33.296   8.181   0.892
84135W        W56560  35.096  13.803   3.658
84136W        W56561  15.003  14.262   1.187
84137W        W56562  31.618   6.306  11.429
84138W        W56563   6.420  14.413  10.698
84139W        W56564  12.332  25.289   1.139
84140W        W56565  38.015  39.268   3.281
84141W        W56566  29.932  22.212  12.944
84142W        W56567  29.770  43.317  10.435
84143W        W56568  44.911  12.207   1.886
84144W        W56569  38.590  38.421  12.984
84145W        W56570   2.212  14.497  11.138
84146W        W56571  36.375  25.617   4.297
84147W        W56572   6.751  42.738  13.512
84148W        W56573  21.748  31.327   2.443
84149W        W56574  22.692  39.762  14.014
84150W        W56575   4.718  18.236  12.995
84151W        W56576   9.282   6.433  11.128
84152W        W56577  22.074  14.718  14.010
84153W        W56578  22.850   2.076  13.590
84154W        W56579  42.810  44.318   1.035
84155W        W56580  31.022   8.773   0.851
84156W        W56581   8.645  30.907  12.955
84157W        W56582  38.897  35.288  10.654
84158W        W56583  19.796  42.965   1.902
84159W        W56584   6.922  43.464   1.842
84160W        W56585  41.955  35.826   3.166
84161W        W56586  32.507  39.026  11.528
84162W        W56587  14.682  25.143   2.903
84163W        W56588  39.886  43.838  14.847
84164W        W56589  44.764  37.358   3.685
84165W        W56590   2.631  38.032   0.839
84166W        W56591   3.025  30.786   4.440
84167W        W56592  37.907  30.666  12.401
84168W        W56593  26.665  34.923  14.841
84169W        W56594  19.336  19.069  14.983
84170W        W56595   3.246  37.941  13.624
84171W        W56596   1.239  11.242  10.453
84172W        W56597  37.627  37.324  11.554
84173W        W56598  14.171   7.475  12.009
84174W        W56599  42.842  16.209   0.352
84175W        W56600  14.636  42.606   1.889
84176W        W56601  18.553   7.081   3.705
84177W        W56602  40.069  32.331  14.969
84178W        W56603  19.602  39.952   4.086
84179W        W56604  42.087  14.703  14.962
84180W        W56605  42.581  33.125   3.964
84181W        W56606  26.932   3.268   4.674
84182W        W56607  17.131  40.032   2.957
84183W        W56608  33.420  17.708  10.407
84184W        W56609  21.988  38.058   4.788
84185W        W56610  40.841  24.118  11.543
84186W        W56611  43.384  40.182  12.044
84187W        W56612  43.383  39.417   0.208
84188W        W56613  40.220  43.470  12.868
84189W        W56614  18.516  26.650  12.975
84190W        W56615  31.998  17.248   4.146
84191W        W56616  14.162  33.938   3.312
84192W        W56617   4.434  35.004  11.657
84193W        W56618  37.771  11.581  12.497
84194W        W56619  19.561  26.439   4.247
84195W        W56620  44.645  28.513  13.406
84196W        W56621  10.559  32.239   3.091
84197W        W56622  31.501  30.423  12.880
84198W        W56623  15.008  42.061  11.088
84199W        W56624  13.307  20.665   0.853
84200W        W56625  15.696  10.697  11.555
84201W        W56626  15.160  24.150  14.726
84202W        W56627  37.547  15.120  11.403
84203W        W56628  15.508  26.290   4.615
84204W        W56629   5.699  42.222   0.435
84205W        W56630  20.089  27.612   3.257
84206W        W56631  33.235  37.620   0.973
84207W        W56632   7.636  12.209   0.823
84208W        W56633   9.331  38.869   4.462
84209W        W56634  18.339  27.512   0.235
84210W        W56635  19.177   4.887  12.888
84211W        W56636  29.465  15.333   2.456
84212W        W56637  13.424  23.257  13.985
84213W        W56638  25.160  29.461   0.485
84214W        W56639   9.283   0.719   1.733
84215W        W56640   4.871  19.550   2.328
84216W        W56641   4.640  42.950  11.245
84217W        W56642  18.902   0.908  11.477
84218W        W56643  26.200  38.681   1.401
84219W        W56644  43.466   9.403  14.718
84220W        W56645  10.717   2.618   3.252
84221W        W56646  44.359   1.262   1.220
84222W        W56647   2.446  15.672   2.089
84223W        W56648  39.942  27.118  14.303
84224W        W56649  41.983  36.638  14.094
84225W        W56650  19.286  38.783  14.401
84226W        W56651  10.938  13.638  12.399
84227W        W56652  15.322  40.805   3.810
84228W        W56653   6.336  24.481  11.592
84229W        W56654  16.690  41.329  11.967
84230W        W56655   6.795   5.997  13.400
84231W        W56656  14.679  28.055  13.629
84232W        W56657   7.123   7.161   1.388
84233W        W56658  24.223  40.556   2.825
84234W        W56659  18.390   3.137  13.903
84235W        W56660  14.302   1.393  14.676
84236W        W56661  13.173  14.968   1.909
84237W        W56662  26.796  36.795  14.950
84238W        W56663   7.901  38.486   0.194
84239W        W56664  37.462  36.440  11.988
84240W        W56665  15.039  11.066   1.824
84241W        W56666   9.440  18.211   2.714
84242W        W56667  21.192   6.455  13.449
84243W        W56668  36.089  18.817  11.400
84244W        W56669  36.867  31.471  13.853
84245W        W56670  13.544  20.692   4.537
84246W        W56671  44.837   0.074  13.174
84247W        W56672  38.607  44.515   2.812
84248W        W56673   2.605  42.477   4.596
84249W        W56674   0.926  11.397  11.727
84250W        W56675  11.826   3.831   3.208
84251W        W56676  20.268  23.544  11.395
84252W        W56677  24.615   4.403  12.142
84253W        W56678  39.064  38.654  12.991
84254W        W56679  23.217  35.496   3.870
84255W        W56680  27.182   4.453   4.383
84256W        W56681  25.476  42.386  10.537
84257W        W56682  37.818  12.739   3.274
84258W        W56683  33.004  43.983  12.838
84259W        W56684  37.465  33.647  14.098
84260W        W56685  27.602   2.345  13.415
84261W        W56686  37.726   3.354   0.317
84262W        W56687   4.992  27.516  12.616
84263W        W56688  35.986  25.787  12.893
84264W        W56689   2.843  20.271  13.544
84265W        W56690   0.828   9.275   3.242
84266W        W56691   1.701  19.409  10.764
84267W        W56692  30.020  35.803   3.568
84268W        W56693  20.007   9.253   4.987
84269W        W56694  34.606  11.655  11.752
84270W        W56695  26.543   4.442  14.279
84271W        W56696  40.388   0.251  14.313
84272W        W56697  10.855  41.337   1.370
84273W        W56698  26.521   6.330  13.076
84274W        W56699  29.825  40.042  10.206
84275W        W56700  22.172   1.426   0.787
84276W        W56701  12.639  40.281   3.294
84277W        W56702  21.078  27.814  13.337
84278W        W56703  21.110  40.804  13.411
84279W        W56704  28.589  41.468  13.901
84280W        W56705  32.877  32.990  11.570
84281W        W56706  12.116  10.176   3.756
84282W        W56707   7.947   3.139   4.178
84283W        W56708   8.907  10.660  14.877
84284W        W56709   0.187  21.773  14.515
84285W        W56710   8.674  17.326   3.071
84286W        W56711  28.128  37.948  11.884
84287W        W56712  14.039   3.738   0.500
84288W        W56713  40.330  20.989   0.508
84289W        W56714   3.364  35.127  11.546
84290W        W56715  29.700  32.996  14.139
84291W        W56716  20.229  27.461   1.736
84292W        W56717   4.029   9.451   3.274
84293W        W56718  22.548   5.830   0.884
84294W        W56719  38.221  10.785  12.452
84295W        W56720  19.477   4.824   4.199
84296W        W56721  12.279  36.269  10.633
84297W        W56722  27.739  32.810  14.516
84298W        W56723  16.658  18.581  13.546
84299W        W56724   9.562  41.959  11.463
84300W        W56725  42.582  29.116   3.343
84301W        W56726  43.283  37.890   2.685
84302W        W56727   1.311  16.139   3.819
84303W        W56728   5.361  17.763   1.699
84304W        W56729  35.780  10.509   3.647
84305W        W56730   5.554  19.519  13.497
84306W        W56731  35.943   1.867   0.691
84307W        W56732   7.312   3.258  15.000
84308W        W56733  24.401  28.214  12.793
84309W        W56734  14.241  25.638   3.728
84310W        W56735  23.218  39.853   0.346
84311W        W56736   8.520  38.889  10.580
84312W        W56737  34.615  28.076  14.303
84313W        W56738  36.288  36.988   0.162
84314W        W56739  24.681   6.312  13.505
84315W        W56740  39.924  11.407  14.965
84316W        W56741  43.257  30.697   2.527
84317W        W56742   2.994  28.238   1.772
84318W        W56743   1.412  14.721  14.565
84319W        W56744  38.478  12.751   1.220
84320W        W56745  20.085  12.870   1.877
84321W        W56746  27.043   9.435  12.423
84322W        W56747  18.154   6.237  10.927
84323W        W56748  12.744  39.657  10.743
84324W        W56749  10.175   5.432   4.102
84325W        W56750  18.744  31.199   2.655
84326W        W56751  25.352   4.925   3.753
84327W        W56752  36.436   3.681   0.209
84328W        W56753  32.842   9.008  12.903
84329W        W56754  25.037  29.126  10.167
84330W        W56755  21.750   5.965   2.960
84331W        W56756  15.103   2.951   3.164
84332W        W56757  19.095  34.323   3.715
84333W        W56758   5.369   9.465  14.974
84334W        W56759  27.247  27.643  12.061
84335W        W56760  10.241  40.017  12.569
84336W        W56761  37.599  34.081   2.609
84337W        W56762  41.035  29.993  11.946
84338W        W56763  24.311   9.095   3.215
84339W        W56764  29.976   9.950   4.194
84340W        W56765  39.297  37.053   3.313
84341W        W56766  25.203  41.904   3.624
84342W        W56767   8.610  12.845  11.172
84343W        W56768  22.688  12.212  12.962
84344W        W56769  30.301   0.095   1.983
84345W        W56770  29.566  42.628   1.430
84346W        W56771  35.676  30.077   3.187
84347W        W56772  33.515   8.902  11.706
84348W        W56773  11.216   6.845   3.118
84349W        W56774  28.482  27.078  11.595
84350W        W56775  29.351  35.534  12.990
84351W        W56776  15.662  44.818  13.008
84352W        W56777  31.162  34.838   0.403
84353W        W56778   2.977  34.163  10.338
84354W        W56779  28.812  18.547   2.279
84355W        W56780  17.022  42.556  12.581
84356W        W56781   3.198  13.177   4.892
84357W        W56782   8.921  26.503   2.196
84358W        W56783  13.644  16.627  13.890
84359W        W56784  24.132  26.446   3.242
84360W        W56785   0.170  33.690   9.689
84361W        W56786  10.128   3.746   2.012
84362W        W56787  36.211  26.700  11.065
84363W        W56788  20.651   8.663   1.451
84364W        W56789   3.790  12.595   2.656
84365W        W56790  41.326  35.953   2.498
84366W        W56791  42.735  41.815   3.242
84367W        W56792  19.668  37.901   4.659
84368W        W56793   2.174   1.585  13.935
84369W        W56794  22.163  27.982   4.096
84370W        W56795  36.390  22.990   2.221
84371W        W56796  41.497  42.224   3.621
84372W        W56797  26.495  13.887  10.759
84373W        W56798  26.528   8.878  11.009
84374W        W56799  25.617  21.496   0.512
84375W        W56800  17.420   6.957   0.864
84376W        W56801  41.514  22.237  11.011
84377W        W56802  28.281  37.888  13.345
84378W        W56803  30.416  39.013  13.442
84379W        W56804  23.528  23.034   0.964
84380W        W56805   9.120  10.382   4.587
84381W        W56806  12.036   9.674   2.249
84382W        W56807  39.518  36.749  14.106
84383W        W56808  10.106  33.136  12.994
84384W        W56809  33.839  11.653   1.787
84385W        W56810  34.041   8.425   3.816
84386W        W56811   9.245  15.580  12.962
84387W        W56812   1.411   8.490  12.026
84388W        W56813   4.205  40.573  12.084
84389W        W56814  38.277  13.355  12.167
84390W        W56815  30.504  39.007   4.935
84391W        W56816  10.153  35.144   4.704
84392W        W56817  20.254  23.326   2.156
84393W        W56818  33.718   4.857   0.410
84394W        W56819  13.870   5.179  10.598
84395W        W56820  18.356  20.068   4.210
84396W        W56821  10.698   2.062   0.533
84397W        W56822   7.861  15.245  13.970
84398W        W56823  42.811  14.360  10.943
84399W        W56824   7.426  27.902   1.397
84400W        W56825  14.118   9.792   1.912
84401W        W56826  40.104  17.113  11.183
84402W        W56827   4.355  42.617  11.017
84403W        W56828  33.658  29.667   2.638
84404W        W56829  41.268  17.488   1.460
84405W        W56830  27.710  36.835   1.889
84406W        W56831  25.263  14.277  13.300
84407W        W56832   4.188  40.622   1.917
84408W        W56833  30.526  31.849   2.329
84409W        W56834  33.591   0.471   4.247
84410W        W56835  26.260   0.709   3.387
84411W        W56836   6.733  24.017   4.116
84412W        W56837  39.061  33.862   0.260
84413W        W56838  10.394  25.625  10.617
84414W        W56839   9.370  44.309   0.939
84415W        W56840   7.061  20.233  12.941
84416W        W56841  41.389   5.804  12.623
84417W        W56842  11.486  35.076  11.072
84418W        W56843  26.040   7.215   2.465
84419W        W56844  15.668  41.415   0.431
84420W        W56845   7.843  15.870  12.027
84421W        W56846  33.625  14.570   3.680
84422W        W56847  18.527   5.656   2.405
84423W        W56848  21.046   9.232  11.544
84424W        W56849  22.394  34.573  13.974
84425W        W56850  38.243   0.502  13.835
84426W        W56851  24.450   8.251   1.645
84427W        W56852   3.566   9.443  11.158
84428W        W56853  10.295  28.201   0.337
84429W        W56854  26.471  19.334   0.725
84430W        W56855   6.009  37.087   0.833
84431W        W56856   8.434  28.548  11.181
84432W        W56857  36.629  29.607   0.011
84433W        W56858  38.265  19.262   2.882
84434W        W56859  38.767   7.818   3.257
84435W        W56860  36.719  26.168   1.949
84436W        W56861  25.078  42.921   2.120
84437W        W56862   6.832  34.800   3.800
84438W        W56863  24.307  24.250   2.770
84439W        W56864  40.527  13.834  11.088
84440W        W56865  22.432   0.070  11.219
84441W        W56866  15.663  12.705   4.161
84442W        W56867  15.825  20.966   0.000
84443W        W56868   6.699  20.664   0.811
84444W        W56869  20.019  41.343   4.617
84445W        W56870  43.443  35.807   3.686
84446W        W56871  13.374   2.892  13.417
84447W        W56872  24.077  37.282   0.018
84448W        W56873  10.792  35.593   2.652
84449W        W56874   2.040  40.731  14.329
84450W        W56875   6.437   0.804   1.507
84451W        W56876   2.392   8.429   1.601
84452W        W56877  30.789   8.146  13.283
84453W        W56878  35.561   0.104  13.436
84454W        W56879   0.798   9.931   3.698
84455W        W56880   2.301  34.515  11.702
84456W        W56881  28.585  20.562  13.307
84457W        W56882  32.980  17.830  13.878
84458W        W56883  27.418  33.501  13.540
84459W        W56884  12.305  12.656  11.733
84460W        W56885  35.859   9.278  10.727
84461W        W56886  33.229  40.875   3.717
84462W        W56887  13.791   5.343  14.818
84463W        W56888  32.902  44.099   4.259
84464W        W56889  36.117  16.771   0.842
84465W        W56890   4.160  39.880   1.317
84466W        W56891  22.285  20.104   1.792
84467W        W56892  36.331  30.085  10.476
84468W        W56893  23.062   3.979  13.526
84469W        W56894   6.933   7.291   0.900
84470W        W56895  21.130  16.326  11.539
84471W        W56896  22.296  29.943   4.680
84472W        W56897  26.616  26.640  13.798
84473W        W56898   1.632  28.134  11.519
84474W        W56899  41.178   5.868   1.865
84475W        W56900  23.110  29.987  10.659
84476W        W56901   0.104  24.291   1.889
84477W        W56902  40.165   8.142   3.723
84478W        W56903  26.227  21.149  12.831
84479W        W56904   2.298   0.341   0.991
84480W        W56905   9.446  37.923   2.261
84481W        W56906   9.018  18.333  13.954
84482W        W56907  12.812  23.628   0.092
84483W        W56908  11.865  43.849   0.703
84484W        W56909   4.944  37.843  11.684
84485W        W56910  31.099  28.640   2.586
84486W        W56911  26.814  29.036   4.063
84487W        W56912   6.472  41.023   2.796
84488W        W56913  16.757   8.640   4.194
84489W        W56914   9.247  42.406  12.139
84490W        W56915  29.097  35.314   2.443
84491W        W56916  22.115   8.180   3.085
84492W        W56917  26.425  35.833   3.210
84493W        W56918  14.090  13.251   1.869
84494W        W56919  10.161  31.364  14.395
84495W        W56920  13.326   6.179   0.815
84496W        W56921  13.822  20.560   0.894
84497W        W56922   2.942  43.502   1.731
84498W        W56923  43.203   0.042   3.785
84499W        W56924  33.987  23.493  13.998
84500W        W56925   8.493  41.409  11.155
84501W        W56926  18.785  33.343  14.453
84502W        W56927  41.034  22.651  13.825
84503W        W56928  34.964  16.212  10.748
84504W        W56929  19.716   6.768  14.838
84505W        W56930  33.822  42.057  11.974
84506W        W56931  28.014  26.951   2.429
84507W        W56932  12.762  30.978   0.185
84508W        W56933  30.585  37.286  13.769
84509W        W56934   1.009  44.769   0.775
84510W        W56935  42.210  23.240   0.347
84511W        W56936  42.595  40.243   1.430
84512W        W56937  28.131  18.016  14.912
84513W        W56938  43.225  20.515  13.782
84514W        W56939  10.227  23.527   3.326
84515W        W56940   9.215  29.072  13.403
84516W        W56941   4.514   5.932  13.932
84517W        W56942  38.414   8.890  11.105
84518W        W56943  33.151  13.147  13.978
84519W        W56944  18.323  13.779  11.198
84520W        W56945  42.437  36.548  13.865
84521W        W56946  17.805   1.420   4.093
84522W        W56947  20.450  14.295   0.251
84523W        W56948  32.136   1.767  13.928
84524W        W56949   8.742   5.690  12.145
84525W        W56950  16.617  12.274   4.209
84526W        W56951   5.304  32.833   0.169
84527W        W56952   1.568  14.655  10.493
84528W        W56953   8.009  21.018   3.709
84529W        W56954   1.041   7.198  13.862
84530W        W56955  34.109  35.727   2.853
84531W        W56956  19.619  22.167   1.396
84532W        W56957  24.714   6.731   3.631
84533W        W56958  21.233  15.232   2.300
84534W        W56959  36.113  22.050  14.476
84535W        W56960   3.861  35.848   3.708
84536W        W56961  11.598   5.715  14.391
84537W        W56962  28.281  16.820   0.700
84538W        W56963   4.373  32.044   0.811
84539W        W56964  28.621  19.082   4.332
84540W        W56965  36.480  12.132  10.733
84541W        W56966  12.063  23.519  10.227
84542W        W56967  24.307  22.395   2.509
84543W        W56968  20.754   8.822  14.433
84544W        W56969  13.553  10.874   2.721
84545W        W56970  21.114  42.760  11.823
84546W        W56971  29.165  36.514   4.839
84547W        W56972  17.048   8.840   2.697
84548W        W56973  40.026  42.446  11.233
84549W        W56974   9.181   6.215   0.257
84550W        W56975  16.022  40.979   2.767
84551W        W56976  28.668  11.652   3.720
84552W        W56977   8.778  30.588   1.994
84553W        W56978  25.682  18.165   3.201
84554W        W56979  29.499   6.757   2.880
84555W        W56980  18.295  31.362  11.491
84556W        W56981  25.783  15.206  10.749
84557W        W56982  27.304  32.113   1.044
84558W        W56983   7.668  19.564  14.308
84559W        W56984  24.374  19.588   1.427
84560W        W56985  19.991   2.890   1.910
84561W        W56986  20.982  14.285   0.296
84562W        W56987  33.295  17.876  12.938
84563W        W56988  33.933  16.349  13.860
84564W        W56989  36.954  20.567  12.479
84565W        W56990  38.543  44.071   1.974
84566W        W56991  27.023  21.004   2.617
84567W        W56992   1.809  43.568   0.870
84568W        W56993  29.675  22.169   1.767
84569W        W56994   0.714  13.402   0.366
84570W        W56995  12.458  33.703  14.333
84571W        W56996  36.733  21.966  13.105
84572W        W56997  40.842  43.525   2.748
84573W        W56998  41.392  26.898   1.841
84574W        W56999  34.018   9.426   3.870
84575W        W57000  15.188  36.448  10.382
84576W        W57001   3.524  17.736   1.511
84577W        W57002  26.763  42.802   4.092
84578W        W57003  20.125  41.084  10.979
84579W        W57004   5.205  43.547  13.961
84580W        W57005  13.127  10.295  14.205
84581W        W57006  17.891  43.918  12.941
84582W        W57007  41.814  35.689   1.846
84583W        W57008  18.059  16.630   1.665
84584W        W57009  36.805   8.310  11.606
84585W        W57010  20.524   2.217   3.696
84586W        W57011   7.725  39.290  12.906
84587W        W57012  18.829  42.078   0.905
84588W        W57013  26.691  15.346   4.197
84589W        W57014  27.909  12.739  11.705
84590W        W57015  36.954  24.429  11.655
84591W        W57016  29.390  16.180  14.907
84592W        W57017  41.998  30.911  11.621
84593W        W57018  23.216  12.775  13.508
84594W        W57019   9.315  36.201   0.926
84595W        W57020  42.898  29.367   3.711
84596W        W57021  25.061  29.594  11.016
84597W        W57022  39.936  44.021   4.708
84598W        W57023  25.867  39.890   0.763
84599W        W57024  15.272  32.938   3.655
84600W        W57025   3.861   8.854  10.656
84601W        W57026  14.111   7.250   4.288
84602W        W57027  22.316  32.289   4.579
84603W        W57028  36.953   0.977  10.632
84604W        W57029  38.926  38.829  12.477
84605W        W57030  34.420  36.129   0.321
84606W        W57031  39.327  10.334  13.206
84607W        W57032  29.829  44.254  12.154
84608W        W57033  36.188  24.545  11.256
84609W        W57034  35.713  15.082   2.804
84610W        W57035  21.014  32.068  11.454
84611W        W57036  31.571  36.838  12.051
84612W        W57037  28.634  28.024   1.946
84613W        W57038  13.167  40.058  14.846
84614W        W57039  25.917  37.083  11.640
84615W        W57040  39.895   4.118  12.085
84616W        W57041  10.920  10.232  14.636
84617W        W57042   1.890   1.374  13.539
84618W        W57043  28.653  36.130  12.064
84619W        W57044   6.251  31.399  11.782
84620W        W57045  15.656  33.388  14.311
84621W        W57046  26.114  44.316  11.664
84622W        W57047  37.990  15.311  11.540
84623W        W57048  15.888  24.992   4.611
84624W        W57049  40.423  10.189  10.238
84625W        W57050  23.518  37.948   0.418
84626W        W57051  31.315  32.865   2.798
84627W        W57052   6.778  20.783  11.155
84628W        W57053   2.480  12.107   2.059
84629W        W57054  41.114   3.316  13.454
84630W        W57055  30.905  43.485   0.040
84631W        W57056  30.070   4.971  12.962
84632W        W57057  32.165   5.310  10.469
84633W        W57058  43.484  20.131  13.202
84634W        W57059   5.458  15.227   2.162
84635W        W57060  44.974  35.556   0.428
84636W        W57061  19.801   1.747   1.558
84637W        W57062  43.299  42.094   4.101
84638W        W57063   0.338  44.933  13.271
84639W        W57064  17.594  12.228  11.165
84640W        W57065  30.839  34.425   2.688
84641W        W57066  30.572  33.343   2.324
84642W        W57067  34.897  28.130   2.849
84643W        W57068   3.761   7.233   0.020
84644W        W57069   2.111   9.719  14.273
84645W        W57070   8.004  44.057  13.524
84646W        W57071  27.544  22.219   4.076
84647W        W57072  32.392  29.730   3.601
84648W        W57073  36.052  29.371  13.314
84649W        W57074   1.553  15.688   2.259
84650W        W57075  19.759   5.110   1.701
84651W        W57076  15.246  33.657  14.563
84652W        W57077  43.408  22.116  11.835
84653W        W57078  22.151  28.201  11.546
84654W        W57079  29.056  12.799  10.992
84655W        W57080   3.349  40.767   2.325
84656W        W57081  16.970  35.322   1.420
84657W        W57082  35.762  39.305   1.239
84658W        W57083  10.644   7.295  11.941
84659W        W57084  40.279  32.597  12.546
84660W        W57085  41.661  37.473   3.623
84661W        W57086  25.137  15.465   4.145
84662W        W57087   2.254  17.579   2.012
84663W        W57088  22.782  27.655  14.782
84664W        W57089  11.710  16.169  10.986
84665W        W57090  40.892  40.218   1.278
84666W        W57091  13.957  22.621   0.402
84667W        W57092  40.375  40.114  14.456
84668W        W57093   4.468  28.963  14.526
84669W        W57094  35.869  32.941  12.904
84670W        W57095  43.919   2.050  12.129
84671W        W57096  18.735  28.076  14.427
84672W        W57097  42.051  14.161  14.612
84673W        W57098   4.901   1.514  12.525
84674W        W57099   9.807  32.106  11.006
84675W        W57100   5.843  17.268  12.321
84676W        W57101  41.292  15.359   1.780
84677W        W57102  20.025  23.110   4.841
84678W        W57103  35.706  36.548  14.630
84679W        W57104  44.901   3.985   0.421
84680W        W57105  20.395  27.951  14.824
84681W        W57106  13.335  13.010   2.199
84682W        W57107   7.374  27.643  10.919
84683W        W57108  39.952  19.301  12.910
84684W        W57109  44.534  17.801   3.657
84685W        W57110  36.371  23.493   4.536
84686W        W57111   4.461   4.330  14.894
84687W        W57112  21.711   7.651  14.568
84688W        W57113  44.187   1.777  14.831
84689W        W57114  23.921  44.808   2.222
84690W        W57115  38.910  20.557  14.058
84691W        W57116  36.390  30.223  13.625
84692W        W57117  11.135  29.917   3.336
84693W        W57118  18.717  38.175  10.699
84694W        W57119  35.922  15.560  11.375
84695W        W57120  16.497  31.559   4.597
84696W        W57121  17.284  43.112   4.698
84697W        W57122  10.864   8.813  11.592
84698W        W57123  16.686  21.929   4.360
84699W        W57124  34.697  37.322   0.877
84700W        W57125  17.860  30.963   1.874
84701W        W57126  30.094   8.287   1.441
84702W        W57127  14.230  23.906  13.930
84703W        W57128  29.173  10.834   0.314
84704W        W57129  16.190  10.635   3.397
84705W        W57130   2.190  30.807  10.435
84706W        W57131  27.814  33.368  13.221
84707W        W57132  22.476   1.278  13.774
84708W        W57133  17.784  22.486  10.840
84709W        W57134  43.290  28.093   4.588
84710W        W57135  43.316  16.781  13.729
84711W        W57136   4.494  35.113  14.383
84712W        W57137  39.563  25.233   3.271
84713W        W57138  34.643  38.885   4.063
84714W        W57139   8.715   5.695   3.773
84715W        W57140  20.629   5.490   4.464
84716W        W57141  39.308  44.900   1.351
84717W        W57142   8.814  30.979   1.034
84718W        W57143  31.870  38.875   2.793
84719W        W57144  24.701   6.716  11.878
84720W        W57145   8.218  14.339   0.492
84721W        W57146  39.748  16.956   2.665
84722W        W57147  34.509  30.511   1.215
84723W        W57148  41.386  35.945  14.946
84724W        W57149  43.986  28.193  11.584
84725W        W57150   3.918  24.948  13.863
84726W        W57151  39.845  40.348  10.993
84727W        W57152  30.058  30.884  12.322
84728W        W57153  30.546  16.390   3.278
84729W        W57154  38.327   2.231   0.294
84730W        W57155   1.158  25.562   4.337
84731W        W57156  10.604  18.299   2.919
84732W        W57157  37.853  25.579   3.285
84733W        W57158   6.891   5.243   2.678
84734W        W57159  32.176  33.926   4.897
84735W        W57160  34.135  13.984   4.521
84736W        W57161  24.569  24.526   4.926
84737W        W57162  42.244   1.881  13.006
84738W        W57163  37.580   1.758   4.214
84739W        W57164  38.022  37.565   4.834
84740W        W57165   8.299  15.843   0.471
84741W        W57166   6.752   5.952   3.693
84742W        W57167   5.685  31.003  14.971
84743W        W57168   0.430  38.093  12.127
84744W        W57169  29.187  27.895  12.554
84745W        W57170  20.524  44.184  11.605
84746W        W57171   1.159  10.420  13.840
84747W        W57172   5.151  17.141   5.155
84748W        W57173  40.451  37.548   1.249
84749W        W57174  12.572  39.435   1.416
84750W        W57175  18.150   9.115   4.066
84751W        W57176  28.547  24.681   2.159
84752W        W57177  17.767  39.070   2.679
84753W        W57178  25.075  11.604   1.298
84754W        W57179  20.782   9.646   0.847
84755W        W57180   1.202   1.809   4.118
84756W        W57181  26.881  23.516  12.990
84757W        W57182  11.114  44.809   3.331
84758W        W57183  39.640  19.446   4.022
84759W        W57184  22.026  19.013  11.413
84760W        W57185  22.105  42.295  13.436
84761W        W57186  20.918  17.498   4.272
84762W        W57187  16.196  31.555   2.487
84763W        W57188  37.347  21.207  10.358
84764W        W57189  40.545  12.819  11.240
84765W        W57190   6.730   0.791  11.920
84766W        W57191  24.245  23.452   3.115
84767W        W57192  32.942   6.958   2.467
84768W        W57193  16.989  15.542  13.402
84769W        W57194  37.034   2.876   4.191
84770W        W57195   6.915  35.313   3.622
84771W        W57196  10.216   1.960   4.622
84772W        W57197  32.433  19.563   4.086
84773W        W57198  32.856  32.603   0.845
84774W        W57199  36.581  15.717   0.358
84775W        W57200  21.913  43.776   4.026
84776W        W57201  32.748   5.795   0.407
84777W        W57202  43.552  31.060   3.476
84778W        W57203  13.118  42.763   1.235
84779W        W57204   1.741  12.984  12.630
84780W        W57205   9.738  28.080   0.349
84781W        W57206  40.385   9.898   1.383
84782W        W57207   2.253  23.630   4.363
84783W        W57208  16.187  26.425  12.566
84784W        W57209  43.777  14.058  13.435
84785W        W57210  31.532  40.008   4.807
84786W        W57211  11.416  26.469  11.028
84787W        W57212  36.768  36.849   2.704
84788W        W57213   9.504  20.037  11.212
84789W        W57214   2.827  38.359   1.417
84790W        W57215  22.456  21.508   4.060
84791W        W57216  16.482  36.544   0.066
84792W        W57217  28.726  37.577  13.993
84793W        W57218  30.939  35.473  12.967
84794W        W57219   8.658  32.643   0.271
84795W        W57220  28.666  35.298   3.426
84796W        W57221  27.069  27.909   1.040
84797W        W57222  33.911  34.810  12.554
84798W        W57223   0.176  41.491   2.828
84799W        W57224  18.073  28.447   4.062
84800W        W57225  14.450  15.174   4.344
84801W        W57226  36.112  41.546   2.317
84802W        W57227   8.211  22.614   2.228
84803W        W57228  39.808  19.224   2.757
84804W        W57229   5.769  32.961   2.157
84805W        W57230  40.914  19.709  14.372
84806W        W57231  10.620  12.345   0.933
84807W        W57232  22.697  26.965   2.657
84808W        W57233  23.028  36.836  13.908
84809W        W57234  13.168  15.759   3.635
84810W        W57235   8.392  33.723  13.990
84811W        W57236  12.299  39.114  12.333
84812W        W57237  29.586  40.221  13.489
84813W        W57238  34.598  24.934  10.762
84814W        W57239  32.477  28.963   4.091
84815W        W57240  22.006  26.411   2.673
84816W        W57241  23.153  38.863   4.607
84817W        W57242  43.576  26.068   4.116
84818W        W57243  29.254  20.987  10.651
84819W        W57244  23.541   1.164   3.517
84820W        W57245  39.048  12.734   0.261
84821W        W57246  24.133  11.794  11.872
84822W        W57247  35.482   6.698   0.710
84823W        W57248  22.113  42.512   4.044
84824W        W57249   6.397  20.791  11.626
84825W        W57250  23.196  31.585   2.239
84826W        W57251  19.770  36.495   2.716
84827W        W57252  32.282  17.708  14.459
84828W        W57253  19.364  35.012   2.788
84829W        W57254  13.432  40.775   0.395
84830W        W57255  43.953  39.867  14.519
84831W        W57256  34.909   9.384  10.663
84832W        W57257  14.524   6.253  13.838
84833W        W57258   9.578  14.790  14.528
84834W        W57259  36.454  26.508   4.337
84835W        W57260   8.834  10.326  14.037
84836W        W57261  19.512  18.159  13.920
84837W        W57262  22.351  10.382  14.972
84838W        W57263   9.483  31.088  11.573
84839W        W57264  44.794  12.421  11.921
84840W        W57265   9.426  35.013   4.154
84841W        W57266  39.389  21.120  14.599
84842W        W57267  40.442  19.237  13.132
84843W        W57268  31.491  41.351  14.774
84844W        W57269  32.732  39.866   1.801
84845W        W57270  26.598  12.609  11.958
84846W        W57271  31.920  30.476   4.875
84847W        W57272  41.415  26.460   5.164
84848W        W57273  31.333   0.445  10.867
84849W        W57274   4.854   1.559   3.713
84850W        W57275  27.650   6.076   3.969
84851W        W57276  18.347   8.652  11.826
84852W        W57277  11.606  41.516  13.853
84853W        W57278  33.636   3.922   3.870
84854W        W57279  14.661  27.578  12.368
84855W        W57280   4.889  33.492  12.472
84856W        W57281  21.009   3.854   2.213
84857W        W57282  32.394  26.942  12.506
84858W        W57283   6.516   0.356  11.283
84859W        W57284   8.710  19.493   4.665
84860W        W57285  13.300  26.686  10.224
84861W        W57286  21.016   2.524  10.665
84862W        W57287   5.821  16.597   0.027
84863W        W57288  24.085  21.210  13.898
84864W        W57289  24.045  14.630   4.702
84865W        W57290  19.482  35.990  11.638
84866W        W57291  27.171  20.982   4.518
84867W        W57292  30.585  23.548   5.665
84868W        W57293  31.184  32.645  13.362
84869W        W57294  15.527  40.452   1.292
84870W        W57295  28.543   0.362   4.815
84871W        W57296  35.177  24.439  11.144
84872W        W57297  29.375  38.853  10.593
84873W        W57298  22.920   2.898  14.797
84874W        W57299  34.445  19.753  12.441
84875W        W57300  28.933   3.769   2.570
84876W        W57301  38.280  37.766   1.798
84877W        W57302  10.155  44.511   1.394
84878W        W57303  40.327  20.404   3.618
84879W        W57304  30.665  42.472   4.895
84880W        W57305  42.500  21.310   0.567
84881W        W57306  11.528  28.823   1.057
84882W        W57307   0.939  20.497   0.211
84883W        W57308  13.317   8.804  14.424
84884W        W57309  16.115  35.790   1.212
84885W        W57310   9.792  28.411   1.922
84886W        W57311  28.659  41.529  12.460
84887W        W57312  35.871  14.387  11.546
84888W        W57313  37.604  36.436   3.247
84889W        W57314  30.628  28.148   4.683
84890W        W57315   0.819  23.706   2.129
84891W        W57316  41.692  26.921  14.898
84892W        W57317  41.584  38.506   2.713
84893W        W57318  21.566  12.769   5.241
84894W        W57319  25.213  27.471  11.099
84895W        W57320  16.856  40.295  12.567
84896W        W57321  28.644   5.879   0.468
84897W        W57322  10.792  25.369   2.151
84898W        W57323  22.336  44.907   3.161
84899W        W57324  30.324  11.701  14.078
84900W        W57325  12.016  25.710  14.758
84901W        W57326  24.320  44.973  12.846
84902W        W57327   5.247  18.859  11.159
84903W        W57328  18.870  27.556  12.080
84904W        W57329  10.274  41.090   2.334
84905W        W57330  25.305  37.499   3.589
84906W        W57331  34.565  21.512   0.027
84907W        W57332  31.102  37.621  14.763
84908W        W57333  15.686  39.742  12.876
84909W        W57334  44.275  14.096  12.073
84910W        W57335  15.954  40.590   5.146
84911W        W57336   1.270  31.459  12.715
84912W        W57337  18.157  25.033  12.360
84913W        W57338  21.083   8.994  13.370
84914W        W57339  11.471  15.255  10.729
84915W        W57340  17.603  19.280   1.211
84916W        W57341  24.568  19.090   1.292
84917W        W57342  30.224  39.773  14.385
84918W        W57343  27.894  43.871   0.768
84919W        W57344  30.443  36.986   4.752
84920W        W57345  29.807   4.927  12.477
84921W        W57346   4.283  23.624  12.489
84922W        W57347  31.185  30.105  12.611
84923W        W57348   3.361  11.743  11.615
84924W        W57349  37.342  22.013   2.454
84925W        W57350  16.340  16.732  13.204
84926W        W57351  14.236  29.957  11.618
84927W        W57352  11.929  41.012   1.501
84928W        W57353  43.966  33.102   4.117
84929W        W57354  38.644  41.098   3.363
84930W        W57355  43.735  31.214   1.148
84931W        W57356  15.210  31.665   4.289
84932W        W57357   2.581   6.807  10.601
84933W        W57358  40.295  23.715  11.626
84934W        W57359  22.571  10.220  14.510
84935W        W57360  34.387  23.660   4.756
84936W        W57361  40.888  12.801   2.372
84937W        W57362  24.242  30.053   0.914
84938W        W57363   9.439  12.588   3.699
84939W        W57364  24.496   5.268  11.544
84940W        W57365  37.522   2.196   4.574
84941W        W57366   7.318  12.111  14.807
84942W        W57367  26.617   5.737  12.953
84943W        W57368  16.190  11.942   4.275
84944W        W57369  12.760  19.800   1.744
84945W        W57370  44.738  38.826   2.443
84946W        W57371  28.643  44.402   5.096
84947W        W57372  17.779  25.659  13.769
84948W        W57373  32.487  40.562  11.411
84949W        W57374   0.537  43.054  13.561
84950W        W57375  29.389  41.925  11.685
84951W        W57376  42.006  34.934  13.612
84952W        W57377   6.997  11.233  13.543
84953W        W57378   3.386  12.709   3.159
84954W        W57379  31.568  19.096  13.640
84955W        W57380  29.142   3.875  12.935
84956W        W57381  38.415  12.094   3.087
84957W        W57382  22.356  39.827  13.603
84958W        W57383  43.205  31.872   4.758
84959W        W57384   6.968  41.021   1.489
84960W        W57385  37.482  28.125  14.753
84961W        W57386  18.756  10.662  10.697
84962W        W57387  26.592   3.276  10.929
84963W        W57388  31.475  29.867  14.827
84964W        W57389  25.929  10.824  11.681
84965W        W57390  25.731  19.764   2.673
84966W        W57391  18.352  26.394  13.787
84967W        W57392  37.572  10.436  13.757
84968W        W57393  31.566  41.161   2.687
84969W        W57394   2.802   4.182   1.283
84970W        W57395  33.496  30.651   1.747
84971W        W57396   2.965  19.798  10.385
84972W        W57397  34.008   7.163   1.848
84973W        W57398  44.446  23.545  10.138
84974W        W57399  27.247  41.538   2.613
84975W        W57400  20.704   0.033  11.971
84976W        W57401  37.926  22.732  14.847
84977W        W57402  24.923  21.195   2.698
84978W        W57403  20.569  24.116   4.367
84979W        W57404  29.512   1.407   1.031
84980W        W57405  22.342  28.553   1.654
84981W        W57406  34.322  40.453   1.419
84982W        W57407  16.920  18.023  12.478
84983W        W57408  25.946  10.650  12.160
84984W        W57409   3.766  22.115  13.479
84985W        W57410  30.139  33.422  11.284
84986W        W57411  34.104  30.171   3.300
84987W        W57412   8.203  26.419   1.864
84988W        W57413   1.489  11.381  13.822
84989W        W57414  33.607  41.659  14.790
84990W        W57415  30.296  43.976  13.458
84991W        W57416   8.824  16.123   2.228
84992W        W57417  14.295   6.871   1.257
84993W        W57418   3.159  25.004  10.778
84994W        W57419  25.494   8.613   3.054
84995W        W57420  41.098  17.707   4.254
84996W        W57421   8.378   8.882  13.933
84997W        W57422  10.641  12.791   4.584
84998W        W57423  16.803  33.953   3.231
84999W        W57424  37.263  43.948   4.093
85000W        W57425  36.033   2.803  10.700
85001W        W57426  33.452  11.737  13.802
85002W        W57427  41.824  26.547  10.228
85003W        W57428  29.580  28.631   2.281
85004W        W57429  29.469  14.351   2.412
85005W        W57430  44.402  37.659  12.748
85006W        W57431  11.555  26.610  11.984
85007W        W57432  30.639  38.963  12.981
85008W        W57433  13.280  30.134   2.857
85009W        W57434  14.646  24.211  14.040
85010W        W57435  42.261  35.045   4.174
85011W        W57436   6.317  19.582  11.571
85012W        W57437   2.688  14.105   1.839
85013W        W57438   3.379  18.593  11.215
85014W        W57439  42.861   0.828  14.711
85015W        W57440  21.028  32.364   4.146
85016W        W57441   8.630  38.442   4.638
85017W        W57442  18.253  14.834   3.623
85018W        W57443  32.972   5.312  12.047
85019W        W57444  43.490  24.728  12.369
85020W        W57445  17.758   9.316   2.444
85021W        W57446  35.924   6.405  13.009
85022W        W57447  33.062   9.938   4.041
85023W        W57448  30.930  14.932   3.484
85024W        W57449  35.413   0.483  11.959
85025W        W57450  29.446  38.956   4.165
85026W        W57451  32.104  40.283   0.270
85027W        W57452  13.017   4.368   5.095
85028W        W57453  42.867  37.056   4.057
85029W        W57454  28.460  40.507   4.696
85030W        W57455  34.983  24.557   1.997
85031W        W57456  37.978  20.105  14.401
85032W        W57457  41.454  21.010   1.301
85033W        W57458   3.303  37.424  13.476
85034W        W57459  13.789  12.826  12.739
85035W        W57460  16.035   2.765  10.848
85036W        W57461   0.755   1.587  13.954
85037W        W57462  23.594  18.982  13.793
85038W        W57463  37.672  25.728  11.415
85039W        W57464  33.129   3.011  12.884
85040W        W57465  43.258   2.331  14.110
85041W        W57466  27.954   4.415   3.326
85042W        W57467   0.422   4.557  11.094
85043W        W57468  23.172  38.840   2.186
85044W        W57469   2.676  31.592  11.379
85045W        W57470  34.442  19.627  11.411
85046W        W57471  22.003  40.307   2.179
85047W        W57472  40.126  42.527   3.703
85048W        W57473  40.819  32.398  13.254
85049W        W57474  40.466  28.093  11.506
85050W        W57475   2.381  43.908   4.652
85051W        W57476   2.793  22.780   2.307
85052W        W57477  14.814  28.264  11.682
85053W        W57478  33.857  23.235  13.565
85054W        W57479  11.518  38.037  13.409
85055W        W57480  39.375  15.695  13.833
85056W        W57481  44.037  17.421  13.315
85057W        W57482  38.990  38.107  10.527
85058W        W57483  31.633  31.622  14.348
85059W        W57484  41.085  44.893  13.009
85060W        W57485  39.518  41.558   4.240
85061W        W57486  42.110  21.171   5.099
85062W        W57487  21.526   7.832   0.560
85063W        W57488   8.330  27.614  12.742
85064W        W57489  44.523   2.162  11.079
85065W        W57490   5.151  11.639   1.940
85066W        W57491  44.050  35.482   1.352
85067W        W57492   4.948  36.319  14.826
85068W        W57493  38.303  27.602   3.299
85069W        W57494   8.756  38.612   0.812
85070W        W57495  25.991  39.999  11.905
85071W        W57496  39.467   8.186  12.658
85072W        W57497  32.025  40.860   4.497
85073W        W57498  18.592   5.879   1.392
85074W        W57499  34.552  29.957  12.491
85075W        W57500  25.576  36.965   1.012
85076W        W57501   7.075   8.459  12.987
85077W        W57502   9.247  26.154   4.631
85078W        W57503  41.217  21.748   5.142
85079W        W57504  11.387  26.127   2.852
85080W        W57505   0.991  29.556  11.892
85081W        W57506  30.511  37.456   0.595
85082W        W57507   3.516  44.701  10.766
85083W        W57508   9.732  19.385   1.136
85084W        W57509  26.664  30.285   0.377
85085W        W57510  29.675   6.247   3.743
85086W        W57511  31.629  29.409   2.154
85087W        W57512  44.340   8.549  13.666
85088W        W57513  20.555  18.242  11.664
85089W        W57514  29.757  31.931   0.009
85090W        W57515  26.350  41.655   2.047
85091W        W57516  17.149  44.267   3.205
85092W        W57517  42.913  25.425  10.557
85093W        W57518  30.655   4.871  14.374
85094W        W57519   0.505  32.889  12.053
85095W        W57520  33.871  35.834  10.994
85096W        W57521  25.222   8.623  12.498
85097W        W57522  41.960  12.074   2.929
85098W        W57523  14.354  39.295   4.028
85099W        W57524  31.161  34.960  12.554
85100W        W57525  35.301  27.620   0.846
85101W        W57526  10.604  10.353   0.033
85102W        W57527  27.616  31.735   4.302
85103W        W57528  22.200  43.442  13.622
85104W        W57529  20.723  18.585  14.005
85105W        W57530  15.512  27.223   2.463
85106W        W57531   9.624  14.346   1.266
85107W        W57532  14.185   3.099  12.250
85108W        W57533   5.715  22.712   2.605
85109W        W57534   0.782  26.680  11.040
85110W        W57535  41.879  41.991  12.927
85111W        W57536  18.840  13.846   3.815
85112W        W57537   6.355  14.114   2.427
85113W        W57538  33.528  39.089  11.515
85114W        W57539  36.863  15.203   1.355
85115W        W57540  14.627  20.217  14.886
85116W        W57541  32.959   4.745  12.065
85117W        W57542  30.513  20.085   2.700
85118W        W57543  26.984  22.316   0.309
85119W        W57544  19.270   8.256   3.808
85120W        W57545  30.780  11.904  11.760
85121W        W57546  20.992   7.058   2.881
85122W        W57547  21.098  43.550   0.375
85123W        W57548  25.696   1.959   5.223
85124W        W57549   8.556  10.816  11.765
85125W        W57550  14.765   3.035   1.486
85126W        W57551   4.349  25.975  11.891
85127W        W57552  39.856  39.519  13.421
85128W        W57553  15.335   9.801  13.449
85129W        W57554  25.115  13.879  11.535
85130W        W57555  24.179   1.740   1.811
85131W        W57556   2.864  38.521   2.431
85132W        W57557   0.292   2.198  14.308
85133W        W57558  38.391  11.216  11.990
85134W        W57559  29.829  19.201  11.960
85135W        W57560  12.663   0.817  12.601
85136W        W57561  32.153  41.143  11.971
85137W        W57562   7.932  12.372   0.388
85138W        W57563  15.160  13.673   3.900
85139W        W57564  24.617  20.861  12.032
85140W        W57565   7.652  14.649  12.456
85141W        W57566  16.737   4.025  14.388
85142W        W57567   6.367  31.835   3.249
85143W        W57568  31.203  36.873   0.291
85144W        W57569  20.266  39.290   1.280
85145W        W57570  31.059  10.601  11.129
85146W        W57571  32.544  19.723   1.384
85147W        W57572  40.589  34.990  13.430
85148W        W57573  37.625  35.052   4.465
85149W        W57574  16.962  19.000   2.600
85150W        W57575  16.291   4.430   4.586
85151W        W57576  20.583   3.487   2.901
85152W        W57577  41.587   9.189   3.737
85153W        W57578  31.256   2.505  10.920
85154W        W57579   1.281   3.753  12.605
85155W        W57580  29.503  20.278   4.920
85156W        W57581   3.657  13.942   1.060
85157W        W57582  16.179  30.543   1.468
85158W        W57583   0.229  31.086  14.003
85159W        W57584  31.876  33.217   2.063
85160W        W57585   9.105  20.633   1.910
85161W        W57586  38.299  41.299  13.502
85162W        W57587  20.523  44.800   1.234
85163W        W57588  23.210  41.445  12.020
85164W        W57589   8.713  27.741  14.266
85165W        W57590  14.226  33.363  11.595
85166W        W57591  33.980   5.313   0.453
85167W        W57592  22.667  37.767   4.338
85168W        W57593  21.618  25.147   4.149
85169W        W57594  22.149  36.825  10.940
85170W        W57595   0.826  25.141   1.638
85171W        W57596  30.378  18.076   2.728
85172W        W57597  21.217   0.456   1.436
85173W        W57598  42.682  42.859   2.865
85174W        W57599   1.298  27.206  14.617
85175W        W57600  39.347  30.964   1.935
85176W        W57601  34.053  42.254  13.424
85177W        W57602  44.895  13.266   2.688
85178W        W57603  33.101  10.859  10.661
85179W        W57604  12.216  36.828  12.991
85180W        W57605  37.132   5.979   0.497
85181W        W57606  19.632  37.751   0.659
85182W        W57607  19.570  20.944  12.261
85183W        W57608  12.734  35.101  12.960
85184W        W57609  18.588  39.809  12.622
85185W        W57610  30.122  24.672   0.969
85186W        W57611  43.865   8.301   0.520
85187W        W57612   7.229  12.792   4.074
85188W        W57613  39.548  26.264   4.241
85189W        W57614  22.655   9.755   5.453
85190W        W57615  17.761  31.788   1.311
85191W        W57616  32.325  20.305   3.930
85192W        W57617  36.974  34.011  13.118
85193W        W57618  14.824  10.877   0.451
85194W        W57619  19.624   5.706   4.421
85195W        W57620  29.846  15.158  12.528
85196W        W57621  13.224   7.679  12.088
85197W        W57622  14.583   8.872   3.780
85198W        W57623  26.571  40.369   3.300
85199W        W57624  22.629  12.367   0.684
85200W        W57625  23.979  41.480  14.365
85201W        W57626  21.148   5.279   1.091
85202W        W57627  11.598  41.301  12.100
85203W        W57628  35.791  26.487   4.275
85204W        W57629  15.594  38.855  14.547
85205W        W57630  35.908  41.548  11.671
85206W        W57631  19.066  39.821   3.395
85207W        W57632  27.856   7.587   2.967
85208W        W57633   5.413  41.598  13.819
85209W        W57634  32.508   5.801  14.948
85210W        W57635  24.987   4.907   4.584
85211W        W57636   2.269  12.657  11.466
85212W        W57637  21.573  11.164  11.514
85213W        W57638  24.278  27.306   2.082
85214W        W57639  36.410   0.003  13.820
85215W        W57640  10.329   6.196   2.246
85216W        W57641  33.451   5.808   2.539
85217W        W57642  42.900  31.982  10.194
85218W        W57643  23.675  36.098  13.312
85219W        W57644  40.762  23.276   1.864
85220W        W57645   0.437  44.521   9.985
85221W        W57646  14.483  15.941  12.736
85222W        W57647  19.170  30.029   2.350
85223W        W57648  36.617  42.428   1.672
85224W        W57649  13.846  34.009   3.699
85225W        W57650  14.447   9.393  14.542
85226W        W57651  40.937  21.554   9.779
85227W        W57652  41.240   6.295  12.853
85228W        W57653  13.865  41.426  14.835
85229W        W57654  36.827  32.999  11.417
85230W        W57655   8.830   3.411   3.204
85231W        W57656  36.465  35.454  11.738
85232W        W57657  27.655  12.198  13.576
85233W        W57658   1.035  26.683   4.572
85234W        W57659   0.783  23.616   3.149
85235W        W57660  15.891  22.093  14.358
85236W        W57661  44.707  37.416  11.180
85237W        W57662  15.307  22.155   4.143
85238W        W57663  20.715  22.128  11.491
85239W        W57664   2.599  38.844   1.219
85240W        W57665  35.063   0.733   3.280
85241W        W57666  14.755  43.794  14.813
85242W        W57667  26.467   3.684  14.845
85243W        W57668  20.622   2.970  14.310
85244W        W57669  41.837  19.939   1.320
85245W        W57670   1.201  43.502   4.794
85246W        W57671  25.125  25.558  13.279
85247W        W57672  41.168  34.521   2.196
85248W        W57673  30.196  44.199  12.496
85249W        W57674   6.157  11.335  14.998
85250W        W57675   9.422  41.723  14.335
85251W        W57676  16.781  24.163   0.695
85252W        W57677   0.505  17.483  12.008
85253W        W57678  33.843  32.009   2.976
85254W        W57679  29.321  38.295   2.138
85255W        W57680  40.798  11.269  13.039
85256W        W57681  37.503  19.049  14.390
85257W        W57682  16.702  40.867   0.703
85258W        W57683  12.857  22.280   3.309
85259W        W57684   2.760  42.963   3.159
85260W        W57685  31.985  32.562   1.159
85261W        W57686  19.929   2.742  12.424
85262W        W57687  42.155  27.876  12.987
85263W        W57688   5.766  36.929  10.507
85264W        W57689   9.236   5.342  12.880
85265W        W57690  22.555   4.898   1.308
85266W        W57691  20.347  33.850  13.649
85267W        W57692  17.775   8.677  11.554
85268W        W57693  20.512  13.746   1.265
85269W        W57694  15.169   9.393   0.749
85270W        W57695   8.041  37.066  10.592
85271W        W57696   5.123  44.213  14.776
85272W        W57697  30.848  36.832  14.488
85273W        W57698   7.688  25.487   1.945
85274W        W57699  28.692  33.576   1.824
85275W        W57700  29.729  10.159  11.210
85276W        W57701  24.560  30.525  11.253
85277W        W57702  37.291   9.334   5.490
85278W        W57703   3.221  22.625   4.489
85279W        W57704  33.072  35.059  14.465
85280W        W57705   1.369  44.373   2.800
85281W        W57706  13.347  42.226   4.855
85282W        W57707   3.325  19.175  11.161
85283W        W57708  16.060  16.644   2.673
85284W        W57709  12.096   1.934   9.660
85285W        W57710  15.230  18.090  11.273
85286W        W57711  17.266  20.573   0.591
85287W        W57712  41.755  28.721   0.481
85288W        W57713  20.729  13.831   0.269
85289W        W57714   2.387  21.180  14.769
85290W        W57715   7.827  39.748   4.734
85291W        W57716   6.912  24.243   4.550
85292W        W57717   6.594  43.490  14.000
85293W        W57718  34.473  13.274  11.572
85294W        W57719  21.080  11.531   5.082
85295W        W57720  13.562  42.718   1.826
85296W        W57721  32.578   7.043   4.294
85297W        W57722  10.344  35.536   2.357
85298W        W57723  10.302  20.670   2.691
85299W        W57724  38.495  41.648  13.179
85300W        W57725  42.872  38.079  14.712
85301W        W57726  22.339  33.378   0.953
85302W        W57727   8.914  26.023  13.372
85303W        W57728  17.843  22.484  14.009
85304W        W57729  40.132  40.946  13.474
85305W        W57730   5.588  27.046  14.887
85306W        W57731  44.287  19.232   2.784
85307W        W57732   4.434  18.728  11.727
85308W        W57733  20.131  39.359  12.349
85309W        W57734  26.927  42.306  14.060
85310W        W57735   8.780   1.022  12.023
85311W        W57736  41.054  11.076   2.349
85312W        W57737   4.014  17.553  11.047
85313W        W57738   5.765  39.009   0.563
85314W        W57739  42.767  43.773   2.247
85315W        W57740  31.430  16.273  12.104
85316W        W57741  43.440  29.215   5.404
85317W        W57742   6.140  32.981  11.632
85318W        W57743  36.842  13.302   2.812
85319W        W57744  34.168  19.133  11.916
85320W        W57745  11.259  10.090  12.767
85321W        W57746  28.190  43.249  10.496
85322W        W57747  43.397  40.360   0.032
85323W        W57748  37.774   1.275   0.859
85324W        W57749  23.531   0.676  14.780
85325W        W57750  40.511  12.168   0.894
85326W        W57751  21.339  18.898   3.775
85327W        W57752  14.652  18.562   2.323
85328W        W57753  17.525  37.932   2.300
85329W        W57754  44.697  42.816   4.253
85330W        W57755  40.116  36.895  14.949
85331W        W57756  43.745  30.360   5.090
85332W        W57757   2.824   4.274   3.204
85333W        W57758   1.992  22.496   4.445
85334W        W57759   2.515  37.099  11.355
85335W        W57760  25.112  35.505  13.393
85336W        W57761   1.339   4.236  12.909
85337W        W57762   3.511  12.153   2.447
85338W        W57763  25.176  24.588   0.363
85339W        W57764   9.261   0.915   4.552
85340W        W57765  44.856  23.915  13.411
85341W        W57766  42.755  28.675  13.590
85342W        W57767  27.220  35.685  12.486
85343W        W57768   2.501  10.199   3.560
85344W        W57769  36.787   9.316  10.706
85345W        W57770  29.708  28.415   3.265
85346W        W57771   4.274  22.695   2.675
85347W        W57772  22.520  41.871  13.050
85348W        W57773   0.263  29.434   2.705
85349W        W57774  12.681   2.636  13.094
85350W        W57775  12.980  20.054   3.615
85351W        W57776  36.954  29.050   9.884
85352W        W57777  32.023  16.226   0.505
85353W        W57778   7.808   5.567   2.127
85354W        W57779   6.943  11.928   1.840
85355W        W57780  35.526  18.582  13.720
85356W        W57781  42.917   8.348  10.640
85357W        W57782  11.404  15.256  11.999
85358W        W57783  23.934  24.160  13.948
85359W        W57784  24.777  32.737   5.055
85360W        W57785  29.646  15.227  11.676
85361W        W57786   4.627  27.749   3.751
85362W        W57787  10.139  30.635  13.007
85363W        W57788   5.280  27.962   2.636
85364W        W57789   5.724  18.865  12.381
85365W        W57790  43.675   0.391   0.046
85366W        W57791  39.827  32.408  14.504
85367W        W57792   4.852  12.549   3.682
85368W        W57793  16.682  10.585   2.476
85369W        W57794  21.568   8.905  10.744
85370W        W57795  32.390  11.156   2.619
85371W        W57796  14.601  16.122  14.533
85372W        W57797  27.205  37.986  12.843
85373W        W57798   1.889  12.229  14.759
85374W        W57799  36.355  33.905   2.221
85375W        W57800   4.810   4.248  13.396
85376W        W57801  25.754  19.543  11.222
85377W        W57802  38.307  21.409  11.758
85378W        W57803  37.099  22.961   4.192
85379W        W57804  26.192   4.529  13.842
85380W        W57805  41.135   0.692   2.841
85381W        W57806  26.990  40.453  12.937
85382W        W57807  34.469  29.968  11.201
85383W        W57808  31.184  36.847  11.659
85384W        W57809  12.175  10.731  11.168
85385W        W57810   7.362  30.981  11.946
85386W        W57811  36.053  42.607  11.563
85387W        W57812   4.891   8.281  11.285
85388W        W57813  41.873  27.271  13.726
85389W        W57814  36.462  17.815   1.834
85390W        W57815   4.558  16.197  11.841
85391W        W57816  30.481  22.234   3.733
85392W        W57817  11.920  39.930   3.959
85393W        W57818  34.600  17.770  14.813
85394W        W57819  34.850  38.552  13.513
85395W        W57820  37.411   4.894   1.189
85396W        W57821  21.498  20.673  14.822
85397W        W57822  10.334  40.425  11.995
85398W        W57823   5.751  22.552   0.821
85399W        W57824  11.084  15.255  12.977
85400W        W57825   4.138   4.813   3.436
85401W        W57826  39.268   2.507   1.898
85402W        W57827  36.611  43.747  12.415
85403W        W57828  42.968  21.337   3.381
85404W        W57829  13.862  17.107  14.042
85405W        W57830  13.851  26.561   2.307
85406W        W57831  14.518  16.605   1.251
85407W        W57832  36.633  11.872   5.242
85408W        W57833   6.070  43.463  14.751
85409W        W57834   6.475  27.860  11.285
85410W        W57835  19.775   8.831   0.375
85411W        W57836  42.718   3.178   4.360
85412W        W57837   3.724   9.811  11.470
85413W        W57838  23.119  24.996   2.036
85414W        W57839   8.681  15.850   3.175
85415W        W57840  29.371  30.947   4.644
85416W        W57841   2.170   9.591   4.341
85417W        W57842   4.427  36.383  14.019
85418W        W57843  35.717  24.589   3.665
85419W        W57844  12.181  37.597   2.941
85420W        W57845  10.946  25.719  14.165
85421W        W57846  15.046  21.656  13.179
85422W        W57847  42.713  31.951   3.629
85423W        W57848  26.675  12.722  12.902
85424W        W57849  35.338  12.859  14.478
85425W        W57850  24.004  37.288  11.656
85426W        W57851  33.043  20.633   4.462
85427W        W57852  27.554  34.544   0.885
85428W        W57853  20.380  27.419   0.412
85429W        W57854  29.349  21.388   9.714
85430W        W57855  25.892   8.273  10.799
85431W        W57856  12.227  15.202   4.202
85432W        W57857  14.470   2.816   5.212
85433W        W57858   7.410  12.376   0.374
85434W        W57859  44.798  32.113  13.454
85435W        W57860  29.448   8.587   0.251
85436W        W57861   3.297  33.105  10.664
85437W        W57862  10.790  35.421  12.118
85438W        W57863  27.549   8.578  11.962
85439W        W57864  26.528   6.298  14.000
85440W        W57865  44.832  44.030  14.971
85441W        W57866   1.773  25.964   3.883
85442W        W57867  39.443  18.257   1.947
85443W        W57868   8.869  38.325  11.883
85444W        W57869   7.742   4.864   2.668
85445W        W57870  20.160  21.821   2.285
85446W        W57871   1.691  25.056  13.358
85447W        W57872  15.206   3.375  12.074
85448W        W57873  40.631  43.780   1.889
85449W        W57874   4.886  35.471  13.805
85450W        W57875   1.741   3.030  11.889
85451W        W57876  36.639  44.278  10.997
85452W        W57877   8.145  42.903   1.864
85453W        W57878   3.848  34.986   2.610
85454W        W57879  16.820  34.888  14.465
85455W        W57880  29.012   9.134  11.400
85456W        W57881  19.536   3.772   4.588
85457W        W57882  29.567   1.034  11.234
85458W        W57883  40.792  37.878   1.738
85459W        W57884   2.702  16.204   3.103
85460W        W57885   0.547  40.643   1.839
85461W        W57886  20.099  36.913  13.884
85462W        W57887  39.667  42.356   3.429
85463W        W57888   8.699   6.251  14.809
85464W        W57889  34.087  15.764  12.155
85465W        W57890  44.336  11.607   0.343
85466W        W57891  23.048  21.783  12.180
85467W        W57892  19.163   3.847  10.911
85468W        W57893   7.722  36.537   1.746
85469W        W57894  38.377  33.655  11.063
85470W        W57895  12.708  23.648  13.226
85471W        W57896  22.227  30.250  14.778
85472W        W57897   4.018  13.678   3.658
85473W        W57898  30.846  33.678  10.349
85474W        W57899  37.262  22.486   4.446
85475W        W57900  39.513   9.267   1.493
85476W        W57901  10.394  43.774  10.299
85477W        W57902  15.495  16.603  11.037
85478W        W57903  21.107  34.789   5.016
85479W        W57904  35.708   8.432   1.738
85480W        W57905   0.773   9.023   3.680
85481W        W57906  31.959  23.277  10.735
85482W        W57907  41.472  27.075   3.219
85483W        W57908  18.870  32.826  14.510
85484W        W57909  38.555  22.700   0.017
85485W        W57910  33.737  27.731   4.075
85486W        W57911  33.389  19.398  14.470
85487W        W57912   3.261   0.948  13.325
85488W        W57913   3.245   0.225   0.543
85489W        W57914  15.634  40.340  12.829
85490W        W57915   2.495   6.201   3.983
85491W        W57916  21.848  30.323  11.133
85492W        W57917  11.189  16.838  11.275
85493W        W57918  24.992  33.089  14.151
85494W        W57919   0.391   3.761   2.697
85495W        W57920  12.356  24.370   4.210
85496W        W57921  14.248  37.120  14.669
85497W        W57922  44.363   6.145  11.983
85498W        W57923  35.070  32.129  14.966
85499W        W57924  26.000   1.780   1.805
85500W        W57925  38.394  22.700   2.157
85501W        W57926  16.285  20.577  13.837
85502W        W57927  22.211  32.625   0.329
85503W        W57928   4.998   5.395   2.801
85504W        W57929  18.201   6.821  11.297
85505W        W57930  25.216  10.126  11.426
85506W        W57931  41.087  25.687   2.213
85507W        W57932  43.520  41.317   1.680
85508W        W57933  31.431  35.503  11.613
85509W        W57934  35.064  41.162   1.207
85510W        W57935  38.810   3.233  11.151
85511W        W57936  25.128  37.011   1.310
85512W        W57937  27.536   1.180   1.181
85513W        W57938  44.555  34.487  12.176
85514W        W57939  11.265  12.652  13.911
85515W        W57940  20.536  40.956  12.092
85516W        W57941   7.897   0.609   0.259
85517W        W57942  34.883  12.942  11.981
85518W        W57943  41.918  31.472  12.441
85519W        W57944   1.695  17.145   0.041
85520W        W57945  43.209  12.388  11.107
85521W        W57946  44.772  28.679   2.816
85522W        W57947  13.825  11.898   3.603
85523W        W57948   6.822  32.989   3.719
85524W        W57949  18.297   1.403  11.074
85525W        W57950  18.843  22.792  12.599
85526W        W57951  17.739  22.869  14.902
85527W        W57952  21.191  23.060  13.503
85528W        W57953  11.670  38.242   3.537
85529W        W57954  18.782  12.292  11.220
85530W        W57955  22.191  20.825   2.441
85531W        W57956   7.671  32.324   1.330
85532W        W57957  19.838   9.340  13.841
85533W        W57958  39.488  37.660   4.823
85534W        W57959   3.811  31.198  14.368
85535W        W57960  11.297  17.854  12.448
85536W        W57961  19.495  42.837   2.307
85537W        W57962  15.721  43.768  11.991
85538W        W57963  40.320  30.418  14.316
85539W        W57964   0.372   0.472  12.098
85540W        W57965  37.935  20.892   2.903
85541W        W57966  33.966   8.459   4.331
85542W        W57967  36.634  36.606  14.035
85543W        W57968  23.102  38.070   2.734
85544W        W57969   5.835  29.037   2.632
85545W        W57970   5.436  37.982   0.974
85546W        W57971  44.315  10.701   3.712
85547W        W57972  42.307  31.493  12.065
85548W        W57973  13.789  20.105  13.042
85549W        W57974   5.842  39.999  11.298
85550W        W57975   4.764  11.843   0.908
85551W        W57976   0.464  44.375   4.347
85552W        W57977  25.453   9.365  14.048
85553W        W57978   7.789  12.356  14.905
85554W        W57979  17.796  42.729   0.157
85555W        W57980  27.902  35.075   4.557
85556W        W57981  39.269  23.688  11.892
85557W        W57982  18.291  40.377   1.382
85558W        W57983  26.652  16.604  13.229
85559W        W57984  22.460  17.834  13.035
85560W        W57985   7.706   9.747  12.091
85561W        W57986  26.128  35.337   0.350
85562W        W57987  13.598  11.760  13.531
85563W        W57988   2.092  41.447   2.268
85564W        W57989  24.950  24.312  11.910
85565W        W57990  40.131  21.158   9.977
85566W        W57991  14.612  12.273   3.606
85567W        W57992   7.916   0.499  13.976
85568W        W57993   1.461  26.501  12.791
85569W        W57994  41.252   3.114  11.125
85570W        W57995  18.219  35.471   3.334
85571W        W57996  35.120   9.297  14.429
85572W        W57997  24.121  30.035   9.716
85573W        W57998  25.720  17.697   2.272
85574W        W57999  21.194  17.489  13.396
85575W        W58000  32.409  40.981   2.332
85576W        W58001  28.618   0.264   3.378
85577W        W58002  43.467  21.749  13.485
85578W        W58003  32.011  32.498   3.181
85579W        W58004  43.734  35.433   3.434
85580W        W58005   2.147  21.934  14.588
85581W        W58006  14.798   5.402  10.822
85582W        W58007  36.034  37.479  12.974
85583W        W58008  32.159  18.726  14.468
85584W        W58009  32.398   9.612   4.034
85585W        W58010  20.799  18.349  11.206
85586W        W58011   3.551   4.425   4.175
85587W        W58012  14.681  10.847   3.294
85588W        W58013  16.777  26.225  13.070
85589W        W58014  41.765  21.177  13.914
85590W        W58015  30.952  12.994   3.394
85591W        W58016  31.041  24.833  13.076
85592W        W58017  39.440  39.859  13.389
85593W        W58018  31.554  41.905   0.691
85594W        W58019  24.685  16.852   0.926
85595W        W58020  37.121   1.982   0.738
85596W        W58021  26.058  34.568  13.045
85597W        W58022  35.529  29.540   4.830
85598W        W58023  10.927  38.849   0.234
85599W        W58024  38.636  43.719   2.371
85600W        W58025  11.789  37.842  13.808
85601W        W58026  39.490  33.528   0.222
85602W        W58027  17.682  17.175   1.319
85603W        W58028  36.660  44.979   4.602
85604W        W58029  31.357   3.837   3.752
85605W        W58030  29.040   2.289   3.726
85606W        W58031   5.733   3.945  11.420
85607W        W58032  39.632   2.832   1.737
85608W        W58033  18.171   2.444   3.736
85609W        W58034   5.335  40.878   4.326
85610W        W58035  14.714  20.798   1.230
85611W        W58036   5.208  29.786   0.867
85612W        W58037  34.980  13.283  11.610
85613W        W58038   8.689  14.982  11.377
85614W        W58039   6.353   5.227  11.438
85615W        W58040  41.385  36.522   3.742
85616W        W58041   0.911  17.506  11.524
85617W        W58042  43.461  32.046   0.347
85618W        W58043   4.921   9.263  12.302
85619W        W58044  11.712  30.425  11.562
85620W        W58045  36.005  44.849   1.482
85621W        W58046  44.904   5.152  14.866
85622W        W58047  40.685   6.847   2.672
85623W        W58048   6.322  36.078   3.249
85624W        W58049  43.942  37.080  11.889
85625W        W58050  42.319  36.314   1.289
85626W        W58051  16.055  34.629  10.410
85627W        W58052  34.593   3.712   4.261
85628W        W58053  35.502  27.850   0.424
85629W        W58054  24.944  22.275  11.054
85630W        W58055   1.814  15.752  11.263
85631W        W58056  18.127  30.075  11.196
85632W        W58057  20.733  36.330   4.150
85633W        W58058  40.086  28.124   1.386
85634W        W58059  35.300  14.815   4.268
85635W        W58060  10.086   5.922  11.270
85636W        W58061  19.267  33.404   4.637
85637W        W58062   3.238  43.664   2.854
85638W        W58063  17.591  19.385  12.263
85639W        W58064   3.319  29.920  13.412
85640W        W58065  40.765  31.920   1.181
85641W        W58066   2.775  26.180   4.668
85642W        W58067  24.193  31.444   4.986
85643W        W58068  43.757  22.524  10.893
85644W        W58069   4.709  41.722   2.725
85645W        W58070  37.299  15.749   0.901
85646W        W58071  34.393  41.360  13.070
85647W        W58072  21.616  19.778   0.861
85648W        W58073  19.722  24.554   1.904
85649W        W58074  10.380  26.485  11.109
85650W        W58075  26.118  41.889   3.672
85651W        W58076  27.532   0.947  11.557
85652W        W58077  21.829  43.867  12.030
85653W        W58078  16.838  35.383  13.531
85654W        W58079  39.933  35.132   2.722
85655W        W58080  43.495  37.421   2.445
85656W        W58081  16.172  39.095  14.948
85657W        W58082  44.727  32.540   2.809
85658W        W58083  23.818   9.042  10.116
85659W        W58084  13.126  32.462  12.835
85660W        W58085   0.822   8.247   2.377
85661W        W58086  18.134   7.781  14.363
85662W        W58087   8.391  36.890  14.343
85663W        W58088  29.067  20.218  14.273
85664W        W58089  22.220   6.794  12.558
85665W        W58090  21.203   6.943   0.280
85666W        W58091  17.158  27.229  14.140
85667W        W58092  20.609  34.576  11.753
85668W        W58093  44.420   5.291   4.885
85669W        W58094  35.073  36.468   4.472
85670W        W58095  35.086   4.909  11.537
85671W        W58096   8.430  40.996   3.835
85672W        W58097  16.440  13.915   4.393
85673W        W58098  18.763  17.946   0.938
85674W        W58099  22.756   3.929  13.127
85675W        W58100  20.132  44.006  14.987
85676W        W58101   8.854   1.481  12.332
85677W        W58102   8.070  38.595   1.943
85678W        W58103  33.521  14.571   1.841
85679W        W58104  26.613  39.743  11.798
85680W        W58105  13.211  34.776  12.528
85681W        W58106   4.620  17.532  12.058
85682W        W58107  31.548   9.921   1.681
85683W        W58108  26.941  25.436  13.475
85684W        W58109  40.511   0.798  12.919
85685W        W58110  12.898   2.731   3.566
85686W        W58111   1.918   7.368  14.379
85687W        W58112  13.700  34.845   4.609
85688W        W58113  33.159  22.436  10.835
85689W        W58114  21.269  35.015  14.450
85690W        W58115  26.626  20.743   2.033
85691W        W58116  41.761  26.374   3.717
85692W        W58117  36.511   6.647   5.342
85693W        W58118  38.282  20.119   4.932
85694W        W58119   9.872   9.937   3.759
85695W        W58120  29.654  33.099  10.841
85696W        W58121  20.606  43.223  14.107
85697W        W58122  39.289  28.572   2.446
85698W        W58123  11.801  17.978   3.177
85699W        W58124  29.081  27.489   0.828
85700W        W58125  25.177   6.643  11.543
85701W        W58126  23.589  41.857  13.082
85702W        W58127  43.946  17.578   2.988
85703W        W58128  38.387  23.644  14.958
85704W        W58129  30.125  23.255   5.121
85705W        W58130  33.669  20.139   3.070
85706W        W58131  20.745  13.114   0.722
85707W        W58132   3.380  20.720  12.175
85708W        W58133  21.508   3.448  12.925
85709W        W58134  14.586  39.897  12.341
85710W        W58135  28.605  29.237  10.424
85711W        W58136  44.501  35.051  14.845
85712W        W58137  19.584   5.895   3.396
85713W        W58138  37.101  38.153  14.804
85714W        W58139  42.570  13.437   0.141
85715W        W58140   8.665   1.426   1.762
85716W        W58141  25.395  40.191  11.128
85717W        W58142   5.275  39.089  14.513
85718W        W58143   2.291   4.325  14.139
85719W        W58144  31.007  33.226   4.554
85720W        W58145  11.627  43.948  13.810
85721W        W58146  14.214  16.869  11.483
85722W        W58147  20.055  17.547   0.284
85723W        W58148  43.303  19.172  13.521
85724W        W58149  13.756  22.557   5.087
85725W        W58150  22.169  15.808  11.154
85726W        W58151   3.475  15.310   4.431
85727W        W58152  24.038  31.088   0.939
85728W        W58153  15.147  20.776   4.689
85729W        W58154  40.399  20.091   1.232
85730W        W58155  33.932  19.079   4.519
85731W        W58156  26.603  11.732  10.407
85732W        W58157   4.019  37.171  14.674
85733W        W58158  22.809  17.212  13.785
85734W        W58159  31.076   0.931   0.086
85735W        W58160  36.481  40.368  10.571
85736W        W58161  37.852  38.513   0.044
85737W        W58162  40.788   1.000  14.254
85738W        W58163  29.050  25.276   5.000
85739W        W58164  16.103  12.840   4.362
85740W        W58165  11.545  11.767  11.098
85741W        W58166  36.468  20.318   3.583
85742W        W58167  13.655  25.224  12.819
85743W        W58168  23.677  18.544   2.761
85744W        W58169  21.731   8.636  13.926
85745W        W58170   7.413  15.809   3.417
85746W        W58171  17.678  17.100   0.775
85747W        W58172  44.853   9.318   2.784
85748W        W58173   2.356  44.820   1.817
85749W        W58174  16.793   2.705   3.317
85750W        W58175  15.994  42.421   1.030
85751W        W58176  16.346   3.662  12.966
85752W        W58177   8.223  30.014  14.438
85753W        W58178  36.330  43.997   1.894
85754W        W58179  43.401  13.805  10.788
85755W        W58180  28.500  12.496   0.389
85756W        W58181  39.878  25.026  12.363
85757W        W58182  25.821  28.924  13.911
85758W        W58183  13.190   1.590   0.114
85759W        W58184  36.056  21.728   4.384
85760W        W58185  25.697  28.049   2.248
85761W        W58186  23.329  38.050  14.409
85762W        W58187   5.981   3.339   5.069
85763W        W58188  17.132  27.208  10.728
85764W        W58189  35.573  21.488  14.018
85765W        W58190   6.852  19.147   4.580
85766W        W58191  27.889   8.960  12.017
85767W        W58192  41.905  23.252   1.680
85768W        W58193  18.498   7.071  14.348
85769W        W58194   3.124   1.793   4.604
85770W        W58195  14.389   7.876   1.474
85771W        W58196  35.410  33.610   2.127
85772W        W58197   0.241  13.290  12.137
85773W        W58198  29.930  19.606   0.178
85774W        W58199  25.668   5.680  12.923
85775W        W58200  39.425  11.911  12.086
85776W        W58201  41.997  34.988  14.119
85777W        W58202   0.976   0.558  13.864
85778W        W58203  37.131  24.060   2.368
85779W        W58204  21.852  20.300  14.963
85780W        W58205  33.628  28.502  12.886
85781W        W58206  14.070  26.457  12.497
85782W        W58207  36.392  39.925   3.792
85783W        W58208  30.818  42.188   3.003
85784W        W58209  34.744   5.341   2.361
85785W        W58210  15.816  14.155   3.832
85786W        W58211  40.711  38.367   3.003
85787W        W58212  23.464  33.207  13.751
85788W        W58213   7.399  19.668   4.203
85789W        W58214  19.587   3.776  11.165
85790W        W58215  37.200   8.395   3.880
85791W        W58216  17.257  22.188   3.657
85792W        W58217  31.891  14.150   2.282
85793W        W58218  33.506   3.840   1.875
85794W        W58219  20.853  23.187  14.504
85795W        W58220  10.778  37.930  10.965
85796W        W58221  35.023  15.990   1.315
85797W        W58222  35.593  22.008  13.951
85798W        W58223  43.510  14.369   1.163
85799W        W58224  34.593  42.058  14.395
85800W        W58225  35.346   9.258   0.741
85801W        W58226  25.316  43.784   2.037
85802W        W58227  38.127  36.004  11.694
85803W        W58228  33.166  41.962   3.103
85804W        W58229  19.991  17.681   1.172
85805W        W58230  32.645  14.107  10.652
85806W        W58231   5.863   2.958   1.274
85807W        W58232   4.491  43.083  10.751
85808W        W58233  33.040  23.766  12.330
85809W        W58234   7.768  27.298   4.176
85810W        W58235  28.132  34.112   4.583
85811W        W58236  31.580  31.536   4.543
85812W        W58237  44.337   2.344  14.277
85813W        W58238  18.018  44.308  14.832
85814W        W58239   9.462   6.480   4.072
85815W        W58240  41.062  18.377  11.089
85816W        W58241  20.694  28.576  11.994
85817W        W58242  11.773  44.389   1.687
85818W        W58243  10.347  43.218   1.868
85819W        W58244  43.996  22.757  14.397
85820W        W58245  10.597  24.661   2.722
85821W        W58246  42.362  20.468  12.762
85822W        W58247  16.549  27.955  13.066
85823W        W58248   1.964  21.849   3.240
85824W        W58249  30.376   1.969   0.863
85825W        W58250   4.712  15.282   3.819
85826W        W58251  22.522  27.910   0.760
85827W        W58252  12.644  14.123  12.560
85828W        W58253  26.340  29.221   4.192
85829W        W58254  11.981  35.625   0.282
85830W        W58255  18.028  43.585  12.060
85831W        W58256   6.574   4.749   4.613
85832W        W58257  18.086  42.996   0.848
85833W        W58258  14.830  13.280   0.733
85834W        W58259  44.601  39.562   5.011
85835W        W58260   4.392  20.638  11.899
85836W        W58261   6.370  22.152  12.879
85837W        W58262   0.425  44.877   4.190
85838W        W58263  27.482  37.999   2.249
85839W        W58264  15.342  41.216  13.422
85840W        W58265  22.570  35.575  14.836
85841W        W58266  17.005  17.227  13.085
85842W        W58267  17.872  27.109   2.350
85843W        W58268  36.473  32.472   4.472
85844W        W58269  38.333  18.566  12.376
85845W        W58270  24.863  36.802   3.223
85846W        W58271  14.835  13.090   3.330
85847W        W58272  19.221  16.771   0.299
85848W        W58273  36.021   3.569   1.455
85849W        W58274  11.894  12.869   2.176
85850W        W58275  37.467  26.780  11.935
85851W        W58276  12.774   2.894   0.884
85852W        W58277  18.606  33.562   2.253
85853W        W58278  27.043  22.986  14.230
85854W        W58279   7.369  31.902  14.198
85855W        W58280   4.484   1.384   1.437
85856W        W58281   9.108  37.082  11.624
85857W        W58282  23.774  36.109  11.006
85858W        W58283  14.308   8.777  13.816
85859W        W58284   5.377  42.964   4.484
85860W        W58285  42.770  10.748   4.146
85861W        W58286  31.640  31.119  14.488
85862W        W58287   3.873  35.347  13.372
85863W        W58288  10.014   1.446   3.320
85864W        W58289  28.406  35.294   2.933
85865W        W58290  22.678  31.449  12.538
85866W        W58291  18.056  39.509   3.520
85867W        W58292  20.481  10.483  11.311
85868W        W58293  11.208   1.927   2.271
85869W        W58294  20.315  25.770  14.146
85870W        W58295  15.057  10.581   2.330
85871W        W58296  32.952  38.534  13.935
85872W        W58297  29.919  19.328   2.908
85873W        W58298  16.149  42.949  12.192
85874W        W58299  15.195   7.860  13.767
85875W        W58300  40.737  23.521   4.184
85876W        W58301  43.493  24.956   2.724
85877W        W58302  39.413  38.520   3.281
85878W        W58303  14.525  29.952  12.138
85879W        W58304   4.837  11.040   1.266
85880W        W58305  33.975  20.508  13.444
85881W        W58306   6.976  30.153   3.374
85882W        W58307  32.020  17.446  13.151
85883W        W58308   6.085  33.919   4.866
85884W        W58309  10.076   6.215   2.725
85885W        W58310   0.641   9.608  13.516
85886W        W58311  44.779   8.294   1.191
85887W        W58312  22.588  11.966  11.996
85888W        W58313  27.169  21.081  11.713
85889W        W58314  30.346  13.767   3.847
85890W        W58315  11.557  40.256  13.877
85891W        W58316  16.850  15.044  13.576
85892W        W58317  34.937  10.667   1.938
85893W        W58318  37.890  17.853  14.911
85894W        W58319  21.052  32.412  13.326
85895W        W58320  20.246  21.521   4.780
85896W        W58321  20.877   2.532  13.462
85897W        W58322  16.355  26.672   4.198
85898W        W58323  20.531  42.338  11.140
85899W        W58324  21.180  33.179  10.369
85900W        W58325  11.331  35.682  13.964
85901W        W58326   2.935  35.043   2.277
85902W        W58327  31.150  41.989  14.911
85903W        W58328  29.541  30.629   3.213
85904W        W58329  21.243  42.915   2.348
85905W        W58330   8.733  14.424  12.039
85906W        W58331  17.963   3.169   2.673
85907W        W58332  16.624  40.374   0.499
85908W        W58333  40.376  30.170   0.325
85909W        W58334  23.800  31.001   4.174
85910W        W58335  21.240  21.116   1.198
85911W        W58336  16.241  16.143  12.432
85912W        W58337  15.341  43.175   2.676
85913W        W58338  30.497  21.295   4.961
85914W        W58339  19.588   9.851  11.931
85915W        W58340  11.254  18.258  12.052
85916W        W58341  25.389  44.347   4.628
85917W        W58342  40.823  32.110   2.207
85918W        W58343   8.945  23.554  14.249
85919W        W58344   5.206  22.459   3.545
85920W        W58345  12.691  39.069  14.380
85921W        W58346  37.928  38.583   1.883
85922W        W58347  41.538  12.012  14.981
85923W        W58348  29.518  12.119   3.790
85924W        W58349  15.284  16.067   1.691
85925W        W58350  20.783  22.580  11.921
85926W        W58351  35.940   3.384   4.544
85927W        W58352  13.252   8.398   3.691
85928W        W58353   4.874  35.555   5.037
85929W        W58354  31.121   4.754   3.345
85930W        W58355  37.174  31.860   1.821
85931W        W58356  11.794  15.298   4.712
85932W        W58357   9.510  36.013  11.587
85933W        W58358   1.516  17.054   0.955
85934W        W58359  36.808  20.271   2.354
85935W        W58360  34.449  28.089   4.297
85936W        W58361  21.156  22.655  13.815
85937W        W58362   0.702   8.783  11.661
85938W        W58363  37.661  24.446   1.359
85939W        W58364  13.387  34.692   1.072
85940W        W58365  25.487  19.336   2.888
85941W        W58366  34.781  35.456   4.540
85942W        W58367  30.039  38.619   9.826
85943W        W58368  39.583  14.956   4.169
85944W        W58369  17.812  30.912  11.279
85945W        W58370  40.377  10.878  10.794
85946W        W58371  38.019  27.493   4.489
85947W        W58372   3.149  37.979   4.510
85948W        W58373   8.232  43.509   1.352
85949W        W58374  18.501  37.813   3.395
85950W        W58375  17.461   5.335   3.164
85951W        W58376  38.950   1.316   3.401
85952W        W58377  32.071  38.769   2.336
85953W        W58378  25.971  41.327   1.975
85954W        W58379  35.799  38.852  13.205
85955W        W58380   5.258  38.542   3.161
85956W        W58381  33.340  35.231  14.003
85957W        W58382  36.582  21.044  11.026
85958W        W58383  25.594   8.724   5.049
85959W        W58384  34.587  13.121   3.289
85960W        W58385   5.428  17.574   0.334
85961W        W58386  21.041  23.446   4.571
85962W        W58387  40.591   3.248  13.438
85963W        W58388   0.862  21.208  14.097
85964W        W58389  22.021  30.976   2.763
85965W        W58390  36.420   5.319  12.575
85966W        W58391  35.608  44.828   1.817
85967W        W58392   2.701  25.527  13.932
85968W        W58393  36.017  39.988  11.685
85969W        W58394  20.724  41.936   0.084
85970W        W58395  35.562   6.630  10.615
85971W        W58396  11.837  42.947  12.364
85972W        W58397  26.716  21.164  13.474
85973W        W58398  31.234  27.748   2.237
85974W        W58399   4.180  32.532  10.551
85975W        W58400  15.667  19.339  11.556
85976W        W58401  38.066  11.612  12.073
85977W        W58402   4.736  22.643   2.920
85978W        W58403  12.089  12.386   5.021
85979W        W58404  13.855  38.956   2.334
85980W        W58405  15.589  30.622  13.854
85981W        W58406  32.425  18.112   1.797
85982W        W58407   3.783   0.771   2.349
85983W        W58408  25.509  23.079   4.864
85984W        W58409  33.866  32.576   4.243
85985W        W58410  22.487  10.212  11.040
85986W        W58411   8.849  21.556  13.034
85987W        W58412  35.474  13.045  13.607
85988W        W58413  13.417  10.363   3.483
85989W        W58414   1.888  11.599  12.536
85990W        W58415  14.169   4.693   2.907
85991W        W58416  19.778  20.221  11.030
85992W        W58417  10.697  33.538  12.458
85993W        W58418  26.904  10.113   0.008
85994W        W58419  42.950  16.335   4.350
85995W        W58420  19.970  35.374  13.289
85996W        W58421  30.923  20.669  12.922
85997W        W58422  29.374   3.710  13.811
85998W        W58423  28.553  21.072  13.932
85999W        W58424   2.522  17.772   0.983
86000W        W58425  16.611  13.423  12.359
86001W        W58426  27.177  36.447   0.708
86002W        W58427  17.280   3.500   3.447
86003W        W58428  27.571  16.592   2.321
86004W        W58429  40.053   9.291  13.413
86005W        W58430  25.507  31.519   4.003
86006W        W58431   5.116  19.655   4.927
86007W        W58432   8.503  10.092  12.621
86008W        W58433  44.027  25.096   4.359
86009W        W58434  11.611  36.519  11.023
86010W        W58435  25.942   2.939   2.959
86011W        W58436  15.639   1.188   2.299
86012W        W58437  29.459   7.874  12.473
86013W        W58438  14.015  40.451  11.784
86014W        W58439  11.742  23.408   4.852
86015W        W58440  16.503   8.411   1.339
86016W        W58441  44.466  41.827   2.366
86017W        W58442  11.390  24.947  14.850
86018W        W58443   2.485   7.272   0.936
86019W        W58444  20.192  16.385   4.653
86020W        W58445   0.660  38.882  14.110
86021W        W58446  10.534   1.374  14.397
86022W        W58447  24.504  33.150  11.609
86023W        W58448   6.317  25.891  11.164
86024W        W58449  36.444  42.360   4.164
86025W        W58450  24.157  43.296  12.838
86026W        W58451  17.404   9.327   2.814
86027W        W58452  19.552  12.312   3.001
86028W        W58453  35.206  39.864  11.735
86029W        W58454  21.383  20.421  13.966
86030W        W58455  25.039  10.790  11.522
86031W        W58456   9.015   4.905   2.387
86032W        W58457  35.894  37.590  14.464
86033W        W58458  31.169  41.256  12.970
86034W        W58459  37.114  33.831  13.604
86035W        W58460  41.791  22.283   1.286
86036W        W58461  17.100   8.399   3.041
86037W        W58462  11.712  12.632  11.135
86038W        W58463   3.684   7.552   1.248
86039W        W58464  13.101  26.508   0.405
86040W        W58465  29.759  14.682  13.355
86041W        W58466   3.732  36.367   2.320
86042W        W58467  41.257  39.897  13.374
86043W        W58468  29.535  29.692  13.352
86044W        W58469   8.977  33.736  13.991
86045W        W58470   4.992  37.010  14.517
86046W        W58471  38.968  26.458  12.237
86047W        W58472  19.073   1.002   1.731
86048W        W58473  42.062  25.440   3.747
86049W        W58474   7.205   6.149   1.735
86050W        W58475  41.050   2.201   2.775
86051W        W58476   3.749   6.401  13.423
86052W        W58477   6.256  31.755   2.440
86053W        W58478  40.089  26.876  11.147
86054W        W58479  26.085  20.168  13.630
86055W        W58480   0.465   3.197  14.094
86056W        W58481  40.339  42.452   2.180
86057W        W58482  26.849  42.502   4.768
86058W        W58483  26.698  31.015   5.254
86059W        W58484  12.635  33.217  12.865
86060W        W58485  13.066  44.592  14.877
86061W        W58486  35.374  34.884   0.910
86062W        W58487  17.825  16.662  13.453
86063W        W58488  32.564  21.506   2.712
86064W        W58489  31.542   8.151  12.465
86065W        W58490  28.411   0.991  12.166
86066W        W58491  33.600  39.483   1.015
86067W        W58492  34.009   1.823   0.739
86068W        W58493   7.884  35.229  13.608
86069W        W58494   5.293  41.979   4.602
86070W        W58495  16.518   6.849  13.868
86071W        W58496   7.624  16.182  14.931
86072W        W58497  29.518  31.853   4.719
86073W        W58498  36.667  36.888  11.488
86074W        W58499   1.258   3.931  14.819
86075W        W58500  31.273  40.279   5.462
86076W        W58501  44.340   3.123   4.606
86077W        W58502   6.839  28.626  10.983
86078W        W58503   4.894  44.978   1.244
86079W        W58504  28.209  21.199  11.569
86080W        W58505   3.414  37.586   4.714
86081W        W58506  17.189  32.213   0.234
86082W        W58507   3.621  39.591   4.117
86083W        W58508  10.088  37.870   0.382
86084W        W58509  32.242  14.047   9.958
86085W        W58510  18.545  40.012   0.231
86086W        W58511  29.622  35.374  12.089
86087W        W58512   3.329  29.693   1.757
86088W        W58513  26.945  23.581   3.309
86089W        W58514  23.441  44.358   2.205
86090W        W58515  41.751  12.927  12.374
86091W        W58516   5.419   9.650   3.669
86092W        W58517  26.963  13.640  10.792
86093W        W58518  10.539  26.537  14.314
86094W        W58519  27.836  12.754   3.101
86095W        W58520  37.095   6.921  10.559
86096W        W58521  15.571   2.674   4.107
86097W        W58522  33.379   1.968  10.119
86098W        W58523  43.292  27.518  13.087
86099W        W58524  29.483  30.680   0.362
86100W        W58525  21.263  26.062   4.049
86101W        W58526  15.815  38.176  13.341
86102W        W58527  44.978   5.737   3.188
86103W        W58528  32.096  14.972  13.444
86104W        W58529   7.923  25.143   1.109
86105W        W58530  36.842   2.303   3.330
86106W        W58531  13.884  21.634   4.068
86107W        W58532  13.869   9.177   2.290
86108W        W58533   1.196  35.880  13.341
86109W        W58534  22.700   9.138  14.355
86110W        W58535  16.832  18.682   2.987
86111W        W58536   4.080  23.222   2.404
86112W        W58537  13.966  10.045   3.716
86113W        W58538  44.920  16.195  10.907
86114W        W58539  14.797  36.527   3.768
86115W        W58540  12.875   7.793   4.330
86116W        W58541  31.158  40.047  11.095
86117W        W58542   3.910  17.634   2.393
86118W        W58543  15.995   6.658   4.196
86119W        W58544  44.806  22.208  12.388
86120W        W58545  22.437  13.746   2.118
86121W        W58546   2.428  30.080   4.534
86122W        W58547   5.836  23.354  12.041
86123W        W58548  20.703  29.983   3.721
86124W        W58549  13.835  27.549  11.217
86125W        W58550   0.678  37.980   1.968
86126W        W58551  22.037  33.812   4.231
86127W        W58552   4.705  25.162   0.750
86128W        W58553  41.275  20.835   2.464
86129W        W58554  36.535  25.715  12.573
86130W        W58555  12.938  32.473   3.786
86131W        W58556  44.215  10.342   4.898
86132W        W58557  28.913  23.639   0.858
86133W        W58558   2.334   2.934   2.331
86134W        W58559  11.627   9.354  11.713
86135W        W58560  17.875  29.664   0.155
86136W        W58561  44.014  44.795   4.836
86137W        W58562  24.431  24.150  13.822
86138W        W58563   3.281   2.899  13.882
86139W        W58564   3.873  37.348   0.700
86140W        W58565  18.672   1.742  12.262
86141W        W58566  44.835  29.897   3.375
86142W        W58567   7.140  31.896   5.126
86143W        W58568  40.675  32.461   1.799
86144W        W58569  38.479   4.162  11.466
86145W        W58570  12.857  16.724  14.535
86146W        W58571  18.555  38.295   3.650
86147W        W58572   0.043  39.351   1.855
86148W        W58573  39.972  24.578  10.652
86149W        W58574  29.205  28.629  11.512
86150W        W58575   9.117  20.575   0.481
86151W        W58576  35.529  10.370   4.951
86152W        W58577  44.504   9.818   1.767
86153W        W58578  33.366  21.519   3.220
86154W        W58579   3.224  20.259  11.994
86155W        W58580   6.306  37.079  14.840
86156W        W58581   7.164  13.613  11.663
86157W        W58582  13.206  32.064   1.617
86158W        W58583  32.540  25.232  13.046
86159W        W58584  20.228   4.435   2.616
86160W        W58585  12.341  23.779  11.968
86161W        W58586  36.677  30.623  11.983
86162W        W58587  35.225  12.286   1.068
86163W        W58588  40.890  22.162  13.827
86164W        W58589  35.625  40.352  14.728
86165W        W58590  11.170  21.307   3.594
86166W        W58591  40.586  27.529   3.922
86167W        W58592  24.329  22.967   2.888
86168W        W58593   8.196  38.105   4.125
86169W        W58594  27.472  10.296  13.337
86170W        W58595  30.455  35.574  12.483
86171W        W58596  30.965  34.519  12.372
86172W        W58597  10.247  44.278  13.372
86173W        W58598  21.821  19.772   3.892
86174W        W58599  23.461  22.196   1.446
86175W        W58600  31.938  29.547   4.757
86176W        W58601   0.382  13.349   1.596
86177W        W58602  21.557  33.888  12.540
86178W        W58603  22.485   7.387   0.005
86179W        W58604  19.124  29.115  11.748
86180W        W58605  35.949  36.154   2.824
86181W        W58606  37.800  40.139   1.756
86182W        W58607   8.123  15.608  11.654
86183W        W58608  27.048  21.049  14.452
86184W        W58609  43.332  36.711   3.346
86185W        W58610  31.694  22.191   3.245
86186W        W58611  29.106  19.790   4.398
86187W        W58612  42.975   1.468   0.705
86188W        W58613   2.540  23.467   1.686
86189W        W58614   6.328  33.071   3.826
86190W        W58615  39.928  30.179   0.575
86191W        W58616  30.458  22.955  10.720
86192W        W58617  31.393   5.702  10.792
86193W        W58618  35.261  22.592   1.914
86194W        W58619  10.625   7.920  14.761
86195W        W58620  11.715   7.539   2.198
86196W        W58621  18.463  40.410   5.187
86197W        W58622   7.278  26.595  11.868
86198W        W58623  15.563  44.553  14.630
86199W        W58624  20.233  21.238  10.738
86200W        W58625  44.437  29.333  12.116
86201W        W58626  26.858  21.369  11.415
86202W        W58627  20.729  36.263   5.041
86203W        W58628  37.764   9.688  10.938
86204W        W58629  18.985  39.305   3.566
86205W        W58630  41.326  12.265  11.412
86206W        W58631  14.643  35.976  12.890
86207W        W58632  36.305  12.331   2.825
86208W        W58633  41.375  23.990   4.097
86209W        W58634  35.406  29.652  11.942
86210W        W58635  22.382  17.346  12.886
86211W        W58636   2.439  24.213   3.625
86212W        W58637   0.648  35.690  10.778
86213W        W58638   8.297  18.792   4.114
86214W        W58639  44.980  25.640  13.553
86215W        W58640   7.422  14.717  11.954
86216W        W58641  23.835  43.188  10.669
86217W        W58642  32.089   9.394   1.271
86218W        W58643  37.262   4.866  14.174
86219W        W58644   0.429   4.745  12.801
86220W        W58645  34.099   0.012   2.570
86221W        W58646  36.600  36.717  10.555
86222W        W58647  30.467  25.009   0.688
86223W        W58648  15.708  14.553  10.560
86224W        W58649  20.184   2.737   2.366
86225W        W58650  18.221  16.246   4.771
86226W        W58651  38.951  18.252  10.280
86227W        W58652  35.769  24.715   2.607
86228W        W58653  43.307   9.297  13.377
86229W        W58654  43.437  12.538  12.677
86230W        W58655  40.355   1.923  12.454
86231W        W58656  24.929  36.876  13.903
86232W        W58657   0.784  34.539   1.838
86233W        W58658  35.602  35.843   0.701
86234W        W58659  41.307  31.309  10.440
86235W        W58660  13.173   2.936  14.898
86236W        W58661  15.733   4.260   0.875
86237W        W58662   5.670  17.311   0.820
86238W        W58663  19.565  42.856   1.060
86239W        W58664  18.463  25.599   3.241
86240W        W58665  26.348   8.300   1.330
86241W        W58666  17.557  31.136  13.542
86242W        W58667  13.791  14.411   1.254
86243W        W58668   6.341  24.093   0.886
86244W        W58669  14.639  21.175   4.090
86245W        W58670  15.345  16.149   1.178
86246W        W58671  28.198   5.343   3.786
86247W        W58672  35.150  41.333  12.530
86248W        W58673  18.727  34.422   0.346
86249W        W58674  36.113  11.352   4.292
86250W        W58675  37.233  28.504  14.469
86251W        W58676  24.707   3.269  12.202
86252W        W58677  35.019   5.981  10.708
86253W        W58678  30.539   2.938   3.602
86254W        W58679  32.544  38.277  11.185
86255W        W58680  25.168  10.648   4.640
86256W        W58681  22.793  10.485   3.710
86257W        W58682  43.105  36.138  10.331
86258W        W58683  29.737  30.578  14.910
86259W        W58684  12.191  15.654   0.899
86260W        W58685  34.932  43.633  12.451
86261W        W58686  21.030  20.583   0.714
86262W        W58687   8.511  13.587  12.125
86263W        W58688  33.976  20.023   0.988
86264W        W58689  21.037  39.876  14.916
86265W        W58690  34.826  42.894   0.845
86266W        W58691  41.531   3.776   3.648
86267W        W58692  44.758   3.870  10.716
86268W        W58693  25.588  34.797  13.140
86269W        W58694  38.436   7.807   9.751
86270W        W58695  41.130   8.177  14.869
86271W        W58696   1.719  12.516   3.655
86272W        W58697  16.165  34.487  11.907
86273W        W58698  22.592  44.362   3.788
86274W        W58699  13.235   8.717  12.055
86275W        W58700   9.257  37.880  12.019
86276W        W58701  11.556  10.162   2.903
86277W        W58702   8.329  39.847   4.616
86278W        W58703  17.758   8.910   0.827
86279W        W58704  33.826   2.519  14.516
86280W        W58705  36.493  25.050   4.642
86281W        W58706  26.527   5.550   5.108
86282W        W58707  27.072  13.070   3.266
86283W        W58708  42.322  24.044   4.018
86284W        W58709   8.920  37.035   2.196
86285W        W58710  27.230  26.997   2.883
86286W        W58711   7.320   2.220  13.791
86287W        W58712   5.458   6.020  12.924
86288W        W58713  16.450  31.103   4.084
86289W        W58714  13.586  29.407  12.126
86290W        W58715  31.684  21.856   4.530
86291W        W58716  18.711  34.967  13.565
86292W        W58717  34.484  29.529   1.952
86293W        W58718  33.562  36.126   2.782
86294W        W58719  19.803  24.961   1.254
86295W        W58720  14.538  35.018  13.108
86296W        W58721   9.751  36.615  12.514
86297W        W58722  12.835  25.476   1.180
86298W        W58723  28.041  15.709  12.360
86299W        W58724  38.398  20.095  10.459
86300W        W58725   0.673  32.794   4.701
86301W        W58726  24.910  10.193  13.604
86302W        W58727   7.662  39.413  11.980
86303W        W58728  16.167   0.993  11.513
86304W        W58729  23.225  28.163  13.411
86305W        W58730  39.432  14.154   4.717
86306W        W58731  33.277  41.861   1.781
86307W        W58732  34.915  37.003   0.506
86308W        W58733  20.968   3.762   3.143
86309W        W58734   2.905   3.364   2.358
86310W        W58735  38.451   5.199  13.419
86311W        W58736  25.935  13.085   0.803
86312W        W58737  30.058   4.927  13.478
86313W        W58738  31.218  22.659   9.729
86314W        W58739  38.355   4.255   0.254
86315W        W58740  29.054  18.375  10.577
86316W        W58741  32.251  23.067  12.182
86317W        W58742  14.139   0.703  14.906
86318W        W58743  15.786  22.064  10.445
86319W        W58744   5.149  12.641   0.878
86320W        W58745  17.611  20.019   4.910
86321W        W58746  12.864  31.328   2.299
86322W        W58747  28.181   7.088   1.565
86323W        W58748  17.720  24.156   4.171
86324W        W58749   2.718  36.581  13.089
86325W        W58750  36.105  44.942  10.973
86326W        W58751  17.729  24.500   3.777
86327W        W58752  19.810  15.287   1.726
86328W        W58753  24.545   2.324  12.247
86329W        W58754  18.260  42.877  11.481
86330W        W58755   3.106  14.371   3.935
86331W        W58756  11.222  12.680  11.457
86332W        W58757   1.714  33.408   0.349
86333W        W58758  12.717  20.724   3.218
86334W        W58759  34.755  15.744   0.897
86335W        W58760  25.586   3.186  13.295
86336W        W58761  12.405  14.256  13.467
86337W        W58762  11.157  27.450  10.692
86338W        W58763  12.369   5.448  10.626
86339W        W58764  19.044  19.787  12.136
86340W        W58765  43.458  29.105   0.207
86341W        W58766   1.274   7.519  12.313
86342W        W58767  26.206   1.761  11.575
86343W        W58768  43.387  19.070   4.364
86344W        W58769  11.515  38.129   2.349
86345W        W58770  25.611  28.501  14.145
86346W        W58771  29.354  22.562   0.667
86347W        W58772  44.398  13.067   3.406
86348W        W58773   4.878  44.881   4.322
86349W        W58774  32.966  36.575  14.043
86350W        W58775   7.644  42.117   1.252
86351W        W58776  39.046   8.900  14.355
86352W        W58777  40.626  37.478  11.671
86353W        W58778  41.975  19.030   0.335
86354W        W58779   1.317  43.446   3.770
86355W        W58780  26.206   2.740   0.298
86356W        W58781   3.422  21.226   0.884
86357W        W58782  24.765  39.091  14.344
86358W        W58783   5.382  27.234  13.518
86359W        W58784   9.583  17.885   1.958
86360W        W58785  12.398  11.667  14.991
86361W        W58786  15.358  20.449   2.269
86362W        W58787  13.134  34.385  14.314
86363W        W58788  15.258  17.030   1.143
86364W        W58789   7.830   1.486  10.693
86365W        W58790  13.257   0.700  10.162
86366W        W58791  11.673  12.354  10.705
86367W        W58792  40.570  32.501   4.921
86368W        W58793  36.818  43.895   3.838
86369W        W58794  41.480   2.199   1.448
86370W        W58795  33.996  35.143   1.899
86371W        W58796  30.862   3.300   4.477
86372W        W58797  44.965  13.272  13.017
86373W        W58798   9.214  26.466  10.706
86374W        W58799  42.514  22.091   9.556
86375W        W58800   4.684   4.351   0.781
86376W        W58801  28.686  31.038   3.366
86377W        W58802  26.587  33.817  12.963
86378W        W58803  25.478   1.782   2.729
86379W        W58804  10.178   7.692   4.498
86380W        W58805  40.015  31.384   3.222
86381W        W58806  38.362   7.313   9.899
86382W        W58807  12.101  44.969  14.706
86383W        W58808  43.331   0.353  12.980
86384W        W58809  12.856  41.111   1.978
86385W        W58810  13.335  28.539   0.641
86386W        W58811  15.756  27.816  14.938
86387W        W58812  22.234   1.155  12.945
86388W        W58813  32.721  16.929   0.179
86389W        W58814  26.745  22.378   5.075
86390W        W58815  40.013   0.969  13.785
86391W        W58816  10.061  20.280  12.083
86392W        W58817   1.892   4.704   4.883
86393W        W58818   5.302   1.508  14.358
86394W        W58819  32.628   9.143  10.513
86395W        W58820  20.164  34.622   1.910
86396W        W58821   2.663   2.919  14.447
86397W        W58822  36.162  17.090   4.424
86398W        W58823  33.489  23.578  13.761
86399W        W58824   0.780  28.957   1.257
86400W        W58825   7.710  31.839   5.030
86401W        W58826  36.582  43.868  11.918
86402W        W58827  33.158  25.656   1.112
86403W        W58828  18.424  42.622   4.830
86404W        W58829  18.279  27.044  14.432
86405W        W58830  25.332  24.318  14.776
86406W        W58831  30.716   6.227  11.965
86407W        W58832  29.504  12.175  14.349
86408W        W58833  13.552  26.996  14.344
86409W        W58834  12.685   0.894   1.754
86410W        W58835  30.482  25.282   0.203
86411W        W58836  40.554  16.043   4.480
86412W        W58837  40.862  44.567  13.385
86413W        W58838  19.559  30.856   4.212
86414W        W58839  20.075   2.452   4.618
86415W        W58840  11.143   3.393   2.425
86416W        W58841  14.723   1.003   1.308
86417W        W58842  20.698   5.322   1.695
86418W        W58843  16.492   2.336  12.116
86419W        W58844  32.122  23.131  14.019
86420W        W58845  43.710  14.327   0.208
86421W        W58846  38.365   3.845   1.278
86422W        W58847  34.699  44.130  10.457
86423W        W58848  12.236  39.431  11.792
86424W        W58849   4.367  10.858   1.417
86425W        W58850  37.962  24.985   2.771
86426W        W58851   1.892  14.614   0.336
86427W        W58852  29.073  41.227  13.888
86428W        W58853  35.072  22.474   4.612
86429W        W58854   4.129  14.384  13.398
86430W        W58855  21.924   9.767   2.768
86431W        W58856  34.735  30.034   4.547
86432W        W58857   3.216  30.460  12.303
86433W        W58858  23.143  25.213   1.559
86434W        W58859  29.148  42.773   4.092
86435W        W58860  37.386   6.224   4.460
86436W        W58861  18.277  22.007   2.684
86437W        W58862  13.170  40.468  12.151
86438W        W58863   9.401   4.325   0.494
86439W        W58864   8.562  43.854   3.451
86440W        W58865   6.650  43.874   4.875
86441W        W58866  22.394  11.856  11.170
86442W        W58867  35.567  20.491   4.624
86443W        W58868  34.474   8.362   4.102
86444W        W58869   7.032  42.619   0.829
86445W        W58870  19.975  38.399  10.710
86446W        W58871  30.634  30.311   3.735
86447W        W58872   2.284  33.423   1.251
86448W        W58873   4.240  19.659  14.503
86449W        W58874  41.943   4.286  13.759
86450W        W58875  24.898   6.239   0.322
86451W        W58876  14.936   0.200   2.239
86452W        W58877  31.683  31.820   2.358
86453W        W58878  38.022  16.222  13.757
86454W        W58879  27.664  32.597   3.873
86455W        W58880   3.170  27.594   0.898
86456W        W58881   4.458  14.659   0.944
86457W        W58882  28.987  27.067  12.992
86458W        W58883  30.004  15.447   2.635
86459W        W58884  40.543  11.081   3.783
86460W        W58885  27.247  18.441   1.441
86461W        W58886  35.315  20.125  14.787
86462W        W58887  30.164   3.723  14.201
86463W        W58888  44.245  18.109  11.633
86464W        W58889  19.749  43.493   1.867
86465W        W58890  27.559  15.191  11.332
86466W        W58891  26.819  23.998   1.836
86467W        W58892  31.741  13.749  12.021
86468W        W58893  16.847  31.189  13.850
86469W        W58894  11.637  42.413   3.846
86470W        W58895  25.090  11.699   2.556
86471W        W58896  23.651  10.098  10.951
86472W        W58897  37.215  21.767   0.394
86473W        W58898  28.107   9.212  11.621
86474W        W58899  35.806  15.060  12.093
86475W        W58900  17.162  14.825   0.346
86476W        W58901  13.246  14.127   2.334
86477W        W58902  43.435  21.163   4.604
86478W        W58903  21.941   4.713  13.398
86479W        W58904  16.193  30.956  14.263
86480W        W58905  30.420   6.273  12.394
86481W        W58906  34.683  25.586   1.990
86482W        W58907   1.227  40.403   2.346
86483W        W58908  20.778  30.910  11.057
86484W        W58909   6.491  13.332  12.427
86485W        W58910  21.812  28.487   2.714
86486W        W58911  31.486   2.775  13.348
86487W        W58912   5.382  42.571   2.462
86488W        W58913  39.637  23.882   0.742
86489W        W58914   0.833  14.142   1.916
86490W        W58915   5.893  21.714  14.987
86491W        W58916   7.676  35.944   1.105
86492W        W58917  10.350  11.740   4.154
86493W        W58918   5.823  29.643  11.844
86494W        W58919   9.461  31.100  12.703
86495W        W58920  13.568  18.711  10.425
86496W        W58921   6.924  16.117   4.574
86497W        W58922   5.400  35.400  11.675
86498W        W58923  19.678   4.228  11.410
86499W        W58924   0.462  16.988   1.802
86500W        W58925  30.081  34.922  11.941
86501W        W58926  27.943  27.430   2.221
86502W        W58927  39.273  39.876   2.739
86503W        W58928  36.285  32.500  13.557
86504W        W58929  23.711  43.106  11.607
86505W        W58930  16.214   1.905  13.378
86506W        W58931  43.638   4.181  13.061
86507W        W58932  33.343   4.652   2.524
86508W        W58933  25.554  36.626   2.754
86509W        W58934   9.604   8.767  12.455
86510W        W58935  23.321   8.727  14.878
86511W        W58936   8.344   1.348  13.866
86512W        W58937  10.443  28.871  14.044
86513W        W58938  26.934  36.308  14.838
86514W        W58939  36.456  32.519   2.829
86515W        W58940   0.291   7.348   4.101
86516W        W58941  35.574  33.044   4.453
86517W        W58942  44.310   3.483   4.999
86518W        W58943  15.619  26.510   2.142
86519W        W58944  13.927  29.478  14.435
86520W        W58945  44.396   1.356  13.476
86521W        W58946  15.467  44.440   2.440
86522W        W58947   5.698  14.624   3.798
86523W        W58948   5.237  41.323   5.077
86524W        W58949   2.813  29.719  14.926
86525W        W58950  34.543  23.222  11.453
86526W        W58951  22.993   8.712  10.574
86527W        W58952   3.703  41.592   3.630
86528W        W58953  21.838   2.046   0.314
86529W        W58954  22.280  24.590   2.058
86530W        W58955  13.943  23.657  10.579
86531W        W58956  16.469  43.202   5.112
86532W        W58957  43.791  37.923  12.340
86533W        W58958  16.476  35.498  10.413
86534W        W58959   3.662  34.500   2.612
86535W        W58960  38.557  24.943   0.874
86536W        W58961   0.498  32.049  12.465
86537W        W58962  34.913   5.332   4.617
86538W        W58963  44.704  39.283  11.088
86539W        W58964  26.673  44.756   0.312
86540W        W58965   9.636  20.415   3.488
86541W        W58966  14.863   6.115  12.116
86542W        W58967  17.736   4.471   4.240
86543W        W58968  21.671  41.332  13.767
86544W        W58969  40.485  25.241  14.768
86545W        W58970  11.629  31.480   1.736
86546W        W58971  41.814  27.443  10.599
86547W        W58972  18.648  24.989  11.039
86548W        W58973  20.298   5.232  13.014
86549W        W58974  17.569  33.972   3.745
86550W        W58975  32.107  23.015   3.356
86551W        W58976  14.030  27.910  11.518
86552W        W58977  22.726  38.130  11.013
86553W        W58978  38.971  15.317  10.729
86554W        W58979  44.361  18.025  11.027
86555W        W58980  27.469   9.607  14.819
86556W        W58981  42.284  15.780   4.174
86557W        W58982  36.879   2.698  11.882
86558W        W58983  37.352   6.876  13.056
86559W        W58984   6.722  25.090  12.082
86560W        W58985  23.948  24.742  11.654
86561W        W58986  12.618  42.915   3.624
86562W        W58987  16.284  23.462   4.119
86563W        W58988  12.250  19.618   1.781
86564W        W58989  32.216  43.295   1.439
86565W        W58990   0.481   7.156  11.625
86566W        W58991   2.776  14.357  12.811
86567W        W58992  33.674  17.373   4.987
86568W        W58993  26.714  21.230   4.683
86569W        W58994  31.137  31.048   2.061
86570W        W58995  26.642  41.994  12.840
86571W        W58996   6.556   8.945   5.120
86572W        W58997  23.741  21.048   0.650
86573W        W58998  19.200  44.211  12.579
86574W        W58999  24.696  23.770  14.580
86575W        W59000  42.602  20.786  14.808
86576W        W59001  13.351  42.895  14.067
86577W        W59002  38.058  28.041   2.330
86578W        W59003  10.061  26.967   3.895
86579W        W59004  38.205   3.152  14.706
86580W        W59005  31.332   1.964   3.214
86581W        W59006   8.638  20.494   3.707
86582W        W59007  33.930   5.767  11.947
86583W        W59008   1.740  18.291   2.206
86584W        W59009  27.217  41.288  13.982
86585W        W59010  18.362  13.065  12.287
86586W        W59011   8.096  26.178  11.302
86587W        W59012  37.064   7.295   0.449
86588W        W59013  31.714  21.795   9.732
86589W        W59014  15.890   9.937   2.247
86590W        W59015  28.109  43.530   0.423
86591W        W59016  21.233  12.897  12.283
86592W        W59017  43.626  27.923   3.154
86593W        W59018  29.579  23.477  10.640
86594W        W59019  31.698   3.265   3.442
86595W        W59020  13.372   1.360   2.652
86596W        W59021  26.486  22.523   1.236
86597W        W59022   2.963   0.531   2.672
86598W        W59023   9.120  25.760   1.480
86599W        W59024  35.540  23.748   2.882
86600W        W59025  18.261  38.881   0.035
86601W        W59026  21.720   9.454   1.287
86602W        W59027  14.713  39.476  13.062
86603W        W59028  23.315  28.579   0.080
86604W        W59029  22.774  44.388   0.552
86605W        W59030  27.576  28.860  12.107
86606W        W59031  35.669  34.546  12.548
86607W        W59032  14.057  28.556  12.874
86608W        W59033  31.894  23.584   3.126
86609W        W59034  20.161  37.948   3.226
86610W        W59035  30.986  32.038  14.400
86611W        W59036  39.334   5.033  13.709
86612W        W59037  37.113  37.631  14.893
86613W        W59038   2.334  35.560   0.819
86614W        W59039   8.709   2.844  10.387
86615W        W59040  42.000  32.491  10.772
86616W        W59041  24.612  43.221   2.709
86617W        W59042  24.140  29.693  13.726
86618W        W59043  34.890   2.697   3.129
86619W        W59044   3.659  16.518   4.047
86620W        W59045  25.323  37.899   0.525
86621W        W59046   7.208   6.922   4.581
86622W        W59047  11.764   3.438   0.928
86623W        W59048   7.280  16.361  11.248
86624W        W59049  41.515  16.028  10.631
86625W        W59050  21.528  16.606  13.107
86626W        W59051  30.291  40.040   2.008
86627W        W59052   2.370  28.450  14.547
86628W        W59053  39.070  33.355   1.916
86629W        W59054  10.374  28.347   2.218
86630W        W59055  31.530  28.249  11.422
86631W        W59056   4.468  13.745  13.942
86632W        W59057   3.842  26.346  14.037
86633W        W59058  38.070  26.660  12.497
86634W        W59059   8.827  15.136   2.829
86635W        W59060  12.448  33.144   0.546
86636W        W59061  15.768   0.248   0.446
86637W        W59062  17.554  27.147   4.878
86638W        W59063  34.095  10.808  11.396
86639W        W59064  21.028  22.765  14.289
86640W        W59065  17.594  12.754  11.001
86641W        W59066   0.295  30.183  13.049
86642W        W59067  38.282  33.113  12.515
86643W        W59068  30.080  22.446  13.391
86644W        W59069  27.812  24.120   4.260
86645W        W59070  26.220  24.121  14.794
86646W        W59071  23.968  26.777  13.029
86647W        W59072   0.920  37.943  11.096
86648W        W59073  32.139  27.547   2.465
86649W        W59074  44.383  12.620   3.698
86650W        W59075  10.321  12.662  13.844
86651W        W59076   3.967  22.689  14.869
86652W        W59077  23.739  25.188  14.211
86653W        W59078  37.683  21.539   0.335
86654W        W59079  19.270  15.642  14.981
86655W        W59080  18.206   4.761   1.681
86656W        W59081  22.631  32.247   4.163
86657W        W59082  19.699  39.537   4.400
86658W        W59083  44.282  35.097  11.460
86659W        W59084  35.124  43.183   4.645
86660W        W59085  31.598  28.413   2.401
86661W        W59086  44.914  31.844   9.779
86662W        W59087  12.257  32.150  11.527
86663W        W59088  24.138  24.463  11.287
86664W        W59089  18.221  43.413   4.731
86665W        W59090  13.122  27.438  11.797
86666W        W59091   5.507   1.012   3.536
86667W        W59092  42.720   2.745  10.828
86668W        W59093  31.979  29.127   2.844
86669W        W59094  28.811  23.198  12.804
86670W        W59095  26.570  13.892  13.898
86671W        W59096  13.365  27.853   2.829
86672W        W59097  34.959  31.475   2.897
86673W        W59098   0.928   8.752   2.375
86674W        W59099   0.742  22.003  12.115
86675W        W59100   7.308   9.457  12.587
86676W        W59101   5.307  25.033  14.910
86677W        W59102  12.371  21.597  11.961
86678W        W59103  20.167  34.867  13.957
86679W        W59104   0.592  34.431   0.278
86680W        W59105  18.588  31.043   3.125
86681W        W59106  13.665  24.792  11.872
86682W        W59107  26.796  27.964   2.839
86683W        W59108  20.416  13.235  14.444
86684W        W59109  23.279  36.860   1.469
86685W        W59110  44.482  25.036   3.210
86686W        W59111  34.991   9.609  11.899
86687W        W59112  14.363  36.004  13.946
86688W        W59113  40.320  37.130   4.996
86689W        W59114   6.576  41.789  13.089
86690W        W59115  35.368   9.766   0.554
86691W        W59116  29.426  26.911   3.198
86692W        W59117  40.433  43.389  11.844
86693W        W59118  41.732   0.828   0.777
86694W        W59119  24.151  12.054  13.370
86695W        W59120   6.714  19.634   2.786
86696W        W59121   2.009  38.123   2.316
86697W        W59122   5.810  23.599   4.078
86698W        W59123  12.538  19.511   2.215
86699W        W59124  17.571  25.149  11.140
86700W        W59125   0.916  34.087   9.606
86701W        W59126  23.674  26.003   2.791
86702W        W59127  33.977  37.095   1.451
86703W        W59128  30.883  14.708  10.488
86704W        W59129  18.287  30.870  10.587
86705W        W59130  22.431  24.951   4.636
86706W        W59131  38.364  33.657   1.364
86707W        W59132  15.378   8.806  13.967
86708W        W59133  16.602  11.059   2.705
86709W        W59134  11.340   6.396   3.376
86710W        W59135  29.494  16.315   2.691
86711W        W59136  31.963   9.197  12.529
86712W        W59137  42.458  40.325  14.879
86713W        W59138  42.342  39.815   3.678
86714W        W59139  17.934  13.241   0.819
86715W        W59140  38.010  13.611   3.045
86716W        W59141   5.361   7.214  10.972
86717W        W59142  16.349  18.545   3.183
86718W        W59143  18.433  28.797   3.969
86719W        W59144  40.394  19.381   4.454
86720W        W59145  32.493  44.304   4.017
86721W        W59146  10.714  20.261   4.346
86722W        W59147  18.723  13.795   1.712
86723W        W59148  28.003  28.948   2.240
86724W        W59149  36.414  22.553  13.387
86725W        W59150  38.585  22.028  10.623
86726W        W59151   3.664  43.182  13.440
86727W        W59152  23.043   7.589   1.443
86728W        W59153   6.263   3.821   3.409
86729W        W59154   5.402   5.109   2.756
86730W        W59155  32.364   9.208   0.790
86731W        W59156  31.704  24.484   0.498
86732W        W59157  18.136  39.559  14.559
86733W        W59158  21.957  27.514   4.151
86734W        W59159  24.620   0.928   1.754
86735W        W59160  15.655  25.962  13.485
86736W        W59161  26.776   2.733  14.001
86737W        W59162  33.424  15.025   2.712
86738W        W59163  27.102   4.385  14.858
86739W        W59164   7.945  10.869  11.163
86740W        W59165  32.069   0.721  13.813
86741W        W59166  32.435   9.312  13.055
86742W        W59167  19.921  28.187   9.839
86743W        W59168  16.014  26.495   0.900
86744W        W59169  40.605  20.535  10.309
86745W        W59170  19.914   2.045   2.911
86746W        W59171   2.050  19.919  14.961
86747W        W59172  23.305   1.551   3.746
86748W        W59173  25.367  26.469   3.707
86749W        W59174  36.472  15.923   2.346
86750W        W59175  37.489  24.637  14.514
86751W        W59176  12.338  27.007   1.689
86752W        W59177  26.133  11.383  14.418
86753W        W59178   7.758  42.322  14.387
86754W        W59179  44.905  11.144   2.201
86755W        W59180  40.251  33.547   1.380
86756W        W59181  19.970  33.865  14.054
86757W        W59182  40.075  22.177   1.818
86758W        W59183  40.968  22.267  14.323
86759W        W59184  25.466  37.860   3.239
86760W        W59185  32.071  12.773  13.867
86761W        W59186  13.143  38.359   0.281
86762W        W59187  28.806  29.631  10.742
86763W        W59188  11.103  28.104  11.785
86764W        W59189  32.530  43.895  12.145
86765W        W59190  11.744  23.715  13.356
86766W        W59191  34.667  19.529   3.630
86767W        W59192   0.508  43.952   0.317
86768W        W59193   6.971  40.319   0.745
86769W        W59194   6.202  42.732  13.789
86770W        W59195  39.267  12.727   3.131
86771W        W59196  42.016  14.064   1.475
86772W        W59197   9.386  31.002  10.644
86773W        W59198  16.169  35.494  11.259
86774W        W59199  24.710  30.464   4.029
86775W        W59200  22.091   2.017  13.998
86776W        W59201  33.164   0.001  11.525
86777W        W59202  44.864  15.942   2.450
86778W        W59203  31.018  17.600   1.538
86779W        W59204  12.572   8.413   1.908
86780W        W59205  19.231   9.829   4.577
86781W        W59206  18.108   0.375   1.931
86782W        W59207  32.917  21.166   2.822
86783W        W59208  26.605  28.925  11.585
86784W        W59209  29.187  37.608  12.701
86785W        W59210  26.807  23.119   1.560
86786W        W59211  17.917  11.909  12.079
86787W        W59212  20.954  11.327   0.645
86788W        W59213  25.596   9.196   2.285
86789W        W59214   6.098   4.312   2.320
86790W        W59215  38.066  30.688   4.081
86791W        W59216  44.985   9.186   3.828
86792W        W59217   5.072  38.244  13.316
86793W        W59218  29.129  16.049  10.557
86794W        W59219  43.389  42.683  11.589
86795W        W59220  17.905  38.953   0.429
86796W        W59221  27.512  42.946  10.433
86797W        W59222  16.862  36.344  11.113
86798W        W59223  30.478  24.755  12.761
86799W        W59224   3.485  33.095   1.902
86800W        W59225  29.177  28.980   4.918
86801W        W59226  44.801  24.617  12.661
86802W        W59227  24.430  17.222   1.162
86803W        W59228  20.532  12.397   1.400
86804W        W59229  21.201  19.317  14.373
86805W        W59230  29.945   0.685  11.132
86806W        W59231  11.159  26.682   4.266
86807W        W59232  24.956  44.086   4.934
86808W        W59233  36.973   4.146  11.383
86809W        W59234  28.123  39.332  12.087
86810W        W59235  20.285  19.983   1.745
86811W        W59236   2.159  27.890   1.549
86812W        W59237  20.643   5.475  11.081
86813W        W59238   5.602   8.682  13.408
86814W        W59239  11.231  40.992  10.969
86815W        W59240  26.137  19.287  14.450
86816W        W59241  29.412   8.853  12.160
86817W        W59242  18.087  31.472   4.640
86818W        W59243  25.707  26.636  11.769
86819W        W59244  22.846  43.885  11.057
86820W        W59245  42.406  24.035   2.034
86821W        W59246  32.031  20.563  12.230
86822W        W59247  19.200  35.056   1.886
86823W        W59248   1.402  30.597  13.030
86824W        W59249  42.098  35.887  10.735
86825W        W59250  35.169   5.848   0.450
86826W        W59251  14.894  28.430  10.685
86827W        W59252  12.855  30.106   4.119
86828W        W59253  19.460  40.953  11.075
86829W        W59254  24.555   8.074  11.965
86830W        W59255  31.420  26.776  14.386
86831W        W59256  17.103  29.232   1.520
86832W        W59257  24.970   5.838  13.327
86833W        W59258  39.715   6.701   2.512
86834W        W59259  34.842  33.071   4.905
86835W        W59260  24.476   4.784   4.759
86836W        W59261  37.216  13.142   0.481
86837W        W59262   2.841  21.440  14.745
86838W        W59263  33.890  43.478  10.403
86839W        W59264   0.392  17.261   2.264
86840W        W59265  15.116  21.193  10.539
86841W        W59266   2.239  26.949  14.243
86842W        W59267   3.547  23.552   1.773
86843W        W59268  25.978  33.590   4.530
86844W        W59269  12.179  17.331   3.848
86845W        W59270  30.640  24.364  10.090
86846W        W59271  41.323  25.226   2.234
86847W        W59272  27.966  40.624   4.667
86848W        W59273  44.816  32.559  11.601
86849W        W59274  44.367   3.162   3.668
86850W        W59275  12.326  25.327  11.954
86851W        W59276  14.740  37.653  13.821
86852W        W59277   9.429  27.013   0.955
86853W        W59278  32.274  42.578   2.827
86854W        W59279   2.639  31.159   4.630
86855W        W59280  10.324   4.341   1.136
86856W        W59281  12.789  14.649  13.433
86857W        W59282  42.731  38.322   0.921
86858W        W59283   5.816  36.894  14.921
86859W        W59284  29.239   2.524   1.250
86860W        W59285   8.304  28.356   2.005
86861W        W59286  43.934  30.326   0.567
86862W        W59287  40.594  21.244   4.177
86863W        W59288  13.780  34.612   2.933
86864W        W59289   8.777  30.224  10.581
86865W        W59290  18.095  11.474   0.222
86866W        W59291   8.797  16.464  11.675
86867W        W59292   7.634  33.388   2.815
86868W        W59293  22.146  18.096   4.384
86869W        W59294  13.870  20.151   4.507
86870W        W59295   4.724  21.405  10.174
86871W        W59296  37.389  40.569  12.514
86872W        W59297  44.411  12.397   1.975
86873W        W59298  32.467  38.128  13.481
86874W        W59299   0.584  21.059   0.818
86875W        W59300  14.902  18.020  13.575
86876W        W59301  34.866  41.765  12.521
86877W        W59302   4.502   7.543  11.606
86878W        W59303  16.125   0.739   4.868
86879W        W59304  10.060  15.099   2.264
86880W        W59305  10.640  31.908   5.000
86881W        W59306  31.353  31.520  12.799
86882W        W59307   7.176  41.990   4.382
86883W        W59308  35.622  33.967  13.414
86884W        W59309  37.483   5.646  14.874
86885W        W59310  34.021   9.661  14.879
86886W        W59311  23.528  27.640  12.967
86887W        W59312   6.282  13.160   0.382
86888W        W59313  41.835  20.261   0.898
86889W        W59314  19.534  18.156   4.655
86890W        W59315  38.488   8.806   5.064
86891W        W59316  35.468  15.658   0.347
86892W        W59317  37.814  27.725   0.529
86893W        W59318  12.250  33.533   1.365
86894W        W59319   8.605  15.864   4.752
86895W        W59320  35.586  19.160   1.942
86896W        W59321  22.715  24.332   1.909
86897W        W59322  18.860  40.495   4.096
86898W        W59323  30.745  25.499  13.617
86899W        W59324   9.456   3.407  11.410
86900W        W59325  27.056   8.899  13.157
86901W        W59326   2.224   7.764   2.624
86902W        W59327  20.190  14.401  14.801
86903W        W59328   7.275  20.436   2.866
86904W        W59329  40.792  11.188  13.775
86905W        W59330  15.158  36.009   9.942
86906W        W59331  25.698   2.693   4.115
86907W        W59332   9.184  19.580   0.138
86908W        W59333   0.342  15.100   2.286
86909W        W59334  26.064  30.356   4.238
86910W        W59335  29.984  41.298  11.909
86911W        W59336  42.582   2.134   2.185
86912W        W59337  37.120  14.060   0.428
86913W        W59338  11.798  32.069  10.222
86914W        W59339  37.293  31.847   2.338
86915W        W59340   9.267  35.523  10.738
86916W        W59341  22.168   1.578  12.515
86917W        W59342  24.201   4.268   3.421
86918W        W59343  10.794  19.478   0.953
86919W        W59344  37.464  18.500   4.190
86920W        W59345  33.936   1.931  10.758
86921W        W59346  42.305   7.135   3.187
86922W        W59347  23.554  20.372   2.231
86923W        W59348  42.813  20.778  13.517
86924W        W59349  41.454  29.124   2.829
86925W        W59350  25.691  20.446  11.363
86926W        W59351  39.020   4.784   3.597
86927W        W59352  31.107  35.105  12.052
86928W        W59353  44.486  41.479  13.966
86929W        W59354   5.342  28.673   1.328
86930W        W59355  15.215  39.970  14.089
86931W        W59356  23.891  37.639  12.459
86932W        W59357  26.271  42.004  14.657
86933W        W59358  27.068   0.899  14.542
86934W        W59359  21.567   5.842   2.396
86935W        W59360  43.900  24.215  12.956
86936W        W59361  15.633  30.679   4.195
86937W        W59362  23.980  19.828  11.304
86938W        W59363  14.873  39.958  14.969
86939W        W59364  29.077  37.791  14.296
86940W        W59365  15.090  15.642  10.482
86941W        W59366  35.009  13.418  12.885
86942W        W59367  36.451   5.174   3.766
86943W        W59368   8.594   3.621  14.985
86944W        W59369   8.383  35.924   0.023
86945W        W59370   3.154  37.653  12.620
86946W        W59371  33.200  15.746   3.182
86947W        W59372  43.600  12.748  11.732
86948W        W59373   9.771  28.495   0.925
86949W        W59374  35.641  38.806   0.982
86950W        W59375  43.695  27.212  11.629
86951W        W59376  33.033  31.838   0.280
86952W        W59377  13.115   9.170   4.149
86953W        W59378   9.822  33.772  11.620
86954W        W59379  17.438  35.870   0.664
86955W        W59380   5.845  29.592  11.325
86956W        W59381  34.540   8.701   0.477
86957W        W59382  19.505  21.125   0.338
86958W        W59383  26.259  21.885   4.472
86959W        W59384  22.180  14.170  14.885
86960W        W59385  37.630  17.614  11.594
86961W        W59386  36.380  35.921   2.955
86962W        W59387  33.076  34.659  13.040
86963W        W59388  27.062  27.261  13.024
86964W        W59389   9.446  21.373  13.844
86965W        W59390   3.865  28.105   0.944
86966W        W59391  12.827   1.945   4.069
86967W        W59392  37.163  44.580  11.977
86968W        W59393  12.467  40.439   4.914
86969W        W59394  26.261  29.138   5.193
86970W        W59395   4.458   0.820   3.900
86971W        W59396  38.894  26.495  12.747
86972W        W59397   7.343  11.352  12.529
86973W        W59398  35.987   7.495   0.267
86974W        W59399  39.799  18.807   4.605
86975W        W59400  24.213   3.101   2.562
86976W        W59401  25.447  32.624  10.189
86977W        W59402  43.710   1.117   0.497
86978W        W59403  39.305   9.109   1.933
86979W        W59404  21.596   9.364   2.766
86980W        W59405  10.825  28.896  11.202
86981W        W59406  12.929  24.704  12.468
86982W        W59407  42.810   3.612  13.388
86983W        W59408  30.448  39.843   3.011
86984W        W59409  28.103   6.379  14.943
86985W        W59410  41.994  18.705  14.948
86986W        W59411   4.749  36.789  13.611
86987W        W59412  18.284  12.709   2.677
86988W        W59413   4.206  29.421   3.029
86989W        W59414  20.714   5.224  12.290
86990W        W59415  35.145  18.285   0.486
86991W        W59416  30.332  10.039  13.004
86992W        W59417  10.101  15.796  12.912
86993W        W59418  24.963  24.792  11.754
86994W        W59419  19.492  35.444  11.697
86995W        W59420   9.671  16.945  11.863
86996W        W59421  34.934   4.185   2.209
86997W        W59422  24.647  29.723   4.590
86998W        W59423  11.772  36.093  13.045
86999W        W59424   4.739  33.856   4.536
87000W        W59425   8.512  21.262   0.780
87001W        W59426   7.733  44.408  12.840
87002W        W59427  18.855  38.019  12.858
87003W        W59428  35.365  43.079   1.666
87004W        W59429  20.939  41.754   1.681
87005W        W59430   0.326   8.314  14.793
87006W        W59431  23.499  29.438   2.327
87007W        W59432   4.915   7.854  11.562
87008W        W59433  18.561  41.895   1.324
87009W        W59434  16.333  18.618   3.780
87010W        W59435  26.157  26.628   0.807
87011W        W59436  32.156  35.575  14.475
87012W        W59437  23.812  25.488  14.996
87013W        W59438   1.912  15.704  11.785
87014W        W59439   3.324  42.690   1.894
87015W        W59440   3.648  43.180  14.933
87016W        W59441  36.610   5.498   1.074
87017W        W59442  16.858  23.042  13.225
87018W        W59443  25.751  24.608  12.522
87019W        W59444  39.387   7.726  12.881
87020W        W59445  32.910  43.764  13.653
87021W        W59446  31.859  30.846   3.970
87022W        W59447   4.857   4.036   1.180
87023W        W59448  35.885  26.470  11.497
87024W        W59449  34.147  27.163   1.427
87025W        W59450  21.747  25.625   4.956
87026W        W59451  39.092  37.343  12.414
87027W        W59452  22.111  25.039  13.286
87028W        W59453  42.718  21.701  10.866
87029W        W59454  39.464   6.836  10.486
87030W        W59455  22.325  27.445   0.664
87031W        W59456  16.073   7.709   1.968
87032W        W59457  10.686  28.427  13.891
87033W        W59458  33.431  21.589   4.586
87034W        W59459   0.782  28.979  11.264
87035W        W59460  12.641   3.862  11.288
87036W        W59461  39.535  27.508  11.960
87037W        W59462  23.079  27.892  12.088
87038W        W59463   7.954  10.206  11.926
87039W        W59464  39.935  18.176   0.474
87040W        W59465  35.660  20.000   4.520
87041W        W59466  10.862  24.896  12.993
87042W        W59467  29.982  36.471   1.476
87043W        W59468  10.841  41.990   4.922
87044W        W59469  36.548  19.812  14.765
87045W        W59470  32.809  18.057   3.308
87046W        W59471  40.464  44.042   2.314
87047W        W59472   6.451   3.860   0.360
87048W        W59473  40.912  44.103   0.417
87049W        W59474  18.556   8.870   4.327
87050W        W59475  14.898  24.907  12.463
87051W        W59476  36.966  28.137   0.361
87052W        W59477  37.927  39.607  14.335
87053W        W59478   7.436  41.415   2.924
87054W        W59479  18.708  33.182   0.765
87055W        W59480  17.831  44.076   3.655
87056W        W59481   1.365  28.484   1.046
87057W        W59482  30.941   4.871  13.947
87058W        W59483  31.446  21.981  10.635
87059W        W59484  16.579  16.103   3.576
87060W        W59485  14.783  28.700   3.749
87061W        W59486  38.098   9.205  12.407
87062W        W59487  29.645  42.971  12.152
87063W        W59488  38.121  12.158  13.356
87064W        W59489  12.636  37.080  13.185
87065W        W59490   8.670  22.252  13.500
87066W        W59491  19.698  26.887   4.029
87067W        W59492  33.815  19.596   0.156
87068W        W59493  39.026   3.644   2.335
87069W        W59494  26.460  43.796   0.721
87070W        W59495   9.847  31.649   2.257
87071W        W59496  32.156   2.361   3.235
87072W        W59497  32.040  38.807  14.138
87073W        W59498  16.382  12.060   2.799
87074W        W59499  23.488  40.431  10.829
87075W        W59500   9.329   8.655   0.850
87076W        W59501  37.032   6.386  10.678
87077W        W59502  41.506  10.208   2.874
87078W        W59503   8.853  38.060   3.802
87079W        W59504  27.424   2.067   3.081
87080W        W59505  34.457  37.002   1.298
87081W        W59506  36.280  16.298   1.534
87082W        W59507  27.954  33.467  12.459
87083W        W59508   7.662  41.409  14.374
87084W        W59509  11.672   2.390  14.088
87085W        W59510   0.526  26.601   4.797
87086W        W59511  16.599  40.321  10.769
87087W        W59512  29.603   9.183  12.532
87088W        W59513  15.611  38.302   0.173
87089W        W59514  22.010  22.168  13.057
87090W        W59515  35.087   7.558   0.268
87091W        W59516  12.471  36.119   1.376
87092W        W59517   3.392   4.925   4.254
87093W        W59518   6.029  19.502  11.140
87094W        W59519  13.371  25.576  11.084
87095W        W59520  22.502  11.503   1.835
87096W        W59521   7.445  43.784  11.282
87097W        W59522  26.604  11.641  14.381
87098W        W59523  38.353   7.774   3.618
87099W        W59524  15.844   4.945  13.945
87100W        W59525   5.932  42.555  14.499
87101W        W59526   7.205  37.857  13.156
87102W        W59527  12.658  23.639  10.180
87103W        W59528  39.805   9.284  11.905
87104W        W59529   3.114   7.292  11.067
87105W        W59530   9.605  25.057  11.736
87106W        W59531  14.299  37.589   2.397
87107W        W59532   2.364  40.616   0.772
87108W        W59533  34.144   8.184   1.742
87109W        W59534  27.484  31.399  14.319
87110W        W59535  37.550  35.634   3.613
87111W        W59536  39.622  19.306   0.979
87112W        W59537  12.291  28.526   0.463
87113W        W59538  33.111  26.280  14.484
87114W        W59539  21.112  24.046  10.690
87115W        W59540  32.053  34.760  14.050
87116W        W59541  34.992  42.315   2.702
87117W        W59542  36.063   4.273  14.684
87118W        W59543  14.547  36.816   0.399
87119W        W59544  43.421  43.715  11.492
87120W        W59545  19.316   8.397   0.619
87121W        W59546  21.535   6.413  13.874
87122W        W59547  11.411  13.165  13.431
87123W        W59548  11.675  16.773  10.425
87124W        W59549   4.880  40.360   1.647
87125W        W59550  38.889  30.078  14.671
87126W        W59551   1.447  38.037  14.908
87127W        W59552   0.378  33.910   4.930
87128W        W59553  29.069  22.207   2.505
87129W        W59554  37.694  15.807   5.029
87130W        W59555  37.869  28.561   2.218
87131W        W59556  14.118  19.691   3.204
87132W        W59557  36.944  44.655  12.836
87133W        W59558   5.936  21.571   2.934
87134W        W59559   7.914   7.492  10.916
87135W        W59560  10.067  43.299   4.097
87136W        W59561  25.646  31.933  14.388
87137W        W59562  19.984   1.434   1.167
87138W        W59563   0.405   3.686  12.098
87139W        W59564  30.503  43.694   2.202
87140W        W59565  16.198  11.057   3.059
87141W        W59566  10.194  19.765  12.091
87142W        W59567  25.363  21.040  12.637
87143W        W59568   2.685  35.451  10.605
87144W        W59569  43.982   9.621  10.954
87145W        W59570  40.342   3.382  12.984
87146W        W59571  36.481  24.202  11.576
87147W        W59572  41.284   0.896   1.052
87148W        W59573   3.079  39.942   2.253
87149W        W59574  26.377  19.808   3.690
87150W        W59575  32.505  24.162   4.008
87151W        W59576  16.860  21.834   3.171
87152W        W59577  41.371  23.675   2.211
87153W        W59578  20.599  42.313  14.235
87154W        W59579  13.900  39.460   4.553
87155W        W59580  44.392  33.548  13.908
87156W        W59581  23.280  10.239  14.032
87157W        W59582  11.192  16.368   1.753
87158W        W59583  44.187   3.495  10.154
87159W        W59584  13.738  25.547   1.693
87160W        W59585  11.964  33.303  12.986
87161W        W59586  15.578  29.234  12.888
87162W        W59587  29.430  10.704  14.019
87163W        W59588  21.710  44.896   1.236
87164W        W59589  20.741  28.464   0.919
87165W        W59590   6.279  38.309   4.693
87166W        W59591  36.582  44.801  11.163
87167W        W59592   2.810  16.143   4.071
87168W        W59593   7.699  19.642  11.145
87169W        W59594  31.585  33.855  13.174
87170W        W59595   3.823   0.840  12.111
87171W        W59596  41.992  38.550  14.256
87172W        W59597   1.779  22.984  11.451
87173W        W59598  24.764  33.084   4.211
87174W        W59599  15.283  32.703   4.123
87175W        W59600  42.880  26.477   2.289
87176W        W59601  16.417  26.288   1.772
87177W        W59602  43.411   3.203   0.751
87178W        W59603  13.864   6.103   1.519
87179W        W59604   9.462  30.501   2.732
87180W        W59605  37.932  23.152   2.718
87181W        W59606  27.118  42.929  12.036
87182W        W59607  26.987  40.931  14.669
87183W        W59608   0.524   3.854  12.929
87184W        W59609   1.916  32.067   4.847
87185W        W59610  24.162  35.180   4.604
87186W        W59611  11.357  27.167   3.186
87187W        W59612  19.919  34.580   3.591
87188W        W59613  22.975  16.307  11.435
87189W        W59614   5.278   2.817  14.007
87190W        W59615  36.595  22.406   4.944
87191W        W59616  39.341  32.459   1.852
87192W        W59617  14.258  25.937   2.292
87193W        W59618  20.276  25.359   3.654
87194W        W59619   7.595  31.945  12.922
87195W        W59620  22.145  19.719   1.207
87196W        W59621   2.645  16.273  13.758
87197W        W59622   8.744  34.445  14.884
87198W        W59623  44.481   1.864  13.564
87199W        W59624  24.693  29.034  12.485
87200W        W59625  40.848  29.700   3.181
87201W        W59626  43.109  34.196  14.977
87202W        W59627  12.299  16.842   3.697
87203W        W59628  38.442   7.702   1.669
87204W        W59629  14.228  27.342  12.441
87205W        W59630  31.614  20.271   0.871
87206W        W59631   7.198  16.595   0.806
87207W        W59632  13.176   2.764  12.883
87208W        W59633  43.765  44.945   2.719
87209W        W59634  33.152  33.869  13.798
87210W        W59635  33.956  14.869  12.935
87211W        W59636  11.174  39.918  13.752
87212W        W59637  29.470  13.575  13.444
87213W        W59638  18.333  19.266   5.017
87214W        W59639  44.730  16.024  12.279
87215W        W59640  32.924  35.135  12.994
87216W        W59641  38.615   1.667  14.519
87217W        W59642  33.841   6.916   2.299
87218W        W59643  16.312  39.246   0.444
87219W        W59644  17.821  39.040  13.381
87220W        W59645  34.976   4.408   3.609
87221W        W59646  15.369  28.578  13.384
87222W        W59647   2.236  33.426   1.761
87223W        W59648  10.541   2.383   2.816
87224W        W59649  10.151   0.385   0.381
87225W        W59650  42.790  28.177   4.649
87226W        W59651  14.909   6.701   0.247
87227W        W59652  35.318  42.478   4.134
87228W        W59653   3.290  43.567  13.386
87229W        W59654  17.028  13.271   1.177
87230W        W59655   1.207  39.086  14.943
87231W        W59656  21.420  39.412  13.912
87232W        W59657   2.219  12.097  14.367
87233W        W59658  29.985  28.629  14.839
87234W        W59659   7.255  13.756   2.084
87235W        W59660  13.083  20.044   4.127
87236W        W59661  23.123  19.104   4.465
87237W        W59662  44.287  31.654   5.316
87238W        W59663   2.914  39.973   0.853
87239W        W59664  13.341  20.045  11.825
87240W        W59665   8.164  42.958   4.383
87241W        W59666   7.509  27.530  13.485
87242W        W59667  10.261  15.860   1.178
87243W        W59668   4.892   0.613   9.795
87244W        W59669  30.060  15.308  12.082
87245W        W59670  39.308  42.367   3.791
87246W        W59671  40.434   7.805  14.818
87247W        W59672  28.929  43.207  14.864
87248W        W59673  35.006  41.347   2.613
87249W        W59674  44.386  23.449  14.006
87250W        W59675   2.969  14.301   1.446
87251W        W59676  26.719   4.161  13.870
87252W        W59677   5.606  11.805   3.745
87253W        W59678  15.498   9.405   0.310
87254W        W59679  20.364   1.676  12.958
87255W        W59680  13.671  10.498   0.859
87256W        W59681  12.348  32.477   2.038
87257W        W59682  27.692  21.479   1.116
87258W        W59683   4.584  31.077  13.039
87259W        W59684  24.015  13.164  11.056
87260W        W59685  19.040  24.501  14.440
87261W        W59686  33.835  16.142   0.834
87262W        W59687  40.945  39.429   0.532
87263W        W59688  32.117  38.143   4.720
87264W        W59689  30.123  22.587  12.022
87265W        W59690  36.583   0.897   1.299
87266W        W59691   8.085   0.460   3.597
87267W        W59692  18.114  18.747  10.767
87268W        W59693   1.929  33.914  14.375
87269W        W59694  13.754  44.876   1.787
87270W        W59695  34.614  11.438  12.226
87271W        W59696  19.790  25.549   4.624
87272W        W59697  21.192  21.734  10.075
87273W        W59698  12.941  11.225   3.408
87274W        W59699   5.782  16.818  14.528
87275W        W59700  32.374   2.359  11.585
87276W        W59701   7.226  33.661  12.430
87277W        W59702   4.656  18.159   0.604
87278W        W59703   7.825   7.679   3.302
87279W        W59704   9.667  36.778   3.326
87280W        W59705  32.091   0.336   4.174
87281W        W59706   5.555  15.109   3.832
87282W        W59707  31.615  33.881  13.747
87283W        W59708  25.713  18.190  11.004
87284W        W59709   9.330  39.278   4.772
87285W        W59710  29.908   8.759   0.085
87286W        W59711  28.910  21.668  14.548
87287W        W59712  12.375   4.664  11.080
87288W        W59713  10.832  33.618  13.457
87289W        W59714  34.390   4.660   1.824
87290W        W59715   0.992  15.850   3.197
87291W        W59716  19.473   6.106  11.232
87292W        W59717  18.563  31.159   2.173
87293W        W59718  18.646  42.404   2.256
87294W        W59719  15.125  30.120   2.702
87295W        W59720  44.873  19.462   1.163
87296W        W59721  43.310  22.454   2.149
87297W        W59722  21.524  21.632  10.940
87298W        W59723  21.759  17.279   4.055
87299W        W59724  19.095  21.623   2.710
87300W        W59725   1.228   1.271   2.703
87301W        W59726  28.143  36.450   1.648
87302W        W59727  22.729   5.983   4.172
87303W        W59728  22.496  42.631  13.477
87304W        W59729  13.205  27.869  14.855
87305W        W59730  21.106  35.039   0.872
87306W        W59731  44.419  16.160  13.976
87307W        W59732  24.287  38.380   1.898
87308W        W59733  21.837  21.995  11.714
87309W        W59734  39.241  12.785  13.095
87310W        W59735   5.933  12.055   2.709
87311W        W59736  11.660  13.447  13.813
87312W        W59737  29.915   5.360   0.551
87313W        W59738   5.414   6.555  14.352
87314W        W59739  41.483   2.861   3.256
87315W        W59740  33.722   3.195  10.731
87316W        W59741  37.129  35.134   0.084
87317W        W59742  24.083  10.380  14.751
87318W        W59743   2.345  15.659   4.604
87319W        W59744  44.374  26.406   4.071
87320W        W59745  29.262  35.856   3.314
87321W        W59746  35.813   1.413   4.263
87322W        W59747  17.789  40.239   2.260
87323W        W59748  34.835  19.279  10.728
87324W        W59749  42.959  19.544  14.848
87325W        W59750   0.441  36.550   2.373
87326W        W59751   2.495   5.491  12.107
87327W        W59752   9.196   8.429  12.632
87328W        W59753  37.998  33.985  13.533
87329W        W59754  25.660   2.912   3.622
87330W        W59755   8.431  27.439   2.841
87331W        W59756   1.835  28.360   1.294
87332W        W59757  30.591  36.328  11.186
87333W        W59758  36.005  42.626  12.486
87334W        W59759  27.731  16.880  14.401
87335W        W59760  30.451  31.097  13.806
87336W        W59761  21.718   1.353   1.215
87337W        W59762  13.758   0.449  13.557
87338W        W59763  11.842  25.991   0.544
87339W        W59764  20.622   9.817  14.521
87340W        W59765  16.964  28.110   3.147
87341W        W59766  20.655  11.272   2.829
87342W        W59767  34.631   3.897  11.599
87343W        W59768  22.575  37.429   2.095
87344W        W59769  10.419  42.212   2.678
87345W        W59770  37.823  17.373   3.503
87346W        W59771  25.886  21.423   0.054
87347W        W59772  43.980  35.146   3.806
87348W        W59773  39.052   6.211   1.483
87349W        W59774  37.051  14.539  12.935
87350W        W59775   6.815  21.414  13.906
87351W        W59776  27.762  26.368  10.710
87352W        W59777  22.477  20.971  14.902
87353W        W59778  43.988  14.197   1.142
87354W        W59779  28.425  12.567  11.078
87355W        W59780  11.448   9.911   4.626
87356W        W59781  18.642  42.404   3.616
87357W        W59782  35.823  41.364   3.637
87358W        W59783  31.798  42.934  14.317
87359W        W59784  41.265   4.784  11.091
87360W        W59785  29.365  28.046   2.618
87361W        W59786  28.398  25.015   0.883
87362W        W59787  21.016  15.758   2.385
87363W        W59788  22.150  34.141  13.293
87364W        W59789  33.730  14.113   2.684
87365W        W59790  14.243  25.537  11.967
87366W        W59791  22.756  21.050   0.330
87367W        W59792   9.651   0.476  10.708
87368W        W59793  30.654  21.603  10.289
87369W        W59794  19.191  44.256   1.190
87370W        W59795  35.097  28.184   5.097
87371W        W59796  43.472  43.196  11.508
87372W        W59797  13.786  10.731   4.345
87373W        W59798  27.325  10.366   4.042
87374W        W59799  18.833  19.733  11.676
87375W        W59800  31.614  20.854  12.174
87376W        W59801  42.844  10.183   0.687
87377W        W59802  20.515  27.480   2.157
87378W        W59803   9.801   3.182  11.703
87379W        W59804  13.517  22.889  13.634
87380W        W59805  13.494  27.347   1.987
87381W        W59806  18.112   4.955   4.648
87382W        W59807   3.380   3.011  14.404
87383W        W59808  22.250  22.025  11.426
87384W        W59809  26.913  30.938  14.956
87385W        W59810  38.001  44.752   2.830
87386W        W59811  38.909  25.646   4.112
87387W        W59812  23.617  17.505   1.501
87388W        W59813  23.028  39.453  12.990
87389W        W59814   0.411  34.479  11.634
87390W        W59815  18.570  36.455  14.985
87391W        W59816  31.068  32.852   0.138
87392W        W59817  27.137  27.551   4.072
87393W        W59818   4.287   7.770   1.063
87394W        W59819  26.486  23.004  11.015
87395W        W59820  17.849   5.420   2.808
87396W        W59821   9.914  31.383   0.361
87397W        W59822   3.789  38.917  12.404
87398W        W59823   7.134  10.927  11.589
87399W        W59824  11.889   6.174  10.367
87400W        W59825  21.293  43.199  14.803
87401W        W59826  43.980   8.883  13.857
87402W        W59827  36.309   1.874   3.821
87403W        W59828  31.013  44.776  11.850
87404W        W59829  37.941  21.314  11.007
87405W        W59830  31.926   9.516  13.741
87406W        W59831  22.975  39.531   3.740
87407W        W59832  20.799  21.449  13.495
87408W        W59833  21.758   2.921   0.381
87409W        W59834  25.527  21.728  12.946
87410W        W59835  24.703  42.777  11.056
87411W        W59836   4.730   5.962  11.200
87412W        W59837  33.119  22.588   5.022
87413W        W59838  21.607  44.026   4.952
87414W        W59839  22.442  23.657  14.377
87415W        W59840   7.232  27.924  14.929
87416W        W59841  34.480   5.167   3.871
87417W        W59842  32.391  32.931   1.388
87418W        W59843  19.348  35.035   0.293
87419W        W59844  23.611   3.619   3.688
87420W        W59845  44.008  38.437  11.664
87421W        W59846  25.505   1.599  13.690
87422W        W59847   2.433  32.800   4.394
87423W        W59848  31.358  36.932  14.528
87424W        W59849  13.979  13.559   0.772
87425W        W59850   6.227  11.042   1.014
87426W        W59851  34.816  42.421   1.346
87427W        W59852  22.358  37.694  10.715
87428W        W59853  13.805  19.269   1.024
87429W        W59854   8.376  42.176  13.519
87430W        W59855  27.582  30.119   4.581
87431W        W59856  10.392  36.568   1.699
87432W        W59857  36.770  42.516   3.778
87433W        W59858   3.001  21.151   4.192
87434W        W59859   0.072  42.455  11.463
87435W        W59860  22.739  25.596  11.121
87436W        W59861  38.958  20.980   2.253
87437W        W59862  25.251  41.322   4.285
87438W        W59863   2.782   1.946  10.422
87439W        W59864   1.642  12.937  12.139
87440W        W59865  13.273  34.516   2.943
87441W        W59866  27.287  30.126   2.554
87442W        W59867   6.852   3.248  11.151
87443W        W59868  14.235   0.197   0.278
87444W        W59869  38.280  22.644   1.296
87445W        W59870   1.881  38.269  13.817
87446W        W59871  13.734  28.238   4.112
87447W        W59872  27.577  30.385  10.604
87448W        W59873   4.021   4.846  14.371
87449W        W59874   8.710  22.133  12.373
87450W        W59875  30.401  37.841   3.273
87451W        W59876   3.254   0.442   3.924
87452W        W59877  15.529   1.411   4.846
87453W        W59878  37.297  32.607  10.587
87454W        W59879  22.852   0.953  14.931
87455W        W59880  22.581  18.167   2.201
87456W        W59881  29.192  30.421   3.694
87457W        W59882  23.962  34.550  14.801
87458W        W59883  43.172  15.166  10.733
87459W        W59884  10.053  30.587   2.278
87460W        W59885  36.841  34.129   2.306
87461W        W59886   7.216  43.883   4.133
87462W        W59887  31.815  19.516  13.498
87463W        W59888  17.596  29.912  13.462
87464W        W59889   5.501   6.797   1.542
87465W        W59890  25.036  24.952  13.513
87466W        W59891  30.494  13.512  14.025
87467W        W59892   7.744  13.277  11.977
87468W        W59893   2.802  29.904   3.142
87469W        W59894  13.829   2.568  11.580
87470W        W59895  28.072  41.588  11.662
87471W        W59896  10.792  26.596  13.370
87472W        W59897   3.733  15.663   1.287
87473W        W59898   1.674   9.115   2.981
87474W        W59899  29.482  44.181   1.245
87475W        W59900  10.388  36.121   4.837
87476W        W59901  13.845  16.227  12.212
87477W        W59902  15.766   6.737   1.691
87478W        W59903  15.446  29.665  11.977
87479W        W59904  35.173  16.982   4.504
87480W        W59905  14.667  36.175  11.569
87481W        W59906   3.145  29.322   5.046
87482W        W59907   8.738   7.900  10.984
87483W        W59908  15.252  40.906   4.866
87484W        W59909  14.249   2.464  13.525
87485W        W59910  15.223  23.982   2.736
87486W        W59911  23.133  42.472   3.698
87487W        W59912   3.861  34.217   4.249
87488W        W59913   5.189  25.014   0.819
87489W        W59914  19.456   6.869  14.369
87490W        W59915  21.795   4.155   3.159
87491W        W59916   4.560  43.971  11.211
87492W        W59917  20.551  27.853  11.047
87493W        W59918  11.596  42.774   4.649
87494W        W59919  27.268  39.289   3.340
87495W        W59920  44.947  44.763   1.887
87496W        W59921  10.621  40.483   1.612
87497W        W59922  41.718  18.229  14.833
87498W        W59923  23.234  26.995   1.313
87499W        W59924  24.067   9.837   5.187
87500W        W59925  43.926  34.812   4.699
87501W        W59926  24.429   5.250   4.106
87502W        W59927   0.643  25.594   1.851
87503W        W59928   1.423   5.344  11.492
87504W        W59929  23.993  14.234   0.429
87505W        W59930  24.469  25.467   4.656
87506W        W59931  10.370  18.038   0.184
87507W        W59932  27.421  30.349   0.736
87508W        W59933  22.189   6.275   1.757
87509W        W59934  18.598   2.696  14.071
87510W        W59935  36.847  12.584   4.544
87511W        W59936  28.442   0.419   0.427
87512W        W59937   7.992  22.472  11.613
87513W        W59938  31.287  13.858  13.776
87514W        W59939  42.963  17.819  10.697
87515W        W59940   5.515  18.137   4.477
87516W        W59941  30.473  37.804  13.801
87517W        W59942  27.014   8.725   1.845
87518W        W59943  16.529  38.669   1.683
87519W        W59944  44.054  10.832  14.791
87520W        W59945  29.855   1.619   2.633
87521W        W59946  32.585  16.571  12.567
87522W        W59947  38.273  10.342   3.719
87523W        W59948  15.820  14.061   4.882
87524W        W59949   4.914  10.151   2.754
87525W        W59950  43.522  10.844  13.367
87526W        W59951  37.144  19.219  10.995
87527W        W59952  14.731  28.059   1.742
87528W        W59953  25.576  35.450  14.819
87529W        W59954  38.586  17.567  11.696
87530W        W59955  15.074  43.003   0.379
87531W        W59956  15.157  20.379   4.353
87532W        W59957  28.133  32.006   3.642
87533W        W59958  25.773  28.299  14.589
87534W        W59959  41.632  20.976   4.940
87535W        W59960   3.967   0.352  12.056
87536W        W59961  11.710  26.636   1.363
87537W        W59962  31.937  23.220  14.491
87538W        W59963  32.758  24.652   3.197
87539W        W59964   3.285  25.582  10.772
87540W        W59965  39.032  24.752   0.748
87541W        W59966  19.996  11.904  14.326
87542W        W59967  29.539   3.831   4.372
87543W        W59968  23.038  21.120  14.016
87544W        W59969  28.170  40.621   5.141
87545W        W59970  40.278   3.279   3.583
87546W        W59971  23.099  44.264   3.854
87547W        W59972  19.104   0.373   4.178
87548W        W59973  24.745  42.755  10.137
87549W        W59974  35.218  30.697  12.830
87550W        W59975  18.995  36.918   0.480
87551W        W59976  19.633  41.973   5.032
87552W        W59977   3.362   4.779  10.265
87553W        W59978   4.321  43.526  10.911
87554W        W59979   4.753  10.103  13.092
87555W        W59980  19.709  20.553   2.281
87556W        W59981  12.810   3.794  10.628
87557W        W59982  43.815  22.166  11.536
87558W        W59983  17.067   8.661  12.253
87559W        W59984  27.484  11.275  10.676
87560W        W59985  34.754  28.921   2.361
87561W        W59986  36.455  20.154   0.141
87562W        W59987   9.289  35.839  11.162
87563W        W59988  41.976   5.405  12.513
87564W        W59989  26.591   1.891  12.731
87565W        W59990   6.471  23.142   0.725
87566W        W59991  39.779   3.337  12.973
87567W        W59992  39.913  36.845   4.519
87568W        W59993  37.022   2.735  13.360
87569W        W59994   5.468  32.035  13.138
87570W        W59995   6.709  43.040  10.787
87571W        W59996  19.916  26.460  10.653
87572W        W59997   1.049  36.379   3.262
87573W        W59998  14.586  13.316   1.973
87574W        W59999   8.349  37.387  14.529
87575W        W60000  10.777  18.608  12.516
87576W        W60001   1.801   9.879   4.787
87577W        W60002  34.434  14.203  11.675
87578W        W60003  21.683  34.086  13.048
87579W        W60004  26.770  12.679  11.037
87580W        W60005   5.399  31.877  10.139
87581W        W60006  39.157  18.009   0.754
87582W        W60007  15.974  12.065  11.799
87583W        W60008   2.750  34.512   1.544
87584W        W60009  11.589  14.528   4.165
87585W        W60010  10.876  17.995   4.689
87586W        W60011  29.106  17.514  11.614
87587W        W60012  15.302  29.501  14.704
87588W        W60013  22.563  15.140   1.361
87589W        W60014   9.336   1.459   4.456
87590W        W60015  31.635  23.199   4.673
87591W        W60016   1.814   3.440  14.360
87592W        W60017  43.138   9.384   0.137
87593W        W60018  27.127  12.341   3.548
87594W        W60019  17.637   1.702  13.172
87595W        W60020  11.136  39.949   2.198
87596W        W60021   2.368  25.236   2.204
87597W        W60022   0.924  19.200   2.638
87598W        W60023  30.671  10.080  14.427
87599W        W60024  27.531  30.877   2.234
87600W        W60025  12.396  12.078   0.776
87601W        W60026  18.990  40.730  11.070
87602W        W60027  14.525  19.262  11.167
87603W        W60028  41.567  12.342   3.167
87604W        W60029  37.045  34.352  14.525
87605W        W60030   1.756  44.498  14.971
87606W        W60031  15.292  28.109  14.974
87607W        W60032  31.856  34.304  13.925
87608W        W60033  40.379  39.444   0.463
87609W        W60034   4.272  17.620  13.456
87610W        W60035  14.183  19.652   3.716
87611W        W60036  16.542  17.204   3.229
87612W        W60037  11.697  17.057  11.771
87613W        W60038  32.030  14.177  13.558
87614W        W60039   9.165  22.297  11.105
87615W        W60040  41.717  35.750   0.293
87616W        W60041  12.060  42.896  13.075
87617W        W60042  31.743  43.792  14.424
87618W        W60043   6.448  25.566   3.949
87619W        W60044  27.060  32.023  11.022
87620W        W60045  29.219  18.592   3.025
87621W        W60046  24.469   9.967   4.625
87622W        W60047  41.579  29.937  11.175
87623W        W60048  25.143   0.037   4.559
87624W        W60049  18.803   0.316  14.527
87625W        W60050  12.216   4.850   3.714
87626W        W60051   2.893  35.348  11.899
87627W        W60052   3.131  10.788   2.644
87628W        W60053  20.233  20.966  11.162
87629W        W60054  24.055  32.046   0.942
87630W        W60055  23.296  40.166   4.173
87631W        W60056  36.305  36.461   4.119
87632W        W60057  23.517  31.062   2.909
87633W        W60058  25.773  14.053  14.046
87634W        W60059  26.361  37.306   2.801
87635W        W60060   7.791   4.673   1.727
87636W        W60061   3.696   1.675  12.058
87637W        W60062  35.882  16.846  12.109
87638W        W60063  28.481  12.921   0.685
87639W        W60064  20.091  18.273  11.985
87640W        W60065  37.294  33.981  12.361
87641W        W60066  36.891   7.758   0.533
87642W        W60067   8.969  27.871  14.767
87643W        W60068  13.443  22.628   3.182
87644W        W60069  35.378  36.439   0.016
87645W        W60070  33.386  17.742   2.751
87646W        W60071  15.604  37.052  10.450
87647W        W60072  20.804  33.532   3.184
87648W        W60073  27.218  43.731   3.303
87649W        W60074  28.675  15.688   4.027
87650W        W60075  35.737  24.113   3.226
87651W        W60076  40.080  18.589   4.184
87652W        W60077   6.860  23.528  12.939
87653W        W60078   2.000  39.593   3.604
87654W        W60079   0.442  36.302  11.543
87655W        W60080  28.641  39.086  11.208
87656W        W60081  10.247  44.340   2.777
87657W        W60082  16.300   9.614   2.097
87658W        W60083  42.721  19.671  13.021
87659W        W60084  44.325  35.655   2.587
87660W        W60085  29.669  41.889  12.147
87661W        W60086  22.225   1.306   1.283
87662W        W60087  36.467  35.825  14.688
87663W        W60088  43.383   6.478  10.677
87664W        W60089  39.994  25.717  11.583
87665W        W60090  40.013  32.432   2.417
87666W        W60091  10.242  15.679   4.129
87667W        W60092  35.083  24.063  12.424
87668W        W60093  10.825   2.260  10.953
87669W        W60094  35.551  37.382   2.617
87670W        W60095  28.626  38.870   2.355
87671W        W60096  10.322  13.287  14.299
87672W        W60097  22.018  41.522   0.699
87673W        W60098  40.520  33.945  11.439
87674W        W60099  29.435  33.594  13.863
87675W        W60100  22.314   7.049  10.580
87676W        W60101   9.133  25.270  11.167
87677W        W60102  28.671   4.341   0.365
87678W        W60103  24.877  29.126  11.068
87679W        W60104  17.780  26.179  11.033
87680W        W60105  25.693  32.833   2.371
87681W        W60106  26.918  18.175  11.775
87682W        W60107  34.551  22.474  11.895
87683W        W60108  42.792  36.046  11.160
87684W        W60109  41.907  20.490   3.743
87685W        W60110   5.115   3.636  10.678
87686W        W60111  27.934  13.363  10.672
87687W        W60112   9.283  11.186  10.906
87688W        W60113  13.894  15.895  13.552
87689W        W60114   9.144  30.422   2.315
87690W        W60115  31.499   6.471  13.531
87691W        W60116  44.303  18.245  14.046
87692W        W60117  21.743  14.549  12.311
87693W        W60118  16.126  27.264  11.124
87694W        W60119  20.600   9.269  12.371
87695W        W60120   1.077  12.174  12.391
87696W        W60121   0.651  10.344   4.541
87697W        W60122  11.098  34.329  14.851
87698W        W60123  38.549   2.434   2.708
87699W        W60124  35.797  42.036   2.239
87700W        W60125  33.987   2.649   3.141
87701W        W60126   4.716  27.208  12.914
87702W        W60127  25.708  29.610  11.094
87703W        W60128  34.899  31.181  11.587
87704W        W60129  28.575  28.394   4.217
87705W        W60130   1.463  21.618   4.672
87706W        W60131  14.002   0.994   3.207
87707W        W60132  31.080  34.504  12.867
87708W        W60133  37.144  24.670   3.550
87709W        W60134  16.511  39.049  13.984
87710W        W60135  42.285   8.849  11.599
87711W        W60136  17.176  21.658   1.934
87712W        W60137  19.026  36.895  12.428
87713W        W60138  41.392  27.575   0.235
87714W        W60139   0.249  42.700  12.836
87715W        W60140  18.813  39.051  12.511
87716W        W60141  38.888   3.889   1.356
87717W        W60142  22.607  23.486  13.534
87718W        W60143  37.139  18.244   1.871
87719W        W60144  25.136  29.144  14.304
87720W        W60145  30.945  38.065   1.179
87721W        W60146  30.547  32.072   1.849
87722W        W60147  33.097  14.083  10.999
87723W        W60148  38.765  32.504   2.794
87724W        W60149   8.379  34.900   0.730
87725W        W60150  30.128  28.176   0.749
87726W        W60151  25.561  19.447   2.118
87727W        W60152  44.759  34.054  10.108
87728W        W60153   2.843  44.248   3.805
87729W        W60154  40.386  20.499   2.459
87730W        W60155   3.800  14.151   4.218
87731W        W60156  28.554  22.293   2.794
87732W        W60157  26.973  33.989   4.362
87733W        W60158   4.735  14.046   5.124
87734W        W60159  35.546   7.424   2.374
87735W        W60160  16.460  23.201   0.466
87736W        W60161  38.990  12.642   1.263
87737W        W60162  20.272   6.421   2.185
87738W        W60163  43.571  16.322   1.991
87739W        W60164  26.698  35.921  10.711
87740W        W60165   8.515  15.717  13.480
87741W        W60166  30.122   5.188   3.792
87742W        W60167   1.452  18.082   1.822
87743W        W60168  13.107   4.766   0.979
87744W        W60169  19.758  18.148  12.401
87745W        W60170   5.826  33.868  12.616
87746W        W60171  39.508  44.831  13.973
87747W        W60172  30.285  40.987  13.121
87748W        W60173  43.814  29.708   2.846
87749W        W60174  15.574   4.340   1.424
87750W        W60175   6.507  20.022   2.512
87751W        W60176  15.515  38.340   3.751
87752W        W60177  20.169  42.935  14.148
87753W        W60178  16.213   9.990  13.404
87754W        W60179  41.689   2.378   4.871
87755W        W60180  24.214  25.538  12.023
87756W        W60181   1.878  40.729  10.763
87757W        W60182  18.532  15.842  10.815
87758W        W60183   4.336   2.145  11.491
87759W        W60184  21.383  23.195  11.173
87760W        W60185  20.041   3.981   1.198
87761W        W60186  33.451  13.910  14.787
87762W        W60187  10.384  36.877  12.070
87763W        W60188  42.529   2.720  13.489
87764W        W60189   2.833   2.680  13.061
87765W        W60190  24.834  39.876   1.863
87766W        W60191  24.647   8.213   3.280
87767W        W60192  21.853  33.123   4.522
87768W        W60193  34.334  44.893  12.795
87769W        W60194  39.983   9.602   3.201
87770W        W60195  10.279  32.126  12.072
87771W        W60196   2.197  31.126  13.468
87772W        W60197  12.690  20.022  12.958
87773W        W60198   8.400  15.887  13.994
87774W        W60199   9.880  22.550  11.450
87775W        W60200  15.261  43.876   4.394
87776W        W60201  22.716   1.432   1.334
87777W        W60202  14.929   1.841   4.339
87778W        W60203   4.568  39.330  10.720
87779W        W60204  27.909  28.194   2.780
87780W        W60205  39.786  26.455  11.104
87781W        W60206  34.043  40.114   4.962
87782W        W60207  44.560  12.694   3.101
87783W        W60208  32.570  21.644   4.073
87784W        W60209   0.350   1.658   3.479
87785W        W60210   9.281  13.191   0.929
87786W        W60211  12.233   1.986   2.784
87787W        W60212   9.544   3.322  14.598
87788W        W60213  43.288  24.567   0.762
87789W        W60214  25.226  35.879   4.607
87790W        W60215  29.423  35.193   3.719
87791W        W60216  36.962   4.457  11.811
87792W        W60217  30.157   2.167   1.336
87793W        W60218  16.156  13.337   1.301
87794W        W60219  31.763  35.871  12.718
87795W        W60220  34.899   3.405  14.431
87796W        W60221  30.600  32.380   4.936
87797W        W60222  24.563  21.208  14.071
87798W        W60223   3.339   4.301   1.034
87799W        W60224  31.554  44.400   1.286
87800W        W60225  10.200  10.791  11.631
87801W        W60226   5.086  27.991  12.392
87802W        W60227  22.731  33.252   2.255
87803W        W60228  27.099   6.953   3.158
87804W        W60229  43.438   3.872   1.488
87805W        W60230  33.585  40.365   4.391
87806W        W60231   9.914  32.678   2.130
87807W        W60232  22.487  19.140   2.148
87808W        W60233  14.747  31.808   4.104
87809W        W60234   3.059  17.788   1.762
87810W        W60235   8.161  31.077  10.931
87811W        W60236  17.999  25.496   4.055
87812W        W60237  36.720  29.958   4.568
87813W        W60238   2.407  41.093   2.020
87814W        W60239  14.221  18.058   0.369
87815W        W60240   1.035  19.031   1.311
87816W        W60241  11.653   0.404   0.896
87817W        W60242  22.045  11.119  11.986
87818W        W60243  40.653  24.497   1.395
87819W        W60244  10.742   5.681   4.496
87820W        W60245  34.883  42.757  10.442
87821W        W60246   1.018   6.090   5.043
87822W        W60247  36.392   9.222   0.819
87823W        W60248  29.025  36.133   1.272
87824W        W60249  22.179  13.698   4.145
87825W        W60250  18.355  33.634  14.437
87826W        W60251  37.856  14.096  10.691
87827W        W60252  13.526   3.844  11.291
87828W        W60253  34.973  28.752   4.294
87829W        W60254   9.120  31.876  12.978
87830W        W60255   3.735  15.756   4.575
87831W        W60256  32.839  26.265  10.954
87832W        W60257  21.538  30.347   2.814
87833W        W60258  37.700   9.204   1.469
87834W        W60259  23.122  15.402  10.504
87835W        W60260  30.125   9.811  10.784
87836W        W60261  26.419  32.002  14.940
87837W        W60262   3.419  28.046  14.407
87838W        W60263  24.064  31.569   3.985
87839W        W60264  41.340   9.677   2.876
87840W        W60265   7.953  19.542  12.658
87841W        W60266  34.069  32.078  12.929
87842W        W60267  40.882  22.693  10.378
87843W        W60268  31.436  16.006   0.867
87844W        W60269   0.377  33.050  10.633
87845W        W60270  38.417  42.870   2.634
87846W        W60271  27.147  28.826   3.652
87847W        W60272   1.688  30.756   4.347
87848W        W60273   6.202  14.779   3.213
87849W        W60274  14.307  22.137  11.162
87850W        W60275  18.108  35.421   2.343
87851W        W60276  24.356  25.730  12.494
87852W        W60277  28.602   8.647   1.747
87853W        W60278  36.433  27.295   0.385
87854W        W60279  13.996  38.336   1.740
87855W        W60280  37.091  32.774   3.576
87856W        W60281  24.905   6.203  13.965
87857W        W60282  29.374  38.838  13.440
87858W        W60283  15.395  30.600   3.722
87859W        W60284   8.422  29.698  13.453
87860W        W60285  22.532   9.133   0.251
87861W        W60286  12.234  41.369  14.523
87862W        W60287  36.581  35.997   3.955
87863W        W60288  35.032  37.530   1.838
87864W        W60289   7.038  43.834   3.121
87865W        W60290  37.794  34.705   3.539
87866W        W60291  35.297  36.509  13.097
87867W        W60292  15.234  17.757   4.051
87868W        W60293  11.807  26.260   5.166
87869W        W60294  16.589  40.843  14.212
87870W        W60295  16.687  38.410  14.238
87871W        W60296   5.798  18.339   2.087
87872W        W60297  32.420   4.110  11.084
87873W        W60298  42.796  19.232   1.905
87874W        W60299  29.595  25.032  13.954
87875W        W60300  15.655  32.315  14.496
87876W        W60301   9.858   9.378   1.313
87877W        W60302  22.903  37.068   4.235
87878W        W60303  33.428   4.782   2.029
87879W        W60304  12.958  33.214   0.792
87880W        W60305  17.724  18.270  13.755
87881W        W60306  26.309  41.801  11.497
87882W        W60307  21.239  32.083  14.531
87883W        W60308  11.966  11.814  12.038
87884W        W60309  21.073   3.737   0.388
87885W        W60310  25.249  29.654  10.159
87886W        W60311  19.051  17.586  12.212
87887W        W60312  33.207  27.533  10.364
87888W        W60313  14.646  19.506  14.420
87889W        W60314  24.717  25.826  13.437
87890W        W60315  44.057  29.513  11.204
87891W        W60316  29.674   9.775   1.563
87892W        W60317  30.516  44.396  12.862
87893W        W60318   6.645  22.303  12.071
87894W        W60319  25.499  19.387   3.731
87895W        W60320  22.581  35.479  10.515
87896W        W60321  19.177   5.129   0.339
87897W        W60322  27.982  32.299   3.236
87898W        W60323  32.604   0.935   3.672
87899W        W60324   4.979   8.691   4.097
87900W        W60325  15.484  42.766   0.155
87901W        W60326   7.751  40.959   0.176
87902W        W60327  31.920  13.878   1.857
87903W        W60328   9.400   8.234  13.532
87904W        W60329  12.421  44.102   4.113
87905W        W60330  13.877   6.573  11.060
87906W        W60331  35.064  34.058   1.027
87907W        W60332  42.633  32.507   5.000
87908W        W60333  44.007   5.754   0.747
87909W        W60334  25.806  42.651  12.966
87910W        W60335  40.895  33.852  13.235
87911W        W60336   1.861  38.880  10.631
87912W        W60337  35.024   5.463  10.660
87913W        W60338  25.558  11.846  11.069
87914W        W60339  13.553  44.947  13.901
87915W        W60340  32.676  15.084  14.460
87916W        W60341  13.083   8.764   0.485
87917W        W60342  10.395   5.719  13.459
87918W        W60343   2.779   9.388   1.935
87919W        W60344  28.038  24.975  11.988
87920W        W60345   9.922  31.123   2.225
87921W        W60346  31.136  40.986  13.408
87922W        W60347   6.997  41.777  12.042
87923W        W60348  19.489  39.398  14.934
87924W        W60349  25.998  16.661  10.445
87925W        W60350  34.752  22.205  12.545
87926W        W60351  41.795  10.440  11.617
87927W        W60352  43.767   1.436  13.157
87928W        W60353  39.883  30.715  12.074
87929W        W60354   3.394  24.167  12.506
87930W        W60355   0.436  29.204  13.829
87931W        W60356  25.722  39.094  11.846
87932W        W60357  28.154   9.299   0.456
87933W        W60358  39.895  35.350   2.085
87934W        W60359  27.741  44.393   3.513
87935W        W60360  40.514  32.640   1.303
87936W        W60361  25.057  43.416   2.293
87937W        W60362  31.880  11.814  12.417
87938W        W60363  33.577  14.777   3.155
87939W        W60364  19.011  14.172   3.444
87940W        W60365  24.561  16.057   2.287
87941W        W60366   2.303  29.107   0.401
87942W        W60367  33.896  26.514  13.743
87943W        W60368  35.555  18.997   2.798
87944W        W60369  11.209   8.854   4.193
87945W        W60370  31.158  26.578   0.016
87946W        W60371  18.755  16.139  12.420
87947W        W60372  13.554  12.843  10.757
87948W        W60373   3.734  23.340  10.944
87949W        W60374  38.954  24.713  14.294
87950W        W60375  21.365  23.669   4.205
87951W        W60376  35.516  22.549   2.356
87952W        W60377  30.612  26.739   2.751
87953W        W60378  37.031  42.273  10.700
87954W        W60379  10.266  15.349   1.238
87955W        W60380  28.944  26.578  12.763
87956W        W60381  16.348  30.466   4.842
87957W        W60382  43.013  17.183  13.001
87958W        W60383   7.732  22.103  12.602
87959W        W60384  32.962  15.085   1.129
87960W        W60385   4.723  17.224   3.357
87961W        W60386  29.990  10.874   1.619
87962W        W60387   7.809  31.280   0.259
87963W        W60388  27.772  31.433  10.102
87964W        W60389  11.187  32.577  10.689
87965W        W60390   3.742  25.655  10.973
87966W        W60391  18.391  24.612   3.134
87967W        W60392  23.578  40.543  12.659
87968W        W60393  34.885  41.308   3.585
87969W        W60394  44.340   8.730   1.255
87970W        W60395  25.253  17.711  14.952
87971W        W60396  41.544  28.025   4.893
87972W        W60397  11.858   3.008   2.731
87973W        W60398  11.355   5.478   3.355
87974W        W60399  41.941  31.127   2.155
87975W        W60400   8.189   9.213   2.216
87976W        W60401  39.284  18.672   2.314
87977W        W60402  39.291  26.528   1.347
87978W        W60403  17.574  13.652  11.014
87979W        W60404  37.805  44.030  13.023
87980W        W60405  19.068  37.547  12.850
87981W        W60406  24.379  31.979  13.955
87982W        W60407  33.572  17.684  12.527
87983W        W60408  11.281  34.614   0.286
87984W        W60409  24.347  28.600  11.762
87985W        W60410   3.354  32.639   4.483
87986W        W60411  29.769   7.783  14.297
87987W        W60412  31.908   6.189  13.385
87988W        W60413  40.227  32.481  11.133
87989W        W60414  41.411  26.691   0.809
87990W        W60415   9.449  23.560   2.667
87991W        W60416  19.735  44.369  11.187
87992W        W60417  31.040   8.664  12.476
87993W        W60418  25.985   5.851  14.312
87994W        W60419   5.030  20.373   4.203
87995W        W60420  23.885   2.302  11.613
87996W        W60421  27.882   2.858  11.247
87997W        W60422   5.032  10.388   2.303
87998W        W60423  38.031  21.687  10.558
87999W        W60424  24.625   2.011  13.590
88000W        W60425  38.021   7.709  12.683
88001W        W60426  33.242  43.943  11.497
88002W        W60427  23.079  16.554   4.248
88003W        W60428  27.475  10.136  14.763
88004W        W60429  39.490   6.612  13.232
88005W        W60430  13.360  24.204  12.409
88006W        W60431   1.851  14.685   0.909
88007W        W60432  32.111  26.478  12.525
88008W        W60433  44.262  38.474  13.968
88009W        W60434   8.675   8.764  14.392
88010W        W60435  27.543   2.951   0.419
88011W        W60436   4.493   7.922   4.836
88012W        W60437   0.795  13.254  13.519
88013W        W60438  34.491  36.296   3.226
88014W        W60439  37.717  23.617   2.809
88015W        W60440  43.359  23.736   1.245
88016W        W60441  34.132   4.969  10.614
88017W        W60442  16.776  17.649  13.586
88018W        W60443  22.154   5.753  11.564
88019W        W60444   0.302  36.000  12.226
88020W        W60445   1.895  27.043  12.542
88021W        W60446  21.119  20.943  10.329
88022W        W60447  19.032  38.102   0.448
88023W        W60448   2.927  10.893  12.017
88024W        W60449   9.754  16.352   1.723
88025W        W60450  20.879  28.377   4.537
88026W        W60451   5.726  13.766   2.246
88027W        W60452  44.467  34.423   3.666
88028W        W60453  40.837   6.477  12.580
88029W        W60454  44.205  15.700  13.825
88030W        W60455  14.817  43.363  12.054
88031W        W60456  35.907  29.527   4.339
88032W        W60457   6.598  29.984  13.443
88033W        W60458  42.802  14.748   3.444
88034W        W60459  13.277  35.718  12.345
88035W        W60460   0.622  30.007  13.448
88036W        W60461   3.893  29.890  11.092
88037W        W60462   5.873  24.746  11.510
88038W        W60463  37.143  13.490  10.777
88039W        W60464  19.380   1.817   4.818
88040W        W60465   8.601  38.424   2.116
88041W        W60466  41.353  29.158  14.221
88042W        W60467  39.311  30.103  14.962
88043W        W60468  28.319  25.614  12.456
88044W        W60469   6.035   3.722  12.550
88045W        W60470  35.746  19.560  13.456
88046W        W60471   3.616  41.387  14.487
88047W        W60472  39.942  12.271  10.450
88048W        W60473  25.722  37.295  11.184
88049W        W60474  31.343   6.176  12.514
88050W        W60475  40.832  35.578   4.105
88051W        W60476  39.250  23.740  12.406
88052W        W60477  19.534   9.818   2.782
88053W        W60478  27.981  38.802  13.821
88054W        W60479  15.472  32.905   1.744
88055W        W60480  30.550   2.742  13.465
88056W        W60481  42.953  41.931  13.067
88057W        W60482  39.799  31.572  14.027
88058W        W60483  10.533  33.417  14.936
88059W        W60484  23.723  17.766   3.304
88060W        W60485  32.856  37.890   1.225
88061W        W60486  25.619  31.926  10.662
88062W        W60487  17.116   0.766  10.962
88063W        W60488   8.310  27.906  11.755
88064W        W60489  44.741  27.632  12.393
88065W        W60490  43.515   4.389   4.265
88066W        W60491   2.608  27.704   0.239
88067W        W60492  23.658  39.780  10.772
88068W        W60493  17.715  32.616   2.960
88069W        W60494  37.087  44.251  10.698
88070W        W60495  18.311  33.374  11.080
88071W        W60496  14.907  37.343   4.423
88072W        W60497   4.711   1.035   3.125
88073W        W60498  33.835  33.624  13.270
88074W        W60499   1.064  17.667   1.308
88075W        W60500   6.685  11.408   2.827
88076W        W60501  44.013   4.337   2.258
88077W        W60502  23.190  16.347  14.732
88078W        W60503   2.748  30.514  13.769
88079W        W60504  42.464   5.755  13.589
88080W        W60505  26.471  11.733   4.046
88081W        W60506  44.291   5.682  13.164
88082W        W60507   5.167  14.421   1.847
88083W        W60508  21.040  30.084   0.458
88084W        W60509  14.474  31.189   2.410
88085W        W60510  27.249   6.194  12.623
88086W        W60511  29.605  34.852   0.976
88087W        W60512  39.252   4.611   4.020
88088W        W60513  15.765  40.938  11.067
88089W        W60514  29.090  22.156   0.907
88090W        W60515  18.253   6.366  13.137
88091W        W60516   8.445   0.312   4.524
88092W        W60517  17.550  34.092   2.347
88093W        W60518   7.296  34.201  12.379
88094W        W60519  19.998  33.065  13.125
88095W        W60520   7.966  38.899  14.458
88096W        W60521  16.070  32.009   2.716
88097W        W60522   3.862  18.307  12.095
88098W        W60523  10.689  27.096  13.295
88099W        W60524  34.527  11.700  10.733
88100W        W60525  32.308  16.402   1.391
88101W        W60526  26.657   3.342   0.823
88102W        W60527   2.331   7.245   2.744
88103W        W60528  28.934  32.542  12.001
88104W        W60529  11.205  20.639   3.580
88105W        W60530  40.588  17.509   0.292
88106W        W60531  34.712   2.725  14.840
88107W        W60532  23.632  28.860   1.108
88108W        W60533  31.850  20.304  11.445
88109W        W60534  20.667  27.082   1.412
88110W        W60535   0.760  39.588  13.514
88111W        W60536  15.114  28.389  13.765
88112W        W60537  35.005   8.309   5.083
88113W        W60538  12.508   0.409   3.997
88114W        W60539  30.158  24.942  13.870
88115W        W60540  10.136   8.166  14.861
88116W        W60541  39.536   3.559   2.413
88117W        W60542   4.139  35.959  12.676
88118W        W60543  18.548   5.614  12.324
88119W        W60544  19.144  39.101   2.659
88120W        W60545  15.348  42.328  14.828
88121W        W60546  19.874  22.448  13.417
88122W        W60547  15.241   5.062   5.085
88123W        W60548   0.061  40.758   2.165
88124W        W60549  37.374  13.159   1.866
88125W        W60550  29.726  10.947   4.261
88126W        W60551  22.658   3.147  14.406
88127W        W60552   4.051  10.204   2.551
88128W        W60553  36.918  17.568   1.968
88129W        W60554  40.293  32.081   0.374
88130W        W60555  33.569   8.008   1.823
88131W        W60556  12.902  28.969   4.557
88132W        W60557  34.202  28.946  13.458
88133W        W60558  38.791   0.877  14.341
88134W        W60559  42.083  13.771   2.638
88135W        W60560  23.662  31.311   3.788
88136W        W60561  14.844  19.210   0.776
88137W        W60562   4.863  21.418   2.255
88138W        W60563  24.937   6.257   3.851
88139W        W60564  16.581  10.132   4.601
88140W        W60565  12.169   3.438  10.571
88141W        W60566  39.867  39.547   0.421
88142W        W60567  14.464  37.313   0.461
88143W        W60568  22.526  40.003   9.918
88144W        W60569   4.769   3.012   4.295
88145W        W60570  13.064   4.915  11.649
88146W        W60571   2.623   1.890   4.611
88147W        W60572   9.823  33.678   2.363
88148W        W60573  30.543  27.947  11.891
88149W        W60574  16.602  32.130   3.453
88150W        W60575  30.636  38.506   4.176
88151W        W60576  11.884   0.782   3.641
88152W        W60577  35.785  14.148  14.452
88153W        W60578  21.635  36.499   0.315
88154W        W60579  19.579  23.136   0.952
88155W        W60580  27.592   7.382   4.115
88156W        W60581  16.330  27.055   3.553
88157W        W60582  31.620  16.305  12.956
88158W        W60583  10.709  34.487  12.876
88159W        W60584  12.090   5.710   4.614
88160W        W60585  34.543   5.311  11.340
88161W        W60586  43.365   8.779  13.413
88162W        W60587   8.289  44.805   4.190
88163W        W60588  14.291  33.546  14.207
88164W        W60589  13.890   4.309  10.629
88165W        W60590  43.602  23.014  12.121
88166W        W60591  27.968   3.536  11.168
88167W        W60592  34.306   7.367  11.423
88168W        W60593  43.798   8.673  14.891
88169W        W60594  16.579  10.218  11.398
88170W        W60595  19.428  27.630   1.336
88171W        W60596  17.632  44.440   3.990
88172W        W60597  38.237  14.391   0.058
88173W        W60598  12.105  10.190  14.387
88174W        W60599  43.410   3.719   2.401
88175W        W60600  31.910  25.143  14.751
88176W        W60601  39.030  11.878  12.429
88177W        W60602  17.694  35.875   4.903
88178W        W60603  13.751  25.297  11.852
88179W        W60604  34.418  26.123   1.213
88180W        W60605  15.189   7.704   2.760
88181W        W60606  28.167  28.027   3.257
88182W        W60607  18.368  12.293   0.532
88183W        W60608  17.668  14.647   2.297
88184W        W60609  35.461  26.987  12.101
88185W        W60610  36.971  26.536  13.410
88186W        W60611   7.451   1.799   4.755
88187W        W60612  41.247  24.637   4.480
88188W        W60613  44.117   8.322   4.553
88189W        W60614  29.211  12.147   4.244
88190W        W60615  15.195  21.795  11.730
88191W        W60616   8.808  36.029   4.517
88192W        W60617  11.115  44.506  11.958
88193W        W60618  22.177  32.606  14.305
88194W        W60619   4.183   7.133  14.288
88195W        W60620  44.127  20.382  11.417
88196W        W60621  24.183  12.665  11.472
88197W        W60622   5.461  11.776   1.503
88198W        W60623   0.460  38.730  14.548
88199W        W60624  17.674  42.307  10.748
88200W        W60625  30.145  29.030   0.514
88201W        W60626  20.549  43.792  14.772
88202W        W60627  25.660  35.741   1.700
88203W        W60628  39.726   3.181  11.249
88204W        W60629  28.877  19.264   0.795
88205W        W60630  13.141  32.160   0.069
88206W        W60631  16.516  15.450   0.776
88207W        W60632  25.920   9.919   0.039
88208W        W60633  13.025  16.007   1.815
88209W        W60634  11.291  37.574   4.876
88210W        W60635  23.705   7.913   4.186
88211W        W60636  22.302   9.695  11.030
88212W        W60637   6.487   2.865  11.983
88213W        W60638  34.073  26.056   2.173
88214W        W60639  15.668  22.564   1.631
88215W        W60640  30.641  32.788   0.445
88216W        W60641  12.337  12.380   3.545
88217W        W60642  28.696  27.551   4.787
88218W        W60643  20.554   5.690  12.139
88219W        W60644   6.544  37.999  10.957
88220W        W60645  13.184  40.499   0.790
88221W        W60646  38.518   4.298   3.550
88222W        W60647   6.330  44.623  11.797
88223W        W60648  28.339  21.106  14.789
88224W        W60649  14.723   7.470   2.729
88225W        W60650   2.409  24.020   3.101
88226W        W60651  12.352  15.030  11.115
88227W        W60652  20.326   5.324   2.387
88228W        W60653   2.015  36.379   4.578
88229W        W60654  34.836  37.499  10.630
88230W        W60655   5.402  34.915   2.650
88231W        W60656  43.402   2.430   3.332
88232W        W60657  43.168   2.511   3.794
88233W        W60658  16.061  15.533  13.802
88234W        W60659  35.356  43.097   3.076
88235W        W60660  21.094   7.229  13.903
88236W        W60661  35.813  37.897   4.570
88237W        W60662   8.168  21.820  14.400
88238W        W60663  27.101  40.030   0.734
88239W        W60664  17.609  10.620  14.243
88240W        W60665  42.510  41.446   1.751
88241W        W60666   4.707   6.458  12.984
88242W        W60667   6.466  11.805   4.420
88243W        W60668  32.870  11.786   3.107
88244W        W60669  11.889  31.126  10.646
88245W        W60670  21.250   7.824   2.260
88246W        W60671  34.183  20.082   4.134
88247W        W60672   9.441  34.443  12.375
88248W        W60673  30.250  42.827  13.532
88249W        W60674   2.552  21.591   2.801
88250W        W60675  27.992   3.456  10.338
88251W        W60676  19.197  36.368  13.932
88252W        W60677   4.374  25.228  11.427
88253W        W60678   1.989  36.665   0.384
88254W        W60679  14.669  26.622   0.170
88255W        W60680  11.622  44.459   4.048
88256W        W60681  25.441   2.839  13.835
88257W        W60682   1.948   7.947  11.152
88258W        W60683  34.576   8.455  14.489
88259W        W60684  40.408  35.997  14.848
88260W        W60685   5.821  39.191   1.527
88261W        W60686  42.790  28.124   1.825
88262W        W60687  42.428  30.679  12.459
88263W        W60688  33.492   1.453   4.489
88264W        W60689  39.477  11.330   2.440
88265W        W60690  41.733   5.821  14.500
88266W        W60691  19.811   6.520   0.280
88267W        W60692   8.336  42.045   4.373
88268W        W60693  18.639  35.594  12.189
88269W        W60694  11.579  33.594   4.070
88270W        W60695  28.155  37.175  14.507
88271W        W60696  28.516  12.860   1.195
88272W        W60697  17.272  37.576  11.217
88273W        W60698   9.184  39.866  10.727
88274W        W60699  14.840  18.468  10.626
88275W        W60700  35.466  36.671  12.034
88276W        W60701   3.851  10.183  13.608
88277W        W60702   4.968   9.610   1.427
88278W        W60703  26.459   9.588   2.724
88279W        W60704   2.173  18.796  13.561
88280W        W60705  34.895  39.907  12.131
88281W        W60706  27.557  19.085  11.150
88282W        W60707  29.623   9.250   4.353
88283W        W60708  36.204  29.088   4.311
88284W        W60709   3.753   5.111  11.169
88285W        W60710  24.736  29.515  12.638
88286W        W60711   7.314  33.474   0.639
88287W        W60712   4.123  35.916  12.168
88288W        W60713  26.547   1.858   0.922
88289W        W60714  43.307   9.824   4.622
88290W        W60715  34.303  19.500   0.383
88291W        W60716  31.648  10.353   3.734
88292W        W60717  20.354  39.080  11.089
88293W        W60718  36.749  31.670   3.235
88294W        W60719  24.149  29.444  12.193
88295W        W60720   8.932  17.043  11.693
88296W        W60721   0.321   2.020  11.345
88297W        W60722   5.439  42.512   1.423
88298W        W60723   3.334  30.168   2.236
88299W        W60724  32.929  26.539   1.005
88300W        W60725  10.527  18.197   3.624
88301W        W60726  29.125  41.579  13.085
88302W        W60727  22.649  19.595   4.213
88303W        W60728  36.073  31.321  12.464
88304W        W60729  21.771   0.767  10.783
88305W        W60730  16.514  12.315   3.717
88306W        W60731  25.461  27.361  12.403
88307W        W60732  34.371   4.659   3.957
88308W        W60733  16.653  27.503   3.741
88309W        W60734  18.558  33.098  10.160
88310W        W60735  15.343   1.519  14.361
88311W        W60736  34.538  27.056   4.232
88312W        W60737   9.316   5.431  14.784
88313W        W60738  32.907  20.104  14.476
88314W        W60739  28.560  40.076   3.213
88315W        W60740  16.707  38.007  10.633
88316W        W60741  41.147  31.464  13.493
88317W        W60742  18.839   0.812  10.931
88318W        W60743   9.806   8.106  11.305
88319W        W60744  44.830  16.664   3.170
88320W        W60745  30.185  18.629  13.926
88321W        W60746   5.292  10.289   0.360
88322W        W60747  20.026  13.925  14.886
88323W        W60748  44.187  26.647  14.297
88324W        W60749  40.472   6.112   3.784
88325W        W60750  44.774  36.092   3.294
88326W        W60751  39.061  19.086  12.576
88327W        W60752  37.196   3.712  11.493
88328W        W60753   9.397   7.225  10.632
88329W        W60754  24.510   5.276   0.495
88330W        W60755  25.268  24.558   2.581
88331W        W60756  23.559  25.714   4.464
88332W        W60757  16.296  20.618   2.057
88333W        W60758  29.909   5.439  11.141
88334W        W60759   9.309  11.119   1.290
88335W        W60760  28.518  38.754  12.740
88336W        W60761   6.269  26.072   4.994
88337W        W60762  25.059  38.468  11.357
88338W        W60763  30.673  26.090   4.894
88339W        W60764  41.269  30.987   1.301
88340W        W60765  26.493  39.631  12.648
88341W        W60766  12.040   8.486   2.006
88342W        W60767  21.060   4.927  13.385
88343W        W60768  11.007  30.661  14.418
88344W        W60769  24.728  25.003   4.734
88345W        W60770  16.128   6.439  14.749
88346W        W60771  24.225  41.981   0.455
88347W        W60772  42.347  40.142  12.829
88348W        W60773  41.832  42.411  14.894
88349W        W60774  31.641  15.854   2.519
88350W        W60775  15.648  28.690   1.766
88351W        W60776  30.215  38.529  13.595
88352W        W60777   9.901  12.544  14.894
88353W        W60778   9.445  13.072   3.293
88354W        W60779   9.876  14.059   3.008
88355W        W60780  31.863  20.800   1.362
88356W        W60781  26.158  42.038   0.417
88357W        W60782  23.650   7.977  12.709
88358W        W60783  17.033   0.368  11.294
88359W        W60784  30.071  28.518   2.112
88360W        W60785   3.997  34.972   1.627
88361W        W60786   8.640   5.904   3.296
88362W        W60787  18.241  26.035   0.373
88363W        W60788  23.460  32.171   1.602
88364W        W60789  36.085  20.680   0.677
88365W        W60790  24.489  16.817   1.913
88366W        W60791   2.738  24.211   2.314
88367W        W60792  25.983  41.305  14.800
88368W        W60793  25.631  15.562   4.128
88369W        W60794  10.297   3.910   4.256
88370W        W60795  39.734  24.727  13.170
88371W        W60796  31.492  29.580  10.747
88372W        W60797  19.558   4.673  11.666
88373W        W60798  43.834  21.858  10.207
88374W        W60799  33.899  35.382   0.295
88375W        W60800   5.263  15.560  14.432
88376W        W60801  16.418   6.314   0.505
88377W        W60802  31.147  18.139  11.240
88378W        W60803  17.075  16.012   1.830
88379W        W60804   7.732   0.189   3.340
88380W        W60805   6.830  38.148  12.316
88381W        W60806  11.171  12.850   4.848
88382W        W60807   1.497  24.272   2.679
88383W        W60808  29.120  38.083   1.083
88384W        W60809  39.516  43.986   1.794
88385W        W60810  23.708  13.763   0.506
88386W        W60811  44.900  37.936  11.251
88387W        W60812  15.052  31.516  13.907
88388W        W60813  29.300   3.486   4.665
88389W        W60814  36.834  43.916   2.803
88390W        W60815  11.414  44.354  10.712
88391W        W60816  30.085  23.980   0.481
88392W        W60817  34.843  31.091  14.240
88393W        W60818  14.474   8.718  10.787
88394W        W60819  21.089   9.663   0.410
88395W        W60820  35.642   9.286  13.045
88396W        W60821  34.439  40.763  11.632
88397W        W60822  28.075  21.262   2.342
88398W        W60823  30.106   3.361  13.841
88399W        W60824  14.316  31.888  13.278
88400W        W60825  22.147  10.668   2.785
88401W        W60826  35.359   9.771  12.229
88402W        W60827  32.566   6.077   1.224
88403W        W60828  36.529  31.382  11.197
88404W        W60829   6.070   2.527   0.993
88405W        W60830  34.142  25.405   1.310
88406W        W60831   4.217   6.678  12.134
88407W        W60832  29.391  28.235   1.328
88408W        W60833  40.502  43.797   0.985
88409W        W60834  12.636  36.328   3.961
88410W        W60835  39.831   7.433   4.045
88411W        W60836   4.166  20.948  11.559
88412W        W60837  27.235  14.332   4.589
88413W        W60838  30.127  38.288   4.594
88414W        W60839  14.696   3.505  12.013
88415W        W60840  43.508  35.740  13.013
88416W        W60841  41.718   5.291  14.890
88417W        W60842  36.072   6.275   4.222
88418W        W60843   8.740  29.995   3.882
88419W        W60844   9.586  35.960   3.656
88420W        W60845  13.156   3.537  12.038
88421W        W60846  13.960  29.553  14.960
88422W        W60847  30.501  40.823   4.236
88423W        W60848   8.236  19.263   4.596
88424W        W60849  18.374  17.591   0.869
88425W        W60850  11.295  27.749  12.078
88426W        W60851  41.799  19.246   2.785
88427W        W60852  42.347  35.107  11.475
88428W        W60853  14.945  29.528  12.136
88429W        W60854  38.019   3.844  13.482
88430W        W60855  39.607   9.889   2.879
88431W        W60856   8.857  27.614  12.510
88432W        W60857   2.701   5.389   0.360
88433W        W60858  13.861  37.544  12.489
88434W        W60859  32.050  41.768   3.755
88435W        W60860  37.599   0.489   9.966
88436W        W60861  33.592  40.393  10.567
88437W        W60862  38.495  42.229   2.242
88438W        W60863  10.862  40.781  13.632
88439W        W60864  16.715  29.631   4.226
88440W        W60865   3.316   0.404   3.180
88441W        W60866  25.468  16.096   2.578
88442W        W60867  15.037   1.818   0.276
88443W        W60868   7.411   2.433   3.463
88444W        W60869  33.328  39.292   2.541
88445W        W60870  25.503  29.657   3.663
88446W        W60871   5.432  41.468   3.302
88447W        W60872  33.073  39.515   4.160
88448W        W60873  28.566  34.578   2.882
88449W        W60874  36.908  44.335   4.139
88450W        W60875  32.358  30.756  13.890
88451W        W60876  40.391   7.134   4.134
88452W        W60877  31.445  38.262   1.901
88453W        W60878  28.028  25.496  12.035
88454W        W60879   9.761  27.240  12.846
88455W        W60880   9.459  11.001   0.546
88456W        W60881  29.670  16.813   2.013
88457W        W60882  43.372  32.858  11.563
88458W        W60883  42.562  31.443  13.029
88459W        W60884  30.960  27.528   4.696
88460W        W60885  28.723  40.957   3.243
88461W        W60886  40.632  15.641  12.234
88462W        W60887  14.289  36.581  12.537
88463W        W60888  19.146   5.818   3.695
88464W        W60889  34.825  16.663  12.097
88465W        W60890  37.404  38.449  10.043
88466W        W60891  25.167  38.320  14.321
88467W        W60892  18.787  20.505   2.289
88468W        W60893   0.699   1.547  12.900
88469W        W60894  32.811  37.904  12.114
88470W        W60895   3.004  16.245  10.658
88471W        W60896  36.085  14.702   4.680
88472W        W60897   8.156   4.894   3.234
88473W        W60898   4.870  16.855   2.608
88474W        W60899  13.799  23.167  13.294
88475W        W60900  25.946   4.911  12.881
88476W        W60901  27.573  30.725   0.414
88477W        W60902  35.106  14.909   4.751
88478W        W60903   7.648  33.134   0.895
88479W        W60904  33.842  39.339   2.443
88480W        W60905  44.292   7.249  13.354
88481W        W60906  44.032   7.588  11.389
88482W        W60907  11.262   7.450  13.535
88483W        W60908  37.231   6.269   5.451
88484W        W60909  44.828  13.605   3.634
88485W        W60910   0.800   0.355   3.105
88486W        W60911  21.815   3.719   1.671
88487W        W60912  29.209  23.171  11.496
88488W        W60913   3.288   4.259  12.096
88489W        W60914  17.289   2.768  14.318
88490W        W60915  22.041  19.509   0.749
88491W        W60916  10.393   3.745  11.188
88492W        W60917  23.629  14.263  13.366
88493W        W60918   4.980  44.104  14.264
88494W        W60919  29.697  25.693  13.369
88495W        W60920   6.441  34.315   4.910
88496W        W60921   4.679  44.548   1.433
88497W        W60922   6.756  11.700   2.310
88498W        W60923  18.141  30.471   3.159
88499W        W60924  27.998  27.218  11.502
88500W        W60925   1.792  35.581  14.427
88501W        W60926  23.823  38.344   0.629
88502W        W60927   3.185  36.125  13.864
88503W        W60928  13.235  35.556  14.298
88504W        W60929  24.666  44.735  10.970
88505W        W60930  41.287  41.340  11.839
88506W        W60931  27.472  30.910  12.547
88507W        W60932  30.767  39.370  12.709
88508W        W60933  27.140  11.389   2.317
88509W        W60934  10.618  17.586   1.702
88510W        W60935  43.342  30.920   4.501
88511W        W60936   5.756  21.365   1.431
88512W        W60937  27.554  10.894  14.341
88513W        W60938  32.175  23.981   0.448
88514W        W60939  42.018  12.538  12.157
88515W        W60940  28.708  44.550   2.639
88516W        W60941  32.847  44.081   2.795
88517W        W60942  43.851   0.412  13.238
88518W        W60943  32.641  34.736  11.183
88519W        W60944  18.430  28.083   3.871
88520W        W60945  27.698   7.797   3.811
88521W        W60946  43.704  10.767   4.306
88522W        W60947   8.333  13.833   0.458
88523W        W60948   7.090  43.359  13.969
88524W        W60949  26.634  44.348   3.852
88525W        W60950   9.406  30.300   0.875
88526W        W60951  40.405  21.526  14.225
88527W        W60952  21.496  36.394  10.672
88528W        W60953  20.344  37.109  10.445
88529W        W60954  22.758  19.100   4.090
88530W        W60955  21.541  44.519  10.410
88531W        W60956  36.199   8.201   1.791
88532W        W60957   3.307  34.348  12.928
88533W        W60958   1.523  23.698   2.752
88534W        W60959   6.712   8.925  12.058
88535W        W60960  39.563   4.064   2.398
88536W        W60961  17.322  43.760  10.761
88537W        W60962  13.381  32.756   3.878
88538W        W60963   4.950  28.020   1.304
88539W        W60964  34.354  39.946   0.044
88540W        W60965  19.549  41.469   0.978
88541W        W60966  26.694  31.469  13.886
88542W        W60967  40.466  41.550  11.064
88543W        W60968  32.398  15.282  12.167
88544W        W60969  41.453  40.032  11.458
88545W        W60970   5.238   0.759  10.719
88546W        W60971   9.348  42.368  14.979
88547W        W60972  23.814  15.429   1.170
88548W        W60973  32.139   1.284   1.241
88549W        W60974  32.389  19.723  11.149
88550W        W60975  43.944  26.133  12.351
88551W        W60976  42.331   6.442   0.371
88552W        W60977   9.432   6.916  12.333
88553W        W60978  34.006  34.839  11.460
88554W        W60979  16.535  39.792  11.259
88555W        W60980   1.680  25.927   1.311
88556W        W60981  22.957  43.860   0.457
88557W        W60982  13.849   9.360   0.347
88558W        W60983  21.996  20.581  11.535
88559W        W60984  14.954  41.319  10.606
88560W        W60985  36.079   3.425  11.484
88561W        W60986  26.427  43.211   0.044
88562W        W60987   0.900  12.058  10.672
88563W        W60988  40.090  30.621  14.758
88564W        W60989   8.310  14.108   3.565
88565W        W60990  19.616  41.753  14.219
88566W        W60991   9.855  43.518  11.967
88567W        W60992   6.258   7.260  12.469
88568W        W60993   1.943  39.817  12.137
88569W        W60994  30.205  19.759  11.359
88570W        W60995  37.019  23.034  11.015
88571W        W60996  29.765  25.083  10.228
88572W        W60997  16.061  27.773  11.213
88573W        W60998   1.509   4.405   1.927
88574W        W60999  26.220  13.080   4.693
88575W        W61000   8.835  36.451   0.888
88576W        W61001  41.810  27.469  14.806
88577W        W61002  12.236   1.374  12.111
88578W        W61003  34.499  31.733  12.019
88579W        W61004   7.553   6.273   4.413
88580W        W61005  17.420  15.165   4.540
88581W        W61006  31.583   8.683  12.470
88582W        W61007  20.176  21.256   3.201
88583W        W61008  33.583  23.146  14.009
88584W        W61009   6.362   9.247  14.295
88585W        W61010  27.309  43.829   2.369
88586W        W61011   2.472   0.075   3.706
88587W        W61012   9.074  12.195  12.920
88588W        W61013   3.135  34.939   0.722
88589W        W61014   5.136  27.133   4.532
88590W        W61015  43.398  17.101  11.969
88591W        W61016   7.812  36.163   4.137
88592W        W61017   8.687  38.860  11.753
88593W        W61018  17.589  14.629   3.277
88594W        W61019  23.057  13.302  11.119
88595W        W61020  31.549  32.810   3.305
88596W        W61021  15.919   0.395  12.211
88597W        W61022  36.459  21.051  12.943
88598W        W61023   4.795  12.048   3.621
88599W        W61024  27.101  30.177  10.626
88600W        W61025  31.615  18.524  14.495
88601W        W61026  40.846  12.624   1.878
88602W        W61027  42.491  35.598   0.738
88603W        W61028   8.722  29.939   3.372
88604W        W61029  17.712  16.206  14.441
88605W        W61030  26.222  41.530  13.923
88606W        W61031   8.985  21.975   1.821
88607W        W61032  44.295  42.943  13.061
88608W        W61033   7.800  27.493  12.446
88609W        W61034  25.670  42.692  10.174
88610W        W61035   9.634  16.585   4.141
88611W        W61036  13.126  44.890   3.306
88612W        W61037  19.117  20.450   4.605
88613W        W61038   8.217  30.097   2.468
88614W        W61039  43.803  39.471  11.227
88615W        W61040  23.031   7.112   1.243
88616W        W61041  23.201  30.411   2.275
88617W        W61042   4.818  31.798   2.286
88618W        W61043  30.242  40.505  12.365
88619W        W61044  14.243  27.051   3.740
88620W        W61045  40.412  18.671   3.230
88621W        W61046  11.376  23.807   1.766
88622W        W61047  33.027  13.472  12.480
88623W        W61048  39.791  32.950  10.653
88624W        W61049   9.643  35.991   1.838
88625W        W61050  20.083  19.127  12.571
88626W        W61051  16.079  29.085  13.776
88627W        W61052  19.177  41.090  12.857
88628W        W61053  38.835  29.449   1.261
88629W        W61054   4.764   3.695  13.276
88630W        W61055  11.130   7.304  12.900
88631W        W61056   5.349  44.692  14.859
88632W        W61057  26.597  30.122  14.534
88633W        W61058  32.992  25.298   5.008
88634W        W61059  12.349  16.145  13.385
88635W        W61060  15.831  16.189   1.414
88636W        W61061  20.618   9.904   0.371
88637W        W61062   2.262  38.944  14.994
88638W        W61063  42.997  20.175  11.382
88639W        W61064  16.587  31.982   2.422
88640W        W61065  20.606  41.521  14.261
88641W        W61066  43.987   9.810   1.683
88642W        W61067   5.317  25.499   2.924
88643W        W61068  25.220  33.524   4.959
88644W        W61069  31.034   1.825  10.244
88645W        W61070  26.665   7.815  12.815
88646W        W61071  34.604   9.222  12.151
88647W        W61072  32.009  23.153   2.834
88648W        W61073  22.231  14.395   2.810
88649W        W61074  44.325   3.439  11.536
88650W        W61075   7.535  42.771   3.154
88651W        W61076  14.195   0.732  13.372
88652W        W61077   0.697  42.838   2.463
88653W        W61078  37.313  24.471  13.481
88654W        W61079  35.515  12.587  11.571
88655W        W61080  39.502  23.019  12.773
88656W        W61081  18.727  27.032   3.282
88657W        W61082  12.297   2.872  11.476
88658W        W61083   4.989  24.522   2.757
88659W        W61084  17.124  32.954  10.430
88660W        W61085  17.794  27.090   4.432
88661W        W61086  36.038  30.657   0.713
88662W        W61087   6.481  20.482  13.409
88663W        W61088  13.854  16.772   2.380
88664W        W61089  22.561   7.146   1.469
88665W        W61090  37.035  39.478   1.773
88666W        W61091  11.986  41.179  13.994
88667W        W61092  34.351  31.966   2.131
88668W        W61093  30.393  21.087   1.330
88669W        W61094   4.510  11.881  11.571
88670W        W61095  35.447  15.400  11.192
88671W        W61096  28.870  10.427   0.387
88672W        W61097  13.081  38.639   4.467
88673W        W61098  16.120  42.537  13.859
88674W        W61099  22.028  28.106  13.918
88675W        W61100  28.690  20.692   3.496
88676W        W61101  33.544   0.018   0.890
88677W        W61102  11.688  40.781   0.712
88678W        W61103   6.105  38.832   4.645
88679W        W61104   7.808   8.394   3.879
88680W        W61105   3.375  36.900  13.403
88681W        W61106  13.159  13.885  13.059
88682W        W61107  25.237   5.978  12.880
88683W        W61108  15.842  42.973   5.004
88684W        W61109  34.667  32.893   4.472
88685W        W61110   6.328   4.987  14.988
88686W        W61111  25.043  16.555  11.214
88687W        W61112  32.837  24.537   3.985
88688W        W61113  34.841  14.817   0.484
88689W        W61114  30.570  34.909  10.799
88690W        W61115  22.722  21.389  12.870
88691W        W61116  14.843  43.249  14.878
88692W        W61117   0.402  16.792   0.371
88693W        W61118   5.394   7.406   2.775
88694W        W61119  22.098   3.457   3.724
88695W        W61120  37.477  27.747  11.618
88696W        W61121  15.103  27.993  10.412
88697W        W61122   0.010  36.832  12.019
88698W        W61123  44.239  13.620  11.858
88699W        W61124  27.100   4.452  11.595
88700W        W61125  38.021  42.027   4.994
88701W        W61126  26.984   1.243  13.932
88702W        W61127  21.255   5.668  14.823
88703W        W61128  36.295  27.059   1.736
88704W        W61129   2.601  12.260  11.619
88705W        W61130  34.468   0.702   4.079
88706W        W61131  40.304   5.259   0.429
88707W        W61132  38.590  14.198  13.099
88708W        W61133   7.251  32.387   2.278
88709W        W61134  25.298  18.166   0.237
88710W        W61135  30.976  16.522  14.271
88711W        W61136  43.424  24.678  10.714
88712W        W61137   9.517  12.616   2.191
88713W        W61138  30.740  36.458   4.794
88714W        W61139  35.045   3.661  14.928
88715W        W61140  38.908  23.573   3.807
88716W        W61141  38.489  30.852   0.208
88717W        W61142   5.266  37.096   1.394
88718W        W61143  38.951  20.658  11.746
88719W        W61144  32.554  17.730  11.002
88720W        W61145   5.207  11.315  11.465
88721W        W61146  23.015  38.288   3.241
88722W        W61147  23.502   2.719  12.970
88723W        W61148  11.804  34.933  14.559
88724W        W61149  36.935  11.640  12.607
88725W        W61150   2.278  29.435  14.327
88726W        W61151  27.557   4.207   2.126
88727W        W61152   8.694  39.254   2.844
88728W        W61153   3.922  31.075   1.267
88729W        W61154  42.339  38.015  14.696
88730W        W61155  23.481   2.176   4.822
88731W        W61156  23.846  22.126   4.080
88732W        W61157  34.775  25.949   0.318
88733W        W61158  20.530  25.008  13.802
88734W        W61159  21.385  23.968  13.140
88735W        W61160  42.166   2.370   4.656
88736W        W61161  18.982  32.454   4.626
88737W        W61162  37.756  25.055  12.960
88738W        W61163  10.448   9.050  12.413
88739W        W61164  26.856  43.009   4.980
88740W        W61165  27.387  35.451   0.744
88741W        W61166  40.379  37.807  11.992
88742W        W61167  18.966  15.281   0.226
88743W        W61168  14.332  31.532  12.416
88744W        W61169   2.585   4.777   1.220
88745W        W61170   0.716  15.918  10.609
88746W        W61171  11.019  32.990  13.021
88747W        W61172  26.708  17.611   4.114
88748W        W61173   2.421  21.481  13.891
88749W        W61174  28.578  21.758   2.762
88750W        W61175  31.489  20.144  11.116
88751W        W61176  16.115  42.402  12.300
88752W        W61177  36.729  39.309   1.275
88753W        W61178  14.655   2.775  10.413
88754W        W61179  38.110  19.752  12.174
88755W        W61180  22.239   7.971   1.532
88756W        W61181  20.654  10.113   2.248
88757W        W61182  28.453  20.579   0.441
88758W        W61183   1.746  40.569   4.071
88759W        W61184  29.077  36.873   2.308
88760W        W61185  39.364  20.979  14.117
88761W        W61186   9.549  19.733   1.900
88762W        W61187  34.876  31.968   2.158
88763W        W61188  39.875  20.775  12.485
88764W        W61189  37.106  29.988  11.491
88765W        W61190  34.206  42.097   1.676
88766W        W61191   7.799  20.701  12.075
88767W        W61192   8.019  41.562   1.734
88768W        W61193  33.379   5.424  13.885
88769W        W61194  30.052  37.395  10.681
88770W        W61195   1.936  11.247   2.052
88771W        W61196  21.238  15.624   3.724
88772W        W61197  34.462  11.231  12.669
88773W        W61198   2.251  16.825   4.395
88774W        W61199  33.863  35.291  11.768
88775W        W61200   6.876   6.512  12.363
88776W        W61201  13.649   7.256  14.267
88777W        W61202  30.855  26.463   4.548
88778W        W61203   4.132  40.984   3.168
88779W        W61204  25.990  38.867  14.026
88780W        W61205  15.251  18.139   1.684
88781W        W61206  13.959  12.789  14.010
88782W        W61207   4.940  41.895   0.015
88783W        W61208  14.519  23.166  10.233
88784W        W61209   2.959  38.531  11.115
88785W        W61210  35.349  42.290  11.181
88786W        W61211  29.608  44.204  11.386
88787W        W61212  26.876   2.745   4.519
88788W        W61213  36.214  13.592  12.013
88789W        W61214  15.223  15.083   0.394
88790W        W61215   2.238  41.411  13.796
88791W        W61216   6.005  35.106  10.694
88792W        W61217  44.490   8.737  12.058
88793W        W61218  41.031  30.207   0.902
88794W        W61219  32.507  44.468   2.549
88795W        W61220  20.366  12.291  10.132
88796W        W61221  32.274  42.419  11.647
88797W        W61222   6.639  30.440   4.515
88798W        W61223  13.871  23.726  11.559
88799W        W61224  37.487  23.980   1.236
88800W        W61225  39.072  22.869   1.924
88801W        W61226  10.491  24.205   0.845
88802W        W61227   1.635   0.933   3.824
88803W        W61228  21.272  28.867   3.695
88804W        W61229  34.753  35.540  13.977
88805W        W61230  38.899  29.620  12.291
88806W        W61231  38.885  24.578  14.810
88807W        W61232   4.939  15.777   3.097
88808W        W61233  38.832  34.951  11.126
88809W        W61234  16.306  38.421   1.267
88810W        W61235  20.293  25.046   4.072
88811W        W61236  26.737  10.670   1.863
88812W        W61237  39.490  31.164   4.173
88813W        W61238  20.564  25.579   0.805
88814W        W61239  11.327  26.092   0.712
88815W        W61240   1.221  17.610   1.803
88816W        W61241   3.166  28.624   2.228
88817W        W61242  11.230  13.374   0.352
88818W        W61243  33.534  20.902  12.500
88819W        W61244  44.464  31.389  10.606
88820W        W61245  39.571   9.357   2.308
88821W        W61246   6.974   0.160  11.401
88822W        W61247   6.842  17.004  11.909
88823W        W61248  14.902   6.668   4.965
88824W        W61249  22.354  41.303   2.807
88825W        W61250  15.839  14.806   2.762
88826W        W61251   3.255   5.850   1.885
88827W        W61252  24.199  41.730   3.603
88828W        W61253  15.253  44.540   1.995
88829W        W61254   3.611  28.485   2.500
88830W        W61255  21.770  40.625  12.617
88831W        W61256  12.584  40.911  12.504
88832W        W61257   6.711  30.590  11.026
88833W        W61258  41.867  41.556  10.307
88834W        W61259  17.241   0.220   4.090
88835W        W61260  23.384   7.287  11.977
88836W        W61261  41.069  22.294  11.678
88837W        W61262  33.413  26.985  11.638
88838W        W61263  31.360  36.726   3.599
88839W        W61264  30.333  19.258   3.221
88840W        W61265  33.069  22.214   1.248
88841W        W61266  10.805  30.733  14.890
88842W        W61267  34.052  17.712   3.937
88843W        W61268   4.729  21.734   1.848
88844W        W61269  32.483  20.455  13.193
88845W        W61270  22.505  44.067   0.240
88846W        W61271  29.201  38.666   5.341
88847W        W61272  31.608   6.970  13.579
88848W        W61273  27.098  18.137   2.268
88849W        W61274   4.081  16.981  13.813
88850W        W61275  34.025   6.001  13.787
88851W        W61276  41.726  18.747   2.543
88852W        W61277  14.757   4.175   9.884
88853W        W61278  42.943   0.455   2.779
88854W        W61279  27.212   4.899  14.973
88855W        W61280  18.496  38.367  13.950
88856W        W61281  44.698  13.711   1.458
88857W        W61282  14.801  20.426  11.657
88858W        W61283   5.242  26.402   2.019
88859W        W61284   1.993  24.641   1.652
88860W        W61285   2.469  22.232   4.073
88861W        W61286   2.877   5.290  14.880
88862W        W61287  29.939   0.739   3.740
88863W        W61288  40.498  34.890  12.476
88864W        W61289  41.251   0.120   2.222
88865W        W61290  10.681  40.061   0.558
88866W        W61291  28.342   4.862   0.911
88867W        W61292  21.252  41.521   1.350
88868W        W61293   3.261  34.599  10.608
88869W        W61294  37.352  25.805   2.731
88870W        W61295   5.484  21.693  13.548
88871W        W61296  24.422  30.642  10.760
88872W        W61297  33.822  31.929  11.181
88873W        W61298  28.162  43.048   3.276
88874W        W61299   6.266  21.223   3.145
88875W        W61300   0.413  39.260  12.482
88876W        W61301   5.890  15.264  10.798
88877W        W61302  11.768   0.868  11.112
88878W        W61303  22.076  26.638   0.439
88879W        W61304   2.678  32.520  12.571
88880W        W61305  25.155  33.220   1.383
88881W        W61306  13.686  16.785   4.637
88882W        W61307   7.702  44.813   2.178
88883W        W61308  24.648  14.754  12.515
88884W        W61309   0.723  29.672   0.811
88885W        W61310  36.501  38.331   2.259
88886W        W61311   5.449  34.639   1.264
88887W        W61312   4.299  16.236   0.796
88888W        W61313  28.485  11.568  12.002
88889W        W61314  33.180  22.619  12.894
88890W        W61315  11.712  27.817   3.683
88891W        W61316  20.604   3.881  12.656
88892W        W61317  36.569  30.016   1.323
88893W        W61318   5.844  37.440  13.504
88894W        W61319  43.338   2.008   3.834
88895W        W61320   0.226  39.422  12.959
88896W        W61321   3.295  36.572   3.844
88897W        W61322  37.517  31.703  12.047
88898W        W61323   9.433  13.917  11.894
88899W        W61324   8.943  19.682   0.598
88900W        W61325  37.714  20.204   2.165
88901W        W61326  41.838   8.145   3.857
88902W        W61327   6.757  23.400  14.280
88903W        W61328  19.317  25.764  12.099
88904W        W61329  35.355   5.945   2.660
88905W        W61330  40.881  31.685  14.400
88906W        W61331   8.039   8.439   0.623
88907W        W61332  38.809  36.775   0.283
88908W        W61333  33.564  35.016  11.244
88909W        W61334  10.742  17.699   0.405
88910W        W61335   1.826  35.478   2.072
88911W        W61336  37.026   7.879   0.041
88912W        W61337  44.404  22.128  12.012
88913W        W61338  27.519  24.254   0.395
88914W        W61339  26.495  24.037  14.345
88915W        W61340  39.443  10.346  11.261
88916W        W61341  16.261   3.409  12.531
88917W        W61342  21.272   4.655  14.961
88918W        W61343   6.780  25.451   3.529
88919W        W61344  23.261  13.614  10.697
88920W        W61345  35.667  11.768   1.894
88921W        W61346  39.556  36.259  13.886
88922W        W61347   7.834  18.543  13.552
88923W        W61348   4.756   1.065   1.829
88924W        W61349  23.277  10.825   1.876
88925W        W61350  43.832  44.407  10.428
88926W        W61351  30.702   1.728  13.518
88927W        W61352  11.721  31.104  11.947
88928W        W61353  35.963   8.320  10.521
88929W        W61354  11.853  37.757  11.642
88930W        W61355  26.532  28.112   3.881
88931W        W61356  40.241  27.531   3.197
88932W        W61357  42.207  32.724   2.924
88933W        W61358  27.796  16.594   0.733
88934W        W61359  31.092   3.325  10.843
88935W        W61360  43.875  40.029  11.891
88936W        W61361  32.409  38.500  13.922
88937W        W61362  19.639  40.326   2.854
88938W        W61363   6.634  39.497   4.076
88939W        W61364  32.140  25.032  11.808
88940W        W61365  11.588  17.591  10.694
88941W        W61366  36.314  11.090  11.409
88942W        W61367   1.864  34.532   1.671
88943W        W61368  39.876   0.523   0.026
88944W        W61369  17.316  19.173   0.033
88945W        W61370   5.156   6.286  11.017
88946W        W61371  44.002   8.223   3.189
88947W        W61372  16.542  26.011  13.478
88948W        W61373  18.547  43.281  12.922
88949W        W61374  34.037   8.372  11.955
88950W        W61375   9.927  34.252   2.403
88951W        W61376   4.273  27.463  10.580
88952W        W61377  30.203  14.029  14.993
88953W        W61378   4.064  40.044   2.287
88954W        W61379  34.592   8.831   4.353
88955W        W61380  19.956  41.965   2.194
88956W        W61381  14.237  37.860   2.862
88957W        W61382  44.308  11.105   5.075
88958W        W61383  37.145  15.256   0.927
88959W        W61384  25.579  23.668   0.386
88960W        W61385   3.254  20.165   2.375
88961W        W61386  30.132  17.902  14.671
88962W        W61387  28.444  33.842   4.232
88963W        W61388   0.223  31.951  12.034
88964W        W61389  26.606  36.402   0.244
88965W        W61390  13.178   4.891   4.654
88966W        W61391  37.008  41.760  11.319
88967W        W61392  30.534  36.576   1.299
88968W        W61393  35.029  30.357  14.492
88969W        W61394  42.285  24.130  13.512
88970W        W61395  42.247  15.656   0.170
88971W        W61396  32.929  34.066   2.361
88972W        W61397   2.596  37.530   3.437
88973W        W61398  31.146  15.687   0.552
88974W        W61399  24.732   8.827  12.531
88975W        W61400  12.120  32.054  13.427
88976W        W61401  14.013  42.724  13.464
88977W        W61402  26.854   4.693  12.553
88978W        W61403  36.066  37.371   1.675
88979W        W61404   2.347  26.441  14.064
88980W        W61405  41.441   8.694   4.615
88981W        W61406  41.926  25.983   1.255
88982W        W61407  41.449  22.276   3.813
88983W        W61408  22.033  24.211   5.046
88984W        W61409  29.913  29.957  11.540
88985W        W61410  43.291  37.853   2.172
88986W        W61411  22.032  30.613  13.524
88987W        W61412   7.595  19.657  13.434
88988W        W61413  28.032  38.048   1.815
88989W        W61414  32.135  33.029  13.405
88990W        W61415   0.521   9.861   1.869
88991W        W61416  44.116  43.406   2.253
88992W        W61417  43.787   4.627   1.837
88993W        W61418  37.049  10.277  14.297
88994W        W61419  39.701  14.571   1.705
88995W        W61420  25.614  33.664   4.146
88996W        W61421   6.179  43.364   1.211
88997W        W61422  39.491   0.765  11.850
88998W        W61423  30.605   7.977   3.641
88999W        W61424  39.037  10.561  12.069
89000W        W61425  27.479  27.634   2.291
89001W        W61426   6.524   9.552   3.735
89002W        W61427  25.784  11.909   0.478
89003W        W61428  22.050   3.097   4.095
89004W        W61429  15.916  44.709   2.540
89005W        W61430  11.319  20.827  10.715
89006W        W61431  23.072  30.599   3.732
89007W        W61432  24.252  23.167  11.621
89008W        W61433   3.746  25.538  14.727
89009W        W61434  32.501  41.328  10.841
89010W        W61435  22.020  18.500  13.310
89011W        W61436  33.576  30.421  14.419
89012W        W61437  19.829  39.773  12.104
89013W        W61438  13.172  23.231   0.258
89014W        W61439  30.852  22.871   5.452
89015W        W61440  28.343  34.015   1.898
89016W        W61441  29.516  40.364  11.597
89017W        W61442  15.737  10.703   4.758
89018W        W61443  22.825  39.771   2.352
89019W        W61444  34.876   9.703  12.888
89020W        W61445  10.817  19.844   4.061
89021W        W61446  37.407  28.906   2.318
89022W        W61447  17.319  39.011  11.898
89023W        W61448  37.845  21.795   1.711
89024W        W61449   8.685  30.971   2.383
89025W        W61450  12.187  27.809  12.061
89026W        W61451   1.538   3.749   3.044
89027W        W61452  36.467  19.084   4.189
89028W        W61453  11.301   2.789  11.491
89029W        W61454   9.549   2.283   3.882
89030W        W61455  16.158  42.847  14.585
89031W        W61456   8.694   6.879  14.566
89032W        W61457  15.237   9.129  11.317
89033W        W61458   4.013  30.891   2.805
89034W        W61459  41.030   5.003  12.385
89035W        W61460  18.690  44.464   0.931
89036W        W61461  38.037  44.694  10.985
89037W        W61462  12.015  18.127  11.119
89038W        W61463  27.646   0.306   3.703
89039W        W61464  19.117  27.108   4.631
89040W        W61465  44.850  40.277  12.800
89041W        W61466  42.963  28.858  11.178
89042W        W61467   2.910  27.892  12.224
89043W        W61468  39.576  17.848  11.578
89044W        W61469  21.307  16.171   0.522
89045W        W61470  36.090  41.546  13.864
89046W        W61471  43.477  12.556  14.506
89047W        W61472  34.453   4.165  13.479
89048W        W61473   3.853   7.522  10.712
89049W        W61474  42.770   7.555  13.075
89050W        W61475  34.831  28.658   2.812
89051W        W61476   9.119  27.484   4.183
89052W        W61477   3.444  24.163  13.848
89053W        W61478  21.507  39.237   2.269
89054W        W61479   1.279  14.664   3.393
89055W        W61480  43.925  25.241  11.519
89056W        W61481  43.287   2.342   0.532
89057W        W61482   6.955   3.170  13.414
89058W        W61483   0.990  41.484  14.647
89059W        W61484  19.769  41.124   3.260
89060W        W61485   0.773   9.655   4.152
89061W        W61486  42.823  37.073   1.311
89062W        W61487  32.545   9.235   3.660
89063W        W61488  30.217  20.657  11.155
89064W        W61489   6.327  29.457   3.157
89065W        W61490  12.693  21.141  11.934
89066W        W61491  20.266  18.694  14.739
89067W        W61492  27.596   0.202  10.396
89068W        W61493   1.360  10.131  12.919
89069W        W61494  22.121  42.788   1.321
89070W        W61495   7.591  23.045  12.616
89071W        W61496   0.367   3.017   1.786
89072W        W61497  35.024  13.127  13.316
89073W        W61498  31.406  37.302  10.530
89074W        W61499  20.792  39.046   0.325
89075W        W61500  29.856  11.305  14.369
89076W        W61501  23.606   9.720   2.205
89077W        W61502  28.866  24.102  12.629
89078W        W61503  21.108  20.967   4.966
89079W        W61504  19.106  10.765  14.778
89080W        W61505  44.811   8.745  11.610
89081W        W61506  39.296  22.059  12.465
89082W        W61507  20.464   9.258  14.583
89083W        W61508  28.000  19.147  10.351
89084W        W61509   3.349  40.621   0.214
89085W        W61510  20.164  15.670  12.926
89086W        W61511  39.649  31.060   2.336
89087W        W61512   7.494  39.339   4.757
89088W        W61513   2.213  40.344   4.097
89089W        W61514   3.843  33.840  12.436
89090W        W61515   8.181  26.519  14.741
89091W        W61516   2.206  12.141   2.806
89092W        W61517  40.486  31.660   2.304
89093W        W61518  31.220  44.456  12.544
89094W        W61519  33.099  16.749   3.300
89095W        W61520  36.163  37.467  14.905
89096W        W61521   1.160  30.680   2.028
89097W        W61522  22.007  21.188   0.015
89098W        W61523  26.109  33.649  12.044
89099W        W61524  33.869  39.385  14.822
89100W        W61525  16.881  33.999  14.469
89101W        W61526  10.874   8.347   0.850
89102W        W61527  29.765  25.015   4.698
89103W        W61528  16.627  40.520   1.060
89104W        W61529  23.020  41.179   1.217
89105W        W61530  30.803  12.105   3.454
89106W        W61531  23.139  32.437   1.021
89107W        W61532  15.062  26.500   4.797
89108W        W61533  17.336  29.158   1.055
89109W        W61534  11.389  42.554   2.259
89110W        W61535  43.886  32.330  14.390
89111W        W61536  39.384  40.818   2.135
89112W        W61537  33.618  38.323  14.644
89113W        W61538  40.615   2.416  11.573
89114W        W61539  21.603  40.477  10.254
89115W        W61540  24.893   0.950  13.519
89116W        W61541   2.278  20.133  11.291
89117W        W61542  30.613   9.123  11.378
89118W        W61543  34.345  39.963  12.951
89119W        W61544  14.127  43.921  10.743
89120W        W61545  10.214   1.531  11.096
89121W        W61546  25.689  34.292  11.229
89122W        W61547   0.008   9.760   0.881
89123W        W61548   2.120  38.018   4.714
89124W        W61549  24.903  13.205   0.709
89125W        W61550  38.992   9.623  14.836
89126W        W61551  25.334  29.593  11.456
89127W        W61552  31.693  30.979   1.845
89128W        W61553   1.732  35.429   1.573
89129W        W61554  34.815  14.747   3.328
89130W        W61555  14.151   5.680  12.754
89131W        W61556  23.266  35.350  13.951
89132W        W61557  17.619  32.364   4.606
89133W        W61558  40.354  16.772  14.874
89134W        W61559  19.858  32.633  12.858
89135W        W61560   5.181  36.442   2.178
89136W        W61561  24.707   3.719   4.113
89137W        W61562  21.950  38.542  14.808
89138W        W61563  29.797  35.005   1.456
89139W        W61564  23.933  23.319   2.738
89140W        W61565   8.371  36.925   3.607
89141W        W61566  38.041  31.968   3.060
89142W        W61567   0.211  22.980  10.639
89143W        W61568  35.402  19.787  14.295
89144W        W61569  14.021  39.037  13.500
89145W        W61570  17.248  12.816   9.932
89146W        W61571  32.087  20.190   3.063
89147W        W61572   4.800  43.602  14.272
89148W        W61573   0.956  23.675  12.938
89149W        W61574  36.436  43.750   4.161
89150W        W61575  24.128  31.291   1.481
89151W        W61576   1.700  33.151   0.803
89152W        W61577   7.660  26.503   3.727
89153W        W61578  23.378  12.324   2.783
89154W        W61579  21.122  39.415   1.462
89155W        W61580  16.664  27.757   2.895
89156W        W61581  16.908  24.393  13.342
89157W        W61582  19.708  38.439   4.553
89158W        W61583  17.516  42.097   4.418
89159W        W61584  27.795   4.547  10.974
89160W        W61585  38.489  37.078  11.774
89161W        W61586  17.730  31.113   4.238
89162W        W61587  38.843  11.194  12.930
89163W        W61588  28.073  31.817   4.118
89164W        W61589  12.168  11.151  11.515
89165W        W61590  34.488  29.450   4.350
89166W        W61591  25.189   5.810   0.250
89167W        W61592  31.419  16.821  12.080
89168W        W61593  12.145  37.462   1.590
89169W        W61594  38.130   8.894   5.445
89170W        W61595  39.019  21.128   4.094
89171W        W61596  23.309   9.749  11.939
89172W        W61597   7.052  22.856   3.781
89173W        W61598  36.031   1.259   1.874
89174W        W61599  13.205  25.158  12.533
89175W        W61600   5.153  27.671   0.321
89176W        W61601  32.222  43.284   4.594
89177W        W61602  43.034  38.882   2.774
89178W        W61603  15.243  44.168   2.825
89179W        W61604  21.280   9.182  14.070
89180W        W61605  22.766   9.289   2.703
89181W        W61606  10.458  43.276  14.999
89182W        W61607  20.067  24.556  13.483
89183W        W61608  11.090  35.062  12.332
89184W        W61609  34.660  40.025   3.297
89185W        W61610  32.976  12.777   0.066
89186W        W61611  14.498  37.227   4.737
89187W        W61612  18.732   3.480  10.963
89188W        W61613  11.207  23.930  11.713
89189W        W61614  34.190  37.331  13.367
89190W        W61615  37.428  28.673   1.384
89191W        W61616  42.311   0.778  11.584
89192W        W61617  19.991  20.563  13.054
89193W        W61618  22.009  39.886   4.594
89194W        W61619  12.460  25.275   9.562
89195W        W61620   3.030   2.310   3.715
89196W        W61621   1.202  23.178   0.835
89197W        W61622  44.273  11.884   1.104
89198W        W61623  42.302   1.935  10.740
89199W        W61624  20.829   3.931   1.727
89200W        W61625  24.344  37.536   0.940
89201W        W61626   7.312  39.837   4.775
89202W        W61627  34.931  32.399   3.333
89203W        W61628  17.579  23.559   3.629
89204W        W61629   8.584  18.145  14.271
89205W        W61630  42.876  17.636  13.962
89206W        W61631  12.093  41.950  14.941
89207W        W61632  31.628   6.290  11.943
89208W        W61633  35.085  23.117  11.026
89209W        W61634  37.167  11.722  12.161
89210W        W61635  19.494  24.544   1.430
89211W        W61636  43.791  21.359  14.304
89212W        W61637  31.432  43.434   4.110
89213W        W61638  10.223  22.507   2.933
89214W        W61639  23.750   8.066   0.271
89215W        W61640  40.066   3.239   1.249
89216W        W61641  20.062  26.019   1.853
89217W        W61642  18.507  33.174  13.572
89218W        W61643  12.815  16.232   1.304
89219W        W61644  27.188  24.728  12.862
89220W        W61645  20.351   1.450  11.180
89221W        W61646   2.892  11.361   4.525
89222W        W61647  32.092  17.752   4.951
89223W        W61648   9.195  38.578  10.981
89224W        W61649  35.753   8.431   4.515
89225W        W61650   3.919  16.345  12.491
89226W        W61651  24.338  42.940  12.053
89227W        W61652  41.147  22.282  10.240
89228W        W61653  26.468   5.312   4.283
89229W        W61654  18.417   4.497   3.059
89230W        W61655   6.917  40.849  11.532
89231W        W61656  13.373  14.090  14.472
89232W        W61657  17.083   2.547   1.636
89233W        W61658  30.243  28.175   4.356
89234W        W61659  10.272  42.844   4.993
89235W        W61660   3.384  13.249  10.777
89236W        W61661  23.233  13.341   4.174
89237W        W61662  36.578  23.260  11.165
89238W        W61663  41.818  25.972  13.065
89239W        W61664   1.088   4.143  10.681
89240W        W61665  18.900   5.293   2.049
89241W        W61666  36.610  16.498   0.715
89242W        W61667   8.152  15.179   3.340
89243W        W61668  22.469  10.744  10.750
89244W        W61669  14.650  28.236   4.640
89245W        W61670  17.567  38.222  14.409
89246W        W61671  42.389  23.518   2.185
89247W        W61672  31.746  19.799   3.281
89248W        W61673  20.019  12.947   4.349
89249W        W61674  10.204   5.725   3.643
89250W        W61675  18.783  25.605  13.825
89251W        W61676  30.312  17.518   4.757
89252W        W61677   9.953  14.607   0.959
89253W        W61678  34.812  42.413   4.215
89254W        W61679  37.399  22.257   1.960
89255W        W61680  11.182   7.737   1.278
89256W        W61681  24.619  41.946   2.270
89257W        W61682  21.121   0.837   1.846
89258W        W61683   9.217   5.201   4.608
89259W        W61684  29.999  34.833   2.748
89260W        W61685  21.428  17.681  14.438
89261W        W61686   1.441  14.680   2.480
89262W        W61687  15.085  23.540   2.947
89263W        W61688  33.320   2.258  11.788
89264W        W61689  10.667   3.376  12.860
89265W        W61690  29.630  17.008   0.493
89266W        W61691   2.449   6.125  14.408
89267W        W61692  35.138  32.079  11.488
89268W        W61693  12.606  33.622   1.763
89269W        W61694  19.750  40.844   1.746
89270W        W61695  14.693   3.260  10.199
89271W        W61696  16.545  29.781  10.718
89272W        W61697  30.626  18.120   3.750
89273W        W61698  44.222  28.976   1.488
89274W        W61699  40.016  24.608   3.559
89275W        W61700  27.075  43.896  11.855
89276W        W61701   8.298  27.180   4.176
89277W        W61702  20.407   4.719   4.436
89278W        W61703  12.141  37.570   4.974
89279W        W61704  36.754  25.401  14.891
89280W        W61705  37.510  16.937  11.390
89281W        W61706   7.856   5.426  11.841
89282W        W61707  12.394  16.770   3.165
89283W        W61708   1.808  40.420   1.916
89284W        W61709  10.447   2.175  13.265
89285W        W61710   0.906  22.801   1.772
89286W        W61711  14.289  27.876   4.772
89287W        W61712  36.318  32.924   1.777
89288W        W61713  28.709  39.759  12.450
89289W        W61714   8.306  20.334   1.177
89290W        W61715  36.587  12.660  12.099
89291W        W61716  41.309   9.109   1.429
89292W        W61717   3.653  30.059  11.898
89293W        W61718  33.146  11.262  11.281
89294W        W61719  39.640  10.588   0.902
89295W        W61720  19.766  19.549  12.462
89296W        W61721  37.138  38.043   3.323
89297W        W61722  22.935  12.317   4.632
89298W        W61723   6.435  35.557   2.769
89299W        W61724  31.491  36.010  10.878
89300W        W61725   8.697  26.137  12.923
89301W        W61726  28.416  44.551   0.298
89302W        W61727   3.908  21.760   0.748
89303W        W61728   2.892   4.793   3.894
89304W        W61729  24.967  24.126   3.560
89305W        W61730  22.624  44.371  11.628
89306W        W61731  30.585  43.915   0.043
89307W        W61732  16.377  20.232  12.563
89308W        W61733  10.380  35.207   1.918
89309W        W61734  30.218  16.317  13.018
89310W        W61735   0.883  40.378  10.499
89311W        W61736  12.400  31.629  13.575
89312W        W61737   1.437   1.348   2.213
89313W        W61738  10.904  38.263   4.173
89314W        W61739   9.966  28.554   3.624
89315W        W61740   7.636   7.189   4.743
89316W        W61741  25.145  38.524   1.786
89317W        W61742  38.161  28.117   0.560
89318W        W61743  27.746  42.131   2.325
89319W        W61744  40.979   7.398  11.126
89320W        W61745  39.859   1.063  12.805
89321W        W61746  38.989  18.313  11.162
89322W        W61747  26.682   3.996  10.195
89323W        W61748  28.574   8.777  10.981
89324W        W61749  43.493   4.354   2.230
89325W        W61750   3.824  17.944   5.138
89326W        W61751  39.490  31.985  14.341
89327W        W61752  42.059  42.358  10.832
89328W        W61753   1.807  37.853  14.146
89329W        W61754   3.015   5.432   1.706
89330W        W61755  33.160  21.724   1.933
89331W        W61756  13.859  27.623  12.682
89332W        W61757  29.537  43.559   0.526
89333W        W61758   3.921  12.311   4.698
89334W        W61759  33.517  22.245  13.013
89335W        W61760  30.134  17.623   1.737
89336W        W61761  27.583  15.815  12.155
89337W        W61762  19.717  42.004   0.203
89338W        W61763  40.978  35.619  12.043
89339W        W61764   0.469   8.889   3.263
89340W        W61765   5.319  34.447   2.828
89341W        W61766  26.448   9.063   2.519
89342W        W61767  40.343  17.122  14.052
89343W        W61768  32.314  20.903   4.110
89344W        W61769   5.369  26.874   0.737
89345W        W61770  25.953  21.290   1.729
89346W        W61771  15.723  23.105  10.619
89347W        W61772  41.847  25.083  13.458
89348W        W61773  37.492  31.840   0.410
89349W        W61774   8.662  14.593   1.252
89350W        W61775  28.624  30.176  13.359
89351W        W61776   8.958  20.523  14.001
89352W        W61777  41.537   0.019  12.491
89353W        W61778  14.149  35.126   4.707
89354W        W61779  21.617  12.358   3.548
89355W        W61780   2.304  12.142   4.590
89356W        W61781  27.183  14.054  13.856
89357W        W61782   9.638  16.127  14.927
89358W        W61783  16.097  19.521  12.967
89359W        W61784  12.772  14.900  12.047
89360W        W61785  43.391  13.720   0.505
89361W        W61786  30.510   6.759  12.605
89362W        W61787  32.893   2.428   0.196
89363W        W61788  20.872  35.429   4.880
89364W        W61789  16.820  22.335  11.518
89365W        W61790  19.447   3.322   3.683
89366W        W61791   3.674  44.369   1.310
89367W        W61792  20.683   3.229   4.713
89368W        W61793  12.613   8.121  13.156
89369W        W61794  29.741  17.165  13.003
89370W        W61795  15.007  11.230  11.419
89371W        W61796   3.086  43.376   4.526
89372W        W61797  42.040  29.649  14.462
89373W        W61798  37.935  10.187  10.692
89374W        W61799   7.806  22.602   3.666
89375W        W61800  11.758  38.334  12.516
89376W        W61801  13.760  32.656  13.330
89377W        W61802  19.823  44.935   3.326
89378W        W61803  33.641  17.158   4.514
89379W        W61804   7.483  20.998   3.726
89380W        W61805   0.816  10.519  12.072
89381W        W61806  27.228  22.026  10.694
89382W        W61807  13.802  18.637  12.151
89383W        W61808  20.846  22.534   0.204
89384W        W61809  18.274  38.101   0.938
89385W        W61810  31.451  13.155  11.017
89386W        W61811  32.399   9.230  14.575
89387W        W61812  25.610  22.886  11.133
89388W        W61813  41.259  32.941   3.236
89389W        W61814  34.868  22.532  13.520
89390W        W61815  26.148  36.447   1.940
89391W        W61816  39.498  31.693   1.243
89392W        W61817  22.561   0.582  11.208
89393W        W61818  13.196  35.600  11.039
89394W        W61819  28.667  40.929   4.437
89395W        W61820  36.319  29.366   1.876
89396W        W61821  25.157  27.889   1.311
89397W        W61822  39.915  30.855   1.453
89398W        W61823  34.320  37.408   1.672
89399W        W61824  34.231   7.289  14.407
89400W        W61825   5.540   5.983  12.055
89401W        W61826  22.662  12.419   0.144
89402W        W61827  22.536  32.537   1.690
89403W        W61828  10.101   1.285   1.728
89404W        W61829  19.630   5.866   0.384
89405W        W61830   4.491  30.695  12.268
89406W        W61831   9.619  10.230   0.258
89407W        W61832   0.235  21.792   4.593
89408W        W61833  25.385  38.956   1.971
89409W        W61834  13.333   2.497  13.825
89410W        W61835  31.820   1.464  10.498
89411W        W61836  25.434  32.455   3.598
89412W        W61837  43.582  44.417  12.519
89413W        W61838  33.008  37.402  12.165
89414W        W61839  30.735   0.190   2.237
89415W        W61840   9.290  18.817  14.327
89416W        W61841  24.528  41.710  11.043
89417W        W61842  10.274  21.683  12.842
89418W        W61843   8.940  25.761  11.110
89419W        W61844  40.037  33.728   1.828
89420W        W61845   7.917   6.462   1.698
89421W        W61846  17.688  16.337   3.176
89422W        W61847  33.126  32.589  14.950
89423W        W61848  17.267  23.083   0.770
89424W        W61849   1.705  15.205   0.668
89425W        W61850  42.394  37.400   0.417
89426W        W61851  19.836  30.549   0.276
89427W        W61852   3.842  23.904  12.573
89428W        W61853  31.025   3.439  13.541
89429W        W61854  35.405  17.314  14.366
89430W        W61855  35.073  32.022  12.861
89431W        W61856  39.202   1.004  12.581
89432W        W61857  13.321  10.820  11.919
89433W        W61858   1.303  38.892  12.883
89434W        W61859  23.455  39.315  12.571
89435W        W61860  44.814  19.187  12.234
89436W        W61861  41.246  44.406  13.060
89437W        W61862  19.648  25.018   4.695
89438W        W61863  37.734  23.860  10.249
89439W        W61864  36.140  22.567  14.487
89440W        W61865  10.137   1.767  10.637
89441W        W61866  28.593  11.875   1.440
89442W        W61867  25.015  43.288   1.126
89443W        W61868   1.180  20.829  14.298
89444W        W61869  19.451  32.113   2.853
89445W        W61870  41.815  17.779   2.308
89446W        W61871  25.805   7.047  10.951
89447W        W61872  16.019   2.348  13.557
89448W        W61873  14.055  39.360  10.888
89449W        W61874  14.052  44.910  11.414
89450W        W61875   8.076  11.133   2.744
89451W        W61876   0.262  11.929  12.649
89452W        W61877  42.388  14.124  13.080
89453W        W61878  20.063  10.105  11.148
89454W        W61879  43.233  17.300   1.253
89455W        W61880  12.746  29.950  11.845
89456W        W61881  22.144  12.480  13.477
89457W        W61882  31.839  37.911  11.081
89458W        W61883  26.916  36.157  12.469
89459W        W61884  33.410   1.714   0.115
89460W        W61885  10.248  38.277  12.970
89461W        W61886  20.688  31.420   1.744
89462W        W61887  18.712   4.241   4.965
89463W        W61888  31.509  29.278   2.658
89464W        W61889  41.795  10.924  11.414
89465W        W61890  15.670  41.620  11.977
89466W        W61891  22.568   5.855  12.640
89467W        W61892  42.411  15.306   1.369
89468W        W61893   5.305  16.616  14.438
89469W        W61894  36.349   0.248  14.274
89470W        W61895   7.753  38.355  10.577
89471W        W61896  26.110  13.649  14.098
89472W        W61897  21.806   1.958   2.837
89473W        W61898  36.305  14.166  14.478
89474W        W61899  40.076  17.778  13.817
89475W        W61900  33.773  21.755  14.482
89476W        W61901  42.238  42.004  13.448
89477W        W61902  11.002  24.587   1.870
89478W        W61903  31.506  30.753   2.270
89479W        W61904  27.395   6.268   3.568
89480W        W61905  14.299  32.864  11.582
89481W        W61906   3.779  27.335   2.907
89482W        W61907  13.310  40.227   2.816
89483W        W61908  28.208   3.165  14.348
89484W        W61909  40.577   6.275  11.696
89485W        W61910  38.443  33.096  11.044
89486W        W61911  23.525  40.859   3.300
89487W        W61912  25.037   5.579   1.127
89488W        W61913  17.341  40.841   3.368
89489W        W61914  36.558  35.498   3.788
89490W        W61915  30.633   1.012  14.278
89491W        W61916   2.018  13.840  13.114
89492W        W61917  15.724   4.253   9.613
89493W        W61918   9.167  38.911   0.922
89494W        W61919   4.436  42.030  11.917
89495W        W61920  23.712   5.846   1.389
89496W        W61921  39.106  43.565   4.715
89497W        W61922  41.782  25.523  12.079
89498W        W61923  23.639  28.120   3.881
89499W        W61924  27.461  41.286   0.191
89500W        W61925  19.532  39.160   4.083
89501W        W61926  38.860  30.467  14.307
89502W        W61927   1.014   1.698  14.491
89503W        W61928  28.243  18.663  14.413
89504W        W61929   9.080  13.348   1.834
89505W        W61930   8.134  38.259  11.275
89506W        W61931  22.990  23.624   2.728
89507W        W61932   8.451  34.302  13.344
89508W        W61933  13.557  17.171  12.495
89509W        W61934  30.006  22.713   2.564
89510W        W61935  31.673  35.145   1.212
89511W        W61936  39.315  15.570   5.318
89512W        W61937  15.347  44.465  13.838
89513W        W61938   0.687  32.187   2.933
89514W        W61939  42.460   3.295  13.076
89515W        W61940  21.741   8.257   1.852
89516W        W61941  37.952  36.853  12.896
89517W        W61942   8.783  10.167  13.042
89518W        W61943  31.473  27.199  11.462
89519W        W61944  36.995  42.823  10.674
89520W        W61945  40.884  42.817  14.956
89521W        W61946  20.272  10.711  10.555
89522W        W61947   4.556  31.734  10.311
89523W        W61948  19.983  19.188  10.440
89524W        W61949  29.686  44.285   2.088
89525W        W61950  10.616  25.456   3.265
89526W        W61951  28.522  20.292   4.625
89527W        W61952   0.962  26.010  12.689
89528W        W61953  32.026  13.096   4.522
89529W        W61954  26.915  15.341  13.975
89530W        W61955  44.297  36.483  11.499
89531W        W61956   3.273  19.991  13.641
89532W        W61957   6.245  37.359  14.394
89533W        W61958  27.132  35.068  13.911
89534W        W61959  37.311  16.522   1.222
89535W        W61960  29.942  38.093   3.135
89536W        W61961  32.406  24.790  12.880
89537W        W61962  23.287  11.690   1.655
89538W        W61963  40.894   8.431  14.451
89539W        W61964   4.297   6.194  11.371
89540W        W61965   9.673  15.025   3.207
89541W        W61966   0.812   6.408  14.928
89542W        W61967  42.050  18.514   4.140
89543W        W61968  28.800  39.617   3.179
89544W        W61969  27.849  15.255  10.433
89545W        W61970   7.802  39.638  13.861
89546W        W61971  24.032  15.114  11.472
89547W        W61972  16.626  42.371   4.155
89548W        W61973  11.702   5.720  11.615
89549W        W61974  11.176   7.877  11.086
89550W        W61975  36.456  32.042   1.275
89551W        W61976  44.671  17.230  14.970
89552W        W61977  24.125  33.004   0.148
89553W        W61978  39.576   7.027   4.690
89554W        W61979  26.729  23.658   0.792
89555W        W61980  27.137  17.601   0.244
89556W        W61981  35.128  19.425  12.580
89557W        W61982   6.020  32.571  14.307
89558W        W61983  22.084  38.288   0.464
89559W        W61984   2.429  21.804   1.488
89560W        W61985  41.871  43.856  13.309
89561W        W61986   4.297  36.900  13.952
89562W        W61987   6.275  17.957  13.931
89563W        W61988  41.910  37.119   1.396
89564W        W61989  19.819  25.524  10.831
89565W        W61990  25.762  22.879   3.442
89566W        W61991  37.937  44.941   2.354
89567W        W61992  28.955   0.401   2.527
89568W        W61993   5.362  44.831  10.963
89569W        W61994  43.383  16.171  11.986
89570W        W61995  21.492  33.005   0.908
89571W        W61996  22.052  32.718   1.743
89572W        W61997  23.493  25.965  10.918
89573W        W61998  44.743   3.717  14.978
89574W        W61999  36.328   7.453   3.748
89575W        W62000  11.185  26.042   2.290
89576W        W62001  43.450  43.818   1.932
89577W        W62002   6.303  15.998  10.550
89578W        W62003  11.647   0.321   3.654
89579W        W62004  30.586  32.534   4.412
89580W        W62005  17.058  19.007  12.923
89581W        W62006  35.514  34.443  13.554
89582W        W62007  14.241  44.422   5.113
89583W        W62008  22.426  13.288   2.798
89584W        W62009  40.256  27.204  14.886
89585W        W62010  41.751  29.472  13.293
89586W        W62011  19.345  41.945   0.883
89587W        W62012  40.044  21.188   1.903
89588W        W62013  38.481  44.788   4.539
89589W        W62014   1.488  22.055  12.813
89590W        W62015  12.054   2.190  12.454
89591W        W62016  35.387   8.915   1.604
89592W        W62017  41.296   6.069  14.351
89593W        W62018  16.576  15.597   2.162
89594W        W62019  19.106  41.965   5.127
89595W        W62020  26.058  39.076  14.529
89596W        W62021  11.822  36.559  10.550
89597W        W62022  14.713  21.991  11.670
89598W        W62023   8.750   9.816  12.207
89599W        W62024   7.781  22.011  10.762
89600W        W62025  31.103  20.810   2.764
89601W        W62026  39.953   0.578   0.530
89602W        W62027  12.761  33.600   1.260
89603W        W62028  22.604  20.463   1.506
89604W        W62029  32.044  44.478   2.833
89605W        W62030   1.157  26.463   4.115
89606W        W62031   9.198  36.440  14.244
89607W        W62032  25.557  29.721   4.585
89608W        W62033  15.302  22.266   3.261
89609W        W62034  37.373  38.885  10.924
89610W        W62035   9.169   7.182   3.662
89611W        W62036  22.222  18.582  11.580
89612W        W62037  41.239  14.852   0.328
89613W        W62038   3.907  44.873  13.945
89614W        W62039  36.176  17.289  11.190
89615W        W62040  26.697  24.273  10.668
89616W        W62041  34.747   0.257   1.002
89617W        W62042   8.660   8.498  12.196
89618W        W62043  17.179  14.542  11.584
89619W        W62044  25.926  11.703  10.193
89620W        W62045  41.082   1.452  12.466
89621W        W62046  10.758   5.342   2.801
89622W        W62047  18.125  31.673   0.481
89623W        W62048  17.131  29.826  12.171
89624W        W62049  43.869  39.198   3.265
89625W        W62050  43.808  20.127   2.660
89626W        W62051  31.428  28.624  14.439
89627W        W62052  36.292   0.469  14.771
89628W        W62053  14.689   8.247   2.450
89629W        W62054  16.243  42.246   1.460
89630W        W62055   9.726  19.105  12.741
89631W        W62056   4.671  22.995  13.316
89632W        W62057  31.541  10.256  13.560
89633W        W62058  34.276  38.870   0.887
89634W        W62059  35.140  43.142  10.668
89635W        W62060  17.624  19.690   0.788
89636W        W62061  21.418  18.852   2.792
89637W        W62062  16.172  40.508   4.681
89638W        W62063  18.718  30.770   4.722
89639W        W62064  23.261  26.475   1.334
89640W        W62065  24.103  15.350   2.333
89641W        W62066   0.490  29.232   3.155
89642W        W62067  19.152  31.076   3.395
89643W        W62068  18.570  10.910  12.461
89644W        W62069  44.813  12.117  12.891
89645W        W62070  10.200  17.670   3.371
89646W        W62071  16.539  38.782  12.280
89647W        W62072  24.565  10.657   4.809
89648W        W62073  22.484  38.634   1.324
89649W        W62074  21.804  17.109  12.014
89650W        W62075  24.714  41.063   2.131
89651W        W62076   8.258  13.637   2.218
89652W        W62077  39.010   2.707  12.941
89653W        W62078  43.146  42.273   1.920
89654W        W62079  37.337  23.562   2.441
89655W        W62080  12.373   8.429   0.114
89656W        W62081  22.766  36.149   0.846
89657W        W62082  33.887  31.024  12.228
89658W        W62083  12.708  31.721  12.920
89659W        W62084   8.261  18.986   0.277
89660W        W62085  27.659  40.015  11.168
89661W        W62086  28.075   8.245   2.235
89662W        W62087  12.363  39.933  14.425
89663W        W62088  31.422  26.242  14.336
89664W        W62089  20.887  42.897  10.477
89665W        W62090  12.800  37.597   2.254
89666W        W62091  22.638  12.816   2.748
89667W        W62092  14.743   5.740   1.715
89668W        W62093  16.346  26.816   1.491
89669W        W62094  21.691  34.890  13.520
89670W        W62095  28.159  28.716  10.230
89671W        W62096  18.111  30.482   0.962
89672W        W62097   5.381   1.717  12.581
89673W        W62098  43.434  21.235   3.157
89674W        W62099  15.892  41.980   2.712
89675W        W62100  38.438  17.347  13.931
89676W        W62101  12.027  39.268   3.585
89677W        W62102  25.612   5.795   9.781
89678W        W62103  21.867  30.125  13.486
89679W        W62104  25.761  30.881   3.163
89680W        W62105   9.902  13.040   0.055
89681W        W62106  26.615  18.142  14.270
89682W        W62107   6.843   4.808   0.712
89683W        W62108  23.047  31.957   0.822
89684W        W62109  43.332  10.445   2.819
89685W        W62110  34.596  36.396   4.211
89686W        W62111  26.786  33.624   2.855
89687W        W62112  41.457  23.407  12.452
89688W        W62113  27.570  33.289  13.981
89689W        W62114  33.571   2.127   4.195
89690W        W62115  23.918   3.819   0.921
89691W        W62116  22.547  44.992   1.467
89692W        W62117  38.040  17.364  13.419
89693W        W62118  39.757   4.829  13.503
89694W        W62119  26.401  15.616   0.302
89695W        W62120   3.171  22.338   4.930
89696W        W62121  36.841  17.359  10.758
89697W        W62122  36.144  25.148   4.223
89698W        W62123  30.410   1.992   3.655
89699W        W62124  26.587   3.744  12.578
89700W        W62125  21.811  39.318  11.027
89701W        W62126  34.042  13.283   0.871
89702W        W62127   7.619  27.236  12.018
89703W        W62128   8.341  11.560  12.414
89704W        W62129  32.410   2.431  14.470
89705W        W62130  22.991  25.934  10.821
89706W        W62131  16.700  42.033   1.382
89707W        W62132  10.136  16.360  11.239
89708W        W62133  12.111   2.335  14.366
89709W        W62134  13.114   4.914   0.454
89710W        W62135  38.672   7.825   5.059
89711W        W62136   7.213  26.207   3.686
89712W        W62137   9.428  39.350  13.658
89713W        W62138  26.920   4.946  11.116
89714W        W62139  21.217  42.953  13.827
89715W        W62140  39.878  20.805   0.259
89716W        W62141  41.302   7.283  10.748
89717W        W62142  18.105   6.332   3.135
89718W        W62143  31.459  44.376   2.714
89719W        W62144  26.693  26.048   0.927
89720W        W62145  16.176  18.110   0.333
89721W        W62146  14.241   7.436   3.801
89722W        W62147  30.623  41.842  11.032
89723W        W62148   2.674  38.171  14.460
89724W        W62149  17.012  39.188  13.967
89725W        W62150  30.485  17.641   3.870
89726W        W62151  20.590   3.216  11.441
89727W        W62152  14.554   3.780   3.156
89728W        W62153  14.993   2.016   1.867
89729W        W62154  39.811   5.231   1.866
89730W        W62155   6.057  19.634  13.485
89731W        W62156  43.959  40.347  12.829
89732W        W62157  25.941  30.876   0.219
89733W        W62158  37.258  16.014   1.357
89734W        W62159  26.986  29.474  10.841
89735W        W62160  44.974  13.990   0.503
89736W        W62161   0.210  10.549   4.257
89737W        W62162  17.843  11.834  12.963
89738W        W62163   5.155  38.379   1.877
89739W        W62164  37.487  37.433  13.063
89740W        W62165   1.518  27.518   3.250
89741W        W62166  44.221  14.213   4.010
89742W        W62167  21.970   8.965  12.591
89743W        W62168   2.825   6.352  10.636
89744W        W62169   9.260  12.400   4.143
89745W        W62170  42.007  26.940   2.420
89746W        W62171  40.254  24.018  14.894
89747W        W62172   4.185  44.446   4.663
89748W        W62173   9.881  18.990   0.828
89749W        W62174  18.178  31.499  12.961
89750W        W62175  20.221  12.057   4.020
89751W        W62176   9.860  29.891  14.171
89752W        W62177  11.804  25.221  13.944
89753W        W62178   2.843  44.753  12.558
89754W        W62179   5.650  39.416   2.716
89755W        W62180  38.816   9.920   9.715
89756W        W62181  34.388  15.596  11.359
89757W        W62182  10.390  40.428  12.894
89758W        W62183   4.767  28.572   2.160
89759W        W62184  38.860  18.018   4.578
89760W        W62185   4.641   4.206  14.373
89761W        W62186   6.272  12.654  10.890
89762W        W62187  11.647  29.186  11.159
89763W        W62188  35.452   7.109   5.161
89764W        W62189  15.674   3.859   1.795
89765W        W62190  34.112   1.494   2.223
89766W        W62191   4.299  33.932  14.789
89767W        W62192  17.823  40.453   2.776
89768W        W62193  12.085   1.995   4.571
89769W        W62194  34.818  41.817   2.173
89770W        W62195  12.334  28.874   1.320
89771W        W62196  39.559  27.293   3.649
89772W        W62197   9.136  18.632   3.787
89773W        W62198  24.016   2.714   4.722
89774W        W62199  15.129   6.199   4.099
89775W        W62200  42.777  42.426   1.522
89776W        W62201   3.355  31.578   4.672
89777W        W62202  29.602  18.721  13.950
89778W        W62203   8.142  34.641  13.932
89779W        W62204  30.307  17.240   3.164
89780W        W62205  36.114  28.559   3.078
89781W        W62206  17.096  31.203  14.914
89782W        W62207  15.564  18.351  11.556
89783W        W62208  20.371   3.000  12.495
89784W        W62209   3.037  31.858  11.139
89785W        W62210  37.000  16.124  14.037
89786W        W62211   5.338  23.255   4.811
89787W        W62212  10.287  27.467  13.861
89788W        W62213  30.604  22.190   0.249
89789W        W62214  15.738  35.955   9.937
89790W        W62215  21.645  25.858   1.325
89791W        W62216  23.168  33.224   4.578
89792W        W62217   9.282  27.025  14.289
89793W        W62218  40.814   7.754   0.937
89794W        W62219  41.713  36.876   2.370
89795W        W62220  17.150   4.289  14.573
89796W        W62221  29.452  14.743  11.676
89797W        W62222  25.976  43.713  14.870
89798W        W62223  36.806  36.363   4.228
89799W        W62224  19.167  22.695   1.815
89800W        W62225  27.992  20.614  14.537
89801W        W62226  14.121  23.000  11.119
89802W        W62227  33.066  11.119  14.821
89803W        W62228   0.362  42.318  11.072
89804W        W62229   6.929   0.325   3.790
89805W        W62230  18.587  36.750  14.565
89806W        W62231  15.328  44.786   3.792
89807W        W62232   7.132  12.072   2.361
89808W        W62233  11.010  20.130   2.917
89809W        W62234  24.286  35.422  11.213
89810W        W62235  33.769  32.029  12.486
89811W        W62236  34.420   7.748   2.842
89812W        W62237   3.358  11.810   1.628
89813W        W62238   4.494  35.382  11.993
89814W        W62239  10.147  33.098   1.344
89815W        W62240  30.619  10.763  11.295
89816W        W62241  41.241  21.212  13.883
89817W        W62242  28.529  21.561   1.376
89818W        W62243  30.732   3.710  12.768
89819W        W62244   2.437  39.967  12.309
89820W        W62245  20.610  42.461  12.179
89821W        W62246  28.733  25.881   1.366
89822W        W62247  10.152   4.191  11.040
89823W        W62248   5.943   7.478  12.075
89824W        W62249  15.103  25.160   1.729
89825W        W62250  28.382  42.896  11.019
89826W        W62251   6.741  42.596   1.266
89827W        W62252  23.675  39.550  14.450
89828W        W62253  27.576  25.779  12.970
89829W        W62254  41.338  11.816  13.279
89830W        W62255  23.738  28.855  12.506
89831W        W62256  29.748   3.497   2.771
89832W        W62257  26.068  35.872   2.811
89833W        W62258  15.856  44.315  14.227
89834W        W62259  29.429   9.751   4.509
89835W        W62260  20.129  30.849   0.919
89836W        W62261  43.864  26.996   1.790
89837W        W62262  37.917  18.620  11.132
89838W        W62263  23.790  24.177   2.803
89839W        W62264   9.186  32.688  14.019
89840W        W62265  41.406  39.847  14.252
89841W        W62266   2.945  24.637   0.729
89842W        W62267  19.224  21.616  12.141
89843W        W62268  44.042  37.470   5.051
89844W        W62269  25.122  40.358  11.639
89845W        W62270   5.967  25.821  10.658
89846W        W62271  20.484  26.100   3.181
89847W        W62272  30.474  23.427   2.185
89848W        W62273  22.118  28.298  14.433
89849W        W62274  40.873  12.842  11.633
89850W        W62275  23.452  18.888   4.844
89851W        W62276  25.532  41.393  13.490
89852W        W62277  37.608  40.156  11.242
89853W        W62278  43.733  42.761  14.734
89854W        W62279  40.273  37.892   2.329
89855W        W62280   0.480   4.347   0.174
89856W        W62281  33.903  44.893  10.728
89857W        W62282  18.182  34.942  10.666
89858W        W62283  12.277  24.810  11.997
89859W        W62284  30.533  42.263   2.161
89860W        W62285   7.858  29.436  10.543
89861W        W62286  21.766  42.206   2.245
89862W        W62287  43.077  26.931  14.880
89863W        W62288  29.746  20.258  14.493
89864W        W62289  17.103  26.153  13.459
89865W        W62290  21.135  20.707   0.186
89866W        W62291   4.709  22.035  14.055
89867W        W62292  21.349  21.543  14.833
89868W        W62293   5.350   8.139  10.742
89869W        W62294  12.162  13.863  13.136
89870W        W62295  26.255  16.504  11.616
89871W        W62296   4.427  23.960   4.077
89872W        W62297   8.710  30.039   4.393
89873W        W62298  25.911  37.834  13.887
89874W        W62299  28.089   6.596   1.445
89875W        W62300   5.387  37.544  11.846
89876W        W62301  26.939   2.940   1.730
89877W        W62302   8.351   2.558  10.727
89878W        W62303   5.326  21.068  14.877
89879W        W62304  24.533  38.637   2.296
89880W        W62305  41.973   8.614   3.988
89881W        W62306  44.248   7.693   5.019
89882W        W62307   0.296   1.832   4.121
89883W        W62308  28.350  15.134  10.467
89884W        W62309   2.529  28.046   1.922
89885W        W62310  42.077  20.084  12.542
89886W        W62311  12.654   7.657  13.425
89887W        W62312  13.482   3.440   4.617
89888W        W62313  15.106   8.633   1.213
89889W        W62314  39.104   1.726  12.031
89890W        W62315  44.084  18.901   4.194
89891W        W62316  25.791   8.677  12.087
89892W        W62317  15.736  35.043  14.310
89893W        W62318  27.715  24.624   3.088
89894W        W62319  15.019  43.946  11.907
89895W        W62320  17.396  24.044   3.755
89896W        W62321  25.008  18.167  14.795
89897W        W62322  21.692  38.943  11.767
89898W        W62323   2.606  19.169   4.892
89899W        W62324  24.200  12.643   0.778
89900W        W62325   8.962  24.419   4.495
89901W        W62326  12.180  40.090   0.694
89902W        W62327  20.065  26.498   4.219
89903W        W62328  25.965  27.656   1.993
89904W        W62329   2.813  43.485   3.088
89905W        W62330  38.370  27.245  12.590
89906W        W62331   0.402  31.520  13.737
89907W        W62332   4.918  43.201   3.555
89908W        W62333  20.929  30.850   0.259
89909W        W62334  44.396   0.753   2.258
89910W        W62335  26.602   0.799   2.753
89911W        W62336  14.406   3.563  12.444
89912W        W62337   8.249  24.067  14.433
89913W        W62338  40.298  19.524   0.443
89914W        W62339  33.537  35.350  14.483
89915W        W62340  21.385  16.328   3.027
89916W        W62341  17.531  13.248   3.666
89917W        W62342  26.659  38.541   1.173
89918W        W62343  39.599  23.670   3.406
89919W        W62344  15.075  10.205   1.256
89920W        W62345   2.518  44.938  10.566
89921W        W62346   8.740  32.635   1.394
89922W        W62347  18.259  11.343   1.216
89923W        W62348  28.392   4.344  13.330
89924W        W62349  16.117  11.384   1.051
89925W        W62350  31.596   2.718   2.138
89926W        W62351  31.839  29.635   2.909
89927W        W62352  24.231   8.270   0.282
89928W        W62353  39.033  27.196   2.164
89929W        W62354  11.176  25.965  11.183
89930W        W62355  15.770   3.005   1.311
89931W        W62356  19.235  28.433  12.035
89932W        W62357  13.854  31.418   3.642
89933W        W62358   3.341  35.420  14.567
89934W        W62359  19.708  41.380   1.956
89935W        W62360  44.965  43.887   2.574
89936W        W62361  13.726  22.594   0.884
89937W        W62362   9.327  25.190   1.426
89938W        W62363   3.707  23.051  13.449
89939W        W62364   2.495  16.685   0.430
89940W        W62365  25.278  11.138   3.713
89941W        W62366  30.415  41.825  12.639
89942W        W62367  17.238  40.425   3.675
89943W        W62368  22.849  30.539  13.395
89944W        W62369  38.763  17.138   9.881
89945W        W62370   8.306  22.519   2.755
89946W        W62371  39.926  14.755   3.199
89947W        W62372  37.769   2.488  12.978
89948W        W62373  36.638   1.966   0.979
89949W        W62374  11.101  31.665  13.813
89950W        W62375  36.833  12.012   4.747
89951W        W62376  23.729  33.968  13.370
89952W        W62377  42.010  35.620   2.364
89953W        W62378  23.234   0.866   2.253
89954W        W62379  14.381  44.777   1.141
89955W        W62380  36.670   8.180   0.288
89956W        W62381  24.693  22.608  11.765
89957W        W62382  33.678  18.179  14.824
89958W        W62383  33.932  36.393  11.773
89959W        W62384   3.386  14.332   5.094
89960W        W62385  34.341  42.636   4.730
89961W        W62386  38.017  10.031  10.189
89962W        W62387   0.363   8.345   4.141
89963W        W62388  19.143   3.946   5.013
89964W        W62389  37.847  22.437  14.425
89965W        W62390  32.481  39.780  14.790
89966W        W62391   8.354   4.321  13.002
89967W        W62392  13.810  43.287  12.082
89968W        W62393  32.146   0.854   1.528
89969W        W62394  26.911  23.542  14.920
89970W        W62395  23.094   3.724   1.351
89971W        W62396  16.168  14.373  10.742
89972W        W62397  31.870   0.497  14.924
89973W        W62398  13.321   6.692   2.602
89974W        W62399  23.754  40.490  12.164
89975W        W62400  28.122   4.241  10.608
89976W        W62401  12.659  39.317  14.912
89977W        W62402  42.785  21.716  10.363
89978W        W62403  30.129  30.710   2.056
89979W        W62404  25.664  40.985   1.754
89980W        W62405  16.683  40.404  11.693
89981W        W62406  16.260  18.984  11.872
89982W        W62407  30.695  44.439  14.978
89983W        W62408  11.173  35.937   3.808
89984W        W62409  18.519  26.230  14.877
89985W        W62410  12.077  11.389  14.676
89986W        W62411   8.970   6.142   3.694
89987W        W62412  41.976  17.788  10.970
89988W        W62413  24.059  14.521  13.195
89989W        W62414  28.286   9.342  12.972
89990W        W62415   6.008  43.554   0.756
89991W        W62416  38.590  26.634   3.191
89992W        W62417  35.284  43.726  12.036
89993W        W62418  11.208  27.011  12.077
89994W        W62419   3.847  21.248   1.692
89995W        W62420   8.895  29.905  13.841
89996W        W62421  44.956  17.535  14.113
89997W        W62422  44.852  33.200  10.991
89998W        W62423  10.276  15.559  14.781
89999W        W62424  37.920  10.894   2.708
90000W        W62425   7.270  35.328  13.356
90001W        W62426  28.569  44.368  12.874
90002W        W62427  40.058   3.412   0.746
90003W        W62428  34.881  16.071  14.231
90004W        W62429  30.941  15.349   1.345
90005W        W62430   8.160   3.371  12.893
90006W        W62431  10.081  34.258  11.594
90007W        W62432   9.206   6.667   2.388
90008W        W62433   0.296   1.865  11.806
90009W        W62434  28.396  10.456  12.404
90010W        W62435  10.239  39.547   3.089
90011W        W62436  17.914  30.423   2.624
90012W        W62437  14.333  15.591   0.786
90013W        W62438  27.943   1.268   2.845
90014W        W62439   3.009  13.709   1.848
90015W        W62440   3.836  14.525   1.704
90016W        W62441   2.158  18.881  11.579
90017W        W62442  36.187  36.471  10.760
90018W        W62443  17.210   2.356  11.569
90019W        W62444  27.577   7.469  14.003
90020W        W62445  23.153  43.934  11.459
90021W        W62446  28.141   6.879  13.514
90022W        W62447  33.625  36.870  11.837
90023W        W62448   8.255  11.338   4.366
90024W        W62449  35.977   0.706  12.035
90025W        W62450  29.207   5.284   0.020
90026W        W62451   6.255  14.319   3.462
90027W        W62452  29.557  43.967   4.188
90028W        W62453  35.847  28.633  14.410
90029W        W62454   6.896  29.629  14.274
90030W        W62455  29.174  10.094   2.782
90031W        W62456  38.337  32.155  14.825
90032W        W62457  19.803  35.783  11.992
90033W        W62458  18.762   9.813   1.070
90034W        W62459  41.807  40.440  10.268
90035W        W62460  39.092  25.042   3.181
90036W        W62461  22.594   6.887   4.357
90037W        W62462  30.586  28.579   4.967
90038W        W62463  41.096  41.292  14.334
90039W        W62464  32.510  10.333  13.054
90040W        W62465  25.554  31.181  12.389
90041W        W62466   4.551   7.896   1.519
90042W        W62467  39.392   9.599  12.599
90043W        W62468   2.698  19.333   3.666
90044W        W62469  22.718  12.896  14.964
90045W        W62470   9.026   2.357   2.640
90046W        W62471  37.242  33.487  10.069
90047W        W62472  31.751  13.854  14.763
90048W        W62473  44.081   0.411   3.050
90049W        W62474   0.934  35.248   4.560
90050W        W62475   0.900  14.308   0.816
90051W        W62476  12.568  12.370  12.893
90052W        W62477  41.715  44.813   4.157
90053W        W62478   1.114  10.577  14.344
90054W        W62479  37.602  32.582   1.729
90055W        W62480  18.163  15.688  13.887
90056W        W62481  24.220  13.713  11.600
90057W        W62482  18.009   5.511   0.440
90058W        W62483  17.777  42.680  12.134
90059W        W62484  34.387   8.778  10.290
90060W        W62485  24.154  10.869  12.241
90061W        W62486  19.628   4.908   3.700
90062W        W62487   7.134  19.184  10.724
90063W        W62488  38.939  35.487   3.671
90064W        W62489  39.405  43.440  11.099
90065W        W62490  13.270   2.694  11.459
90066W        W62491  40.825   5.891   4.160
90067W        W62492  23.499   5.263   1.258
90068W        W62493  15.712  28.665   4.108
90069W        W62494  10.699  44.764  12.140
90070W        W62495  33.306   1.838   1.699
90071W        W62496  21.657   8.153  12.433
90072W        W62497  25.435   7.922  12.526
90073W        W62498  28.219  21.412   4.484
90074W        W62499  16.014   6.693   3.208
90075W        W62500  40.450  17.537   3.709
90076W        W62501  13.394  42.877   4.100
90077W        W62502   7.259  17.241  12.102
90078W        W62503  15.154  32.161  13.419
90079W        W62504  44.203  17.443   3.406
90080W        W62505  23.508  35.382  14.453
90081W        W62506  22.715  33.992  10.647
90082W        W62507  40.107   2.434  11.588
90083W        W62508  12.630   5.895   1.797
90084W        W62509  22.549   1.207   4.112
90085W        W62510  33.198  39.684   3.190
90086W        W62511  18.142  32.619   0.238
90087W        W62512  27.731  28.104   4.671
90088W        W62513  37.963  23.088   1.284
90089W        W62514  42.906  41.396   4.592
90090W        W62515  40.881   8.565   2.183
90091W        W62516  35.532   4.699   0.835
90092W        W62517  30.111  37.426   1.384
90093W        W62518  25.366  44.884  14.598
90094W        W62519  21.042   7.479  13.470
90095W        W62520  39.183  38.443  11.578
90096W        W62521  29.422   5.326  11.260
90097W        W62522  13.321  25.699   2.414
90098W        W62523   9.353   3.013   3.198
90099W        W62524  12.485  23.632   1.014
90100W        W62525  44.796  41.184   1.979
90101W        W62526  18.998   1.191   3.615
90102W        W62527  39.519  28.623   2.920
90103W        W62528  43.259  27.183   4.585
90104W        W62529  22.003  19.340   2.191
90105W        W62530  23.294  43.376   1.719
90106W        W62531   4.963  43.294   2.314
90107W        W62532  12.252  32.179  12.499
90108W        W62533   6.698  21.029   1.245
90109W        W62534  24.390  14.449  10.372
90110W        W62535  14.752  35.257  10.189
90111W        W62536  19.038  35.471  14.467
90112W        W62537  26.143  42.876  13.812
90113W        W62538  17.322  39.029   1.792
90114W        W62539  41.290  25.776  13.773
90115W        W62540  38.233   3.367   0.415
90116W        W62541   5.829  30.052  11.528
90117W        W62542  24.027  11.883  14.713
90118W        W62543   3.877  13.784  12.059
90119W        W62544  32.143  33.894  10.816
90120W        W62545   7.232  32.454  14.922
90121W        W62546  15.709  13.624   1.170
90122W        W62547  13.961  30.478   0.930
90123W        W62548  38.407  12.387   0.855
90124W        W62549  33.018  35.915  13.388
90125W        W62550  38.555  43.452  10.642
90126W        W62551  43.383  12.999   4.513
90127W        W62552  29.282  38.496   9.838
90128W        W62553  38.373   6.258  11.159
90129W        W62554  35.865   4.749  14.429
90130W        W62555  21.857  29.648   0.864
90131W        W62556  21.046   7.695   4.031
90132W        W62557  36.342   2.659  11.915
90133W        W62558  42.570   5.991  11.500
90134W        W62559  28.594   6.772   1.303
90135W        W62560   5.464  34.562   4.497
90136W        W62561  39.177  27.573  11.563
90137W        W62562   6.080  13.230   1.401
90138W        W62563  33.538  22.948   0.336
90139W        W62564  31.398  37.484   4.534
90140W        W62565  17.514   5.719  13.851
90141W        W62566   7.440  37.779  14.864
90142W        W62567   3.354  25.590   1.502
90143W        W62568  12.901  37.603  13.586
90144W        W62569  27.633  20.029   4.627
90145W        W62570  34.794  10.745   4.432
90146W        W62571  27.190  25.508   4.115
90147W        W62572  27.060  24.483   0.318
90148W        W62573  21.873  22.944  14.446
90149W        W62574   0.541  14.584  11.360
90150W        W62575   7.920  28.745  11.146
90151W        W62576   4.677  24.991   1.740
90152W        W62577  16.442  32.212  10.108
90153W        W62578  12.788  36.444  13.357
90154W        W62579  42.228  36.955  12.183
90155W        W62580   8.655  28.656   3.249
90156W        W62581  20.232  23.080  12.634
90157W        W62582   0.435   6.448  14.576
90158W        W62583   0.851  29.461   1.273
90159W        W62584  36.474  24.167  11.051
90160W        W62585   7.499  38.839  10.620
90161W        W62586  43.841  11.874   0.332
90162W        W62587  18.307  25.618  12.876
90163W        W62588  37.900   8.477   0.885
90164W        W62589  21.203   6.391   3.686
90165W        W62590   2.035  44.792  12.124
90166W        W62591  20.607  18.225  12.649
90167W        W62592   4.140  32.152   4.100
90168W        W62593  43.611  32.160   4.621
90169W        W62594  33.290  13.777   3.112
90170W        W62595   8.095  20.380  13.059
90171W        W62596   5.477  18.362  11.149
90172W        W62597   6.781   8.283  11.250
90173W        W62598  22.680  31.744   2.885
90174W        W62599  11.388  37.857   0.926
90175W        W62600  21.571   5.516   3.240
90176W        W62601   6.244  11.589   2.273
90177W        W62602  28.983  25.171  14.727
90178W        W62603   6.656  21.565  12.999
90179W        W62604  25.319   8.827  11.269
90180W        W62605  36.918  40.339  14.545
90181W        W62606  12.653  11.550   3.742
90182W        W62607  12.886  32.944  13.232
90183W        W62608  27.234  21.722  12.318
90184W        W62609  35.536  27.576   3.210
90185W        W62610  19.751  15.420  12.613
90186W        W62611   1.260  42.161  12.112
90187W        W62612  13.641  18.036   3.674
90188W        W62613  41.898  22.905  13.615
90189W        W62614   0.887  31.418  12.060
90190W        W62615   5.807  16.390   2.776
90191W        W62616  34.369   6.802  13.541
90192W        W62617  19.111  38.452   1.795
90193W        W62618  41.929  40.241   3.709
90194W        W62619  16.466  42.271   0.971
90195W        W62620  16.666  23.395  13.555
90196W        W62621  18.956  35.911   0.293
90197W        W62622   1.004  38.981   4.534
90198W        W62623  20.983  27.044   1.859
90199W        W62624  22.056   1.327   2.823
90200W        W62625  39.090  37.521  13.718
90201W        W62626  42.804   0.721  10.684
90202W        W62627   8.245  19.048  14.773
90203W        W62628  29.012  26.050   0.233
90204W        W62629  10.330  38.466  11.936
90205W        W62630  18.061   1.182  11.551
90206W        W62631   7.657  40.921   2.256
90207W        W62632  43.838  21.147  10.830
90208W        W62633  14.178  44.475  12.176
90209W        W62634  12.364  30.206  11.622
90210W        W62635  21.146  32.103   2.360
90211W        W62636  26.560  14.151  11.204
90212W        W62637   3.255  18.836  10.782
90213W        W62638  31.534  38.796   0.172
90214W        W62639  36.909  42.464  12.917
90215W        W62640  26.237  30.171   5.084
90216W        W62641  13.678   7.011   0.030
90217W        W62642  33.598  42.850  14.004
90218W        W62643  31.341  21.479  11.509
90219W        W62644  28.284  32.094  14.718
90220W        W62645   8.619  30.269   1.629
90221W        W62646   5.975   3.307  14.997
90222W        W62647   3.862  11.787  10.694
90223W        W62648  24.162  17.271   4.534
90224W        W62649   8.845  24.969  12.192
90225W        W62650  12.044   0.744   2.340
90226W        W62651  14.156  12.600  13.380
90227W        W62652   9.945   5.954  13.391
90228W        W62653   5.776  43.251   0.394
90229W        W62654  10.220  16.043  14.050
90230W        W62655   5.694  12.852   2.715
90231W        W62656  19.241   6.688   2.598
90232W        W62657  10.541  13.171   4.089
90233W        W62658  23.550  20.262   1.354
90234W        W62659  39.018  12.402   3.446
90235W        W62660  17.690  35.894  10.870
90236W        W62661  16.024  28.988  10.266
90237W        W62662  11.628  18.788   1.919
90238W        W62663  44.959  10.568  12.939
90239W        W62664  20.610  33.376   0.906
90240W        W62665  12.273  32.417  13.088
90241W        W62666   7.913  38.027  14.953
90242W        W62667  22.564   7.181   2.004
90243W        W62668  31.953  32.979   2.989
90244W        W62669  39.605  25.946  11.841
90245W        W62670  14.831  31.687   2.155
90246W        W62671  17.187  31.514  11.002
90247W        W62672  14.574  42.965   0.887
90248W        W62673  41.441  35.490   3.831
90249W        W62674  10.303   3.415   4.127
90250W        W62675  12.405   8.386   3.668
90251W        W62676  30.834   6.307   5.110
90252W        W62677   3.609  26.679   4.943
90253W        W62678  15.063   3.988   0.440
90254W        W62679  12.167  25.487   2.750
90255W        W62680  43.572   7.069   2.652
90256W        W62681  35.551  34.554  10.646
90257W        W62682  15.727  23.492   1.783
90258W        W62683  17.793  31.524   2.757
90259W        W62684  27.099  31.085   9.905
90260W        W62685  29.321  20.261  14.783
90261W        W62686  18.122  25.000   1.843
90262W        W62687  21.599  23.821  14.030
90263W        W62688  17.633   3.554   3.839
90264W        W62689  28.178  40.567  13.507
90265W        W62690  38.049  14.558   2.392
90266W        W62691  30.932  23.128   1.420
90267W        W62692  39.439  28.083   3.609
90268W        W62693   0.189  30.220  10.768
90269W        W62694  10.467  40.544  10.745
90270W        W62695  10.857  23.970  14.393
90271W        W62696  16.173   7.520   3.662
90272W        W62697  33.786  34.392   3.199
90273W        W62698   5.500  43.524  13.026
90274W        W62699  24.413  31.033   3.364
90275W        W62700  30.031  24.098   4.848
90276W        W62701  19.167   8.734  11.472
90277W        W62702  33.204  34.372  13.447
90278W        W62703  20.507   9.979   4.547
90279W        W62704  35.694  25.794  12.461
90280W        W62705  28.659  31.641  11.161
90281W        W62706  26.777  10.470   3.316
90282W        W62707  35.880  10.471   1.199
90283W        W62708   6.489  17.226   2.421
90284W        W62709  13.699  39.767  10.765
90285W        W62710  16.667  14.261  10.678
90286W        W62711  41.950   2.019  13.415
90287W        W62712   4.027  31.589  13.577
90288W        W62713  38.851   0.343  11.239
90289W        W62714  26.469  36.866  13.875
90290W        W62715  15.714  40.716  13.813
90291W        W62716  11.196  10.714   1.685
90292W        W62717   4.200  24.226   0.309
90293W        W62718  31.882  13.550  12.881
90294W        W62719  32.825  22.024  10.746
90295W        W62720  43.761   7.874   2.886
90296W        W62721  14.838   9.904  11.717
90297W        W62722  14.644  20.672  12.085
90298W        W62723  20.253  31.159   1.817
90299W        W62724  41.907  43.011   3.415
90300W        W62725  32.224  33.445   0.707
90301W        W62726  21.334  16.143   2.551
90302W        W62727  13.698  20.540  13.346
90303W        W62728  41.318   6.766  12.658
90304W        W62729   5.939  29.419  10.352
90305W        W62730  10.206  18.981   1.273
90306W        W62731  26.507  43.059   3.706
90307W        W62732  17.109  43.143  10.287
90308W        W62733   3.373  26.643  13.969
90309W        W62734   6.664   0.960  13.525
90310W        W62735  18.595  10.893  13.635
90311W        W62736  12.394  27.545  11.090
90312W        W62737  22.440  15.564   4.201
90313W        W62738  13.585   9.189   3.579
90314W        W62739  26.059  32.691   2.777
90315W        W62740  19.103   7.114   2.846
90316W        W62741  16.769  40.711   1.945
90317W        W62742  13.289  38.513   2.466
90318W        W62743   0.760  23.264   1.589
90319W        W62744   6.804  16.176  10.719
90320W        W62745   5.456  28.424   1.750
90321W        W62746  29.350  29.443   2.786
90322W        W62747  17.000   6.391   5.083
90323W        W62748  39.932  44.956  11.366
90324W        W62749   0.343  26.575   0.355
90325W        W62750  15.301  16.630  14.993
90326W        W62751  42.325  22.153  14.529
90327W        W62752  18.143  10.650   4.145
90328W        W62753   5.508  12.017  14.858
90329W        W62754  42.045  12.816   3.927
90330W        W62755  34.364  36.595  11.531
90331W        W62756   3.387  13.935   3.985
90332W        W62757  44.666  19.658  12.077
90333W        W62758   3.282  28.973  14.364
90334W        W62759   1.028  10.975  12.042
90335W        W62760  27.201   7.225   0.874
90336W        W62761  14.226  16.248   0.995
90337W        W62762  39.237  33.426   2.838
90338W        W62763   6.642  31.471  14.310
90339W        W62764  44.230  28.022  12.016
90340W        W62765  29.023   3.140   4.318
90341W        W62766  12.803   0.331  13.016
90342W        W62767   5.505  24.026  14.861
90343W        W62768  34.883  35.620   3.238
90344W        W62769  28.256  40.052  13.335
90345W        W62770  38.333  44.507   4.126
90346W        W62771   4.686  29.526   3.654
90347W        W62772  34.907   7.644   2.226
90348W        W62773  42.547   9.274   4.342
90349W        W62774   8.768   6.879  13.398
90350W        W62775  19.485  43.863   0.758
90351W        W62776  18.279  20.116  11.181
90352W        W62777  19.235   1.195   2.279
90353W        W62778   3.115  15.256   4.802
90354W        W62779  41.151  20.752  10.255
90355W        W62780   0.346  19.082  12.386
90356W        W62781  30.566  40.528  11.407
90357W        W62782   8.968   2.375   0.819
90358W        W62783  39.367  38.784  11.938
90359W        W62784  29.021  43.350   1.384
90360W        W62785   8.387  20.079  14.799
90361W        W62786  13.083  13.688  10.644
90362W        W62787  43.797  15.263   2.843
90363W        W62788  40.585  29.184  13.820
90364W        W62789   6.142  18.372  13.041
90365W        W62790  17.613  27.567   4.155
90366W        W62791  41.388  32.854  11.531
90367W        W62792   5.868  24.697   2.174
90368W        W62793  43.739  34.826   5.190
90369W        W62794  27.148  25.345   1.563
90370W        W62795  17.372  11.914  12.773
90371W        W62796  20.561  10.325   9.787
90372W        W62797  34.397  21.880  10.543
90373W        W62798  26.627  11.316  12.628
90374W        W62799  29.263  23.681  11.562
90375W        W62800  18.545  36.153   3.827
90376W        W62801   0.575  25.441  11.142
90377W        W62802  11.145   0.331   3.740
90378W        W62803   1.488   7.369  14.104
90379W        W62804  35.902  37.013  12.553
90380W        W62805  35.277  44.019   2.809
90381W        W62806  27.492   2.240  12.027
90382W        W62807  33.971  19.634   2.338
90383W        W62808  42.435  31.749   2.533
90384W        W62809  39.600  22.009   3.620
90385W        W62810   5.936  20.544  10.401
90386W        W62811  32.962  29.703   2.425
90387W        W62812  42.222  17.242   4.994
90388W        W62813  26.187  24.472   1.491
90389W        W62814  17.093  14.482   5.013
90390W        W62815  43.887  37.480   4.022
90391W        W62816  21.280  43.229   0.828
90392W        W62817  27.017  31.302   1.095
90393W        W62818  30.577  18.578   2.788
90394W        W62819  32.145  39.732  11.118
90395W        W62820  27.819  18.138  11.412
90396W        W62821  37.106  22.601   3.155
90397W        W62822  44.457  28.049   0.904
90398W        W62823  33.603  35.551   3.662
90399W        W62824  21.615  14.644  12.793
90400W        W62825  29.931  21.116   2.217
90401W        W62826  37.726  28.241   4.659
90402W        W62827  34.780   7.442  14.843
90403W        W62828  29.390  20.936   1.263
90404W        W62829  18.647  32.416  10.743
90405W        W62830  18.008  32.744   1.134
90406W        W62831  26.509  36.152   2.795
90407W        W62832   4.740  21.284  12.467
90408W        W62833  22.502  29.112   0.343
90409W        W62834  39.586  15.616  14.721
90410W        W62835  37.075   5.167   3.311
90411W        W62836  33.831  23.285  12.682
90412W        W62837  31.401  30.682  11.036
90413W        W62838   0.190  38.340   4.577
90414W        W62839  26.584  44.357  12.557
90415W        W62840  33.591  36.397   3.209
90416W        W62841  12.190   0.756  12.368
90417W        W62842  35.156  42.601   1.755
90418W        W62843  10.835  36.863   0.339
90419W        W62844   8.677  25.078  11.237
90420W        W62845  18.380  39.058   1.761
90421W        W62846  33.813  16.461  10.381
90422W        W62847  39.121  26.670   3.144
90423W        W62848  39.345  34.639   1.092
90424W        W62849  33.446  10.409  14.919
90425W        W62850  23.232  35.478   0.053
90426W        W62851   3.891  25.944   4.284
90427W        W62852  32.558  18.091  10.626
90428W        W62853   0.313  10.763  12.128
90429W        W62854  37.463  25.690   1.753
90430W        W62855  22.585  27.578  12.953
90431W        W62856  19.217  11.610  10.668
90432W        W62857  23.513  27.642  10.723
90433W        W62858  42.339  26.747  13.733
90434W        W62859  17.761  42.184  12.196
90435W        W62860  41.127  21.724  12.502
90436W        W62861  41.850  10.423   9.952
90437W        W62862   0.916  24.867   3.164
90438W        W62863  15.713  24.568   2.878
90439W        W62864  44.907   1.374   3.254
90440W        W62865   0.463  15.127   2.816
90441W        W62866  24.872  18.708  11.709
90442W        W62867  14.194  15.575   3.089
90443W        W62868   9.188  34.832   4.587
90444W        W62869  36.953  30.211  12.820
90445W        W62870  33.326  29.151   3.759
90446W        W62871  30.936  30.507  11.139
90447W        W62872  44.701   3.835   1.820
90448W        W62873  42.263  31.973  14.744
90449W        W62874  14.809  12.920   4.195
90450W        W62875  23.156  27.515   1.325
90451W        W62876   7.764  35.612   3.354
90452W        W62877   5.695  26.204   4.964
90453W        W62878  19.255  41.547  10.692
90454W        W62879  38.574   3.771   1.757
90455W        W62880  21.642   1.497  12.546
90456W        W62881  23.221  35.432   2.423
90457W        W62882  21.787  22.726   1.335
90458W        W62883  13.041  15.988  13.847
90459W        W62884  42.429  25.071  11.520
90460W        W62885  22.779  19.523   2.341
90461W        W62886   4.119  30.649   2.333
90462W        W62887  33.867  13.704  13.487
90463W        W62888  36.147  44.911   2.499
90464W        W62889  28.107  40.223  10.322
90465W        W62890   7.688  12.648  12.802
90466W        W62891  27.885   0.759  12.818
90467W        W62892  39.033   7.926  11.899
90468W        W62893  10.260  32.031  14.855
90469W        W62894  24.666   3.176   2.800
90470W        W62895  36.702  21.973   0.375
90471W        W62896  44.740  35.178   3.240
90472W        W62897  37.010  15.130  13.416
90473W        W62898  42.486  25.047   2.012
90474W        W62899  14.105  21.166   4.107
90475W        W62900  29.648   5.311  14.733
90476W        W62901   6.800  23.691  11.503
90477W        W62902  32.881  31.114  11.989
90478W        W62903  10.622   4.204   0.677
90479W        W62904  29.031  23.224   2.917
90480W        W62905  23.420  28.178   4.889
90481W        W62906   4.696  35.072   3.327
90482W        W62907  35.591  32.047  11.759
90483W        W62908  25.470  15.987   2.047
90484W        W62909  35.599  33.864  12.902
90485W        W62910  41.714   2.289  12.501
90486W        W62911  34.050  21.609  14.918
90487W        W62912  35.758  12.762  14.166
90488W        W62913  15.204   7.584  12.919
90489W        W62914  34.928  13.614  14.315
90490W        W62915   7.512  21.022   4.500
90491W        W62916  26.417  44.011   4.611
90492W        W62917  15.646  20.210   4.440
90493W        W62918  26.697  23.646  11.223
90494W        W62919   5.152  15.128   1.359
90495W        W62920   6.122  37.093   1.704
90496W        W62921  31.157  24.572   1.366
90497W        W62922  11.445  24.111   4.076
90498W        W62923  43.364  17.728   1.515
90499W        W62924  11.921  42.432  12.382
90500W        W62925  40.573  36.846   3.709
90501W        W62926   0.472  28.901  13.388
90502W        W62927   9.954  14.193   4.281
90503W        W62928  10.909   8.720   1.250
90504W        W62929   0.978   7.267  14.873
90505W        W62930   0.517  14.570   2.906
90506W        W62931  18.274  32.157  10.438
90507W        W62932  13.659  34.990  10.493
90508W        W62933  31.486  20.507   3.577
90509W        W62934  28.649  42.992   1.396
90510W        W62935   5.183  20.481  14.197
90511W        W62936  31.601  15.583  13.832
90512W        W62937   3.119  11.190  14.053
90513W        W62938  24.524  34.138   2.428
90514W        W62939  18.089  29.988  13.646
90515W        W62940  42.323   9.657  10.611
90516W        W62941  24.439   1.900   2.370
90517W        W62942  15.345  18.689  12.392
90518W        W62943  31.988  30.554  13.102
90519W        W62944  43.545  44.764  11.882
90520W        W62945  12.858  43.751   4.140
90521W        W62946   9.681  39.340   1.311
90522W        W62947  20.575  16.846   2.880
90523W        W62948  16.701  24.485  11.924
90524W        W62949  15.561   4.375  13.626
90525W        W62950  41.405  34.650  12.052
90526W        W62951  32.469   7.185   2.380
90527W        W62952   4.855  14.222  11.581
90528W        W62953  16.533  18.561   0.811
90529W        W62954  22.617  34.169   2.786
90530W        W62955  12.301  15.143   0.980
90531W        W62956   4.880  43.982  12.467
90532W        W62957  22.236  17.529   1.925
90533W        W62958  10.308  29.145  12.087
90534W        W62959  24.992  28.065   2.861
90535W        W62960  32.547  17.112   4.245
90536W        W62961   9.933  13.051   3.216
90537W        W62962  39.823  23.714  14.080
90538W        W62963  10.386  18.494   1.330
90539W        W62964  16.693  30.566   0.706
90540W        W62965  39.946  16.092  11.922
90541W        W62966  24.914  36.936  11.603
90542W        W62967  29.167  28.250   0.412
90543W        W62968  43.855  16.035  14.057
90544W        W62969   0.698  26.635  12.110
90545W        W62970  32.675  34.823  11.706
90546W        W62971  41.285   8.930   3.393
90547W        W62972  15.558  26.838  13.817
90548W        W62973  21.629  23.484  13.112
90549W        W62974  26.926  19.246  10.661
90550W        W62975  41.373  43.603  14.839
90551W        W62976   8.664  14.619  11.028
90552W        W62977  10.150  41.853  13.783
90553W        W62978   9.238  15.815   1.020
90554W        W62979  17.039  11.861  14.481
90555W        W62980   9.906  31.123  12.440
90556W        W62981  21.941  44.823   3.504
90557W        W62982  27.722   1.477  14.360
90558W        W62983  17.217   8.732  10.676
90559W        W62984  35.111  26.621  11.950
90560W        W62985  21.249  34.962  10.518
90561W        W62986  44.485  34.964   3.728
90562W        W62987  30.082   5.618  14.459
90563W        W62988  38.402  44.913  13.066
90564W        W62989  43.349  27.488  13.624
90565W        W62990  27.551  40.403   0.735
90566W        W62991   5.908  41.341   4.305
90567W        W62992  16.022  32.459  14.070
90568W        W62993  41.957  28.280  13.942
90569W        W62994  24.459  29.045  11.369
90570W        W62995  31.120   2.808  14.245
90571W        W62996   3.406  25.226   3.084
90572W        W62997  30.641  23.313   5.167
90573W        W62998   4.942  33.286   0.954
90574W        W62999  17.600  12.502   4.615
90575W        W63000   8.879  21.164  10.699
90576W        W63001  41.568  23.876  13.741
90577W        W63002   5.384  41.395  11.146
90578W        W63003   4.563  36.497  11.090
90579W        W63004  32.160  14.593   2.277
90580W        W63005   5.802  17.806   0.953
90581W        W63006  29.520  35.899   0.076
90582W        W63007  29.209  28.275   3.120
90583W        W63008  26.575  31.535   3.079
90584W        W63009  16.032  16.797   0.402
90585W        W63010  25.426  38.374  14.768
90586W        W63011  35.833  42.534   4.199
90587W        W63012   7.898  15.683  11.210
90588W        W63013   7.642   5.616   4.595
90589W        W63014   3.660  18.693   4.165
90590W        W63015  34.907   2.406   1.973
90591W        W63016   8.237  44.908  13.474
90592W        W63017   2.807  34.787  14.011
90593W        W63018  31.012  40.748   1.327
90594W        W63019  13.142  33.349  13.009
90595W        W63020   9.134  27.510  14.447
90596W        W63021  26.210  38.630  13.578
90597W        W63022  37.335  16.237   3.614
90598W        W63023  20.571  14.111   2.472
90599W        W63024  40.282  40.073  13.131
90600W        W63025   2.699   1.880   3.743
90601W        W63026  11.476   8.867  13.803
90602W        W63027  39.928   9.221   0.165
90603W        W63028  16.568  14.661  14.506
90604W        W63029  19.752  25.040   4.177
90605W        W63030  32.306  30.062  11.899
90606W        W63031  24.192  35.987  13.388
90607W        W63032  17.745  29.685   4.192
90608W        W63033  16.728  29.110   2.683
90609W        W63034  31.019  12.602   1.337
90610W        W63035   2.859  22.999   4.250
90611W        W63036  35.388   2.738  14.054
90612W        W63037   4.845  35.501  14.328
90613W        W63038  24.551  32.214   0.959
90614W        W63039  41.800  30.974   1.233
90615W        W63040  38.319  36.766  12.167
90616W        W63041  44.326  34.019   4.930
90617W        W63042  14.852  25.411  12.426
90618W        W63043   5.625  28.637   4.462
90619W        W63044   1.231  27.252  14.014
90620W        W63045   3.639   6.599   4.522
90621W        W63046  26.187  22.590   2.212
90622W        W63047  28.957  31.165   2.911
90623W        W63048   7.346  15.326  14.227
90624W        W63049  33.508  16.259  10.877
90625W        W63050  26.393  36.213  12.437
90626W        W63051  20.601  17.296   1.391
90627W        W63052  29.034  13.150   2.782
90628W        W63053  24.068  19.064   3.577
90629W        W63054  16.696  27.396  14.878
90630W        W63055   4.311  38.580   4.834
90631W        W63056  29.790  14.597  14.394
90632W        W63057  31.132  29.585   4.269
90633W        W63058  19.114  42.565  13.058
90634W        W63059  33.533   7.284  11.410
90635W        W63060   3.771  44.181   0.058
90636W        W63061  32.219  26.434  13.418
90637W        W63062  10.336  30.698   2.711
90638W        W63063   5.217   1.709  14.873
90639W        W63064  41.446  28.894  13.787
90640W        W63065   4.437  16.006   0.338
90641W        W63066  10.293  38.369   4.418
90642W        W63067  37.867  33.210   0.495
90643W        W63068   0.215  19.640   2.650
90644W        W63069  33.692  30.355  10.466
90645W        W63070  38.121  44.246   2.862
90646W        W63071  20.776  38.363   0.605
90647W        W63072   0.303  23.655   2.939
90648W        W63073   3.830  29.836  14.757
90649W        W63074   4.321  41.876   1.435
90650W        W63075  25.666  10.627   0.116
90651W        W63076   2.741  44.010   0.888
90652W        W63077  20.530   7.652  12.138
90653W        W63078  11.506  40.106   3.656
90654W        W63079  13.308  36.047  14.094
90655W        W63080  33.831  42.719   4.595
90656W        W63081  17.392   0.323  10.741
90657W        W63082   3.434  31.859   2.615
90658W        W63083  44.973  26.477  14.905
90659W        W63084  41.265   0.969  12.419
90660W        W63085   8.620   8.757   4.830
90661W        W63086  31.408  17.999  14.433
90662W        W63087   9.146  15.236   3.743
90663W        W63088   2.160  23.598  13.856
90664W        W63089   6.014  20.591   3.402
90665W        W63090  10.841  18.594  11.229
90666W        W63091  41.825   0.213   4.763
90667W        W63092  23.590  37.911  11.100
90668W        W63093  14.144  24.763  10.139
90669W        W63094   1.126  44.409   1.243
90670W        W63095   1.250  28.258  11.819
90671W        W63096  25.085  38.824   3.167
90672W        W63097  41.633  29.018   0.913
90673W        W63098  41.901  27.422   1.100
90674W        W63099  11.551  41.026   1.159
90675W        W63100   0.475  20.200  11.863
90676W        W63101   4.142  16.082  13.452
90677W        W63102  17.948   4.774   0.639
90678W        W63103  12.355  21.094   3.024
90679W        W63104  28.382  29.526  12.591
90680W        W63105  29.077  16.163   0.928
90681W        W63106  15.253  20.022  13.861
90682W        W63107  19.532  24.648   3.726
90683W        W63108  23.159   8.669  12.879
90684W        W63109  19.959  20.030  13.091
90685W        W63110  32.716  42.780  13.449
90686W        W63111  14.344  23.865   9.651
90687W        W63112   1.326  44.215  14.961
90688W        W63113  37.126  40.342   4.124
90689W        W63114  20.159  10.179   0.415
90690W        W63115  10.906  24.074   1.807
90691W        W63116   2.137  22.235   1.476
90692W        W63117   1.301   2.745  11.705
90693W        W63118  26.969  32.846   1.910
90694W        W63119  26.063  29.933   5.535
90695W        W63120  25.110  23.915   2.533
90696W        W63121  43.314  24.009  13.885
90697W        W63122  32.754  18.112   1.371
90698W        W63123  12.415  10.375   1.810
90699W        W63124  30.962  24.826  10.782
90700W        W63125  18.982   4.300  14.471
90701W        W63126  19.547  34.502  12.509
90702W        W63127  10.031  13.569   2.799
90703W        W63128  34.635   0.716   0.333
90704W        W63129  29.912  37.765  10.053
90705W        W63130  31.837  41.283  10.166
90706W        W63131  24.496  32.663   0.700
90707W        W63132   8.036  11.922  11.210
90708W        W63133  21.155  39.470   4.416
90709W        W63134  36.047  42.827  11.091
90710W        W63135  34.492  27.376   3.238
90711W        W63136  27.186  26.101  13.885
90712W        W63137  29.944  35.449  12.480
90713W        W63138  10.559  30.424   2.314
90714W        W63139  31.222  20.226  12.863
90715W        W63140  31.424  23.725   2.355
90716W        W63141  10.685   0.281  12.093
90717W        W63142  16.182  15.043  12.923
90718W        W63143  34.499   6.102  14.973
90719W        W63144  33.059  40.470  14.767
90720W        W63145  15.548   1.448  11.001
90721W        W63146  16.540   8.208  14.979
90722W        W63147  25.018   0.395   3.190
90723W        W63148  15.602   8.834   3.787
90724W        W63149  18.749  43.527  14.973
90725W        W63150  41.538  26.253   0.505
90726W        W63151  13.044   5.429   2.367
90727W        W63152  35.458  36.876  14.279
90728W        W63153   4.941  36.394  13.340
90729W        W63154  36.939  39.082   3.530
90730W        W63155  13.549  23.635   1.164
90731W        W63156  23.535  33.650   4.445
90732W        W63157  42.330  23.223  11.757
90733W        W63158  43.553  13.859   3.635
90734W        W63159  38.799   3.460  13.774
90735W        W63160  36.537   4.223  12.064
90736W        W63161  26.104  12.921   1.540
90737W        W63162   5.593  29.372   3.856
90738W        W63163   7.220  38.406  10.595
90739W        W63164  42.063  35.424   0.484
90740W        W63165  38.907  38.296   0.435
90741W        W63166  27.733   8.252   4.053
90742W        W63167  28.991  40.554   0.842
90743W        W63168   6.198  39.791   1.641
90744W        W63169  17.552  38.804  11.462
90745W        W63170   2.875   6.298   0.337
90746W        W63171   2.907   1.871  11.451
90747W        W63172  11.441  16.209   2.644
90748W        W63173  37.527  31.319  13.373
90749W        W63174   4.878   8.280   4.854
90750W        W63175  32.973  15.969   0.974
90751W        W63176  33.370  27.213   1.825
90752W        W63177  38.593  25.933   2.883
90753W        W63178   0.893  44.351   4.082
90754W        W63179  14.696  29.018   9.872
90755W        W63180  41.663   4.423  14.839
90756W        W63181   6.881  10.464  12.444
90757W        W63182  25.198  18.906  12.113
90758W        W63183  18.582  21.328  12.286
90759W        W63184   2.158  38.515  12.849
90760W        W63185   1.000  10.856   3.186
90761W        W63186  35.401  34.543  12.100
90762W        W63187  40.884  34.288  14.128
90763W        W63188   5.631  44.937   1.782
90764W        W63189  27.569  28.676   0.391
90765W        W63190  21.225  11.949  12.158
90766W        W63191  28.667   2.759  10.758
90767W        W63192  44.210  24.550   3.941
90768W        W63193  22.554   1.254  12.439
90769W        W63194  23.519   9.414   4.112
90770W        W63195  44.350  24.084  14.883
90771W        W63196   6.937  33.252   2.063
90772W        W63197  18.001  30.415   3.997
90773W        W63198  26.788  40.684   5.012
90774W        W63199  29.212  35.919   4.143
90775W        W63200   5.218  10.095  11.757
90776W        W63201  18.316  40.643  13.383
90777W        W63202   8.450  11.851   3.262
90778W        W63203  38.573  39.478  11.375
90779W        W63204  36.265  34.793  13.802
90780W        W63205   6.142   9.363  11.534
90781W        W63206   4.217   6.353  14.959
90782W        W63207  14.270  31.269  11.012
90783W        W63208  28.544  31.466   3.131
90784W        W63209  11.342  10.691  10.564
90785W        W63210  26.045   4.164   1.578
90786W        W63211  19.704  26.770   3.079
90787W        W63212  20.021  29.128  14.371
90788W        W63213   1.853  29.397   2.145
90789W        W63214  16.775  36.504   1.900
90790W        W63215  13.669  15.359  11.632
90791W        W63216  20.638  13.451   5.041
90792W        W63217  27.012  26.935   3.345
90793W        W63218   5.379  10.733   0.642
90794W        W63219  37.857  39.289   2.335
90795W        W63220  29.098  37.596  10.886
90796W        W63221   5.149  41.400  12.560
90797W        W63222  20.815  37.259  12.476
90798W        W63223  19.725  32.200  10.768
90799W        W63224  30.762  28.746  11.547
90800W        W63225   2.013  17.271  12.969
90801W        W63226   2.275  35.003  11.884
90802W        W63227  43.886  22.636  12.360
90803W        W63228  30.289  41.951   4.808
90804W        W63229  34.022  19.836   2.806
90805W        W63230  31.845  25.765   1.734
90806W        W63231  27.089   8.220   1.722
90807W        W63232  38.791  14.240  11.938
90808W        W63233  16.079  33.117   5.094
90809W        W63234  17.446   2.027  14.993
90810W        W63235  41.879   7.351  13.959
90811W        W63236  26.355  35.404   0.995
90812W        W63237  11.101  26.470  13.783
90813W        W63238   6.131  29.094  10.732
90814W        W63239  30.097  17.285  11.107
90815W        W63240  37.423  40.603   2.082
90816W        W63241  25.763  14.762   3.124
90817W        W63242  31.210  10.574  12.802
90818W        W63243  29.304  40.156   1.340
90819W        W63244   6.751  32.539  12.926
90820W        W63245   4.017   1.600   4.211
90821W        W63246  23.626   7.427  10.738
90822W        W63247   9.260   3.850  11.567
90823W        W63248  42.597  26.022  11.132
90824W        W63249  25.270  31.378  11.994
90825W        W63250  23.738  35.370   2.336
90826W        W63251   4.470  39.820   0.875
90827W        W63252  16.577  41.810  13.779
90828W        W63253   1.548  31.610   2.118
90829W        W63254   7.720   8.321   1.960
90830W        W63255  26.515  22.222   2.064
90831W        W63256  11.198  43.042   0.452
90832W        W63257   3.487  21.179   0.362
90833W        W63258  22.730  22.961   3.543
90834W        W63259  44.357  25.721  10.687
90835W        W63260   9.476  40.863   4.608
90836W        W63261  41.279   7.135   0.341
90837W        W63262  10.283  32.280  12.624
90838W        W63263  41.041  37.019   2.680
90839W        W63264  39.022  23.960  13.006
90840W        W63265  14.590  23.294  11.040
90841W        W63266  41.137   9.132   4.409
90842W        W63267  43.750  36.505  14.223
90843W        W63268  17.888  10.053  11.597
90844W        W63269  18.916  33.004  10.524
90845W        W63270   5.062  40.974  11.108
90846W        W63271  18.189   9.578  11.705
90847W        W63272   4.159   9.647   4.160
90848W        W63273  33.685  29.719   4.097
90849W        W63274  11.123  32.401   2.524
90850W        W63275   3.691  27.326  13.984
90851W        W63276  32.912  18.934  12.276
90852W        W63277   7.342  37.514  14.417
90853W        W63278  16.542  28.355  12.170
90854W        W63279  21.933   7.669  13.512
90855W        W63280  24.391  37.506  12.543
90856W        W63281   9.860  36.587  13.473
90857W        W63282  44.980  35.963  14.933
90858W        W63283  42.222  15.492  14.296
90859W        W63284   1.323  27.902   1.911
90860W        W63285  30.490  19.760  12.912
90861W        W63286  18.305   9.177  13.911
90862W        W63287  22.649  25.931   4.666
90863W        W63288  38.050  27.287  14.916
90864W        W63289  15.919  33.412  13.412
90865W        W63290  36.775  39.592  13.530
90866W        W63291  41.969  16.066  12.917
90867W        W63292   3.235  20.498   3.227
90868W        W63293   1.820  44.346   4.606
90869W        W63294   7.821   2.783  11.446
90870W        W63295   0.885  15.109   2.262
90871W        W63296  43.300  34.164  12.757
90872W        W63297  32.653  33.382  14.794
90873W        W63298  16.837   6.219  12.150
90874W        W63299  32.379  25.978  10.789
90875W        W63300  32.907  30.427   3.704
90876W        W63301   3.388  19.524   0.214
90877W        W63302  30.914  38.593  11.932
90878W        W63303  39.129   6.933  10.883
90879W        W63304  33.621  37.147  14.203
90880W        W63305   7.717  43.822   0.039
90881W        W63306  24.026  26.536  12.074
90882W        W63307   5.738  25.040   3.660
90883W        W63308  28.058  20.790   1.394
90884W        W63309  36.999  33.095   3.982
90885W        W63310   3.717  43.518   2.686
90886W        W63311  18.092  14.075  11.643
90887W        W63312   1.670  11.801  14.068
90888W        W63313  44.076  32.624  10.600
90889W        W63314  22.874  39.065  13.465
90890W        W63315   5.375  33.900   1.362
90891W        W63316  28.958   0.418   3.034
90892W        W63317  15.288  10.682   0.315
90893W        W63318  25.655  21.377  11.311
90894W        W63319  17.837  29.975   3.785
90895W        W63320   9.128  25.524   3.320
90896W        W63321  40.351   4.825   2.208
90897W        W63322  28.366  29.668   2.582
90898W        W63323   6.188   5.912   3.623
90899W        W63324  20.195  37.006   4.539
90900W        W63325  27.916   1.854   4.043
90901W        W63326  40.489  14.198   3.301
90902W        W63327  33.493  26.641   1.740
90903W        W63328  28.073  33.794  13.364
90904W        W63329   2.187   8.864  14.760
90905W        W63330  32.128  18.521   5.103
90906W        W63331   3.860  29.834   1.426
90907W        W63332  15.195  11.308  10.421
90908W        W63333  30.694   4.367   2.171
90909W        W63334  42.709  13.761  14.663
90910W        W63335  18.748  10.055  11.613
90911W        W63336  34.493  36.655   0.314
90912W        W63337  29.082  19.201  13.526
90913W        W63338  36.369  34.324  10.219
90914W        W63339  35.817  43.516   0.087
90915W        W63340  33.063  12.859  10.744
90916W        W63341   8.649   6.205  12.074
90917W        W63342  16.054  36.941   1.853
90918W        W63343  24.382   6.070  11.251
90919W        W63344  20.547  44.773  14.830
90920W        W63345   9.878   2.035   1.814
90921W        W63346  19.753  17.096   4.845
90922W        W63347   4.142   6.333   1.696
90923W        W63348  10.036  33.812   3.688
90924W        W63349  22.299  17.794  11.737
90925W        W63350  16.199  30.534   0.942
90926W        W63351  44.241   8.740   2.375
90927W        W63352  41.735  12.120   4.671
90928W        W63353   4.712  41.468   1.636
90929W        W63354  22.961  44.959  14.940
90930W        W63355  19.785  36.800   1.894
90931W        W63356  12.709  38.683   3.610
90932W        W63357   6.054   0.314  12.509
90933W        W63358  20.531  12.059  13.966
90934W        W63359  32.525  34.089   2.704
90935W        W63360  41.625  14.553   0.900
90936W        W63361  20.147  38.812  13.814
90937W        W63362  15.734  33.993   2.684
90938W        W63363  41.614   7.653   3.826
90939W        W63364  22.223  19.020  12.392
90940W        W63365   6.342  31.955   1.292
90941W        W63366  26.483  22.147   0.331
90942W        W63367  12.883  20.049  12.047
90943W        W63368  33.495   2.009  11.000
90944W        W63369  23.183  22.029  13.489
90945W        W63370  36.416  14.854   0.594
90946W        W63371  11.761  34.553   2.118
90947W        W63372  27.268  39.549   0.874
90948W        W63373  33.146  28.191   4.685
90949W        W63374   6.811  16.452   4.212
90950W        W63375  20.681  41.988  10.333
90951W        W63376  12.837  41.519  11.513
90952W        W63377  32.874  10.776  11.118
90953W        W63378  17.631   7.419   1.398
90954W        W63379  40.427  36.484  10.581
90955W        W63380  36.938  37.826  11.899
90956W        W63381   9.114  17.725   1.817
90957W        W63382   2.903  19.080   2.089
90958W        W63383   2.970  36.428   3.083
90959W        W63384  18.246  18.808  13.992
90960W        W63385   2.929  43.898   3.393
90961W        W63386  35.383  33.083   4.962
90962W        W63387  20.140   0.190  10.788
90963W        W63388  40.829  22.984  12.152
90964W        W63389  27.128  31.618   0.260
90965W        W63390  31.697  23.550  14.128
90966W        W63391   2.869   6.605   4.059
90967W        W63392  40.465  38.728  13.537
90968W        W63393  28.405   1.725  10.819
90969W        W63394  27.055  29.535  14.003
90970W        W63395   7.547  34.886   0.105
90971W        W63396   7.427   2.962  14.010
90972W        W63397  20.085  20.253   1.303
90973W        W63398  21.657  19.997  13.890
90974W        W63399  33.095  16.773   1.456
90975W        W63400  28.469  42.329   4.440
90976W        W63401  12.397  23.440  12.884
90977W        W63402  32.976  22.958   4.437
90978W        W63403  29.020   9.252  13.340
90979W        W63404  38.312   5.236  12.922
90980W        W63405   1.305  18.282  11.612
90981W        W63406  32.588  12.027   4.098
90982W        W63407   6.011  34.540  13.039
90983W        W63408  37.406  38.029  10.636
90984W        W63409  35.593   1.563   1.408
90985W        W63410  13.867  36.830   3.663
90986W        W63411  38.084  31.748  10.860
90987W        W63412  36.549   0.088  11.625
90988W        W63413  36.464  11.550  11.581
90989W        W63414  37.347  26.607  10.613
90990W        W63415  11.702  32.828   1.244
90991W        W63416  13.539  42.768  11.192
90992W        W63417  11.591  18.308   5.045
90993W        W63418  38.237  11.678   4.862
90994W        W63419  33.823  31.607  12.827
90995W        W63420  39.998  43.897   3.801
90996W        W63421  34.556  34.347   0.955
90997W        W63422  39.841  24.384   0.715
90998W        W63423  30.487  37.086  13.312
90999W        W63424  40.871  44.241   1.833
91000W        W63425   6.311  37.938   2.186
91001W        W63426  11.507  29.593   3.596
91002W        W63427  40.491  16.239   1.647
91003W        W63428  18.378   5.267   1.965
91004W        W63429  27.999  20.434   4.553
91005W        W63430  17.882  36.648  11.109
91006W        W63431  14.883  15.552   3.294
91007W        W63432  42.527  16.562   2.273
91008W        W63433  14.147   5.319  11.625
91009W        W63434  38.965  39.284   3.677
91010W        W63435   5.261  35.390   4.245
91011W        W63436  31.437  41.657   2.641
91012W        W63437  16.851  12.783   3.253
91013W        W63438  43.789  32.368  11.065
91014W        W63439   1.315  44.536  10.944
91015W        W63440  11.269  16.944   1.367
91016W        W63441  18.701  36.586   3.630
91017W        W63442  17.112  14.990  10.586
91018W        W63443  35.873  29.438  14.281
91019W        W63444   0.204  37.162  12.388
91020W        W63445   8.394   3.905  13.995
91021W        W63446  32.629  25.522   4.176
91022W        W63447   1.993  15.125   0.252
91023W        W63448  36.607  16.957  11.081
91024W        W63449  21.327  40.553  10.696
91025W        W63450   2.631  24.683  11.052
91026W        W63451  37.985   4.574  13.917
91027W        W63452  20.550  19.826   3.704
91028W        W63453  24.686  29.022  10.532
91029W        W63454  15.406   8.896  12.203
91030W        W63455  36.598  37.858  14.059
91031W        W63456  16.533  19.258   2.687
91032W        W63457  17.669   9.354  10.890
91033W        W63458   4.670  33.059   1.315
91034W        W63459  23.047   4.273  12.893
91035W        W63460  10.693  12.719  11.421
91036W        W63461   9.529  15.288  11.883
91037W        W63462   4.870  37.428  11.996
91038W        W63463  30.058  23.669  14.911
91039W        W63464  39.949  41.775  12.202
91040W        W63465  22.908  38.091   1.860
91041W        W63466  12.255  35.720  12.274
91042W        W63467  21.681   6.736  14.314
91043W        W63468  31.734  25.696  13.497
91044W        W63469   2.531  32.876   0.560
91045W        W63470  13.658   1.469  10.131
91046W        W63471  40.905   9.558  12.674
91047W        W63472  44.628   8.374   4.569
91048W        W63473  41.329  43.039   1.488
91049W        W63474  19.546  13.681  10.723
91050W        W63475  10.460  40.916   5.115
91051W        W63476   0.990  42.589  14.309
91052W        W63477   2.762   2.187   1.910
91053W        W63478   4.536  12.163  12.081
91054W        W63479   4.563  30.614  12.756
91055W        W63480  16.844  23.045  10.515
91056W        W63481  18.717  22.673  11.198
91057W        W63482  33.495  34.689  10.402
91058W        W63483  23.221   1.382   1.271
91059W        W63484  40.979  15.219   4.233
91060W        W63485   6.417  32.541  11.698
91061W        W63486  20.178  38.790   1.224
91062W        W63487  32.467   1.427   3.068
91063W        W63488   1.889  36.150   0.285
91064W        W63489  33.775   1.409  14.411
91065W        W63490   3.794  18.395  10.998
91066W        W63491  19.629   9.910  10.566
91067W        W63492   5.945  44.923  14.007
91068W        W63493  35.813  14.476   1.185
91069W        W63494  14.844  13.144  14.773
91070W        W63495  10.397  24.279  10.751
91071W        W63496   5.531  41.815   3.693
91072W        W63497  19.747   1.065  13.558
91073W        W63498   1.529  33.006   5.106
91074W        W63499  30.990  30.535  14.389
91075W        W63500  36.769  39.959  12.824
91076W        W63501   3.981  40.859  13.944
91077W        W63502  37.780  16.134   4.625
91078W        W63503  32.700   7.983   1.299
91079W        W63504  31.936  30.706  13.612
91080W        W63505  37.263  38.778  13.052
91081W        W63506  12.231  29.481  11.951
91082W        W63507  41.025  10.380   3.764
91083W        W63508  28.335  15.636  13.822
91084W        W63509  35.039  38.302   1.412
91085W        W63510  38.621  33.037   2.743
91086W        W63511  28.542  26.574  12.419
91087W        W63512  12.629  37.891   4.096
91088W        W63513  21.842  39.086   4.839
91089W        W63514  29.163  16.484  13.482
91090W        W63515  14.582  14.647  13.843
91091W        W63516  36.480  20.205  13.348
91092W        W63517  26.274  10.326   5.031
91093W        W63518  12.329  34.659   0.400
91094W        W63519   0.946  38.130  14.956
91095W        W63520   7.085  30.527   0.903
91096W        W63521   0.550   5.626   3.754
91097W        W63522  18.710   8.231  12.910
91098W        W63523  16.754  20.155   4.598
91099W        W63524  10.518  28.710  11.573
91100W        W63525   5.166  10.121  14.042
91101W        W63526  22.012  28.996  13.025
91102W        W63527   3.795  25.152  12.104
91103W        W63528  36.995  16.097   3.981
91104W        W63529  11.366  33.988  13.432
91105W        W63530  13.373  18.140   4.501
91106W        W63531  24.738   6.911  14.348
91107W        W63532  35.652  40.214   0.819
91108W        W63533  11.343  24.082  12.699
91109W        W63534  29.927  44.832  12.603
91110W        W63535  41.920   6.260   2.850
91111W        W63536  16.311  36.068  14.805
91112W        W63537  30.985   5.641  10.501
91113W        W63538  42.006   2.652   4.089
91114W        W63539  27.634  33.377   0.365
91115W        W63540   9.837  43.406   1.046
91116W        W63541  38.366  26.521   1.082
91117W        W63542  34.708  12.507  11.155
91118W        W63543  36.392  23.401  13.981
91119W        W63544  13.358  16.762   2.231
91120W        W63545  26.487   7.967  11.543
91121W        W63546   5.191  23.604  12.717
91122W        W63547  18.853  17.128  12.389
91123W        W63548  14.110   8.417  12.894
91124W        W63549   9.676  28.331   4.001
91125W        W63550  34.484  34.703  11.983
91126W        W63551  10.881  16.906  12.021
91127W        W63552   4.330   4.731   3.914
91128W        W63553  13.675  23.539   5.060
91129W        W63554  39.395  29.493  12.178
91130W        W63555   1.476   1.888   3.215
91131W        W63556  22.024  33.746  11.350
91132W        W63557  21.544   6.879   1.366
91133W        W63558   6.752  30.463   0.452
91134W        W63559  36.379  13.799  14.820
91135W        W63560  41.417   7.777   1.249
91136W        W63561  17.651   8.395   4.385
91137W        W63562   0.472  16.147  11.454
91138W        W63563  33.117  27.412   2.825
91139W        W63564  25.583  10.472   2.954
91140W        W63565  34.298   5.225   0.047
91141W        W63566  43.921  22.061   3.587
91142W        W63567  36.516  15.318   4.878
91143W        W63568  10.688   5.278   4.162
91144W        W63569  13.866  32.531   3.828
91145W        W63570   0.336   7.393  10.547
91146W        W63571  44.040  13.934  12.600
91147W        W63572   3.690  36.376   0.909
91148W        W63573  38.747  41.568   0.341
91149W        W63574   5.217  13.709   1.349
91150W        W63575  18.568  32.129   2.219
91151W        W63576  11.053  36.027  14.271
91152W        W63577  43.914   9.098  11.038
91153W        W63578  12.409  37.179   2.748
91154W        W63579   6.792   7.288   0.232
91155W        W63580  24.800  28.369  12.479
91156W        W63581  17.567  16.023  14.916
91157W        W63582  19.612  14.891   4.181
91158W        W63583  20.616  15.535   2.661
91159W        W63584  23.012  31.456  13.449
91160W        W63585  31.841  35.119  11.462
91161W        W63586  38.488  38.358  14.373
91162W        W63587  39.315  25.925  14.283
91163W        W63588  30.953   0.739   3.780
91164W        W63589  43.437  18.939  13.075
91165W        W63590   5.535  13.246  11.204
91166W        W63591   6.205  36.373   0.380
91167W        W63592   0.820   0.987  10.558
91168W        W63593   3.007   4.828  10.657
91169W        W63594  24.748  38.194   1.853
91170W        W63595  44.499  34.079   1.844
91171W        W63596  14.652   7.268   4.116
91172W        W63597  37.059  23.691   3.406
91173W        W63598  44.436  25.662   0.678
91174W        W63599   4.380  11.536  11.203
91175W        W63600   4.349   0.193  13.469
91176W        W63601  20.860  21.169  13.955
91177W        W63602   3.431   2.311   1.304
91178W        W63603  17.705  24.158  13.004
91179W        W63604  41.126  35.577   0.772
91180W        W63605  41.040  21.389   1.614
91181W        W63606  24.999  36.267   4.371
91182W        W63607  38.352  44.657   3.238
91183W        W63608  26.551  35.934  14.757
91184W        W63609  38.216  15.553  12.556
91185W        W63610   2.851   9.158   0.840
91186W        W63611  26.892  20.649   4.785
91187W        W63612  22.124  40.802  12.301
91188W        W63613  29.865  41.372   5.555
91189W        W63614  33.092  37.935  11.692
91190W        W63615  36.825  35.354   3.352
91191W        W63616  15.047  14.172  13.134
91192W        W63617  36.300  20.948   4.239
91193W        W63618  20.463   8.601   3.299
91194W        W63619  40.913  13.656  12.072
91195W        W63620   0.379  27.511  14.432
91196W        W63621  26.869  31.816  14.746
91197W        W63622   6.748   1.979  14.914
91198W        W63623  35.550  19.652   0.739
91199W        W63624  35.362  39.787   3.729
91200W        W63625   1.587  29.613   0.006
91201W        W63626  39.594  21.620  11.598
91202W        W63627  40.583  19.814  12.939
91203W        W63628   0.728   0.976   3.743
91204W        W63629  27.709  25.604   3.217
91205W        W63630  21.313  32.951  14.040
91206W        W63631  14.752   4.184   0.812
91207W        W63632  18.708  22.934  13.941
91208W        W63633  13.214  11.730   4.642
91209W        W63634  15.207  37.473  14.967
91210W        W63635  38.709  14.824   1.878
91211W        W63636  22.937  15.272  13.149
91212W        W63637   9.191  25.727  13.721
91213W        W63638  19.416  17.587  14.695
91214W        W63639   1.998   9.513  10.722
91215W        W63640  41.713  30.398  12.940
91216W        W63641  10.655   5.406  13.012
91217W        W63642  22.034  29.596  10.670
91218W        W63643  17.194   4.848  14.449
91219W        W63644  40.409  43.915  14.977
91220W        W63645  16.276  24.677   4.042
91221W        W63646  10.702  29.523   1.516
91222W        W63647   8.861  31.578   0.306
91223W        W63648  33.059  14.536  13.097
91224W        W63649  40.089  37.216   1.812
91225W        W63650  32.984  14.835  12.664
91226W        W63651  25.016  16.289  13.299
91227W        W63652  26.983  26.434  13.517
91228W        W63653  31.208  44.705  10.981
91229W        W63654  12.829  20.783  13.855
91230W        W63655  42.759  11.807   2.215
91231W        W63656   7.426  14.063  11.766
91232W        W63657   7.472  33.408  11.492
91233W        W63658  36.952  27.956   4.092
91234W        W63659  22.274   2.080   4.050
91235W        W63660  27.938  16.220   0.314
91236W        W63661   5.330  17.129   2.609
91237W        W63662  39.826  23.368  11.227
91238W        W63663   4.778  10.839   2.192
91239W        W63664  33.084   4.253  14.747
91240W        W63665  11.252  16.826  12.634
91241W        W63666  24.149   1.007  13.981
91242W        W63667  41.401   0.829   4.146
91243W        W63668  15.350   3.896   0.931
91244W        W63669  32.900   1.021  11.529
91245W        W63670   3.446  23.410   3.501
91246W        W63671  34.663  19.916   0.445
91247W        W63672  24.528  26.841  11.199
91248W        W63673  36.493   4.212   0.305
91249W        W63674  21.652  16.542   0.539
91250W        W63675   7.841  37.051  13.003
91251W        W63676   7.451  30.363   4.179
91252W        W63677  10.164  33.343   9.958
91253W        W63678  17.073  18.486   4.540
91254W        W63679  10.209   6.134  14.477
91255W        W63680  40.630   5.181  11.253
91256W        W63681  40.275  32.122   3.639
91257W        W63682   7.328  37.478   1.649
91258W        W63683  15.357  39.013   0.386
91259W        W63684  30.124  34.603   1.418
91260W        W63685  10.190  20.043   1.287
91261W        W63686  29.869   9.309  14.400
91262W        W63687  20.221   8.871   1.224
91263W        W63688   6.147  17.452  14.004
91264W        W63689  27.504  18.507  13.864
91265W        W63690   6.335   3.895   4.339
91266W        W63691  34.327  20.152  14.816
91267W        W63692  42.952   1.954  13.524
91268W        W63693   5.677  44.567   1.410
91269W        W63694  10.563   0.463   0.702
91270W        W63695  36.658  33.089   2.166
91271W        W63696  22.932  43.807   4.068
91272W        W63697  41.462   3.880   3.142
91273W        W63698  39.329  20.045   0.947
91274W        W63699   9.614  36.457   3.833
91275W        W63700  44.704  41.769   1.315
91276W        W63701   2.228  12.271  10.935
91277W        W63702  24.786   9.265   3.068
91278W        W63703   2.499   7.846  12.972
91279W        W63704   3.733  36.377  10.751
91280W        W63705  30.788  39.185  11.682
91281W        W63706  42.866  40.238   4.948
91282W        W63707  24.750   3.720   2.780
91283W        W63708  41.198  35.083   2.367
91284W        W63709  14.282  10.198  12.456
91285W        W63710  39.376   3.936  10.617
91286W        W63711  21.815  29.460  13.750
91287W        W63712  26.236   8.865   0.415
91288W        W63713  31.003  16.509  11.997
91289W        W63714   3.516  32.045  12.562
91290W        W63715  18.863  32.969   5.007
91291W        W63716  21.152  29.603  14.357
91292W        W63717  32.942  14.405   4.224
91293W        W63718  14.565   0.441  10.899
91294W        W63719  44.470   6.003  11.486
91295W        W63720  42.994  10.331   3.935
91296W        W63721   0.025  43.268   1.504
91297W        W63722  25.171   1.429  12.394
91298W        W63723  28.838  10.676  10.630
91299W        W63724  37.279  19.311  13.037
91300W        W63725  16.575  32.227  11.789
91301W        W63726  29.845  23.330  10.146
91302W        W63727  19.713  24.041   4.404
91303W        W63728  12.766  12.358  11.916
91304W        W63729  17.699  37.574   1.694
91305W        W63730  42.588   0.865  12.638
91306W        W63731  27.892  41.542  13.430
91307W        W63732  30.382  39.654  13.749
91308W        W63733  37.481  14.936   4.666
91309W        W63734  40.992  32.512  10.695
91310W        W63735  39.547  18.778   3.685
91311W        W63736  37.939  35.791  14.848
91312W        W63737  42.945  32.187   2.794
91313W        W63738  19.018  20.171   0.429
91314W        W63739   7.755  44.728  10.561
91315W        W63740  23.486  37.965   4.434
91316W        W63741  28.155   5.836  11.514
91317W        W63742   9.569  27.863  11.120
91318W        W63743   9.257  11.704  11.067
91319W        W63744  15.783  20.730  11.700
91320W        W63745   5.423   0.278  13.649
91321W        W63746  37.695  11.707  10.179
91322W        W63747  40.643  37.390   1.694
91323W        W63748  44.469  23.190  13.560
91324W        W63749  35.918  29.019  12.086
91325W        W63750  33.956  27.959   4.504
91326W        W63751  33.531  15.315   3.141
91327W        W63752   7.341   0.829   1.347
91328W        W63753  17.541  12.596  13.399
91329W        W63754  37.337  17.619  10.750
91330W        W63755   1.529  28.581  12.135
91331W        W63756  26.020  14.835  12.888
91332W        W63757  13.172  33.592  14.889
91333W        W63758  19.712  13.764   2.783
91334W        W63759  35.648  44.779   0.220
91335W        W63760   2.310  22.326  11.708
91336W        W63761   2.775  38.813   1.698
91337W        W63762  37.259  41.081   2.047
91338W        W63763  33.373  38.679  14.946
91339W        W63764  20.969  33.881   0.876
91340W        W63765   5.185  34.324   3.629
91341W        W63766  16.485  26.534  13.975
91342W        W63767  34.094   1.890   3.656
91343W        W63768   6.789  21.636  10.738
91344W        W63769  20.053  35.633  10.568
91345W        W63770  10.353  21.054  10.716
91346W        W63771  24.957  10.160   4.570
91347W        W63772  44.356  42.449   0.260
91348W        W63773  32.463  44.059  13.613
91349W        W63774  30.176   2.362  13.950
91350W        W63775   1.475  27.033  10.588
91351W        W63776  30.203  12.799   0.401
91352W        W63777  38.140  24.237   2.281
91353W        W63778   7.340  27.246   4.546
91354W        W63779   5.891  15.150   2.436
91355W        W63780  25.794  44.851   0.079
91356W        W63781  27.409   6.856   4.249
91357W        W63782  37.772  30.986  13.883
91358W        W63783  15.788  20.057  14.550
91359W        W63784  37.756  19.096   0.749
91360W        W63785  30.959  10.280  13.968
91361W        W63786   7.253   9.798   0.430
91362W        W63787  12.317  33.604  12.776
91363W        W63788  22.599  41.153   3.249
91364W        W63789   3.466  33.575   4.171
91365W        W63790  44.967  35.675  11.963
91366W        W63791  25.962  33.390  11.019
91367W        W63792  34.828  34.847   2.183
91368W        W63793  28.960  44.326  13.832
91369W        W63794  16.362   0.399  10.730
91370W        W63795   9.205  39.368  10.595
91371W        W63796  39.477  16.522   1.879
91372W        W63797  14.035  36.018  11.133
91373W        W63798  40.859   1.940  11.592
91374W        W63799  36.084  40.065  12.601
91375W        W63800  26.636   4.183  11.406
91376W        W63801  31.436  43.785   0.329
91377W        W63802   3.255  21.095  13.554
91378W        W63803  40.551   3.154  10.275
91379W        W63804  25.674   0.949   4.654
91380W        W63805  38.227  23.276   3.150
91381W        W63806  27.946   4.767  10.077
91382W        W63807  14.274   5.643   3.744
91383W        W63808  32.580  36.191   3.212
91384W        W63809  38.449  33.302  13.930
91385W        W63810  36.833  42.133   2.887
91386W        W63811  20.146  24.563   3.837
91387W        W63812  30.438  36.788  13.779
91388W        W63813   7.465   1.298   3.712
91389W        W63814  30.465  33.770  12.368
91390W        W63815  31.835  13.390   1.825
91391W        W63816   2.664  28.030   1.410
91392W        W63817  41.461  24.932  12.657
91393W        W63818  32.836  18.170  11.917
91394W        W63819  36.140  14.109  13.003
91395W        W63820   8.110  44.791  14.955
91396W        W63821  17.631  20.780   1.471
91397W        W63822  41.063  22.709  11.377
91398W        W63823  13.242  32.405   4.241
91399W        W63824   5.804  10.688  11.540
91400W        W63825  15.618  22.721  14.176
91401W        W63826  35.104  11.870   1.337
91402W        W63827  15.560  40.983  12.481
91403W        W63828  41.075  33.605  10.579
91404W        W63829  18.368  21.215   4.538
91405W        W63830   7.193  17.697   4.404
91406W        W63831  19.603  27.698  13.059
91407W        W63832   4.788  42.422   3.725
91408W        W63833   0.487  42.494  14.414
91409W        W63834   9.900  34.079  12.050
91410W        W63835   7.561   3.833   1.301
91411W        W63836  16.728  21.544   4.029
91412W        W63837  39.156  33.470  13.539
91413W        W63838  36.757  14.200   2.622
91414W        W63839  10.787  44.994  13.378
91415W        W63840   6.579  13.590  10.761
91416W        W63841   5.864   7.018  11.127
91417W        W63842  13.916  13.764  13.858
91418W        W63843  15.078   9.711  13.897
91419W        W63844   1.317   1.808   0.417
91420W        W63845  17.521  12.313   4.144
91421W        W63846  22.040  40.337   2.692
91422W        W63847  34.384  32.691   0.287
91423W        W63848  41.678  20.055   2.201
91424W        W63849  36.265  24.315   2.027
91425W        W63850   4.423  41.439   3.089
91426W        W63851   7.593  11.210  14.870
91427W        W63852  12.765  33.700  13.039
91428W        W63853  14.869  39.411  14.981
91429W        W63854   4.214  32.121   1.327
91430W        W63855  40.309   7.761   0.763
91431W        W63856  33.569  19.314   0.944
91432W        W63857  12.299   8.388  11.476
91433W        W63858  16.239  34.947   9.648
91434W        W63859  28.127  42.613  12.564
91435W        W63860  11.645  41.953   0.974
91436W        W63861  38.822  41.288  14.231
91437W        W63862   2.880  43.833  13.584
91438W        W63863  27.100  19.855   1.293
91439W        W63864  26.699  13.084   1.283
91440W        W63865  14.233  27.880   1.796
91441W        W63866  18.312  22.310  13.894
91442W        W63867   1.535  16.609  13.295
91443W        W63868   5.410  44.431   2.816
91444W        W63869  42.314  39.036  12.064
91445W        W63870   8.143   4.433  12.553
91446W        W63871  33.242  42.394  11.494
91447W        W63872   3.896   5.270   2.202
91448W        W63873  31.437   0.883   3.902
91449W        W63874  25.341  44.749   1.682
91450W        W63875  34.936  44.361   0.288
91451W        W63876  31.535  42.903  12.980
91452W        W63877  27.464  21.332  14.298
91453W        W63878  26.756  26.111   2.831
91454W        W63879  18.094  28.812  13.124
91455W        W63880  31.918  31.625   2.886
91456W        W63881  43.609   9.389   2.582
91457W        W63882  21.434  26.028  11.435
91458W        W63883  26.025   8.448   2.197
91459W        W63884  18.963  39.491  12.750
91460W        W63885  30.000  20.379  10.773
91461W        W63886  13.936   7.684   0.493
91462W        W63887  20.238  40.908   3.295
91463W        W63888  43.047  40.100   2.634
91464W        W63889  39.109  44.929   1.814
91465W        W63890  42.387  10.203   3.186
91466W        W63891  20.218   7.879   0.737
91467W        W63892  23.302  16.260  10.527
91468W        W63893  41.772   6.182  14.866
91469W        W63894  40.313  38.625  10.422
91470W        W63895  23.921  10.093  14.329
91471W        W63896   9.786   8.875   0.673
91472W        W63897  39.480   1.449  11.652
91473W        W63898  29.783  34.646  14.578
91474W        W63899  17.526  13.398   0.444
91475W        W63900   5.533   4.782  11.334
91476W        W63901  41.932  36.608  11.899
91477W        W63902  22.995  15.561  14.775
91478W        W63903  38.497  14.617   4.363
91479W        W63904  21.479   9.196  11.162
91480W        W63905   1.427   4.796  14.345
91481W        W63906   5.013   3.187   0.069
91482W        W63907   3.462  23.521  13.468
91483W        W63908   6.769  44.782  11.987
91484W        W63909  29.452   6.268   0.250
91485W        W63910  13.590  16.178  14.319
91486W        W63911  28.940  35.880  11.251
91487W        W63912   4.601  25.537  11.778
91488W        W63913  44.726  19.753   2.827
91489W        W63914  33.493  24.089  13.036
91490W        W63915  14.715  33.813   1.830
91491W        W63916  15.226  23.150  10.685
91492W        W63917  17.749   1.237  12.979
91493W        W63918   8.473  37.013  13.713
91494W        W63919  16.098  43.095  13.096
91495W        W63920   8.414   0.973   0.507
91496W        W63921   5.140  28.494   2.595
91497W        W63922  40.893  22.102   0.796
91498W        W63923  25.964  32.621  14.933
91499W        W63924   6.938  39.122   4.236
91500W        W63925  38.442  14.207   2.420
91501W        W63926   8.178  13.390  12.829
91502W        W63927  15.299  13.619  13.198
91503W        W63928  24.626  29.619   5.520
91504W        W63929   7.730  13.425   1.996
91505W        W63930  34.164  17.205   4.577
91506W        W63931   7.898  14.524   4.618
91507W        W63932  11.352  37.914  12.528
91508W        W63933  24.863  11.757   0.324
91509W        W63934   2.722  11.916  11.994
91510W        W63935  25.759  26.181   0.835
91511W        W63936   5.722   4.623  14.014
91512W        W63937   2.833  26.604  13.843
91513W        W63938  30.519  37.889   0.877
91514W        W63939  30.943  27.021   4.186
91515W        W63940   9.357  42.844  10.289
91516W        W63941  27.400  33.991   1.430
91517W        W63942   3.036   7.700   3.722
91518W        W63943  39.950  30.884   4.409
91519W        W63944   4.882  38.353  11.013
91520W        W63945  20.182   5.404   0.922
91521W        W63946  40.407   7.427   3.203
91522W        W63947   5.402  21.260   0.758
91523W        W63948  35.199  11.100   1.713
91524W        W63949  23.512  32.656   3.306
91525W        W63950  42.466  18.833  12.434
91526W        W63951  13.582  30.092   1.987
91527W        W63952  41.777  14.033   4.083
91528W        W63953  21.489  34.206   2.319
91529W        W63954  39.624  31.870  11.697
91530W        W63955  27.239  24.742   2.890
91531W        W63956   8.928  40.530   0.841
91532W        W63957  21.907  26.925   0.919
91533W        W63958  43.516  14.152   2.325
91534W        W63959  19.015   4.702   3.092
91535W        W63960  16.604   8.328   3.165
91536W        W63961  43.871   7.641   0.082
91537W        W63962  36.025  44.897  12.415
91538W        W63963  14.123  11.236  11.978
91539W        W63964   7.248  10.390   5.056
91540W        W63965   5.890  19.696  14.873
91541W        W63966  26.292   4.931  14.133
91542W        W63967  38.818  43.519   1.526
91543W        W63968  22.218   2.884  14.352
91544W        W63969  15.122   2.490  11.646
91545W        W63970  36.581  40.011   0.377
91546W        W63971  25.927  32.100  14.798
91547W        W63972   2.523  40.465   3.662
91548W        W63973  26.111  44.508   2.745
91549W        W63974  30.973  11.591   3.603
91550W        W63975   1.475  22.391  11.576
91551W        W63976  33.680   8.083  13.532
91552W        W63977  11.250  27.534   3.865
91553W        W63978  34.900  39.486   4.401
91554W        W63979   5.836  42.740   0.487
91555W        W63980   3.527   9.174   4.218
91556W        W63981  13.695  22.088  11.367
91557W        W63982   4.256  36.456  10.679
91558W        W63983  10.368   0.376   3.136
91559W        W63984   9.188  31.614   0.835
91560W        W63985  41.949  44.023   0.736
91561W        W63986   1.063  38.153  13.517
91562W        W63987  23.608  21.366   2.521
91563W        W63988  35.329  33.892   4.311
91564W        W63989  29.147  35.553   4.637
91565W        W63990  14.120   7.770  10.684
91566W        W63991  36.536  17.533  12.101
91567W        W63992  37.026  16.561   4.180
91568W        W63993  21.332   3.447  10.383
91569W        W63994  10.643  44.558  14.528
91570W        W63995  10.455  20.122   3.794
91571W        W63996   5.301  19.665  12.465
91572W        W63997   4.985  35.053  14.553
91573W        W63998  42.288   6.146  14.957
91574W        W63999  12.216  42.346   2.145
91575W        W64000   2.482  27.484  11.485
91576W        W64001  28.632  41.870  14.839
91577W        W64002  20.820  43.770   3.891
91578W        W64003  35.710  17.787   2.579
91579W        W64004   2.230   2.898  13.510
91580W        W64005   0.933   1.228  11.399
91581W        W64006  29.502  22.094   4.792
91582W        W64007  36.801  19.056  13.811
91583W        W64008   5.620  33.588  13.001
91584W        W64009   1.895  33.585   2.809
91585W        W64010  12.765   1.636  12.010
91586W        W64011  30.551  37.525   3.630
91587W        W64012  15.886  28.913   1.332
91588W        W64013  25.003  39.845  11.115
91589W        W64014  26.249  18.831   4.561
91590W        W64015  42.612   3.532  10.044
91591W        W64016  21.087   2.457   2.468
91592W        W64017   9.800   8.173   1.931
91593W        W64018  13.071  22.655   1.820
91594W        W64019  31.079  23.770   2.772
91595W        W64020  32.815  30.598  13.725
91596W        W64021  21.023   6.888   3.746
91597W        W64022  22.083  35.361   2.899
91598W        W64023  20.960   9.292  14.472
91599W        W64024  12.349   5.730  13.859
91600W        W64025  14.316  42.940   2.455
91601W        W64026  14.090  23.288   3.725
91602W        W64027  30.098   3.012  13.435
91603W        W64028  11.239   1.533  12.061
91604W        W64029  15.680  15.838   0.523
91605W        W64030  22.601  11.393   0.360
91606W        W64031  43.390  39.405  10.443
91607W        W64032  28.611  44.272  11.457
91608W        W64033  22.313  17.186  10.682
91609W        W64034   4.874  16.782   0.399
91610W        W64035  21.682  10.373  14.523
91611W        W64036  27.041   4.644  14.380
91612W        W64037  40.250   6.771   2.402
91613W        W64038  28.996  38.527   1.335
91614W        W64039   2.520  18.022   1.901
91615W        W64040  13.305  35.822   5.049
91616W        W64041  14.907  22.612   3.304
91617W        W64042  33.049  26.343   4.590
91618W        W64043  17.961  43.377  11.514
91619W        W64044  31.643   2.244  10.679
91620W        W64045  25.893  14.571  11.571
91621W        W64046  31.889  11.554   3.747
91622W        W64047  28.682   2.784  11.655
91623W        W64048  15.653  20.778  13.007
91624W        W64049   7.894  30.924   1.247
91625W        W64050   6.555  19.491  13.422
91626W        W64051  30.546  42.180  10.650
91627W        W64052  16.902   6.351  11.286
91628W        W64053   2.240  39.649  14.511
91629W        W64054  12.392  15.731  14.017
91630W        W64055  31.594   0.525   4.293
91631W        W64056   5.173  30.602   3.625
91632W        W64057  15.188  33.102  12.579
91633W        W64058  16.638  27.079  10.963
91634W        W64059   6.201  18.273  10.733
91635W        W64060  18.010  34.465  10.590
91636W        W64061  19.874  25.055  13.563
91637W        W64062   8.614  38.631  10.127
91638W        W64063  25.771  33.658   0.617
91639W        W64064  29.160   4.751  14.297
91640W        W64065  44.993  10.111   4.047
91641W        W64066  17.315  38.089   3.618
91642W        W64067  41.051  26.609  14.319
91643W        W64068   8.876  29.622  14.300
91644W        W64069  19.640  16.795   3.383
91645W        W64070  28.965   5.621   4.100
91646W        W64071   0.394   0.719  13.238
91647W        W64072  32.104  37.233  13.097
91648W        W64073  29.008  12.806  14.797
91649W        W64074  28.596  26.048  14.061
91650W        W64075  39.859   3.368  10.770
91651W        W64076  35.838  40.906  10.855
91652W        W64077  39.886   6.251   3.268
91653W        W64078  40.029  31.969  13.803
91654W        W64079  15.671  12.224   1.614
91655W        W64080   2.017   9.501   0.125
91656W        W64081   2.418  39.281   4.294
91657W        W64082  31.009  37.371  13.494
91658W        W64083  37.550   4.514   3.188
91659W        W64084  16.345   0.495  13.061
91660W        W64085  29.647  32.454  11.541
91661W        W64086  42.079  20.205  13.121
91662W        W64087  36.925  32.992  12.675
91663W        W64088  18.028  27.924  12.010
91664W        W64089  31.602   2.836   3.180
91665W        W64090   3.935  40.416  12.486
91666W        W64091   2.996  18.519  12.457
91667W        W64092  26.943   4.848   4.132
91668W        W64093  24.858  39.977   0.984
91669W        W64094  40.358  38.908  14.024
91670W        W64095  42.412  30.008   3.866
91671W        W64096  17.297  19.320   4.073
91672W        W64097  22.724  42.898  13.980
91673W        W64098  31.884  41.886   1.380
91674W        W64099  27.194  33.111  13.248
91675W        W64100   5.884   3.911   4.654
91676W        W64101  21.950  35.344  12.013
91677W        W64102  20.244  22.830   2.244
91678W        W64103   4.217  25.116   4.927
91679W        W64104  15.748  24.073   2.738
91680W        W64105  21.212  36.954  12.619
91681W        W64106  11.074   2.132   4.565
91682W        W64107   1.484   5.002   0.808
91683W        W64108  27.614  21.272   4.616
91684W        W64109   7.985  33.390   3.197
91685W        W64110  23.497  30.480  12.656
91686W        W64111  22.144  21.688   2.762
91687W        W64112  21.163  21.846  11.431
91688W        W64113  10.671  27.597  14.156
91689W        W64114  41.292  28.541  12.204
91690W        W64115   3.450  11.426  12.077
91691W        W64116  36.758  36.016   1.958
91692W        W64117  41.850  43.959   2.584
91693W        W64118  10.425   1.349  11.526
91694W        W64119  24.096  44.979   4.673
91695W        W64120   0.115  16.374   0.299
91696W        W64121  16.617  29.390   3.677
91697W        W64122  13.084  19.708   3.067
91698W        W64123  34.482  25.120   2.129
91699W        W64124  34.139  34.631   4.433
91700W        W64125  44.753  30.156  10.389
91701W        W64126  41.192  17.227  13.543
91702W        W64127  30.184   1.490  12.946
91703W        W64128  19.058  14.632   3.202
91704W        W64129  39.803   4.942   1.426
91705W        W64130   8.612  19.349   0.358
91706W        W64131   9.417  37.828  11.175
91707W        W64132  33.425  18.655  14.914
91708W        W64133  24.434  29.546   5.021
91709W        W64134   0.531  18.691   3.133
91710W        W64135  30.856  19.082   3.247
91711W        W64136  17.109  39.046  11.435
91712W        W64137  10.436  24.601  13.576
91713W        W64138  35.574  26.300   0.165
91714W        W64139   6.322  39.805  13.054
91715W        W64140  43.820  21.560   4.358
91716W        W64141  33.751   4.028  14.206
91717W        W64142   5.837  27.546   4.143
91718W        W64143  26.640  10.588  14.408
91719W        W64144  20.243   5.922  13.474
91720W        W64145  12.786  13.871   2.147
91721W        W64146   3.490  26.034   1.762
91722W        W64147  10.886  32.387  14.090
91723W        W64148  11.414  41.909   2.703
91724W        W64149  43.600  18.530  11.159
91725W        W64150   6.517  27.891  11.959
91726W        W64151  15.332  32.663   9.767
91727W        W64152   1.934   4.716   4.357
91728W        W64153  35.147  38.472  12.588
91729W        W64154  32.147  34.496  10.297
91730W        W64155   7.205   8.892  11.878
91731W        W64156   5.635   1.386  11.565
91732W        W64157  35.914   3.002   0.461
91733W        W64158  33.074  40.980   1.758
91734W        W64159  12.784  13.857  11.486
91735W        W64160  11.630   9.941   3.694
91736W        W64161  34.717  10.137  13.864
91737W        W64162  29.585  12.999   1.314
91738W        W64163  31.037  11.048   3.649
91739W        W64164  31.029  42.623   2.831
91740W        W64165  14.525   5.607  12.020
91741W        W64166  36.380  30.386   0.424
91742W        W64167  13.249  31.164   1.405
91743W        W64168  33.088   3.733   3.123
91744W        W64169   2.393   1.824   2.452
91745W        W64170  24.580  29.606   1.281
91746W        W64171  36.260  33.399  13.498
91747W        W64172  12.382   7.855  12.387
91748W        W64173   2.010  43.882  14.417
91749W        W64174  28.353  40.652   1.105
91750W        W64175  20.312  30.659   0.447
91751W        W64176  15.722  17.230   0.344
91752W        W64177  17.393  24.859  13.471
91753W        W64178  42.352  37.644  10.519
91754W        W64179  26.032  25.301  14.193
91755W        W64180   5.516  42.838  14.232
91756W        W64181  37.107  23.989   0.017
91757W        W64182  11.413  32.469  13.981
91758W        W64183  11.022  24.634   9.699
91759W        W64184  31.361  41.733  11.436
91760W        W64185   4.629  34.740  13.444
91761W        W64186  21.041   2.393   3.667
91762W        W64187  14.860  35.985   2.671
91763W        W64188  37.464  16.990  10.811
91764W        W64189  37.394  20.332  13.254
91765W        W64190  15.191  28.299  12.463
91766W        W64191  39.245  27.200   4.085
91767W        W64192  10.798   5.280  12.077
91768W        W64193  15.012  19.205   2.986
91769W        W64194  19.750  43.363   0.950
91770W        W64195  21.576  37.009   0.979
91771W        W64196  21.068  43.796   1.707
91772W        W64197  11.191  43.734   4.591
91773W        W64198  23.112  17.172  11.657
91774W        W64199   7.394  35.572   4.670
91775W        W64200  19.093   9.568  13.235
91776W        W64201  17.076  31.481   2.461
91777W        W64202  23.121   7.479   2.180
91778W        W64203  23.838   8.493  14.943
91779W        W64204  33.635  21.697   2.823
91780W        W64205  27.331  35.886   3.273
91781W        W64206  19.490  17.317  11.584
91782W        W64207  16.231  27.980  11.649
91783W        W64208  36.090  13.428   3.223
91784W        W64209  12.483  37.447   1.191
91785W        W64210  21.740  31.661   0.925
91786W        W64211  44.945  14.121   3.772
91787W        W64212  13.323  26.055   3.711
91788W        W64213  39.989   3.451   2.209
91789W        W64214  18.532   9.793  13.856
91790W        W64215  32.558   1.486   3.574
91791W        W64216  36.903   0.085   1.873
91792W        W64217  21.205   2.293   5.000
91793W        W64218  36.521  25.673  14.372
91794W        W64219  29.680   2.517  14.851
91795W        W64220  24.616  26.638  13.860
91796W        W64221  32.136  19.172  14.774
91797W        W64222  19.608   3.837  12.109
91798W        W64223  24.270  19.749   2.507
91799W        W64224  19.640  29.877   2.432
91800W        W64225  16.005   3.377   4.656
91801W        W64226  11.313  28.646   4.492
91802W        W64227  35.074   6.639   4.014
91803W        W64228   4.385   4.207   1.761
91804W        W64229  41.330   5.946   4.368
91805W        W64230   8.851  31.161   2.841
91806W        W64231  40.270  40.411  12.014
91807W        W64232  13.942  33.338  11.138
91808W        W64233   9.311  20.087   2.218
91809W        W64234  29.058  25.705   4.729
91810W        W64235  24.561  12.361   3.123
91811W        W64236   1.182   1.801  12.099
91812W        W64237   1.495  26.158  10.684
91813W        W64238  30.587  13.320   1.228
91814W        W64239   5.154  42.276  14.199
91815W        W64240  14.849  18.238   3.288
91816W        W64241   5.384   6.944  14.686
91817W        W64242  22.613  12.223   4.133
91818W        W64243  26.148   4.264   3.348
91819W        W64244   0.433   6.846   3.270
91820W        W64245  12.429  24.017  13.995
91821W        W64246   9.808  25.063   3.177
91822W        W64247  38.352  21.096  10.585
91823W        W64248  21.298  22.661   4.015
91824W        W64249   2.847  25.174   1.372
91825W        W64250  31.543  38.976  12.351
91826W        W64251  36.973  36.882   1.840
91827W        W64252  34.618   6.405   2.640
91828W        W64253  12.801  14.554   3.056
91829W        W64254  41.434  20.227  13.816
91830W        W64255  23.820  37.444  10.416
91831W        W64256  38.963  28.419   2.840
91832W        W64257  35.634  17.135  13.943
91833W        W64258   4.762  29.870   1.580
91834W        W64259  42.312  42.705   1.342
91835W        W64260  26.198  13.305   3.250
91836W        W64261   5.163  18.107  11.489
91837W        W64262   2.632  36.684  10.824
91838W        W64263  32.894   2.368   4.660
91839W        W64264  33.976  17.748  11.639
91840W        W64265   1.773  10.696  12.419
91841W        W64266   9.412  14.221   0.813
91842W        W64267  10.182  42.477   2.280
91843W        W64268  38.764  21.967   0.223
91844W        W64269   9.232  10.748  10.646
91845W        W64270  36.607   1.723  11.955
91846W        W64271  41.042  29.423  13.845
91847W        W64272  38.236  14.374   2.857
91848W        W64273  19.275  20.058  10.885
91849W        W64274  12.864  38.301  10.797
91850W        W64275   5.704   4.743  12.440
91851W        W64276   8.186  37.906  10.532
91852W        W64277  37.613  15.704  10.687
91853W        W64278   9.783  14.300  14.477
91854W        W64279  41.562  17.018  10.790
91855W        W64280  17.712  11.738   1.724
91856W        W64281  42.235  43.076  14.862
91857W        W64282  25.266  22.545   2.244
91858W        W64283  43.214  43.474   1.237
91859W        W64284  29.095  24.013   1.166
91860W        W64285  37.428  14.783  14.017
91861W        W64286  16.619  21.036   4.036
91862W        W64287  42.046  34.435   1.363
91863W        W64288  41.057   5.749  12.194
91864W        W64289  23.016  41.708   1.210
91865W        W64290  28.475  33.569  14.428
91866W        W64291  12.553   9.327  14.592
91867W        W64292  17.551  38.399   4.504
91868W        W64293   2.983   2.425  12.601
91869W        W64294  36.432  43.490  11.573
91870W        W64295  36.416  30.555   1.358
91871W        W64296  39.891  25.210  11.506
91872W        W64297  26.184  32.362  13.936
91873W        W64298  31.377  12.153   0.799
91874W        W64299  19.951  21.067   2.759
91875W        W64300  15.512  10.798   0.769
91876W        W64301   6.294  21.113   0.259
91877W        W64302  25.176  40.892  12.382
91878W        W64303  26.909  43.551   0.915
91879W        W64304  24.473  33.501   4.276
91880W        W64305  30.591  33.912   1.071
91881W        W64306   3.538  25.612  12.163
91882W        W64307  42.759   4.769  11.524
91883W        W64308  17.194  17.589  10.561
91884W        W64309  28.625  24.159  13.904
91885W        W64310  21.725   6.279   3.767
91886W        W64311  41.545  37.598   2.854
91887W        W64312   7.792  26.980  12.479
91888W        W64313  15.633   7.211  12.325
91889W        W64314  44.853  18.596   3.333
91890W        W64315   4.097  22.809  11.638
91891W        W64316  42.226  27.559   3.244
91892W        W64317  23.236   6.213  11.058
91893W        W64318  19.244  14.014  12.132
91894W        W64319  22.664  40.075   1.943
91895W        W64320   5.193  30.669   1.441
91896W        W64321  26.026  17.690   2.705
91897W        W64322  20.481  22.922   1.417
91898W        W64323  24.714   6.954   1.750
91899W        W64324  37.074   5.853  11.199
91900W        W64325  10.200  27.071   4.543
91901W        W64326  43.271  15.191  12.070
91902W        W64327   9.641  22.145   4.321
91903W        W64328  28.470  27.081   4.671
91904W        W64329  40.332  22.586   0.336
91905W        W64330  41.215  38.139  11.851
91906W        W64331  35.603  43.416  11.678
91907W        W64332  10.333  39.824   0.910
91908W        W64333  43.239  21.965  13.911
91909W        W64334  43.662  13.899   1.430
91910W        W64335  44.303   0.311  11.100
91911W        W64336  36.597  27.079  14.275
91912W        W64337   5.940  11.838   4.611
91913W        W64338  23.050  27.892  12.984
91914W        W64339  17.660  32.008   0.809
91915W        W64340  28.885  25.213   0.801
91916W        W64341  32.815  17.941  14.355
91917W        W64342  18.017  15.397   1.066
91918W        W64343  40.107  13.148   1.425
91919W        W64344   1.475   7.291  13.076
91920W        W64345   7.548  12.407  14.434
91921W        W64346  35.575   9.338  11.179
91922W        W64347  21.188  22.457   3.081
91923W        W64348  40.054  19.152  10.497
91924W        W64349  15.475  39.452   1.766
91925W        W64350  24.239  24.808   4.572
91926W        W64351  37.436  31.067   3.304
91927W        W64352  25.522   6.279  11.645
91928W        W64353  41.941  40.227  11.604
91929W        W64354   8.746  41.202   4.194
91930W        W64355  30.658  15.121   3.094
91931W        W64356  21.918  30.156  14.369
91932W        W64357  31.682  12.585  14.604
91933W        W64358   2.716  25.644   0.689
91934W        W64359  42.474  43.171  10.654
91935W        W64360   6.579  32.479   1.170
91936W        W64361   5.626   8.360   4.180
91937W        W64362   7.104  12.053   4.558
91938W        W64363   3.578  34.506   4.622
91939W        W64364  23.913  24.876   1.444
91940W        W64365  32.261  11.065   3.206
91941W        W64366  28.413  34.923   0.226
91942W        W64367  38.987  23.108   3.587
91943W        W64368  19.293  12.914   2.879
91944W        W64369  41.342   4.494   1.848
91945W        W64370   9.125  24.112   2.342
91946W        W64371  22.492   8.186  14.797
91947W        W64372  10.149  34.570   1.335
91948W        W64373  33.681  42.499  11.732
91949W        W64374   4.961  34.017   1.644
91950W        W64375   5.989   0.532  13.001
91951W        W64376  28.585   6.454  14.671
91952W        W64377  17.341  34.870   3.232
91953W        W64378  28.785   4.929   3.199
91954W        W64379  31.408  17.286  11.865
91955W        W64380  12.597  23.362   1.450
91956W        W64381   0.724  19.455   0.392
91957W        W64382  30.056  29.587  11.952
91958W        W64383  44.351  12.827   4.166
91959W        W64384  21.068  22.304   4.318
91960W        W64385  17.330   0.044  11.518
91961W        W64386  21.286  20.835   4.156
91962W        W64387  34.059  21.002  13.201
91963W        W64388  44.214  28.799  13.406
91964W        W64389  19.616  38.771  10.740
91965W        W64390  35.816  25.946   0.456
91966W        W64391  39.872  16.337  14.347
91967W        W64392  17.830  12.751   1.719
91968W        W64393  31.968   9.238   1.914
91969W        W64394  41.460  19.673   3.660
91970W        W64395  43.033  40.462  11.772
91971W        W64396  41.746  36.170   4.485
91972W        W64397  31.100  37.040   2.037
91973W        W64398   5.378  29.807  11.360
91974W        W64399  11.467  36.362  14.135
91975W        W64400  34.031  35.590   4.079
91976W        W64401  25.379   4.977   2.878
91977W        W64402  28.185  36.504  11.522
91978W        W64403   2.227  17.838  11.497
91979W        W64404   3.244   1.841   1.491
91980W        W64405  32.124  40.647   5.044
91981W        W64406  42.229  20.483  11.375
91982W        W64407  40.900  13.105   4.298
91983W        W64408  41.621  15.759   1.881
91984W        W64409  23.598  23.773  11.648
91985W        W64410  14.393   2.170  10.841
91986W        W64411   8.475  40.423  11.061
91987W        W64412  22.116  20.017   0.798
91988W        W64413  41.057  42.699  12.614
91989W        W64414  36.476   3.170  11.969
91990W        W64415  13.685  25.123   4.476
91991W        W64416  19.931  27.291  13.039
91992W        W64417  30.491  31.539  12.130
91993W        W64418   6.889   1.917   0.880
91994W        W64419  30.005  26.679   2.343
91995W        W64420  34.925  31.814   0.353
91996W        W64421  37.458  31.610  11.557
91997W        W64422  12.260  10.301  10.877
91998W        W64423  18.743   4.220  12.011
91999W        W64424  39.659  42.406   1.033
92000W        W64425   6.368  37.041   4.519
92001W        W64426  17.055  43.755   3.171
92002W        W64427  22.701  14.323  13.352
92003W        W64428  36.557  14.808   1.135
92004W        W64429  19.681   0.197  14.319
92005W        W64430  12.856  37.969  11.783
92006W        W64431   1.016  22.790  14.260
92007W        W64432  20.350  12.034  12.014
92008W        W64433  21.009  24.275  12.978
92009W        W64434   9.702  32.559   3.112
92010W        W64435  24.066   9.020   1.373
92011W        W64436  26.909  44.231  13.811
92012W        W64437   9.579  40.032  11.551
92013W        W64438  40.916  11.876   1.080
92014W        W64439  25.130  11.830  11.698
92015W        W64440  21.259  18.959   3.271
92016W        W64441   6.881  28.016   0.758
92017W        W64442   9.834  25.123   1.180
92018W        W64443  27.545  29.218   0.394
92019W        W64444  33.049  10.088  11.686
92020W        W64445  26.955  13.115  10.810
92021W        W64446  26.065   7.194   1.935
92022W        W64447   6.142   2.169   3.380
92023W        W64448  29.226  33.932   4.607
92024W        W64449   6.240  34.038   2.898
92025W        W64450   3.272  10.559   3.646
92026W        W64451   1.378  13.196  13.395
92027W        W64452  14.719  34.532   1.472
92028W        W64453  40.296   7.005   0.395
92029W        W64454  34.524  40.583  13.395
92030W        W64455  31.197   9.170   4.329
92031W        W64456  31.689  27.755  14.338
92032W        W64457  39.516   2.354  13.340
92033W        W64458   5.220   2.377  14.304
92034W        W64459  41.488  14.226   3.172
92035W        W64460  20.672  12.562  10.469
92036W        W64461  23.803  32.795  12.720
92037W        W64462   3.883  36.357  12.284
92038W        W64463   2.430  26.460   1.242
92039W        W64464  15.337  16.311   3.977
92040W        W64465   3.065   5.695  10.657
92041W        W64466  30.126  40.501  10.261
92042W        W64467   6.352  32.684   3.452
92043W        W64468  25.066  10.976   1.926
92044W        W64469  24.069  26.892  14.766
92045W        W64470  41.479  19.798  14.958
92046W        W64471  27.901   7.344  13.371
92047W        W64472  36.412  35.652  13.700
92048W        W64473  13.143   6.328  10.963
92049W        W64474  36.589   3.784  11.131
92050W        W64475  13.734  41.191   1.905
92051W        W64476  11.221  26.102  12.608
92052W        W64477  15.714  24.870  12.608
92053W        W64478  16.604  12.813   4.300
92054W        W64479  44.469  16.299   0.922
92055W        W64480   6.476  17.058  14.018
92056W        W64481  37.824  11.005   4.238
92057W        W64482  42.974  33.697  14.816
92058W        W64483  27.894   9.837  10.060
92059W        W64484  24.958  34.370  14.703
92060W        W64485  44.769  22.967   0.356
92061W        W64486  17.154  24.142  14.675
92062W        W64487  19.116   2.366  14.861
92063W        W64488  25.374  18.711   4.063
92064W        W64489   7.289  38.325  13.420
92065W        W64490  30.428  36.857  11.978
92066W        W64491  38.273   4.870  10.778
92067W        W64492   6.461   0.238  14.364
92068W        W64493  12.022  38.943  12.973
92069W        W64494  30.577   8.424  12.925
92070W        W64495  26.592  24.834  13.058
92071W        W64496  35.354   6.658   3.586
92072W        W64497  35.500  16.781   4.833
92073W        W64498   9.265   8.586   1.359
92074W        W64499  29.092  27.998  10.878
92075W        W64500  12.765  16.096   3.583
92076W        W64501  11.764  28.923  12.460
92077W        W64502  39.223  24.942   4.989
92078W        W64503  32.653  27.208  13.457
92079W        W64504  26.718   3.542   0.306
92080W        W64505  11.134  35.788  13.299
92081W        W64506  11.870  29.403  11.585
92082W        W64507  43.898   1.821  11.273
92083W        W64508  30.140  41.837   1.681
92084W        W64509  27.982  22.714  11.123
92085W        W64510  39.123  21.399   5.274
92086W        W64511  39.986  16.753   3.943
92087W        W64512  37.846   7.133   1.245
92088W        W64513  25.678  27.952   3.371
92089W        W64514  16.687  32.051  12.270
92090W        W64515  21.046  42.488  14.026
92091W        W64516  23.526   0.467   2.758
92092W        W64517  10.794   7.550  10.951
92093W        W64518  17.176  12.551  12.952
92094W        W64519  42.823  41.546   1.362
92095W        W64520   0.494  12.369   1.788
92096W        W64521  32.474  44.610   1.175
92097W        W64522  37.648  20.622   1.880
92098W        W64523  44.271  43.897   2.166
92099W        W64524  16.418  40.279   2.412
92100W        W64525  42.580  44.993   1.854
92101W        W64526  25.096  11.866   4.001
92102W        W64527  36.485   8.922   0.416
92103W        W64528  24.250  35.946  14.320
92104W        W64529  37.725  11.504   4.295
92105W        W64530  34.952  34.320  12.096
92106W        W64531  22.071  24.869  14.786
92107W        W64532  23.608   1.962   2.910
92108W        W64533  44.955  43.161   3.650
92109W        W64534  34.800  27.365   4.572
92110W        W64535  19.275  15.859   2.339
92111W        W64536  39.273  26.202   4.686
92112W        W64537   3.246   9.853   1.077
92113W        W64538   8.277  37.867   3.681
92114W        W64539  14.190  17.518   4.568
92115W        W64540  33.398  35.233  13.138
92116W        W64541   5.899  39.523  11.154
92117W        W64542   5.637  14.720  13.303
92118W        W64543  25.540  40.013  13.450
92119W        W64544  13.323  17.811   1.337
92120W        W64545  20.269  22.925  13.467
92121W        W64546  10.707   8.436  13.485
92122W        W64547  40.904  21.662   2.589
92123W        W64548  28.522  33.105  14.677
92124W        W64549  13.624   1.447  12.381
92125W        W64550  31.097  13.731  12.841
92126W        W64551  44.468  20.264   0.761
92127W        W64552  15.867  12.106   2.639
92128W        W64553  14.291   2.806  13.118
92129W        W64554  10.239  22.386  10.191
92130W        W64555  12.052  22.471  13.806
92131W        W64556  35.628  26.540   1.654
92132W        W64557   8.342  37.696  14.117
92133W        W64558  32.211  43.486  12.694
92134W        W64559  24.917   5.087   1.400
92135W        W64560  44.500  34.078  13.016
92136W        W64561  30.888   6.403  12.542
92137W        W64562  10.861  10.831   3.296
92138W        W64563   6.609  40.335   1.341
92139W        W64564  20.468  36.449  11.551
92140W        W64565  21.160  41.472   4.396
92141W        W64566  24.027   7.315   1.883
92142W        W64567  23.627  16.126  12.564
92143W        W64568   3.190  22.106  14.497
92144W        W64569  13.843  28.954  11.565
92145W        W64570  10.578  13.190   0.913
92146W        W64571   9.315  19.211  13.870
92147W        W64572   6.276  34.918   2.383
92148W        W64573   5.496   5.684  11.625
92149W        W64574  36.066   2.401  13.950
92150W        W64575   9.329   9.865  14.568
92151W        W64576  25.202  24.990  10.762
92152W        W64577   0.904  21.215   4.204
92153W        W64578  14.662   0.420  11.402
92154W        W64579   3.654  41.316  13.366
92155W        W64580  37.241   9.421   4.595
92156W        W64581  34.668   2.749   3.631
92157W        W64582  26.048  34.045   2.844
92158W        W64583  40.891  20.135  13.992
92159W        W64584   8.286  34.531  11.478
92160W        W64585   5.744   0.807  14.359
92161W        W64586  36.356  13.050   2.254
92162W        W64587  27.661   6.587   3.894
92163W        W64588  28.564  36.356   4.593
92164W        W64589  11.811  27.769  14.682
92165W        W64590  29.086   2.940  11.944
92166W        W64591  36.690  12.674  10.301
92167W        W64592  26.456  11.637   2.566
92168W        W64593  10.768  43.956  12.692
92169W        W64594   7.715   8.163  11.663
92170W        W64595  15.687  42.984   4.524
92171W        W64596  19.430  26.023   3.977
92172W        W64597  38.276  12.620  13.982
92173W        W64598  33.201   3.850  11.178
92174W        W64599  35.725  27.299  14.362
92175W        W64600  15.867   0.026   4.428
92176W        W64601  14.029  29.476   4.856
92177W        W64602  17.132  17.297   0.801
92178W        W64603  36.177  28.085  13.084
92179W        W64604  16.810  41.196   1.763
92180W        W64605  19.501  42.761  14.775
92181W        W64606  24.563  17.161  13.990
92182W        W64607  23.540   9.203  10.708
92183W        W64608  26.304  31.399   4.397
92184W        W64609  44.279  37.729   0.095
92185W        W64610  30.168  27.351  10.609
92186W        W64611  27.516   5.225  12.452
92187W        W64612  11.142   7.697   3.602
92188W        W64613   8.248  16.456  12.874
92189W        W64614   1.012  25.220   1.153
92190W        W64615  11.757  30.874  12.392
92191W        W64616   8.703   9.796   2.456
92192W        W64617   0.153  21.237  11.015
92193W        W64618  14.086  25.364  13.471
92194W        W64619  15.987   6.141   4.275
92195W        W64620  11.316  19.269  12.933
92196W        W64621  21.675  15.306  14.837
92197W        W64622  15.483   4.922  11.909
92198W        W64623   1.758  16.209   4.676
92199W        W64624   1.370  44.800   1.458
92200W        W64625  24.680  12.706   0.535
92201W        W64626  37.042  30.170   2.797
92202W        W64627  43.464  14.262  14.745
92203W        W64628  32.504  10.142  14.550
92204W        W64629  24.712   0.583   4.913
92205W        W64630  29.021   2.129   4.638
92206W        W64631  24.177  31.604  12.754
92207W        W64632  27.116   2.437  12.285
92208W        W64633  32.538  13.503  14.476
92209W        W64634   3.407  39.762  14.785
92210W        W64635  31.190  18.279   2.411
92211W        W64636   2.863  12.169   1.211
92212W        W64637  25.047   6.459   2.421
92213W        W64638  40.746  16.677   1.855
92214W        W64639  30.520  44.458   2.672
92215W        W64640  37.786   2.719  14.749
92216W        W64641  13.899   9.718   2.374
92217W        W64642  41.457   3.997   1.816
92218W        W64643  36.541  42.921  10.380
92219W        W64644   6.610  42.274   0.796
92220W        W64645  37.119  19.234   4.841
92221W        W64646  28.416  22.999  11.925
92222W        W64647  40.494   0.256  13.799
92223W        W64648  21.714  12.163  12.810
92224W        W64649  41.837  15.804  11.517
92225W        W64650  28.142  38.824   4.584
92226W        W64651  18.055  43.415  12.980
92227W        W64652  15.498  20.346  10.687
92228W        W64653  13.834  21.503  14.965
92229W        W64654   7.604   6.201  12.105
92230W        W64655   2.430  28.089  10.373
92231W        W64656   1.112  10.446   2.896
92232W        W64657  37.971  22.705   0.890
92233W        W64658  17.810  41.939   0.653
92234W        W64659  29.194  28.636  12.915
92235W        W64660  36.605  43.458   4.576
92236W        W64661   3.933  41.691  11.051
92237W        W64662   0.918  36.297  13.420
92238W        W64663   0.982  15.048   3.631
92239W        W64664  29.912  27.071   1.841
92240W        W64665   2.381   5.390   3.352
92241W        W64666   4.470  13.183   1.872
92242W        W64667   7.205  43.520   1.371
92243W        W64668  41.906  39.956  10.528
92244W        W64669   7.301  39.074   1.230
92245W        W64670  29.937   5.876   4.129
92246W        W64671  25.372  22.843   0.675
92247W        W64672  37.909   7.671  14.927
92248W        W64673  13.720  23.276  12.332
92249W        W64674  27.747  38.366  12.577
92250W        W64675  40.390  33.124  13.471
92251W        W64676  37.575  35.925   4.063
92252W        W64677  40.121  39.760   2.369
92253W        W64678   4.830   4.457   4.685
92254W        W64679  43.918  43.476   1.780
92255W        W64680   1.714   2.853   3.631
92256W        W64681  32.420  28.622   3.101
92257W        W64682  10.669   3.190   1.450
92258W        W64683   2.946   0.825   1.813
92259W        W64684  11.825  26.910  10.676
92260W        W64685  13.219  13.675   3.091
92261W        W64686  18.677  33.486   5.040
92262W        W64687  40.864  28.632   4.545
92263W        W64688  10.760   7.702   0.222
92264W        W64689   6.852   9.358  12.342
92265W        W64690   7.162  20.654   1.826
92266W        W64691  31.054  37.653  13.032
92267W        W64692   9.219  34.875   3.688
92268W        W64693  19.573  44.476   0.016
92269W        W64694  32.545   7.064   0.430
92270W        W64695  34.458  17.512   1.914
92271W        W64696  26.086  40.223   2.579
92272W        W64697  28.504   4.795   4.714
92273W        W64698   3.445  11.382   1.336
92274W        W64699  32.040  43.977  11.989
92275W        W64700  40.592   5.668   0.456
92276W        W64701   2.841  15.790  14.359
92277W        W64702  21.055  33.906   2.310
92278W        W64703   5.289  27.162   2.282
92279W        W64704  42.354  22.669  10.524
92280W        W64705   9.563   3.940  13.324
92281W        W64706   0.577  33.911  12.375
92282W        W64707  18.325  19.300  12.484
92283W        W64708   6.950  14.703   2.732
92284W        W64709   7.332  21.549  11.975
92285W        W64710  28.853  11.764  12.954
92286W        W64711   6.848  41.659   3.774
92287W        W64712   1.885  37.312  12.918
92288W        W64713  10.650  42.076  12.866
92289W        W64714  32.096  33.405  12.037
92290W        W64715   2.235   0.804  11.001
92291W        W64716  34.574  20.082  11.180
92292W        W64717  20.799   2.851   3.646
92293W        W64718  24.258  23.265  10.702
92294W        W64719  27.720  19.616  11.163
92295W        W64720  18.546  23.073  14.999
92296W        W64721  11.851  28.167  13.792
92297W        W64722  37.400  29.318  12.800
92298W        W64723  22.008  43.350  12.026
92299W        W64724  27.205  31.967   9.614
92300W        W64725   4.823   8.283  13.507
92301W        W64726  29.858  16.052  14.759
92302W        W64727  36.268   5.817  10.699
92303W        W64728  15.724  22.630  12.387
92304W        W64729  29.349  11.756  11.727
92305W        W64730   6.117  35.062   3.222
92306W        W64731   7.978  36.408   2.889
92307W        W64732  20.499   6.890   2.877
92308W        W64733  43.497  27.102  12.563
92309W        W64734  32.558  31.169  13.528
92310W        W64735  26.026  25.997   1.272
92311W        W64736  32.229   5.759  14.504
92312W        W64737  21.101   5.849  11.560
92313W        W64738   7.993  36.347  11.488
92314W        W64739   9.436  36.738  13.873
92315W        W64740  33.722   5.726   0.235
92316W        W64741  36.060  38.437   1.754
92317W        W64742  44.889  42.959  13.113
92318W        W64743  10.664  24.725  10.715
92319W        W64744  13.296   7.306   3.630
92320W        W64745  38.859   8.654  11.164
92321W        W64746  43.801  32.447  10.182
92322W        W64747  40.910   7.842  12.943
92323W        W64748   8.754  25.510   0.715
92324W        W64749  23.526   9.191  12.057
92325W        W64750  39.292  13.664   2.805
92326W        W64751   7.809  31.154   3.814
92327W        W64752  24.808  18.535  13.226
92328W        W64753  23.193  34.106  10.995
92329W        W64754  42.624  38.311  12.552
92330W        W64755  15.341  18.335   3.133
92331W        W64756   9.364   8.877   4.450
92332W        W64757  28.679  14.790  14.254
92333W        W64758  29.106  31.621   3.118
92334W        W64759  33.536  34.519  11.411
92335W        W64760  26.618   9.875   1.823
92336W        W64761   0.979  20.518  14.695
92337W        W64762  39.330  32.492  14.348
92338W        W64763  42.908  37.603  14.488
92339W        W64764  22.473  13.155   4.600
92340W        W64765  34.763  29.184   2.835
92341W        W64766   6.931  17.253   1.410
92342W        W64767  21.511  18.410  14.719
92343W        W64768  32.472  23.091  14.401
92344W        W64769  12.977  16.488   0.890
92345W        W64770  34.762   8.041   4.749
92346W        W64771  12.250  15.414  14.994
92347W        W64772  16.824  12.228  11.621
92348W        W64773  11.121  16.880   1.853
92349W        W64774   6.881  21.984  13.890
92350W        W64775  27.614  13.296   2.877
92351W        W64776  32.833  37.123   2.376
92352W        W64777  15.786  33.605   3.000
92353W        W64778   8.496  10.720   0.533
92354W        W64779   4.553  36.217   5.045
92355W        W64780  42.594  20.314  13.606
92356W        W64781  32.942  10.464   2.206
92357W        W64782  39.725  20.669  13.386
92358W        W64783  44.255  41.391  12.616
92359W        W64784   4.223  36.023   4.652
92360W        W64785  19.329  10.289   2.821
92361W        W64786   8.617   6.344  13.463
92362W        W64787   6.396  16.321   1.574
92363W        W64788   7.195  12.150   3.635
92364W        W64789  42.871  28.347  11.255
92365W        W64790  23.599   4.282  12.135
92366W        W64791  39.856  42.301  12.135
92367W        W64792  27.113  30.115  14.438
92368W        W64793  26.514  20.688  10.623
92369W        W64794  44.825  21.153   3.576
92370W        W64795  18.750   4.588   5.379
92371W        W64796  39.470  10.846  11.403
92372W        W64797  22.709  34.862   4.725
92373W        W64798   6.201  15.051  14.415
92374W        W64799   2.872   5.747  13.057
92375W        W64800   9.615  13.770  14.742
92376W        W64801  38.905  11.590  12.024
92377W        W64802  10.945  32.115  10.695
92378W        W64803   4.740  11.394   2.193
92379W        W64804   8.883   9.813  14.083
92380W        W64805  25.043  10.278  13.079
92381W        W64806  39.794  11.674   3.252
92382W        W64807  10.798  27.448  11.068
92383W        W64808  30.133  33.826   0.847
92384W        W64809  17.852   6.356   3.604
92385W        W64810  27.796  38.487  14.520
92386W        W64811   8.041  19.335   1.084
92387W        W64812  43.512  16.435   1.483
92388W        W64813  22.522   9.379  10.643
92389W        W64814  37.312  11.577   2.461
92390W        W64815   7.880  24.549  14.298
92391W        W64816  20.924  21.146   2.649
92392W        W64817  14.785  15.555  10.912
92393W        W64818  28.612  29.429   0.680
92394W        W64819   5.994  15.895   0.965
92395W        W64820   6.609  38.562  14.875
92396W        W64821  35.446  20.307  14.329
92397W        W64822  38.419  33.954   2.477
92398W        W64823  24.388  31.439   3.061
92399W        W64824  10.042   0.284   2.749
92400W        W64825   9.114   4.130  13.543
92401W        W64826  29.344  27.191  11.149
92402W        W64827  13.315  17.321  12.971
92403W        W64828   3.022  21.504   4.620
92404W        W64829  35.861  43.852   0.974
92405W        W64830   0.910  43.949  12.213
92406W        W64831  36.996  11.902  14.842
92407W        W64832  28.645  26.522   4.360
92408W        W64833  16.497   0.797   0.652
92409W        W64834  31.598   0.019  11.040
92410W        W64835   2.627  32.978  13.728
92411W        W64836  37.439  29.654   1.206
92412W        W64837  25.953  44.266  14.867
92413W        W64838   3.771  28.856   4.409
92414W        W64839  29.542  21.030   2.729
92415W        W64840   2.941   1.677   3.340
92416W        W64841   1.022  26.537  14.824
92417W        W64842  40.138  30.486  12.477
92418W        W64843  36.791   9.367   5.455
92419W        W64844  11.686  35.074  12.879
92420W        W64845  17.371   0.644   3.085
92421W        W64846  43.639  42.988   3.326
92422W        W64847  43.418   1.009   4.754
92423W        W64848  15.224   2.205  14.939
92424W        W64849  42.322  10.705   4.398
92425W        W64850  22.625  21.605  11.916
92426W        W64851   9.241  11.303  14.381
92427W        W64852   9.247  13.124   3.751
92428W        W64853  12.318  18.804  11.647
92429W        W64854  14.257  35.693   1.859
92430W        W64855   5.639  44.913   3.770
92431W        W64856   6.775  28.149   0.235
92432W        W64857  22.768  26.679   1.251
92433W        W64858   3.359  19.273  14.235
92434W        W64859  24.709  38.922   2.729
92435W        W64860  11.383  35.479  14.914
92436W        W64861  17.199  18.640   2.174
92437W        W64862  10.331  25.065   3.933
92438W        W64863  41.053  11.434   0.792
92439W        W64864  31.700  43.299   4.558
92440W        W64865  44.994  25.135   4.849
92441W        W64866  41.382  41.928  13.105
92442W        W64867  35.560   1.808  12.582
92443W        W64868  28.190  18.502  11.448
92444W        W64869  34.398  39.039  11.453
92445W        W64870  37.483  15.255  10.927
92446W        W64871  22.798   2.505  10.214
92447W        W64872   0.310  27.822   4.270
92448W        W64873  24.990   2.154   4.589
92449W        W64874  32.962  33.377  11.179
92450W        W64875   9.398   4.445  10.667
92451W        W64876  19.659  15.563   2.141
92452W        W64877   0.191   4.411   1.419
92453W        W64878  26.716  24.785  10.660
92454W        W64879  42.767   8.988   3.977
92455W        W64880  38.392   1.468  10.802
92456W        W64881   3.218  38.433  10.693
92457W        W64882   3.912  13.228  14.388
92458W        W64883  33.143  16.043   2.720
92459W        W64884  24.743  36.011  13.349
92460W        W64885  43.475  38.610   2.824
92461W        W64886  10.828  37.968  14.933
92462W        W64887  21.188   8.250   0.553
92463W        W64888  44.871  12.640  12.914
92464W        W64889  32.717  24.436  14.194
92465W        W64890  10.289  31.849   4.565
92466W        W64891   7.975  37.501  12.749
92467W        W64892  29.947  37.584   3.221
92468W        W64893  23.021  40.472   1.953
92469W        W64894  29.723  19.579   2.126
92470W        W64895   7.201  10.204   1.658
92471W        W64896  13.336   0.913  14.506
92472W        W64897   3.168   0.481  12.406
92473W        W64898   6.722  40.471   2.280
92474W        W64899  13.192   9.071  13.076
92475W        W64900  33.877   1.437  10.795
92476W        W64901   5.261  14.115   5.031
92477W        W64902  22.098  44.419  10.629
92478W        W64903  12.673  16.507   3.866
92479W        W64904   5.469  13.210  13.427
92480W        W64905  21.765  39.470   4.449
92481W        W64906   7.482  10.657   0.777
92482W        W64907  36.627  39.407  14.200
92483W        W64908  42.859  19.717   4.946
92484W        W64909  12.836   3.223   3.208
92485W        W64910  17.284   7.483   3.077
92486W        W64911  32.621  25.132  13.542
92487W        W64912  22.746  35.893   0.382
92488W        W64913  27.487  13.304   1.727
92489W        W64914  19.615  15.044   3.696
92490W        W64915  32.088  42.205   3.212
92491W        W64916  10.766  21.091  14.862
92492W        W64917  14.210  13.634   4.811
92493W        W64918  30.070  15.396   3.705
92494W        W64919  32.336   9.618   2.799
92495W        W64920  24.146  10.216   2.670
92496W        W64921   7.611  17.509  11.662
92497W        W64922  32.417  30.714   3.270
92498W        W64923  14.323  38.969  12.123
92499W        W64924  20.653  42.616  10.085
92500W        W64925  38.781  43.881   0.686
92501W        W64926   2.375  43.478   3.776
92502W        W64927  29.144  41.879  14.936
92503W        W64928  20.512  38.913   2.200
92504W        W64929  38.616  36.052  10.486
92505W        W64930   3.526  22.587  10.461
92506W        W64931  42.224   4.862   2.769
92507W        W64932  39.242   0.302  12.123
92508W        W64933  34.666  32.078   1.699
92509W        W64934  39.119   9.374   1.174
92510W        W64935  30.515  10.929  13.510
92511W        W64936  21.720   3.323   3.383
92512W        W64937  34.572  19.783  12.932
92513W        W64938   5.676  25.042  12.070
92514W        W64939   8.007  21.019  11.532
92515W        W64940  34.458  23.137  14.884
92516W        W64941  25.228  42.803  14.301
92517W        W64942  36.623  43.492   1.048
92518W        W64943  21.556  26.482   3.421
92519W        W64944  29.702  41.366   0.963
92520W        W64945  13.590  38.315  14.995
92521W        W64946   4.496  29.870  11.633
92522W        W64947  11.769  33.352   1.210
92523W        W64948  35.877  42.089  12.520
92524W        W64949  36.672  40.141   1.270
92525W        W64950  26.470  29.378   3.710
92526W        W64951   9.627  39.132   2.259
92527W        W64952   4.344  15.657  14.230
92528W        W64953  18.152   7.679  13.363
92529W        W64954  38.098  10.793  11.410
92530W        W64955  14.567  25.484  14.217
92531W        W64956  11.495  20.284   3.814
92532W        W64957  11.615   7.028   0.929
92533W        W64958  23.528  41.307  11.141
92534W        W64959  23.480  34.038  11.508
92535W        W64960  13.160  21.144   0.676
92536W        W64961  29.327   4.517  11.148
92537W        W64962  32.887  43.150  14.470
92538W        W64963   5.386  35.313  13.143
92539W        W64964  25.738  22.924  14.325
92540W        W64965  23.058  30.489  11.744
92541W        W64966  23.062   0.949   3.352
92542W        W64967   6.650  26.079   2.372
92543W        W64968  13.840   9.621   1.325
92544W        W64969  18.522   6.905  13.832
92545W        W64970  37.916  28.387   1.354
92546W        W64971   3.210  23.095   3.135
92547W        W64972   6.249  11.131   2.555
92548W        W64973   1.148  35.611  10.650
92549W        W64974  34.962  38.052  14.542
92550W        W64975   7.862  40.922  10.847
92551W        W64976  12.197   8.809   3.869
92552W        W64977  14.400   9.936   2.312
92553W        W64978  14.585   0.955  14.717
92554W        W64979  20.306  37.445   3.252
92555W        W64980  23.558  44.896  14.408
92556W        W64981  10.930  32.158  12.620
92557W        W64982  42.479  19.427  14.481
92558W        W64983  40.880  32.745   4.183
92559W        W64984  28.039  24.684  12.414
92560W        W64985   4.689  15.665  13.218
92561W        W64986  40.616  30.692   3.244
92562W        W64987  13.676  34.314  14.361
92563W        W64988  43.421   4.722  12.998
92564W        W64989  16.819  32.052  10.410
92565W        W64990  22.444   3.464   4.132
92566W        W64991   9.630  31.921  13.037
92567W        W64992  17.420  27.649  14.304
92568W        W64993  39.973  16.744  12.642
92569W        W64994   3.353   0.304  11.572
92570W        W64995  32.143   4.458   2.471
92571W        W64996   1.988  18.706   1.332
92572W        W64997  15.850  26.903   0.627
92573W        W64998  40.963  16.768   0.411
92574W        W64999  41.904   7.292   4.295
92575W        W65000  31.879  27.451   3.273
92576W        W65001   2.211  20.323   0.811
92577W        W65002   4.219  23.123  11.056
92578W        W65003  12.057  31.705  11.695
92579W        W65004  31.485  14.892   2.588
92580W        W65005  36.576  12.967  12.512
92581W        W65006  22.474  25.430  12.400
92582W        W65007   5.364   9.809  13.048
92583W        W65008  36.046  43.953   2.344
92584W        W65009  18.113  18.709   0.015
92585W        W65010  18.588   6.249   1.742
92586W        W65011   3.376  26.975   0.431
92587W        W65012  27.342  35.704  11.532
92588W        W65013   2.849  44.363  12.175
92589W        W65014  15.083  44.026  13.102
92590W        W65015  23.260  14.531   3.652
92591W        W65016  37.108  27.045  13.413
92592W        W65017  10.607  25.051  12.582
92593W        W65018  24.577  21.585   1.472
92594W        W65019  33.158   2.789  13.354
92595W        W65020  24.911  32.108  13.031
92596W        W65021  29.712  24.143  13.894
92597W        W65022  30.690   2.758   2.049
92598W        W65023  14.215  26.301   1.087
92599W        W65024   9.808  40.976   2.127
92600W        W65025  15.718  17.835  12.914
92601W        W65026  23.978  15.647   3.188
92602W        W65027   6.346  35.186  11.947
92603W        W65028  29.946  34.758  11.450
92604W        W65029   6.478   5.868  10.719
92605W        W65030  37.757   7.444   3.664
92606W        W65031  25.159  21.318  10.435
92607W        W65032  41.733  27.556   4.280
92608W        W65033   5.757   3.881  13.328
92609W        W65034   3.520  33.959   3.864
92610W        W65035  40.132  44.807   1.923
92611W        W65036  34.108   8.282  12.687
92612W        W65037  30.405  39.871   3.938
92613W        W65038  16.273  21.769  10.769
92614W        W65039  25.980  39.562  11.084
92615W        W65040  36.862   3.543   2.275
92616W        W65041   6.260  24.294   4.089
92617W        W65042  33.136  39.437   3.654
92618W        W65043  19.685  27.144  14.938
92619W        W65044  10.890  17.256   1.404
92620W        W65045  41.770  42.186  13.614
92621W        W65046  35.519  29.301   2.282
92622W        W65047  16.153  15.820   2.324
92623W        W65048  16.839  16.752   0.909
92624W        W65049  36.517  21.920  14.071
92625W        W65050  26.350   6.268  14.515
92626W        W65051  28.457  33.300   4.633
92627W        W65052  33.681  18.401  14.361
92628W        W65053  20.007  43.242  11.471
92629W        W65054  44.804  16.721   0.059
92630W        W65055   8.654   5.299   2.440
92631W        W65056   9.244  23.515   3.552
92632W        W65057   5.668   0.275   2.537
92633W        W65058  42.475   7.837  12.076
92634W        W65059   0.018  20.786  13.384
92635W        W65060  42.952  24.214  14.983
92636W        W65061  26.022  35.822   0.434
92637W        W65062  34.596  41.253  11.503
92638W        W65063   2.556   0.355  14.812
92639W        W65064   6.291   5.762   4.574
92640W        W65065  10.330  23.498   2.081
92641W        W65066  38.328  19.129   3.915
92642W        W65067  11.170  32.743  14.388
92643W        W65068  44.361   5.915   1.722
92644W        W65069  19.339   0.249   3.660
92645W        W65070  17.527  43.826   2.141
92646W        W65071  18.164  44.341  11.470
92647W        W65072  42.823  12.896  11.085
92648W        W65073  18.448  12.718   1.339
92649W        W65074  25.653  43.464  12.741
92650W        W65075  12.206  16.996  11.121
92651W        W65076  43.049  18.181  14.313
92652W        W65077  39.473  11.772   2.759
92653W        W65078   9.131  27.090   1.370
92654W        W65079  29.239  12.247   1.047
92655W        W65080   5.175  18.140  14.431
92656W        W65081  17.598  30.132  14.974
92657W        W65082  42.763  33.881  10.747
92658W        W65083  40.499  14.221  10.675
92659W        W65084  25.608  17.596  11.209
92660W        W65085  37.401  14.783   0.830
92661W        W65086  35.660   5.246   0.794
92662W        W65087  30.878  15.057   4.768
92663W        W65088  26.951  22.162   2.321
92664W        W65089  16.021  11.727   2.331
92665W        W65090   3.912  27.483  13.539
92666W        W65091  32.562  26.415   1.750
92667W        W65092  29.191  14.314   1.415
92668W        W65093  13.610  19.605   3.268
92669W        W65094  41.906  33.680   0.225
92670W        W65095  22.302  44.388  12.267
92671W        W65096  30.780   6.123   2.621
92672W        W65097  42.091  19.012  12.828
92673W        W65098  25.895   1.053  13.820
92674W        W65099  26.183   3.682   3.641
92675W        W65100  23.500  15.691   3.448
92676W        W65101   5.775  10.563  13.506
92677W        W65102  37.403  35.473   1.304
92678W        W65103  38.869  13.762   0.757
92679W        W65104   9.929  25.685   1.854
92680W        W65105   2.654  10.319  14.408
92681W        W65106   9.794   8.991  11.094
92682W        W65107  10.541   9.481   4.147
92683W        W65108   4.412   2.509  10.672
92684W        W65109  17.603   3.443  11.193
92685W        W65110   5.333  17.607   4.924
92686W        W65111  22.997   3.425  13.055
92687W        W65112  26.971  14.173  13.406
92688W        W65113   3.299  16.194   4.797
92689W        W65114  31.228   7.851  12.776
92690W        W65115  31.626  18.141  10.514
92691W        W65116   7.009  40.469  11.875
92692W        W65117   5.589   3.210   4.066
92693W        W65118  44.062   4.485  12.860
92694W        W65119  13.332   5.683  13.893
92695W        W65120   0.810  32.032  13.338
92696W        W65121  37.540   6.685  10.723
92697W        W65122  27.952  29.504   1.303
92698W        W65123  33.951  36.027   0.528
92699W        W65124  13.248  28.395  10.813
92700W        W65125   2.202   8.128   1.195
92701W        W65126  11.521   0.190   1.738
92702W        W65127   1.703  38.434   1.548
92703W        W65128  19.935  29.078   4.094
92704W        W65129  22.595   4.773  12.531
92705W        W65130  21.053  19.126  11.646
92706W        W65131  20.159  36.979   3.647
92707W        W65132  24.946  21.689  11.690
92708W        W65133  13.784  32.036  13.873
92709W        W65134  20.190  17.168   9.865
92710W        W65135  15.646  30.651  11.181
92711W        W65136  36.652  36.443  12.605
92712W        W65137  12.214  42.488   3.277
92713W        W65138  19.072   4.820  10.925
92714W        W65139  11.342  42.089   0.500
92715W        W65140  39.583   7.311  11.568
92716W        W65141  42.903  40.047  13.565
92717W        W65142  15.222  10.187   0.374
92718W        W65143  17.496  10.690  13.370
92719W        W65144  32.332  30.532   4.585
92720W        W65145   6.918  34.085   2.219
92721W        W65146  20.688  31.080   2.137
92722W        W65147  37.950   1.479  13.819
92723W        W65148   8.236   3.424   0.499
92724W        W65149  38.057  38.394   1.396
92725W        W65150  14.734   6.622   1.185
92726W        W65151   9.177  39.451  11.508
92727W        W65152  28.611  44.361   3.571
92728W        W65153  13.895   7.719   1.396
92729W        W65154  11.212  41.200  13.750
92730W        W65155  34.543  33.407   4.601
92731W        W65156  37.485  39.279   3.633
92732W        W65157  43.819  32.776  12.324
92733W        W65158  18.705  19.529   2.771
92734W        W65159  28.366   2.967   2.498
92735W        W65160   2.481  26.624   2.436
92736W        W65161  16.057  13.814   3.033
92737W        W65162  16.839  34.057   0.456
92738W        W65163  32.424   4.367   2.915
92739W        W65164  32.665  14.767   0.831
92740W        W65165  35.585  43.315   4.410
92741W        W65166  19.354  21.154  10.725
92742W        W65167  26.339  22.033  12.983
92743W        W65168   7.381  29.873   3.562
92744W        W65169  32.062  38.401   2.698
92745W        W65170  14.261   0.897   3.690
92746W        W65171   2.290  44.261   4.046
92747W        W65172  38.123   6.891   0.692
92748W        W65173  30.131  44.754   0.676
92749W        W65174   6.219   7.447  12.990
92750W        W65175   9.271  43.440  12.865
92751W        W65176  14.996  41.540  11.050
92752W        W65177  43.555  28.671  12.376
92753W        W65178   6.263   2.272   4.230
92754W        W65179  15.221   2.424  13.892
92755W        W65180  36.320  18.288   3.074
92756W        W65181  31.152  40.990   1.802
92757W        W65182  40.827  44.343  11.323
92758W        W65183  17.758   5.281   2.297
92759W        W65184  25.446  33.444  11.510
92760W        W65185  32.643  39.030   3.517
92761W        W65186  23.985  38.470  11.000
92762W        W65187  12.975  38.101   4.436
92763W        W65188   5.402  28.126   4.563
92764W        W65189  44.200  41.902  13.890
92765W        W65190  34.098  10.043  11.095
92766W        W65191  22.101  35.797  12.352
92767W        W65192  39.856   1.899  14.911
92768W        W65193  33.528  36.479  11.456
92769W        W65194  25.516  24.295  13.529
92770W        W65195   5.489   2.772  11.877
92771W        W65196   3.990   1.762  14.338
92772W        W65197   9.567  41.204  14.382
92773W        W65198  29.713  31.361  14.211
92774W        W65199  32.884  23.601  12.789
92775W        W65200  43.882   5.760  12.819
92776W        W65201  34.401  27.195  11.910
92777W        W65202  21.407   5.789  11.113
92778W        W65203  29.657  24.277  10.091
92779W        W65204  38.342  11.838   1.114
92780W        W65205  27.504  29.209   1.457
92781W        W65206  32.496   4.230  11.915
92782W        W65207  43.757  19.861  10.579
92783W        W65208   8.159   8.769  13.447
92784W        W65209   6.329  34.880  14.231
92785W        W65210  24.422  31.187  14.722
92786W        W65211  15.360  33.506  10.965
92787W        W65212  36.587  41.259   4.255
92788W        W65213   6.827   0.632   1.169
92789W        W65214   5.454   6.710  10.990
92790W        W65215   6.860  26.284   4.143
92791W        W65216  43.406  37.968   4.155
92792W        W65217  36.071   8.813   5.320
92793W        W65218   7.747  34.674   3.529
92794W        W65219  36.969  22.675   0.673
92795W        W65220  16.803  34.311  11.557
92796W        W65221  38.081   2.782   3.131
92797W        W65222   2.970  20.210  14.047
92798W        W65223  30.031  15.212  14.494
92799W        W65224  30.209  16.804  11.837
92800W        W65225  20.431  36.797   4.105
92801W        W65226  19.517  16.654   0.726
92802W        W65227  27.987  32.007   0.444
92803W        W65228  29.673  42.351   3.792
92804W        W65229  39.247   5.797   4.509
92805W        W65230   5.315  16.772   4.374
92806W        W65231   4.780  27.473   4.185
92807W        W65232  39.767  13.391  12.468
92808W        W65233  40.239  42.751  10.839
92809W        W65234  21.436   5.655   0.830
92810W        W65235   8.191  19.370   2.708
92811W        W65236  29.967  18.222   0.481
92812W        W65237  15.349  21.712   4.392
92813W        W65238   3.189   1.745  12.075
92814W        W65239   8.779  30.841  14.814
92815W        W65240  26.107  36.913  12.133
92816W        W65241  37.147  15.593   4.197
92817W        W65242  30.515   8.361  10.626
92818W        W65243  37.564  29.789   4.556
92819W        W65244   5.703  17.278   4.372
92820W        W65245  22.814  31.659  10.833
92821W        W65246   1.983  28.973   0.818
92822W        W65247   9.896  43.052  14.943
92823W        W65248  34.401  28.346   2.910
92824W        W65249  14.705   8.119   4.822
92825W        W65250  11.526   3.733   4.605
92826W        W65251  33.877  21.059   1.851
92827W        W65252   3.680  23.684  13.923
92828W        W65253  25.719  38.890   1.267
92829W        W65254  17.782  37.625  11.155
92830W        W65255   9.747   1.151  13.988
92831W        W65256  20.663   2.965   3.125
92832W        W65257   2.472  15.103   3.714
92833W        W65258  19.240  22.121   2.699
92834W        W65259   9.228   4.645   4.653
92835W        W65260  33.677  27.414  13.280
92836W        W65261  27.543   9.840  14.331
92837W        W65262  34.626   1.771  13.397
92838W        W65263  39.651   2.995  14.802
92839W        W65264  42.021  17.736   0.023
92840W        W65265  29.240  24.924   4.673
92841W        W65266  18.235  42.285   3.919
92842W        W65267  41.016  33.068   2.816
92843W        W65268  20.664  16.270   1.417
92844W        W65269  31.154  42.309   4.736
92845W        W65270  19.336  33.531   2.698
92846W        W65271  33.928  27.876   0.752
92847W        W65272  25.761  31.579  12.181
92848W        W65273   9.526  21.649   1.614
92849W        W65274  30.713  27.737  13.278
92850W        W65275  38.753  42.348  13.114
92851W        W65276  32.022  37.994  14.710
92852W        W65277  23.745   4.452   4.128
92853W        W65278   5.709  21.096  12.065
92854W        W65279  44.126   5.659  13.640
92855W        W65280  16.333  37.682   1.814
92856W        W65281   9.605  25.457  13.539
92857W        W65282  34.076  15.867   1.468
92858W        W65283   2.397  10.425   1.386
92859W        W65284  11.240   3.485   0.807
92860W        W65285  25.065  29.484   2.505
92861W        W65286  41.817  36.230   0.490
92862W        W65287  35.531  16.822  11.712
92863W        W65288   9.203  16.187   3.386
92864W        W65289  28.548  40.035  13.762
92865W        W65290  19.278  17.884  12.570
92866W        W65291  15.056  32.585  10.920
92867W        W65292  11.618  12.639  13.305
92868W        W65293  36.411  31.679  13.931
92869W        W65294   1.828   3.109   4.074
92870W        W65295  32.983  41.970   1.339
92871W        W65296  25.142  13.170   3.109
92872W        W65297   6.278  34.096  12.673
92873W        W65298  14.583   6.347  14.917
92874W        W65299   5.932  22.173  13.555
92875W        W65300   0.872  16.112   4.569
92876W        W65301   9.360  25.059   2.476
92877W        W65302  26.912  24.038  12.957
92878W        W65303  17.034  25.598   0.836
92879W        W65304  29.640  12.362   4.906
92880W        W65305  15.630  28.428   1.321
92881W        W65306  35.539  42.745   1.330
92882W        W65307  38.506  37.107   2.294
92883W        W65308   0.221  38.816  10.442
92884W        W65309  36.662  13.592  11.661
92885W        W65310  37.459  28.703  10.505
92886W        W65311  19.159  42.951  14.349
92887W        W65312  29.662  34.038  11.601
92888W        W65313  33.256   7.371  10.414
92889W        W65314  11.800  23.595   0.432
92890W        W65315   6.780  36.899   3.072
92891W        W65316   9.138  32.676   0.054
92892W        W65317  30.450  36.926   0.871
92893W        W65318  31.653  12.380   1.863
92894W        W65319  14.183   1.905  14.753
92895W        W65320   8.759  12.658  10.349
92896W        W65321  17.196   5.885   1.806
92897W        W65322  10.755  24.265  13.963
92898W        W65323  27.631  30.096  14.501
92899W        W65324  20.070  37.404   0.844
92900W        W65325  44.793  19.631   0.176
92901W        W65326   0.665  13.883   5.064
92902W        W65327  19.366  15.031   3.252
92903W        W65328  16.232  43.928   3.112
92904W        W65329  33.129  10.074  13.544
92905W        W65330  19.804   6.223   3.745
92906W        W65331   3.432  10.093   4.540
92907W        W65332  41.554   3.532   4.100
92908W        W65333  12.872  24.609   0.045
92909W        W65334  38.007  35.980   2.813
92910W        W65335  14.779  41.226   1.665
92911W        W65336  29.080  17.335   1.873
92912W        W65337  37.799  41.422   3.720
92913W        W65338  24.962  26.685   0.409
92914W        W65339   8.444  24.464   1.296
92915W        W65340  42.344  32.433   0.526
92916W        W65341   9.140  28.399   0.891
92917W        W65342   9.897  16.038  10.825
92918W        W65343  44.007  34.855  13.063
92919W        W65344  10.535  42.233   1.594
92920W        W65345  14.281  43.319   3.310
92921W        W65346  40.027  42.048  13.597
92922W        W65347  26.985   2.813  13.066
92923W        W65348   7.229  30.834  13.528
92924W        W65349   3.800  17.604  14.302
92925W        W65350  12.711  23.131  11.543
92926W        W65351  24.981  38.609   4.536
92927W        W65352  22.632   1.720   4.092
92928W        W65353  29.233  32.960   3.646
92929W        W65354  14.366  24.948   2.250
92930W        W65355   7.631  13.335  11.118
92931W        W65356  40.609  19.786   4.702
92932W        W65357  30.353  28.514  10.655
92933W        W65358  32.362   0.395   4.840
92934W        W65359  20.954   3.692  14.858
92935W        W65360  32.666  36.961  13.885
92936W        W65361  27.503  36.955  13.831
92937W        W65362   8.746  16.049   3.644
92938W        W65363  41.731  29.703  11.608
92939W        W65364  21.663   9.898   3.629
92940W        W65365  39.856  12.268  13.839
92941W        W65366  14.797  39.445  11.490
92942W        W65367  38.460  24.122   0.331
92943W        W65368  14.561   6.682   1.704
92944W        W65369  32.592  34.377   0.311
92945W        W65370   1.753  36.107  12.520
92946W        W65371  39.569  37.885   4.054
92947W        W65372  24.833  40.827   0.474
92948W        W65373   6.768  11.100   0.379
92949W        W65374  35.277  17.189   0.866
92950W        W65375  10.330  33.643  10.347
92951W        W65376  32.258  20.525  12.706
92952W        W65377  38.573  41.081   4.123
92953W        W65378  36.061  17.739   0.011
92954W        W65379  25.119  31.211   3.874
92955W        W65380  24.788  36.017  14.312
92956W        W65381   2.308  21.174  12.415
92957W        W65382  40.349  17.001   1.800
92958W        W65383  25.123  40.871  10.593
92959W        W65384  21.667  21.599  13.391
92960W        W65385  30.969  30.094   1.862
92961W        W65386  21.262   7.658   5.072
92962W        W65387   8.087  19.859  10.178
92963W        W65388  40.936  37.775   0.764
92964W        W65389  14.751  40.968   1.177
92965W        W65390  28.068   7.386   3.878
92966W        W65391   8.993  13.720  12.119
92967W        W65392  19.528  24.038   2.710
92968W        W65393   1.120   8.014   4.194
92969W        W65394  26.548  43.551   3.850
92970W        W65395   8.742  44.722   0.258
92971W        W65396  21.432  17.996  12.110
92972W        W65397  27.592   7.181   4.609
92973W        W65398  41.323  37.749   3.334
92974W        W65399   9.088   8.076   2.221
92975W        W65400  27.617  42.420   4.036
92976W        W65401   6.422   0.265  13.322
92977W        W65402  10.745  26.134   1.973
92978W        W65403  36.611  38.887  12.016
92979W        W65404   5.703  21.672   1.852
92980W        W65405   6.351  29.000   4.307
92981W        W65406  23.057  39.987  12.063
92982W        W65407  19.309  37.835  11.530
92983W        W65408  21.783  26.690   4.617
92984W        W65409   1.436  20.737  13.469
92985W        W65410  25.592  29.609   9.712
92986W        W65411  20.549  22.234   4.328
92987W        W65412  24.494  30.483   4.913
92988W        W65413  10.951  44.840  10.518
92989W        W65414  36.872  12.335  11.814
92990W        W65415  13.084  18.166   4.079
92991W        W65416  26.368  30.699   4.495
92992W        W65417  18.210  19.221   1.413
92993W        W65418  18.428  10.253   3.155
92994W        W65419  42.034   0.753  12.032
92995W        W65420  35.999  44.428   2.674
92996W        W65421   0.553  37.787  14.947
92997W        W65422  23.158  11.710   2.177
92998W        W65423   0.933  30.731  12.570
92999W        W65424  13.309  11.893   3.214
93000W        W65425  22.563   2.437   3.615
93001W        W65426  27.026   9.870   2.732
93002W        W65427  11.749  39.829  12.449
93003W        W65428   5.696   2.968   2.286
93004W        W65429  22.520  12.389   5.555
93005W        W65430  40.832  19.476  14.848
93006W        W65431  34.543   1.887   3.901
93007W        W65432  21.541   6.436  10.464
93008W        W65433   7.734  28.441  14.764
93009W        W65434  15.739  28.966  13.407
93010W        W65435  14.622  36.927   1.803
93011W        W65436  18.196  29.241   4.676
93012W        W65437   3.644   1.052   1.929
93013W        W65438  41.543  11.130  12.084
93014W        W65439  11.918  43.424  14.310
93015W        W65440  14.848   7.618   1.479
93016W        W65441  17.148  11.780   1.034
93017W        W65442  38.757  17.110   1.326
93018W        W65443  33.080  28.598  14.888
93019W        W65444  28.114  22.286   4.759
93020W        W65445   0.519  27.034   0.190
93021W        W65446  17.548   0.462  14.009
93022W        W65447   6.366   2.238  11.570
93023W        W65448  13.673   2.475   1.730
93024W        W65449   6.224  28.183  10.719
93025W        W65450  20.505  43.272  11.592
93026W        W65451  37.205  38.370   2.941
93027W        W65452  40.464  38.841   4.491
93028W        W65453  39.988  13.717  12.053
93029W        W65454  39.245  36.707   2.922
93030W        W65455  13.197  42.065  12.980
93031W        W65456  11.626  39.520   3.823
93032W        W65457  25.004  27.159  12.218
93033W        W65458  18.853  15.150   3.294
93034W        W65459  12.315  24.601  14.928
93035W        W65460  17.610   1.645   2.242
93036W        W65461  21.364  38.921   1.874
93037W        W65462  12.164   5.252  14.426
93038W        W65463  19.324   6.847   4.350
93039W        W65464  11.297   5.928  13.395
93040W        W65465   4.699   4.048  12.901
93041W        W65466   5.869  21.715   4.377
93042W        W65467  17.624   1.491  11.616
93043W        W65468  15.761  37.654   2.876
93044W        W65469  28.581   5.149  13.284
93045W        W65470  31.271  38.450   0.993
93046W        W65471   3.008  37.943   2.204
93047W        W65472  42.542   4.133  12.110
93048W        W65473   0.878  35.910   0.762
93049W        W65474  15.332  23.686  10.737
93050W        W65475  13.963  19.099  11.995
93051W        W65476  31.015  37.131  14.881
93052W        W65477  11.797  43.220   4.427
93053W        W65478  27.188  22.574   3.116
93054W        W65479  30.040  23.462   0.435
93055W        W65480  10.855  33.608   3.587
93056W        W65481  20.998  26.998   4.934
93057W        W65482  27.134  29.424   4.148
93058W        W65483   4.189  34.486   1.719
93059W        W65484  27.386  23.707   4.398
93060W        W65485  24.756   3.712  13.970
93061W        W65486  28.938   2.022  13.701
93062W        W65487  14.667  30.969   1.448
93063W        W65488   3.879  44.035  12.690
93064W        W65489  22.958   9.125   4.620
93065W        W65490  12.308   0.738   3.215
93066W        W65491  25.093  29.571   2.996
93067W        W65492  23.470  22.137  12.256
93068W        W65493   3.291  13.418   4.045
93069W        W65494   0.186   3.333   4.236
93070W        W65495  18.529  37.553  11.582
93071W        W65496  40.908   7.228   4.023
93072W        W65497  37.335  15.247  14.386
93073W        W65498  12.125  14.088  14.824
93074W        W65499  42.360  28.334   1.250
93075W        W65500  28.677  28.513  13.888
93076W        W65501  37.936  37.896   1.403
93077W        W65502  13.908  40.434  12.653
93078W        W65503   2.330  13.273  13.665
93079W        W65504  38.973  34.320   4.067
93080W        W65505   6.266  28.015   4.506
93081W        W65506  29.003  39.661  14.880
93082W        W65507   5.249  20.269  13.727
93083W        W65508  22.258  41.590  10.666
93084W        W65509  36.636  24.464   1.362
93085W        W65510   8.172  23.020   1.912
93086W        W65511   1.830   0.835  10.654
93087W        W65512  38.582  33.375   0.397
93088W        W65513  19.385  36.914  10.712
93089W        W65514  22.712   9.882   4.245
93090W        W65515   0.169  26.744  12.135
93091W        W65516  37.300  37.076  10.801
93092W        W65517   4.804  23.034   0.819
93093W        W65518   3.333  36.946   1.205
93094W        W65519   6.234   7.188  14.514
93095W        W65520  36.440  40.855   3.974
93096W        W65521  17.107   4.176  14.063
93097W        W65522   7.083  15.572  11.573
93098W        W65523  12.790  13.629  12.490
93099W        W65524   0.422  25.448   4.644
93100W        W65525  36.507  44.998   1.154
93101W        W65526  30.985  14.324   0.052
93102W        W65527  37.405  26.278   4.337
93103W        W65528  38.470   2.662   0.858
93104W        W65529  42.269  20.638   0.252
93105W        W65530  30.829  20.859   2.254
93106W        W65531  39.292  31.158   3.211
93107W        W65532  12.316  25.545  12.464
93108W        W65533  30.057   5.609  11.614
93109W        W65534  26.033   9.915   2.667
93110W        W65535  31.977  29.037  12.827
93111W        W65536  28.108  42.394   4.832
93112W        W65537   4.821  15.786  12.102
93113W        W65538  35.132  11.341   4.979
93114W        W65539  22.398   8.897  11.388
93115W        W65540  23.730  31.343  12.790
93116W        W65541  33.927  13.590  14.509
93117W        W65542   1.046  28.496  11.324
93118W        W65543   4.291  27.429  11.101
93119W        W65544  18.469  20.335   4.636
93120W        W65545  11.548  31.091   3.351
93121W        W65546  24.194  30.054   2.839
93122W        W65547  10.691  12.664   4.063
93123W        W65548  18.776  30.686   2.768
93124W        W65549  19.881   3.734   1.914
93125W        W65550  21.108  31.873   4.218
93126W        W65551  43.938  23.179   0.780
93127W        W65552   3.356  23.708   4.814
93128W        W65553  16.212  21.671   0.255
93129W        W65554   4.724  44.471   4.643
93130W        W65555  32.520  20.607   4.531
93131W        W65556  29.719  22.211   3.343
93132W        W65557   6.714  23.609   3.138
93133W        W65558  13.603   3.326   5.395
93134W        W65559   9.053  12.839   1.985
93135W        W65560  30.144   8.371  14.024
93136W        W65561  33.144  31.507   2.449
93137W        W65562   5.797  36.062   4.812
93138W        W65563  29.480  38.796  11.083
93139W        W65564  11.086  24.203   3.171
93140W        W65565  10.249  10.398  13.417
93141W        W65566  42.994   4.466   4.482
93142W        W65567   7.971  37.028  13.528
93143W        W65568  14.695  32.385   1.330
93144W        W65569  16.536  42.362  11.477
93145W        W65570  35.314  29.927  11.504
93146W        W65571   1.631  36.029   3.661
93147W        W65572   1.878  36.796  12.880
93148W        W65573   4.012  18.343  12.594
93149W        W65574   2.719  38.658   3.396
93150W        W65575  34.981   9.021  13.566
93151W        W65576  37.124  39.499  11.646
93152W        W65577  33.488  34.512   2.392
93153W        W65578  36.287   3.893  14.363
93154W        W65579   8.384  22.378  12.787
93155W        W65580   0.344  32.837  13.428
93156W        W65581  32.679  25.462   1.855
93157W        W65582   6.401   1.358   1.299
93158W        W65583   8.410  19.799   3.238
93159W        W65584  32.861  22.694   0.592
93160W        W65585   0.122   3.318  11.909
93161W        W65586  25.418   8.385  10.626
93162W        W65587  21.878  36.117   2.239
93163W        W65588  24.033  21.215  11.020
93164W        W65589  10.611   0.568   1.702
93165W        W65590  18.955   8.478   2.217
93166W        W65591  25.533  17.556  12.648
93167W        W65592  24.244  42.384   4.193
93168W        W65593   1.694  17.559   2.781
93169W        W65594   6.394  24.706  13.342
93170W        W65595  39.270   5.869   0.778
93171W        W65596  14.838  30.154  14.262
93172W        W65597   2.782  41.339   4.266
93173W        W65598  36.075   1.762  13.396
93174W        W65599  37.915  19.876  10.602
93175W        W65600  10.465  41.565   2.319
93176W        W65601  22.222  29.142   2.550
93177W        W65602  29.283   7.066   0.857
93178W        W65603  32.428  34.144   3.572
93179W        W65604  31.666  28.105   1.032
93180W        W65605  29.557   4.202  13.772
93181W        W65606  34.975  17.594  14.307
93182W        W65607  24.652  44.562   3.324
93183W        W65608  43.665  28.647   2.783
93184W        W65609   6.136  44.476  10.604
93185W        W65610   4.301  19.051  12.887
93186W        W65611  39.466  38.089  12.553
93187W        W65612  36.297  42.259  14.787
93188W        W65613  33.947  15.252   0.227
93189W        W65614   6.208  16.681   0.649
93190W        W65615  44.881  26.211  11.200
93191W        W65616  31.113  18.340  12.512
93192W        W65617   2.323  30.683  12.115
93193W        W65618  24.140  23.200   3.645
93194W        W65619  43.120   5.882   3.045
93195W        W65620   1.729  23.441   2.213
93196W        W65621  19.256  43.782   3.608
93197W        W65622  44.991  42.071   2.166
93198W        W65623  31.418  35.279   2.582
93199W        W65624   9.560  29.943   1.865
93200W        W65625  24.590  32.365   4.741
93201W        W65626  30.061  17.418  14.887
93202W        W65627  31.028  14.594  12.506
93203W        W65628  30.034  36.635   1.960
93204W        W65629  35.981   5.776   5.043
93205W        W65630  22.801  29.025   4.749
93206W        W65631  30.510  34.273  12.174
93207W        W65632  29.424  43.025   0.548
93208W        W65633  40.878   1.927  12.450
93209W        W65634  40.918  12.263   0.266
93210W        W65635  32.159  20.663  13.593
93211W        W65636  42.286  14.507   3.951
93212W        W65637  20.637   4.320   2.296
93213W        W65638  21.417   1.604  12.075
93214W        W65639  44.155  22.334  11.158
93215W        W65640   1.988  43.999   3.380
93216W        W65641  27.035  36.367   1.684
93217W        W65642  13.534  37.333   1.333
93218W        W65643  12.136  12.850   4.727
93219W        W65644  14.725   7.459  11.238
93220W        W65645   9.802   9.245  14.807
93221W        W65646   9.554  22.178  14.478
93222W        W65647   7.903  19.815   4.251
93223W        W65648  43.556  34.828  10.139
93224W        W65649  35.185   4.957   2.772
93225W        W65650  11.896  21.167   4.379
93226W        W65651  13.833  32.969   2.756
93227W        W65652   0.855  40.984   2.710
93228W        W65653  24.025  24.115   2.259
93229W        W65654  11.244  18.913  14.227
93230W        W65655  33.342  23.106  13.550
93231W        W65656  19.183  40.991  11.490
93232W        W65657   0.804   4.940  13.087
93233W        W65658   2.806   0.002  14.544
93234W        W65659   3.287   4.755  12.947
93235W        W65660   6.089  40.940   4.039
93236W        W65661  12.976  18.995   0.298
93237W        W65662   9.589  41.025   3.306
93238W        W65663  23.175  44.935  14.047
93239W        W65664  43.253  44.844  10.438
93240W        W65665   0.549   3.496   1.890
93241W        W65666  35.362  42.660   2.820
93242W        W65667  40.329  23.969  13.376
93243W        W65668   0.119  13.706   2.453
93244W        W65669   0.479  22.704   4.585
93245W        W65670  11.814   3.251   0.030
93246W        W65671  39.887  36.199   1.795
93247W        W65672   3.156  34.564  13.398
93248W        W65673   3.838  37.263   1.958
93249W        W65674   3.721  24.995   1.917
93250W        W65675   7.674   6.747   2.962
93251W        W65676  27.503   4.800   4.924
93252W        W65677  11.728  38.877   4.508
93253W        W65678  30.335  14.819   0.913
93254W        W65679  28.632  29.484  13.046
93255W        W65680   8.506  33.594  10.704
93256W        W65681  14.171  30.606   3.204
93257W        W65682  19.331  36.211   3.159
93258W        W65683  19.158  35.680   3.358
93259W        W65684  31.847  31.416  12.956
93260W        W65685   4.110  38.358   1.775
93261W        W65686   0.989   6.391   3.791
93262W        W65687  28.028  38.273  13.071
93263W        W65688  25.528  30.378   1.848
93264W        W65689  12.174  41.349   2.221
93265W        W65690  42.677  14.181  14.351
93266W        W65691  41.093  36.443  11.635
93267W        W65692  41.012  36.773   3.201
93268W        W65693   9.431  16.183   1.347
93269W        W65694  29.324  12.847   3.258
93270W        W65695  43.808  20.951   9.923
93271W        W65696  33.886  16.234  12.065
93272W        W65697   6.667   3.701  14.313
93273W        W65698  18.273  22.139  12.490
93274W        W65699  26.638  31.477  13.019
93275W        W65700   8.333  22.481   1.225
93276W        W65701   5.543  41.855  11.982
93277W        W65702   6.393  38.459  11.611
93278W        W65703  18.571   2.205  13.318
93279W        W65704  20.625  15.140  12.575
93280W        W65705   0.421   8.640   2.367
93281W        W65706  13.144  15.270  14.823
93282W        W65707   5.377  10.452  10.376
93283W        W65708  38.351  24.613   4.619
93284W        W65709  29.879  19.273   4.233
93285W        W65710  28.021  30.546   1.286
93286W        W65711  15.101  15.695   1.366
93287W        W65712   8.665  24.742   1.701
93288W        W65713  39.581  18.490   1.490
93289W        W65714   5.291  40.342  14.998
93290W        W65715  21.647  39.075   0.530
93291W        W65716  37.007  18.667   2.939
93292W        W65717  28.112  42.881  14.788
93293W        W65718  15.644  23.243   4.760
93294W        W65719   4.423  13.414  13.518
93295W        W65720   5.720  33.143   4.483
93296W        W65721   5.209  36.938   1.904
93297W        W65722  33.466  10.994   3.468
93298W        W65723  24.170  36.862  12.832
93299W        W65724  16.675  18.307  10.776
93300W        W65725  17.573  26.935  10.668
93301W        W65726  10.835  11.873   0.895
93302W        W65727  35.946  12.368   3.431
93303W        W65728   5.696  18.184  14.365
93304W        W65729  22.637  27.088   3.142
93305W        W65730  44.273   6.659  13.963
93306W        W65731  41.838  39.852  14.545
93307W        W65732  30.998  34.012   0.221
93308W        W65733  36.993  12.257  10.410
93309W        W65734  36.047  21.166   9.938
93310W        W65735  11.929  29.721   0.862
93311W        W65736  12.811  19.638  10.325
93312W        W65737  21.728  37.480  11.462
93313W        W65738  36.381  34.380   3.850
93314W        W65739  44.283  14.578   3.128
93315W        W65740   8.017  35.043  14.911
93316W        W65741  27.288  15.795   0.821
93317W        W65742   3.323  17.793   4.132
93318W        W65743   4.155  38.493  14.970
93319W        W65744  35.732   8.748   4.943
93320W        W65745  25.748  29.020   5.077
93321W        W65746   4.639  41.061   1.333
93322W        W65747   6.713  14.892   1.944
93323W        W65748  19.469  13.380   3.037
93324W        W65749  14.360  35.128   2.960
93325W        W65750  38.834  41.519   2.675
93326W        W65751  32.877   7.316  13.456
93327W        W65752  30.011   3.322  11.678
93328W        W65753   3.075  44.962  10.676
93329W        W65754  10.349  15.142  14.414
93330W        W65755  32.121  33.423  10.481
93331W        W65756   7.746  27.548   4.656
93332W        W65757  36.838   0.555  11.075
93333W        W65758  26.749  12.902  13.807
93334W        W65759   0.728  33.440  10.715
93335W        W65760  20.879  23.083  11.145
93336W        W65761  33.881  22.561  11.415
93337W        W65762  13.286  10.130  12.275
93338W        W65763   4.506  14.663  13.183
93339W        W65764   1.695  21.979   1.430
93340W        W65765  27.972   7.395   1.226
93341W        W65766  33.617   0.473  14.041
93342W        W65767  26.781   7.374   3.086
93343W        W65768  38.608  28.729  12.361
93344W        W65769  42.422  23.967  14.012
93345W        W65770  29.537  37.874  12.990
93346W        W65771  28.043  31.071  13.116
93347W        W65772  31.144  13.153   4.373
93348W        W65773  17.030  21.314   2.336
93349W        W65774  27.698  23.215   4.492
93350W        W65775  27.643   3.798  14.089
93351W        W65776  15.607  37.572   2.339
93352W        W65777   1.279  41.959  11.624
93353W        W65778  28.745  35.853  10.765
93354W        W65779  18.987  29.558   2.456
93355W        W65780  18.199  15.183  14.068
93356W        W65781  21.760  32.515   0.701
93357W        W65782  25.025  33.971   2.308
93358W        W65783  37.557   9.929   0.833
93359W        W65784  37.385  15.355  12.824
93360W        W65785   4.727   6.234  10.730
93361W        W65786  13.166  13.618   1.238
93362W        W65787  10.877  37.399   3.172
93363W        W65788   3.257  24.713   4.379
93364W        W65789  14.186   4.175  10.211
93365W        W65790  37.548  13.764  12.136
93366W        W65791  33.183  44.485  11.601
93367W        W65792   6.323  43.398   2.148
93368W        W65793  15.106   7.845  14.748
93369W        W65794  43.961  37.724   1.781
93370W        W65795   0.012   0.532  14.019
93371W        W65796   3.780  18.334   3.799
93372W        W65797   4.481  19.676  11.960
93373W        W65798  29.884  25.208  12.656
93374W        W65799  39.541  19.027  10.588
93375W        W65800  33.090   3.408  12.047
93376W        W65801   2.189  17.836  13.683
93377W        W65802  33.473  23.092   1.714
93378W        W65803  24.616  36.921   1.186
93379W        W65804   2.984  34.084   2.767
93380W        W65805  18.186   2.379   1.102
93381W        W65806   1.808  17.060   4.561
93382W        W65807  26.443   2.940   2.715
93383W        W65808  17.745  36.076   3.267
93384W        W65809  42.851   3.588   2.936
93385W        W65810  44.148  29.816   0.524
93386W        W65811   8.828  22.384  10.579
93387W        W65812  41.955  41.138  14.950
93388W        W65813  17.621   9.244   3.328
93389W        W65814   2.996  28.996   3.975
93390W        W65815  27.360  21.796  12.919
93391W        W65816  27.332  14.740  13.462
93392W        W65817   6.569   4.324  13.917
93393W        W65818   3.715  31.116  13.464
93394W        W65819  15.006  15.038   4.094
93395W        W65820   6.788  11.796   0.961
93396W        W65821  18.722  27.823   3.071
93397W        W65822   9.634  10.332   1.715
93398W        W65823  18.756   9.641   4.677
93399W        W65824  19.152  18.085  12.106
93400W        W65825  31.149  25.105   2.736
93401W        W65826  28.905  29.214   2.139
93402W        W65827  39.542   2.361  12.513
93403W        W65828  12.914  18.091  14.587
93404W        W65829  32.036   1.612  11.636
93405W        W65830  43.233   2.722   0.896
93406W        W65831  27.717  37.745   2.661
93407W        W65832  14.551  25.636   3.093
93408W        W65833  13.609  40.792  13.537
93409W        W65834  32.116   8.541   4.972
93410W        W65835  32.375  13.052  14.684
93411W        W65836   7.789   2.522  14.848
93412W        W65837  41.894   9.473   0.300
93413W        W65838  36.817   1.776   4.707
93414W        W65839  28.583   0.355  12.885
93415W        W65840  18.792   0.108   2.826
93416W        W65841  28.078  24.096  13.369
93417W        W65842  23.987  18.257  13.618
93418W        W65843  15.289  29.919   4.485
93419W        W65844  25.156   2.735  11.563
93420W        W65845  28.454  27.890  14.406
93421W        W65846  22.086  12.251   1.440
93422W        W65847   6.959  27.010   4.841
93423W        W65848   7.493  43.056  12.835
93424W        W65849  29.315   8.595  10.272
93425W        W65850  15.732   2.269   0.050
93426W        W65851   2.835  11.613  12.404
93427W        W65852   3.643  42.275  14.490
93428W        W65853  11.596   2.296   0.125
93429W        W65854  20.823  37.612   2.689
93430W        W65855  32.723   2.267   3.293
93431W        W65856   1.145  33.505  14.499
93432W        W65857  21.247   9.706   4.129
93433W        W65858  21.384  20.058  11.220
93434W        W65859  23.978  22.699  14.873
93435W        W65860  44.335  19.818   5.060
93436W        W65861  23.649  27.407  12.516
93437W        W65862  36.120  40.803  12.949
93438W        W65863   8.967  20.803  10.336
93439W        W65864  29.561   3.920   3.866
93440W        W65865  12.793  32.700   1.904
93441W        W65866  24.470  18.740   3.460
93442W        W65867   6.325  31.361   4.197
93443W        W65868   8.950   5.946   4.156
93444W        W65869   5.370  38.104   1.489
93445W        W65870  30.432   0.013   1.515
93446W        W65871  28.996  16.745  12.977
93447W        W65872  12.318  14.580   2.371
93448W        W65873   7.232  25.627  12.955
93449W        W65874  39.058  41.270   0.629
93450W        W65875  26.198  26.600   0.008
93451W        W65876  38.508  24.057   2.648
93452W        W65877  39.682   6.605   4.305
93453W        W65878  26.881  14.280   0.332
93454W        W65879  17.543  18.592   0.786
93455W        W65880  15.638  41.750  13.824
93456W        W65881  16.051   3.922   0.340
93457W        W65882   2.179  39.543  11.078
93458W        W65883   5.770  11.693  12.517
93459W        W65884   2.481  22.616  12.109
93460W        W65885  28.104  28.520  13.854
93461W        W65886  30.436  27.007   2.339
93462W        W65887  11.766  27.460   3.126
93463W        W65888  32.088  18.070  10.823
93464W        W65889  37.876  32.668   3.791
93465W        W65890  30.477  29.667   0.529
93466W        W65891  16.127  33.903   3.741
93467W        W65892  44.331   0.004  11.528
93468W        W65893  23.215   5.248  14.694
93469W        W65894  21.770  21.109   2.321
93470W        W65895   7.545  33.650   3.298
93471W        W65896   0.075  14.454  11.527
93472W        W65897  38.555   7.324   5.018
93473W        W65898  36.312  23.732   2.672
93474W        W65899  16.180  43.086  10.264
93475W        W65900  34.039  37.341  12.874
93476W        W65901  25.959  31.518   2.653
93477W        W65902  20.200  28.725   1.477
93478W        W65903  31.036   8.855  10.735
93479W        W65904  21.255  22.503  14.871
93480W        W65905  30.944  23.724  14.909
93481W        W65906  30.273   3.455  12.096
93482W        W65907   5.642  22.027  13.990
93483W        W65908  16.872   6.978  12.302
93484W        W65909   7.197  44.834  11.722
93485W        W65910   7.590  17.802  14.238
93486W        W65911   3.886  11.177   2.751
93487W        W65912  29.373  14.255  14.499
93488W        W65913   6.563  32.668  14.283
93489W        W65914  37.813  38.794  10.681
93490W        W65915   4.956  38.795  10.215
93491W        W65916  41.098  21.816   1.180
93492W        W65917  11.065  17.883   1.923
93493W        W65918  13.713  43.449   2.912
93494W        W65919  27.969   5.122   4.217
93495W        W65920   4.285  19.513   2.431
93496W        W65921  24.857  38.184   0.552
93497W        W65922  15.538   1.367   0.836
93498W        W65923  23.442   7.812  14.516
93499W        W65924  10.416  26.881   1.330
93500W        W65925   4.728  27.403   0.439
93501W        W65926  38.179  23.017  13.373
93502W        W65927  17.373   7.842  12.555
93503W        W65928  41.423  37.273   1.357
93504W        W65929  37.449  20.719  13.583
93505W        W65930  39.862  11.039   0.756
93506W        W65931  42.681   4.784  13.915
93507W        W65932  35.974   3.323   0.869
93508W        W65933   7.404  18.686   4.344
93509W        W65934  21.542  33.770  11.103
93510W        W65935   8.762  44.258   3.704
93511W        W65936  22.452  35.531   3.208
93512W        W65937  29.180  37.884  11.589
93513W        W65938  11.376  30.313  14.299
93514W        W65939  38.592   9.267   2.357
93515W        W65940   8.994  23.090  13.478
93516W        W65941  36.543  24.973  13.942
93517W        W65942  10.054  12.289   2.160
93518W        W65943  26.695   8.311  12.624
93519W        W65944  34.860   1.749  10.784
93520W        W65945  43.885  30.813   0.364
93521W        W65946  40.558  26.583   9.962
93522W        W65947  11.316  12.843   3.246
93523W        W65948   0.941   8.752  14.511
93524W        W65949  10.933  43.290  14.742
93525W        W65950   4.199  21.650   3.875
93526W        W65951  22.044  29.624  12.426
93527W        W65952   4.917  20.633  11.985
93528W        W65953  16.559  18.301   1.444
93529W        W65954   9.902  18.023   2.828
93530W        W65955   1.634  38.107   4.565
93531W        W65956  20.520  13.183  11.084
93532W        W65957  42.238  36.959   2.245
93533W        W65958  21.265  38.796  11.959
93534W        W65959   1.231  24.033  11.666
93535W        W65960   4.690  42.605   4.640
93536W        W65961  35.439  39.246   3.818
93537W        W65962  16.831   2.924   4.644
93538W        W65963  31.129   2.153   0.910
93539W        W65964  36.697  13.089   4.390
93540W        W65965   3.823  10.557   9.868
93541W        W65966  35.578  41.435   1.797
93542W        W65967  35.647  18.190   1.846
93543W        W65968  22.293  14.230   4.807
93544W        W65969  25.223  33.947   3.329
93545W        W65970   3.429  26.096  10.934
93546W        W65971  11.601  11.291   3.523
93547W        W65972  26.190  20.133   4.056
93548W        W65973  13.817  16.222   3.706
93549W        W65974   6.620  26.739   0.783
93550W        W65975  35.000  28.624  12.510
93551W        W65976  40.900  10.590   2.447
93552W        W65977  20.054  29.160   4.976
93553W        W65978  16.329  12.746  13.786
93554W        W65979  12.682   2.491   4.169
93555W        W65980  33.651  42.426  14.368
93556W        W65981  42.715   2.714   0.991
93557W        W65982  16.512  24.937   3.658
93558W        W65983  21.467  19.623   4.232
93559W        W65984   7.787  24.460  13.246
93560W        W65985  13.922  26.125   1.971
93561W        W65986  21.487   4.209  14.733
93562W        W65987  12.381   6.294  14.377
93563W        W65988   0.779  19.220  10.604
93564W        W65989   0.793  43.343   4.104
93565W        W65990  33.169  12.703   0.550
93566W        W65991  23.785  34.862   2.015
93567W        W65992   8.335  26.651   4.207
93568W        W65993   6.832  24.383  13.309
93569W        W65994   2.703  21.433  10.898
93570W        W65995  16.719   3.184  12.567
93571W        W65996  16.120  27.237   1.926
93572W        W65997  12.380  29.070   2.751
93573W        W65998   0.385  36.470  12.015
93574W        W65999   8.826   9.539   3.416
93575W        W66000  23.668   5.921   3.771
93576W        W66001  38.478  21.280   2.391
93577W        W66002   4.982  42.321  14.689
93578W        W66003   2.226  24.344  14.487
93579W        W66004   5.800  34.084  13.081
93580W        W66005   4.437  33.780   2.335
93581W        W66006   1.161  40.637  14.054
93582W        W66007  14.675   7.830   0.615
93583W        W66008   3.645  15.108  14.472
93584W        W66009  23.586  29.238  13.902
93585W        W66010  27.952   3.151  12.932
93586W        W66011  40.491  27.045   3.682
93587W        W66012   2.385  14.109   4.553
93588W        W66013   9.472  21.965   3.833
93589W        W66014  17.685   5.213  13.833
93590W        W66015   2.968  16.655   0.930
93591W        W66016  16.803   9.592  12.616
93592W        W66017  34.119  37.938   1.637
93593W        W66018   4.873  11.856  14.812
93594W        W66019  29.500   1.941   3.489
93595W        W66020  12.657  20.618  12.006
93596W        W66021   2.947  29.474  11.994
93597W        W66022  42.846  21.896   9.896
93598W        W66023  22.175  41.978   0.911
93599W        W66024  42.724  32.597   4.169
93600W        W66025  34.268  31.438  10.504
93601W        W66026   1.768   6.780  13.502
93602W        W66027  17.513  44.470  12.096
93603W        W66028  32.922  11.257  11.769
93604W        W66029   0.889  13.254   2.425
93605W        W66030  37.278  29.052  11.345
93606W        W66031  37.867  42.960   4.950
93607W        W66032   6.166  31.264  14.510
93608W        W66033  27.037  36.386  10.849
93609W        W66034  10.775  24.674   3.919
93610W        W66035   7.636  40.307  14.456
93611W        W66036  41.520  13.386  12.451
93612W        W66037  35.865  10.419  11.632
93613W        W66038  40.934  27.245  11.568
93614W        W66039  39.752  12.226   4.169
93615W        W66040  15.747  16.818   1.767
93616W        W66041  30.199  34.070  13.393
93617W        W66042  41.964  27.928   4.586
93618W        W66043  38.559  10.285   0.382
93619W        W66044   0.072   4.278  10.813
93620W        W66045  37.156  44.174  12.851
93621W        W66046  37.622   4.774   2.155
93622W        W66047  32.714  18.193   4.531
93623W        W66048  15.180  16.536   2.664
93624W        W66049  28.794  25.325   3.443
93625W        W66050  17.993  29.554  10.551
93626W        W66051  41.835  22.188  12.684
93627W        W66052  36.046  35.998  13.832
93628W        W66053  23.293  24.470  12.974
93629W        W66054  24.410  40.884  13.019
93630W        W66055  14.644  36.424  14.368
93631W        W66056  42.839  18.884  13.335
93632W        W66057  36.739   9.391   0.454
93633W        W66058  38.500  41.461   1.751
93634W        W66059   8.134  29.310   2.789
93635W        W66060  14.821  16.118   1.272
93636W        W66061  20.157  34.330   3.188
93637W        W66062  18.664   9.076  14.299
93638W        W66063  22.127  16.838  12.316
93639W        W66064   7.123   6.433  10.751
93640W        W66065  21.063  10.445  12.516
93641W        W66066  31.232  37.159   1.098
93642W        W66067   5.688  30.077  11.037
93643W        W66068  42.188   7.118   1.334
93644W        W66069   1.615   4.169  10.550
93645W        W66070  37.403  43.048   1.236
93646W        W66071  20.177   9.309  10.771
93647W        W66072  26.951  44.623   3.084
93648W        W66073  19.361  42.845  11.368
93649W        W66074  16.565   5.238   1.361
93650W        W66075  26.534   4.821   4.466
93651W        W66076   5.621  12.167  14.354
93652W        W66077   4.204  25.933  12.707
93653W        W66078  30.652   3.840  14.373
93654W        W66079   1.002  10.705  11.120
93655W        W66080  34.397  21.276  12.362
93656W        W66081  37.494   9.176  14.056
93657W        W66082   1.465  24.176   1.929
93658W        W66083  26.969  15.592   3.250
93659W        W66084   5.071   3.300   3.958
93660W        W66085  13.656   4.232  10.184
93661W        W66086  41.859  36.159  12.142
93662W        W66087  20.590  24.527   4.666
93663W        W66088  13.321  25.957  11.460
93664W        W66089   4.221  20.725   1.623
93665W        W66090   0.481  34.338   5.233
93666W        W66091   2.464  26.707  11.875
93667W        W66092  32.342  20.126  11.482
93668W        W66093  17.811  28.588   3.269
93669W        W66094  11.188  38.085   3.699
93670W        W66095  27.621  20.764   1.954
93671W        W66096   3.732  12.154   4.242
93672W        W66097  34.994  22.981  11.528
93673W        W66098  27.398  33.802  11.998
93674W        W66099   0.303   2.722  14.256
93675W        W66100  36.688   9.007   9.753
93676W        W66101  28.964  24.371  13.534
93677W        W66102  32.913  39.554  13.037
93678W        W66103  16.070   9.755  12.537
93679W        W66104   4.676   6.128  13.428
93680W        W66105  21.261   8.192  11.100
93681W        W66106  39.278   5.898   2.028
93682W        W66107  32.932  20.488  14.098
93683W        W66108  44.739  13.750   0.915
93684W        W66109  24.975  22.103  13.376
93685W        W66110  37.028  38.118  12.335
93686W        W66111  44.507   0.751   0.442
93687W        W66112  44.940  13.687   1.946
93688W        W66113  35.954  28.426   1.891
93689W        W66114   4.094  26.703   2.142
93690W        W66115   9.557  17.887  10.735
93691W        W66116  19.662  37.394  10.781
93692W        W66117  38.723   9.439   3.546
93693W        W66118  12.607  30.495   3.317
93694W        W66119  19.759  31.924   2.315
93695W        W66120   1.762  28.141   1.766
93696W        W66121  38.487  34.518   4.181
93697W        W66122  28.356  40.106   5.000
93698W        W66123   5.138   9.140  11.393
93699W        W66124  22.929   0.193  11.329
93700W        W66125  22.828  29.829   5.049
93701W        W66126  15.855  22.069   0.299
93702W        W66127  11.123   2.796  13.473
93703W        W66128  28.392  26.947  13.547
93704W        W66129   8.792  41.868  13.536
93705W        W66130  43.946  26.144   3.323
93706W        W66131  34.871  44.429   4.917
93707W        W66132  34.431  37.917  12.582
93708W        W66133  18.002   4.835  11.092
93709W        W66134  42.534  29.976  13.059
93710W        W66135  20.327  38.003  13.081
93711W        W66136  15.650   6.683   0.847
93712W        W66137  10.814  25.081  12.043
93713W        W66138  44.374  39.510  14.826
93714W        W66139  20.448   5.228  11.861
93715W        W66140  14.347  20.651  14.981
93716W        W66141  39.901   8.741   0.970
93717W        W66142  20.756  28.981  13.230
93718W        W66143  38.300  34.974   3.290
93719W        W66144  31.856  31.026  10.533
93720W        W66145  17.591  13.082   2.842
93721W        W66146  38.045  21.271   0.779
93722W        W66147  41.271  38.400  10.728
93723W        W66148   0.882  36.856   3.103
93724W        W66149  38.396  32.326  13.763
93725W        W66150  33.688  20.208   4.066
93726W        W66151  33.353  21.933  10.774
93727W        W66152  16.313  42.238   3.656
93728W        W66153  40.759  31.610  11.176
93729W        W66154  24.795  29.910   2.737
93730W        W66155  24.335   0.028   1.156
93731W        W66156   7.136  27.742   3.614
93732W        W66157  10.341  25.662  14.797
93733W        W66158  40.847   6.151  13.191
93734W        W66159   3.180  14.813   1.210
93735W        W66160  22.158  39.411  13.386
93736W        W66161  25.468  24.164   2.847
93737W        W66162  17.127   8.851  10.171
93738W        W66163  19.285   0.746   3.303
93739W        W66164   3.688  35.472   2.690
93740W        W66165  25.301  27.106   4.099
93741W        W66166  19.345  19.700  11.743
93742W        W66167   9.809  41.300  12.470
93743W        W66168  23.670  37.688   1.714
93744W        W66169  39.799  32.113   3.865
93745W        W66170  39.374  33.378   3.746
93746W        W66171  39.321  14.774  11.240
93747W        W66172  37.064  21.062   3.818
93748W        W66173  43.013  33.962  10.252
93749W        W66174  16.593  20.767   2.771
93750W        W66175  28.161  15.758   2.402
93751W        W66176   5.760  28.135   2.726
93752W        W66177  13.118  11.244   3.895
93753W        W66178  15.758  41.927  11.576
93754W        W66179  22.015  11.197   2.758
93755W        W66180  10.523  31.854  12.433
93756W        W66181  26.645  43.942   4.159
93757W        W66182   0.750  31.539   5.079
93758W        W66183  31.042  22.590  11.681
93759W        W66184   4.458  15.423   4.464
93760W        W66185  28.516   2.379   0.764
93761W        W66186  27.012  28.142  10.917
93762W        W66187  34.306  32.090  11.152
93763W        W66188  20.572  39.352  10.699
93764W        W66189   8.412  22.757   3.224
93765W        W66190  10.752  37.382   1.284
93766W        W66191  19.622  35.112   2.279
93767W        W66192  26.014  43.352  12.055
93768W        W66193  32.760   9.715   3.672
93769W        W66194  34.082  38.440  13.036
93770W        W66195  34.019  34.861   3.288
93771W        W66196  19.284  10.686  11.835
93772W        W66197  23.223  34.861  13.745
93773W        W66198  12.056  19.756   4.597
93774W        W66199  37.947   0.529  12.504
93775W        W66200  23.251  20.116  10.646
93776W        W66201  26.271  28.490   3.627
93777W        W66202  40.323  44.540   4.047
93778W        W66203  36.052  22.108   0.924
93779W        W66204  25.682   7.460  12.441
93780W        W66205  25.636   7.893  13.403
93781W        W66206  38.475  39.363   3.567
93782W        W66207  33.616   0.246  12.396
93783W        W66208  43.721   9.923   4.326
93784W        W66209  25.518  11.271  12.743
93785W        W66210  14.261   8.961  11.174
93786W        W66211  11.117  28.381  14.831
93787W        W66212   9.203  24.216  14.747
93788W        W66213  28.213  41.576   2.372
93789W        W66214  16.321  14.350   1.373
93790W        W66215  30.052  30.803   2.763
93791W        W66216  18.056  39.316  12.141
93792W        W66217   9.206   2.030   1.415
93793W        W66218  14.943  42.256   2.734
93794W        W66219  11.174  27.104   0.239
93795W        W66220   1.170   6.379  10.728
93796W        W66221  28.412  33.393  13.397
93797W        W66222  10.920  19.718   3.196
93798W        W66223  35.554  14.611  14.332
93799W        W66224  35.785   4.955   1.231
93800W        W66225   4.208  19.196   2.037
93801W        W66226   8.299  10.130   2.399
93802W        W66227  30.590  41.390  12.412
93803W        W66228  38.946  43.303  10.942
93804W        W66229   8.487  41.074   1.318
93805W        W66230   2.550  17.353  13.012
93806W        W66231  29.619  31.675  12.019
93807W        W66232   4.971   4.448   2.904
93808W        W66233  40.485  28.216  14.978
93809W        W66234  42.784  23.039   4.572
93810W        W66235  21.092  40.903   3.111
93811W        W66236  38.497  10.596  10.639
93812W        W66237  23.700  30.643   0.938
93813W        W66238   1.950  44.950   3.754
93814W        W66239  18.064  29.624  11.398
93815W        W66240  24.840  12.110  14.944
93816W        W66241  23.578  38.895   0.227
93817W        W66242  35.785  15.716   0.773
93818W        W66243  15.126   1.865  10.567
93819W        W66244  26.109  39.707   4.631
93820W        W66245  20.024  21.978  11.973
93821W        W66246  30.544   8.418  11.913
93822W        W66247  35.470  37.460   4.546
93823W        W66248  22.111   5.777   4.850
93824W        W66249  42.732  44.551   0.573
93825W        W66250   2.240   4.951  12.929
93826W        W66251  24.283  25.022   5.022
93827W        W66252  19.740  38.683   4.101
93828W        W66253  11.150  44.734   1.140
93829W        W66254   6.848  27.502  12.059
93830W        W66255  42.943  29.434  14.013
93831W        W66256   1.261   0.347  14.289
93832W        W66257  21.185   6.780   4.758
93833W        W66258   0.828  10.194   0.956
93834W        W66259  32.231   9.266   4.403
93835W        W66260   8.117  12.443   0.857
93836W        W66261  37.603  11.800   3.269
93837W        W66262  33.316   9.267  12.001
93838W        W66263  16.517  10.702   4.209
93839W        W66264  24.208  12.641   0.254
93840W        W66265  27.481  21.301  13.028
93841W        W66266   1.116  36.056   3.684
93842W        W66267  34.409  12.101  11.041
93843W        W66268  22.306   6.791   1.775
93844W        W66269  17.508  15.636  13.355
93845W        W66270  38.067  13.390   4.386
93846W        W66271  31.054  10.160   3.272
93847W        W66272  27.480  36.796  11.967
93848W        W66273  14.247  29.508   1.890
93849W        W66274  13.973   2.711   0.383
93850W        W66275  27.501   1.291   1.682
93851W        W66276  18.208  33.996   5.530
93852W        W66277  44.716  35.916   2.351
93853W        W66278  36.118  14.771   2.870
93854W        W66279  34.661  18.214  12.975
93855W        W66280  38.113  35.631   4.777
93856W        W66281   8.209  35.589  12.040
93857W        W66282  33.389   1.305   2.769
93858W        W66283  26.557  44.104  10.579
93859W        W66284  13.344  17.791  10.770
93860W        W66285  22.425  19.030  11.746
93861W        W66286   3.237  11.388  11.289
93862W        W66287  16.980  38.585  11.601
93863W        W66288  14.390   0.519   4.105
93864W        W66289  36.048   9.848   4.226
93865W        W66290  18.248  29.145  13.497
93866W        W66291  36.660   6.805   4.875
93867W        W66292  38.465   8.987   9.732
93868W        W66293  19.789  38.143   1.586
93869W        W66294  18.040  20.323   2.277
93870W        W66295  32.838  18.429  12.401
93871W        W66296   3.467  10.365   3.218
93872W        W66297   7.934  28.175   4.098
93873W        W66298  43.987  30.080   2.302
93874W        W66299   6.254   3.217   4.665
93875W        W66300  41.661   1.733   1.581
93876W        W66301   3.215  43.591  14.837
93877W        W66302   9.249  36.050  13.912
93878W        W66303  33.895  21.990  10.686
93879W        W66304  16.497  10.017  12.578
93880W        W66305  26.230  22.118  10.515
93881W        W66306  21.687  22.431   1.747
93882W        W66307  33.446  19.564  11.094
93883W        W66308  12.289   3.158   1.738
93884W        W66309  32.656  21.312   1.166
93885W        W66310   8.968  30.660   2.760
93886W        W66311  42.970   3.145   5.180
93887W        W66312   0.898   5.686  13.641
93888W        W66313  23.486   8.192  13.547
93889W        W66314  38.444   7.936  12.491
93890W        W66315  15.234  30.359  11.363
93891W        W66316  19.165   4.057  12.264
93892W        W66317  29.117  12.361  13.431
93893W        W66318  18.148   1.464   3.108
93894W        W66319  22.193  11.283  13.034
93895W        W66320  36.766  34.366   2.764
93896W        W66321  10.264  28.704  11.134
93897W        W66322  37.824  24.929   1.416
93898W        W66323  30.208  26.728  11.285
93899W        W66324  32.976   1.434  10.712
93900W        W66325  17.723  30.991   0.531
93901W        W66326  28.446  24.389  12.514
93902W        W66327  14.182  26.065   0.631
93903W        W66328  25.820  24.506  12.014
93904W        W66329  13.143   6.413   4.372
93905W        W66330  42.277  28.665   4.079
93906W        W66331  25.420  39.870  14.877
93907W        W66332  13.176  14.122   3.681
93908W        W66333  22.608   2.253   9.763
93909W        W66334  30.264  32.962   3.700
93910W        W66335   9.845  37.324  10.729
93911W        W66336  22.781  31.666  13.013
93912W        W66337  11.546  30.154  11.997
93913W        W66338  30.400   6.115   1.765
93914W        W66339  22.537  43.347  11.433
93915W        W66340   6.181  37.122  13.931
93916W        W66341  13.115  26.102   2.145
93917W        W66342   1.858  24.736   0.761
93918W        W66343  18.709  11.614  10.781
93919W        W66344   4.819   3.529   1.039
93920W        W66345  29.716  25.007  10.730
93921W        W66346  32.981  37.414   1.408
93922W        W66347  27.044  44.269  11.493
93923W        W66348  11.728  37.249   3.686
93924W        W66349  14.072  35.664  11.915
93925W        W66350   1.311  44.245  14.099
93926W        W66351   9.278   2.850  14.420
93927W        W66352  30.876  25.165  14.909
93928W        W66353  30.003  19.736   4.947
93929W        W66354  21.289  29.167  12.395
93930W        W66355  32.905   7.679  11.451
93931W        W66356  22.038  26.043  13.842
93932W        W66357   3.280  44.314   4.089
93933W        W66358  30.058   2.781   3.729
93934W        W66359  32.540  37.816  10.473
93935W        W66360  41.903  16.214   4.183
93936W        W66361   8.740  30.870   4.091
93937W        W66362  43.575  30.947  10.384
93938W        W66363   9.599  26.223   3.727
93939W        W66364  40.534  17.804  10.622
93940W        W66365  13.539   7.928   2.822
93941W        W66366  30.752  34.917   1.477
93942W        W66367  10.818  37.643   0.839
93943W        W66368   6.126  11.747   3.630
93944W        W66369  38.525   6.761  10.596
93945W        W66370   2.918  30.940   1.597
93946W        W66371   2.786   2.583   0.547
93947W        W66372   0.122  40.662  14.233
93948W        W66373  30.052  37.105  13.586
93949W        W66374  44.228  21.244  13.063
93950W        W66375  12.375  16.394  14.791
93951W        W66376  17.495  25.762   0.150
93952W        W66377  44.733  41.259  11.141
93953W        W66378  11.756   2.600  12.607
93954W        W66379  30.932  11.955  12.652
93955W        W66380  19.700  30.348  13.852
93956W        W66381  38.640  43.746   4.512
93957W        W66382  15.257  10.699   1.467
93958W        W66383   1.766   0.371  14.376
93959W        W66384  39.479   6.401   0.674
93960W        W66385  12.787  41.325  13.486
93961W        W66386  13.634  11.466   1.099
93962W        W66387   9.593  39.460   3.207
93963W        W66388  33.698  44.608  13.566
93964W        W66389  31.843  16.098   3.382
93965W        W66390  40.935  34.562   4.154
93966W        W66391  22.370  17.991   1.716
93967W        W66392  14.174   5.905   0.491
93968W        W66393  19.676   1.469   2.397
93969W        W66394  17.582  23.381  13.644
93970W        W66395  41.419  35.489  11.736
93971W        W66396  25.713  35.637   1.202
93972W        W66397  18.949   6.798  14.163
93973W        W66398   0.985  43.019   3.762
93974W        W66399  23.430   9.409  10.216
93975W        W66400   8.368  10.063   5.043
93976W        W66401  18.263  43.506   0.935
93977W        W66402   3.316  42.639  12.907
93978W        W66403  16.859  29.130   4.918
93979W        W66404  18.122   1.179   2.663
93980W        W66405  33.125  42.822   1.940
93981W        W66406  11.406  10.828   4.470
93982W        W66407  23.679  43.324  13.008
93983W        W66408  32.517  32.627   4.211
93984W        W66409  24.230   8.465  12.838
93985W        W66410  19.947  23.081  12.088
93986W        W66411  41.277  25.411  11.544
93987W        W66412  35.900  39.273  11.082
93988W        W66413  40.987  32.637   2.248
93989W        W66414  16.747  41.950  10.693
93990W        W66415   4.884  35.270  11.027
93991W        W66416   4.367  32.605  11.889
93992W        W66417   9.199  39.616  12.400
93993W        W66418  32.583  12.234   0.794
93994W        W66419  16.410  22.140  12.449
93995W        W66420  23.032  26.579   0.412
93996W        W66421  14.710   2.976  12.779
93997W        W66422  26.038   7.095  13.634
93998W        W66423  28.504  19.550  10.737
93999W        W66424   9.003  27.717  13.627
94000W        W66425  20.295   6.879   1.698
94001W        W66426  26.058   5.322  10.652
94002W        W66427   5.777   7.949  14.328
94003W        W66428  29.426   8.198  13.498
94004W        W66429  19.966  25.752   1.418
94005W        W66430  27.236  15.167   3.158
94006W        W66431  23.572  33.792  12.013
94007W        W66432  36.895   2.790   1.970
94008W        W66433  26.100  39.693   2.661
94009W        W66434  25.203  18.766  12.971
94010W        W66435  32.987  20.797   0.881
94011W        W66436  24.376  13.009   4.955
94012W        W66437   8.170   9.378   0.224
94013W        W66438  41.484   1.936   2.683
94014W        W66439  13.988   0.885  12.342
94015W        W66440   9.500  12.134   2.342
94016W        W66441  23.424   5.246   2.652
94017W        W66442   3.836  38.710   5.040
94018W        W66443  43.251  10.122   1.867
94019W        W66444  11.092   7.726  14.328
94020W        W66445  33.351   1.345   1.850
94021W        W66446  14.172  19.592   0.699
94022W        W66447  39.264  16.013  11.157
94023W        W66448  15.359   7.352  10.027
94024W        W66449  31.120  20.952  11.251
94025W        W66450   2.792  34.538  14.464
94026W        W66451  35.172  31.964   1.671
94027W        W66452  22.179  17.530   1.409
94028W        W66453  14.137   8.459   3.704
94029W        W66454  27.223   0.746   1.348
94030W        W66455  28.023  40.898  12.061
94031W        W66456  17.731  32.856  12.446
94032W        W66457  37.026  13.983  10.670
94033W        W66458  43.334  39.721   3.877
94034W        W66459  16.543  11.246  14.926
94035W        W66460  30.050  23.810   4.093
94036W        W66461   7.285  34.654   4.264
94037W        W66462  26.053  40.056   1.699
94038W        W66463   8.883  16.615  13.488
94039W        W66464  25.528   0.040   3.844
94040W        W66465  19.673  37.852   5.193
94041W        W66466  11.110  31.538  12.067
94042W        W66467  35.520  16.268  11.641
94043W        W66468   1.710  16.289   3.269
94044W        W66469  29.705  32.965  11.351
94045W        W66470  25.155   8.271   2.856
94046W        W66471  12.610  27.560   2.459
94047W        W66472   4.908  22.611   0.523
94048W        W66473   2.365  34.268   1.272
94049W        W66474   9.455   3.353  14.096
94050W        W66475  44.792   7.201   3.423
94051W        W66476   5.434  17.244   1.683
94052W        W66477  33.980  25.430  11.143
94053W        W66478  14.492  26.138  11.174
94054W        W66479  44.810   5.014  13.405
94055W        W66480  24.275  40.002   3.216
94056W        W66481  22.789  37.913  10.492
94057W        W66482  40.393  25.736  14.840
94058W        W66483  30.621  42.380  14.287
94059W        W66484  26.682  30.364  10.392
94060W        W66485  15.762  31.338   0.685
94061W        W66486  43.266  10.629  11.625
94062W        W66487  23.668  44.054  12.199
94063W        W66488  31.224   1.477  13.058
94064W        W66489   0.367  41.044   4.245
94065W        W66490   7.098  43.818   0.193
94066W        W66491   2.073  28.886  13.600
94067W        W66492  32.182  43.510  12.140
94068W        W66493  22.919   6.690  12.885
94069W        W66494  16.313  28.977  10.711
94070W        W66495  34.009   9.423   2.241
94071W        W66496   8.741   0.844  11.548
94072W        W66497   6.360  31.028   3.788
94073W        W66498  24.152  43.781  14.938
94074W        W66499  33.050   7.245  11.233
94075W        W66500  24.380  28.575  10.522
94076W        W66501  28.558  43.823   1.877
94077W        W66502  13.345  29.571   3.699
94078W        W66503  22.084  35.643   1.073
94079W        W66504  44.375  16.807   0.891
94080W        W66505   1.862   5.587   3.836
94081W        W66506   0.018   8.653   3.149
94082W        W66507  36.923   9.690  11.463
94083W        W66508  20.671  24.680   0.528
94084W        W66509  22.526  36.625   0.859
94085W        W66510  29.486   6.928  10.655
94086W        W66511  33.429  34.619   2.885
94087W        W66512  25.629   3.329  13.813
94088W        W66513  42.457  12.782  14.288
94089W        W66514  40.944  37.429   1.214
94090W        W66515  35.430  20.962   3.349
94091W        W66516  17.560   4.413  10.345
94092W        W66517  39.585  38.345   1.407
94093W        W66518   8.013   4.959   4.116
94094W        W66519  17.083  36.458  11.559
94095W        W66520   2.359  16.381   4.178
94096W        W66521  24.756   6.417  11.220
94097W        W66522  36.073  31.157   2.360
94098W        W66523   7.856  15.729   3.179
94099W        W66524  11.543  32.374   1.413
94100W        W66525  12.337  26.902   0.337
94101W        W66526  43.974  37.851   1.001
94102W        W66527  22.682  14.592   0.576
94103W        W66528  21.819   3.151  14.499
94104W        W66529  25.666  25.167  14.532
94105W        W66530   9.356  20.099  13.923
94106W        W66531  13.706  28.055  14.783
94107W        W66532  30.902  20.645  11.596
94108W        W66533  34.041  40.440   0.744
94109W        W66534  10.793  15.569   1.978
94110W        W66535  16.914  24.171   4.530
94111W        W66536  27.074   8.825   4.558
94112W        W66537  30.709  33.434  12.965
94113W        W66538  36.940   9.741  10.951
94114W        W66539  41.595  17.532  10.745
94115W        W66540  10.602  40.371  13.812
94116W        W66541  31.960   3.674   0.568
94117W        W66542  30.063  18.709   0.343
94118W        W66543  32.025  11.155  11.685
94119W        W66544  21.095   4.664   0.458
94120W        W66545  32.522  35.148  12.664
94121W        W66546  24.627  10.870  12.499
94122W        W66547   1.325  44.326   3.311
94123W        W66548  37.169  11.110  11.180
94124W        W66549   8.354   8.860  11.664
94125W        W66550  44.752  41.407  14.415
94126W        W66551  11.491  31.678   3.713
94127W        W66552  37.620  36.368   1.749
94128W        W66553  27.068  26.869   0.946
94129W        W66554  44.007  19.636  12.578
94130W        W66555   0.811  24.437  12.460
94131W        W66556  40.581  26.432  14.467
94132W        W66557  27.552   8.343   2.220
94133W        W66558  39.870  10.646  11.694
94134W        W66559   0.240  27.390  12.407
94135W        W66560  30.617   7.255   3.387
94136W        W66561   4.225  14.856  13.571
94137W        W66562  13.722  31.556  10.714
94138W        W66563  17.396  29.455   5.329
94139W        W66564  13.276  36.852   0.442
94140W        W66565  10.379   7.263  11.138
94141W        W66566  13.077  19.298  14.861
94142W        W66567  10.414  24.187  12.281
94143W        W66568  28.052  35.208  14.389
94144W        W66569  22.178  37.159   2.315
94145W        W66570  16.266   2.337  14.011
94146W        W66571  19.168  14.842   2.349
94147W        W66572   3.930  20.611   3.816
94148W        W66573   1.315  17.119  14.545
94149W        W66574  31.491  30.637  14.404
94150W        W66575  27.956  26.597  14.900
94151W        W66576  28.793  42.566   3.700
94152W        W66577  13.211  16.309  13.002
94153W        W66578  16.059  24.829  10.803
94154W        W66579  22.217   7.986   3.689
94155W        W66580   8.434  21.145   2.230
94156W        W66581  26.114  18.560  11.052
94157W        W66582  29.435  42.542  13.873
94158W        W66583  25.241  12.188   2.702
94159W        W66584   4.724   9.186  10.423
94160W        W66585   6.474  22.495   0.229
94161W        W66586   9.275  33.462   4.971
94162W        W66587  25.062   6.367  11.963
94163W        W66588  33.860  27.209  12.848
94164W        W66589  21.074  34.960  12.387
94165W        W66590  39.328  13.235   2.460
94166W        W66591  28.936  38.868   0.371
94167W        W66592  31.414  34.273   4.080
94168W        W66593  33.307  31.507  12.853
94169W        W66594  18.586  21.614   2.773
94170W        W66595  40.496  43.353   0.295
94171W        W66596   3.191  33.439  14.955
94172W        W66597   7.589  41.201   1.786
94173W        W66598  40.336  22.440   2.267
94174W        W66599  36.912  41.986  13.526
94175W        W66600  38.732  39.032  12.908
94176W        W66601   7.511  42.733   5.032
94177W        W66602  24.493  42.881  14.876
94178W        W66603  10.103  24.342   1.909
94179W        W66604  12.098  18.785  13.529
94180W        W66605  21.229   1.316  14.400
94181W        W66606  20.450   7.839   3.282
94182W        W66607  28.956  13.815   1.796
94183W        W66608  30.248  18.222  13.619
94184W        W66609  39.718  14.742   0.246
94185W        W66610  38.430  41.713   2.195
94186W        W66611  15.585   6.988   4.140
94187W        W66612  22.972  17.352  11.200
94188W        W66613  12.170   0.321  10.912
94189W        W66614  20.127  19.623  10.697
94190W        W66615  32.307  30.929   4.216
94191W        W66616   0.866  32.188   4.130
94192W        W66617  21.677  10.880  11.095
94193W        W66618  17.695  18.346   4.622
94194W        W66619   5.916   0.246  13.456
94195W        W66620  37.493  36.824   2.004
94196W        W66621  33.478   0.951   5.144
94197W        W66622   8.076   3.241  14.487
94198W        W66623   0.771  15.308  14.736
94199W        W66624  18.168  22.307  12.972
94200W        W66625  29.529  34.540   1.427
94201W        W66626  27.555  20.940   2.428
94202W        W66627   8.256  43.597  13.801
94203W        W66628  23.319   1.126  14.985
94204W        W66629  41.282  32.619  13.429
94205W        W66630  41.401  32.383   3.686
94206W        W66631   5.807  24.800  10.889
94207W        W66632  43.466   2.218  12.009
94208W        W66633   1.313   3.968   4.069
94209W        W66634  19.167   2.886  11.984
94210W        W66635  24.964   0.911   0.355
94211W        W66636   2.264  26.712  10.651
94212W        W66637   7.063  29.401  13.826
94213W        W66638  26.444  16.746  10.701
94214W        W66639  33.598  25.268   4.156
94215W        W66640  18.573  39.145  10.589
94216W        W66641  37.492   3.207  14.016
94217W        W66642  20.325  33.441  10.550
94218W        W66643  40.616   1.566   3.323
94219W        W66644  16.220  11.568   2.949
94220W        W66645  18.767  13.967  11.043
94221W        W66646  39.807  43.904  13.969
94222W        W66647   2.513  17.147   4.067
94223W        W66648  15.103  23.418   0.358
94224W        W66649  29.459  28.520   4.114
94225W        W66650  37.996  16.095  11.095
94226W        W66651  12.235  43.314   3.721
94227W        W66652  17.333   1.478  12.045
94228W        W66653  24.033  27.916  13.982
94229W        W66654  11.746   8.671  12.481
94230W        W66655  27.404  19.813  12.137
94231W        W66656  22.673  42.816   2.704
94232W        W66657  42.223  42.474  12.178
94233W        W66658  16.679  35.873  13.374
94234W        W66659  40.271  18.582  11.320
94235W        W66660  22.833  34.653  11.053
94236W        W66661  32.433  38.395   0.343
94237W        W66662  29.044   6.287   2.275
94238W        W66663  37.709  36.737  14.004
94239W        W66664  26.718  30.004  11.895
94240W        W66665   1.676  42.729  10.106
94241W        W66666  39.371   1.644  14.021
94242W        W66667  36.147  35.527  12.612
94243W        W66668   6.864  26.171  10.892
94244W        W66669  32.482  13.657  11.504
94245W        W66670  12.299  18.301  11.525
94246W        W66671  44.892   0.573  13.157
94247W        W66672  22.302  44.382  12.776
94248W        W66673   5.124   3.729  12.863
94249W        W66674  30.033  36.855  10.700
94250W        W66675  20.539  16.548  10.941
94251W        W66676   8.284   5.749  11.929
94252W        W66677   4.756  30.956   1.740
94253W        W66678  40.320  43.888  13.988
94254W        W66679  14.771  42.308  13.955
94255W        W66680  27.931  33.848   4.172
94256W        W66681  20.641   3.410   4.208
94257W        W66682  13.104   3.076   4.656
94258W        W66683  36.966  33.453   0.867
94259W        W66684  30.988  24.936   3.651
94260W        W66685   9.876  29.216   2.357
94261W        W66686  34.840   2.318   3.940
94262W        W66687  42.487  38.793  14.211
94263W        W66688  44.058  15.763   3.581
94264W        W66689  23.972  18.167   4.070
94265W        W66690  22.472   6.438  12.966
94266W        W66691  13.906  18.086  14.931
94267W        W66692  29.364   2.500  12.629
94268W        W66693  11.796  17.601   3.611
94269W        W66694  39.810   7.279   3.561
94270W        W66695  29.209  19.402  14.859
94271W        W66696  13.426  14.533   2.065
94272W        W66697  17.741  25.668   3.608
94273W        W66698  30.451  31.127  12.538
94274W        W66699   6.424  11.556   3.261
94275W        W66700  22.009  13.548   1.872
94276W        W66701  12.226  42.728   1.379
94277W        W66702  31.465   7.663  11.633
94278W        W66703  27.951  15.081  11.678
94279W        W66704  17.235  17.643   4.262
94280W        W66705  18.736  36.633   2.634
94281W        W66706  21.202  19.282   1.810
94282W        W66707  27.871  35.439  12.954
94283W        W66708  28.475  13.901   1.575
94284W        W66709  19.897  37.926  12.715
94285W        W66710  16.247  41.199   3.543
94286W        W66711   3.836  15.300  12.388
94287W        W66712  36.667   4.474   4.131
94288W        W66713  35.551  41.848  13.974
94289W        W66714   7.395  30.209   1.198
94290W        W66715   8.131   4.302   0.268
94291W        W66716  25.777  43.102   5.096
94292W        W66717  16.360  19.937   0.246
94293W        W66718  28.670   0.542  12.343
94294W        W66719  39.487   2.299   4.147
94295W        W66720  37.057   1.289   4.802
94296W        W66721  36.800  36.498   2.309
94297W        W66722  32.420   1.693   4.554
94298W        W66723  11.977  17.133   3.420
94299W        W66724  23.435  25.208   4.441
94300W        W66725  23.374  39.440   1.779
94301W        W66726  30.512  43.788  12.548
94302W        W66727  13.024  44.736   2.164
94303W        W66728  41.307  38.496   0.362
94304W        W66729  22.598  25.610   1.478
94305W        W66730  36.476  32.909   4.717
94306W        W66731  22.998  24.887  12.939
94307W        W66732  34.542  14.390   1.092
94308W        W66733  27.232  10.151  12.085
94309W        W66734  26.577  44.874  14.373
94310W        W66735  23.124  33.713   4.810
94311W        W66736   6.439  29.710   2.198
94312W        W66737  27.606  24.634  14.441
94313W        W66738   2.399   6.194   4.543
94314W        W66739  25.499  28.112   2.920
94315W        W66740   8.511  27.091  14.032
94316W        W66741  35.875  39.888   3.705
94317W        W66742  28.175   6.207   4.613
94318W        W66743  27.652  43.725   4.629
94319W        W66744  37.177  21.766  10.449
94320W        W66745  13.635  13.065  11.504
94321W        W66746  44.462  10.490  12.738
94322W        W66747  19.225   3.232   3.178
94323W        W66748  21.163  10.274  14.434
94324W        W66749  20.755  19.015   3.203
94325W        W66750  27.122   0.314  10.551
94326W        W66751   9.184  34.633   3.196
94327W        W66752   2.247  22.991  13.041
94328W        W66753  32.583   3.025  14.688
94329W        W66754  11.428  32.172  10.905
94330W        W66755  32.822  38.504  12.979
94331W        W66756  42.571  21.545   5.079
94332W        W66757  42.996  29.115   4.173
94333W        W66758  25.874   9.535  11.064
94334W        W66759  34.965  21.108   4.060
94335W        W66760   5.853  31.465   4.055
94336W        W66761  26.218   6.170   1.462
94337W        W66762  11.795  29.727  13.334
94338W        W66763   9.129  16.262  14.896
94339W        W66764  44.507  31.882  11.527
94340W        W66765   3.396  16.102   3.730
94341W        W66766  40.099  42.386   0.738
94342W        W66767   1.438  40.803   0.396
94343W        W66768  31.629  17.516   3.191
94344W        W66769   0.005  40.781  12.813
94345W        W66770  32.134  15.195   3.725
94346W        W66771  21.760  22.621   3.775
94347W        W66772   2.625   5.677  14.612
94348W        W66773  12.933  21.752   3.261
94349W        W66774  31.430  37.100  12.464
94350W        W66775  43.378  40.439   3.307
94351W        W66776  37.944  22.311  13.936
94352W        W66777  40.279  40.137   0.427
94353W        W66778  33.555  39.434  10.496
94354W        W66779   7.962  16.378  11.958
94355W        W66780  13.156  39.964   3.982
94356W        W66781  17.181  18.135   3.726
94357W        W66782  22.404  38.771  13.022
94358W        W66783  34.889  14.072   4.058
94359W        W66784  15.389   2.197   0.445
94360W        W66785  19.369  10.857   2.249
94361W        W66786  30.696  34.691   3.353
94362W        W66787  39.427   6.580  14.524
94363W        W66788  28.546  33.118  10.628
94364W        W66789  35.144  21.230   1.285
94365W        W66790  39.653  11.486   0.944
94366W        W66791  37.960  34.072  14.589
94367W        W66792  24.121   8.879  13.108
94368W        W66793   9.464  22.591   4.587
94369W        W66794  37.469  35.900  14.584
94370W        W66795   8.101  41.150   3.471
94371W        W66796  41.959  43.329   4.627
94372W        W66797  40.390  40.756  10.718
94373W        W66798   0.243  38.424   1.431
94374W        W66799  18.165  20.632  12.562
94375W        W66800  25.560  29.543   2.764
94376W        W66801   1.356   6.653  11.188
94377W        W66802   9.141  10.419   0.296
94378W        W66803   0.993  39.634   3.764
94379W        W66804  22.583  44.694   2.312
94380W        W66805   1.636  34.492   0.177
94381W        W66806  21.039  19.649  11.665
94382W        W66807  24.217  16.794   3.669
94383W        W66808  17.080  44.972   0.299
94384W        W66809  17.148  13.138   2.210
94385W        W66810   5.936   0.204   4.615
94386W        W66811  29.913  25.285   4.085
94387W        W66812  11.141  32.424  12.240
94388W        W66813   0.829  35.509   2.914
94389W        W66814   9.249  42.516   4.177
94390W        W66815  38.621  31.923  14.451
94391W        W66816  10.955  15.070   3.116
94392W        W66817  43.961  27.903   0.770
94393W        W66818  43.065  39.472  14.247
94394W        W66819  32.735  44.353   0.792
94395W        W66820   9.345  43.240  12.357
94396W        W66821   4.901  12.534  12.463
94397W        W66822   6.928  11.874   4.097
94398W        W66823  44.892  40.631  13.764
94399W        W66824  41.372  18.802  13.488
94400W        W66825  28.303  26.165   4.623
94401W        W66826  34.935  34.980  12.585
94402W        W66827  17.715  28.399  11.103
94403W        W66828   8.885  12.133   0.312
94404W        W66829  10.457   7.766  12.017
94405W        W66830  35.620  41.296  14.094
94406W        W66831  16.730  39.885   1.641
94407W        W66832  44.930   2.181   2.379
94408W        W66833  21.349  16.940   0.915
94409W        W66834  33.470  32.803  10.788
94410W        W66835   1.885  35.319  12.039
94411W        W66836  42.725   3.662  11.414
94412W        W66837   4.221  37.503   4.306
94413W        W66838   4.942  44.267  11.037
94414W        W66839  21.058   3.455  13.800
94415W        W66840  43.525  10.788   0.769
94416W        W66841  12.258  31.959   2.138
94417W        W66842   6.772   8.299  12.587
94418W        W66843  41.818  19.624  12.500
94419W        W66844  19.244  10.720  10.983
94420W        W66845  43.450  43.539  12.799
94421W        W66846   4.591  26.461   0.628
94422W        W66847   1.993  42.168  10.912
94423W        W66848   3.252  40.519   4.075
94424W        W66849  26.299  38.410   4.122
94425W        W66850   2.420  28.165  14.007
94426W        W66851  27.422  32.501  12.081
94427W        W66852  28.798  44.033   0.954
94428W        W66853  35.264  28.425  11.524
94429W        W66854   4.727  30.030  14.526
94430W        W66855  32.168  27.450  10.549
94431W        W66856  22.224  17.279   2.922
94432W        W66857  24.028  10.553   3.542
94433W        W66858  34.958  41.534   3.133
94434W        W66859  14.113  14.439   2.799
94435W        W66860  40.146  36.970   4.047
94436W        W66861  13.656  20.468   1.731
94437W        W66862   8.195  39.593   1.433
94438W        W66863  39.530  28.004  13.886
94439W        W66864   8.201  36.187   2.437
94440W        W66865  13.213   4.459  14.846
94441W        W66866  25.028  19.981   4.292
94442W        W66867   2.347   5.322   4.396
94443W        W66868  44.711  24.492   2.189
94444W        W66869  43.189  40.950   1.824
94445W        W66870   8.503  34.227   4.296
94446W        W66871  41.038   7.978   2.858
94447W        W66872  28.995  28.753   4.036
94448W        W66873  29.471   3.332  12.546
94449W        W66874  28.549  18.845  12.509
94450W        W66875  15.406  20.236   0.543
94451W        W66876   3.540  38.826   3.624
94452W        W66877  23.055  22.534  12.592
94453W        W66878  27.939   1.363  14.836
94454W        W66879  39.954  43.604  11.736
94455W        W66880  20.086  31.702   4.061
94456W        W66881  30.640   2.343   0.032
94457W        W66882  31.173  16.269   4.688
94458W        W66883   5.508  22.241   2.696
94459W        W66884   5.631   0.655  11.080
94460W        W66885  13.697  42.490  14.717
94461W        W66886  38.889   5.957   4.149
94462W        W66887  36.321  38.468  11.956
94463W        W66888   5.636  29.087  10.646
94464W        W66889  25.099  25.681  11.789
94465W        W66890  40.038  18.031   0.993
94466W        W66891  13.874  35.766   4.217
94467W        W66892  42.959   7.548   5.123
94468W        W66893  23.125  11.381  13.435
94469W        W66894  35.698  44.831   2.852
94470W        W66895  11.276   1.986  14.822
94471W        W66896  33.201   7.888   4.090
94472W        W66897  39.581  24.377   3.679
94473W        W66898   2.336   6.403   9.938
94474W        W66899   6.830  26.213   0.071
94475W        W66900  16.268  16.322  13.522
94476W        W66901   6.396  14.216   1.877
94477W        W66902   5.432  29.240   3.352
94478W        W66903   1.835   7.253  10.701
94479W        W66904  19.086  36.421   4.003
94480W        W66905  28.103  15.239   1.104
94481W        W66906  18.692   9.537  11.619
94482W        W66907  10.607  20.952  11.963
94483W        W66908  41.319   2.461  13.877
94484W        W66909  43.800  29.022   0.588
94485W        W66910  12.309   2.148  10.944
94486W        W66911  23.831   5.002   3.373
94487W        W66912  38.547  35.582   2.138
94488W        W66913  23.054  32.924  14.967
94489W        W66914  11.311  33.004  14.827
94490W        W66915  34.940  37.558  11.532
94491W        W66916  21.046   4.716  13.847
94492W        W66917  27.447  39.996  11.627
94493W        W66918  14.116  23.484  10.113
94494W        W66919   0.194  41.986   4.533
94495W        W66920  26.866   2.467  14.425
94496W        W66921  22.039  29.933  13.929
94497W        W66922  13.913  34.840  14.021
94498W        W66923  29.477  23.957   3.025
94499W        W66924   1.098  11.765   1.323
94500W        W66925  39.346  26.278   0.863
94501W        W66926  26.083  26.263  13.856
94502W        W66927   2.184  18.360  11.555
94503W        W66928  21.244   3.296   3.163
94504W        W66929   4.077   1.972   4.575
94505W        W66930   7.366  19.677  10.741
94506W        W66931  40.403  18.981  12.693
94507W        W66932   8.404  23.343  10.833
94508W        W66933   9.150   5.858   9.728
94509W        W66934  42.033  42.338   0.388
94510W        W66935  27.500  31.245   2.639
94511W        W66936  36.166   0.923   5.130
94512W        W66937  32.242  22.174  14.515
94513W        W66938  43.295  17.235   0.750
94514W        W66939  36.432  25.475  13.886
94515W        W66940  38.575  19.720  13.867
94516W        W66941  29.304  34.515  14.380
94517W        W66942  13.718   4.921   3.668
94518W        W66943   6.863  15.159   0.482
94519W        W66944   0.969  19.181  12.523
94520W        W66945  13.763   0.730  10.754
94521W        W66946  28.924  23.744   5.546
94522W        W66947  40.646  36.165  12.975
94523W        W66948  21.485  15.577   1.005
94524W        W66949  22.620  19.029  13.415
94525W        W66950  22.492   6.989  12.974
94526W        W66951   1.307  20.099   2.463
94527W        W66952   3.467   2.737  10.780
94528W        W66953  35.566  19.765   4.061
94529W        W66954  39.430   3.512   4.881
94530W        W66955  19.321  24.397  14.907
94531W        W66956  28.343   6.240   2.841
94532W        W66957   6.943  30.101   1.453
94533W        W66958  38.040  16.076   1.710
94534W        W66959  40.425  10.399   2.389
94535W        W66960  32.390   2.190   4.723
94536W        W66961  44.884  44.554  14.954
94537W        W66962  11.318  39.465  13.547
94538W        W66963  15.336   1.371   2.715
94539W        W66964  22.712  14.299   4.074
94540W        W66965  40.603   0.802   3.653
94541W        W66966  28.480   0.227  10.957
94542W        W66967  44.472  43.597  12.531
94543W        W66968  21.527   6.784   3.663
94544W        W66969  22.600  42.607  14.461
94545W        W66970  43.429   7.566   2.615
94546W        W66971  30.409   5.320  13.360
94547W        W66972   3.022  12.881  13.326
94548W        W66973  15.557  13.846  14.809
94549W        W66974  12.723  15.365   4.298
94550W        W66975  37.309  31.213  13.831
94551W        W66976  25.277  23.482   2.297
94552W        W66977   5.835  19.785  13.950
94553W        W66978  22.035  22.538  14.130
94554W        W66979  37.649  11.943  12.127
94555W        W66980  37.036   5.375  11.806
94556W        W66981   5.839  14.439   1.695
94557W        W66982  20.649   0.321   4.220
94558W        W66983  28.682  23.987   1.461
94559W        W66984  11.819  33.328   4.431
94560W        W66985  43.202  19.515  12.062
94561W        W66986  22.021  18.500   4.694
94562W        W66987  15.573  27.564   3.765
94563W        W66988  24.221  33.927   3.395
94564W        W66989  39.258  16.344   1.307
94565W        W66990   6.702  20.106  10.975
94566W        W66991  29.637  13.347   4.075
94567W        W66992  14.224  16.748   4.074
94568W        W66993  22.609  24.623  12.121
94569W        W66994  11.876  12.252   3.763
94570W        W66995   3.325  27.630  11.181
94571W        W66996  44.202   5.290   1.159
94572W        W66997  32.089  15.208   2.835
94573W        W66998  15.225   7.262   1.465
94574W        W66999  13.794   9.249  12.511
94575W        W67000  27.713   8.414  10.681
94576W        W67001  29.506  43.443  13.444
94577W        W67002  14.966   3.563   4.485
94578W        W67003  28.144  11.167  10.045
94579W        W67004  14.341  23.965  11.519
94580W        W67005  25.191  30.281  13.336
94581W        W67006  15.215  16.272   3.151
94582W        W67007  33.689  22.121  11.554
94583W        W67008  37.072   7.657  11.114
94584W        W67009  34.527  22.171   2.219
94585W        W67010   8.059  44.845   3.153
94586W        W67011  28.450   1.078   2.757
94587W        W67012   1.051   5.895   0.515
94588W        W67013  34.678  15.676   2.264
94589W        W67014  25.725  25.029  12.083
94590W        W67015  43.528  31.456   1.871
94591W        W67016   4.034   7.211   4.463
94592W        W67017  37.921   8.733   0.446
94593W        W67018  41.860  37.046  11.672
94594W        W67019  32.090  14.182  12.077
94595W        W67020   5.760  30.386  14.317
94596W        W67021  41.177   4.657  14.677
94597W        W67022  34.101   2.742  12.089
94598W        W67023   3.079  23.744   4.323
94599W        W67024   8.949   7.188   2.768
94600W        W67025  33.603  43.461  14.724
94601W        W67026   9.771  19.810   1.438
94602W        W67027  17.838  37.430  13.846
94603W        W67028  20.144  10.887   5.660
94604W        W67029  24.977  27.898   2.176
94605W        W67030  31.132  44.983  14.810
94606W        W67031   2.129   9.764   0.652
94607W        W67032  42.007   9.975   0.321
94608W        W67033  16.183  31.889  12.061
94609W        W67034  42.936  22.695  11.589
94610W        W67035  23.143  28.410  12.964
94611W        W67036  12.281  31.114   1.717
94612W        W67037  27.933  29.950  10.593
94613W        W67038  20.069  43.220   0.472
94614W        W67039  29.554  21.559  12.444
94615W        W67040  19.659  41.928   2.629
94616W        W67041  24.995  37.783   2.417
94617W        W67042  26.377  42.660   2.160
94618W        W67043  34.955  36.787   1.383
94619W        W67044  44.501  37.805   2.855
94620W        W67045  35.816  27.249  11.137
94621W        W67046  29.138  41.538   2.385
94622W        W67047  32.862  21.529   2.304
94623W        W67048  31.928   3.172   1.301
94624W        W67049  31.036  32.454   1.250
94625W        W67050  39.944  41.436  11.216
94626W        W67051   7.604  27.281  12.863
94627W        W67052  27.944  34.326  14.696
94628W        W67053  26.403  14.453   3.955
94629W        W67054   8.861   6.387   3.269
94630W        W67055  37.136  29.621   3.699
94631W        W67056  35.800  18.677  14.927
94632W        W67057  22.646  32.796  14.466
94633W        W67058  24.224  29.916   5.324
94634W        W67059  34.493  39.347  13.614
94635W        W67060  40.278  27.477   2.277
94636W        W67061  16.131  32.021   3.226
94637W        W67062  42.481   5.462  10.827
94638W        W67063  11.410  42.213  13.762
94639W        W67064  40.016  43.058   1.644
94640W        W67065   1.959  20.587   2.644
94641W        W67066  11.740  12.412  12.540
94642W        W67067   0.354  28.503   3.720
94643W        W67068  29.693  13.125   4.530
94644W        W67069  36.079  44.873   2.005
94645W        W67070  14.180   3.772   4.389
94646W        W67071  28.165   6.944   1.068
94647W        W67072   0.853  31.238  12.536
94648W        W67073   9.255   8.371  11.732
94649W        W67074   1.730  16.842  13.754
94650W        W67075  14.803   2.092   9.678
94651W        W67076  16.140  38.839  13.042
94652W        W67077  30.925  13.823  13.317
94653W        W67078  15.415   3.782  14.475
94654W        W67079   8.896   0.742   3.649
94655W        W67080  43.968  10.641  11.100
94656W        W67081  43.761  28.107  11.121
94657W        W67082  28.096  33.076   3.718
94658W        W67083  11.572  42.579  10.974
94659W        W67084  41.752  11.642   2.001
94660W        W67085  42.595   6.888   1.543
94661W        W67086  32.247  36.383   2.227
94662W        W67087  36.609  44.755   4.116
94663W        W67088  30.580  13.444   4.237
94664W        W67089  21.489  39.176   3.133
94665W        W67090  22.764  36.380  12.949
94666W        W67091   8.230   1.896   0.633
94667W        W67092  13.940   5.251  12.535
94668W        W67093  14.879  34.923  11.911
94669W        W67094  30.939  41.307   4.653
94670W        W67095  41.255   5.649  14.641
94671W        W67096   4.868  20.580   0.131
94672W        W67097  40.189  38.754  14.905
94673W        W67098  29.983   9.903   2.859
94674W        W67099  42.367  22.027   4.754
94675W        W67100  32.916  41.066   1.234
94676W        W67101  44.224  39.805  11.119
94677W        W67102  34.591  11.647  11.232
94678W        W67103  44.284  17.699   2.602
94679W        W67104  44.542   7.434   0.853
94680W        W67105  11.345  24.300   1.613
94681W        W67106  14.877  35.016   3.943
94682W        W67107   9.240  30.006   3.260
94683W        W67108  41.619   9.763  11.099
94684W        W67109  14.554  13.909   2.291
94685W        W67110   5.752  15.073  11.253
94686W        W67111  11.528  34.576   4.682
94687W        W67112  35.520  38.515   1.416
94688W        W67113  28.869  24.477   1.380
94689W        W67114  30.839   4.890   0.814
94690W        W67115  34.940  16.526   4.653
94691W        W67116  14.671  15.878   0.513
94692W        W67117  10.701  12.932   2.775
94693W        W67118  37.374   7.217   0.042
94694W        W67119  12.416  11.282  14.298
94695W        W67120  44.821  29.086  12.627
94696W        W67121  24.892  33.535  11.616
94697W        W67122  28.136  12.614   1.751
94698W        W67123  38.475  40.376   0.953
94699W        W67124  28.216   5.472  13.498
94700W        W67125   3.730  32.991  14.347
94701W        W67126  31.094  14.524   3.142
94702W        W67127   9.334  24.275  13.364
94703W        W67128  34.920  12.807   4.536
94704W        W67129  35.642  28.243   4.013
94705W        W67130  12.644  15.153   1.794
94706W        W67131   7.687  42.715  11.149
94707W        W67132  25.018  42.319  10.319
94708W        W67133  11.639  38.373  14.831
94709W        W67134  24.247  19.193  13.820
94710W        W67135  15.385  36.068   3.296
94711W        W67136  30.444  34.069   0.079
94712W        W67137   8.164  23.496   2.129
94713W        W67138  12.554   3.819   4.557
94714W        W67139  25.036  15.491   1.068
94715W        W67140   3.496  42.495  11.520
94716W        W67141  11.298  37.032  12.144
94717W        W67142   1.013  22.030   2.299
94718W        W67143   7.869  37.653   3.448
94719W        W67144  38.367  23.946   0.843
94720W        W67145  25.726  13.341   0.386
94721W        W67146  10.825  15.201  10.646
94722W        W67147  42.873   2.431   0.205
94723W        W67148  22.191   8.898   0.906
94724W        W67149  44.358  31.632   4.235
94725W        W67150  35.904   6.565  12.490
94726W        W67151  13.448   3.827   1.882
94727W        W67152  17.752  43.009  12.676
94728W        W67153   6.785  39.002  11.108
94729W        W67154  37.596   6.755  11.227
94730W        W67155  32.526   7.300  10.983
94731W        W67156  17.959  44.863  14.813
94732W        W67157  40.820   9.844   1.681
94733W        W67158  20.745  22.048   0.387
94734W        W67159  11.775   4.571   3.708
94735W        W67160  14.583  32.108  14.549
94736W        W67161  10.934  38.025  11.440
94737W        W67162  35.366  24.770   2.920
94738W        W67163  13.608   9.953  14.059
94739W        W67164   8.101  22.786  14.897
94740W        W67165   0.348  41.947  10.719
94741W        W67166   5.847  25.479   0.934
94742W        W67167  16.340   0.681  12.510
94743W        W67168  14.665  36.344   0.264
94744W        W67169  21.226  13.312  12.816
94745W        W67170   3.011  33.013  11.081
94746W        W67171  16.775  36.037   1.631
94747W        W67172   6.806  22.897  14.329
94748W        W67173  11.851  12.811  12.852
94749W        W67174  21.672  36.126   1.327
94750W        W67175  20.568   1.720   0.834
94751W        W67176  24.887  41.307   1.376
94752W        W67177  34.580  10.394   2.892
94753W        W67178  14.184   4.698  13.034
94754W        W67179   4.155  18.876  14.806
94755W        W67180  44.459  40.958   3.843
94756W        W67181  22.205  20.839   0.374
94757W        W67182  25.039  23.513  10.618
94758W        W67183   4.194  28.105   0.555
94759W        W67184  38.072  29.219  13.676
94760W        W67185   3.794  30.877   4.238
94761W        W67186  12.877  33.123  11.795
94762W        W67187  30.004   1.614   4.558
94763W        W67188  39.346  21.639   1.806
94764W        W67189  43.009  44.802   1.132
94765W        W67190  21.820  10.913  12.525
94766W        W67191  21.769  28.323   0.831
94767W        W67192   4.493  41.277   4.028
94768W        W67193  41.551  21.053   3.050
94769W        W67194   9.765  36.287  14.772
94770W        W67195  31.975   7.182   1.621
94771W        W67196   3.688  21.280  13.297
94772W        W67197  33.498  35.659  13.439
94773W        W67198  13.093  44.936  11.689
94774W        W67199  26.625  39.548  14.684
94775W        W67200  33.613  40.421   4.898
94776W        W67201   1.204  20.835   1.935
94777W        W67202   3.672   8.815   3.842
94778W        W67203  35.531  21.654  14.935
94779W        W67204  28.765   8.496   4.096
94780W        W67205  38.542  25.547  14.595
94781W        W67206  42.705  24.970   0.453
94782W        W67207  18.929  18.615   4.089
94783W        W67208   3.911  25.484  12.536
94784W        W67209  19.845  18.170   3.057
94785W        W67210  40.838  22.792  13.020
94786W        W67211  17.801  32.835  14.385
94787W        W67212  40.823  24.805   3.193
94788W        W67213  37.986  13.977  11.171
94789W        W67214  37.645  44.375   3.709
94790W        W67215  23.571  19.128   4.198
94791W        W67216  43.050  22.895   2.178
94792W        W67217  37.468  32.371   0.319
94793W        W67218  32.190  11.585   2.859
94794W        W67219   9.122  43.013   4.208
94795W        W67220   0.884  30.474   1.317
94796W        W67221  38.094  25.985  11.607
94797W        W67222  37.019  41.730  14.893
94798W        W67223  10.794  34.706   4.149
94799W        W67224   6.459   5.937  13.804
94800W        W67225  33.572  34.867  11.763
94801W        W67226  43.752   7.213   1.253
94802W        W67227  15.391  33.921  10.210
94803W        W67228  24.472  16.595   0.532
94804W        W67229  35.924  29.013  12.621
94805W        W67230  29.668   2.401   4.607
94806W        W67231  30.412  44.535   1.347
94807W        W67232  16.125  17.140  11.535
94808W        W67233  35.979   6.447   0.304
94809W        W67234  16.673  13.021   0.417
94810W        W67235  13.407  29.860  11.287
94811W        W67236  22.758  33.341   0.610
94812W        W67237  26.753  25.956   4.057
94813W        W67238   4.772   9.667  14.916
94814W        W67239  27.024   4.435   2.826
94815W        W67240  31.168  14.343   1.746
94816W        W67241  39.109  43.448   3.814
94817W        W67242  40.007  39.469   4.690
94818W        W67243   4.231  10.216  12.962
94819W        W67244  42.253  38.450   3.797
94820W        W67245  39.566  33.416   0.717
94821W        W67246   9.819  31.758  13.628
94822W        W67247  44.985   8.496  11.187
94823W        W67248  14.881  35.984  10.562
94824W        W67249  29.851   4.087  12.497
94825W        W67250  37.811  37.895  12.912
94826W        W67251  24.797  38.656   0.350
94827W        W67252   8.661  16.365   4.044
94828W        W67253  28.976   4.795  10.794
94829W        W67254  43.888   0.754   4.669
94830W        W67255  22.036  16.639  13.842
94831W        W67256  39.517  37.490   3.172
94832W        W67257  35.919  41.766  14.318
94833W        W67258   3.347   7.381  13.979
94834W        W67259  16.758   5.746  12.417
94835W        W67260   8.224   2.265   3.745
94836W        W67261  26.445  20.215  13.266
94837W        W67262  13.283  38.867  11.821
94838W        W67263  21.205  28.003  10.663
94839W        W67264  44.797  39.980   1.044
94840W        W67265  25.251  17.750   1.308
94841W        W67266  26.959  36.870   0.447
94842W        W67267  34.974  25.958   3.280
94843W        W67268  38.945  32.911  10.998
94844W        W67269  16.562  21.850   3.619
94845W        W67270  19.083  37.784  13.705
94846W        W67271  30.611  10.266  11.167
94847W        W67272   4.032   9.116   4.136
94848W        W67273  41.190  28.649   2.155
94849W        W67274  44.102   9.339   5.010
94850W        W67275  14.784  10.170  10.426
94851W        W67276  34.945   4.274  13.389
94852W        W67277  22.153  34.480   1.229
94853W        W67278   4.985  35.014   1.833
94854W        W67279  33.608  42.352   2.917
94855W        W67280  19.254  29.533   1.018
94856W        W67281  16.691   5.445   0.783
94857W        W67282  17.533  39.578   3.586
94858W        W67283  11.950   9.885  12.827
94859W        W67284  29.962   2.141   2.681
94860W        W67285  33.046  21.520   4.243
94861W        W67286  39.267  34.018   2.239
94862W        W67287  42.937  40.379   3.642
94863W        W67288   5.340  10.210  12.247
94864W        W67289  14.639  43.014  14.448
94865W        W67290   6.382  15.134   0.726
94866W        W67291  41.438  12.065  10.429
94867W        W67292  31.208  14.755  14.814
94868W        W67293   4.870  25.573   2.611
94869W        W67294  16.162  16.379   3.720
94870W        W67295  30.690  39.425  13.248
94871W        W67296  15.536  38.395   1.826
94872W        W67297  43.848  20.704   0.464
94873W        W67298  36.811  34.633   3.202
94874W        W67299  34.571  44.454  13.004
94875W        W67300  10.665  27.895   1.376
94876W        W67301  21.587  34.440   1.845
94877W        W67302  34.826  24.231   2.363
94878W        W67303  37.292  30.962   3.774
94879W        W67304  13.652  12.808   1.281
94880W        W67305   9.911  14.497   1.659
94881W        W67306   2.619   1.011   1.449
94882W        W67307  25.172  12.808  13.003
94883W        W67308  34.176   6.225  12.805
94884W        W67309  41.697  32.025  14.012
94885W        W67310   3.227  43.016  13.686
94886W        W67311  32.707  13.276  12.849
94887W        W67312  21.248  22.000  12.611
94888W        W67313  15.684  25.929   4.090
94889W        W67314  25.016  21.682   2.583
94890W        W67315  22.548  25.731  10.637
94891W        W67316  32.200  39.924   3.318
94892W        W67317  43.970  11.148  13.547
94893W        W67318  25.522  20.306  14.850
94894W        W67319  35.934   1.508  12.433
94895W        W67320  16.876  11.823   1.887
94896W        W67321  15.097  29.586   4.847
94897W        W67322  43.394  44.127  11.160
94898W        W67323  32.882   6.225  11.566
94899W        W67324  40.555  38.025   4.108
94900W        W67325   2.272  18.070   3.220
94901W        W67326   6.148  33.354   0.374
94902W        W67327  13.065   2.072  13.744
94903W        W67328  25.093  35.352   4.598
94904W        W67329  27.657   3.412  13.288
94905W        W67330   9.233  19.152   3.195
94906W        W67331  38.498  36.391  13.455
94907W        W67332  20.960  40.674   3.950
94908W        W67333   1.352  29.995   4.236
94909W        W67334   4.538  41.037  11.209
94910W        W67335  11.586  25.430  14.807
94911W        W67336   4.953  18.468   0.288
94912W        W67337  30.543   3.301   4.082
94913W        W67338  13.334  43.083   0.908
94914W        W67339  32.274  37.019   3.516
94915W        W67340   5.760  19.209  12.811
94916W        W67341  17.723  42.429   4.057
94917W        W67342  32.410  35.038   0.811
94918W        W67343  22.219  36.605   3.799
94919W        W67344  36.285  34.185   2.803
94920W        W67345   8.711  15.553   0.256
94921W        W67346  35.952  40.816  12.122
94922W        W67347  29.584  12.936   2.814
94923W        W67348  38.955  41.171   0.090
94924W        W67349  32.868  18.454  11.502
94925W        W67350  12.031  11.657  11.157
94926W        W67351  37.968   4.060  13.966
94927W        W67352  37.597  35.888  10.725
94928W        W67353   2.904  32.824   3.686
94929W        W67354  25.020   6.773   4.730
94930W        W67355   6.926  44.404   1.795
94931W        W67356  13.102  29.505   0.910
94932W        W67357   1.734  43.920  14.889
94933W        W67358  25.483  28.879   0.781
94934W        W67359  14.780  43.783  12.377
94935W        W67360   2.521   2.415   4.533
94936W        W67361  41.494  40.411   4.958
94937W        W67362  27.425  25.929  11.491
94938W        W67363  37.345  41.259  13.062
94939W        W67364   4.129  22.093   4.139
94940W        W67365  31.472  25.947  10.773
94941W        W67366  16.608  38.226  11.426
94942W        W67367   4.113  21.475  13.040
94943W        W67368  44.822  20.738  12.494
94944W        W67369  30.950  10.321   1.739
94945W        W67370   8.310  24.204  13.093
94946W        W67371  19.788   4.426   4.326
94947W        W67372  36.368   2.199  12.131
94948W        W67373  35.479   7.783   1.061
94949W        W67374  22.203  18.745  14.134
94950W        W67375  12.310  29.916  10.479
94951W        W67376  28.420   6.521  13.284
94952W        W67377  30.607  31.560   3.221
94953W        W67378  33.147  11.560   2.725
94954W        W67379  11.359  11.233   0.785
94955W        W67380  39.929  38.076  12.024
94956W        W67381  11.178  13.695   3.943
94957W        W67382  24.474   2.022   4.535
94958W        W67383  13.822  28.987  11.045
94959W        W67384  30.970  14.644  11.506
94960W        W67385   0.820  16.845  13.639
94961W        W67386  43.278   6.867  11.631
94962W        W67387   6.775  33.316   0.832
94963W        W67388  44.484  12.261  14.591
94964W        W67389  12.253  30.887   0.289
94965W        W67390  35.551   4.976  13.573
94966W        W67391   5.308  39.017   3.402
94967W        W67392  31.043  23.339   5.530
94968W        W67393   8.351   9.424   3.203
94969W        W67394   3.739  13.499  12.555
94970W        W67395  28.137  39.766   0.754
94971W        W67396  36.348  25.062   0.398
94972W        W67397  20.801  34.912   1.297
94973W        W67398  42.450  24.970   3.444
94974W        W67399  34.620  23.741   2.350
94975W        W67400  40.829  42.531  11.880
94976W        W67401   9.184  25.583  13.234
94977W        W67402  43.032  15.717   2.401
94978W        W67403  28.093  35.935   1.737
94979W        W67404  14.049  15.803   1.178
94980W        W67405   1.333  20.454   0.986
94981W        W67406  30.187  24.154   0.969
94982W        W67407  43.361   7.447   3.559
94983W        W67408  26.643  19.489   4.021
94984W        W67409  37.399  21.772  11.590
94985W        W67410  39.217  31.459  12.588
94986W        W67411  12.257  21.968  11.134
94987W        W67412  31.009   2.951  13.364
94988W        W67413  41.289  12.405   1.763
94989W        W67414  21.611  18.981  14.550
94990W        W67415  41.456  18.268  11.571
94991W        W67416  41.586  12.697   0.498
94992W        W67417  27.305  13.678  11.640
94993W        W67418  30.365  25.172  12.502
94994W        W67419  41.029  42.451  10.974
94995W        W67420   4.085  24.444   2.693
94996W        W67421  34.533  15.071  10.631
94997W        W67422  33.864  15.762  13.105
94998W        W67423  24.506   1.329  11.927
94999W        W67424   0.706  40.016   4.921
95000W        W67425  28.645  29.425   4.296
95001W        W67426   3.852   5.479   0.579
95002W        W67427  30.859  33.082   1.950
95003W        W67428   9.323  10.168   0.771
95004W        W67429   4.270   1.643  11.639
95005W        W67430  43.651  25.161  14.512
95006W        W67431   2.207  29.629   2.437
95007W        W67432  28.326  37.407  10.248
95008W        W67433  44.375  23.956   1.373
95009W        W67434  33.509  35.495  11.072
95010W        W67435  17.031   9.178  12.391
95011W        W67436  13.615   3.681   0.021
95012W        W67437  35.986  19.652  11.488
95013W        W67438  11.733  35.271  13.353
95014W        W67439  15.306  11.869   2.854
95015W        W67440  17.856  13.408   3.274
95016W        W67441   9.117  24.746  13.392
95017W        W67442  17.105  38.648  13.975
95018W        W67443   0.003  22.256   0.889
95019W        W67444  17.578   7.492   3.820
95020W        W67445  34.655   3.939  12.539
95021W        W67446   8.715  25.428  12.378
95022W        W67447  21.219  13.404  12.328
95023W        W67448  12.669  25.237   0.739
95024W        W67449  28.905  33.589  13.834
95025W        W67450   8.297  39.764  10.504
95026W        W67451  43.379   9.653  12.474
95027W        W67452   1.705  15.617   1.346
95028W        W67453  35.605   5.195  14.061
95029W        W67454  40.425   8.799  12.825
95030W        W67455  34.679  23.435   0.865
95031W        W67456  31.696  12.416  12.437
95032W        W67457  41.472  27.165  14.506
95033W        W67458  16.408  12.254  12.990
95034W        W67459  14.554   3.300   3.721
95035W        W67460  12.905   1.395  11.515
95036W        W67461  15.481  10.145  12.320
95037W        W67462  22.741  29.222   1.191
95038W        W67463  15.855  25.009  11.302
95039W        W67464  23.031  31.026  14.928
95040W        W67465  35.426   3.423   0.252
95041W        W67466  33.715  23.179   3.776
95042W        W67467  35.037  13.936   1.786
95043W        W67468  23.112  19.991  14.462
95044W        W67469   8.760   2.382  14.919
95045W        W67470   2.175   6.575  11.946
95046W        W67471   8.637  37.917   2.824
95047W        W67472   0.589  36.912  12.171
95048W        W67473  27.013  36.753   3.750
95049W        W67474  19.508  33.921   2.963
95050W        W67475  28.633   7.605   0.392
95051W        W67476   4.975  24.843   1.285
95052W        W67477   6.082  20.653  14.502
95053W        W67478  43.568  28.582   0.757
95054W        W67479  31.635  35.528  14.338
95055W        W67480  30.464   7.852  14.944
95056W        W67481  37.698  42.014   3.210
95057W        W67482  24.246  33.909  12.475
95058W        W67483  28.642  14.672   0.259
95059W        W67484  31.353  15.760  10.903
95060W        W67485  20.770  44.288  12.482
95061W        W67486   3.451  31.974  11.687
95062W        W67487   6.021  29.169   3.655
95063W        W67488  19.164  39.012  14.873
95064W        W67489   5.025  21.167   4.516
95065W        W67490  18.930  12.149   1.369
95066W        W67491  26.886  17.035   4.223
95067W        W67492   2.922  10.188   3.858
95068W        W67493  36.659  11.398   2.808
95069W        W67494  34.315  37.878   3.553
95070W        W67495  23.463   0.323  11.419
95071W        W67496  17.265  37.173  14.441
95072W        W67497  17.226  27.180  13.629
95073W        W67498  44.776  17.786   2.810
95074W        W67499   7.109  23.244  12.552
95075W        W67500  13.700  22.792  12.864
95076W        W67501  43.921   1.449   1.825
95077W        W67502  28.817  10.312  10.998
95078W        W67503  42.961  29.641  12.047
95079W        W67504  43.389  22.160   5.471
95080W        W67505  31.027  36.097  11.062
95081W        W67506  41.092  36.589   1.879
95082W        W67507  15.945   0.352   3.139
95083W        W67508   5.986  26.005   1.893
95084W        W67509  44.524  10.249   1.321
95085W        W67510  27.051   3.330   1.150
95086W        W67511  14.217  18.155  13.565
95087W        W67512  31.957  30.091  11.519
95088W        W67513  43.851  36.345  11.204
95089W        W67514   0.459   5.931   3.339
95090W        W67515  23.640  22.687  14.463
95091W        W67516  34.136  34.320  14.535
95092W        W67517  32.530  12.640  13.357
95093W        W67518   4.397   6.620  11.660
95094W        W67519  12.925  35.317  12.355
95095W        W67520  13.987  14.908  14.478
95096W        W67521  12.201  17.658   3.278
95097W        W67522   1.237  23.558  14.825
95098W        W67523  36.136  17.834  13.377
95099W        W67524  35.011  24.546  12.589
95100W        W67525   4.854   5.865   0.731
95101W        W67526   5.851  40.256  13.295
95102W        W67527  25.239  30.379  11.517
95103W        W67528  10.197  33.170   2.884
95104W        W67529  41.835  20.474   1.368
95105W        W67530  16.109  41.339  11.128
95106W        W67531  24.854  28.071   1.680
95107W        W67532  23.646  41.971   1.346
95108W        W67533   4.667  24.751  11.304
95109W        W67534  34.443  31.659   0.248
95110W        W67535  24.617  42.409  13.748
95111W        W67536  10.666  19.600  12.200
95112W        W67537  29.370  24.646  10.652
95113W        W67538   4.403  36.834   0.402
95114W        W67539  19.229  20.627  12.039
95115W        W67540  11.640   2.333  14.604
95116W        W67541   2.318  39.091   1.798
95117W        W67542  40.917   0.523   1.040
95118W        W67543  43.429  16.052   2.414
95119W        W67544  33.480  36.660  14.013
95120W        W67545  30.504  16.596   2.813
95121W        W67546  24.933   0.432   2.327
95122W        W67547  37.336  36.678   5.012
95123W        W67548   9.355  21.944  10.783
95124W        W67549   3.340  17.599   0.027
95125W        W67550  14.899  11.624   0.691
95126W        W67551  14.274   3.644  10.259
95127W        W67552  41.528  11.253   0.317
95128W        W67553   2.315  13.056  14.644
95129W        W67554  36.061  44.421   1.744
95130W        W67555  12.862  25.942   3.318
95131W        W67556  35.505   5.951  12.673
95132W        W67557  19.934   2.759  13.568
95133W        W67558   4.295   7.158  12.529
95134W        W67559   9.242  29.149   0.318
95135W        W67560  27.746  19.805   4.090
95136W        W67561  18.614  39.039   3.323
95137W        W67562  29.085  19.723  14.034
95138W        W67563  39.017  24.628  13.781
95139W        W67564  44.313  14.888  12.483
95140W        W67565  24.275  37.511   3.757
95141W        W67566  22.298  17.275  12.037
95142W        W67567  15.566   6.425   1.313
95143W        W67568  13.114  41.403   4.332
95144W        W67569  41.829   0.745  14.011
95145W        W67570  12.614  23.022   1.871
95146W        W67571  39.758  24.169  14.839
95147W        W67572  36.923   8.430  13.975
95148W        W67573  17.479  10.900  13.841
95149W        W67574  36.768  39.338   2.213
95150W        W67575  19.175  33.363   4.122
95151W        W67576  13.320  21.506  14.894
95152W        W67577   0.744  18.699   3.768
95153W        W67578  27.237  17.791  13.851
95154W        W67579  25.174  19.807   3.801
95155W        W67580  18.711  34.651  14.041
95156W        W67581  12.768  32.647  10.585
95157W        W67582   4.577  42.470   1.849
95158W        W67583  27.688  40.274  12.460
95159W        W67584  17.829  42.338  13.507
95160W        W67585  44.208  29.946   1.798
95161W        W67586  22.598   8.145   2.374
95162W        W67587  18.602   0.963   2.585
95163W        W67588  14.166   0.207  10.110
95164W        W67589   0.347  36.812  11.622
95165W        W67590  34.361  20.758   4.089
95166W        W67591   8.985  17.626   3.972
95167W        W67592  27.096   0.530   2.729
95168W        W67593  37.001  44.502   0.596
95169W        W67594   1.234  32.309  14.239
95170W        W67595  41.107  15.185   0.832
95171W        W67596  22.305  34.590  11.101
95172W        W67597  12.810  21.594  11.692
95173W        W67598   6.371  15.736  12.096
95174W        W67599  14.816  27.640   2.454
95175W        W67600  22.561  29.491  12.406
95176W        W67601  19.476  36.503   2.248
95177W        W67602  14.467  12.746  13.994
95178W        W67603  14.164  23.657   0.280
95179W        W67604  22.233  40.533  12.802
95180W        W67605  16.099  36.514  11.638
95181W        W67606  14.682  38.480   0.067
95182W        W67607  44.233  32.550   1.396
95183W        W67608  11.738  38.841   5.044
95184W        W67609  26.105   2.272  13.471
95185W        W67610  22.397   0.370  12.997
95186W        W67611   5.150  41.769   1.808
95187W        W67612  12.845  14.545   3.562
95188W        W67613  17.560  35.135   2.570
95189W        W67614  13.056   3.649  11.495
95190W        W67615  35.885  20.287   0.986
95191W        W67616  42.830  31.429   2.374
95192W        W67617  31.938   9.965  14.000
95193W        W67618   3.699  44.307  10.486
95194W        W67619  18.541  19.359  10.536
95195W        W67620  43.758  18.822  10.754
95196W        W67621  17.044   1.258  12.419
95197W        W67622  29.194  26.097   1.203
95198W        W67623  39.801  14.554   1.189
95199W        W67624  34.485   6.210  14.040
95200W        W67625  18.009  11.204  10.726
95201W        W67626  25.558   7.798  12.035
95202W        W67627  10.836  10.114  13.070
95203W        W67628  37.326  40.754   4.425
95204W        W67629   2.498  15.727  12.450
95205W        W67630   1.841   6.759   3.621
95206W        W67631  12.142  28.910   4.182
95207W        W67632  35.612  12.209   4.096
95208W        W67633  36.251  31.214  13.426
95209W        W67634  25.487  24.701   3.411
95210W        W67635   6.831  11.415   1.886
95211W        W67636  24.192   5.665   2.120
95212W        W67637   0.338  39.075   0.209
95213W        W67638  20.002  44.178  11.607
95214W        W67639  40.795  27.685   4.374
95215W        W67640   8.223  27.640   3.282
95216W        W67641  37.320   2.911   1.667
95217W        W67642  39.900  16.801   0.553
95218W        W67643   5.698  38.457   0.882
95219W        W67644  17.688  20.711   0.919
95220W        W67645  11.056  31.190  14.372
95221W        W67646   1.643  35.186   3.749
95222W        W67647   7.318  29.140   0.736
95223W        W67648  44.885  29.056   4.506
95224W        W67649   7.421  20.291  12.523
95225W        W67650  21.147  35.050   4.550
95226W        W67651   7.797  13.876  10.661
95227W        W67652  32.326  11.823   0.965
95228W        W67653  19.212  13.280   2.510
95229W        W67654  44.278  14.276  13.412
95230W        W67655  42.639  16.947   4.853
95231W        W67656  14.892   0.820   4.347
95232W        W67657  37.800  35.000   3.953
95233W        W67658  33.925  27.548  14.246
95234W        W67659  44.576  42.283   4.155
95235W        W67660  17.210  11.427  12.312
95236W        W67661  36.556  21.986   2.749
95237W        W67662  32.054  23.142  13.074
95238W        W67663   8.168  18.669  11.208
95239W        W67664  30.704   0.522   0.184
95240W        W67665  27.707  15.697   0.380
95241W        W67666   0.411  18.720   4.199
95242W        W67667  36.883   1.837   0.314
95243W        W67668  38.430   4.698   4.325
95244W        W67669  42.357  12.354  14.628
95245W        W67670   1.696  19.093  11.631
95246W        W67671   1.296   6.229   0.051
95247W        W67672  15.765   2.112  13.136
95248W        W67673  11.257  27.135   4.536
95249W        W67674  26.791   6.426  13.517
95250W        W67675  17.563   2.406   1.468
95251W        W67676  23.473  25.748  12.069
95252W        W67677  39.517  41.381   2.099
95253W        W67678  25.228  26.975   0.925
95254W        W67679  13.051  25.563   0.443
95255W        W67680  29.666  29.421  12.905
95256W        W67681  42.053  30.023  12.858
95257W        W67682  20.020  40.231  11.954
95258W        W67683  22.988  42.594  11.987
95259W        W67684  11.693  33.761  13.753
95260W        W67685  43.420  37.240   3.309
95261W        W67686  16.947  36.915  12.504
95262W        W67687  11.175  39.536   4.465
95263W        W67688  39.821  44.704   4.171
95264W        W67689   6.419  13.150   2.322
95265W        W67690  10.939  33.601   2.668
95266W        W67691   1.607  31.490   1.617
95267W        W67692  18.993  14.046   1.350
95268W        W67693  26.240  13.790  12.909
95269W        W67694  22.979  32.592   3.180
95270W        W67695  44.804  38.292   4.217
95271W        W67696  17.055   2.870   2.895
95272W        W67697   1.121  11.307  14.196
95273W        W67698  27.311  32.236   5.092
95274W        W67699  43.123  28.848  14.884
95275W        W67700  18.798  36.409  11.086
95276W        W67701  43.402  21.618   9.784
95277W        W67702  39.023  19.980  12.969
95278W        W67703  27.282  42.622  13.815
95279W        W67704  43.326  18.482   4.872
95280W        W67705   0.314  40.408  12.971
95281W        W67706  19.486  30.506  13.392
95282W        W67707  21.221  14.752   0.255
95283W        W67708  42.283   7.895  13.090
95284W        W67709  13.678  38.736   1.590
95285W        W67710  20.888  36.387   2.834
95286W        W67711  13.520   6.219   2.418
95287W        W67712   1.273  16.123   2.188
95288W        W67713   5.270  32.659   4.227
95289W        W67714   1.326  25.699   3.854
95290W        W67715  44.750  20.767  14.232
95291W        W67716  14.268  42.482   1.541
95292W        W67717  22.263  20.020  12.547
95293W        W67718  19.785  23.594   1.837
95294W        W67719  32.532  30.721  11.934
95295W        W67720  10.430  22.691   5.121
95296W        W67721  29.024  23.343  10.632
95297W        W67722   2.768  22.909   3.747
95298W        W67723  26.238  16.096   4.529
95299W        W67724   3.259  29.402  14.960
95300W        W67725  30.086  28.399   3.611
95301W        W67726  36.596  29.783   2.249
95302W        W67727  33.145   1.208   2.318
95303W        W67728  16.948  25.865  11.595
95304W        W67729   3.326  20.637   2.155
95305W        W67730  10.618  37.342   0.352
95306W        W67731  44.361   6.428   4.565
95307W        W67732  22.527  21.047  10.159
95308W        W67733   9.791  13.533   0.175
95309W        W67734  17.107  38.312   0.102
95310W        W67735  16.895  37.533  14.316
95311W        W67736  44.195  23.373   4.240
95312W        W67737  32.815  37.384   1.907
95313W        W67738  10.656  17.875  13.048
95314W        W67739  29.763  15.866   5.237
95315W        W67740  12.968  35.941   1.387
95316W        W67741   1.261  16.826  14.980
95317W        W67742   7.626  41.603   1.397
95318W        W67743  20.964  41.525  11.654
95319W        W67744  19.059  20.617  11.543
95320W        W67745   6.192  16.327   3.576
95321W        W67746  38.314  10.220   4.793
95322W        W67747  19.962  40.365  12.817
95323W        W67748  25.444  10.978   0.421
95324W        W67749   8.534  21.613   1.428
95325W        W67750  44.031  17.511   2.157
95326W        W67751  20.310  33.504  11.849
95327W        W67752  43.062  15.513   1.382
95328W        W67753  19.320  38.724  11.150
95329W        W67754  39.611   2.000  12.956
95330W        W67755  19.776  11.300   4.123
95331W        W67756   8.067   5.226   3.651
95332W        W67757  36.816  35.426   4.768
95333W        W67758  27.184  34.156  11.510
95334W        W67759  35.499  22.256  11.651
95335W        W67760   5.374  25.155  11.625
95336W        W67761  16.617  19.501   0.830
95337W        W67762  31.915  43.619  14.885
95338W        W67763  10.349   0.091  12.625
95339W        W67764  13.962  18.210   3.266
95340W        W67765  22.104   9.036  13.573
95341W        W67766  19.113  18.490   4.574
95342W        W67767   8.344   8.399   3.158
95343W        W67768  13.879  39.601  14.398
95344W        W67769  25.714  30.146   3.633
95345W        W67770  15.512  12.187  11.634
95346W        W67771  16.550  28.019  14.458
95347W        W67772  43.100  34.375  10.551
95348W        W67773   5.564  43.935  14.883
95349W        W67774   9.744  29.006   4.254
95350W        W67775  21.124   9.145   0.347
95351W        W67776  36.023  40.010  14.030
95352W        W67777  38.959  42.765   4.249
95353W        W67778  27.384  35.081  13.407
95354W        W67779  20.794  43.375  14.990
95355W        W67780   5.836  41.014  12.596
95356W        W67781   8.507  44.076  14.472
95357W        W67782  16.748  28.682  13.523
95358W        W67783  30.414  16.088   2.847
95359W        W67784  40.453  10.931   2.392
95360W        W67785  13.637  25.113  10.412
95361W        W67786  44.600  17.923  14.400
95362W        W67787  11.435  27.900  13.956
95363W        W67788  34.673  40.831   1.268
95364W        W67789  29.129   5.451  12.897
95365W        W67790  29.087  11.524  13.386
95366W        W67791  43.854   6.219  11.896
95367W        W67792  42.499  25.463  14.666
95368W        W67793  20.102  30.005   1.143
95369W        W67794  18.065  14.204  12.542
95370W        W67795  40.475  41.399   2.311
95371W        W67796  34.591  20.120   3.820
95372W        W67797  43.003  11.828   3.190
95373W        W67798   0.112  40.360   1.864
95374W        W67799  43.691   0.758   0.912
95375W        W67800  16.892  23.789  12.541
95376W        W67801   3.323  39.758   3.750
95377W        W67802  11.246  16.653  11.753
95378W        W67803   7.657  12.840  14.155
95379W        W67804  36.466  29.048   1.335
95380W        W67805  41.905  22.487  13.936
95381W        W67806   9.329  43.219   3.561
95382W        W67807   8.854  17.296  14.457
95383W        W67808  19.466   7.262  13.424
95384W        W67809  36.863  30.959   0.576
95385W        W67810  38.171  13.526  13.450
95386W        W67811   3.132  14.373   2.776
95387W        W67812   8.470   7.722  12.638
95388W        W67813  40.741  34.924   3.248
95389W        W67814  12.727  44.144   4.874
95390W        W67815  22.842  27.989  10.377
95391W        W67816  42.879  13.121   0.964
95392W        W67817  40.843  29.148  14.387
95393W        W67818  20.278  23.057   3.882
95394W        W67819  26.464  10.940   4.703
95395W        W67820  39.518  13.814  12.255
95396W        W67821   8.828  17.158   1.256
95397W        W67822  11.070   0.139   1.471
95398W        W67823  10.093  20.807  12.032
95399W        W67824   9.411  15.307  12.368
95400W        W67825  30.592   4.841  13.283
95401W        W67826   4.822  21.790  12.534
95402W        W67827  22.724  26.703  14.761
95403W        W67828  43.002  17.814  14.968
95404W        W67829  38.491  23.544   3.502
95405W        W67830  35.100  32.546   1.398
95406W        W67831  22.096   1.328  13.426
95407W        W67832  11.852  37.558   4.080
95408W        W67833  33.147  33.420  14.994
95409W        W67834  20.621  38.036  11.810
95410W        W67835  31.775  25.933   4.670
95411W        W67836   3.580  10.911  13.385
95412W        W67837  14.608  20.758  11.261
95413W        W67838  16.878  15.231   4.504
95414W        W67839  11.694  26.520  11.474
95415W        W67840  18.752  39.617  10.407
95416W        W67841  38.215  44.988   0.864
95417W        W67842   4.288   2.395   3.173
95418W        W67843  29.754  10.130  14.323
95419W        W67844  39.034  11.427  14.408
95420W        W67845  44.151  26.544  12.128
95421W        W67846  26.813  21.828  12.942
95422W        W67847  18.163  18.562   3.299
95423W        W67848   4.568  38.658  12.775
95424W        W67849  26.409  29.830  10.289
95425W        W67850  42.194   5.832   2.850
95426W        W67851  31.177  13.756  12.049
95427W        W67852  17.571   2.579  10.772
95428W        W67853  11.322  30.939  14.750
95429W        W67854  11.255  28.269   0.322
95430W        W67855  13.068  38.368   3.382
95431W        W67856  35.473  32.487  11.512
95432W        W67857  29.023   7.445  13.223
95433W        W67858  16.165  39.008  10.316
95434W        W67859  41.029  15.386  12.436
95435W        W67860   3.781   6.809   2.322
95436W        W67861   4.161   8.456  11.770
95437W        W67862  30.004  25.980  13.051
95438W        W67863  28.027   1.651   4.578
95439W        W67864   0.648  15.645   0.528
95440W        W67865  34.070   0.160  14.115
95441W        W67866   8.847   1.540  11.015
95442W        W67867  28.193   5.845  10.998
95443W        W67868  36.335  39.004  14.529
95444W        W67869  15.623   9.902   0.309
95445W        W67870  31.424  31.987  14.985
95446W        W67871  26.964  21.579  10.571
95447W        W67872  43.013  10.914  12.024
95448W        W67873  36.600  14.907   2.177
95449W        W67874  36.417   5.878  14.742
95450W        W67875  15.883  37.991   1.869
95451W        W67876  43.376  37.929  11.013
95452W        W67877  19.720  42.321  13.061
95453W        W67878  44.051  40.831  14.111
95454W        W67879  13.671   6.932   4.497
95455W        W67880   4.436  10.221   2.925
95456W        W67881  34.674  40.371   0.009
95457W        W67882  16.130   6.204   3.386
95458W        W67883  43.465  37.912  12.797
95459W        W67884   5.469  34.491  13.062
95460W        W67885  17.595  22.096  11.153
95461W        W67886   2.986  38.498  13.508
95462W        W67887  38.032  31.620   1.376
95463W        W67888  31.058  24.865   4.542
95464W        W67889  25.954   1.811  11.094
95465W        W67890  30.168  31.385   4.543
95466W        W67891  19.710   0.551  13.486
95467W        W67892   4.454  31.571  12.299
95468W        W67893  23.156   5.318   0.204
95469W        W67894  26.993  43.032   0.787
95470W        W67895  43.856  42.460   4.633
95471W        W67896  36.497  44.299   2.768
95472W        W67897   2.218  32.034   1.314
95473W        W67898  24.043   9.800  10.777
95474W        W67899  42.070  34.517  10.651
95475W        W67900   2.579  11.446   1.411
95476W        W67901  36.116  37.527   0.814
95477W        W67902   6.068  14.617   2.484
95478W        W67903  23.765  36.184   3.962
95479W        W67904  26.464  32.387   2.880
95480W        W67905  40.853  37.312  12.654
95481W        W67906  23.017  43.373  14.053
95482W        W67907  26.133  31.893   2.289
95483W        W67908  16.326   7.229   2.104
95484W        W67909   2.735  18.259  14.985
95485W        W67910  14.723   0.162   0.976
95486W        W67911   1.728  39.017  14.021
95487W        W67912  10.822  27.699  11.564
95488W        W67913  37.082  30.817   1.012
95489W        W67914  35.355   5.624   3.590
95490W        W67915  33.955  42.628  14.758
95491W        W67916  39.027  37.063  11.900
95492W        W67917  32.087  44.978  10.715
95493W        W67918  33.516  41.170  14.892
95494W        W67919  10.261  36.154  10.626
95495W        W67920  43.775  30.551  13.893
95496W        W67921   2.703  26.501  12.452
95497W        W67922  34.998  20.498  11.272
95498W        W67923  18.556  44.006   1.945
95499W        W67924  37.936  26.931   1.268
95500W        W67925   7.389  10.158  11.989
95501W        W67926  17.115  41.778   1.222
95502W        W67927  17.268  21.603   0.574
95503W        W67928  24.542  38.882   4.885
95504W        W67929  18.430   6.664   0.333
95505W        W67930  11.153  14.228   2.456
95506W        W67931  40.860  34.284  12.540
95507W        W67932   4.508  23.800  11.485
95508W        W67933   9.030  18.836   1.757
95509W        W67934  24.749  36.782  12.088
95510W        W67935  20.278  11.826   0.341
95511W        W67936  44.200  16.622   4.511
95512W        W67937  14.317  40.718  13.019
95513W        W67938  25.674  34.290   1.737
95514W        W67939  18.868   6.996   4.117
95515W        W67940  20.115   6.402  12.571
95516W        W67941   5.321   9.098  13.599
95517W        W67942  41.915  23.473  10.890
95518W        W67943  13.011   5.663  13.043
95519W        W67944  23.506  10.156  12.209
95520W        W67945  24.028  43.706   2.216
95521W        W67946   3.543  36.375   5.430
95522W        W67947  37.584   7.748   0.757
95523W        W67948  21.551  25.479   2.915
95524W        W67949  43.434  11.575   3.429
95525W        W67950   8.863  29.382  11.115
95526W        W67951  34.599  39.711   2.679
95527W        W67952  17.793  17.246   2.679
95528W        W67953  21.513  43.292   3.195
95529W        W67954  16.795   8.440   0.400
95530W        W67955  24.920  30.904  12.796
95531W        W67956  24.504  25.123  12.925
95532W        W67957  44.425   2.660  11.140
95533W        W67958   4.859  36.961   2.830
95534W        W67959  29.685  44.492   0.882
95535W        W67960  15.602  10.697   3.755
95536W        W67961  40.695  22.511  13.471
95537W        W67962  20.639   8.691   0.930
95538W        W67963  44.374  43.006  11.636
95539W        W67964  23.761  11.336  10.581
95540W        W67965  39.883  13.228  13.440
95541W        W67966  38.504   9.505   9.666
95542W        W67967  34.653  20.616   1.752
95543W        W67968  11.213  16.353  11.048
95544W        W67969  18.240  16.026  14.404
95545W        W67970  29.681  25.841   4.117
95546W        W67971  24.749   2.241   0.362
95547W        W67972  41.154  11.178  13.408
95548W        W67973  28.049  24.188  11.457
95549W        W67974  42.391  38.461   0.130
95550W        W67975   3.462  39.032   0.335
95551W        W67976   0.390  43.440   0.283
95552W        W67977  20.835  30.680  13.013
95553W        W67978  19.607   1.979  13.128
95554W        W67979  41.999  22.335   1.754
95555W        W67980  39.867  18.059   1.471
95556W        W67981  33.548   3.196  12.258
95557W        W67982  33.138  18.565  11.992
95558W        W67983   5.404  42.595  13.741
95559W        W67984  24.753  36.349  11.159
95560W        W67985  20.510  29.112  14.174
95561W        W67986  21.953   4.923   0.969
95562W        W67987  29.939   7.752  13.375
95563W        W67988  21.152  39.872   2.775
95564W        W67989  17.756  31.193  13.052
95565W        W67990  28.872  43.533   0.867
95566W        W67991  44.573  30.618  10.193
95567W        W67992  24.002   0.303  11.614
95568W        W67993  27.548   5.664   3.647
95569W        W67994  33.027  38.585  10.468
95570W        W67995  41.907  30.166   3.709
95571W        W67996   3.845   0.901  11.202
95572W        W67997  37.300  34.944  12.823
95573W        W67998  40.387  28.433   4.415
95574W        W67999  17.601  32.271  10.627
95575W        W68000  36.710  12.879   3.622
95576W        W68001  12.644  38.371   1.411
95577W        W68002   8.037  29.106  12.877
95578W        W68003  22.500   1.725  13.391
95579W        W68004  26.132   2.271   1.682
95580W        W68005  21.765  12.908   0.426
95581W        W68006  30.893   8.858   4.042
95582W        W68007  22.359  11.238   3.582
95583W        W68008   1.933  27.677  10.896
95584W        W68009  44.824  32.938   4.488
95585W        W68010  26.168  27.964   3.551
95586W        W68011  16.615  30.477  11.424
95587W        W68012   8.971  14.591  11.620
95588W        W68013   0.560  31.520   3.634
95589W        W68014   8.184  33.142   1.016
95590W        W68015  39.639  28.521  12.378
95591W        W68016  10.275   4.306   2.670
95592W        W68017  38.562  10.716   1.889
95593W        W68018  27.112   0.721  14.052
95594W        W68019  23.471  36.394  14.491
95595W        W68020   5.636  12.142   0.364
95596W        W68021  35.246   5.712   4.443
95597W        W68022  29.270  19.603  11.409
95598W        W68023   9.815  23.493   2.279
95599W        W68024  24.422   0.876  12.655
95600W        W68025   9.935  14.047  10.733
95601W        W68026  19.356  29.517  11.024
95602W        W68027  25.178  14.136  12.000
95603W        W68028  22.017  32.550   2.217
95604W        W68029  34.103  22.907  13.029
95605W        W68030  38.532  13.912  12.587
95606W        W68031   1.390  36.904  13.002
95607W        W68032  37.124  13.620   1.848
95608W        W68033  19.457   2.800  13.302
95609W        W68034  19.263  33.309   3.557
95610W        W68035   7.290  37.861   4.613
95611W        W68036  39.561  21.297  11.196
95612W        W68037  24.032  13.579  12.584
95613W        W68038  20.818  31.951  13.515
95614W        W68039   3.282  26.037  13.089
95615W        W68040  23.668   1.203   2.369
95616W        W68041  26.660  22.357  14.892
95617W        W68042  40.878  36.885  14.013
95618W        W68043  34.490  16.278  13.910
95619W        W68044  36.840  32.361  14.439
95620W        W68045  39.483   6.308   2.268
95621W        W68046  14.136  44.011  11.243
95622W        W68047  27.121  11.756  12.110
95623W        W68048  26.787  29.536   3.242
95624W        W68049  37.284  43.592   4.504
95625W        W68050  42.373  35.095   1.944
95626W        W68051  40.280  33.000   0.439
95627W        W68052   6.927  41.936  14.590
95628W        W68053  17.008  27.079   2.108
95629W        W68054  19.677  28.197  12.177
95630W        W68055  30.657  43.926  12.049
95631W        W68056  42.595  31.530  11.630
95632W        W68057  11.801   4.126  14.454
95633W        W68058  43.355  21.453   3.704
95634W        W68059  15.032   7.730   1.013
95635W        W68060  22.676   5.806  11.643
95636W        W68061   5.480  22.814  14.294
95637W        W68062  32.168  11.324  13.947
95638W        W68063   4.211   5.868   1.938
95639W        W68064  13.363  27.886   4.134
95640W        W68065  34.378  29.225   1.452
95641W        W68066   0.314  12.877  13.056
95642W        W68067  20.715  10.903   4.939
95643W        W68068  32.551   1.293  13.280
95644W        W68069   9.585  26.010   1.650
95645W        W68070  10.701  27.195  10.613
95646W        W68071  42.920  24.805   4.638
95647W        W68072  44.344  17.321   0.837
95648W        W68073  39.869  12.308   0.444
95649W        W68074  18.665  23.181  11.188
95650W        W68075  32.032  28.389  10.522
95651W        W68076  32.573  44.772  13.059
95652W        W68077  27.983  30.616   2.332
95653W        W68078  10.531  23.224  14.879
95654W        W68079  44.193   4.818   2.170
95655W        W68080  43.928   4.322   4.634
95656W        W68081  44.094  23.120  12.259
95657W        W68082  32.534  26.539  10.654
95658W        W68083  34.037  42.073  14.216
95659W        W68084  30.524  39.853   1.001
95660W        W68085   5.233   5.823  11.208
95661W        W68086   3.429  21.624  13.597
95662W        W68087  37.590  12.890  12.045
95663W        W68088  43.540   9.343  12.902
95664W        W68089  23.982  40.926  12.024
95665W        W68090  21.776  12.768  11.239
95666W        W68091  10.611  36.372  11.026
95667W        W68092  12.674   0.999   2.908
95668W        W68093  18.596  37.934   2.447
95669W        W68094  27.031  27.742  10.606
95670W        W68095  23.481  41.436  14.414
95671W        W68096   5.876   2.472   2.332
95672W        W68097  36.416  22.736   4.140
95673W        W68098  41.397  13.678   0.270
95674W        W68099   7.485  42.430  10.740
95675W        W68100   9.632   3.665   2.887
95676W        W68101  36.815  16.338   3.583
95677W        W68102  10.279  10.275   1.575
95678W        W68103   0.844  32.539   3.748
95679W        W68104  24.144  26.212   2.792
95680W        W68105  33.364  10.341  11.376
95681W        W68106  18.835  41.031   4.112
95682W        W68107  29.000   6.763  10.649
95683W        W68108  18.993  11.845   0.917
95684W        W68109  20.496   3.847   2.133
95685W        W68110  19.309  10.420  12.977
95686W        W68111   7.985  43.233  14.262
95687W        W68112  14.866  10.729  14.518
95688W        W68113  21.610   2.944   1.264
95689W        W68114  15.379  21.200   4.477
95690W        W68115  10.206   8.319  12.955
95691W        W68116   7.945  42.740  10.708
95692W        W68117  27.927  39.452   1.916
95693W        W68118  25.317   4.164  13.809
95694W        W68119   0.832   8.248   1.184
95695W        W68120  41.276  23.142   3.134
95696W        W68121  32.663  31.367  10.761
95697W        W68122  12.405  22.446   3.136
95698W        W68123  41.795  31.652   4.232
95699W        W68124  15.258  29.119   0.049
95700W        W68125  23.244   3.182   0.942
95701W        W68126  32.379   4.466  11.460
95702W        W68127   9.324  32.671   0.946
95703W        W68128  30.583  32.361   2.268
95704W        W68129  42.362  19.804  13.409
95705W        W68130  40.616  25.028  12.095
95706W        W68131  25.978   5.822   2.682
95707W        W68132  34.081   6.875  12.564
95708W        W68133  26.569  18.668   2.658
95709W        W68134  12.803  20.320   1.780
95710W        W68135   3.811  33.809   2.171
95711W        W68136  39.297   4.319   2.802
95712W        W68137  42.391  30.338   2.943
95713W        W68138   8.689  44.235  12.863
95714W        W68139  33.015  24.208   1.349
95715W        W68140  24.663  33.550  12.527
95716W        W68141  11.749  20.241   0.161
95717W        W68142   1.655  32.865   3.329
95718W        W68143  23.253  36.183   2.762
95719W        W68144  36.154   9.210   4.138
95720W        W68145  26.055  24.041   4.049
95721W        W68146  32.104  42.312   0.429
95722W        W68147   2.207  17.620   0.008
95723W        W68148  21.350  43.244  12.501
95724W        W68149  39.940  22.279  14.663
95725W        W68150  43.848  38.682   3.333
95726W        W68151   6.384   2.430  13.316
95727W        W68152  16.509   3.336   4.575
95728W        W68153  13.163  16.451  14.067
95729W        W68154  20.349  30.970  11.451
95730W        W68155  18.163   8.255   1.213
95731W        W68156   2.640  12.160   3.275
95732W        W68157  31.347  22.967  13.539
95733W        W68158   9.748  10.579  14.469
95734W        W68159  33.693  15.858  14.930
95735W        W68160  35.929  26.936  10.697
95736W        W68161  33.221   3.880  10.664
95737W        W68162  23.966  38.975   1.451
95738W        W68163  36.028  22.008   2.844
95739W        W68164  39.913  13.253  14.090
95740W        W68165   8.050  11.305   4.842
95741W        W68166  19.150  11.659   1.389
95742W        W68167  41.563  28.106   3.207
95743W        W68168  39.052   6.182  13.874
95744W        W68169  35.437  32.121  13.201
95745W        W68170  12.622   1.345  12.459
95746W        W68171  24.522  25.323   0.374
95747W        W68172  20.698  28.882   3.645
95748W        W68173   1.586   6.322  11.544
95749W        W68174  34.007  36.268  11.292
95750W        W68175  26.470  12.826  12.454
95751W        W68176  15.663   7.179  10.983
95752W        W68177  21.516  21.118   1.868
95753W        W68178   1.778   1.468   1.301
95754W        W68179  37.862  43.380  12.015
95755W        W68180  35.542  18.521   1.192
95756W        W68181  32.008  30.968   2.271
95757W        W68182  12.005  31.838  13.984
95758W        W68183  21.295  33.621  12.064
95759W        W68184  19.258   0.919   1.251
95760W        W68185  16.413   3.286   2.896
95761W        W68186  16.271  36.419   3.652
95762W        W68187  25.910   9.893  14.538
95763W        W68188  20.121  38.473   3.343
95764W        W68189  23.469  30.589  11.440
95765W        W68190  43.813  30.438  14.753
95766W        W68191  24.221  11.978   3.109
95767W        W68192  34.993  42.045   3.186
95768W        W68193  27.074  37.996   1.857
95769W        W68194  24.941  38.966   1.036
95770W        W68195  22.933  36.360   0.154
95771W        W68196   0.888   4.266  14.846
95772W        W68197  17.559  22.121   0.302
95773W        W68198  11.810  29.125  14.880
95774W        W68199  40.577  40.175   3.714
95775W        W68200  14.676   9.857   1.349
95776W        W68201  32.551  40.845  10.644
95777W        W68202  43.501  10.949  12.827
95778W        W68203  18.221  30.466  13.831
95779W        W68204   0.351   2.437  14.750
95780W        W68205  20.537   0.816   0.781
95781W        W68206  31.420   6.735  14.477
95782W        W68207  10.628  26.560  11.555
95783W        W68208   4.887   2.103  13.418
95784W        W68209  34.411   0.993   1.277
95785W        W68210  10.855   5.666  10.719
95786W        W68211  40.220  29.020  11.672
95787W        W68212  24.140  42.455   2.861
95788W        W68213   3.705  17.160   4.626
95789W        W68214  41.347  42.478  11.780
95790W        W68215   8.879  21.771   3.240
95791W        W68216  22.109  42.799  14.346
95792W        W68217  33.095   5.801  11.368
95793W        W68218  26.809  15.608   0.748
95794W        W68219   8.441   9.230  14.313
95795W        W68220  25.022  34.575  13.332
95796W        W68221  17.525   5.436  14.287
95797W        W68222  16.364  36.334  11.230
95798W        W68223  17.182   4.488   0.044
95799W        W68224  28.087  22.512  12.935
95800W        W68225   1.854   9.242  11.654
95801W        W68226  38.091  25.313   5.062
95802W        W68227   9.891  44.508  14.854
95803W        W68228  26.775  20.549   2.516
95804W        W68229   4.170  21.186   3.653
95805W        W68230  34.436  31.457   2.171
95806W        W68231  15.168  30.766   1.274
95807W        W68232  21.587  43.855   4.456
95808W        W68233  42.925   0.795   4.609
95809W        W68234  34.159  14.631  12.534
95810W        W68235   2.240  15.550   3.688
95811W        W68236   8.239  17.689  14.939
95812W        W68237  23.685  19.396   3.747
95813W        W68238   0.014  22.614   4.350
95814W        W68239  12.549   6.232  13.871
95815W        W68240  40.090   0.007  13.285
95816W        W68241  43.174   9.967   1.368
95817W        W68242  29.188   2.945  14.578
95818W        W68243  35.369  24.476   3.320
95819W        W68244   0.044  21.227   2.172
95820W        W68245  41.336  19.835   3.185
95821W        W68246  22.242   9.749  11.912
95822W        W68247   2.885  43.805   4.731
95823W        W68248   7.416  16.357  12.636
95824W        W68249  29.600  22.275  13.351
95825W        W68250  14.302  21.397   3.696
95826W        W68251   0.261  19.061   2.406
95827W        W68252   6.861  42.644   3.818
95828W        W68253  20.462  28.096  12.013
95829W        W68254  32.415  26.955   2.583
95830W        W68255  25.876  41.887   0.940
95831W        W68256  21.143  25.777   2.824
95832W        W68257   1.444   3.347  12.301
95833W        W68258   5.185   7.860  12.027
95834W        W68259   1.509  28.039  13.329
95835W        W68260  42.775  36.805   3.119
95836W        W68261  16.980   5.444   1.677
95837W        W68262  40.536  34.450  14.947
95838W        W68263  44.233  43.187   1.469
95839W        W68264   0.448  36.518   1.192
95840W        W68265  15.655  16.546   3.258
95841W        W68266  21.670  42.529   2.807
95842W        W68267  37.140  36.395   1.933
95843W        W68268   3.474  41.526   4.084
95844W        W68269  12.238  24.945  13.913
95845W        W68270  21.713   0.485   0.198
95846W        W68271  22.658  40.789   1.191
95847W        W68272  12.106  23.603  13.902
95848W        W68273   9.842  38.702   3.172
95849W        W68274   6.069  38.541  14.886
95850W        W68275   3.896  24.559  13.514
95851W        W68276  42.952  24.040  11.355
95852W        W68277   9.188  22.297   4.141
95853W        W68278  11.421  16.727   0.898
95854W        W68279  44.107  36.975   4.053
95855W        W68280  11.758  25.277   2.420
95856W        W68281  31.351  36.659   2.754
95857W        W68282   6.613  17.885  12.975
95858W        W68283  30.226  20.584  14.844
95859W        W68284  32.170  19.256   9.832
95860W        W68285  10.381  28.579  12.908
95861W        W68286  19.025  18.479   3.259
95862W        W68287  43.713  29.853   1.894
95863W        W68288  30.663  16.693   1.028
95864W        W68289  38.417   4.682  12.949
95865W        W68290  14.376  37.323   2.851
95866W        W68291   8.917   8.717  13.021
95867W        W68292  25.441  28.852   4.210
95868W        W68293  40.027  42.209  13.041
95869W        W68294  36.644   6.451  13.919
95870W        W68295   5.342  37.899   3.962
95871W        W68296   3.702  22.206   3.864
95872W        W68297  31.682  21.575   4.068
95873W        W68298  25.532   2.007   3.875
95874W        W68299  25.884  12.125  13.919
95875W        W68300  11.288  39.052   4.259
95876W        W68301  44.858  34.126  13.388
95877W        W68302  21.176  10.752   1.783
95878W        W68303  36.982  39.757   1.329
95879W        W68304  27.479   1.546   3.155
95880W        W68305   3.488  35.912  10.799
95881W        W68306  27.945  19.360  11.875
95882W        W68307  23.721  13.854  10.764
95883W        W68308  37.516  15.653   4.560
95884W        W68309   2.358  23.453   0.687
95885W        W68310  16.335  31.002  12.955
95886W        W68311  23.667  21.018   0.157
95887W        W68312  32.980  38.305  13.448
95888W        W68313  19.113  26.321  11.301
95889W        W68314  12.657  36.992   1.398
95890W        W68315   2.563  29.516  12.848
95891W        W68316  43.840  34.320  13.963
95892W        W68317  19.820   9.160  13.030
95893W        W68318  19.482  24.085   0.789
95894W        W68319   9.779  18.210   2.305
95895W        W68320   2.014  33.897   1.946
95896W        W68321  39.909  37.864  13.422
95897W        W68322   7.276   3.786  11.687
95898W        W68323   0.043  28.433   3.226
95899W        W68324  33.312  13.119   2.702
95900W        W68325  42.184   1.520   4.339
95901W        W68326  34.327  24.517  10.683
95902W        W68327  12.814   1.387  13.913
95903W        W68328  39.945  24.700  13.656
95904W        W68329  19.012  14.254  10.286
95905W        W68330   5.417  39.829   2.344
95906W        W68331  32.034  31.673   4.785
95907W        W68332  23.678   8.721  13.981
95908W        W68333   3.214  33.328   1.521
95909W        W68334  25.503  42.229  11.586
95910W        W68335   0.199   2.276   2.868
95911W        W68336  15.298  11.795   4.443
95912W        W68337  17.065  29.584  11.570
95913W        W68338  27.731  36.905  14.327
95914W        W68339  17.739  30.969   2.773
95915W        W68340  20.279  42.950   2.902
95916W        W68341  27.598  21.795   4.621
95917W        W68342  11.833   4.998  11.224
95918W        W68343  31.498  28.152  10.475
95919W        W68344  15.266   4.412   0.680
95920W        W68345  31.039  21.659  11.918
95921W        W68346  12.291  37.071  11.700
95922W        W68347  40.080  39.001  10.700
95923W        W68348  13.365  35.164  12.086
95924W        W68349   7.587   8.407  14.796
95925W        W68350  28.127   3.431   2.292
95926W        W68351  29.460  20.697   1.733
95927W        W68352  37.060  10.582   4.001
95928W        W68353  23.526  30.197  14.790
95929W        W68354   4.358  18.850   4.171
95930W        W68355   4.429  26.533  11.908
95931W        W68356  36.814  37.617  10.189
95932W        W68357  34.070  13.066   4.554
95933W        W68358   3.882  25.206   3.266
95934W        W68359   2.800   1.274   0.325
95935W        W68360   9.271  18.176   4.761
95936W        W68361  17.575   5.919  13.374
95937W        W68362  41.295  13.634   0.786
95938W        W68363  21.021   9.877   3.211
95939W        W68364  22.457  24.441  14.834
95940W        W68365  21.800  31.466  11.552
95941W        W68366  32.502  23.169   4.351
95942W        W68367  42.540   0.984  11.140
95943W        W68368  31.118  25.750  13.850
95944W        W68369  44.922  32.696   3.707
95945W        W68370   5.601   2.722   2.770
95946W        W68371  37.202  29.725   1.888
95947W        W68372  13.426  11.738  10.735
95948W        W68373   1.442  20.986   0.821
95949W        W68374  35.355   9.716  13.091
95950W        W68375  17.705  18.096   0.748
95951W        W68376  25.756  30.099  11.316
95952W        W68377  25.925  11.255  13.486
95953W        W68378  32.100   6.284  11.611
95954W        W68379  32.371  22.149  13.874
95955W        W68380  12.184  15.024   3.732
95956W        W68381  26.341  38.934   0.925
95957W        W68382  40.239  10.324  11.470
95958W        W68383  22.778   4.742  10.601
95959W        W68384  31.191  16.048  13.077
95960W        W68385  39.315  35.496   0.264
95961W        W68386  26.493  44.358   0.946
95962W        W68387  18.098  27.250   4.839
95963W        W68388  33.967   3.309   4.664
95964W        W68389  33.336  13.646   4.314
95965W        W68390  24.131  41.090   2.819
95966W        W68391  12.301  15.718   4.287
95967W        W68392  34.533  13.147  13.121
95968W        W68393  33.346  12.060  10.859
95969W        W68394  44.358  41.381  10.249
95970W        W68395  12.558  27.629   4.671
95971W        W68396  28.329  34.798   4.699
95972W        W68397  35.107   4.871   4.473
95973W        W68398   9.212  19.188  11.496
95974W        W68399  26.997   9.936  12.481
95975W        W68400   4.910   5.450  14.804
95976W        W68401  42.017  27.021  10.381
95977W        W68402  37.879  13.601   1.238
95978W        W68403   5.845  18.890   0.269
95979W        W68404  29.244  16.134   4.523
95980W        W68405  16.302  33.061   1.902
95981W        W68406  31.884  13.917  10.785
95982W        W68407   6.017  21.131   3.604
95983W        W68408  40.594  40.651   1.177
95984W        W68409   5.961  23.837   2.627
95985W        W68410  42.400   4.978  12.421
95986W        W68411  23.298  22.097  12.760
95987W        W68412  22.801  15.320  12.192
95988W        W68413  15.401  22.286  14.413
95989W        W68414  11.322  24.104   9.707
95990W        W68415  10.162  33.558  13.302
95991W        W68416   1.196  39.018  14.042
95992W        W68417   1.201  38.873   3.238
95993W        W68418   9.904  30.348  14.457
95994W        W68419   0.182  18.990   3.344
95995W        W68420  41.922  26.542  13.507
95996W        W68421  37.573  38.109  13.836
95997W        W68422  17.211  17.350  13.903
95998W        W68423  28.042  43.317   3.735
95999W        W68424  35.569  26.503   0.634
96000W        W68425   9.506  26.715  13.923
96001W        W68426  30.774  26.467  13.588
96002W        W68427  16.549   1.415   1.254
96003W        W68428  17.659  18.773   4.951
96004W        W68429  26.588  43.489  13.474
96005W        W68430  43.287   3.346   3.238
96006W        W68431  20.153   2.440  14.876
96007W        W68432  43.017  43.030   0.307
96008W        W68433  37.782  25.544   4.671
96009W        W68434  20.423  17.633   4.272
96010W        W68435  15.100  43.633  12.775
96011W        W68436  37.438  15.503  13.456
96012W        W68437  37.613  38.187  14.720
96013W        W68438  27.641  38.936   3.196
96014W        W68439  40.928   9.136   3.105
96015W        W68440  10.099   1.411  13.405
96016W        W68441  30.535  42.272  14.797
96017W        W68442  26.394  30.590  14.405
96018W        W68443  15.268  23.579   3.970
96019W        W68444  38.242  10.707   3.324
96020W        W68445  39.222  37.872   2.232
96021W        W68446  26.571  14.253   0.795
96022W        W68447  35.427   0.997  14.967
96023W        W68448  22.300  26.079   2.920
96024W        W68449  22.685  26.088  12.114
96025W        W68450  40.289   4.312  10.814
96026W        W68451   7.961   9.285  12.141
96027W        W68452  41.041   2.402   2.214
96028W        W68453  25.697  11.342   1.377
96029W        W68454  27.959  23.631   3.379
96030W        W68455   0.509   9.755   3.304
96031W        W68456  25.616   6.819  11.768
96032W        W68457  25.999  27.127   0.024
96033W        W68458  44.380  12.039   0.607
96034W        W68459  37.313  12.041  14.450
96035W        W68460  13.066   0.968   2.104
96036W        W68461   6.163   1.719  13.533
96037W        W68462   3.379  18.202   1.854
96038W        W68463  18.102  43.727   0.477
96039W        W68464  15.144  27.485   1.470
96040W        W68465  32.359  10.347  12.008
96041W        W68466  18.695  43.480   1.246
96042W        W68467   4.392  36.326  12.325
96043W        W68468   1.337   0.989  10.503
96044W        W68469   1.266  27.084   2.323
96045W        W68470  32.958  39.981  14.707
96046W        W68471  40.890  12.075  13.254
96047W        W68472   0.988  39.559  11.423
96048W        W68473  37.794  43.363   4.576
96049W        W68474  18.443   1.712  13.251
96050W        W68475  37.579  13.270   4.553
96051W        W68476  32.392  16.874   2.421
96052W        W68477   0.133  44.310   0.369
96053W        W68478  16.717   8.787   0.830
96054W        W68479  22.201  11.697   0.498
96055W        W68480  28.300  12.466   0.872
96056W        W68481  41.839   8.949  10.811
96057W        W68482   9.686  34.739   2.460
96058W        W68483  30.287  42.022  14.431
96059W        W68484  19.070  26.188  12.238
96060W        W68485  41.941   6.343   3.809
96061W        W68486  16.171  17.175   4.310
96062W        W68487  14.600  31.893   1.713
96063W        W68488  33.664  21.083   2.349
96064W        W68489  40.934  34.104  14.956
96065W        W68490  28.769  23.585   3.823
96066W        W68491   4.326  32.097   2.715
96067W        W68492   7.188  36.939  12.154
96068W        W68493  25.033  16.251   4.567
96069W        W68494  24.193  29.072  12.536
96070W        W68495   3.857  37.103  12.824
96071W        W68496  36.815  32.207  10.235
96072W        W68497   3.590  36.653  12.001
96073W        W68498  22.088  25.645   1.475
96074W        W68499   6.392  41.097  10.676
96075W        W68500  18.621  24.656   4.103
96076W        W68501  16.066   3.892  12.573
96077W        W68502  18.249  40.465   3.711
96078W        W68503   2.472  42.034  12.505
96079W        W68504  28.146  37.962   3.923
96080W        W68505  35.788  12.288   1.864
96081W        W68506  25.948  24.846   3.236
96082W        W68507  17.238  14.312   1.386
96083W        W68508  35.306  19.100  10.548
96084W        W68509   7.585   1.668   2.372
96085W        W68510  37.062  44.607   1.949
96086W        W68511   2.413   0.736  11.563
96087W        W68512   8.220   3.563  10.453
96088W        W68513  10.704  13.545   0.540
96089W        W68514  32.335  25.202   4.489
96090W        W68515  19.677  41.336  13.923
96091W        W68516  40.417   2.434   4.021
96092W        W68517  44.940  30.498  11.144
96093W        W68518  14.985  21.157  14.792
96094W        W68519  17.254  19.138  11.954
96095W        W68520   7.335  42.401   0.461
96096W        W68521  32.703  25.195   2.755
96097W        W68522   9.562  12.269  13.061
96098W        W68523  23.315   2.813   4.123
96099W        W68524  38.080   3.991   2.131
96100W        W68525   2.368  44.922   0.684
96101W        W68526  29.096   4.980  12.028
96102W        W68527  42.336  15.114   0.893
96103W        W68528  16.617   9.328   3.309
96104W        W68529  27.523  30.653   4.650
96105W        W68530  14.631  16.717   4.610
96106W        W68531  22.519  36.334  13.417
96107W        W68532   1.985  23.678   3.065
96108W        W68533  11.658  19.953   1.027
96109W        W68534  19.035  15.427   4.702
96110W        W68535  39.317  16.614  13.853
96111W        W68536  22.506  11.547  10.685
96112W        W68537  38.968  13.927   4.631
96113W        W68538  38.854  22.439   0.409
96114W        W68539  35.303  43.403  13.827
96115W        W68540   0.538  34.023   4.189
96116W        W68541  28.472  28.604  14.856
96117W        W68542   2.080  36.422   3.253
96118W        W68543  34.129  12.285  13.940
96119W        W68544  10.788  25.257  10.562
96120W        W68545  18.309   5.106   0.391
96121W        W68546   4.364   9.697   3.669
96122W        W68547  24.781  22.673   3.299
96123W        W68548  10.362  21.137  12.385
96124W        W68549   4.358  21.206   5.118
96125W        W68550  28.225   6.263  10.246
96126W        W68551  17.491  19.620  14.844
96127W        W68552  15.998   2.984  10.367
96128W        W68553   7.315   2.514  14.225
96129W        W68554   5.845  12.909   0.764
96130W        W68555  15.269   1.702   5.187
96131W        W68556  44.019  31.197   0.691
96132W        W68557  23.722  41.391  10.649
96133W        W68558  24.637  19.037   0.264
96134W        W68559  22.624  36.872  10.751
96135W        W68560  36.914  10.190  10.655
96136W        W68561  32.350  26.047  12.604
96137W        W68562  40.938  41.721   2.253
96138W        W68563  30.454  10.554   0.391
96139W        W68564  36.071  28.142   4.287
96140W        W68565  26.808  40.101   2.930
96141W        W68566   7.724  12.767   0.708
96142W        W68567  28.706  23.825   5.091
96143W        W68568  38.727  37.984   2.387
96144W        W68569   4.009  25.435  13.902
96145W        W68570  23.287  34.960   1.836
96146W        W68571  19.635  32.907   1.306
96147W        W68572  29.198  38.922  10.124
96148W        W68573   5.079  13.648   4.524
96149W        W68574  18.482  19.719   0.774
96150W        W68575  11.205   1.249   0.471
96151W        W68576  40.690  39.335  14.557
96152W        W68577   2.423   4.276   2.811
96153W        W68578  38.572  28.303  12.026
96154W        W68579   5.809  43.740   1.211
96155W        W68580  22.505  22.720  13.937
96156W        W68581   9.661  12.840  10.401
96157W        W68582  24.192   2.996   3.798
96158W        W68583  32.878  41.445  10.462
96159W        W68584  15.957   1.800  11.043
96160W        W68585   5.768   9.414  10.662
96161W        W68586  21.732  34.005   1.395
96162W        W68587  24.713   0.441   3.619
96163W        W68588  24.412  12.842  11.022
96164W        W68589   0.533  36.912   0.859
96165W        W68590  41.210  22.730  11.907
96166W        W68591  21.329   4.640   4.449
96167W        W68592  14.694  35.357   1.642
96168W        W68593  11.193  43.500  12.039
96169W        W68594  26.749  44.402   4.881
96170W        W68595  32.568  31.649  14.319
96171W        W68596   1.492  19.187  13.386
96172W        W68597  19.576  26.981  10.980
96173W        W68598  10.294  15.093  10.685
96174W        W68599  22.207  20.798   1.262
96175W        W68600   8.385   6.462   4.121
96176W        W68601  18.521  42.353   0.527
96177W        W68602  43.626   7.283   0.763
96178W        W68603   7.860   9.875   3.619
96179W        W68604  13.316  14.315   0.372
96180W        W68605  38.967  33.987   2.649
96181W        W68606  20.110  24.146  10.781
96182W        W68607  20.814  44.888  11.067
96183W        W68608  18.284  35.085   1.986
96184W        W68609  27.556  29.700  11.410
96185W        W68610  41.358  34.381  12.467
96186W        W68611  13.247  18.599   4.721
96187W        W68612  36.548   8.418  13.560
96188W        W68613  17.076  40.594   0.242
96189W        W68614   0.967  23.198  12.612
96190W        W68615  30.729  36.382  12.891
96191W        W68616  40.292  32.493   2.857
96192W        W68617  42.407  35.433  12.973
96193W        W68618  34.825  17.246  13.511
96194W        W68619  43.793  19.350  10.666
96195W        W68620  13.216  29.676   0.398
96196W        W68621  10.717  38.766  13.316
96197W        W68622  12.522  13.996  13.927
96198W        W68623  35.651  37.995   0.253
96199W        W68624  31.449  38.115   1.361
96200W        W68625  23.043  26.912  13.865
96201W        W68626  37.008  25.237  12.074
96202W        W68627  14.736   7.352   3.624
96203W        W68628  38.894   7.714  11.031
96204W        W68629  10.734   0.952  13.984
96205W        W68630  36.901  38.909  11.133
96206W        W68631  17.047   3.702   0.419
96207W        W68632   8.210  32.281  12.822
96208W        W68633  11.310  11.742   3.447
96209W        W68634   6.541  26.332  13.532
96210W        W68635  25.323  27.965  11.152
96211W        W68636  21.033  13.920   2.636
96212W        W68637   4.761  21.133  13.526
96213W        W68638  27.533  18.105  11.914
96214W        W68639  26.662  25.240   2.346
96215W        W68640  44.752   2.008  14.013
96216W        W68641  31.483  27.968  10.951
96217W        W68642   0.299   7.550   1.268
96218W        W68643  37.820  18.108   0.401
96219W        W68644  25.185   3.203   0.909
96220W        W68645  12.839   0.490   4.927
96221W        W68646  20.771  32.202  12.259
96222W        W68647  43.346  43.404   2.237
96223W        W68648  29.610   4.362   0.671
96224W        W68649  38.823  44.953   2.238
96225W        W68650  35.014   3.492  12.352
96226W        W68651   9.338   6.452  10.611
96227W        W68652  27.979   4.911  13.976
96228W        W68653  30.446  24.997   1.199
96229W        W68654   0.772  34.732  11.201
96230W        W68655   0.043   6.391  14.252
96231W        W68656   7.502   0.333  12.647
96232W        W68657  20.993   9.709  11.784
96233W        W68658  28.758  44.638  14.895
96234W        W68659   8.298  14.549   1.697
96235W        W68660  34.671  36.864  11.187
96236W        W68661  24.035  24.453  12.075
96237W        W68662  22.012  14.228  11.131
96238W        W68663  38.984   7.385   0.459
96239W        W68664   8.059   2.673   4.006
96240W        W68665  26.185  35.614   1.429
96241W        W68666  40.931  37.361  13.798
96242W        W68667  35.081   2.927  14.424
96243W        W68668  32.414  12.795  11.487
96244W        W68669  19.833  42.489  12.048
96245W        W68670   3.208  33.618   2.898
96246W        W68671  15.269  20.592  11.778
96247W        W68672  41.477  17.706   3.887
96248W        W68673   0.849  26.586   0.316
96249W        W68674  27.758   2.746   3.619
96250W        W68675  24.574  23.432  12.345
96251W        W68676  13.303  37.571   2.123
96252W        W68677  11.760  38.534   0.909
96253W        W68678   1.949  41.807  13.251
96254W        W68679   5.288  42.955   1.183
96255W        W68680  23.687  30.704  14.793
96256W        W68681  28.053   5.317  10.769
96257W        W68682  40.291  42.841   0.905
96258W        W68683   2.932  31.999   0.838
96259W        W68684  30.473  11.758   3.674
96260W        W68685  24.723  16.356   1.891
96261W        W68686  44.680  13.282  12.113
96262W        W68687   3.715  19.733  11.467
96263W        W68688   7.072  23.613   0.713
96264W        W68689   7.187   8.842   3.774
96265W        W68690  35.330   2.459   4.213
96266W        W68691   3.947  31.714   3.930
96267W        W68692   0.193  42.324  13.198
96268W        W68693  16.156  35.918  13.374
96269W        W68694  24.432  14.165  13.169
96270W        W68695  20.530  41.419  11.388
96271W        W68696  15.520  30.646  12.963
96272W        W68697   2.599  37.593  11.153
96273W        W68698  30.249  24.713   9.548
96274W        W68699  17.540  21.290   2.875
96275W        W68700  37.499  32.746  14.057
96276W        W68701  35.062  23.799   4.533
96277W        W68702   0.929  25.797  11.009
96278W        W68703   4.805  31.494  14.230
96279W        W68704  21.072  33.172  13.127
96280W        W68705  32.456  36.892   3.989
96281W        W68706  18.350  19.808  12.416
96282W        W68707  12.820   6.144   0.735
96283W        W68708  18.030   7.229   3.710
96284W        W68709  31.027  41.179  13.877
96285W        W68710   1.298  25.435   3.425
96286W        W68711  11.258  27.446  11.653
96287W        W68712  16.878  29.329  13.884
96288W        W68713  24.909  34.794  14.994
96289W        W68714  32.480  15.420   4.557
96290W        W68715   4.199   5.200  13.461
96291W        W68716  15.591  27.979  11.199
96292W        W68717  19.113   6.937  11.462
96293W        W68718   0.529   7.698   3.614
96294W        W68719  18.825  15.646   2.537
96295W        W68720  43.573  30.409  10.300
96296W        W68721  22.977  21.598   4.084
96297W        W68722  44.007  15.619  13.326
96298W        W68723   2.225  26.430   2.839
96299W        W68724  25.900  15.746  12.510
96300W        W68725  11.614   4.009  14.966
96301W        W68726  30.887  31.921   5.004
96302W        W68727  34.921  12.888  12.858
96303W        W68728  30.099  43.790  14.754
96304W        W68729  24.987  34.034   3.780
96305W        W68730  25.460  17.705  14.458
96306W        W68731   7.466  36.951  13.645
96307W        W68732   0.079  10.784   1.833
96308W        W68733  38.936  38.570  14.515
96309W        W68734  43.405  24.701   2.283
96310W        W68735  44.808  22.675  14.039
96311W        W68736  30.691  20.599   0.646
96312W        W68737  22.438  33.061   1.822
96313W        W68738  20.258  21.643   0.228
96314W        W68739  22.328  34.986   1.347
96315W        W68740  16.663  35.253  13.064
96316W        W68741  33.001  14.002   0.774
96317W        W68742   3.003  42.423  11.387
96318W        W68743   1.729  18.263   1.420
96319W        W68744  42.232  21.795   5.418
96320W        W68745  23.597  27.758   1.210
96321W        W68746  20.316  44.349   2.849
96322W        W68747   5.721  18.066  10.744
96323W        W68748  41.833  12.785   0.954
96324W        W68749   3.921  27.194   0.557
96325W        W68750  32.496   6.685   2.338
96326W        W68751   2.116   4.836  11.553
96327W        W68752  32.883  37.317   0.314
96328W        W68753  44.000  10.653  12.899
96329W        W68754  27.865  20.018  12.001
96330W        W68755  30.679   8.277   2.652
96331W        W68756  25.038   2.925   3.049
96332W        W68757  36.206  36.860  11.170
96333W        W68758  17.549   3.040  10.510
96334W        W68759  33.290  19.508  10.167
96335W        W68760   6.664   2.860   0.819
96336W        W68761  33.500  19.849   2.611
96337W        W68762  35.354   7.169   3.669
96338W        W68763  36.589   7.032  11.719
96339W        W68764   8.390   6.422   1.918
96340W        W68765   2.651  14.237   3.715
96341W        W68766  34.379  13.495   4.516
96342W        W68767   3.219   9.100  13.656
96343W        W68768  26.577  14.261  14.413
96344W        W68769  30.372   3.752   3.927
96345W        W68770   6.145  16.824   3.685
96346W        W68771  20.708  23.442   0.683
96347W        W68772  18.996   6.003   5.136
96348W        W68773  42.838  27.410   3.719
96349W        W68774  11.627  41.446  11.144
96350W        W68775  34.565  13.588   3.066
96351W        W68776  40.502   7.786   1.833
96352W        W68777  40.016  10.166  11.026
96353W        W68778  30.972  37.843  10.791
96354W        W68779  41.819   8.208   1.902
96355W        W68780  14.323  28.373  12.423
96356W        W68781  30.124  22.113  11.465
96357W        W68782  26.711  22.033  10.654
96358W        W68783   8.198  36.761  12.769
96359W        W68784  44.465   7.712   1.277
96360W        W68785  28.135  33.450   0.245
96361W        W68786  26.004  14.599  13.602
96362W        W68787   2.996   2.904  10.668
96363W        W68788  18.238  28.922   3.236
96364W        W68789  16.825  40.604   2.481
96365W        W68790   9.379  13.171  14.429
96366W        W68791   3.825   4.992   1.766
96367W        W68792  23.603  33.081   4.301
96368W        W68793  32.086  16.972  12.133
96369W        W68794  37.364  44.356   2.372
96370W        W68795  42.473  28.661   2.244
96371W        W68796  26.476  11.795  11.404
96372W        W68797  18.923  36.422  14.363
96373W        W68798   0.331  33.466   2.368
96374W        W68799  31.839  10.419   1.325
96375W        W68800  25.225  25.577  14.306
96376W        W68801  10.394  11.229   0.942
96377W        W68802   8.681  11.111  13.047
96378W        W68803   5.789  11.919  12.042
96379W        W68804  11.918  16.634   0.910
96380W        W68805  19.200  41.382  14.731
96381W        W68806  42.367   9.726  13.520
96382W        W68807  29.004  20.713   2.394
96383W        W68808   0.556  34.910  14.113
96384W        W68809   3.019  17.025  11.621
96385W        W68810  22.616  12.689  12.563
96386W        W68811  44.087  17.048  12.968
96387W        W68812  37.390  18.521  11.812
96388W        W68813   4.965   0.705   0.867
96389W        W68814  20.610  27.059   4.605
96390W        W68815  25.189  37.077  12.012
96391W        W68816  40.022   6.426   0.668
96392W        W68817  25.076  30.875  11.483
96393W        W68818  23.571  16.271   1.296
96394W        W68819  35.868   6.921  13.069
96395W        W68820  30.705   0.150  13.909
96396W        W68821   8.457   1.477  12.658
96397W        W68822  30.559   5.073   2.692
96398W        W68823  43.400  39.909   3.400
96399W        W68824  31.506  23.988   1.110
96400W        W68825  44.931   9.712   4.763
96401W        W68826  42.986  27.681   4.522
96402W        W68827   2.893   0.383  13.900
96403W        W68828  10.404   9.344  14.285
96404W        W68829  41.637   1.770  12.048
96405W        W68830  25.453   2.413   4.664
96406W        W68831  19.388  15.129   1.958
96407W        W68832   8.653  22.943   3.704
96408W        W68833  25.249  18.466  13.491
96409W        W68834  29.226  37.103  12.592
96410W        W68835  20.387  34.495  12.973
96411W        W68836  12.246  28.735  13.415
96412W        W68837   6.847  25.196  11.564
96413W        W68838  23.290   8.911  11.054
96414W        W68839   2.467  29.707  11.053
96415W        W68840  18.720  44.989   1.177
96416W        W68841   0.380  26.028   1.986
96417W        W68842   9.776  18.609  12.546
96418W        W68843  26.309  36.374   3.242
96419W        W68844   4.097  43.816  12.120
96420W        W68845  39.017  21.106  11.985
96421W        W68846  28.093  41.083  13.485
96422W        W68847  21.782  28.987   0.350
96423W        W68848  19.778  37.914  10.659
96424W        W68849  12.127  16.705  10.712
96425W        W68850   3.361  27.932  12.894
96426W        W68851  26.588   8.324  13.579
96427W        W68852  15.089  30.115  13.805
96428W        W68853  10.602  31.585  11.970
96429W        W68854  30.324  12.790  12.486
96430W        W68855  42.410   8.197  10.393
96431W        W68856  32.434  11.780  14.063
96432W        W68857  18.616  10.624  14.912
96433W        W68858  38.322  14.551  14.576
96434W        W68859  31.437   2.385   2.966
96435W        W68860  12.678  40.302   0.770
96436W        W68861  40.448  32.519   3.357
96437W        W68862  17.817  30.668  13.026
96438W        W68863   5.701  44.783  13.571
96439W        W68864  31.111  26.491   2.719
96440W        W68865  23.069  32.087   3.737
96441W        W68866  37.470   8.314  10.655
96442W        W68867  39.961  29.486  11.650
96443W        W68868  12.721  32.913   3.561
96444W        W68869  38.773  40.782  13.025
96445W        W68870   8.329  11.557   0.248
96446W        W68871  31.344  41.103   0.226
96447W        W68872  31.145  14.223   3.800
96448W        W68873   4.471  15.142  10.572
96449W        W68874  13.442  41.876  12.556
96450W        W68875  13.299  25.143  13.528
96451W        W68876   8.338   2.394  14.462
96452W        W68877  31.682  42.042  14.159
96453W        W68878  13.689   7.361   1.745
96454W        W68879  26.013  39.978  13.272
96455W        W68880  18.179  39.837   4.477
96456W        W68881  21.140  44.790  10.634
96457W        W68882  10.233  14.210   2.374
96458W        W68883  24.468   1.651   4.185
96459W        W68884  19.869  36.950   0.098
96460W        W68885  26.590  25.194   3.667
96461W        W68886   9.373  11.636   4.532
96462W        W68887   4.500  38.024  10.787
96463W        W68888  18.817  43.962   1.476
96464W        W68889  40.295  21.328   4.997
96465W        W68890  42.448  12.155  12.880
96466W        W68891  40.038  39.082   1.785
96467W        W68892  20.655  22.168   1.410
96468W        W68893  39.129   3.802   1.860
96469W        W68894  16.813  12.154   0.019
96470W        W68895  44.446  11.382   2.059
96471W        W68896  28.627  42.596   2.783
96472W        W68897  11.268   0.785   4.368
96473W        W68898  42.760  15.782   5.154
96474W        W68899  42.847  17.849   4.470
96475W        W68900   7.828  37.372   4.996
96476W        W68901  15.426  28.450  10.656
96477W        W68902   2.007  39.933   1.900
96478W        W68903  25.129  10.348   2.761
96479W        W68904  23.056  17.152  13.311
96480W        W68905   3.642   9.692   4.266
96481W        W68906   8.764   5.441  13.087
96482W        W68907  39.323  13.479   0.720
96483W        W68908  38.446   6.430   1.184
96484W        W68909   5.399  17.605  12.539
96485W        W68910  32.191  20.099  12.371
96486W        W68911  15.787  34.989   0.736
96487W        W68912  10.865  34.595   2.696
96488W        W68913   6.142  22.074  12.026
96489W        W68914  41.330  36.239  12.929
96490W        W68915   8.893  19.718  14.719
96491W        W68916  40.027  44.067  13.518
96492W        W68917  42.338  34.410   3.051
96493W        W68918  13.552  21.723   1.314
96494W        W68919  25.950  31.890  11.058
96495W        W68920  17.192  35.076  13.010
96496W        W68921  25.935   4.933  14.530
96497W        W68922   2.441  11.297   2.341
96498W        W68923  10.108  44.061   3.211
96499W        W68924  32.837  43.898  14.967
96500W        W68925  17.044  33.359  10.755
96501W        W68926  19.684   1.098  13.040
96502W        W68927  12.375  25.046   0.186
96503W        W68928  12.562  34.956   2.374
96504W        W68929   9.219   0.214  12.056
96505W        W68930  33.902  24.415  12.986
96506W        W68931  42.985   7.351   2.780
96507W        W68932  25.934  27.509  12.537
96508W        W68933   4.472  42.429  14.777
96509W        W68934  34.827  14.745   1.337
96510W        W68935  34.683  20.041  13.915
96511W        W68936  24.660  38.298  12.039
96512W        W68937  36.040  39.945   4.734
96513W        W68938  15.183   0.384  13.969
96514W        W68939  32.110  24.512  11.685
96515W        W68940  29.540  43.888   3.613
96516W        W68941  25.583  24.083   4.289
96517W        W68942  11.818  33.318  13.495
96518W        W68943  30.568  39.413  14.203
96519W        W68944   3.226  27.049  14.880
96520W        W68945  39.401  24.561   4.619
96521W        W68946   4.806  16.767  12.345
96522W        W68947   8.847  36.176  12.565
96523W        W68948  12.925   6.795  13.304
96524W        W68949   8.414  12.635   4.737
96525W        W68950  25.952   1.850   3.630
96526W        W68951   7.973  10.599   4.088
96527W        W68952  20.748  40.255   4.148
96528W        W68953  12.597   4.905   0.376
96529W        W68954  26.422  35.830  11.613
96530W        W68955  44.376  41.805  14.401
96531W        W68956  37.570  43.082  13.573
96532W        W68957  13.670  22.114  10.376
96533W        W68958  13.347   2.754   2.615
96534W        W68959  28.382  30.349   0.922
96535W        W68960  34.170  17.077   2.791
96536W        W68961  12.885  21.533  13.070
96537W        W68962  28.960  23.320   3.422
96538W        W68963  13.140   8.177   4.130
96539W        W68964  31.347  15.563   4.230
96540W        W68965  30.287  22.543  13.870
96541W        W68966   2.131  35.028   0.848
96542W        W68967  35.482  22.759   4.795
96543W        W68968  42.886  41.119   4.124
96544W        W68969  25.269   0.421   2.721
96545W        W68970  15.172  36.298  10.875
96546W        W68971  22.552  15.759   2.179
96547W        W68972  33.515  13.625   2.676
96548W        W68973   9.352   7.825   0.217
96549W        W68974   1.921  40.979  13.872
96550W        W68975  28.600  18.276   0.883
96551W        W68976  42.803  29.582   3.200
96552W        W68977  17.848  11.941   3.167
96553W        W68978  25.991  22.035   0.494
96554W        W68979  32.911  20.046   0.006
96555W        W68980  32.095  41.415   4.124
96556W        W68981  28.965  40.987  13.366
96557W        W68982   6.889  33.537  13.869
96558W        W68983  33.939  16.071  10.687
96559W        W68984  44.757   1.923   4.082
96560W        W68985  15.678   1.298  12.649
96561W        W68986   4.377   9.274  12.800
96562W        W68987  19.189   0.379  12.550
96563W        W68988  34.163   1.957  13.255
96564W        W68989  33.106  42.747   4.538
96565W        W68990  43.068  29.526  14.509
96566W        W68991   3.527   4.760   1.171
96567W        W68992  25.586  10.760  14.576
96568W        W68993  14.128   3.612  12.024
96569W        W68994  13.803  27.514  12.189
96570W        W68995  16.793  21.743  11.958
96571W        W68996  24.424   9.018   0.960
96572W        W68997   3.120  42.416   2.349
96573W        W68998  30.882  24.098  11.744
96574W        W68999  35.005  40.815  12.655
96575W        W69000   6.763  38.820  14.419
96576W        W69001  24.422  26.549   3.658
96577W        W69002  11.790   5.213  11.705
96578W        W69003  10.663   1.365   0.537
96579W        W69004  19.635  11.250   4.616
96580W        W69005  25.710  15.214  13.305
96581W        W69006  26.115  22.320   0.916
96582W        W69007  36.359  40.851  12.451
96583W        W69008   9.838  20.522  13.692
96584W        W69009  37.830  12.087  14.352
96585W        W69010  15.256  37.901  11.586
96586W        W69011  18.095  33.951  12.995
96587W        W69012  21.810  11.874   9.689
96588W        W69013  28.089  24.526   2.363
96589W        W69014   7.786  19.311   4.911
96590W        W69015  11.384  39.076  12.005
96591W        W69016   1.933  29.974  14.821
96592W        W69017  33.125  41.078  12.887
96593W        W69018   5.943   8.915   3.365
96594W        W69019   4.748  32.783   4.234
96595W        W69020  35.297   7.390  14.809
96596W        W69021   7.734  39.807   1.658
96597W        W69022   9.677   1.833   3.248
96598W        W69023  10.191  17.038  11.854
96599W        W69024  26.736  28.214   2.388
96600W        W69025  44.065  42.972  12.042
96601W        W69026  18.352   5.389   2.967
96602W        W69027  41.722  20.751  10.243
96603W        W69028  43.271  19.080   3.726
96604W        W69029  20.378   4.279  10.683
96605W        W69030  21.727  36.570  11.991
96606W        W69031  13.360  11.096   2.272
96607W        W69032  12.188  41.952  10.670
96608W        W69033  38.091   1.652  14.288
96609W        W69034  26.693  31.079  14.501
96610W        W69035  39.643  10.522   4.498
96611W        W69036   5.799  41.233   4.900
96612W        W69037  33.430  21.222   2.792
96613W        W69038  16.262   6.246   4.717
96614W        W69039   7.953  18.175  11.153
96615W        W69040   4.486  18.679  14.440
96616W        W69041  19.547   1.141   3.665
96617W        W69042  40.235  41.881   3.953
96618W        W69043  21.324   2.021   2.632
96619W        W69044  27.479   7.875  12.308
96620W        W69045   9.744  32.515   3.611
96621W        W69046   4.231  13.040  10.984
96622W        W69047  11.049  31.572   0.880
96623W        W69048  32.941   8.720   0.038
96624W        W69049  36.701   5.513  11.436
96625W        W69050  11.921   5.833   4.136
96626W        W69051  17.561   3.955  10.636
96627W        W69052  34.026  20.371   1.371
96628W        W69053   4.730  10.280  11.218
96629W        W69054  20.619  18.820   0.804
96630W        W69055  35.915  42.673   0.279
96631W        W69056  15.823  41.707  10.618
96632W        W69057  40.853  14.072   2.928
96633W        W69058  32.034   7.492  14.187
96634W        W69059  11.629  25.246  13.455
96635W        W69060  32.017   8.618  10.996
96636W        W69061  28.344  10.156  10.094
96637W        W69062   5.970  11.841  12.954
96638W        W69063  30.579  34.767  13.929
96639W        W69064  26.432  17.201  14.973
96640W        W69065  39.818  29.020   1.366
96641W        W69066  42.366  29.111   0.850
96642W        W69067  43.757  10.226   1.922
96643W        W69068  22.780  19.115   3.162
96644W        W69069  12.881  16.242   2.660
96645W        W69070  11.676  22.440   1.684
96646W        W69071  38.837  26.831   0.073
96647W        W69072  44.937   1.704   0.317
96648W        W69073  10.079  41.730   0.068
96649W        W69074  44.924  19.509  14.013
96650W        W69075  10.279  40.319   0.801
96651W        W69076  28.549  16.956  13.899
96652W        W69077  16.687   0.963  12.188
96653W        W69078  37.406   5.645  12.515
96654W        W69079  43.532  37.026  10.642
96655W        W69080   2.167   9.808  11.101
96656W        W69081  12.063  36.409  14.847
96657W        W69082  34.571  33.366   1.541
96658W        W69083   7.380  44.868  14.387
96659W        W69084  21.215  22.724  10.984
96660W        W69085   3.352  33.899  11.128
96661W        W69086  39.065  25.586  13.165
96662W        W69087   0.494  11.645   0.675
96663W        W69088  11.925  24.070  14.038
96664W        W69089  41.212  11.420   3.253
96665W        W69090  33.367  35.103   0.801
96666W        W69091  12.471   4.343   2.705
96667W        W69092   7.851  40.752   2.702
96668W        W69093  40.436  25.430  14.274
96669W        W69094   6.558  30.879  11.442
96670W        W69095  24.093  44.800  14.617
96671W        W69096  19.544   6.970   0.291
96672W        W69097   2.372   7.362  13.083
96673W        W69098  38.494  29.405   1.773
96674W        W69099  44.343   0.266  13.248
96675W        W69100   8.087  36.551   0.303
96676W        W69101  41.928   8.748   4.477
96677W        W69102  34.825  12.289  10.693
96678W        W69103   6.146  33.079  14.193
96679W        W69104  38.954  44.471  11.457
96680W        W69105  31.490   7.635  12.390
96681W        W69106   3.679  23.190   0.842
96682W        W69107  38.453  30.968   0.902
96683W        W69108   3.819  19.953   4.568
96684W        W69109  18.467   3.056  10.070
96685W        W69110  22.039  44.037   3.185
96686W        W69111  39.484  16.144  12.967
96687W        W69112  36.359   9.286  12.562
96688W        W69113  10.375  10.061  12.398
96689W        W69114   7.754  38.121  12.526
96690W        W69115  26.446  11.833   4.548
96691W        W69116   0.803  38.645  13.002
96692W        W69117  18.059   7.245  14.649
96693W        W69118   5.391   9.632   3.150
96694W        W69119   9.098  15.804   4.615
96695W        W69120  26.297  11.215  11.872
96696W        W69121  10.698  41.585   3.594
96697W        W69122   1.044   2.776  12.596
96698W        W69123  24.730  15.182  14.412
96699W        W69124  42.766  23.293   3.590
96700W        W69125  12.080  31.225  12.610
96701W        W69126  25.074   4.189   1.651
96702W        W69127  26.418  44.236  11.081
96703W        W69128  10.731  43.314  11.896
96704W        W69129  37.684  25.535   3.804
96705W        W69130  24.217  28.637  14.290
96706W        W69131   6.388  27.032   4.197
96707W        W69132  42.921  38.804   3.312
96708W        W69133  12.862   7.200  14.443
96709W        W69134  39.803  42.429  13.896
96710W        W69135  13.142  43.238   0.459
96711W        W69136   4.745  32.039   1.381
96712W        W69137   7.767   2.268  14.370
96713W        W69138  43.028  22.721   0.754
96714W        W69139  24.042  31.748   1.847
96715W        W69140  18.701  33.613   4.156
96716W        W69141  38.436   7.882  11.183
96717W        W69142   7.435  20.388   1.280
96718W        W69143  27.762   8.674   5.036
96719W        W69144  10.025   5.976   4.108
96720W        W69145  25.342  29.703   1.352
96721W        W69146   7.713  35.603  11.987
96722W        W69147  32.581   7.242  11.986
96723W        W69148  12.724  32.228   0.753
96724W        W69149  37.083  10.772  13.536
96725W        W69150  22.541  18.962   1.224
96726W        W69151  27.950  20.087  11.123
96727W        W69152  30.050  22.381   0.434
96728W        W69153  31.886   7.286  12.484
96729W        W69154  19.049  19.556  14.977
96730W        W69155  43.225  25.035  12.002
96731W        W69156  30.389   7.472  14.609
96732W        W69157  12.472  40.050   1.591
96733W        W69158   8.159  36.582  13.746
96734W        W69159  12.181   4.347   3.140
96735W        W69160   6.152   3.770   1.352
96736W        W69161  28.973  11.683  14.739
96737W        W69162  11.682  12.310  14.866
96738W        W69163  21.772   4.458   1.723
96739W        W69164  25.674  33.099  14.934
96740W        W69165  15.536  25.086  10.370
96741W        W69166   4.152  24.734   0.329
96742W        W69167   3.225  25.645   3.357
96743W        W69168  29.103  36.883  14.064
96744W        W69169  25.992   9.322   0.367
96745W        W69170   3.791   7.044   3.610
96746W        W69171  43.595  16.422  13.449
96747W        W69172  35.322  14.499   1.333
96748W        W69173  28.107  32.933  13.253
96749W        W69174  21.525  41.500   2.731
96750W        W69175   2.476  18.076   3.833
96751W        W69176  33.143  37.447   3.775
96752W        W69177  40.806  41.089   4.686
96753W        W69178  29.180   5.725   2.783
96754W        W69179  10.795  23.628   2.784
96755W        W69180  40.433  34.624   4.025
96756W        W69181  26.975  35.169  10.104
96757W        W69182  24.691  29.129   2.388
96758W        W69183  15.283   5.107   3.887
96759W        W69184  44.378  22.634  10.224
96760W        W69185  26.974  37.503  13.462
96761W        W69186  37.571  29.895  10.928
96762W        W69187  32.797  38.474   0.729
96763W        W69188  31.769  20.939  14.856
96764W        W69189  41.344  22.714  12.887
96765W        W69190  33.186  33.297   4.302
96766W        W69191  34.889  36.124   1.639
96767W        W69192  11.341  37.722  11.553
96768W        W69193  24.481  27.140   3.718
96769W        W69194  31.893  37.527   0.466
96770W        W69195  14.866  29.682  14.512
96771W        W69196  13.216  22.226  11.538
96772W        W69197  23.977  26.716   4.554
96773W        W69198  19.864  31.884  13.256
96774W        W69199  21.824   2.855   3.579
96775W        W69200   1.262   1.261   0.388
96776W        W69201   8.339  43.892   2.690
96777W        W69202  41.482  36.650  11.152
96778W        W69203  42.053  17.507   4.168
96779W        W69204   9.954   7.830  12.065
96780W        W69205   4.712  23.669  12.908
96781W        W69206   0.908  28.646   4.419
96782W        W69207  43.558  40.728   2.407
96783W        W69208   4.698  12.359  11.518
96784W        W69209  21.347  12.763   0.038
96785W        W69210  25.636  10.293  14.354
96786W        W69211  14.632  44.395  13.548
96787W        W69212  24.719  30.791  14.591
96788W        W69213   0.334   9.648  10.952
96789W        W69214  35.095  34.321  10.763
96790W        W69215  39.068  16.763   1.090
96791W        W69216  15.585  27.080  14.259
96792W        W69217  12.178  38.874   1.044
96793W        W69218  33.638  36.794  11.015
96794W        W69219  28.812  26.671  13.256
96795W        W69220  37.964  33.521  11.314
96796W        W69221  21.076  37.430   3.777
96797W        W69222  23.602  10.801  10.544
96798W        W69223  42.474   5.230  13.677
96799W        W69224  12.050  29.989   2.233
96800W        W69225  25.885  15.336  12.818
96801W        W69226  42.527  35.576  14.727
96802W        W69227  16.240  23.172   1.286
96803W        W69228  11.080  35.576   0.415
96804W        W69229   7.418  30.200  11.073
96805W        W69230   9.807   8.289   4.343
96806W        W69231  43.020  16.172   2.727
96807W        W69232  32.342  33.878   1.489
96808W        W69233  32.438   0.844   1.110
96809W        W69234  36.116  34.622  11.504
96810W        W69235   2.216  30.522   1.817
96811W        W69236  42.847  30.411   2.292
96812W        W69237  30.653  34.917   0.502
96813W        W69238  41.844   5.169   3.705
96814W        W69239  34.574  33.090  10.821
96815W        W69240   9.294  44.947  11.228
96816W        W69241  18.066  14.702  14.218
96817W        W69242  18.611  31.190  12.845
96818W        W69243   5.712  32.048   0.507
96819W        W69244  18.056  32.558  10.683
96820W        W69245  17.208  10.772   1.464
96821W        W69246  26.659  12.671  14.257
96822W        W69247  27.120  29.507  12.142
96823W        W69248   4.175  10.239   4.963
96824W        W69249  29.903  11.899   4.877
96825W        W69250   1.924  13.938  10.654
96826W        W69251  42.354  32.250   2.693
96827W        W69252   3.953  33.712   4.100
96828W        W69253  24.116   1.852  11.483
96829W        W69254  29.165   4.984  13.090
96830W        W69255  26.423  20.660  12.044
96831W        W69256  38.062   7.473   4.584
96832W        W69257  18.568   2.190  12.030
96833W        W69258   2.461  28.597  10.512
96834W        W69259  34.118  31.868   3.757
96835W        W69260  21.517  43.656   0.034
96836W        W69261  22.918  21.849  13.073
96837W        W69262  10.794  22.301   4.513
96838W        W69263   5.275  42.584  12.863
96839W        W69264  32.011  10.282   2.968
96840W        W69265  32.374  42.801   1.298
96841W        W69266  14.352  36.037   2.807
96842W        W69267  12.475  30.522  14.356
96843W        W69268  38.307  19.582   1.250
96844W        W69269  22.280  16.363  10.491
96845W        W69270  24.907  26.689   3.712
96846W        W69271  27.048   0.434   2.219
96847W        W69272  43.544  38.050   0.729
96848W        W69273  40.583  34.456   1.336
96849W        W69274  43.422  20.488  10.035
96850W        W69275   1.447   3.190  10.937
96851W        W69276  27.190  25.981  14.710
96852W        W69277  13.675  32.435  14.160
96853W        W69278  10.259  27.217   0.416
96854W        W69279  35.947  39.266  13.446
96855W        W69280  31.572  21.451  14.874
96856W        W69281   8.677  44.274  10.664
96857W        W69282   3.269  22.924   3.620
96858W        W69283  19.248  26.662  11.996
96859W        W69284   6.268  32.034  11.667
96860W        W69285  40.957   7.615   1.414
96861W        W69286   3.002   6.742   2.011
96862W        W69287  30.628  12.734   3.714
96863W        W69288   6.224  38.408   0.925
96864W        W69289  21.195  33.497  10.792
96865W        W69290   7.354  17.413  10.540
96866W        W69291   7.764   7.851  11.266
96867W        W69292  39.724   7.186   2.673
96868W        W69293   2.134  13.681   0.752
96869W        W69294  29.564   3.859   1.485
96870W        W69295  22.579  22.955  14.920
96871W        W69296   9.897  21.765   4.056
96872W        W69297  42.830  38.103  10.830
96873W        W69298  32.462  40.348   3.220
96874W        W69299  44.353   9.006  10.772
96875W        W69300  21.108  39.380   1.974
96876W        W69301  17.576  32.897   5.286
96877W        W69302  27.659   0.026   0.416
96878W        W69303  40.267  12.365   1.326
96879W        W69304  39.278  35.022  13.311
96880W        W69305  43.922  40.235  10.657
96881W        W69306  11.154  34.332  13.096
96882W        W69307  42.850  23.928   2.266
96883W        W69308  24.719  31.650  12.872
96884W        W69309  35.870   2.442  14.420
96885W        W69310   7.463  27.185   1.895
96886W        W69311  38.263  39.528  13.375
96887W        W69312  36.226  26.020   3.670
96888W        W69313  13.090   7.416   2.334
96889W        W69314  11.736  33.313  13.998
96890W        W69315   0.827  44.836   1.450
96891W        W69316  37.290  21.625  12.056
96892W        W69317  13.697  23.860   0.305
96893W        W69318  16.668   4.290   3.783
96894W        W69319  42.185  32.779  14.292
96895W        W69320   5.705  10.055  13.366
96896W        W69321  37.522  27.160   3.844
96897W        W69322  43.471  13.657  11.755
96898W        W69323  24.319  25.868  14.268
96899W        W69324  19.814  37.841  14.767
96900W        W69325  33.574  44.781   1.779
96901W        W69326  42.808  40.982  13.932
96902W        W69327  44.355  16.042   1.393
96903W        W69328  32.781   5.828  13.605
96904W        W69329  39.388  16.344   3.279
96905W        W69330  22.209  37.693   3.563
96906W        W69331   2.190  11.836   3.215
96907W        W69332  26.029  11.681  11.149
96908W        W69333  29.926  26.757   3.249
96909W        W69334   1.936  44.746   2.126
96910W        W69335   1.917  25.161   1.705
96911W        W69336  15.406  14.860   4.388
96912W        W69337  33.068  37.577  13.025
96913W        W69338  22.578  41.486   1.429
96914W        W69339  35.570  17.304  12.019
96915W        W69340  24.510  28.415  13.281
96916W        W69341   7.944  35.529  14.059
96917W        W69342  17.510  30.215   2.274
96918W        W69343  13.679  25.533   4.854
96919W        W69344  19.286  38.861   3.732
96920W        W69345  34.146  33.633   1.787
96921W        W69346   0.323  19.199   2.889
96922W        W69347   2.626   2.253  12.254
96923W        W69348  15.801  18.358   9.948
96924W        W69349  40.380  13.710  10.615
96925W        W69350  25.897   1.778  13.401
96926W        W69351  21.818  34.263   0.901
96927W        W69352   3.094  33.536  12.389
96928W        W69353  40.630  34.835  11.929
96929W        W69354  24.616   6.396   1.161
96930W        W69355  28.722   5.842  13.972
96931W        W69356  32.210  38.552   1.345
96932W        W69357   2.217   9.809   3.390
96933W        W69358  39.411  23.984  11.494
96934W        W69359  40.407  20.062  14.378
96935W        W69360  20.706  11.751   2.631
96936W        W69361  34.972  12.718   0.913
96937W        W69362   5.964  39.772   2.926
96938W        W69363  41.499   0.396  11.609
96939W        W69364   5.813  38.583  14.031
96940W        W69365  33.603  24.307   4.958
96941W        W69366  16.844  23.870  13.481
96942W        W69367   1.961  38.180   4.140
96943W        W69368   3.207   7.693  11.907
96944W        W69369  23.209  42.827   5.011
96945W        W69370  25.107  32.741   9.692
96946W        W69371   0.097  23.160  12.415
96947W        W69372  17.862  34.315   1.975
96948W        W69373  43.034   6.671  13.960
96949W        W69374   2.440  17.950  14.677
96950W        W69375   0.208  44.532  14.395
96951W        W69376  18.228  31.500   3.257
96952W        W69377  26.036   6.741  12.474
96953W        W69378  20.118   8.676  11.481
96954W        W69379  33.882  40.326   3.553
96955W        W69380  16.646  24.251   3.111
96956W        W69381  15.954  10.116   0.820
96957W        W69382  12.390  42.354  14.578
96958W        W69383  22.185  22.545   1.890
96959W        W69384   1.004   5.443  11.197
96960W        W69385  10.910   5.161   3.273
96961W        W69386   4.634  26.526  14.198
96962W        W69387  12.930  36.775   2.614
96963W        W69388   8.958  30.876   3.252
96964W        W69389  41.108  19.040   3.081
96965W        W69390  34.898  24.150  12.897
96966W        W69391  23.343  11.578  10.964
96967W        W69392  19.656  15.639  14.367
96968W        W69393  44.903  20.057   0.499
96969W        W69394   3.897  12.790  13.098
96970W        W69395   7.762  38.208   2.088
96971W        W69396  28.973   2.611  12.310
96972W        W69397   0.740  37.668   1.512
96973W        W69398  17.499  37.782  12.644
96974W        W69399  28.246  30.969  10.724
96975W        W69400  30.422  27.218   1.861
96976W        W69401  14.836   3.185   4.156
96977W        W69402  13.300  21.397   3.377
96978W        W69403   1.492  21.570   2.639
96979W        W69404  10.906  37.079  10.561
96980W        W69405  18.171  42.463  10.698
96981W        W69406   5.109  18.226   1.703
96982W        W69407   0.518   2.646   3.242
96983W        W69408  42.937  12.758  14.535
96984W        W69409   0.226   0.465   2.255
96985W        W69410  11.130  44.483   0.315
96986W        W69411  42.828  23.819   3.653
96987W        W69412   6.462   1.693  11.602
96988W        W69413  38.892   9.416   1.917
96989W        W69414  42.460  36.025   2.618
96990W        W69415  29.701  30.299   3.613
96991W        W69416  34.787  40.816  11.238
96992W        W69417  23.623  44.135  10.386
96993W        W69418  10.725   0.295  14.696
96994W        W69419  24.570  19.126   2.684
96995W        W69420  39.055  31.460  14.786
96996W        W69421  37.630  36.838   4.210
96997W        W69422   3.310  24.450  11.605
96998W        W69423  21.842  38.588   3.621
96999W        W69424  25.968  35.133   3.750
97000W        W69425  20.851   1.258  11.882
97001W        W69426  21.197  27.056   1.406
97002W        W69427  33.817   0.814   3.335
97003W        W69428  25.126  32.800   5.435
97004W        W69429  15.812  29.177   4.527
97005W        W69430  17.718  28.901  10.910
97006W        W69431   6.824  15.942  12.936
97007W        W69432   7.459   3.171   5.050
97008W        W69433  15.257   9.301   2.625
97009W        W69434  21.490  42.503  13.749
97010W        W69435  26.623   0.998  13.300
97011W        W69436  38.833  10.220   0.841
97012W        W69437  23.892   8.324  10.877
97013W        W69438  18.658  18.799   4.492
97014W        W69439  43.372  42.789  12.494
97015W        W69440  37.373  31.966   4.552
97016W        W69441  14.643  19.981  10.777
97017W        W69442   0.362  28.395   0.211
97018W        W69443   1.273   4.800   3.387
97019W        W69444  27.434  25.445  11.657
97020W        W69445  44.982  36.730   4.047
97021W        W69446   3.426  22.762   0.032
97022W        W69447  17.293   2.822  12.478
97023W        W69448  25.527  16.785  10.665
97024W        W69449  43.167  21.258   4.147
97025W        W69450  14.714   9.794  14.361
97026W        W69451  27.618  36.254   0.444
97027W        W69452  19.535  13.122  12.493
97028W        W69453   3.876  35.432   4.071
97029W        W69454  24.567  39.161  13.873
97030W        W69455  24.104  34.904   0.622
97031W        W69456   3.184  40.193  11.944
97032W        W69457  33.221  24.262   9.661
97033W        W69458  31.848  11.155   1.272
97034W        W69459  44.389  23.697  11.686
97035W        W69460  29.462  20.705   4.625
97036W        W69461   5.837  24.760   4.560
97037W        W69462  42.777  15.405  14.992
97038W        W69463  23.241  19.734   4.502
97039W        W69464  44.833  11.423  13.467
97040W        W69465  16.852  35.852  10.254
97041W        W69466  24.940   4.802  14.338
97042W        W69467   3.688  30.917  13.937
97043W        W69468  38.679  21.507   0.438
97044W        W69469  20.318  29.143   2.353
97045W        W69470   8.594   3.039   1.892
97046W        W69471  44.257   1.219  13.010
97047W        W69472  11.367   6.257  12.424
97048W        W69473   7.533   2.867   3.223
97049W        W69474  15.584  14.449   5.112
97050W        W69475   9.031  31.963   2.955
97051W        W69476  16.525  16.304  13.979
97052W        W69477   3.278  25.139  12.114
97053W        W69478  33.074  40.283   0.248
97054W        W69479  17.662  26.108   3.279
97055W        W69480  28.203  22.767  12.469
97056W        W69481  37.921  17.853  13.528
97057W        W69482  31.011  43.795   2.374
97058W        W69483  18.854  22.286   2.020
97059W        W69484  16.744  20.282  13.515
97060W        W69485  11.717  43.921  12.487
97061W        W69486  30.069  43.325   0.468
97062W        W69487  29.977  32.850   1.665
97063W        W69488  41.320  27.583  13.228
97064W        W69489   1.279  32.477  14.726
97065W        W69490   2.949  32.605  13.899
97066W        W69491  42.491   7.677  10.653
97067W        W69492  14.226   9.138   1.874
97068W        W69493  33.150  37.116   0.996
97069W        W69494  18.180  30.009  10.698
97070W        W69495   6.981  13.233   3.286
97071W        W69496  13.731   6.207   0.489
97072W        W69497   8.942  28.748   0.566
97073W        W69498  17.838  11.110   0.470
97074W        W69499  36.454  16.742   1.732
97075W        W69500  35.951  12.269  13.775
97076W        W69501   6.988  44.803  10.438
97077W        W69502  43.764  38.154   3.373
97078W        W69503  22.174  40.566  11.401
97079W        W69504  21.595  38.103  13.860
97080W        W69505   1.746  27.491  14.692
97081W        W69506  27.698  34.849  14.309
97082W        W69507   8.911  41.027  13.751
97083W        W69508   2.200   0.704   1.342
97084W        W69509  14.818  42.905   3.492
97085W        W69510   9.619   4.321   3.700
97086W        W69511   5.814  17.878   0.442
97087W        W69512  36.519  39.819  13.922
97088W        W69513  43.899  27.969   2.199
97089W        W69514  36.799  37.845  12.747
97090W        W69515  29.527   3.049   4.818
97091W        W69516   3.784  36.796   4.611
97092W        W69517  30.695  22.626   1.177
97093W        W69518   6.325   7.229   1.768
97094W        W69519   3.487   2.440  12.436
97095W        W69520  35.466  13.076   2.428
97096W        W69521  30.609  39.508  10.296
97097W        W69522  31.457  37.846  10.593
97098W        W69523  32.588  12.195  14.833
97099W        W69524   3.379  28.944  13.007
97100W        W69525   3.077   8.649   3.372
97101W        W69526  40.288  26.979  11.832
97102W        W69527   9.019  41.592  11.153
97103W        W69528  17.748  29.124   3.280
97104W        W69529  26.089  35.641   2.290
97105W        W69530   9.063   3.927   3.431
97106W        W69531  12.803   0.908  10.735
97107W        W69532  28.191  42.869   1.207
97108W        W69533   1.736  42.069   4.636
97109W        W69534   6.636  28.386  11.884
97110W        W69535  16.768  11.282  13.540
97111W        W69536  37.072  12.325   3.779
97112W        W69537  29.033   1.383  11.637
97113W        W69538   7.208  18.078   2.804
97114W        W69539  30.993   0.282   0.911
97115W        W69540   4.870  14.693   1.273
97116W        W69541  30.461  26.235  13.052
97117W        W69542  29.246  38.916   1.754
97118W        W69543  35.554   3.172  13.850
97119W        W69544   9.212  28.778  12.425
97120W        W69545  33.805  37.658  13.434
97121W        W69546  12.055  17.840  10.661
97122W        W69547  10.692  22.257  11.086
97123W        W69548   7.885  19.341   2.262
97124W        W69549   4.251  22.726  12.866
97125W        W69550  29.038  24.489  14.048
97126W        W69551  22.565   8.312   2.860
97127W        W69552  23.502  40.627   4.104
97128W        W69553  25.067  42.337  11.846
97129W        W69554   4.842  42.400   5.117
97130W        W69555   5.759  35.118   2.340
97131W        W69556  43.880  37.947   4.367
97132W        W69557  30.683  12.769  11.501
97133W        W69558   6.851  15.874   4.153
97134W        W69559   0.663   6.163  10.729
97135W        W69560  23.703   2.299   1.230
97136W        W69561  34.418  43.876  12.455
97137W        W69562  26.732   8.532   3.815
97138W        W69563  19.823  12.385  14.348
97139W        W69564  33.472  11.490  14.802
97140W        W69565  18.604   4.157  11.516
97141W        W69566   9.804  19.175  11.813
97142W        W69567   0.167  23.986  14.064
97143W        W69568  15.381  39.139   2.225
97144W        W69569   8.692  30.119  14.260
97145W        W69570  40.558  10.112  11.122
97146W        W69571  37.835  42.138  11.560
97147W        W69572  40.550   3.430   1.257
97148W        W69573  15.697   0.927   4.642
97149W        W69574  13.494  21.974   2.597
97150W        W69575  17.220  16.311  12.087
97151W        W69576  17.654  34.845  12.950
97152W        W69577  40.753  18.836   0.425
97153W        W69578  15.862  26.227  10.746
97154W        W69579  43.255  13.916   1.016
97155W        W69580   9.348  12.404   0.325
97156W        W69581  24.456  25.057  13.794
97157W        W69582  15.225  34.597  10.671
97158W        W69583  14.677  15.230  13.846
97159W        W69584  26.175  44.534   0.276
97160W        W69585   4.592   6.809   0.951
97161W        W69586  26.670   9.900  11.205
97162W        W69587  14.717  39.591   4.268
97163W        W69588  35.610  18.337   4.207
97164W        W69589  25.360   6.365   4.713
97165W        W69590  19.288  44.788  10.910
97166W        W69591  31.713  27.707  12.572
97167W        W69592  35.240  30.186   1.674
97168W        W69593  38.385  20.650   3.015
97169W        W69594   4.833   4.261   3.738
97170W        W69595  14.154  12.306   3.392
97171W        W69596  34.945  44.213  11.163
97172W        W69597   1.247   0.378   0.314
97173W        W69598  17.780  42.316   1.384
97174W        W69599  37.764  20.482   1.340
97175W        W69600  19.921  28.384   1.746
97176W        W69601  11.666  27.955  13.349
97177W        W69602  19.010   7.353   3.725
97178W        W69603  27.590  37.345   3.256
97179W        W69604   6.916   9.471   1.381
97180W        W69605  14.413   1.079  12.078
97181W        W69606  19.111  42.602   3.298
97182W        W69607  17.888  33.100   3.380
97183W        W69608   1.578   6.724  10.741
97184W        W69609  11.229  42.041   2.220
97185W        W69610  29.445  20.294  12.041
97186W        W69611  26.560  33.995   1.932
97187W        W69612  38.852   1.320  10.964
97188W        W69613  26.845   7.948  14.505
97189W        W69614  34.935  41.518   4.059
97190W        W69615  40.999  13.607  11.183
97191W        W69616  43.250  14.605   0.339
97192W        W69617  16.414  30.999   4.587
97193W        W69618  18.214   9.054  11.538
97194W        W69619   7.294  31.437  12.176
97195W        W69620  27.945  30.936   4.106
97196W        W69621   2.400   0.173  13.831
97197W        W69622  18.303   7.002  12.594
97198W        W69623  43.998  37.204   1.698
97199W        W69624  38.760  44.819   4.061
97200W        W69625  34.956  25.713   0.762
97201W        W69626  36.119  37.287  12.103
97202W        W69627  29.654  41.421  12.381
97203W        W69628  30.919  27.203  14.084
97204W        W69629  23.008  12.254   1.447
97205W        W69630   2.987  32.485   2.315
97206W        W69631   7.297  17.352  13.064
97207W        W69632  15.259  19.620   2.853
97208W        W69633  27.039  32.869   1.401
97209W        W69634  39.591  28.047  11.159
97210W        W69635  34.076  20.370   2.763
97211W        W69636  43.737  16.599  14.368
97212W        W69637  32.512  10.186   3.658
97213W        W69638  13.214  41.977  10.659
97214W        W69639  27.936  25.538   1.448
97215W        W69640  18.209  12.237   2.908
97216W        W69641  10.237  14.624   3.968
97217W        W69642  29.594   9.231   3.822
97218W        W69643  17.649  27.222  13.896
97219W        W69644   0.315  43.984   0.842
97220W        W69645  41.374  27.149   1.044
97221W        W69646  31.992  16.230  10.503
97222W        W69647  17.231  29.235  11.209
97223W        W69648  13.726  37.362   1.837
97224W        W69649   9.352  15.250   1.719
97225W        W69650   1.705   1.471   3.832
97226W        W69651  15.184  41.831  14.541
97227W        W69652  43.753  23.103  12.641
97228W        W69653  13.843  16.672   3.249
97229W        W69654  28.085  10.226   0.499
97230W        W69655  15.934  23.018   1.677
97231W        W69656  43.969  35.815  12.337
97232W        W69657   9.235  28.817   4.224
97233W        W69658  18.776  26.107  14.433
97234W        W69659  36.397  29.237  14.227
97235W        W69660  32.997  41.539   1.014
97236W        W69661   0.562  28.545  11.160
97237W        W69662  31.459  11.138   4.105
97238W        W69663   4.862  26.513   2.846
97239W        W69664  37.811   4.267  12.017
97240W        W69665  35.944   1.796   0.168
97241W        W69666  32.798  38.323   1.715
97242W        W69667  12.315  25.462  10.021
97243W        W69668  14.214  36.679  12.026
97244W        W69669  30.994  23.325  12.773
97245W        W69670  42.065  19.807   0.809
97246W        W69671   9.121   4.186   0.953
97247W        W69672  20.199   3.163  13.022
97248W        W69673  43.771  28.395  13.949
97249W        W69674  25.219  30.917  14.571
97250W        W69675  39.966   1.511   0.978
97251W        W69676  21.638   5.824  11.589
97252W        W69677  28.166  44.446   2.119
97253W        W69678   0.901  38.969   0.349
97254W        W69679   8.728   7.724   2.843
97255W        W69680  37.655  13.155   1.404
97256W        W69681  40.933  39.389   2.494
97257W        W69682  43.214   5.684   2.534
97258W        W69683  38.873  36.954   3.666
97259W        W69684  16.816  22.427  14.755
97260W        W69685   3.697  15.062   2.483
97261W        W69686  24.475  27.141  13.742
97262W        W69687  27.886  32.040  11.606
97263W        W69688   8.759  17.617  14.899
97264W        W69689  10.691  30.122  13.050
97265W        W69690  40.735  36.050  14.258
97266W        W69691  39.616  39.830   3.183
97267W        W69692  10.607  34.956  12.506
97268W        W69693  24.932  33.561   0.031
97269W        W69694  37.311  40.641   3.751
97270W        W69695   3.675  14.424   0.853
97271W        W69696  16.830  34.741  13.123
97272W        W69697  24.551   5.800  12.003
97273W        W69698  12.766  43.908  12.654
97274W        W69699  21.434   6.440   4.160
97275W        W69700  37.260  16.011  10.477
97276W        W69701  11.930  19.968   1.460
97277W        W69702   8.264  38.831   0.832
97278W        W69703  29.159  36.606  10.687
97279W        W69704   5.434   9.109   3.752
97280W        W69705  40.907  31.127   0.529
97281W        W69706  28.485  14.213  14.765
97282W        W69707  30.988  36.843  12.610
97283W        W69708  17.575  29.173  14.778
97284W        W69709  40.127  34.799  11.983
97285W        W69710  18.163  26.749   1.797
97286W        W69711  44.360  37.171  12.614
97287W        W69712  11.033  12.416  14.390
97288W        W69713  42.516  12.089   4.181
97289W        W69714  19.352  15.582  13.945
97290W        W69715  38.784  37.086  14.510
97291W        W69716  39.492   6.933   0.799
97292W        W69717  38.286  24.722  12.061
97293W        W69718  15.311  16.241  12.459
97294W        W69719  19.552  26.036  13.922
97295W        W69720  35.035  32.438   1.889
97296W        W69721  37.839  36.993   2.917
97297W        W69722   2.818  14.390  10.828
97298W        W69723  26.554  32.574   9.892
97299W        W69724  15.716  27.618   3.273
97300W        W69725   8.359  19.625  13.011
97301W        W69726  13.792  34.910   1.851
97302W        W69727   4.760  20.834   4.241
97303W        W69728  26.108  34.059  13.752
97304W        W69729  37.361  21.601   1.773
97305W        W69730  11.763  32.126   1.959
97306W        W69731  17.192  24.273   1.451
97307W        W69732   5.882  14.569  14.703
97308W        W69733  30.984  10.831   4.115
97309W        W69734  13.156   8.343  12.493
97310W        W69735  14.599   6.949  11.273
97311W        W69736   5.255   8.773   2.669
97312W        W69737  43.204  28.323   3.714
97313W        W69738   0.591  10.382   2.765
97314W        W69739  30.409  12.905   3.235
97315W        W69740  43.701  40.740  10.667
97316W        W69741  21.129  21.071  14.804
97317W        W69742  41.370  44.924   0.506
97318W        W69743  12.399  11.375  12.896
97319W        W69744   8.600  44.655  14.765
97320W        W69745  30.419  43.478  13.382
97321W        W69746   0.057  30.078   4.938
97322W        W69747  27.758  31.127  12.148
97323W        W69748  13.130  15.640  11.441
97324W        W69749  13.089  19.722   4.529
97325W        W69750  36.517  41.533   5.179
97326W        W69751  19.809   6.872   1.916
97327W        W69752  28.647  12.201   4.578
97328W        W69753  36.525   7.457  13.508
97329W        W69754  22.531  26.057  11.025
97330W        W69755  36.543  25.494  10.949
97331W        W69756  12.636  33.587   2.321
97332W        W69757  44.662  21.207  13.917
97333W        W69758   3.585  23.338  10.003
97334W        W69759  19.023  22.579  14.359
97335W        W69760  36.540  35.550   1.877
97336W        W69761  41.958  42.436  11.332
97337W        W69762  13.173  32.002   3.150
97338W        W69763  16.275  26.162  14.279
97339W        W69764  41.796  33.515  14.723
97340W        W69765   5.343   3.251  13.728
97341W        W69766  10.142  40.602   1.370
97342W        W69767  19.975  23.065   0.040
97343W        W69768   3.474  20.830  13.978
97344W        W69769  42.010  19.604  10.701
97345W        W69770   3.796  27.450  11.330
97346W        W69771  23.702   7.132  11.189
97347W        W69772   0.767  16.190   2.206
97348W        W69773  10.729  27.025   0.495
97349W        W69774  18.982   3.391   2.729
97350W        W69775   9.842  12.997   2.304
97351W        W69776  20.263   0.678  10.753
97352W        W69777  37.400  32.382  12.493
97353W        W69778  21.206   7.081  10.579
97354W        W69779  23.083   8.289   2.269
97355W        W69780  12.729   4.211  14.796
97356W        W69781  36.299   1.835  12.909
97357W        W69782  44.999  12.920   1.257
97358W        W69783  36.895  43.243  11.628
97359W        W69784  41.866  21.735   0.030
97360W        W69785  17.568  29.696  14.695
97361W        W69786  33.774   1.667   1.865
97362W        W69787  16.149  43.495  12.162
97363W        W69788   1.505  28.244  14.812
97364W        W69789   0.326   7.899   1.779
97365W        W69790  30.821  40.079   2.271
97366W        W69791  42.103  26.368   0.402
97367W        W69792  11.879  30.880  12.919
97368W        W69793  37.990   3.348  13.301
97369W        W69794  44.427   3.205   0.805
97370W        W69795  44.946   3.916   1.301
97371W        W69796  44.402  10.383  11.254
97372W        W69797  39.443   5.906   3.064
97373W        W69798  42.340  15.165  13.819
97374W        W69799  39.874  25.846  14.986
97375W        W69800  31.106  17.787   2.523
97376W        W69801   8.669  16.624   2.333
97377W        W69802   8.408  42.543  10.482
97378W        W69803  25.202  41.101  11.036
97379W        W69804  40.441  35.618   1.409
97380W        W69805   3.208  25.892   4.772
97381W        W69806  17.645  15.534   0.734
97382W        W69807  31.647   2.827  11.942
97383W        W69808  36.523  43.427   0.539
97384W        W69809  26.082  18.167  11.347
97385W        W69810  29.487  13.245   0.866
97386W        W69811   6.909  42.919  11.583
97387W        W69812  26.545   5.458   3.398
97388W        W69813  34.386  24.393   1.091
97389W        W69814  34.492  28.422   0.034
97390W        W69815  36.041   9.970  14.238
97391W        W69816   0.426  30.903   5.042
97392W        W69817   8.748  29.461   5.003
97393W        W69818  12.775   9.607  10.940
97394W        W69819   4.811   7.464   4.080
97395W        W69820  43.035  18.808   4.115
97396W        W69821   6.442  23.825  13.002
97397W        W69822  34.989   2.685   1.163
97398W        W69823  17.300  41.617  11.690
97399W        W69824  15.795  18.779   1.960
97400W        W69825   5.382  12.041  11.171
97401W        W69826  24.915  22.177   3.320
97402W        W69827  19.056  38.961  11.508
97403W        W69828  11.577  20.521  12.891
97404W        W69829  29.543  31.163  12.023
97405W        W69830  40.759  13.844   4.863
97406W        W69831  35.974  35.094  14.884
97407W        W69832  25.247  37.996   4.771
97408W        W69833  10.229  16.163   3.703
97409W        W69834  41.896  10.794   2.157
97410W        W69835  12.195   4.163  11.008
97411W        W69836  38.609  24.562   5.053
97412W        W69837  18.679   2.639   4.834
97413W        W69838  37.589  40.099  12.425
97414W        W69839   8.220  10.261   2.909
97415W        W69840   0.908   3.666  11.988
97416W        W69841  33.188  41.065   2.686
97417W        W69842  14.216  15.056  11.050
97418W        W69843  16.268   4.210  12.144
97419W        W69844  15.861   8.165  14.434
97420W        W69845   3.487   1.654  14.369
97421W        W69846  39.973  14.395  12.341
97422W        W69847  22.473  25.088   2.786
97423W        W69848  44.531  27.525   4.734
97424W        W69849  39.779   9.636  11.537
97425W        W69850  39.315   6.672   1.630
97426W        W69851  19.092  28.608   3.332
97427W        W69852  18.483  16.841  12.170
97428W        W69853   4.266  15.462  10.947
97429W        W69854  20.719  10.360   3.755
97430W        W69855   4.921   4.380  10.259
97431W        W69856  21.657  24.619   2.383
97432W        W69857  14.419  30.640   0.582
97433W        W69858  28.580   5.131  11.548
97434W        W69859  42.034  17.647  10.465
97435W        W69860  19.719  13.775  12.092
97436W        W69861  12.154  22.648   0.871
97437W        W69862  26.452  33.316  13.790
97438W        W69863   0.027  27.640   4.821
97439W        W69864   3.346  30.978  11.645
97440W        W69865   2.419  33.551  12.231
97441W        W69866  11.861  24.650  12.254
97442W        W69867   2.457  37.030  14.841
97443W        W69868  33.030   9.033  11.640
97444W        W69869  37.413   0.463  12.511
97445W        W69870   1.860  39.975   3.262
97446W        W69871   1.114  35.117   3.733
97447W        W69872  18.430  31.809  13.272
97448W        W69873  14.176  40.989  14.801
97449W        W69874  18.140  12.324  11.876
97450W        W69875  11.707  22.159   1.234
97451W        W69876  35.205  43.193  12.409
97452W        W69877  24.753   7.629  13.885
97453W        W69878  15.874  27.441   2.756
97454W        W69879  38.604   0.434  14.550
97455W        W69880  18.498  31.656   3.836
97456W        W69881  31.675  25.539   2.190
97457W        W69882   3.730   8.190   4.107
97458W        W69883  15.607  43.280   2.181
97459W        W69884  29.889   0.150  11.167
97460W        W69885  20.452  20.710   1.888
97461W        W69886  11.181  22.683   2.783
97462W        W69887  28.163  16.528  10.233
97463W        W69888  12.970   4.431   1.687
97464W        W69889  17.801  24.811   0.046
97465W        W69890   4.222  35.523  10.537
97466W        W69891  23.150   1.181   4.659
97467W        W69892  36.756   4.823  11.197
97468W        W69893   6.380  23.311   4.185
97469W        W69894  31.128  30.204   3.652
97470W        W69895  22.322  29.634   4.210
97471W        W69896  37.772  31.085  14.728
97472W        W69897   3.418  23.230  12.041
97473W        W69898  13.707  14.179  11.084
97474W        W69899  12.284  31.142   3.862
97475W        W69900  37.452   7.706  11.926
97476W        W69901  29.770  23.679  11.445
97477W        W69902  20.801  20.635  11.860
97478W        W69903  38.308  22.687   4.620
97479W        W69904  14.109   4.452   2.007
97480W        W69905  42.970  25.245   3.320
97481W        W69906  28.447  22.686  13.893
97482W        W69907   2.326   9.759  14.742
97483W        W69908  15.289  19.194  12.515
97484W        W69909  30.277  11.237  13.842
97485W        W69910  18.564  39.737  14.300
97486W        W69911  25.197   7.337   0.905
97487W        W69912  44.850   2.405  12.545
97488W        W69913  35.889   1.241   0.075
97489W        W69914  31.823  12.812   3.249
97490W        W69915  23.265  32.427   2.801
97491W        W69916   8.944  22.590   4.527
97492W        W69917   4.674   1.560   3.205
97493W        W69918  34.956   6.363  13.772
97494W        W69919  13.813  28.127   3.238
97495W        W69920   3.747  42.424   1.729
97496W        W69921  12.783   6.972   1.871
97497W        W69922  27.913   7.222  12.138
97498W        W69923  20.683  22.342   3.301
97499W        W69924  34.570  25.955  13.774
97500W        W69925  44.966   6.722   0.454
97501W        W69926   6.354   3.431  14.626
97502W        W69927  42.506  17.796  14.873
97503W        W69928  22.649  25.285   5.059
97504W        W69929   9.822   7.668  11.609
97505W        W69930  29.151  37.863  14.815
97506W        W69931  12.660  25.057  10.001
97507W        W69932  26.134  25.345   4.070
97508W        W69933  38.311  41.919  14.662
97509W        W69934  26.458  36.929  12.980
97510W        W69935  23.019  30.389  10.339
97511W        W69936  38.518  32.518  10.394
97512W        W69937  20.516   8.145  14.693
97513W        W69938  34.552  31.567   1.174
97514W        W69939  18.633   5.229   4.055
97515W        W69940  13.565  17.517   3.722
97516W        W69941  31.409  27.647   3.209
97517W        W69942  12.040  24.161  14.917
97518W        W69943  12.578  25.995  12.549
97519W        W69944  14.713  27.690  14.092
97520W        W69945  15.362   8.328  13.536
97521W        W69946  13.535  41.151   4.124
97522W        W69947  17.058  24.555   0.478
97523W        W69948  23.443  40.027  12.784
97524W        W69949  20.684  27.441  13.594
97525W        W69950  32.070  30.623   1.159
97526W        W69951  23.132  11.827   1.164
97527W        W69952   2.281  12.651  10.575
97528W        W69953  30.917  41.457  13.373
97529W        W69954  37.476  44.834  11.264
97530W        W69955  35.132   5.307  13.526
97531W        W69956  33.456  33.310  10.717
97532W        W69957  16.183   9.297   0.975
97533W        W69958  15.506  34.966  14.764
97534W        W69959  27.333   9.173  11.183
97535W        W69960  12.838  26.162  12.144
97536W        W69961  29.198  42.215  11.218
97537W        W69962   6.273  38.703  11.156
97538W        W69963  42.977  27.710   0.910
97539W        W69964  28.501  41.085  12.216
97540W        W69965  13.634  32.390  12.898
97541W        W69966   8.587  14.650  14.303
97542W        W69967   8.412   9.378  11.651
97543W        W69968  40.353  30.332  10.687
97544W        W69969  29.162   6.504   3.666
97545W        W69970  18.352  25.747  14.974
97546W        W69971  35.436  39.483   4.266
97547W        W69972  44.870  18.190  10.859
97548W        W69973   8.924  28.126  10.536
97549W        W69974   3.842  28.708   2.085
97550W        W69975  28.074  22.934   4.189
97551W        W69976  21.438  10.652  14.868
97552W        W69977  13.102  21.055   2.935
97553W        W69978  36.460  22.055   1.821
97554W        W69979  29.622  43.658  11.442
97555W        W69980   1.955  38.097   0.028
97556W        W69981  12.310  33.492  13.335
97557W        W69982  20.988  19.369  12.108
97558W        W69983  26.814  33.595   5.064
97559W        W69984  12.317  31.999  11.028
97560W        W69985  43.400  13.824   2.716
97561W        W69986  22.133   0.232  12.569
97562W        W69987  23.028   2.458   3.344
97563W        W69988  43.379   1.908   4.356
97564W        W69989  34.914  38.107  11.623
97565W        W69990  26.183  14.307   4.399
97566W        W69991   0.007  42.129   3.915
97567W        W69992  17.255  40.889   1.898
97568W        W69993  24.121  14.854   1.119
97569W        W69994  36.457  37.301  11.223
97570W        W69995  20.611  18.368   2.666
97571W        W69996   8.621  22.763  13.543
97572W        W69997  26.169  37.430  11.987
97573W        W69998  33.826  43.253   0.433
97574W        W69999  25.059   3.781  14.387
97575W        W70000   6.078  28.869  12.953
97576W        W70001  32.097   3.386  12.479
97577W        W70002  32.200  19.347  11.535
97578W        W70003  19.699  21.578   2.282
97579W        W70004  39.553  42.416  14.941
97580W        W70005  19.680  30.419  12.518
97581W        W70006  16.657   9.374  13.066
97582W        W70007  38.185  23.307   1.721
97583W        W70008  21.575  43.082  12.959
97584W        W70009  17.372  18.807   1.311
97585W        W70010   6.211  33.060   1.888
97586W        W70011  16.569   4.806  12.592
97587W        W70012  20.211  33.070   1.843
97588W        W70013  28.852  44.857   1.216
97589W        W70014  26.756  29.945  14.076
97590W        W70015   2.986   8.693   2.855
97591W        W70016  26.961  29.052  13.480
97592W        W70017  25.203   9.003  13.784
97593W        W70018  38.832   2.842   2.582
97594W        W70019  20.898  37.561  11.150
97595W        W70020  16.786  11.398  10.495
97596W        W70021  36.610   0.984  12.947
97597W        W70022  21.783  20.482   1.326
97598W        W70023  42.263  34.089  10.853
97599W        W70024  42.710  39.802  13.990
97600W        W70025  33.366  29.500  10.622
97601W        W70026  26.946   3.687   2.270
97602W        W70027  31.601  35.953   1.865
97603W        W70028  11.807  26.426   2.845
97604W        W70029  43.299  29.906  11.193
97605W        W70030  24.651  15.140  13.478
97606W        W70031  43.411  44.172  13.755
97607W        W70032  28.555  14.122  11.106
97608W        W70033  16.807  33.119  14.905
97609W        W70034  16.115  20.049  12.969
97610W        W70035  28.915  18.851  10.723
97611W        W70036   6.793  20.080   3.069
97612W        W70037   6.073  34.706  11.995
97613W        W70038  25.655  20.919  11.661
97614W        W70039  15.610  35.968   1.090
97615W        W70040   2.410   4.698   0.743
97616W        W70041   0.920  27.744  10.321
97617W        W70042  10.155  24.701  10.556
97618W        W70043   5.852  28.445  11.339
97619W        W70044  35.910  34.698   0.241
97620W        W70045  33.127  12.655   1.432
97621W        W70046  43.921  32.055  11.521
97622W        W70047   2.999   1.267   1.119
97623W        W70048  11.208  21.792   3.341
97624W        W70049   7.861  44.202  11.950
97625W        W70050  22.051  39.308  11.900
97626W        W70051  44.598  19.062   1.346
97627W        W70052  11.114   3.306  14.425
97628W        W70053   1.648  34.175  12.464
97629W        W70054  30.212  12.797  14.474
97630W        W70055  19.327   0.062   1.830
97631W        W70056   6.588  26.721   2.990
97632W        W70057  27.604   8.355  11.496
97633W        W70058  22.835  29.922   4.529
97634W        W70059  44.914  13.871   4.600
97635W        W70060  30.700   9.243  14.880
97636W        W70061  37.322   9.820   3.829
97637W        W70062  13.027  18.655   3.867
97638W        W70063  29.585  40.122   5.055
97639W        W70064  19.253  15.030  12.030
97640W        W70065  17.287  18.315   1.143
97641W        W70066  16.027  16.672  12.325
97642W        W70067  35.387  25.993  12.839
97643W        W70068  44.280   1.170  10.836
97644W        W70069  22.624   4.028  11.158
97645W        W70070  29.157  23.032  14.072
97646W        W70071   4.047  41.768   0.985
97647W        W70072  28.079  44.936  13.357
97648W        W70073  22.953  16.822  12.414
97649W        W70074  43.035  33.993   3.643
97650W        W70075   2.046  31.274  12.986
97651W        W70076  17.354  24.282   0.119
97652W        W70077  15.496  11.846   2.374
97653W        W70078  27.971  35.001   1.684
97654W        W70079  41.052  34.764  11.145
97655W        W70080  42.959   5.971   0.779
97656W        W70081  38.340  40.850   3.708
97657W        W70082  43.869   8.577  13.404
97658W        W70083  10.259  40.227   1.879
97659W        W70084  32.073  43.097   0.978
97660W        W70085  11.854  10.197   4.517
97661W        W70086   9.702  13.773  11.454
97662W        W70087  34.623  13.827   0.279
97663W        W70088  39.483  44.240  13.206
97664W        W70089   6.479  34.914  10.730
97665W        W70090  36.398  17.248   3.355
97666W        W70091   6.236  22.595  11.958
97667W        W70092  13.784  26.334   9.805
97668W        W70093  14.905  21.024   1.652
97669W        W70094  38.132   9.196  11.893
97670W        W70095   2.515  44.317   1.827
97671W        W70096   4.959  10.660   4.916
97672W        W70097  21.671  32.959   3.216
97673W        W70098   9.586  13.840  12.855
97674W        W70099  27.858  43.865  12.393
97675W        W70100  41.986  30.188  14.348
97676W        W70101  44.399  31.179   5.136
97677W        W70102  16.287   8.496   0.346
97678W        W70103   5.588   2.108  14.992
97679W        W70104  12.681  18.062   2.752
97680W        W70105  34.104  22.454   1.870
97681W        W70106   2.263  24.965   0.228
97682W        W70107  12.347   3.788  14.570
97683W        W70108  32.573  35.059  10.798
97684W        W70109  43.059  17.095  11.073
97685W        W70110  17.300  16.796  11.175
97686W        W70111  12.159   3.284  14.463
97687W        W70112  26.602   9.997   4.819
97688W        W70113  37.531  14.063  13.862
97689W        W70114  31.605  40.322  14.878
97690W        W70115  16.052  26.168   3.231
97691W        W70116   5.115  19.712  14.435
97692W        W70117  35.041  30.862   0.192
97693W        W70118  40.494  18.130   2.319
97694W        W70119   0.026   1.535  11.493
97695W        W70120   4.214  43.717   4.045
97696W        W70121  18.637  31.437  14.079
97697W        W70122   8.752  37.451  13.441
97698W        W70123  38.640  41.609   4.272
97699W        W70124  24.199  22.571   4.776
97700W        W70125  35.321  38.881  14.312
97701W        W70126  38.061  26.147  13.882
97702W        W70127  43.569  39.888  14.900
97703W        W70128  21.029  34.208  11.858
97704W        W70129  24.554  20.669  11.534
97705W        W70130  10.347  38.321   0.455
97706W        W70131  27.836  21.700  13.098
97707W        W70132  27.172  16.638  13.396
97708W        W70133  17.130  19.986   2.679
97709W        W70134  13.047  22.369  13.349
97710W        W70135  31.919  15.048   2.368
97711W        W70136  31.474  19.503   2.568
97712W        W70137  22.684   5.352  11.105
97713W        W70138  31.434   1.255  13.497
97714W        W70139  10.041   5.100   2.337
97715W        W70140  22.191  26.575  14.848
97716W        W70141  20.069  31.059  12.792
97717W        W70142  33.450  26.034  11.692
97718W        W70143  27.601  17.205  12.161
97719W        W70144  44.608  37.834  12.003
97720W        W70145  26.115  12.215   0.240
97721W        W70146  36.879   0.459   4.581
97722W        W70147  14.316  16.070   4.756
97723W        W70148  12.202  14.583  14.751
97724W        W70149  15.861  30.537  10.743
97725W        W70150  18.902   7.450   1.234
97726W        W70151  36.608  28.714  14.996
97727W        W70152   4.193  36.778   3.777
97728W        W70153   3.982  30.986  12.304
97729W        W70154  28.392  43.555   4.129
97730W        W70155  27.170  33.352   0.178
97731W        W70156  16.626   5.019  14.393
97732W        W70157   2.022  16.223  11.746
97733W        W70158  11.237   5.931   3.583
97734W        W70159  20.543  18.217  14.985
97735W        W70160  18.229   0.726   1.292
97736W        W70161  43.750  13.157  11.123
97737W        W70162   5.870  19.755  12.986
97738W        W70163  42.001  24.600   2.741
97739W        W70164  26.254  30.436   2.372
97740W        W70165   0.004  29.724  11.138
97741W        W70166  27.403  31.106   1.787
97742W        W70167  44.447  39.392  13.858
97743W        W70168   0.879   0.285   1.809
97744W        W70169  38.520   7.833   1.169
97745W        W70170  31.920   9.666   4.260
97746W        W70171   5.269   3.567  12.057
97747W        W70172   1.896  14.575  14.391
97748W        W70173  16.024  40.474  12.284
97749W        W70174  33.566  26.360   9.882
97750W        W70175  23.696   9.939  13.850
97751W        W70176   8.249  33.722  14.528
97752W        W70177  38.145  38.038  11.989
97753W        W70178  23.843  17.208  12.865
97754W        W70179  23.699  32.097   2.055
97755W        W70180  14.126  13.611   1.268
97756W        W70181   6.422  13.741  14.785
97757W        W70182  40.270   3.666  13.438
97758W        W70183   2.217   5.208  12.485
97759W        W70184   7.934  35.220   3.663
97760W        W70185   6.572  35.895   0.824
97761W        W70186  10.174   9.082   4.092
97762W        W70187  33.385   9.251  14.565
97763W        W70188  43.253  17.599   2.349
97764W        W70189  20.154  40.242   0.161
97765W        W70190  35.125  41.572  13.929
97766W        W70191   6.466  40.416  11.051
97767W        W70192  43.449  21.955   3.733
97768W        W70193  32.574  37.375  11.226
97769W        W70194   3.821  37.741  14.407
97770W        W70195  11.861  37.982   3.123
97771W        W70196   6.980  38.003   0.859
97772W        W70197  38.918  43.452   0.993
97773W        W70198  28.707  16.360  12.727
97774W        W70199   6.743   6.574  11.469
97775W        W70200   7.687   9.485  10.835
97776W        W70201   8.200   5.495   4.565
97777W        W70202   2.319   8.859  10.929
97778W        W70203  13.299  11.614   2.292
97779W        W70204  11.815  37.288   0.898
97780W        W70205   3.538  13.239   3.183
97781W        W70206  30.497  29.178  11.668
97782W        W70207   1.048   7.431  14.349
97783W        W70208  24.623  26.594   1.366
97784W        W70209  30.314   8.791  12.178
97785W        W70210  35.534  12.591  14.878
97786W        W70211  20.291   1.275   0.737
97787W        W70212  15.309  41.799  13.427
97788W        W70213   3.779   4.927  11.660
97789W        W70214  33.103  30.059   3.236
97790W        W70215   0.859  33.614  13.538
97791W        W70216  15.363  25.715   0.081
97792W        W70217   3.262  16.189  11.109
97793W        W70218  37.833   3.181  10.771
97794W        W70219  28.414   5.397  11.154
97795W        W70220   9.390  44.424  11.908
97796W        W70221  14.754  15.368   0.504
97797W        W70222  36.834  18.498   3.788
97798W        W70223  14.120  38.404  11.943
97799W        W70224  44.301  21.535   4.553
97800W        W70225   7.540  41.902   3.108
97801W        W70226  11.878  34.491  12.472
97802W        W70227  23.732  22.788   0.377
97803W        W70228  19.752  33.531  12.430
97804W        W70229  32.532   9.580   0.486
97805W        W70230  10.414  12.559  14.753
97806W        W70231  13.906  39.829   3.291
97807W        W70232  24.505  30.106  10.162
97808W        W70233  19.241   5.015   1.706
97809W        W70234  25.740  22.664   2.462
97810W        W70235  20.763   1.483   3.245
97811W        W70236  41.294  40.990   0.752
97812W        W70237  33.489   9.666  10.571
97813W        W70238   7.324   7.844  11.589
97814W        W70239  25.747  41.769  13.827
97815W        W70240  19.863  14.886  13.463
97816W        W70241  16.280  33.394   3.752
97817W        W70242   6.831   3.785   0.715
97818W        W70243  42.603  25.509  13.074
97819W        W70244  12.818  29.645  13.566
97820W        W70245   2.298  40.472   1.288
97821W        W70246   7.117  43.443   2.750
97822W        W70247  34.536  43.222   1.790
97823W        W70248  35.613  19.720  12.539
97824W        W70249  37.863  41.234   2.847
97825W        W70250  37.001  31.205  10.984
97826W        W70251  39.907  35.935   3.040
97827W        W70252  15.320  11.925  13.351
97828W        W70253  26.772  39.530  13.469
97829W        W70254  41.422  23.649   3.124
97830W        W70255  33.388   5.434  11.133
97831W        W70256  10.126   0.860  11.538
97832W        W70257  29.144  38.109  12.747
97833W        W70258  34.436  21.998  14.857
97834W        W70259  16.630  28.710   4.228
97835W        W70260  24.160  24.509   4.180
97836W        W70261   0.825  26.637   2.887
97837W        W70262  39.653  30.715  12.541
97838W        W70263  28.438   6.973  12.857
97839W        W70264  10.863  28.558   2.006
97840W        W70265   7.977   6.180   3.593
97841W        W70266  10.030  42.618  12.548
97842W        W70267   7.091  37.807  13.648
97843W        W70268  36.610  26.389  11.066
97844W        W70269  15.149  25.672   1.876
97845W        W70270  38.037  24.945  13.385
97846W        W70271  16.956  19.525   0.053
97847W        W70272   4.481  42.496  13.408
97848W        W70273  34.904  15.089  11.427
97849W        W70274   9.249  27.032   4.632
97850W        W70275  35.460  20.967  11.079
97851W        W70276  41.288  11.148   1.210
97852W        W70277  23.591  42.588  12.509
97853W        W70278  42.015  44.627  10.089
97854W        W70279  13.684  33.879   0.963
97855W        W70280  19.113   0.044  11.551
97856W        W70281  31.983   9.535  12.913
97857W        W70282  32.624  18.330   3.711
97858W        W70283  37.786  43.886   0.387
97859W        W70284  30.533   6.688   1.709
97860W        W70285   1.433   9.976   2.825
97861W        W70286  15.741  37.089  14.904
97862W        W70287  36.672  29.453  12.558
97863W        W70288  29.823  40.558   9.833
97864W        W70289  44.375  18.453   3.224
97865W        W70290  34.226  25.027   4.195
97866W        W70291  24.052  37.861  10.820
97867W        W70292  14.718  21.276  11.178
97868W        W70293   7.368   6.792  13.314
97869W        W70294  21.656  39.886  13.967
97870W        W70295  38.059  39.406  13.837
97871W        W70296   9.303  42.263   0.470
97872W        W70297  41.154  26.613  12.830
97873W        W70298  44.595  27.918   5.058
97874W        W70299  22.081  25.972  10.792
97875W        W70300  21.185  35.837   3.434
97876W        W70301  24.277  16.691   0.061
97877W        W70302  15.038  41.382   1.253
97878W        W70303  17.297  40.478   2.728
97879W        W70304  26.563  41.941  13.908
97880W        W70305  27.599   9.611   0.943
97881W        W70306  17.549   0.504   0.841
97882W        W70307   1.325  28.424   1.916
97883W        W70308   8.226  29.219  13.373
97884W        W70309  20.720  29.661   1.446
97885W        W70310  26.946  26.971  13.530
97886W        W70311  43.920   6.316   4.351
97887W        W70312  44.751  19.231  14.418
97888W        W70313  10.892  29.696  11.594
97889W        W70314  17.002  10.894   3.698
97890W        W70315  17.111  35.135   3.710
97891W        W70316   1.728  38.309  11.908
97892W        W70317  39.914   4.706   0.976
97893W        W70318   5.249  14.619   0.289
97894W        W70319  18.440  23.969   4.702
97895W        W70320  36.020  23.898  12.567
97896W        W70321   7.183   2.398   1.178
97897W        W70322  35.323   6.794  12.035
97898W        W70323  21.961  36.151   3.840
97899W        W70324   3.471  22.010  12.473
97900W        W70325  38.951  19.168   1.475
97901W        W70326  21.047  27.886  12.825
97902W        W70327   5.299  13.141   3.115
97903W        W70328  26.808  43.482  11.644
97904W        W70329   3.595   8.802   1.989
97905W        W70330  43.033  30.116  12.942
97906W        W70331  14.792  26.068   3.760
97907W        W70332  26.179   5.353  12.116
97908W        W70333  44.856   3.022  10.639
97909W        W70334  31.562  37.781   1.743
97910W        W70335  44.412  32.817   3.681
97911W        W70336  14.001  19.567   4.192
97912W        W70337  41.921  15.680  14.762
97913W        W70338  35.854   6.883  12.073
97914W        W70339  39.476  14.464   4.305
97915W        W70340   1.792  38.034   1.870
97916W        W70341  27.195  25.043   4.744
97917W        W70342  19.201   7.806   4.034
97918W        W70343  18.776   9.914  12.479
97919W        W70344  11.270  32.498   1.972
97920W        W70345  39.008  27.909  12.941
97921W        W70346  12.154  34.528   3.837
97922W        W70347   5.559   2.884   4.865
97923W        W70348  12.263  24.000   3.519
97924W        W70349  11.784   0.017  13.394
97925W        W70350  19.168  44.732  12.649
97926W        W70351  31.088   0.513  11.694
97927W        W70352  34.634  21.980   3.155
97928W        W70353  13.885  33.317  12.475
97929W        W70354  26.152  29.884  11.059
97930W        W70355  15.591  10.853   4.262
97931W        W70356   9.378  27.890   3.166
97932W        W70357  23.300  19.211  12.852
97933W        W70358  39.334  28.393  13.616
97934W        W70359   9.321  13.382  11.962
97935W        W70360  32.318  32.930   1.892
97936W        W70361  26.571  38.811  12.921
97937W        W70362  42.344  37.807   4.831
97938W        W70363  17.080   7.230  14.185
97939W        W70364  39.530  36.361   3.496
97940W        W70365   0.985  32.718   1.344
97941W        W70366   2.523   5.458   2.316
97942W        W70367   1.426   9.979  13.790
97943W        W70368  23.904  12.755  14.238
97944W        W70369   5.731   6.016   1.165
97945W        W70370  10.606  10.651  10.795
97946W        W70371  28.573  32.549  14.813
97947W        W70372   6.475  43.709  11.627
97948W        W70373  22.683  12.521  14.598
97949W        W70374  36.549  42.136   1.249
97950W        W70375  24.508   8.379  12.400
97951W        W70376  37.284  23.563   1.537
97952W        W70377  15.313  26.144  11.417
97953W        W70378  33.138  28.557  12.162
97954W        W70379   7.186   6.100   4.065
97955W        W70380  32.737  20.702   2.752
97956W        W70381  38.818  23.974  12.534
97957W        W70382  38.020   7.599  13.173
97958W        W70383  42.555   6.208   4.583
97959W        W70384  19.500   2.121   3.850
97960W        W70385  14.500   6.982   4.951
97961W        W70386  40.402   1.262   1.857
97962W        W70387  26.388  32.940  14.419
97963W        W70388  15.764  17.457  13.582
97964W        W70389  16.092  40.419  10.868
97965W        W70390   8.047   6.410  12.633
97966W        W70391  26.961   9.067   0.030
97967W        W70392  15.562  31.011  14.832
97968W        W70393   0.545  39.486   1.751
97969W        W70394  30.653  44.529   0.881
97970W        W70395  20.136   1.070   4.597
97971W        W70396  39.563   0.368  14.200
97972W        W70397  14.220  11.965   0.050
97973W        W70398  30.564  37.588  13.313
97974W        W70399  35.930  16.018   1.274
97975W        W70400   1.812  13.078  13.123
97976W        W70401  20.659  13.610   2.769
97977W        W70402   7.773  37.597   4.110
97978W        W70403   3.885  19.985   1.260
97979W        W70404  34.602   3.255   1.731
97980W        W70405  43.543  18.257   1.118
97981W        W70406  10.768  21.798   5.387
97982W        W70407  37.431  16.870   0.367
97983W        W70408  22.179  33.055   4.089
97984W        W70409  33.965  44.172   1.168
97985W        W70410  28.955   3.381  13.834
97986W        W70411  40.602  28.198   1.353
97987W        W70412  27.522   9.743   1.771
97988W        W70413  41.017   6.865  10.970
97989W        W70414  11.748  24.718  13.843
97990W        W70415  43.722  32.521   1.418
97991W        W70416  24.455  15.718   3.623
97992W        W70417  28.690  16.716   4.081
97993W        W70418  11.684  35.407   4.762
97994W        W70419  13.709   4.380   4.370
97995W        W70420  20.788   5.945   4.724
97996W        W70421  30.644  35.216   3.181
97997W        W70422   2.607   2.992   1.322
97998W        W70423  15.120  38.659   1.356
97999W        W70424  10.093  16.504  10.449
98000W        W70425  29.480  40.975   9.831
98001W        W70426  18.310  24.701  14.992
98002W        W70427  41.463  38.737   0.825
98003W        W70428  33.650  41.743   3.252
98004W        W70429  17.150   3.736  14.499
98005W        W70430  38.433  37.595  11.948
98006W        W70431  31.479  12.874   2.674
98007W        W70432  33.316  14.099  13.030
98008W        W70433  34.940  18.873   0.309
98009W        W70434  32.353   5.103   1.332
98010W        W70435  13.647   9.791   4.785
98011W        W70436  12.312   8.740   1.176
98012W        W70437  40.482  42.784  13.558
98013W        W70438  39.336   6.795   2.158
98014W        W70439  19.631  29.527   1.818
98015W        W70440  10.258  25.490  13.465
98016W        W70441  29.717   9.738   2.073
98017W        W70442  39.287  27.933  13.389
98018W        W70443  29.931  14.915  11.165
98019W        W70444  28.486  26.808  12.878
98020W        W70445  20.650   8.781  10.782
98021W        W70446  39.531  18.197  12.029
98022W        W70447  18.130  16.787  11.744
98023W        W70448  35.683  29.238   0.952
98024W        W70449  38.031   9.906   0.993
98025W        W70450  23.159  14.617   0.318
98026W        W70451  40.576   5.262  13.343
98027W        W70452  26.257  17.556   1.274
98028W        W70453  29.322  15.558  11.238
98029W        W70454  21.000  30.391  10.751
98030W        W70455  36.321  19.486   4.489
98031W        W70456   4.916  18.351  12.487
98032W        W70457   1.787   2.819   4.515
98033W        W70458  43.893  36.580   4.314
98034W        W70459  38.472  23.645  13.958
98035W        W70460  20.165   7.640   2.842
98036W        W70461  32.441   4.261   1.494
98037W        W70462  18.243   2.098  10.478
98038W        W70463   5.407  16.873  14.878
98039W        W70464  20.784   5.033  10.926
98040W        W70465  18.915  26.746   1.666
98041W        W70466  34.338  12.152  14.893
98042W        W70467  16.215  30.406  14.280
98043W        W70468  33.324  11.608  11.892
98044W        W70469  42.423  15.869  10.428
98045W        W70470   3.330  34.644  12.474
98046W        W70471  40.879  38.337  12.636
98047W        W70472  42.393  38.649  12.877
98048W        W70473  31.961   2.359   0.662
98049W        W70474   1.467  23.080   4.612
98050W        W70475  35.718  23.367  10.940
98051W        W70476   1.874  38.525   3.768
98052W        W70477  21.040   7.015   1.296
98053W        W70478  16.293  18.514  14.792
98054W        W70479  33.832   1.451   3.619
98055W        W70480  18.763  17.152  14.725
98056W        W70481  41.374  10.670   2.199
98057W        W70482  43.059  18.429   2.467
98058W        W70483  37.183  10.143   1.644
98059W        W70484   3.963  26.506  13.018
98060W        W70485  20.325   1.046   1.228
98061W        W70486   4.163  23.056  13.241
98062W        W70487  43.915  12.301   1.274
98063W        W70488  44.163  38.986  10.564
98064W        W70489  28.228  43.754  14.947
98065W        W70490  38.095  39.783  11.617
98066W        W70491  29.423  11.252  14.054
98067W        W70492   9.646  44.909  11.592
98068W        W70493   7.989   3.808   4.755
98069W        W70494  35.168  22.601  11.159
98070W        W70495  28.159  29.415   3.552
98071W        W70496  23.957  35.350   1.873
98072W        W70497  17.277  22.243  14.572
98073W        W70498   0.948  20.564  11.653
98074W        W70499  27.580  33.532   3.307
98075W        W70500  29.085  41.192   4.153
98076W        W70501  34.012  16.231  14.761
98077W        W70502  37.065  25.595  14.315
98078W        W70503  36.393  10.132  10.610
98079W        W70504  35.550  39.477  10.755
98080W        W70505  28.138  21.744  10.711
98081W        W70506   9.195  10.650  12.030
98082W        W70507  27.715  35.849   0.759
98083W        W70508  44.408  24.497  11.679
98084W        W70509   0.452  14.689   4.027
98085W        W70510  26.608  41.354   0.712
98086W        W70511   3.839  26.755   0.287
98087W        W70512  32.971  13.521   2.706
98088W        W70513   9.322  44.445  14.465
98089W        W70514   2.865  30.896   0.132
98090W        W70515  42.926  18.182  11.070
98091W        W70516  17.564  13.659  13.486
98092W        W70517  31.025  27.888  11.701
98093W        W70518  14.377   5.222  13.117
98094W        W70519   0.042  44.593  11.214
98095W        W70520  13.678  33.121   4.297
98096W        W70521  44.369  35.569  10.804
98097W        W70522  18.818   8.821   1.249
98098W        W70523  42.964  24.177   0.881
98099W        W70524  43.922  13.634  10.996
98100W        W70525  13.176  42.850  11.697
98101W        W70526   5.387  24.100   3.669
98102W        W70527  27.951  39.809  10.584
98103W        W70528  27.345  17.032   0.918
98104W        W70529   1.815   0.841  13.531
98105W        W70530  41.270  14.521  14.389
98106W        W70531  18.655  24.435   0.311
98107W        W70532  25.255   3.679  13.895
98108W        W70533  32.695  40.150  13.388
98109W        W70534  17.753  16.793   2.908
98110W        W70535  26.082  10.755  10.616
98111W        W70536   8.725  43.450  13.600
98112W        W70537   1.989  37.307  12.015
98113W        W70538  21.074  28.675   1.465
98114W        W70539  27.654  44.962   4.171
98115W        W70540   5.710   1.339   0.482
98116W        W70541  22.102   9.045  11.861
98117W        W70542  30.516  18.457   0.269
98118W        W70543  16.781   2.694  12.458
98119W        W70544  17.546  28.137  12.959
98120W        W70545  32.660  23.113  11.869
98121W        W70546   4.323  14.134  14.633
98122W        W70547  28.539  13.579   2.000
98123W        W70548  13.333  34.664   1.947
98124W        W70549  34.736  28.229  13.838
98125W        W70550  10.118  21.072   0.517
98126W        W70551  19.745  33.718   5.319
98127W        W70552  20.362  38.573  10.986
98128W        W70553  33.737  19.044  12.307
98129W        W70554  24.156  38.830   2.683
98130W        W70555   6.085  16.402   1.103
98131W        W70556  27.414  41.368   3.093
98132W        W70557  12.923   4.173  11.563
98133W        W70558   2.432  28.140   4.173
98134W        W70559  12.398  29.185   3.674
98135W        W70560   6.665  43.952  14.222
98136W        W70561   9.221  12.602  10.582
98137W        W70562  25.769  13.890   3.609
98138W        W70563  23.400  42.911  10.559
98139W        W70564   3.258  11.688   3.652
98140W        W70565  10.779  11.105  13.547
98141W        W70566  18.826   1.220  11.989
98142W        W70567  37.052  13.744  12.376
98143W        W70568  37.563  11.119  10.833
98144W        W70569  18.321  37.335   5.012
98145W        W70570   0.689  32.026   3.669
98146W        W70571  15.661  25.639  12.540
98147W        W70572  19.929   5.914  12.551
98148W        W70573  12.625  27.425   0.349
98149W        W70574  27.116   6.706   0.504
98150W        W70575   9.110   4.477  11.960
98151W        W70576   2.728  35.368   1.708
98152W        W70577  38.532  21.618  14.932
98153W        W70578  26.251  16.726  14.946
98154W        W70579  15.150  40.079   1.419
98155W        W70580  36.678  34.698  11.130
98156W        W70581  23.525  11.409  13.780
98157W        W70582  39.091   4.643   0.740
98158W        W70583  30.070  10.823   3.499
98159W        W70584   9.006   2.409   1.738
98160W        W70585  33.396  29.703  12.028
98161W        W70586  30.519  21.069   3.610
98162W        W70587  27.478  40.842   0.444
98163W        W70588  13.556  24.601   3.690
98164W        W70589  22.307  12.208   5.135
98165W        W70590   3.978   5.966  14.675
98166W        W70591  27.904  40.569   5.586
98167W        W70592   2.859   3.675   1.124
98168W        W70593   4.668  36.005  12.626
98169W        W70594   9.332   1.021   2.702
98170W        W70595  27.996  20.723  10.931
98171W        W70596   6.123  24.490  11.127
98172W        W70597  40.213  23.546  12.739
98173W        W70598  13.768   0.237   3.679
98174W        W70599  42.593  23.104   2.547
98175W        W70600  43.082  33.986   1.684
98176W        W70601  30.612  39.413   1.724
98177W        W70602  15.087  27.138  10.980
98178W        W70603   8.438   5.420  13.876
98179W        W70604  25.904  34.873   1.807
98180W        W70605  33.662  19.649  13.074
98181W        W70606  23.705   3.109   3.618
98182W        W70607  31.123  28.281   2.199
98183W        W70608   1.724  23.280  13.002
98184W        W70609   3.772  19.399   2.642
98185W        W70610   8.642  14.879   3.275
98186W        W70611  40.552   5.319   0.926
98187W        W70612   3.821  32.310  11.570
98188W        W70613  37.536  24.196  14.805
98189W        W70614  20.991  29.566   3.180
98190W        W70615  21.033  14.776   4.547
98191W        W70616  29.872  34.375   0.951
98192W        W70617  17.015  15.622   1.396
98193W        W70618  37.450  26.644   3.925
98194W        W70619   6.709  44.877  14.999
98195W        W70620  28.401   3.957   3.835
98196W        W70621  21.009  12.777   0.428
98197W        W70622  22.671   2.300  14.021
98198W        W70623   7.907   8.294  13.538
98199W        W70624  20.693  10.817   4.061
98200W        W70625   2.737  30.585   1.929
98201W        W70626   3.829  20.555   4.314
98202W        W70627  20.111  35.062   3.657
98203W        W70628  16.262  28.521   0.334
98204W        W70629  42.415   2.782   4.498
98205W        W70630  10.305   2.483   5.018
98206W        W70631   8.507  44.302  11.170
98207W        W70632  41.808  11.441   5.126
98208W        W70633  35.290  39.899   0.457
98209W        W70634  15.367  14.729  10.931
98210W        W70635   7.270  25.642   1.674
98211W        W70636  31.224  38.604  11.105
98212W        W70637  43.480  44.273   1.693
98213W        W70638  31.531  22.933   2.697
98214W        W70639  29.071  44.236  13.313
98215W        W70640   8.355  22.092   0.591
98216W        W70641  44.330  16.521   0.291
98217W        W70642  34.132  43.933  11.240
98218W        W70643  42.508   7.439   3.560
98219W        W70644  26.142  40.009   0.280
98220W        W70645   0.804  10.895  14.095
98221W        W70646  41.289  17.741  14.306
98222W        W70647  14.347  17.775   4.115
98223W        W70648   0.532  21.495  13.847
98224W        W70649  24.873  26.147  11.641
98225W        W70650  31.029  37.063  13.941
98226W        W70651  35.029  14.768  13.634
98227W        W70652   1.527  44.926  14.519
98228W        W70653  19.751  31.471  14.809
98229W        W70654  39.815  44.584  14.571
98230W        W70655   5.487   8.477   1.734
98231W        W70656  36.679   1.190  14.487
98232W        W70657  27.458  36.622  14.714
98233W        W70658   3.872  34.234  11.294
98234W        W70659  39.039  22.583   0.877
98235W        W70660  42.591  39.685  12.837
98236W        W70661  18.712  22.175   3.801
98237W        W70662  39.071  27.134   0.425
98238W        W70663  30.213  13.145   4.472
98239W        W70664  15.017  41.328   4.487
98240W        W70665  35.997  21.195   2.050
98241W        W70666  25.014  13.630  11.099
98242W        W70667  37.878  23.114  12.858
98243W        W70668  16.091   6.196  11.633
98244W        W70669  44.713  16.123   0.473
98245W        W70670  12.689  43.015   0.304
98246W        W70671  25.885  20.025   0.094
98247W        W70672  24.225  10.855  11.118
98248W        W70673  32.243  32.200  12.374
98249W        W70674  41.439  13.644  12.020
98250W        W70675  29.672  32.325   4.508
98251W        W70676  41.525  32.530   0.482
98252W        W70677  21.175  13.134   1.480
98253W        W70678  41.985  15.036  12.840
98254W        W70679  16.929   2.002  14.305
98255W        W70680  31.610  17.132   1.882
98256W        W70681  12.443   4.318  11.443
98257W        W70682  12.789  37.470  12.421
98258W        W70683   0.102  33.945   0.932
98259W        W70684  14.323  32.703   2.630
98260W        W70685  35.135   7.879  14.804
98261W        W70686   5.820  40.301  14.793
98262W        W70687  12.688  15.791   4.620
98263W        W70688  19.340  21.309  12.550
98264W        W70689  43.014  41.546  10.639
98265W        W70690  13.808   7.033   1.352
98266W        W70691  29.960  20.509   1.345
98267W        W70692  43.011  10.267  10.507
98268W        W70693   3.009  12.463  12.836
98269W        W70694   1.259  12.835   2.856
98270W        W70695   1.134  25.619  12.949
98271W        W70696  14.595  23.592  13.322
98272W        W70697  14.128  44.762   2.162
98273W        W70698  17.465   3.709  12.036
98274W        W70699   2.425  29.019   2.733
98275W        W70700  30.213   7.374   4.189
98276W        W70701  41.472  30.946  14.299
98277W        W70702  27.187  20.568   2.849
98278W        W70703  14.812  16.299  12.517
98279W        W70704  40.022  42.208  14.898
98280W        W70705  41.005  32.074   1.705
98281W        W70706  13.226  19.508   0.881
98282W        W70707  37.566  21.278   2.906
98283W        W70708   3.924  19.130   4.165
98284W        W70709  20.011  26.224  14.032
98285W        W70710   6.228  10.670   3.742
98286W        W70711  29.403  16.614   4.668
98287W        W70712  23.040  34.965   3.206
98288W        W70713  14.908  28.196   3.797
98289W        W70714   3.770  21.449  10.528
98290W        W70715  39.378  28.039  11.636
98291W        W70716  21.790  29.473  12.870
98292W        W70717  14.155  29.028  14.229
98293W        W70718  18.842   3.411  13.039
98294W        W70719   8.427  21.761  13.286
98295W        W70720  44.720  12.233   2.926
98296W        W70721  35.356   3.707   2.811
98297W        W70722  36.830  11.754  13.474
98298W        W70723  21.451  12.319   5.568
98299W        W70724  15.568  23.147  12.463
98300W        W70725  22.317   9.317  12.607
98301W        W70726   5.917   9.590  12.409
98302W        W70727  17.567  28.014   0.344
98303W        W70728  20.468  17.753  13.755
98304W        W70729  10.609  23.777   5.517
98305W        W70730   9.289  33.024   4.115
98306W        W70731  40.771  11.252   4.250
98307W        W70732   0.437  11.158   0.856
98308W        W70733  17.907  27.764  12.996
98309W        W70734  34.901   7.130   4.543
98310W        W70735  23.891  41.771   1.786
98311W        W70736   3.337  12.682  11.479
98312W        W70737  37.088  13.688   3.101
98313W        W70738   4.573  33.537  14.574
98314W        W70739  35.030  29.596   1.229
98315W        W70740  23.139  41.878   3.258
98316W        W70741  39.070  20.911  14.936
98317W        W70742   5.221   6.560   2.208
98318W        W70743  35.637  13.415  11.206
98319W        W70744  12.715  19.561   0.695
98320W        W70745  34.214  29.980   4.498
98321W        W70746  16.966  15.299   0.964
98322W        W70747  19.028  20.266  12.332
98323W        W70748  42.486  44.477   1.859
98324W        W70749  42.469  35.376  11.908
98325W        W70750  43.024  32.990   0.398
98326W        W70751  10.240  21.570   2.782
98327W        W70752  22.372  21.003  10.661
98328W        W70753   9.201  40.067  12.634
98329W        W70754  35.556  25.915  11.984
98330W        W70755   7.323  35.624   1.912
98331W        W70756   2.946   3.478  13.567
98332W        W70757  35.002   0.549  12.423
98333W        W70758  12.813  39.407   2.803
98334W        W70759   6.821  29.142   1.502
98335W        W70760   6.323  31.460  10.786
98336W        W70761  30.425  37.654   0.139
98337W        W70762  31.887   7.296  13.325
98338W        W70763  15.703  16.110   3.681
98339W        W70764   8.694   4.618  14.781
98340W        W70765  29.556  44.461  13.125
98341W        W70766  22.025  17.990  13.291
98342W        W70767   0.755  22.185   0.503
98343W        W70768  25.487  26.748   2.845
98344W        W70769  13.791  36.302   1.241
98345W        W70770  23.565  38.032   0.958
98346W        W70771  37.198  33.548  10.609
98347W        W70772  16.698  38.016  13.451
98348W        W70773   6.834  26.287   0.595
98349W        W70774  23.295   7.717   2.963
98350W        W70775  22.575  44.948  13.400
98351W        W70776  19.364   2.526   4.232
98352W        W70777  12.145  29.031   3.238
98353W        W70778  38.768   7.215   1.456
98354W        W70779   4.958  13.276   2.145
98355W        W70780  32.427  35.637   4.537
98356W        W70781   0.949   9.180  14.951
98357W        W70782   5.311   5.804   4.735
98358W        W70783  33.540  26.950   0.886
98359W        W70784  37.126   9.648   1.753
98360W        W70785  13.695  30.699   4.216
98361W        W70786  28.442  14.191  11.622
98362W        W70787   0.255  31.608   1.442
98363W        W70788  33.559  41.307   3.557
98364W        W70789  22.712  36.430  13.887
98365W        W70790  35.918  33.347  10.410
98366W        W70791  13.863  27.762   2.866
98367W        W70792   2.718  42.261  13.735
98368W        W70793  33.805  24.728   4.241
98369W        W70794  37.874  29.926  11.734
98370W        W70795  26.851   6.329  11.237
98371W        W70796  17.698  39.834  10.736
98372W        W70797  19.137  28.057  13.029
98373W        W70798  38.948  11.854   4.103
98374W        W70799   5.189  12.124   0.716
98375W        W70800  42.277   6.697  13.263
98376W        W70801  34.039  32.533   1.983
98377W        W70802  19.703   8.713   1.974
98378W        W70803  28.306  34.057  14.987
98379W        W70804  37.915  22.495   0.305
98380W        W70805  36.348  20.556   1.309
98381W        W70806  27.373  35.413   4.156
98382W        W70807   2.256  39.009  14.067
98383W        W70808  26.316  14.908  10.794
98384W        W70809  35.282   5.459  14.863
98385W        W70810  29.259  30.875  10.768
98386W        W70811  22.231  25.328  14.596
98387W        W70812  10.438  20.965   1.986
98388W        W70813   7.542  40.550  12.661
98389W        W70814   4.215  12.985   3.851
98390W        W70815  25.157   9.490   3.356
98391W        W70816   9.271   9.653  12.155
98392W        W70817  44.244  32.317   3.677
98393W        W70818  41.447  36.348   0.830
98394W        W70819  13.322  31.577  14.803
98395W        W70820  18.698  14.004   0.894
98396W        W70821  25.476  33.635  10.168
98397W        W70822  37.491  22.751  12.570
98398W        W70823  20.714  34.878   4.292
98399W        W70824  27.513  43.403  11.197
98400W        W70825  30.063  41.995   2.928
98401W        W70826   7.920  12.302  11.577
98402W        W70827   3.241   9.884   3.092
98403W        W70828  14.896  26.428  10.427
98404W        W70829  33.786  44.726   2.270
98405W        W70830  23.469  20.755  11.481
98406W        W70831  23.684   4.385   1.701
98407W        W70832  15.846  31.883  12.508
98408W        W70833   4.220  28.572  14.791
98409W        W70834  30.063  39.135   9.936
98410W        W70835  31.956   0.803  12.946
98411W        W70836  39.592  21.576  13.385
98412W        W70837   8.125  15.389   2.434
98413W        W70838  32.024  43.107  12.972
98414W        W70839   5.965  15.758   3.264
98415W        W70840  40.972   4.372   2.579
98416W        W70841  11.732   0.334  11.172
98417W        W70842  15.601  26.534   1.631
98418W        W70843  17.881   6.832  12.364
98419W        W70844  11.632  36.845  14.888
98420W        W70845   6.278  40.086  14.478
98421W        W70846   5.730  37.660   4.240
98422W        W70847  44.044   6.281   2.829
98423W        W70848  25.618  23.971  14.498
98424W        W70849  25.459  36.526  13.405
98425W        W70850  13.555  38.846   2.778
98426W        W70851   3.461   3.919   3.198
98427W        W70852  19.698  21.067  13.254
98428W        W70853  16.825  10.295   4.162
98429W        W70854  26.372  26.248   0.388
98430W        W70855  39.253  37.972  13.964
98431W        W70856  11.781  22.500   2.612
98432W        W70857   3.128  37.461   2.351
98433W        W70858  14.149  23.323   4.701
98434W        W70859   8.238  11.113  11.500
98435W        W70860   5.523  14.194   0.425
98436W        W70861   3.528   4.124   3.737
98437W        W70862  35.996  26.821   1.368
98438W        W70863  37.084   6.130   2.785
98439W        W70864   0.213  32.520  14.549
98440W        W70865  11.170  31.579   1.941
98441W        W70866  18.303  11.249   0.678
98442W        W70867  10.978  21.067   4.266
98443W        W70868  18.140  10.317  10.631
98444W        W70869  18.656  41.028  12.086
98445W        W70870  17.165  12.190   4.579
98446W        W70871   8.249  41.459   2.182
98447W        W70872  13.575  38.152  13.225
98448W        W70873  17.271  25.698  13.759
98449W        W70874  37.423   0.218   2.264
98450W        W70875  32.888  16.725  14.436
98451W        W70876  17.188  41.575  14.858
98452W        W70877  35.994  33.814   2.617
98453W        W70878  27.879  34.948   0.275
98454W        W70879   3.949  28.087   3.729
98455W        W70880  39.353  39.338  14.853
98456W        W70881  25.500  32.990  14.055
98457W        W70882  18.058  41.011   4.556
98458W        W70883  42.540  29.027   3.848
98459W        W70884   1.872  44.440   3.624
98460W        W70885   7.360  16.146   1.709
98461W        W70886  29.347  12.125  12.088
98462W        W70887  32.528   3.387   1.862
98463W        W70888  21.635  43.422  10.739
98464W        W70889  26.966  42.967   1.348
98465W        W70890  19.550  26.651   5.060
98466W        W70891  25.526  11.562  11.516
98467W        W70892   0.197  42.867   3.290
98468W        W70893  11.068   7.651   3.114
98469W        W70894  14.852  16.025  11.097
98470W        W70895   0.379  42.033   3.316
98471W        W70896   6.408  11.500   3.980
98472W        W70897  44.400  32.327   2.439
98473W        W70898  32.133   8.957   0.407
98474W        W70899  31.234   9.341  10.739
98475W        W70900  10.010   2.495   1.630
98476W        W70901  35.291   1.892   4.612
98477W        W70902  35.186  30.143   0.849
98478W        W70903  20.808   1.312  14.787
98479W        W70904  21.570   1.269  13.983
98480W        W70905  26.182  38.379   1.837
98481W        W70906  33.107  21.148   4.594
98482W        W70907   1.246  18.031  13.426
98483W        W70908  18.507  24.209   0.768
98484W        W70909  30.064   6.374  14.862
98485W        W70910  26.480  36.044   1.438
98486W        W70911  38.354  16.050  12.545
98487W        W70912   8.493   9.300   2.649
98488W        W70913  35.505   0.350  12.453
98489W        W70914   0.479  39.564   0.956
98490W        W70915  23.779  12.252   1.880
98491W        W70916  17.546  29.014   1.676
98492W        W70917   8.887  30.252   0.747
98493W        W70918  25.989  13.777   3.168
98494W        W70919  20.758  36.843   1.901
98495W        W70920  38.746  35.837  12.588
98496W        W70921   8.397  44.961   2.781
98497W        W70922  10.536  12.259  12.972
98498W        W70923  39.335  39.345  13.391
98499W        W70924   3.740  26.763  12.198
98500W        W70925  44.979  28.955   0.996
98501W        W70926  31.067  12.782  12.961
98502W        W70927  23.669  10.749  13.029
98503W        W70928   7.510  17.913  10.369
98504W        W70929  16.426  38.101   4.186
98505W        W70930  27.038  11.013  10.584
98506W        W70931  12.188  18.122  12.904
98507W        W70932  43.884   7.836  14.071
98508W        W70933  22.475  44.194  10.944
98509W        W70934  40.416  23.590   3.764
98510W        W70935   8.767   4.272   3.684
98511W        W70936  44.862   3.549  12.392
98512W        W70937  12.886  28.632  14.584
98513W        W70938  15.855   3.577  14.286
98514W        W70939  22.215  11.073  13.512
98515W        W70940  30.070  29.466   0.232
98516W        W70941  31.190  34.027  13.462
98517W        W70942  44.696  30.960  14.089
98518W        W70943  34.830  27.635  11.060
98519W        W70944  24.555  23.046   2.426
98520W        W70945  16.701  20.645   4.774
98521W        W70946  27.574  15.362  10.849
98522W        W70947   0.640  41.914  11.392
98523W        W70948  38.829  23.996   5.078
98524W        W70949  39.655  39.666  11.071
98525W        W70950  33.927  33.839   3.576
98526W        W70951  10.219  24.017   0.331
98527W        W70952  26.164  19.095  14.952
98528W        W70953   0.205  34.292  12.560
98529W        W70954   4.291  34.442  13.713
98530W        W70955  17.736  37.905  14.035
98531W        W70956   2.280   6.587  14.277
98532W        W70957  11.024   6.533   4.658
98533W        W70958  19.942  36.027   2.878
98534W        W70959  24.359   4.403  13.530
98535W        W70960  40.037  14.805  14.780
98536W        W70961  39.957   8.725  14.924
98537W        W70962   8.063  36.993   4.124
98538W        W70963  44.914  16.711   1.919
98539W        W70964  40.493  14.441  12.173
98540W        W70965  16.044  31.081   1.286
98541W        W70966  42.551   6.338   0.833
98542W        W70967  15.382   7.127  13.117
98543W        W70968   1.923  20.454  14.826
98544W        W70969  38.332   8.443   4.612
98545W        W70970   9.649  32.650  10.593
98546W        W70971   6.244  35.546   4.102
98547W        W70972  13.280   3.735   2.357
98548W        W70973  44.269  10.804   2.833
98549W        W70974  35.545  38.310   0.778
98550W        W70975  26.933  44.308  12.939
98551W        W70976   5.378  25.571  12.906
98552W        W70977  15.719  21.680  10.990
98553W        W70978  11.383  30.875   4.049
98554W        W70979  36.980  40.359  11.965
98555W        W70980   1.582  41.251   2.287
98556W        W70981   6.345  44.874   0.836
98557W        W70982  29.083  15.614   2.247
98558W        W70983  42.570  43.046  14.430
98559W        W70984  16.995  35.410  10.510
98560W        W70985  11.132   8.311   1.947
98561W        W70986  12.105   9.685   3.666
98562W        W70987   1.823   9.304   1.545
98563W        W70988  18.062  11.862   1.347
98564W        W70989   7.838  13.941   3.719
98565W        W70990  40.757  41.986   2.711
98566W        W70991  44.377  22.249   2.316
98567W        W70992   7.881  20.151   1.455
98568W        W70993  37.277  35.192  12.018
98569W        W70994  38.189  26.931   0.798
98570W        W70995   1.348   6.058  12.424
98571W        W70996  44.880  39.788   2.268
98572W        W70997   1.484  29.980   1.801
98573W        W70998   6.769  25.572   2.474
98574W        W70999  42.474  10.876   2.407
98575W        W71000  38.824  21.563  13.845
98576W        W71001  27.702   6.670  14.751
98577W        W71002  29.354  41.658   1.216
98578W        W71003  19.569   7.363  14.255
98579W        W71004  32.859  43.679  14.468
98580W        W71005  16.261   5.159  14.751
98581W        W71006  16.042  27.933  14.424
98582W        W71007  20.775  13.792  14.417
98583W        W71008  36.641  19.200   1.551
98584W        W71009  21.828  27.369  11.157
98585W        W71010  14.364  19.052  14.362
98586W        W71011  41.584  39.510  12.869
98587W        W71012   5.274  13.018   0.009
98588W        W71013  28.827   3.458   1.182
98589W        W71014  34.904  43.330  12.030
98590W        W71015  43.177  41.590   2.809
98591W        W71016  43.391  11.914  11.858
98592W        W71017  31.073  21.593  14.762
98593W        W71018  30.917  31.133  14.000
98594W        W71019  24.034   8.820   5.069
98595W        W71020  24.469   4.867  12.377
98596W        W71021  22.979   9.435   4.185
98597W        W71022   0.310   9.622   0.133
98598W        W71023   3.024  31.268  14.774
98599W        W71024   9.919   3.054  14.861
98600W        W71025   1.221   5.635  14.107
98601W        W71026  39.312  14.148  11.131
98602W        W71027   5.746  13.676  12.602
98603W        W71028   5.205   1.784  10.774
98604W        W71029  29.966  39.930  13.908
98605W        W71030  11.705   2.880  10.997
98606W        W71031  16.676  31.900   3.906
98607W        W71032  20.196  19.951  11.149
98608W        W71033  17.750   5.950   0.412
98609W        W71034  39.045  39.403   2.626
98610W        W71035  33.634  24.821  10.494
98611W        W71036   3.532  43.311   2.216
98612W        W71037  43.976  13.749   3.887
98613W        W71038  10.070  15.297  11.129
98614W        W71039  20.089  21.747  12.474
98615W        W71040  29.578  25.508   4.528
98616W        W71041  42.307  28.714   0.502
98617W        W71042  43.756  30.110   4.632
98618W        W71043   4.623   3.653   0.337
98619W        W71044  25.690  16.094   4.211
98620W        W71045  37.783  38.431   3.818
98621W        W71046   6.397   4.969   1.000
98622W        W71047   0.789  16.763  12.614
98623W        W71048  16.540  19.785  12.844
98624W        W71049  14.944  26.241  14.944
98625W        W71050  10.871  29.515   2.506
98626W        W71051  23.183  27.628  12.515
98627W        W71052  27.342   4.225  12.562
98628W        W71053  39.626  18.356  12.516
98629W        W71054   7.312  33.898  11.977
98630W        W71055  30.911  23.141  13.283
98631W        W71056  25.714  15.288  14.392
98632W        W71057  22.505  31.655   3.348
98633W        W71058  17.846  17.343   1.790
98634W        W71059  35.074  11.665  12.488
98635W        W71060  39.713  12.162  14.338
98636W        W71061   3.650   0.007  13.489
98637W        W71062  10.338  33.940  12.306
98638W        W71063  15.669  25.227  12.212
98639W        W71064  43.543   1.255   2.997
98640W        W71065  38.765   3.367   0.520
98641W        W71066  36.360  15.714  14.364
98642W        W71067  32.519  23.047   2.993
98643W        W71068  40.073  17.587   1.248
98644W        W71069  32.198  12.269  10.689
98645W        W71070  38.869   1.936  14.928
98646W        W71071   9.369   8.129  13.028
98647W        W71072  10.342   0.794   0.026
98648W        W71073   7.950  25.146   1.621
98649W        W71074   7.456   8.468  11.973
98650W        W71075  21.051  12.859  11.359
98651W        W71076  29.623  23.134   1.906
98652W        W71077   8.452  23.535   4.483
98653W        W71078  12.827  22.039  14.328
98654W        W71079  12.299  23.905   2.261
98655W        W71080  22.912  43.732   1.821
98656W        W71081  15.264   9.199   2.127
98657W        W71082  34.750  13.157   2.809
98658W        W71083  37.614  29.203   2.683
98659W        W71084  11.562  19.941  10.376
98660W        W71085  11.729  35.862  14.838
98661W        W71086  14.822   0.501   1.353
98662W        W71087   8.730  35.434  12.927
98663W        W71088   6.294  39.323  13.941
98664W        W71089  14.849  15.139   2.529
98665W        W71090   4.861   0.852  14.971
98666W        W71091  39.066  27.407  13.096
98667W        W71092  28.889  38.461   4.974
98668W        W71093   8.136   1.814  13.570
98669W        W71094   6.360  26.288   2.821
98670W        W71095  14.789   6.865   3.772
98671W        W71096  18.776  23.920   0.316
98672W        W71097  17.634  21.567  10.431
98673W        W71098  39.346  10.909  14.892
98674W        W71099  25.551  38.887   2.451
98675W        W71100  18.169  38.813  13.784
98676W        W71101  44.064  44.850  11.111
98677W        W71102  16.446  34.106   1.808
98678W        W71103  22.183  12.100   0.833
98679W        W71104  36.617  21.943   1.321
98680W        W71105   9.884  17.651  11.093
98681W        W71106   3.980   8.129  12.371
98682W        W71107  23.864  28.626  10.431
98683W        W71108   9.589   1.441  13.468
98684W        W71109   5.630  22.592   3.116
98685W        W71110   1.072  11.176  10.928
98686W        W71111  40.934  34.856   1.345
98687W        W71112  19.845  22.084  10.470
98688W        W71113  25.002  41.104   3.295
98689W        W71114  21.349  14.867  12.442
98690W        W71115  21.171  24.431  11.016
98691W        W71116   8.472  26.428   4.687
98692W        W71117  29.597  33.094   1.924
98693W        W71118  41.506  29.623  12.508
98694W        W71119  21.110  26.414  14.436
98695W        W71120   4.697  25.272   4.052
98696W        W71121   2.215   4.292  10.233
98697W        W71122  42.295  12.101   3.718
98698W        W71123  17.178  44.692   4.157
98699W        W71124  40.421   3.799  11.470
98700W        W71125  12.595   3.808  10.155
98701W        W71126  11.463  38.189  14.355
98702W        W71127  30.837   8.685  11.566
98703W        W71128  31.584   6.309   4.769
98704W        W71129  41.481  11.639  10.741
98705W        W71130  33.103   5.248  14.284
98706W        W71131  38.506   2.544  12.264
98707W        W71132  18.874  17.845   3.171
98708W        W71133  14.138  16.899  10.655
98709W        W71134  22.076   9.388   4.965
98710W        W71135  11.199  42.513   5.166
98711W        W71136  11.071  40.380  14.005
98712W        W71137   8.687  40.928   2.693
98713W        W71138  13.607  41.095  14.494
98714W        W71139  36.102  20.489  10.487
98715W        W71140  24.501   4.387   1.020
98716W        W71141  39.758  20.826  11.215
98717W        W71142  33.507  29.369   5.300
98718W        W71143  17.970  14.376   0.152
98719W        W71144  11.527   9.716   2.357
98720W        W71145  31.086  16.802  11.552
98721W        W71146  11.589  38.962  13.314
98722W        W71147   7.420   5.091  11.146
98723W        W71148  33.771   1.033   4.662
98724W        W71149  13.709  40.341  12.176
98725W        W71150   6.611  12.275   0.865
98726W        W71151  35.073  37.442   2.789
98727W        W71152  44.837  26.476   3.293
98728W        W71153  30.686  30.642   0.876
98729W        W71154   3.256  12.584  12.374
98730W        W71155  43.463   1.463   3.483
98731W        W71156  21.095  31.500  13.514
98732W        W71157  25.649  41.214   4.585
98733W        W71158   2.198  24.144  13.761
98734W        W71159  27.955   1.252  11.412
98735W        W71160  14.126   0.239   4.448
98736W        W71161  16.174  38.575   4.087
98737W        W71162  29.989  11.713  11.084
98738W        W71163   4.386  41.853  14.624
98739W        W71164  39.799   7.701  12.554
98740W        W71165  36.314  34.637   1.881
98741W        W71166  37.325  22.993  12.133
98742W        W71167  33.062  44.082   0.411
98743W        W71168  17.809   3.918  11.090
98744W        W71169  21.204   2.680   1.462
98745W        W71170  12.302  37.574   2.437
98746W        W71171  34.455  42.787   4.248
98747W        W71172  16.938   0.707   0.930
98748W        W71173   9.071  20.286  12.103
98749W        W71174  31.975   1.458  12.115
98750W        W71175  20.853  44.067   2.500
98751W        W71176  40.379  14.724  10.596
98752W        W71177  39.487  21.261   0.630
98753W        W71178  20.365  10.916   3.232
98754W        W71179  17.853  23.755   3.243
98755W        W71180  40.150  24.740  11.542
98756W        W71181   0.287  37.591   2.215
98757W        W71182  32.631  35.114  13.475
98758W        W71183  15.304  17.840  12.172
98759W        W71184  34.814  12.183   3.704
98760W        W71185  41.293   3.649   4.552
98761W        W71186  22.334  11.121  10.424
98762W        W71187  41.840   2.786   4.566
98763W        W71188  34.359   4.515   4.675
98764W        W71189  33.565  26.701   0.308
98765W        W71190   9.196   2.267   3.502
98766W        W71191  43.296  17.587   3.259
98767W        W71192   8.111  17.250   0.971
98768W        W71193  25.719  31.990  11.501
98769W        W71194  38.613  14.080   4.115
98770W        W71195  12.888   2.636   1.352
98771W        W71196  31.397  35.697  13.082
98772W        W71197  33.414  44.908  12.944
98773W        W71198   2.306   4.840   1.636
98774W        W71199  43.105  14.786   2.457
98775W        W71200  42.320  17.630  14.413
98776W        W71201  34.436  21.462   3.206
98777W        W71202  36.419  40.409  12.776
98778W        W71203  36.333  15.225  14.201
98779W        W71204  15.017  16.597   1.335
98780W        W71205  35.719  35.633  12.907
98781W        W71206  36.968  15.064   4.948
98782W        W71207  26.519   0.329   0.057
98783W        W71208   2.545  12.839   4.065
98784W        W71209  24.434  30.376  12.465
98785W        W71210  21.080  41.266   1.842
98786W        W71211  32.533  42.000  12.063
98787W        W71212  20.027  38.776   2.588
98788W        W71213  30.092   3.528  13.360
98789W        W71214  43.437  42.250   3.620
98790W        W71215  21.493  40.833  13.840
98791W        W71216  14.721  41.536   4.118
98792W        W71217   5.901  18.253   4.810
98793W        W71218  39.506  29.943  11.913
98794W        W71219  23.148  32.052   2.004
98795W        W71220  14.794  44.927   1.446
98796W        W71221  11.817   1.030  11.629
98797W        W71222  44.883  38.930  12.781
98798W        W71223   3.874  40.788   0.941
98799W        W71224  19.026  39.852   2.144
98800W        W71225  33.014   3.174   2.906
98801W        W71226  39.946  15.215   2.920
98802W        W71227  31.604  29.802   1.185
98803W        W71228  17.257  22.776  10.657
98804W        W71229   4.505  19.016  10.685
98805W        W71230   9.706  15.085   0.087
98806W        W71231  22.440   2.929   4.825
98807W        W71232  10.373  16.237  10.798
98808W        W71233  11.173  17.507  13.839
98809W        W71234  14.228  33.893   5.196
98810W        W71235  19.581   0.841   1.701
98811W        W71236  11.119  30.063  13.889
98812W        W71237  41.577  30.379   4.127
98813W        W71238  26.223  25.061  10.608
98814W        W71239  38.970   8.766   1.538
98815W        W71240  26.473  27.613  12.911
98816W        W71241  28.346  16.567  10.747
98817W        W71242  12.841  17.672  10.704
98818W        W71243  30.367  21.654   2.472
98819W        W71244   4.911  14.720   0.691
98820W        W71245  29.552  11.768   0.388
98821W        W71246   7.117   2.930  12.618
98822W        W71247   9.870  16.710  13.505
98823W        W71248   5.443  23.997  11.439
98824W        W71249  27.717  37.226   2.756
98825W        W71250   6.094  30.537   4.433
98826W        W71251   1.866  36.450   1.680
98827W        W71252   1.319   1.929  10.662
98828W        W71253  15.932   9.217   3.948
98829W        W71254  37.648  12.093   3.728
98830W        W71255   6.264   2.397  12.816
98831W        W71256  15.527  10.861  14.812
98832W        W71257  16.175  39.585  12.629
98833W        W71258  23.928  22.068   1.855
98834W        W71259  34.493   7.231  10.973
98835W        W71260  33.660   2.801   0.705
98836W        W71261  33.352  43.288  14.300
98837W        W71262   2.430  39.613   1.816
98838W        W71263  17.035   1.279  14.786
98839W        W71264   4.966   0.355  14.914
98840W        W71265  26.198  25.280  13.002
98841W        W71266  15.137  24.804   2.225
98842W        W71267   4.353  12.653   1.901
98843W        W71268  31.250  41.641  13.911
98844W        W71269   0.925  16.390   4.108
98845W        W71270  22.146  43.999   2.201
98846W        W71271  11.940  23.298  14.685
98847W        W71272  20.714  17.677  13.297
98848W        W71273  10.255  31.453  12.600
98849W        W71274   2.254  34.943   4.507
98850W        W71275  19.646  38.493   3.617
98851W        W71276  21.212   8.698  12.985
98852W        W71277  13.400  34.123  10.711
98853W        W71278  35.075  21.064   5.077
98854W        W71279  24.425   6.747  13.343
98855W        W71280  21.840   0.485   1.775
98856W        W71281   9.105  14.873  13.560
98857W        W71282  33.959  22.508  10.628
98858W        W71283   4.764   1.024  12.506
98859W        W71284  24.702  11.798  13.471
98860W        W71285  26.941  21.905  14.981
98861W        W71286  16.244  10.345  13.836
98862W        W71287  40.532   9.589   2.807
98863W        W71288  34.142   3.494  12.939
98864W        W71289   9.692  29.607  12.242
98865W        W71290  13.125  15.916   4.373
98866W        W71291   1.653  19.132   3.969
98867W        W71292  33.780   3.492   0.237
98868W        W71293   8.408   8.802  14.868
98869W        W71294  17.143  37.793  13.558
98870W        W71295  22.394  29.001   9.783
98871W        W71296  36.394  20.290  11.620
98872W        W71297  33.247  30.568  11.481
98873W        W71298  27.420  11.019  11.118
98874W        W71299  24.951   9.725   0.732
98875W        W71300  10.263  26.546  13.386
98876W        W71301  42.682  18.549   2.116
98877W        W71302  26.356  38.643   5.269
98878W        W71303   5.304  35.547  14.554
98879W        W71304  32.858  28.918   3.714
98880W        W71305   0.847  17.769   4.234
98881W        W71306  24.961  12.621   1.444
98882W        W71307   6.841  28.654   0.188
98883W        W71308  37.479  19.667  10.284
98884W        W71309   9.922  22.507  14.798
98885W        W71310   4.795  43.112   1.360
98886W        W71311  10.466   2.233   1.605
98887W        W71312  24.524  39.066   0.185
98888W        W71313  16.103  25.712  13.469
98889W        W71314   5.693  15.599  12.693
98890W        W71315  23.642  41.571  11.714
98891W        W71316  13.654  11.856  14.021
98892W        W71317  39.491  36.805  11.973
98893W        W71318  26.589   1.320   2.757
98894W        W71319  42.240   0.353   3.165
98895W        W71320  31.984  39.023  13.203
98896W        W71321  31.483   0.668   3.403
98897W        W71322  30.099  23.277   1.716
98898W        W71323  30.541  36.862  12.870
98899W        W71324  37.437  30.989  12.951
98900W        W71325  22.491  15.683  14.917
98901W        W71326  20.749  22.760  13.518
98902W        W71327  41.280   0.864   0.521
98903W        W71328  41.894  42.831   0.213
98904W        W71329  22.534  32.993  14.973
98905W        W71330  15.095  22.552  12.579
98906W        W71331  21.519  25.035   1.833
98907W        W71332   4.283  24.295   3.220
98908W        W71333  13.927  35.084   2.701
98909W        W71334  27.543  38.968  13.028
98910W        W71335  31.084  36.333  11.651
98911W        W71336   1.795  25.192   0.389
98912W        W71337  36.956  42.277   4.198
98913W        W71338   9.433  40.881   0.947
98914W        W71339   0.986  33.581   3.105
98915W        W71340   8.865  42.733  14.917
98916W        W71341  42.603  16.551  11.407
98917W        W71342  40.777  38.876  14.344
98918W        W71343   5.639  27.619  11.006
98919W        W71344   6.320  10.139   1.158
98920W        W71345  30.201   3.355   0.023
98921W        W71346  44.512  15.772   5.078
98922W        W71347   6.909  44.836  12.924
98923W        W71348  13.522  43.988  10.690
98924W        W71349  43.987  39.667  10.664
98925W        W71350  26.963   2.273   4.694
98926W        W71351  15.168   7.213   2.869
98927W        W71352   0.343   7.065   0.474
98928W        W71353  31.030  16.824  12.431
98929W        W71354  19.607  32.583  11.484
98930W        W71355  34.284   5.213  13.982
98931W        W71356  18.382  30.656   2.327
98932W        W71357  18.788  22.193   1.025
98933W        W71358  27.520  26.124   1.894
98934W        W71359   7.698  12.631   4.222
98935W        W71360  23.242  21.518  14.354
98936W        W71361   9.714  29.417  12.963
98937W        W71362  13.264  36.100  10.091
98938W        W71363  41.917  14.654   4.763
98939W        W71364  36.206  24.574   3.803
98940W        W71365  21.200  18.345   2.223
98941W        W71366   6.842   3.964  10.402
98942W        W71367  35.272  39.501   4.771
98943W        W71368  21.755   4.871  12.933
98944W        W71369   2.273   5.314   2.791
98945W        W71370  25.472  32.338   4.589
98946W        W71371   6.581  40.805   4.078
98947W        W71372  12.651  17.989   0.918
98948W        W71373  25.976  27.549  13.089
98949W        W71374  42.897  25.321   4.533
98950W        W71375  31.997   5.881  14.049
98951W        W71376   7.402  42.033  11.724
98952W        W71377  24.178   5.716  13.901
98953W        W71378  19.062  35.300  12.070
98954W        W71379   4.807  15.141   0.972
98955W        W71380  35.310   1.564  14.462
98956W        W71381  34.059  29.172  11.018
98957W        W71382  29.240  41.471   0.745
98958W        W71383  42.971   9.011   1.875
98959W        W71384  19.156  29.926   0.240
98960W        W71385   9.075  38.015  11.531
98961W        W71386  36.093  40.765  11.278
98962W        W71387   3.576  43.915  11.252
98963W        W71388  24.587  20.669   2.718
98964W        W71389  20.801   1.614  14.356
98965W        W71390  11.731  33.921   1.084
98966W        W71391  16.279  33.688   4.222
98967W        W71392  32.619  11.676  10.205
98968W        W71393   4.569  17.287  11.602
98969W        W71394  32.120  31.626   0.555
98970W        W71395  28.495  10.349  14.790
98971W        W71396   0.236  24.470   2.360
98972W        W71397  28.646   7.013  13.339
98973W        W71398   7.322  21.176   1.821
98974W        W71399   0.735  43.742   2.122
98975W        W71400  10.242  13.636  14.801
98976W        W71401   9.289  10.374   4.092
98977W        W71402  41.475  42.154   1.715
98978W        W71403  37.451  18.043  13.460
98979W        W71404   7.893  41.821  12.576
98980W        W71405  16.330   3.121   4.116
98981W        W71406   6.237   2.681  14.385
98982W        W71407  28.060  44.333  10.660
98983W        W71408  19.065  42.110   3.703
98984W        W71409  27.123  41.416  10.678
98985W        W71410   1.067   1.268  10.906
98986W        W71411   2.912   1.774  13.434
98987W        W71412  29.590  23.732  13.309
98988W        W71413  16.605  39.285  12.331
98989W        W71414  24.601  11.317   0.400
98990W        W71415   0.175   5.605  14.803
98991W        W71416   6.020  10.931   4.169
98992W        W71417  38.547  19.679  11.260
98993W        W71418  23.445  39.520  11.986
98994W        W71419  32.373  23.314   3.861
98995W        W71420  29.745   2.514  11.089
98996W        W71421  36.993   4.011  13.860
98997W        W71422  13.394  20.458   3.630
98998W        W71423  11.254  32.675  12.660
98999W        W71424  19.859  42.883  10.476
99000W        W71425  18.142  20.313  14.040
99001W        W71426   9.651   5.654  11.135
99002W        W71427  44.218  44.720   2.741
99003W        W71428   5.778  14.269  13.965
99004W        W71429  43.410  35.574  12.511
99005W        W71430  37.325  33.182   4.821
99006W        W71431  22.736  34.986  13.937
99007W        W71432  29.921  43.311   2.894
99008W        W71433   5.681   5.477   0.277
99009W        W71434  22.473  42.992   4.056
99010W        W71435  13.580  12.274  11.524
99011W        W71436  25.663  12.047  11.547
99012W        W71437  26.593  20.333  13.748
99013W        W71438  27.438  43.228   1.412
99014W        W71439  34.812  11.931  12.127
99015W        W71440  41.567   8.240   1.461
99016W        W71441   8.785  12.391  12.461
99017W        W71442  28.450  44.860   3.667
99018W        W71443  23.143  18.532   0.015
99019W        W71444  30.056   1.280  11.898
99020W        W71445   7.993   1.227  11.104
99021W        W71446  23.297   8.441   0.315
99022W        W71447   4.393  35.434  13.979
99023W        W71448  27.706   1.900   3.486
99024W        W71449  21.995  15.728  14.951
99025W        W71450  33.814  34.958   2.343
99026W        W71451  27.059  23.464   2.382
99027W        W71452  23.329  30.023  13.410
99028W        W71453   5.733  12.240   4.045
99029W        W71454  19.812   0.017   1.983
99030W        W71455  14.515  28.028   2.215
99031W        W71456  12.784  22.993  10.582
99032W        W71457  40.270   4.848  10.834
99033W        W71458  35.896  27.483  10.690
99034W        W71459  39.046  22.709  10.645
99035W        W71460   8.435  29.521  12.633
99036W        W71461   5.210   3.416  11.156
99037W        W71462  37.633  29.045  14.056
99038W        W71463  41.896  17.108  10.396
99039W        W71464  43.244  21.517   5.599
99040W        W71465  16.041  27.173   3.147
99041W        W71466  18.113  38.391  10.635
99042W        W71467  38.487  14.676  14.096
99043W        W71468   1.204   0.841   0.031
99044W        W71469   9.508  29.048  10.662
99045W        W71470  18.511   6.142  13.519
99046W        W71471  16.659  22.081   0.789
99047W        W71472  26.510   8.468   2.376
99048W        W71473  11.006  43.768  13.124
99049W        W71474  25.899   6.834   0.722
99050W        W71475  20.645  24.458   0.987
99051W        W71476   5.479  40.551   0.775
99052W        W71477  12.219  30.356  10.745
99053W        W71478   6.706   0.414  14.911
99054W        W71479  37.906  14.833   0.788
99055W        W71480  29.931  41.731  10.435
99056W        W71481  21.970  44.942   4.015
99057W        W71482  17.579   8.672  12.406
99058W        W71483  28.832  36.658  11.958
99059W        W71484  41.074  14.707   4.134
99060W        W71485  23.644  17.223  13.833
99061W        W71486   1.333  30.649   1.520
99062W        W71487   9.590   8.244   2.413
99063W        W71488  26.981  35.924   2.677
99064W        W71489   4.904  13.395   1.640
99065W        W71490  24.481   1.809   1.003
99066W        W71491  38.844  28.262   0.457
99067W        W71492  22.201  34.100   0.546
99068W        W71493  38.389  33.693  11.568
99069W        W71494  23.958  41.541  13.363
99070W        W71495   4.220  43.841   2.087
99071W        W71496  18.275  20.079   1.110
99072W        W71497  26.115  21.567  13.647
99073W        W71498  41.897  34.430  11.124
99074W        W71499  41.580  25.509  12.947
99075W        W71500   0.460  28.179   1.154
99076W        W71501  36.734  16.537  13.895
99077W        W71502  24.517  41.509  13.428
99078W        W71503  11.216  43.382  11.116
99079W        W71504  21.195  24.686  14.319
99080W        W71505  41.518  25.528   0.231
99081W        W71506  11.352   3.301   4.898
99082W        W71507  12.761  33.188   2.710
99083W        W71508   2.258  36.435   1.338
99084W        W71509  42.543  18.563  11.023
99085W        W71510  29.386  32.090   4.156
99086W        W71511  32.342  23.608   2.150
99087W        W71512  32.544  27.998   1.696
99088W        W71513   7.234  15.244   4.581
99089W        W71514  41.232  35.035   0.444
99090W        W71515  21.110  24.829  12.326
99091W        W71516   7.194  16.561  13.446
99092W        W71517  25.551  21.000   0.758
99093W        W71518  23.286  29.196  12.527
99094W        W71519  14.049  23.489   4.223
99095W        W71520  35.372  29.586   0.022
99096W        W71521  40.514   0.316   4.517
99097W        W71522  28.376  37.980   2.414
99098W        W71523  32.861  17.435   0.177
99099W        W71524  38.752   8.392   0.548
99100W        W71525  43.839   2.288  14.816
99101W        W71526  12.651  10.807   3.235
99102W        W71527  33.821   9.171   3.156
99103W        W71528   2.375  29.737  11.904
99104W        W71529  39.445   7.628  13.757
99105W        W71530  22.637  37.684  12.515
99106W        W71531  29.762  35.894   2.270
99107W        W71532  21.551  37.924  11.666
99108W        W71533  24.169  25.177   2.793
99109W        W71534  19.561   2.003  14.805
99110W        W71535  11.359  33.044  10.545
99111W        W71536  31.512  32.405   0.944
99112W        W71537  23.897  34.596   3.124
99113W        W71538  13.369   2.974   3.456
99114W        W71539   5.864   7.610  14.794
99115W        W71540  14.886  25.342   4.331
99116W        W71541  40.268  12.167   4.122
99117W        W71542  39.759  36.038  14.488
99118W        W71543   6.754   7.359  13.718
99119W        W71544  37.050  29.662  11.908
99120W        W71545  44.322  11.465  11.170
99121W        W71546  33.214  41.984  14.841
99122W        W71547   9.450  18.436  11.535
99123W        W71548  36.832  27.503   2.417
99124W        W71549  41.117  29.675  12.843
99125W        W71550  34.438  32.450   2.324
99126W        W71551  28.032  33.037  12.747
99127W        W71552  25.293  25.420   0.692
99128W        W71553  42.361  23.653   1.264
99129W        W71554  37.605  29.546  11.992
99130W        W71555  29.031  21.866  10.514
99131W        W71556   8.278  30.662   1.557
99132W        W71557  12.721  25.116  12.221
99133W        W71558   2.412  11.799  10.789
99134W        W71559  15.156  23.540   2.431
99135W        W71560   3.750  25.154  13.002
99136W        W71561  40.305  13.118  13.778
99137W        W71562  31.436  42.405   1.572
99138W        W71563  43.165   5.705  11.991
99139W        W71564  27.596   2.583   1.359
99140W        W71565   7.894   9.406   1.274
99141W        W71566  17.550  44.560  14.863
99142W        W71567  14.478   0.874  12.545
99143W        W71568  16.114  40.376  13.056
99144W        W71569  18.359  33.502   5.476
99145W        W71570  36.820  36.448  13.126
99146W        W71571  20.440  28.930  14.660
99147W        W71572  19.303  22.310  12.486
99148W        W71573  15.596   3.042   0.094
99149W        W71574   1.191  39.430   3.311
99150W        W71575  37.714   9.953  13.687
99151W        W71576  42.567  14.676  11.982
99152W        W71577  37.635  44.369   2.809
99153W        W71578   0.171  34.638  13.850
99154W        W71579  27.574   1.442  11.684
99155W        W71580  32.440  28.063  11.241
99156W        W71581  43.860  42.565  11.099
99157W        W71582  17.048  11.872   2.771
99158W        W71583  33.532  14.660   5.016
99159W        W71584  12.245  30.295   4.481
99160W        W71585  11.192  28.512  11.099
99161W        W71586  17.794  14.511  13.809
99162W        W71587  44.725   5.731  10.516
99163W        W71588   3.998   7.606  12.470
99164W        W71589  22.268  12.694  11.388
99165W        W71590  10.637  15.254   0.334
99166W        W71591  40.357  35.243  12.086
99167W        W71592  23.972  17.772   3.747
99168W        W71593  11.364  14.365  11.042
99169W        W71594  40.842  37.771  13.502
99170W        W71595  28.710  10.151   3.011
99171W        W71596  25.528   5.791  14.813
99172W        W71597  39.060  28.085   2.400
99173W        W71598  25.243  12.420  12.391
99174W        W71599  17.173   6.823  14.518
99175W        W71600  26.015   4.375   2.847
99176W        W71601   1.696   6.353   1.678
99177W        W71602  31.948  40.330   0.745
99178W        W71603   3.001   6.633   3.030
99179W        W71604  20.778  34.881  13.531
99180W        W71605  12.709  24.502   5.121
99181W        W71606   0.386  31.690  11.422
99182W        W71607  36.012  35.515   1.885
99183W        W71608  41.185  39.536  14.627
99184W        W71609  23.225  31.396  11.708
99185W        W71610   8.789   3.324  12.131
99186W        W71611  15.721  21.725  12.599
99187W        W71612   1.761  14.698  13.414
99188W        W71613  23.275  29.951   4.803
99189W        W71614   2.276   9.595  12.084
99190W        W71615   4.969  22.622  13.610
99191W        W71616   5.343  38.023   3.013
99192W        W71617  33.347   9.063  13.558
99193W        W71618  10.645  16.816   1.307
99194W        W71619  18.015  10.790  13.324
99195W        W71620   4.956  44.804   0.769
99196W        W71621  41.493  15.708  12.659
99197W        W71622  20.511  15.022   2.793
99198W        W71623  29.662  43.976  12.943
99199W        W71624  16.224   6.011   3.848
99200W        W71625  37.581  43.372   1.833
99201W        W71626  12.033  20.079   2.726
99202W        W71627  20.306  40.024  13.037
99203W        W71628  24.031  27.982   1.019
99204W        W71629  14.977   6.335   4.579
99205W        W71630  19.275  31.050   0.820
99206W        W71631  12.821  39.518   4.650
99207W        W71632   7.615  12.168   4.559
99208W        W71633  19.313  32.067   3.830
99209W        W71634  44.345  18.241   1.799
99210W        W71635  34.666  41.725   0.352
99211W        W71636  20.652  21.593   2.645
99212W        W71637  15.116  34.427   3.767
99213W        W71638   1.829  22.682   1.160
99214W        W71639  32.597  41.477   1.327
99215W        W71640  22.720  33.599  13.936
99216W        W71641  39.036  10.852   5.064
99217W        W71642  11.559   2.563   2.826
99218W        W71643  36.667  33.468  11.545
99219W        W71644  10.817   0.256   3.354
99220W        W71645  40.279   4.837   4.192
99221W        W71646  17.488   9.725  10.528
99222W        W71647   7.480  29.689  14.788
99223W        W71648   9.253  44.834   0.960
99224W        W71649  32.046  13.166   2.588
99225W        W71650  16.530  11.749  13.636
99226W        W71651  12.154  21.660  12.430
99227W        W71652  41.258   2.303   3.992
99228W        W71653  35.115  28.940  13.083
99229W        W71654   4.696  36.036  11.345
99230W        W71655   1.960  26.508  14.819
99231W        W71656   0.826  38.130   2.843
99232W        W71657  33.887   0.302  12.835
99233W        W71658  13.335  34.355   2.373
99234W        W71659  39.179   7.445   5.069
99235W        W71660  28.777  27.485  14.398
99236W        W71661  41.307   3.977   4.141
99237W        W71662  43.862  39.052   1.867
99238W        W71663  13.093  35.453   3.140
99239W        W71664  43.926  29.942  14.799
99240W        W71665  34.188  37.823  13.927
99241W        W71666  10.090  15.330   3.336
99242W        W71667   3.445   5.684   0.841
99243W        W71668  41.777  21.990   4.076
99244W        W71669  30.375  10.987  12.119
99245W        W71670  44.263  32.244  10.295
99246W        W71671  11.179  23.604   2.199
99247W        W71672   8.657   7.176   3.683
99248W        W71673  27.230  41.428  13.069
99249W        W71674   0.269   6.874  10.722
99250W        W71675  22.607   2.461   1.225
99251W        W71676  37.430  41.586  13.567
99252W        W71677  32.137  43.265  14.580
99253W        W71678   6.995  42.300  12.017
99254W        W71679  11.906  28.575   3.312
99255W        W71680  17.716  35.366  14.745
99256W        W71681  41.782  18.695   1.234
99257W        W71682  10.380   4.717  10.960
99258W        W71683  38.611  34.557   1.813
99259W        W71684   8.227  23.930  11.670
99260W        W71685   2.293  14.170  13.707
99261W        W71686   0.870   2.918  13.071
99262W        W71687  39.657  39.900  12.537
99263W        W71688  10.350   1.984   2.164
99264W        W71689  23.601   8.809   1.296
99265W        W71690  31.445  34.626   4.491
99266W        W71691  11.259   2.390  10.590
99267W        W71692  20.225   0.944  11.176
99268W        W71693   6.474  29.225   0.941
99269W        W71694  36.903  21.968  12.642
99270W        W71695  27.450  36.486   3.827
99271W        W71696  40.014  29.332   2.335
99272W        W71697  34.718   0.825  12.872
99273W        W71698  15.261  15.753  10.947
99274W        W71699   1.368  23.184  13.584
99275W        W71700  40.219  37.346  10.760
99276W        W71701  16.291  23.971   3.364
99277W        W71702   2.860  34.086   1.218
99278W        W71703  29.186  21.058   0.779
99279W        W71704  39.915  28.089  11.599
99280W        W71705  10.643  41.592   0.312
99281W        W71706  32.392  37.479   0.341
99282W        W71707  25.498  31.971   4.244
99283W        W71708   4.068  16.373  13.010
99284W        W71709   4.779   2.740  14.872
99285W        W71710  27.694  30.559  10.138
99286W        W71711  32.152  32.607   4.611
99287W        W71712   1.348  41.878   2.707
99288W        W71713  13.703  19.273  11.585
99289W        W71714   3.287  20.616   2.681
99290W        W71715  31.291  40.715  12.311
99291W        W71716  26.818  27.032  14.023
99292W        W71717  26.971  12.027  10.683
99293W        W71718  18.815  15.619   3.044
99294W        W71719  16.685  14.364   4.327
99295W        W71720  17.196  35.383   3.251
99296W        W71721  40.056   0.688   2.812
99297W        W71722  14.421   4.425  10.573
99298W        W71723   1.976   3.784   1.588
99299W        W71724  17.090   1.785   9.956
99300W        W71725   5.747   1.424  13.492
99301W        W71726  22.100  15.000   3.654
99302W        W71727   1.283  14.063  12.049
99303W        W71728  30.624  16.546  11.659
99304W        W71729  43.205  30.285  11.542
99305W        W71730  21.616  35.407   2.699
99306W        W71731  38.721   8.120   3.722
99307W        W71732   6.904  39.408   1.209
99308W        W71733  12.809  18.246  11.364
99309W        W71734  37.938  14.354  11.971
99310W        W71735  39.843   9.455  12.952
99311W        W71736  42.863  10.898  12.512
99312W        W71737  44.253  41.254  14.382
99313W        W71738   8.589  22.998  11.183
99314W        W71739   6.571   7.841  13.597
99315W        W71740   4.184  12.135  14.417
99316W        W71741  23.231  37.510  11.050
99317W        W71742  16.094   2.644   4.154
99318W        W71743  39.994  15.165   0.268
99319W        W71744  35.976  10.333   3.206
99320W        W71745  11.621  44.717  13.007
99321W        W71746  22.010  36.307  10.753
99322W        W71747  41.068  37.582  13.045
99323W        W71748   1.302  29.908  12.389
99324W        W71749  37.538  35.415   1.800
99325W        W71750  17.160  15.325  11.967
99326W        W71751   2.442  12.877   3.257
99327W        W71752  24.076  24.889   0.924
99328W        W71753  30.772  40.290   1.154
99329W        W71754  12.325   8.086  10.642
99330W        W71755  37.447  22.640   0.094
99331W        W71756  11.826   1.966   1.574
99332W        W71757   3.205   0.532   0.943
99333W        W71758   2.305   5.282   4.981
99334W        W71759  12.633   0.069   4.617
99335W        W71760  26.830  34.015  11.165
99336W        W71761  12.695  20.054  10.643
99337W        W71762  16.665  14.803   0.001
99338W        W71763  17.730   7.784   3.123
99339W        W71764  40.502  26.481  11.963
99340W        W71765  23.538  39.875   4.562
99341W        W71766  30.546  37.953   4.650
99342W        W71767   7.857  43.262  13.130
99343W        W71768   5.408  18.466  14.026
99344W        W71769  34.959   4.638  14.898
99345W        W71770  19.812   3.504  12.903
99346W        W71771   4.490  42.925   3.768
99347W        W71772   5.447  14.224   2.242
99348W        W71773   7.280   4.947   0.935
99349W        W71774  15.108  10.884  13.428
99350W        W71775  10.779  34.508  11.460
99351W        W71776  11.331  33.875  14.822
99352W        W71777  33.966   3.176   3.306
99353W        W71778  35.449   3.256   4.715
99354W        W71779  11.292   0.723  14.195
99355W        W71780  31.794  14.159  12.495
99356W        W71781  36.897  28.044   3.174
99357W        W71782  22.636  22.107  12.136
99358W        W71783  30.944  17.561  12.037
99359W        W71784  30.383   5.742   0.765
99360W        W71785   1.963  44.816   0.355
99361W        W71786  11.695  10.189   1.451
99362W        W71787  33.021  17.538  10.723
99363W        W71788  29.409  27.600  10.858
99364W        W71789  16.073  43.039   3.256
99365W        W71790   1.937  23.967  14.753
99366W        W71791  12.184  21.763   0.514
99367W        W71792   2.457   4.901   3.597
99368W        W71793  11.380  19.603   0.304
99369W        W71794  28.053  27.234  10.986
99370W        W71795  24.101  44.732  11.882
99371W        W71796  41.226   3.855  14.454
99372W        W71797  44.798  14.021   3.297
99373W        W71798  26.692  17.198  10.113
99374W        W71799  40.892   0.919   3.245
99375W        W71800   6.335  27.563   1.358
99376W        W71801  34.310   3.448   1.310
99377W        W71802  28.853  38.824  13.536
99378W        W71803  21.035  28.078   4.139
99379W        W71804  19.638  33.176  11.115
99380W        W71805  34.676   6.308   0.789
99381W        W71806  21.366  14.315   2.688
99382W        W71807  11.849  14.023  11.072
99383W        W71808  18.607  42.523  10.416
99384W        W71809  42.771  10.067   4.889
99385W        W71810  43.495   2.891  11.253
99386W        W71811   1.322   4.942  13.586
99387W        W71812  31.603  38.607   4.342
99388W        W71813  32.628  36.873  11.212
99389W        W71814   9.452  33.021  13.431
99390W        W71815  43.908  14.258  12.977
99391W        W71816  17.233  29.600   4.328
99392W        W71817   2.659  18.854  12.695
99393W        W71818  17.308  17.082   2.740
99394W        W71819  10.916  13.225   3.236
99395W        W71820  30.909   4.439  13.209
99396W        W71821  25.315  40.050   0.714
99397W        W71822  40.814  30.230   4.496
99398W        W71823   6.836  33.367   3.104
99399W        W71824  21.361  35.198  10.970
99400W        W71825   4.474  33.228   2.257
99401W        W71826   6.953   9.269   4.958
99402W        W71827  36.073  18.086  10.189
99403W        W71828   2.753   5.206   4.702
99404W        W71829  37.680  35.241  13.020
99405W        W71830  22.009   1.101  12.489
99406W        W71831  44.970  32.235  12.972
99407W        W71832  22.531   4.403  12.941
99408W        W71833  38.944  36.969   0.734
99409W        W71834  24.616  30.858  13.775
99410W        W71835   2.765   4.142  11.922
99411W        W71836  16.518  43.412  11.440
99412W        W71837   4.716  31.890   4.580
99413W        W71838  39.676  15.249  13.778
99414W        W71839   7.221   8.211  10.526
99415W        W71840   6.892   2.270  14.469
99416W        W71841  29.571  40.499  10.286
99417W        W71842  30.366   4.750   4.664
99418W        W71843  25.438  36.881  13.894
99419W        W71844  19.885  35.266   0.868
99420W        W71845   7.183  41.905   1.368
99421W        W71846  37.883  25.976  14.427
99422W        W71847  38.301  27.075   3.286
99423W        W71848  22.486  23.221   4.698
99424W        W71849  27.276  41.949   4.598
99425W        W71850  16.310  41.331  11.592
99426W        W71851  37.698  36.525   3.732
99427W        W71852  35.354  42.970   0.908
99428W        W71853   5.662  31.137   1.785
99429W        W71854  18.590  26.154  12.023
99430W        W71855  19.799  22.668   4.161
99431W        W71856  13.946  38.405  12.880
99432W        W71857  16.286  17.946   4.941
99433W        W71858  17.715  36.832   0.940
99434W        W71859   0.493  43.913   2.572
99435W        W71860  27.264  40.858  10.419
99436W        W71861   9.627  44.074  10.376
99437W        W71862   8.995  43.032  11.002
99438W        W71863  39.416   9.229   4.111
99439W        W71864   9.304  27.318  12.589
99440W        W71865  42.358  40.846  10.821
99441W        W71866   0.673  11.717   3.617
99442W        W71867  30.940  13.427   0.876
99443W        W71868  36.513  18.051  12.413
99444W        W71869  36.954  20.036  12.517
99445W        W71870  17.046   0.532  14.083
99446W        W71871  23.569  30.808   3.701
99447W        W71872  31.966  32.359   4.191
99448W        W71873  43.873  28.932   1.887
99449W        W71874  37.033  17.058   4.058
99450W        W71875   4.437  35.417   0.803
99451W        W71876  14.953  23.693   1.215
99452W        W71877  12.137   0.516  14.774
99453W        W71878  37.050   7.294  11.913
99454W        W71879  14.282   5.803   1.496
99455W        W71880  21.678  34.854   2.729
99456W        W71881  32.972  30.612   1.629
99457W        W71882   0.272  18.468  12.486
99458W        W71883  22.115   2.739   1.469
99459W        W71884  40.305   9.261  12.071
99460W        W71885   1.717  18.707  13.344
99461W        W71886   2.659  34.558  13.577
99462W        W71887  19.278  31.043  10.766
99463W        W71888  20.698  12.696   3.557
99464W        W71889  38.755   8.856  12.980
99465W        W71890  38.252   0.996  11.052
99466W        W71891  43.399  15.269   4.578
99467W        W71892  37.534  14.282   0.800
99468W        W71893  38.216  10.647   0.260
99469W        W71894  36.669  30.173  14.063
99470W        W71895  37.070  17.907  12.679
99471W        W71896   7.811  10.618   1.937
99472W        W71897  35.923  22.159   4.791
99473W        W71898   1.394  17.663   0.341
99474W        W71899  29.182  33.489   2.935
99475W        W71900   3.359  39.407  13.474
99476W        W71901  19.826  11.605   2.199
99477W        W71902  43.184  10.350   1.031
99478W        W71903  20.079  22.869   0.684
99479W        W71904   5.702  11.933   0.891
99480W        W71905  30.579  35.356   0.747
99481W        W71906  36.043  22.609   2.335
99482W        W71907   3.362   2.442  13.322
99483W        W71908  39.633   3.849   2.871
99484W        W71909  21.033  15.305   4.667
99485W        W71910  15.592  18.574   0.944
99486W        W71911  28.596  11.383  14.990
99487W        W71912  33.307   2.668  12.531
99488W        W71913  34.438  15.381  12.118
99489W        W71914  24.245  33.934  13.352
99490W        W71915  13.914  21.327   4.950
99491W        W71916   2.425  18.967  11.134
99492W        W71917  28.924   8.386   1.406
99493W        W71918  39.558  27.173   0.755
99494W        W71919  14.279  32.492  14.812
99495W        W71920   2.766   9.894   2.155
99496W        W71921  35.950  30.068  13.855
99497W        W71922  33.675  19.264  14.052
99498W        W71923  41.909  33.787   4.967
99499W        W71924  25.846   8.332   1.203
99500W        W71925  27.909  13.865  10.861
99501W        W71926   7.535  27.543   3.260
99502W        W71927  16.495   7.631   0.041
99503W        W71928  43.576  33.933   1.765
99504W        W71929  30.047   5.079  14.471
99505W        W71930  44.953  23.932   2.664
99506W        W71931  31.126   5.340   4.082
99507W        W71932  35.095  18.660   0.823
99508W        W71933  34.539  44.192   4.602
99509W        W71934  19.866  10.228   2.883
99510W        W71935  30.187   6.176   3.805
99511W        W71936  39.151  42.329   3.276
99512W        W71937  39.952  24.484   4.444
99513W        W71938  43.865  43.852   0.928
99514W        W71939  42.393  16.462  14.553
99515W        W71940  14.359  39.852  12.960
99516W        W71941   8.193   4.263   2.385
99517W        W71942  36.402   3.788   1.762
99518W        W71943  21.288  42.643   3.780
99519W        W71944   0.429  20.390  14.510
99520W        W71945  23.519  18.697   0.370
99521W        W71946  33.650  12.091   0.417
99522W        W71947  24.633  17.062  10.533
99523W        W71948  20.161  19.598   2.687
99524W        W71949  28.390  41.071   1.484
99525W        W71950  43.055   9.793   3.182
99526W        W71951  19.231  17.165  14.908
99527W        W71952  42.975   5.287  10.739
99528W        W71953  19.834   7.772   1.937
99529W        W71954  33.161  25.538   4.282
99530W        W71955  32.147   9.230  10.717
99531W        W71956   7.471  33.254   2.141
99532W        W71957  37.069   1.500   3.422
99533W        W71958  26.916   5.237   0.306
99534W        W71959  11.222  32.830   2.979
99535W        W71960  26.413  29.238   2.683
99536W        W71961  36.690  22.883   3.329
99537W        W71962   5.872  26.520  12.981
99538W        W71963  13.538  22.518  13.273
99539W        W71964  17.713  38.709  14.509
99540W        W71965   1.736  10.081  14.218
99541W        W71966  31.051  40.510   2.064
99542W        W71967   0.341  38.412  13.061
99543W        W71968   6.484   7.734  12.620
99544W        W71969   4.510  30.026   3.777
99545W        W71970   4.896   4.099  13.918
99546W        W71971  22.414  18.695   4.384
99547W        W71972  16.847  11.566  14.005
99548W        W71973   3.374  16.678  11.845
99549W        W71974   6.729  43.950   0.655
99550W        W71975  15.876   3.318  13.813
99551W        W71976  29.184  42.069   2.489
99552W        W71977  10.724  42.456  14.397
99553W        W71978   6.241  34.540  11.011
99554W        W71979  14.757   2.126  13.479
99555W        W71980   2.304   6.294   5.049
99556W        W71981   7.409  10.704  14.921
99557W        W71982  18.490  36.042  12.410
99558W        W71983   5.800   2.762  12.268
99559W        W71984  37.624   5.903   0.318
99560W        W71985  22.687   9.093   0.729
99561W        W71986   0.781  24.722  12.035
99562W        W71987  23.987  36.970   2.031
99563W        W71988  17.003  10.282  10.014
99564W        W71989  30.751   4.205  12.506
99565W        W71990  23.363   4.784   3.430
99566W        W71991  17.705   7.931  13.410
99567W        W71992  32.196  30.026  14.338
99568W        W71993   5.509  42.873  12.479
99569W        W71994  42.020  19.321   4.576
99570W        W71995   0.201   4.754   0.012
99571W        W71996   4.779  13.375  11.783
99572W        W71997  27.181  19.879  12.823
99573W        W71998  36.025  40.919   1.290
99574W        W71999  39.558  25.499   1.749
99575W        W72000  24.685  18.261  11.475
99576W        W72001  34.108  30.910  13.127
99577W        W72002  10.058  33.195  14.935
99578W        W72003   6.335  39.079   4.199
99579W        W72004  12.370  26.561  10.025
99580W        W72005  35.423  38.466   0.288
99581W        W72006  38.133   3.953   3.618
99582W        W72007   4.315   6.822   2.273
99583W        W72008  26.755  12.116   2.760
99584W        W72009  43.416  18.612   2.066
99585W        W72010   5.127  19.224  13.583
99586W        W72011  20.762  21.741  10.494
99587W        W72012  14.724  14.399   0.359
99588W        W72013  20.756  27.074   0.480
99589W        W72014  22.659   1.542   2.211
99590W        W72015   0.398  17.750   4.543
99591W        W72016  17.183   9.725   2.340
99592W        W72017  20.242  27.613  13.376
99593W        W72018  20.826  41.805   2.657
99594W        W72019   1.750   6.287  13.691
99595W        W72020  24.163  40.419  12.992
99596W        W72021  24.077  33.410  14.469
99597W        W72022  35.380  32.973  14.873
99598W        W72023  20.533  38.808   3.198
99599W        W72024  30.949  41.399   0.424
99600W        W72025  25.498   9.225   1.317
99601W        W72026  10.669   4.097   1.872
99602W        W72027  29.500  23.960   9.736
99603W        W72028   6.449  43.343   1.658
99604W        W72029  30.456  25.355  11.616
99605W        W72030  15.530   4.353  10.390
99606W        W72031   8.225  33.858   2.309
99607W        W72032  27.484  16.666  12.864
99608W        W72033  11.962  17.614   4.517
99609W        W72034  41.759  25.688   3.406
99610W        W72035  11.290  33.572  13.976
99611W        W72036  21.666  11.371   2.052
99612W        W72037   9.552  29.408   0.730
99613W        W72038   8.434   8.338  13.374
99614W        W72039  17.574  19.260   0.469
99615W        W72040  27.175  13.357  12.993
99616W        W72041  39.448  37.113   4.553
99617W        W72042   0.422   3.998   1.147
99618W        W72043  42.514   4.775  14.434
99619W        W72044  19.498  27.072  13.843
99620W        W72045  28.577   1.847   0.830
99621W        W72046  25.048  35.067   1.458
99622W        W72047  39.910  20.061  12.159
99623W        W72048  26.063   6.777   3.199
99624W        W72049  12.295  17.225  10.650
99625W        W72050   6.161  22.706  14.871
99626W        W72051  33.543  15.269   0.751
99627W        W72052   5.651   9.160  11.488
99628W        W72053  20.280  12.523   4.228
99629W        W72054  34.435  40.114   2.368
99630W        W72055  11.059  16.494   1.254
99631W        W72056  15.360  12.324   4.727
99632W        W72057   9.244  18.419   4.258
99633W        W72058  19.109  19.716  13.024
99634W        W72059  11.906  25.235   4.048
99635W        W72060  22.042  25.155  13.777
99636W        W72061  33.198  20.673  11.682
99637W        W72062   9.931  29.377  11.848
99638W        W72063  13.128   4.188  14.412
99639W        W72064   8.683  25.607   3.049
99640W        W72065  30.034  31.615   3.621
99641W        W72066  19.116  10.243  11.225
99642W        W72067  42.967  25.965   2.228
99643W        W72068   3.442  19.760  11.958
99644W        W72069   2.485  43.750   0.489
99645W        W72070  33.825  41.435   0.243
99646W        W72071  25.661  11.209   4.103
99647W        W72072  19.672  31.953   1.390
99648W        W72073  10.603  17.045   1.779
99649W        W72074  30.232   9.633  12.048
99650W        W72075  37.941  14.456   5.213
99651W        W72076  33.651  17.072  11.435
99652W        W72077  17.869  13.145  13.306
99653W        W72078   5.752  29.873  14.368
99654W        W72079  18.550  10.763   2.841
99655W        W72080   3.831  23.958   1.953
99656W        W72081   9.813  36.016   0.851
99657W        W72082   0.844  23.445  11.922
99658W        W72083  42.926  38.897   4.684
99659W        W72084  36.497  13.308  14.752
99660W        W72085   5.213  11.156  12.424
99661W        W72086  16.016  15.844  11.076
99662W        W72087   3.367  37.351  10.706
99663W        W72088   0.348  31.505  10.406
99664W        W72089  29.212  32.048   1.420
99665W        W72090  40.449  43.842   0.481
99666W        W72091  12.076  36.193   4.769
99667W        W72092  22.129  43.214   4.760
99668W        W72093  41.841  21.480   3.129
99669W        W72094  44.136  22.100   4.916
99670W        W72095  25.969  20.128  14.599
99671W        W72096   7.245   4.881   2.467
99672W        W72097   2.649   5.292  12.816
99673W        W72098   0.720  17.758   1.773
99674W        W72099   6.287  41.538   1.695
99675W        W72100   8.139  12.880   4.343
99676W        W72101  28.562  44.478   1.737
99677W        W72102   5.881   1.516   1.335
99678W        W72103  40.285   1.971   3.191
99679W        W72104   0.982  37.076  11.235
99680W        W72105  13.552  44.882  12.996
99681W        W72106  21.385   2.239   1.660
99682W        W72107  32.316  23.135  13.529
99683W        W72108   9.421  21.682  12.377
99684W        W72109  11.695  28.392   2.897
99685W        W72110   7.560  31.027  11.451
99686W        W72111   6.920  28.673  13.316
99687W        W72112   3.954   7.413   0.828
99688W        W72113  11.242  14.565  14.978
99689W        W72114   5.201  13.311  10.820
99690W        W72115  19.348   3.657   0.018
99691W        W72116  42.006  29.165   0.449
99692W        W72117  34.845  27.990  12.041
99693W        W72118  26.435  36.719  12.515
99694W        W72119  33.940  44.401  10.943
99695W        W72120  43.769  13.103  13.546
99696W        W72121  31.606  17.669  12.455
99697W        W72122  25.543  25.266  11.641
99698W        W72123  39.418  15.959   5.010
99699W        W72124  37.365  41.460   2.840
99700W        W72125  16.688  13.785  11.428
99701W        W72126  24.662  34.915   1.817
99702W        W72127   5.311  15.505  13.486
99703W        W72128  12.475  20.240   3.642
99704W        W72129  33.619  26.586   2.948
99705W        W72130   9.248  30.579   1.727
99706W        W72131  41.625  14.656  12.836
99707W        W72132  34.836  10.238  12.842
99708W        W72133  40.821   1.446   0.573
99709W        W72134   5.722  31.585  14.531
99710W        W72135  15.550  24.398   1.427
99711W        W72136  27.096  10.195  11.273
99712W        W72137   7.377   7.814  13.982
99713W        W72138  24.208  27.179  10.877
99714W        W72139  37.598  10.369   1.858
99715W        W72140  30.592  29.640   1.903
99716W        W72141  36.340  42.788   3.914
99717W        W72142  18.925  27.033   0.786
99718W        W72143  12.720   9.205   4.680
99719W        W72144  10.148  20.140   3.379
99720W        W72145  41.854  29.543   2.276
99721W        W72146  21.676  20.636   2.562
99722W        W72147  17.651  17.785  13.496
99723W        W72148   9.277  30.034   4.337
99724W        W72149  38.750  24.640   4.171
99725W        W72150  37.819  12.670  11.613
99726W        W72151  37.801   7.026   9.760
99727W        W72152  22.195   1.642   3.241
99728W        W72153  21.943  33.821  14.768
99729W        W72154  11.590   2.841   1.256
99730W        W72155  27.423  38.532   2.260
99731W        W72156  21.793  16.710  11.074
99732W        W72157  13.744  20.098  12.137
99733W        W72158  20.132  42.895  12.169
99734W        W72159  14.403   5.381  14.808
99735W        W72160  41.527  21.609  13.774
99736W        W72161  41.010  27.066  13.024
99737W        W72162  42.229  25.542   1.308
99738W        W72163  25.636  42.733  13.845
99739W        W72164  24.077  19.790   3.030
99740W        W72165   7.866  31.342  13.016
99741W        W72166  42.997   4.965  14.456
99742W        W72167  44.322  12.400   0.973
99743W        W72168  38.784  41.447   3.790
99744W        W72169   2.993  25.616   1.118
99745W        W72170  14.338  27.140   1.290
99746W        W72171  13.228  11.046  12.375
99747W        W72172  24.064  40.906  14.967
99748W        W72173  31.291  18.445   3.563
99749W        W72174  15.601  44.327   5.055
99750W        W72175   9.048  38.248  12.352
99751W        W72176  31.948  38.102   1.179
99752W        W72177  31.615  39.549  10.009
99753W        W72178   7.420   7.680   4.108
99754W        W72179   8.166  16.627   4.205
99755W        W72180  23.514  30.940  10.600
99756W        W72181  10.607  35.797  14.453
99757W        W72182  39.468  42.924  11.851
99758W        W72183  29.168  43.067  13.485
99759W        W72184  28.193  40.909   3.181
99760W        W72185  17.780  23.513  12.514
99761W        W72186  12.652  26.201   2.885
99762W        W72187  11.536   0.060   1.243
99763W        W72188  44.795  34.540   2.086
99764W        W72189  44.389  28.715   0.203
99765W        W72190   1.395  41.591   3.157
99766W        W72191   9.588  22.914  14.668
99767W        W72192  13.322  18.591   0.405
99768W        W72193   1.363  33.888  13.273
99769W        W72194   0.326   4.850   3.339
99770W        W72195   6.263  27.678   3.863
99771W        W72196  37.034  38.911   1.435
99772W        W72197  17.279   7.163  11.979
99773W        W72198   1.512  38.968   3.648
99774W        W72199  42.895  17.544  12.494
99775W        W72200  10.221  15.829  11.185
99776W        W72201  33.096  18.523   0.422
99777W        W72202  18.233  28.002  11.082
99778W        W72203  15.384  18.572  11.110
99779W        W72204  37.716  22.684  13.067
99780W        W72205  10.481  21.131   5.090
99781W        W72206  22.613  26.438   4.820
99782W        W72207  42.978  36.542   2.244
99783W        W72208  27.342   7.860  14.565
99784W        W72209  24.248   9.824  10.303
99785W        W72210  20.265   6.313   1.235
99786W        W72211  43.912  28.600  11.900
99787W        W72212  42.834   6.763   2.380
99788W        W72213  19.566  37.780  12.357
99789W        W72214  32.554  27.064  14.888
99790W        W72215  12.776  12.434   1.857
99791W        W72216  19.046  38.861   3.117
99792W        W72217  23.652  28.455  13.426
99793W        W72218  43.418  41.474  14.460
99794W        W72219  22.931  32.975   1.765
99795W        W72220  44.803   9.263  11.574
99796W        W72221   5.180  37.630   1.417
99797W        W72222  32.960  10.616  14.811
99798W        W72223  22.700  38.503  14.330
99799W        W72224  25.147   4.433  14.623
99800W        W72225  16.678  33.615  14.768
99801W        W72226  26.123  32.457  13.024
99802W        W72227  21.630  43.327   1.483
99803W        W72228  39.470  14.877  14.063
99804W        W72229  37.472  38.784  11.425
99805W        W72230  40.821  17.714   2.372
99806W        W72231  31.029  41.991  13.493
99807W        W72232  12.147   9.591  14.340
99808W        W72233  12.725  35.804   0.002
99809W        W72234  23.818  11.593  11.122
99810W        W72235  19.185  10.621   1.822
99811W        W72236  11.401   3.539  14.926
99812W        W72237  20.604  28.470   0.326
99813W        W72238  40.937   6.718   3.175
99814W        W72239  40.324  21.914  12.912
99815W        W72240  35.512  22.028  12.109
99816W        W72241  29.458   8.174   2.176
99817W        W72242  34.916   0.255  11.108
99818W        W72243  10.311  19.511  12.555
99819W        W72244  32.609  11.124   1.600
99820W        W72245  34.957   8.143   4.282
99821W        W72246   9.220  24.444   1.049
99822W        W72247  44.645  41.460   2.783
99823W        W72248  22.663  41.324  14.845
99824W        W72249  22.453  42.852   3.163
99825W        W72250  14.287  29.480  11.108
99826W        W72251   0.805  41.475  13.644
99827W        W72252  40.745   0.317  12.059
99828W        W72253  40.157  34.736   1.301
99829W        W72254  42.483  32.854  10.870
99830W        W72255  22.271  42.268   3.594
99831W        W72256   5.459  26.738  11.382
99832W        W72257  30.547  12.882  12.977
99833W        W72258  40.246  34.586  13.480
99834W        W72259  12.818  36.887  13.622
99835W        W72260  22.792  33.629   4.414
99836W        W72261  20.125  11.589   3.852
99837W        W72262  20.536  36.868   1.431
99838W        W72263   3.399  33.105   4.321
99839W        W72264  29.265   7.899  14.228
99840W        W72265  30.664   4.831  11.062
99841W        W72266  44.884  21.273  14.392
99842W        W72267  32.136   9.840   0.056
99843W        W72268  18.014  16.718  14.936
99844W        W72269  24.208  25.019  14.318
99845W        W72270  18.170  19.750   3.821
99846W        W72271  38.126  43.695  11.052
99847W        W72272  25.305  21.543   4.533
99848W        W72273  32.714   7.765   4.738
99849W        W72274  44.212  23.240  14.428
99850W        W72275  17.070  44.963  10.501
99851W        W72276  14.690  16.045   3.316
99852W        W72277  31.567  44.308  14.425
99853W        W72278  23.995   1.872  10.711
99854W        W72279  37.710  18.255   0.968
99855W        W72280  17.639  13.442  11.887
99856W        W72281  42.326  29.017  11.577
99857W        W72282  34.450   9.236  14.123
99858W        W72283  14.386  42.975   4.281
99859W        W72284  33.568  10.718   2.222
99860W        W72285  26.788  39.795  12.277
99861W        W72286  27.650  19.747   0.939
99862W        W72287  36.042   6.885  14.406
99863W        W72288  39.248  13.389  14.258
99864W        W72289  16.229  15.827   3.306
99865W        W72290  27.906   1.951  12.122
99866W        W72291   0.764   6.829   3.671
99867W        W72292  16.235  13.874  10.724
99868W        W72293   1.287  10.876  12.490
99869W        W72294   9.502  29.599   0.247
99870W        W72295  30.204  19.628   1.163
99871W        W72296  42.647   5.452   1.763
99872W        W72297  41.799  12.787   1.788
99873W        W72298  30.476  12.745  14.935
99874W        W72299  34.747  19.854   2.078
99875W        W72300  24.447  41.503   1.940
99876W        W72301  42.579  30.476   4.179
99877W        W72302  13.919   0.241   9.641
99878W        W72303  26.717  18.084  10.712
99879W        W72304  40.764  15.337   3.768
99880W        W72305   5.691  26.662  13.838
99881W        W72306  21.369  26.625  10.428
99882W        W72307  20.396  39.064  13.139
99883W        W72308  11.913   7.432   5.206
99884W        W72309  16.667  37.529   0.253
99885W        W72310  44.792  27.230  13.021
99886W        W72311  28.229  14.037   4.907
99887W        W72312   3.208  31.224   0.416
99888W        W72313  32.641  42.297   0.287
99889W        W72314  14.710   9.146  12.062
99890W        W72315  38.463  38.873   2.661
99891W        W72316  22.802  24.590   4.684
99892W        W72317  14.669   2.720   2.895
99893W        W72318  30.479  31.916  12.903
99894W        W72319  15.015  27.591  13.669
99895W        W72320  24.630  12.407  14.071
99896W        W72321  16.595   7.950   0.449
99897W        W72322  29.162  34.731  13.905
99898W        W72323   5.682   7.276   2.325
99899W        W72324  23.139  12.131   4.184
99900W        W72325  28.594  14.074  13.498
99901W        W72326  36.791  16.373  14.445
99902W        W72327  40.274  11.850   3.183
99903W        W72328  35.313  28.556  14.482
99904W        W72329  33.386   9.192  10.348
99905W        W72330  36.410  28.854   0.491
99906W        W72331  19.184  41.363   0.266
99907W        W72332  28.594  17.440   2.708
99908W        W72333  35.490  30.087  14.506
99909W        W72334  35.433  11.391   2.776
99910W        W72335  25.485  41.790   3.193
99911W        W72336  10.497  36.979   3.849
99912W        W72337  35.224  44.750   3.567
99913W        W72338  29.624  42.310  14.306
99914W        W72339  42.421  26.406   4.316
99915W        W72340  16.322  32.884   0.566
99916W        W72341  21.615  40.557  12.148
99917W        W72342   4.768  20.123  13.484
99918W        W72343  24.962  17.343   0.993
99919W        W72344  31.121  35.035   2.232
99920W        W72345  27.968   1.023  11.869
99921W        W72346  27.352  24.818   2.217
99922W        W72347  26.260  19.565  11.195
99923W        W72348  34.123   3.377  10.488
99924W        W72349  14.052  35.899   1.055
99925W        W72350  15.134   8.297   2.192
99926W        W72351  13.247  37.875  12.828
99927W        W72352  35.617  41.887   1.497
99928W        W72353  10.813  43.311  12.417
99929W        W72354  11.135  23.969   2.551
99930W        W72355  23.213  13.389  12.524
99931W        W72356  24.795  35.577  14.035
99932W        W72357  26.763  13.066  12.126
99933W        W72358   1.927  24.202  12.015
99934W        W72359  12.389  34.485   1.234
99935W        W72360  15.555  36.785  12.445
99936W        W72361  18.059  29.169   2.407
99937W        W72362  18.102  27.461   4.276
99938W        W72363  34.297  31.399  14.834
99939W        W72364  43.330  21.468  13.054
99940W        W72365  35.815   7.339   3.857
99941W        W72366  10.656  14.613  12.516
99942W        W72367  31.235  21.151  13.016
99943W        W72368   0.568   7.841   2.630
99944W        W72369  20.630  19.524   4.104
99945W        W72370  44.876  16.229   4.986
99946W        W72371  42.334  40.539  14.289
99947W        W72372  31.533  25.036  12.967
99948W        W72373  34.765  37.151   3.217
99949W        W72374   0.579   4.224  10.710
99950W        W72375   9.783  40.510   3.899
99951W        W72376  30.612  35.307   2.347
99952W        W72377   8.384  39.792   3.205
99953W        W72378   0.018   8.103  12.519
99954W        W72379  43.389  20.757   2.851
99955W        W72380  22.731  11.571   4.576
99956W        W72381   1.447   8.192  14.525
99957W        W72382  24.256   6.668   1.799
99958W        W72383  24.133  42.327  10.670
99959W        W72384  12.673   5.927  14.584
99960W        W72385   4.186  10.215  10.601
99961W        W72386  34.962  36.917  14.468
99962W        W72387  21.604  44.306   2.305
99963W        W72388  10.747  20.802   2.458
99964W        W72389   7.147  31.439  14.185
99965W        W72390   0.213   1.925  14.811
99966W        W72391   8.778  31.872  14.764
99967W        W72392  37.800  14.592   0.333
99968W        W72393   3.904  43.275   4.085
99969W        W72394   7.196   2.426   1.774
99970W        W72395  15.807  15.045  14.511
99971W        W72396  17.833   0.368   1.271
99972W        W72397  44.655  10.048  12.896
99973W        W72398  32.740  30.471   0.072
99974W        W72399   5.712  36.707  12.759
99975W        W72400  35.557  35.928  10.669
99976W        W72401  37.500  30.448  14.270
99977W        W72402  31.989   1.413   4.820
99978W        W72403  30.637  28.436  13.978
99979W        W72404  28.058  19.229   3.327
99980W        W72405  30.893  43.396   1.759
99981W        W72406   1.346   6.363  14.028
99982W        W72407  29.384  21.487  11.525
99983W        W72408  34.566   6.007  13.057
99984W        W72409  35.408  41.406   3.337
99985W        W72410   8.915   8.399   0.987
99986W        W72411  35.146  31.977  13.841
99987W        W72412  32.647  28.717  14.021
99988W        W72413   9.000  11.148   0.859
99989W        W72414  34.358  31.071  14.432
99990W        W72415  32.555   2.738   3.183
99991W        W72416  28.641  12.215   1.893
99992W        W72417  43.715  26.628  10.624
99993W        W72418   9.189  14.374   0.316
99994W        W72419   6.822   0.082  12.392
99995W        W72420   1.990  41.980   0.221
99996W        W72421  17.408  41.378   0.903
99997W        W72422  44.914   8.701   1.866
99998W        W72423  22.969  17.697  10.563
99999W        W72424  33.508   2.715  12.051
    0W        W72425   8.327  38.402  10.575
    1W        W72426   8.608  38.894   3.233
    2W        W72427  44.423  26.204   0.879
    3W        W72428  39.206  31.801   4.833
    4W        W72429  29.010  38.542   2.739
    5W        W72430  22.069  17.223  11.580
    6W        W72431  30.637   3.001  14.327
    7W        W72432  19.499  16.153   0.867
    8W        W72433  35.080  12.334   0.556
    9W        W72434  41.032  20.994  13.322
   10W        W72435   2.979  27.150  10.708
   11W        W72436  20.556  42.799  14.497
   12W        W72437  44.040  16.779   3.502
   13W        W72438  22.928   8.409  14.943
   14W        W72439  16.274  13.416  11.666
   15W        W72440  30.432   5.353   2.259
   16W        W72441   9.680  32.896   1.492
   17W        W72442  35.737  10.357  14.913
   18W        W72443  40.533  15.205   2.322
   19W        W72444  28.548   6.662   3.712
   20W        W72445  44.999  17.894  11.685
   21W        W72446  37.286  32.570  11.964
   22W        W72447  28.305   9.769   2.172
   23W        W72448   3.127  29.986  12.020
   24W        W72449   2.482  10.603  12.077
   25W        W72450  18.073   1.672   2.536
   26W        W72451  29.185   8.997   3.600
   27W        W72452  27.924  35.525   2.876
   28W        W72453  35.567  33.744  14.769
   29W        W72454  13.780  13.286  10.593
   30W        W72455  32.485  15.149   4.102
   31W        W72456  39.943  40.550  14.276
   32W        W72457  19.342  11.131   2.876
   33W        W72458   0.671  13.502  11.909
   34W        W72459  10.314  23.311  11.094
   35W        W72460  36.017  38.946   9.842
   36W        W72461  36.623  13.791   3.757
   37W        W72462  41.267  35.730   4.315
   38W        W72463  39.561  43.233   3.594
   39W        W72464   4.222   7.193   0.347
   40W        W72465  38.381  42.344  10.322
   41W        W72466  33.813  39.137   3.108
   42W        W72467  13.858  44.249   0.939
   43W        W72468  34.278   2.013   0.315
   44W        W72469   2.198  24.908  13.048
   45W        W72470  39.863  15.150   1.935
   46W        W72471  44.485  38.302   2.887
   47W        W72472   4.696   7.823  11.080
   48W        W72473  34.612   5.328  14.402
   49W        W72474  41.087  17.527   1.957
   50W        W72475  30.826   3.949   3.824
   51W        W72476  26.026  25.541   4.545
   52W        W72477  42.033  20.408  14.471
   53W        W72478  35.484  19.667  11.655
   54W        W72479  20.533   1.420   4.639
   55W        W72480  18.722  10.153   4.621
   56W        W72481   4.996  25.461  12.593
   57W        W72482  14.059  23.613  13.537
   58W        W72483   4.096  18.132   3.448
   59W        W72484   0.849  11.723  14.333
   60W        W72485  31.547  10.778   4.846
   61W        W72486  42.265   7.876   4.545
   62W        W72487  20.610   6.944  12.902
   63W        W72488  42.481   5.099  11.191
   64W        W72489   5.970  23.191  11.394
   65W        W72490  10.103  30.038  14.844
   66W        W72491  43.687  41.030   0.445
   67W        W72492  19.884  14.787   0.008
   68W        W72493  24.907  38.045  10.549
   69W        W72494  21.966  41.868   4.226
   70W        W72495  16.609  25.260   0.803
   71W        W72496  43.678  25.402  14.026
   72W        W72497  34.862  15.084   4.333
   73W        W72498  33.532  22.138   1.017
   74W        W72499  41.353  16.863   3.674
   75W        W72500  36.905   6.280  14.373
   76W        W72501  33.594  32.549  11.217
   77W        W72502  40.913  35.285   3.696
   78W        W72503  41.234  28.738  10.813
   79W        W72504   0.226  42.951   0.261
   80W        W72505  35.511  16.033   3.680
   81W        W72506  41.989  13.852  13.937
   82W        W72507  30.468  20.851  13.970
   83W        W72508   7.705  31.755  11.590
   84W        W72509   9.427  30.564  14.242
   85W        W72510   2.889  27.364  11.180
   86W        W72511   6.138  11.981   3.171
   87W        W72512   9.239  22.625  14.414
   88W        W72513  15.143   3.776   9.642
   89W        W72514   5.698  28.402  11.853
   90W        W72515  28.464  15.540   4.531
   91W        W72516   8.584  31.503   4.638
   92W        W72517  14.742  21.185   3.560
   93W        W72518  23.090  32.562  12.015
   94W        W72519  32.083  44.744   4.685
   95W        W72520  43.494   5.947   0.792
   96W        W72521  17.022  20.347  10.741
   97W        W72522  18.546  33.811  12.510
   98W        W72523   3.359   0.877  13.818
   99W        W72524  38.460  36.415  10.827
  100W        W72525  40.562  17.322   2.605
  101W        W72526  17.301  10.982   1.949
  102W        W72527   2.755  35.927  13.599
  103W        W72528  35.940  10.531   0.695
  104W        W72529  33.526  43.288   2.856
  105W        W72530  30.409   9.173  11.840
  106W        W72531  31.710  42.464  11.494
  107W        W72532  10.186  26.184  12.170
  108W        W72533  15.604  29.490   4.954
  109W        W72534  36.339  22.167   2.311
  110W        W72535  27.717  29.651   3.701
  111W        W72536  44.515  42.816  10.694
  112W        W72537  27.243  36.512  12.899
  113W        W72538  35.069  16.797   3.652
  114W        W72539  13.788  14.917  13.323
  115W        W72540  43.493  35.330   3.889
  116W        W72541  16.492  35.900   4.679
  117W        W72542  28.389  18.819  14.939
  118W        W72543  36.151  22.224   3.299
  119W        W72544  17.167  19.635   3.625
  120W        W72545  22.681  12.175  12.450
  121W        W72546   6.155   4.271   1.493
  122W        W72547  38.598  41.332  11.194
  123W        W72548  32.573   0.310   4.370
  124W        W72549  44.416  19.192  13.527
  125W        W72550  38.586  32.011   3.367
  126W        W72551  14.604  21.619   3.314
  127W        W72552  23.590   7.686  13.666
  128W        W72553  31.001  35.535   4.443
  129W        W72554  36.182  36.674  14.758
  130W        W72555  34.455  11.243   2.776
  131W        W72556  37.417  40.613   1.570
  132W        W72557  32.562  43.358   3.340
  133W        W72558   2.201   4.726  13.821
  134W        W72559  21.478  23.129   1.410
  135W        W72560  40.761  33.075   0.061
  136W        W72561  25.447   1.710  11.104
  137W        W72562  43.838  18.304   1.968
  138W        W72563  44.341  36.047   1.065
  139W        W72564  44.802  10.879   3.610
  140W        W72565  17.303   6.284   3.600
  141W        W72566  24.269  25.064   4.119
  142W        W72567   6.609  27.316   2.249
  143W        W72568   0.346  12.128  14.472
  144W        W72569  12.387  34.429  14.951
  145W        W72570   9.292  34.940  12.418
  146W        W72571   8.239  18.933   1.355
  147W        W72572   2.124  36.283  11.849
  148W        W72573   7.412   1.367   2.850
  149W        W72574  18.104  21.506  14.940
  150W        W72575  28.990   0.064   4.752
  151W        W72576  26.400  17.221   4.197
  152W        W72577  30.193  35.094   0.326
  153W        W72578  37.405  37.880   2.133
  154W        W72579  33.416   3.127   1.221
  155W        W72580  39.466  43.449   4.363
  156W        W72581  33.328  37.625  10.829
  157W        W72582  31.375  25.660   4.879
  158W        W72583  21.080   7.820   0.839
  159W        W72584  21.075  34.650  14.979
  160W        W72585   4.423  38.915  14.249
  161W        W72586  20.761  16.234  14.049
  162W        W72587  18.625  38.828   1.357
  163W        W72588  40.305  25.964  13.336
  164W        W72589  19.039  30.912   2.337
  165W        W72590  41.033  16.218  13.432
  166W        W72591  11.105  28.673  13.607
  167W        W72592  25.712  24.951   3.823
  168W        W72593  34.954  30.646  11.630
  169W        W72594  40.732  28.064  11.077
  170W        W72595  43.758   4.841  12.583
  171W        W72596   8.677   8.346  14.848
  172W        W72597  22.301  40.682  14.516
  173W        W72598   3.192  26.625   3.316
  174W        W72599  21.859  38.984   1.970
  175W        W72600  43.163  11.360   3.068
  176W        W72601  14.061  11.422  12.817
  177W        W72602  42.800  42.863   1.220
  178W        W72603  44.745  26.912  14.756
  179W        W72604  26.988  23.278  12.313
  180W        W72605   7.309   3.327  10.914
  181W        W72606  44.247  15.306   1.008
  182W        W72607  33.936  34.708   2.781
  183W        W72608  34.621   8.108  13.504
  184W        W72609  27.144  38.969  12.663
  185W        W72610  40.563  38.596  12.317
  186W        W72611  27.974  12.316  13.056
  187W        W72612  10.810  42.885   5.051
  188W        W72613  37.828  40.752   3.732
  189W        W72614  36.002   5.836   0.088
  190W        W72615  29.126   2.885  12.893
  191W        W72616  23.242  25.585  11.159
  192W        W72617   8.457   2.239  13.530
  193W        W72618  17.105  19.117  13.983
  194W        W72619  10.323  22.536   2.439
  195W        W72620  35.676  33.024  14.186
  196W        W72621  23.455   3.488  13.358
  197W        W72622  19.722  31.835   0.360
  198W        W72623  18.132   0.914   4.728
  199W        W72624  35.870  20.281   2.847
  200W        W72625  41.226   8.901  13.590
  201W        W72626  17.203  16.597  11.643
  202W        W72627  21.513  17.389  14.881
  203W        W72628   5.335  25.881   4.046
  204W        W72629  33.882  43.837   4.021
  205W        W72630  27.625  22.249  12.939
  206W        W72631  40.719  27.536   1.961
  207W        W72632   3.351  25.923   0.468
  208W        W72633   2.803  13.197  14.463
  209W        W72634   2.775   8.269  13.108
  210W        W72635   0.266   3.845  11.612
  211W        W72636  11.799  15.154  12.889
  212W        W72637  20.000  43.929  11.155
  213W        W72638  39.385   3.118  13.869
  214W        W72639  43.785  41.892  10.642
  215W        W72640  25.417  41.734  12.927
  216W        W72641  38.562  33.005  14.377
  217W        W72642  39.833  16.901   1.900
  218W        W72643   2.693   3.355   4.355
  219W        W72644  12.626  16.720   1.426
  220W        W72645  16.527  13.809   2.185
  221W        W72646   3.800  38.554   2.257
  222W        W72647  14.252  41.739  14.338
  223W        W72648  32.394  10.591   1.945
  224W        W72649   4.176   4.807  11.355
  225W        W72650  14.174  22.621   4.013
  226W        W72651  41.242  19.636  11.330
  227W        W72652  30.902  17.762   1.052
  228W        W72653  26.927  28.061   4.202
  229W        W72654  40.961  23.808   3.353
  230W        W72655  21.214  23.636  10.984
  231W        W72656  26.589  10.247  10.675
  232W        W72657  23.185  44.878  10.967
  233W        W72658  42.952  33.852  14.037
  234W        W72659  36.039  10.160   5.087
  235W        W72660  33.988   1.993   2.280
  236W        W72661   7.937   0.415   4.682
  237W        W72662  12.947  12.111  14.452
  238W        W72663  10.594  31.520   2.767
  239W        W72664  29.675   8.266  14.919
  240W        W72665  27.614  29.054   2.863
  241W        W72666  12.116   2.880   3.184
  242W        W72667  28.943   2.955  11.143
  243W        W72668  24.680  10.847   4.144
  244W        W72669  13.074  37.409  13.090
  245W        W72670  35.926  34.987   4.525
  246W        W72671   2.894  22.206  14.028
  247W        W72672  42.340   1.647   3.830
  248W        W72673  29.981  34.542  12.778
  249W        W72674  35.548  13.566   4.534
  250W        W72675  31.254   7.998  11.056
  251W        W72676  14.329  11.602  13.383
  252W        W72677  32.899  32.603  12.877
  253W        W72678  30.645  19.706  10.699
  254W        W72679  44.059  19.843   0.931
  255W        W72680  44.324  41.875   3.933
  256W        W72681  22.980  41.263  13.542
  257W        W72682  40.085  34.647  14.753
  258W        W72683  14.356  20.575   0.925
  259W        W72684   2.203  32.540  11.641
  260W        W72685  10.160   8.133   2.757
  261W        W72686  11.690  37.669   2.132
  262W        W72687  29.665  14.849   2.425
  263W        W72688  25.800  32.110   3.827
  264W        W72689  40.080   1.187   2.808
  265W        W72690   4.913   9.093   1.394
  266W        W72691  22.198   9.366   1.149
  267W        W72692   4.499  40.439  10.982
  268W        W72693   1.843  13.987   2.190
  269W        W72694   0.565  35.583   2.426
  270W        W72695   3.305  19.247   2.869
  271W        W72696  43.278  28.168  12.892
  272W        W72697  24.915  20.562  13.415
  273W        W72698  30.001  29.523   0.746
  274W        W72699  13.829   3.966   4.093
  275W        W72700  34.556  36.805   0.835
  276W        W72701   6.308  11.635  13.747
  277W        W72702   1.980  24.963   3.098
  278W        W72703   2.481   0.579   1.804
  279W        W72704  20.109  17.972  11.553
  280W        W72705  17.218  27.456  11.958
  281W        W72706  20.873   2.148  14.394
  282W        W72707   1.454  11.339   3.709
  283W        W72708  41.822  34.309   1.961
  284W        W72709  12.797  12.396   0.925
  285W        W72710  29.627   7.443  11.595
  286W        W72711  15.817  23.454  12.140
  287W        W72712  23.527  41.774  14.823
  288W        W72713  29.690  18.827  11.168
  289W        W72714   3.724  15.540  10.640
  290W        W72715  34.956   3.225   4.862
  291W        W72716   5.295  26.878   1.800
  292W        W72717  26.668  15.291  10.692
  293W        W72718   9.420  18.969  12.363
  294W        W72719  13.079  22.657  14.492
  295W        W72720   1.265   9.508  13.950
  296W        W72721  31.202   7.205  11.617
  297W        W72722  40.771  28.451  12.072
  298W        W72723   0.521  28.034   5.115
  299W        W72724  30.846  15.262   0.468
  300W        W72725  26.212  29.886   0.993
  301W        W72726   8.699  18.529  12.520
  302W        W72727  31.591  21.691   0.327
  303W        W72728  30.096  20.207   4.217
  304W        W72729   8.758  11.185  14.554
  305W        W72730  31.490  14.779   1.701
  306W        W72731  25.699  42.110  10.895
  307W        W72732  29.323  26.583   1.330
  308W        W72733  13.113  18.707   1.476
  309W        W72734  16.306  10.225   4.161
  310W        W72735  26.243   1.364  13.410
  311W        W72736  43.058  32.324  13.698
  312W        W72737  14.194  18.644   1.091
  313W        W72738  20.908  20.920  13.499
  314W        W72739  44.816  25.759  10.393
  315W        W72740  21.385  38.817   4.881
  316W        W72741  19.083  36.833   2.288
  317W        W72742  44.182  41.916  14.992
  318W        W72743   2.942  15.450  12.052
  319W        W72744  44.245  24.275  14.420
  320W        W72745  25.253  31.888   2.333
  321W        W72746  27.096  22.125   3.378
  322W        W72747  13.907  31.538   2.676
  323W        W72748  15.643   7.419   2.832
  324W        W72749   7.471  14.640   0.732
  325W        W72750  35.423  29.116   3.527
  326W        W72751  34.591  14.715   3.790
  327W        W72752   6.217  17.744   4.951
  328W        W72753  24.073  35.024  13.876
  329W        W72754  15.933  10.856   1.768
  330W        W72755  27.628  34.534   1.408
  331W        W72756  38.001  10.747  10.866
  332W        W72757  15.761  11.209  14.499
  333W        W72758  27.444  18.304   4.186
  334W        W72759  12.257   7.175   3.305
  335W        W72760  24.600  32.080   1.819
  336W        W72761   5.441  15.194  12.153
  337W        W72762   9.999  32.281   4.496
  338W        W72763   2.801  15.371   1.793
  339W        W72764  38.406   3.124  13.553
  340W        W72765  14.909  37.321  13.430
  341W        W72766  11.159  11.053  14.893
  342W        W72767  12.309  23.895   4.035
  343W        W72768  40.409  39.808   4.726
  344W        W72769  42.010  42.312   2.772
  345W        W72770   4.062  29.894  13.780
  346W        W72771  19.288  24.927  14.958
  347W        W72772  31.639  27.454  10.591
  348W        W72773  25.786  25.603   0.791
  349W        W72774  34.140  20.055  12.974
  350W        W72775   4.810   6.366  10.199
  351W        W72776  12.328  26.750   2.144
  352W        W72777  18.324  11.233   2.741
  353W        W72778  14.023  26.660  11.956
  354W        W72779   1.834  32.987   1.311
  355W        W72780   2.235  28.142  12.636
  356W        W72781  12.683  33.433  14.804
  357W        W72782  43.505  15.923   1.380
  358W        W72783  36.207  29.606   3.940
  359W        W72784  42.399  17.259   2.743
  360W        W72785   0.502  17.277   0.221
  361W        W72786  32.612  11.060   2.127
  362W        W72787  32.513  33.437   1.260
  363W        W72788  19.620  32.690  13.314
  364W        W72789  27.083  22.114  12.620
  365W        W72790  44.806  40.828  11.938
  366W        W72791   0.686  38.326   0.865
  367W        W72792  18.137  18.042   2.813
  368W        W72793  12.049  10.638  11.648
  369W        W72794  41.026  26.635  10.733
  370W        W72795  44.890  37.828   2.477
  371W        W72796  21.235  12.143   3.852
  372W        W72797  20.117  17.056   3.608
  373W        W72798   7.498   7.047  12.357
  374W        W72799  35.654  21.136   1.194
  375W        W72800  37.560  40.983   0.062
  376W        W72801  39.807  40.027   1.760
  377W        W72802  26.053   1.061   1.239
  378W        W72803  13.115   0.942  11.506
  379W        W72804  20.832  16.272  14.600
  380W        W72805  19.117  16.817  14.392
  381W        W72806  37.197  14.972  11.730
  382W        W72807  19.515  23.200   4.897
  383W        W72808   5.386  14.275  10.717
  384W        W72809  21.531  42.211   3.189
  385W        W72810  43.254   7.194  11.198
  386W        W72811   6.862  18.125  14.727
  387W        W72812   4.940  43.780  10.301
  388W        W72813  13.840   0.782   4.964
  389W        W72814  24.815   2.065   4.113
  390W        W72815  10.192   1.326  12.352
  391W        W72816   3.812  26.060  14.485
  392W        W72817  28.243  13.259   2.326
  393W        W72818   9.625  11.230   4.746
  394W        W72819  23.179  38.579   2.789
  395W        W72820  38.478  35.488  14.790
  396W        W72821   4.192  34.547   4.028
  397W        W72822  23.044  37.992   0.851
  398W        W72823  15.603  26.170   1.080
  399W        W72824  27.326  14.180   1.237
  400W        W72825   7.597  18.682   3.621
  401W        W72826  20.968   2.964  14.712
  402W        W72827  22.466   8.661   0.555
  403W        W72828  31.016  29.069  12.896
  404W        W72829  37.581  21.520   2.313
  405W        W72830  29.344  24.342   1.510
  406W        W72831  24.142  19.694  13.144
  407W        W72832  17.747  27.279  12.985
  408W        W72833   9.710  33.970  10.651
  409W        W72834  30.665  34.580  14.421
  410W        W72835  26.630  41.797   3.215
  411W        W72836  16.110  44.188  11.195
  412W        W72837  37.394  13.817  14.962
  413W        W72838   0.991  19.454   5.026
  414W        W72839   7.253  41.559   0.735
  415W        W72840  17.267  20.085   4.520
  416W        W72841  31.470  37.207   3.795
  417W        W72842   5.199  34.498   1.702
  418W        W72843   9.417   2.783   3.926
  419W        W72844  19.757  10.318   1.327
  420W        W72845  40.927  18.095  14.334
  421W        W72846  20.313  15.131   1.716
  422W        W72847  38.986  29.187   1.698
  423W        W72848   4.647  34.643   4.226
  424W        W72849   1.185  19.551  10.716
  425W        W72850  33.464  43.225  13.258
  426W        W72851  17.093   2.322  12.604
  427W        W72852  14.303  39.691   3.008
  428W        W72853   3.920   9.335  10.813
  429W        W72854   8.656  15.521  10.565
  430W        W72855  14.807   0.678   2.342
  431W        W72856  37.038  38.961   2.443
  432W        W72857  11.719   7.122  11.199
  433W        W72858  31.188  12.681  14.481
  434W        W72859  15.526  16.619   1.314
  435W        W72860  15.336  36.321   2.859
  436W        W72861  15.110   5.389   1.789
  437W        W72862  39.331  20.885   4.434
  438W        W72863  42.323  31.031   0.359
  439W        W72864  24.571  11.895  14.014
  440W        W72865  26.657  20.565   3.008
  441W        W72866   6.645  14.222  14.857
  442W        W72867  18.715  11.400   0.950
  443W        W72868  38.370  34.720  11.674
  444W        W72869  14.303  32.125   4.829
  445W        W72870  11.385   1.724   0.794
  446W        W72871  30.816   6.641  13.066
  447W        W72872  13.206  18.362   2.756
  448W        W72873  28.832  14.196  12.431
  449W        W72874  34.344  37.823  12.086
  450W        W72875  22.516  32.943  10.748
  451W        W72876  27.699  43.372   3.318
  452W        W72877  30.147  14.169  14.431
  453W        W72878  41.282  33.672  13.557
  454W        W72879  32.031  41.516  14.729
  455W        W72880   5.707  40.395   0.312
  456W        W72881  31.844   6.254  12.451
  457W        W72882  15.454  37.475   4.568
  458W        W72883  30.830  26.035   0.712
  459W        W72884  20.780  35.570  12.947
  460W        W72885  39.876  13.900   4.538
  461W        W72886  44.176  27.645   3.119
  462W        W72887  31.483  12.845  12.629
  463W        W72888  15.243  34.895   3.593
  464W        W72889  18.059  20.480   4.087
  465W        W72890   8.711  25.590   3.616
  466W        W72891  18.212   0.670  12.608
  467W        W72892  27.075  37.306   1.233
  468W        W72893   2.011  40.925  12.921
  469W        W72894  17.826  35.873  14.870
  470W        W72895  31.055  15.088  13.181
  471W        W72896  28.485  21.921  14.761
  472W        W72897  21.332  28.566   4.126
  473W        W72898  44.967  21.793   1.748
  474W        W72899  41.235  15.064   2.908
  475W        W72900  43.465  23.054   4.580
  476W        W72901  18.095  24.713  13.747
  477W        W72902  14.226  18.377  11.142
  478W        W72903   8.697  24.637   3.599
  479W        W72904  41.832  27.887  12.551
  480W        W72905   1.910  43.024   2.682
  481W        W72906   6.820  28.232  11.342
  482W        W72907  30.344  21.647  11.276
  483W        W72908  42.470  25.515   1.761
  484W        W72909  14.387   8.294  13.328
  485W        W72910  15.794  25.580   0.408
  486W        W72911   2.201   6.394   3.120
  487W        W72912  27.471  25.703   1.299
  488W        W72913  33.638  17.030   2.647
  489W        W72914  10.672  31.163  10.532
  490W        W72915  25.643  18.495  13.138
  491W        W72916  15.760  34.307  13.913
  492W        W72917  18.091  32.897  10.285
  493W        W72918  25.244  19.480  11.141
  494W        W72919   9.715   5.187   2.755
  495W        W72920  11.182   2.802   5.115
  496W        W72921   6.733  33.640  12.986
  497W        W72922   5.264   6.812   1.023
  498W        W72923  14.809  24.143   5.478
  499W        W72924  33.511   3.293   2.677
  500W        W72925  28.798  41.021   1.781
  501W        W72926  39.434  16.793  11.563
  502W        W72927  16.196  34.635  10.926
  503W        W72928  10.076  11.779   5.032
  504W        W72929  38.911  18.756  10.548
  505W        W72930   7.125  32.952   0.933
  506W        W72931  16.041  18.664   0.719
  507W        W72932  27.106  20.166  12.405
  508W        W72933   0.638  20.738  10.271
  509W        W72934  31.837  29.706  13.452
  510W        W72935  36.633  17.905   4.124
  511W        W72936   7.962  25.990  12.368
  512W        W72937   0.438  25.098   3.090
  513W        W72938   9.741  14.292  13.107
  514W        W72939  29.846  19.510  12.398
  515W        W72940  30.906  10.270   2.261
  516W        W72941  38.263   1.106   0.889
  517W        W72942  33.087  22.469   4.219
  518W        W72943  35.550  24.773   2.117
  519W        W72944   9.018   0.993   4.106
  520W        W72945  44.721  42.328  13.462
  521W        W72946  23.713  15.235  13.643
  522W        W72947  19.638   7.829   2.789
  523W        W72948  32.544  28.452   4.125
  524W        W72949  37.909   0.111   3.801
  525W        W72950  19.004   2.524  10.998
  526W        W72951  31.335  44.232   4.549
  527W        W72952  21.241  33.279  11.640
  528W        W72953  22.928   8.602   2.635
  529W        W72954  28.227  21.026  13.520
  530W        W72955   9.305  16.833  14.399
  531W        W72956   2.726   0.264  13.404
  532W        W72957   2.349  33.857   0.065
  533W        W72958  30.718  42.374   0.906
  534W        W72959   3.274  23.096   1.797
  535W        W72960  11.848   4.614  12.725
  536W        W72961  11.764  13.683  12.785
  537W        W72962  40.463  20.014  10.308
  538W        W72963  23.209  10.216  11.197
  539W        W72964   7.127  22.508  12.103
  540W        W72965   8.407  36.994  10.942
  541W        W72966  31.724  33.898   2.062
  542W        W72967  12.069  32.802   2.338
  543W        W72968   1.030  26.946  12.356
  544W        W72969  16.014  43.387   0.255
  545W        W72970  27.839  13.622  13.497
  546W        W72971  22.626  31.861   3.812
  547W        W72972  36.144  24.945   3.347
  548W        W72973  35.806   3.052   1.273
  549W        W72974  19.314  28.561  12.944
  550W        W72975  10.945  21.730  11.256
  551W        W72976  12.014  38.220   2.241
  552W        W72977  30.052  38.555   0.922
  553W        W72978  34.856  42.989  14.558
  554W        W72979  29.940  31.021  13.834
  555W        W72980   2.953  11.052  11.042
  556W        W72981  35.423  35.875   3.218
  557W        W72982  26.909  32.399   2.621
  558W        W72983  37.656  44.736  12.119
  559W        W72984   9.635  23.989   2.167
  560W        W72985  43.605  42.528   1.894
  561W        W72986  18.268  17.839  14.255
  562W        W72987  40.602  13.872   4.154
  563W        W72988  12.000  29.222  13.402
  564W        W72989  11.867  18.524  12.980
  565W        W72990  17.656  14.416  12.305
  566W        W72991   6.869  39.452  14.742
  567W        W72992  23.945  13.735   4.607
  568W        W72993  38.501  44.484  14.032
  569W        W72994  23.206   9.915   4.171
  570W        W72995  13.689   9.850   4.276
  571W        W72996   8.835  15.615  13.884
  572W        W72997  10.962   2.348   5.006
  573W        W72998   2.004  18.700   2.761
  574W        W72999   1.483  39.235   1.987
  575W        W73000   8.917  43.556  12.226
  576W        W73001   4.707  38.627  13.278
  577W        W73002  25.018  42.601   0.326
  578W        W73003  20.995  13.625  14.853
  579W        W73004  11.190  40.776   0.879
  580W        W73005  35.053   1.340  14.852
  581W        W73006  29.144  17.316   2.756
  582W        W73007  33.083  39.131  11.047
  583W        W73008  41.970  29.853  12.385
  584W        W73009   9.459  29.233  11.968
  585W        W73010   2.401  43.789   4.162
  586W        W73011  42.248  38.485   1.683
  587W        W73012  22.662  41.021  14.426
  588W        W73013  13.243  10.346   4.905
  589W        W73014   8.338  12.375   4.282
  590W        W73015  41.848  34.771   1.674
  591W        W73016  32.452  25.292   2.309
  592W        W73017  42.581  31.075   0.808
  593W        W73018  36.911  16.686   0.290
  594W        W73019   6.678   7.985  12.180
  595W        W73020  42.790  41.532   0.341
  596W        W73021  27.607   9.290  10.763
  597W        W73022  37.409  30.051   3.601
  598W        W73023   8.112   3.855   2.710
  599W        W73024  33.418  10.582   3.146
  600W        W73025  32.089   0.792   5.040
  601W        W73026  38.270  18.642   3.750
  602W        W73027  16.170  32.061  12.956
  603W        W73028  22.149  40.288  14.799
  604W        W73029  21.155  31.225   4.797
  605W        W73030   5.588  37.896  13.463
  606W        W73031  19.843   3.173   0.539
  607W        W73032  32.071  31.478   2.403
  608W        W73033  15.373  15.810   4.053
  609W        W73034  13.807  15.845   2.874
  610W        W73035   0.292  35.402   2.827
  611W        W73036  34.609  25.939  11.004
  612W        W73037  31.423  42.897   0.493
  613W        W73038  39.849  25.495   4.615
  614W        W73039   1.750  34.902  11.330
  615W        W73040  36.248   3.661   3.716
  616W        W73041  30.590  38.644   2.317
  617W        W73042   0.545  29.065   4.488
  618W        W73043  28.213  38.828  11.360
  619W        W73044  16.180  33.143  12.558
  620W        W73045   5.914  30.955   3.162
  621W        W73046   1.672   1.187   3.383
  622W        W73047   8.819   3.190   4.726
  623W        W73048  13.805  39.765  12.114
  624W        W73049  21.895  13.072  11.647
  625W        W73050  32.142  32.484   1.667
  626W        W73051  44.993  44.806   0.432
  627W        W73052  11.225   2.795  12.471
  628W        W73053   9.108   0.410  13.415
  629W        W73054  17.618   7.198  14.977
  630W        W73055  33.398  29.423   2.235
  631W        W73056  30.224   8.209   3.388
  632W        W73057   1.396  11.288  11.872
  633W        W73058  10.830  16.397  11.941
  634W        W73059  20.505  15.601   0.711
  635W        W73060  33.943  12.880  10.697
  636W        W73061   3.765  14.328  11.135
  637W        W73062   4.788  27.062   2.215
  638W        W73063  28.872   1.381   2.899
  639W        W73064  43.170  36.355   0.406
  640W        W73065  18.761   9.182  13.006
  641W        W73066  14.367  15.659   4.129
  642W        W73067  44.921   5.407  13.921
  643W        W73068  25.587   7.341   2.709
  644W        W73069  11.562  18.120   2.738
  645W        W73070  13.534   8.278  12.858
  646W        W73071  37.020   9.600   3.269
  647W        W73072  26.716  40.873   2.460
  648W        W73073   4.724  21.694  10.602
  649W        W73074  16.665  28.149   4.399
  650W        W73075  16.052  19.667   2.367
  651W        W73076   9.898  34.804   4.270
  652W        W73077  30.936   5.199  10.817
  653W        W73078  18.917   0.913  14.990
  654W        W73079   0.088   0.754  11.126
  655W        W73080  10.383  22.086  11.503
  656W        W73081  17.712  41.971  11.713
  657W        W73082  18.688  29.401  12.660
  658W        W73083  33.143  29.429  11.087
  659W        W73084  35.995  18.546  10.446
  660W        W73085   5.340  11.817  13.075
  661W        W73086  19.053  13.804  12.567
  662W        W73087   1.975   5.186   1.801
  663W        W73088  20.322  10.285  10.241
  664W        W73089  43.928  27.300  14.870
  665W        W73090  25.425  34.491  14.872
  666W        W73091   5.099  34.573  13.587
  667W        W73092   2.369  41.950  14.510
  668W        W73093  22.546   7.788   4.171
  669W        W73094  28.164  33.098  11.799
  670W        W73095  17.201   8.613  14.276
  671W        W73096   5.366  31.968  14.392
  672W        W73097  42.004   9.951  14.500
  673W        W73098  12.548  18.944  14.405
  674W        W73099   4.146  38.360   3.798
  675W        W73100  37.896  27.403   0.979
  676W        W73101   1.665   9.951  11.109
  677W        W73102  13.754   1.935   2.775
  678W        W73103  32.840  31.378   0.575
  679W        W73104  43.075  30.516   1.402
  680W        W73105  32.132  22.037   4.754
  681W        W73106  34.073  20.523  14.033
  682W        W73107   4.731  20.701   1.736
  683W        W73108  28.784  40.488   3.005
  684W        W73109  12.596  12.119  14.824
  685W        W73110   9.793  13.568  11.952
  686W        W73111  32.109  28.018   0.780
  687W        W73112   1.279  12.544   1.439
  688W        W73113  33.079   5.109   1.865
  689W        W73114  37.575  20.585  12.648
  690W        W73115  19.928  36.607  14.286
  691W        W73116  20.490  28.001   0.971
  692W        W73117  15.732  36.834   3.681
  693W        W73118   1.730  15.079  14.367
  694W        W73119  35.962  40.473  10.477
  695W        W73120  33.333  26.155  10.801
  696W        W73121   4.717  14.706   0.209
  697W        W73122  42.265  10.757  10.704
  698W        W73123  12.712   2.159  11.963
  699W        W73124   0.614   6.743   2.785
  700W        W73125  14.209  19.804  14.284
  701W        W73126  42.025  41.929  11.561
  702W        W73127   5.194  11.567  12.056
  703W        W73128  24.833  29.107  13.882
  704W        W73129  38.609  35.669   9.894
  705W        W73130  30.989   0.735   0.555
  706W        W73131  32.384  41.599  12.356
  707W        W73132  25.260  38.485   4.119
  708W        W73133   9.913  18.262   1.803
  709W        W73134  33.062   8.387   1.350
  710W        W73135  10.441  25.533  11.122
  711W        W73136  23.957   6.680  11.078
  712W        W73137  17.737   4.774   3.311
  713W        W73138  15.621   0.067  12.544
  714W        W73139   9.789   7.477  13.263
  715W        W73140   1.738  11.772  13.549
  716W        W73141  30.151  10.375  10.978
  717W        W73142  39.513  17.525   4.186
  718W        W73143  27.949  22.186  13.329
  719W        W73144   2.797  36.986   0.871
  720W        W73145  22.025   0.812  13.312
  721W        W73146   5.902  18.787   1.869
  722W        W73147  10.470  22.512  14.890
  723W        W73148   4.214   8.324   2.443
  724W        W73149   9.655  13.645   0.673
  725W        W73150   7.328  24.314  13.042
  726W        W73151  12.316  37.118  14.333
  727W        W73152  20.777  27.461  12.597
  728W        W73153  26.338  38.009   4.484
  729W        W73154  32.162  11.845  10.387
  730W        W73155   2.584   6.920  10.074
  731W        W73156  20.336  33.534  14.130
  732W        W73157  19.055  22.988   0.918
  733W        W73158  30.620  35.786  11.104
  734W        W73159  30.526  11.777   0.052
  735W        W73160   9.976  31.910  12.452
  736W        W73161   8.198  42.939  12.018
  737W        W73162  39.327   3.130   3.406
  738W        W73163  38.468  27.101   0.334
  739W        W73164  11.667  27.190   0.881
  740W        W73165  12.912   1.433  10.707
  741W        W73166  34.057  44.571   0.254
  742W        W73167   5.388   9.228  14.081
  743W        W73168   2.794  13.202   1.411
  744W        W73169  30.657  26.465  14.961
  745W        W73170  26.161  20.126  14.125
  746W        W73171  30.778  40.577  12.324
  747W        W73172  12.688  26.612  11.955
  748W        W73173   1.013  44.886   3.502
  749W        W73174  16.184  32.431   1.437
  750W        W73175  27.397  44.067   3.694
  751W        W73176  21.965  33.935   3.241
  752W        W73177  19.610   5.896  13.052
  753W        W73178  38.370  25.786  12.607
  754W        W73179  40.791   1.303  12.864
  755W        W73180  11.732  14.070   4.625
  756W        W73181  35.040   5.320   1.926
  757W        W73182  17.721  18.083   1.266
  758W        W73183  40.885   0.433   3.457
  759W        W73184  44.391  15.018   2.277
  760W        W73185  20.846   9.178  13.788
  761W        W73186  39.005  42.068   2.563
  762W        W73187  43.924  41.958  12.049
  763W        W73188  32.244  15.203   1.662
  764W        W73189  21.278  32.587   5.350
  765W        W73190  42.326  18.340  12.577
  766W        W73191  38.943   2.741   4.477
  767W        W73192  32.935  29.188   2.352
  768W        W73193  22.726  25.559  12.841
  769W        W73194  41.879  18.194  12.846
  770W        W73195   5.745   2.186   4.215
  771W        W73196  23.329  31.427  10.498
  772W        W73197  40.985  18.006  11.414
  773W        W73198   1.661  31.311  10.606
  774W        W73199  32.164  17.570  10.679
  775W        W73200   0.995  18.282  12.020
  776W        W73201  42.437  32.839   1.422
  777W        W73202   8.431   5.944   4.161
  778W        W73203  36.853  26.708   0.770
  779W        W73204  15.280   3.045  12.494
  780W        W73205  33.563  10.244   2.779
  781W        W73206  38.444  40.513  11.411
  782W        W73207   0.666  19.552   4.603
  783W        W73208  26.711  27.455  14.738
  784W        W73209   2.992  37.891   1.270
  785W        W73210   3.738  35.444   1.661
  786W        W73211  32.276   3.397  14.879
  787W        W73212  41.582  36.284  14.165
  788W        W73213  20.565  44.497   2.410
  789W        W73214   8.893   9.681   1.443
  790W        W73215  26.222  42.602   3.114
  791W        W73216   1.241   6.241   1.463
  792W        W73217  14.913   3.693   2.803
  793W        W73218  30.156  32.818   4.583
  794W        W73219  35.353  13.642  11.614
  795W        W73220  41.235  41.819   2.695
  796W        W73221  44.741  14.723   3.263
  797W        W73222  18.208  10.866   2.009
  798W        W73223  33.786   5.422   2.285
  799W        W73224  18.043  44.145   4.119
  800W        W73225  20.560  43.003   4.409
  801W        W73226  26.141   8.797   4.939
  802W        W73227  18.017   1.468   3.623
  803W        W73228  22.967  18.298   3.125
  804W        W73229  39.343  20.353   1.814
  805W        W73230  25.090  37.406   0.319
  806W        W73231   8.972  40.374  11.110
  807W        W73232  11.008  12.922  11.905
  808W        W73233  12.700  27.878  12.497
  809W        W73234  38.629  37.300   2.753
  810W        W73235  42.568  14.857  14.770
  811W        W73236  25.089  42.974  11.530
  812W        W73237  27.265  16.128  12.516
  813W        W73238  18.524  18.695  12.097
  814W        W73239   2.296  20.658   4.343
  815W        W73240   4.749   9.896  11.565
  816W        W73241   5.189  15.783   1.685
  817W        W73242  22.673  11.893   3.114
  818W        W73243  20.714  37.041   4.509
  819W        W73244  38.468  34.908  12.195
  820W        W73245  21.125  34.499   3.192
  821W        W73246  31.110  18.309  13.442
  822W        W73247  44.330  36.060  12.050
  823W        W73248  33.794  19.140  12.824
  824W        W73249  42.850  16.583  13.892
  825W        W73250  18.771  34.095  11.525
  826W        W73251  22.843  28.137   4.866
  827W        W73252  23.211  41.366   3.205
  828W        W73253  44.290  12.820  12.464
  829W        W73254   8.181  34.083  12.277
  830W        W73255   6.872  38.027   1.406
  831W        W73256  25.223  38.714  13.584
  832W        W73257   3.387  21.417   3.277
  833W        W73258  43.813  26.851  13.904
  834W        W73259  33.387  34.083   0.024
  835W        W73260  22.553  15.149  12.765
  836W        W73261   6.298  42.349   1.236
  837W        W73262  31.914  27.574   0.943
  838W        W73263   7.911  23.662  14.393
  839W        W73264  24.164   6.917   0.163
  840W        W73265   6.282  33.992   3.913
  841W        W73266   9.439  38.108   1.007
  842W        W73267   8.612  31.940  11.177
  843W        W73268  22.206  26.220   4.535
  844W        W73269   9.725  43.912   0.945
  845W        W73270  15.704  19.521  12.500
  846W        W73271  24.291  40.077   2.323
  847W        W73272   5.347  31.563  14.040
  848W        W73273   2.676  38.491  11.544
  849W        W73274  41.799  25.296  11.394
  850W        W73275   6.893  16.180   1.431
  851W        W73276  15.082  36.847  13.591
  852W        W73277  24.982   7.779   1.044
  853W        W73278   3.412   3.915  13.541
  854W        W73279  32.441  15.837   2.280
  855W        W73280  37.327  28.207  10.608
  856W        W73281  38.354  30.486  14.281
  857W        W73282  24.817  20.322   1.860
  858W        W73283  24.831  23.525   4.837
  859W        W73284  32.539  23.958  14.000
  860W        W73285   9.627  34.831   1.330
  861W        W73286  44.169   3.812  11.859
  862W        W73287  42.232  35.556  13.906
  863W        W73288   3.608  21.301   9.991
  864W        W73289  18.817   0.358   3.754
  865W        W73290  17.029  36.982  13.959
  866W        W73291  25.538  17.641   0.878
  867W        W73292  38.345  20.132  11.910
  868W        W73293   6.558  34.456   3.113
  869W        W73294   2.380   7.261  13.586
  870W        W73295  29.137  35.384  11.135
  871W        W73296  40.273  28.347  11.894
  872W        W73297   3.738  44.657  11.302
  873W        W73298  24.839  43.892   4.460
  874W        W73299  37.082  27.726   2.810
  875W        W73300   7.233   2.486  12.865
  876W        W73301  28.872  17.103  11.405
  877W        W73302   1.876  18.208  12.878
  878W        W73303  38.461   5.203   3.226
  879W        W73304  12.927  34.908   0.995
  880W        W73305  24.157  15.773  12.045
  881W        W73306  19.161   1.094  12.927
  882W        W73307  33.853  29.368  14.795
  883W        W73308  13.079   6.924  11.559
  884W        W73309  30.883  42.836  14.329
  885W        W73310  14.099  12.517   1.449
  886W        W73311   9.891  11.682   1.810
  887W        W73312  30.311  17.310   1.282
  888W        W73313  15.299  33.474   2.795
  889W        W73314   5.407   7.835  12.907
  890W        W73315  29.891   6.616   0.959
  891W        W73316  29.728  38.207   9.809
  892W        W73317  34.711  29.186   3.361
  893W        W73318  10.364  29.213  11.088
  894W        W73319   1.567   9.327   2.504
  895W        W73320  28.756  32.420   1.928
  896W        W73321  40.353  16.137  14.361
  897W        W73322  15.210   5.723   1.320
  898W        W73323  29.135  29.478   4.791
  899W        W73324  32.483  30.426   2.857
  900W        W73325  30.767  40.401   5.563
  901W        W73326  12.610  44.813   2.435
  902W        W73327  36.011   1.407  10.490
  903W        W73328  36.055  11.826   1.517
  904W        W73329   6.920  17.651   2.770
  905W        W73330   2.783   5.756   3.463
  906W        W73331  44.513  38.982  14.768
  907W        W73332  24.114  42.800  11.601
  908W        W73333   9.607  12.133   4.458
  909W        W73334  19.515  10.554  11.377
  910W        W73335   8.921  33.278   2.281
  911W        W73336  16.582  14.930   0.923
  912W        W73337  10.783  20.117  12.383
  913W        W73338  21.198  14.200  13.365
  914W        W73339  11.729  28.616  12.000
  915W        W73340  10.227   7.168  10.132
  916W        W73341  40.024  21.545   4.598
  917W        W73342  15.139  39.456  14.014
  918W        W73343  12.311  35.410   2.148
  919W        W73344  44.649  21.811  10.571
  920W        W73345   6.866  34.382   4.117
  921W        W73346  44.224  34.456   0.837
  922W        W73347  39.908  35.600   1.209
  923W        W73348  39.545   5.308  12.341
  924W        W73349  34.480  30.498   3.675
  925W        W73350  13.194   1.236   4.708
  926W        W73351  25.916  24.156   0.765
  927W        W73352  13.071   9.342  11.672
  928W        W73353  25.617  29.629  13.905
  929W        W73354  41.556  43.969  11.448
  930W        W73355  31.609  17.835  13.072
  931W        W73356  44.281  19.436  14.527
  932W        W73357  17.308  19.042   0.853
  933W        W73358  18.519  35.648   2.714
  934W        W73359   9.733  26.308  11.975
  935W        W73360  33.723   3.732   4.856
  936W        W73361   5.276   1.210  13.474
  937W        W73362  21.689  14.090  14.750
  938W        W73363  35.887  36.139   4.287
  939W        W73364  23.925  14.298  10.595
  940W        W73365  19.043  21.035   1.860
  941W        W73366  33.218  25.075   2.760
  942W        W73367  28.230  22.187  10.368
  943W        W73368  35.624  37.792   0.720
  944W        W73369   5.302  38.991   4.277
  945W        W73370   2.923  17.036   2.429
  946W        W73371  42.064  14.721   2.712
  947W        W73372  40.958  34.813  12.784
  948W        W73373  14.646   3.794  14.163
  949W        W73374  37.746  16.203  11.945
  950W        W73375  39.725   7.854   3.733
  951W        W73376  29.191  27.538  13.055
  952W        W73377  41.404  40.838  11.853
  953W        W73378   6.876  22.097   1.663
  954W        W73379  11.134  36.111  13.743
  955W        W73380  24.030  18.310   0.871
  956W        W73381  23.616  39.412   2.253
  957W        W73382   6.727  33.527   3.584
  958W        W73383  30.122  11.374  11.735
  959W        W73384   1.330   0.867   2.403
  960W        W73385   5.369  10.270   4.631
  961W        W73386  10.768  42.434   4.260
  962W        W73387  26.422  20.836   3.815
  963W        W73388  29.385  44.768   1.221
  964W        W73389  19.011  44.492   4.147
  965W        W73390  34.464  14.354  14.792
  966W        W73391  28.655  23.496  12.030
  967W        W73392  44.063  40.091   1.736
  968W        W73393  15.396  35.392   3.685
  969W        W73394  33.699  20.419   3.595
  970W        W73395  26.853  42.825   2.280
  971W        W73396  25.770   2.691  13.440
  972W        W73397  30.906  16.627  14.766
  973W        W73398   4.320  26.191   2.160
  974W        W73399  15.408  22.150  12.469
  975W        W73400  29.433  33.194  11.708
  976W        W73401   9.600   3.198  12.153
  977W        W73402  13.520  21.604   5.225
  978W        W73403   5.276  41.093  11.558
  979W        W73404  18.670   3.565   1.703
  980W        W73405  11.329  32.087  11.926
  981W        W73406  12.054  44.142  13.531
  982W        W73407  40.721  11.590  11.858
  983W        W73408  19.137  29.970  11.161
  984W        W73409  21.946  24.191  11.183
  985W        W73410   2.283  35.174  14.955
  986W        W73411   6.608  12.933  11.181
  987W        W73412  40.388  37.883  14.951
  988W        W73413   1.454  12.174  13.745
  989W        W73414  38.204   7.347  13.985
  990W        W73415  11.213  31.104   0.720
  991W        W73416  27.182  38.151   4.259
  992W        W73417  37.505  41.636   1.402
  993W        W73418  29.606  25.114   2.811
  994W        W73419  13.284  23.991  11.932
  995W        W73420   9.762  14.296  11.616
  996W        W73421  11.724  16.542  11.931
  997W        W73422  34.643   7.381   3.164
  998W        W73423  32.913  37.408   4.622
  999W        W73424  24.251  20.679   4.064
 1000W        W73425  16.532  22.595   3.765
 1001W        W73426   7.200  23.953  12.147
 1002W        W73427  37.622   9.150  11.031
 1003W        W73428  31.603  16.336   2.364
 1004W        W73429  25.660  32.834   5.374
 1005W        W73430  25.280   9.260  14.527
 1006W        W73431  36.941  37.964   1.845
 1007W        W73432  32.989  27.219  14.640
 1008W        W73433  29.647   8.724   3.654
 1009W        W73434  16.793  20.829   0.647
 1010W        W73435   9.747  31.869   0.384
 1011W        W73436  26.340  30.114   0.013
 1012W        W73437  24.781  26.864  13.378
 1013W        W73438  39.030   1.967   2.763
 1014W        W73439  26.723  22.266   4.553
 1015W        W73440  21.977   6.082   2.216
 1016W        W73441  34.395   1.504  10.775
 1017W        W73442  32.402  26.440  14.216
 1018W        W73443   0.476  15.719   3.855
 1019W        W73444  14.051  33.130   1.748
 1020W        W73445  24.890  30.022  14.313
 1021W        W73446  42.913  36.432  11.679
 1022W        W73447   8.784  41.368   0.009
 1023W        W73448  12.292   5.733   2.641
 1024W        W73449   1.202  24.968  11.862
 1025W        W73450   2.326  28.116   0.716
 1026W        W73451  10.201  24.178   3.879
 1027W        W73452   4.250   2.753   2.665
 1028W        W73453  31.240  35.873  13.605
 1029W        W73454  39.839  10.115   1.288
 1030W        W73455  28.745  21.040  13.414
 1031W        W73456  17.293   2.506   2.601
 1032W        W73457  23.543   9.867   1.293
 1033W        W73458  44.366   1.686   3.847
 1034W        W73459  20.099  11.137   1.052
 1035W        W73460  14.244  15.147   0.492
 1036W        W73461  36.000  18.500  13.946
 1037W        W73462  38.278   0.016   4.130
 1038W        W73463  10.119  40.539  13.888
 1039W        W73464  36.630  15.351   4.383
 1040W        W73465  29.991  12.332  14.409
 1041W        W73466  30.538  31.992   0.848
 1042W        W73467  40.790   5.739   2.267
 1043W        W73468  26.926  44.072   0.866
 1044W        W73469  10.192  42.139  12.392
 1045W        W73470  15.071  26.485  12.587
 1046W        W73471  31.555   5.318  13.359
 1047W        W73472  24.290  20.772  11.087
 1048W        W73473  17.627  34.483   3.831
 1049W        W73474  12.861  19.523  12.075
 1050W        W73475   0.394  30.945   0.398
 1051W        W73476  36.378  29.744  14.094
 1052W        W73477  20.776  38.001  13.838
 1053W        W73478  38.868  42.780   3.211
 1054W        W73479  29.490  22.652  10.288
 1055W        W73480   5.455  44.445   3.887
 1056W        W73481  39.817  11.377  13.808
 1057W        W73482  25.032  26.997  11.209
 1058W        W73483  20.205  38.605  13.323
 1059W        W73484  41.712  11.521  14.197
 1060W        W73485   7.238  34.922  12.960
 1061W        W73486  20.152  34.306  10.995
 1062W        W73487  26.192  37.410  14.751
 1063W        W73488  12.642  26.447   4.252
 1064W        W73489  29.446  38.130   4.456
 1065W        W73490  42.042   9.130   4.114
 1066W        W73491  30.994  12.398  11.697
 1067W        W73492  23.778  44.860  12.892
 1068W        W73493  30.451  20.041  12.179
 1069W        W73494  35.038  34.512   0.773
 1070W        W73495  13.649  30.735   3.171
 1071W        W73496   8.441  10.673  11.285
 1072W        W73497  43.392  28.512   1.501
 1073W        W73498  23.496   9.750  10.588
 1074W        W73499  17.853   3.523   1.277
 1075W        W73500  16.801  39.890   3.764
 1076W        W73501   1.324   6.190   1.984
 1077W        W73502   2.158  18.930   1.778
 1078W        W73503  28.135  13.603   4.152
 1079W        W73504   6.375  20.489  11.173
 1080W        W73505  43.680   4.371   1.372
 1081W        W73506  43.011   4.238  14.832
 1082W        W73507  22.352  12.828   2.299
 1083W        W73508  30.957  27.266  13.169
 1084W        W73509  14.349  38.870   3.187
 1085W        W73510  41.701   8.758   3.135
 1086W        W73511  14.575   8.709  14.348
 1087W        W73512  36.092  41.029   0.727
 1088W        W73513  36.791   0.778   1.766
 1089W        W73514  14.571  37.701   1.443
 1090W        W73515  34.140   3.851  12.548
 1091W        W73516  28.692  30.401  11.471
 1092W        W73517  40.777  30.981   1.560
 1093W        W73518  43.320  18.117   0.678
 1094W        W73519  23.291   4.192   4.300
 1095W        W73520  35.426  14.644   2.162
 1096W        W73521  36.724  41.883  12.291
 1097W        W73522  27.723   1.755   2.775
 1098W        W73523  11.069  22.640  12.261
 1099W        W73524  41.066  17.188  14.058
 1100W        W73525  24.570   6.149   2.305
 1101W        W73526  10.833  15.059  11.144
 1102W        W73527  28.593  24.251   1.012
 1103W        W73528  14.082   4.729   1.339
 1104W        W73529  25.215  20.483  11.151
 1105W        W73530  24.701  13.089  10.673
 1106W        W73531  12.743  34.966  11.601
 1107W        W73532  43.388  40.853  11.105
 1108W        W73533  19.739  28.246   0.291
 1109W        W73534  24.943  15.788  10.543
 1110W        W73535   4.478  16.298  10.563
 1111W        W73536  19.794  21.555  13.452
 1112W        W73537  16.377   0.070  14.391
 1113W        W73538  42.551  14.706  11.210
 1114W        W73539  36.059  23.989  14.338
 1115W        W73540  20.612  14.699   4.242
 1116W        W73541  33.813   3.888  12.974
 1117W        W73542  31.323   8.013  11.990
 1118W        W73543  15.131  36.616  14.078
 1119W        W73544  38.413  27.154   1.227
 1120W        W73545   2.750   5.674   4.477
 1121W        W73546  13.836  33.863   1.874
 1122W        W73547  32.349  21.693   1.395
 1123W        W73548  15.762  37.079  12.803
 1124W        W73549  40.855  41.530   1.371
 1125W        W73550   2.138  22.137   0.941
 1126W        W73551  19.234  30.482   2.090
 1127W        W73552  21.682  39.818  13.029
 1128W        W73553   2.312  43.306   0.182
 1129W        W73554  15.416  41.534  14.937
 1130W        W73555  35.335  30.456  14.888
 1131W        W73556  41.799   3.058  10.280
 1132W        W73557  38.244   9.863  13.780
 1133W        W73558  43.242  20.958   3.692
 1134W        W73559  10.862  41.538  14.568
 1135W        W73560  10.982  31.299  13.434
 1136W        W73561  40.110   8.236  14.795
 1137W        W73562  23.815  10.312   5.127
 1138W        W73563  39.078   4.501  13.990
 1139W        W73564  32.379  22.681   0.378
 1140W        W73565   6.965  37.763  14.135
 1141W        W73566  10.849  23.186   9.922
 1142W        W73567  43.973   9.410   4.058
 1143W        W73568  33.987  41.997  11.155
 1144W        W73569   2.276  17.611  10.495
 1145W        W73570  22.971  32.296   1.535
 1146W        W73571   9.970   6.174   3.618
 1147W        W73572  22.373  38.926  13.512
 1148W        W73573  17.768  26.657   0.520
 1149W        W73574   6.805  31.377  11.443
 1150W        W73575  28.826  42.241   0.208
 1151W        W73576  31.529  15.845  11.386
 1152W        W73577   1.951  29.853   0.681
 1153W        W73578  36.573   1.828   3.384
 1154W        W73579   0.289  12.881   1.818
 1155W        W73580  14.576  30.115   1.739
 1156W        W73581  28.428  19.151   3.862
 1157W        W73582  30.625  14.726   3.847
 1158W        W73583  18.119  23.228  14.742
 1159W        W73584   8.615  23.074  14.410
 1160W        W73585  20.740   9.320   1.261
 1161W        W73586  17.288  38.155  13.944
 1162W        W73587  25.952  23.729  12.481
 1163W        W73588  42.584  20.063   4.669
 1164W        W73589  27.206  33.598  14.224
 1165W        W73590  21.033  17.954   0.875
 1166W        W73591  24.580   9.690  13.914
 1167W        W73592  30.673  29.577  13.840
 1168W        W73593  42.452  14.521   4.823
 1169W        W73594  44.553  24.602  11.199
 1170W        W73595  11.282  28.600   2.667
 1171W        W73596  42.564  34.467  13.061
 1172W        W73597  43.596   8.793   3.754
 1173W        W73598  23.616   6.395  10.765
 1174W        W73599   0.504  39.130   4.477
 1175W        W73600  18.184  40.796  12.034
 1176W        W73601  27.956  37.112   0.937
 1177W        W73602  35.314  22.110   4.349
 1178W        W73603   3.068  17.998  12.423
 1179W        W73604  30.572  37.364  14.719
 1180W        W73605  29.487  11.011   1.491
 1181W        W73606  17.295   1.281   4.095
 1182W        W73607  39.484  44.844  12.079
 1183W        W73608  35.092  38.920  12.107
 1184W        W73609  44.866  28.633   0.426
 1185W        W73610  34.817  24.179  14.296
 1186W        W73611  40.020  32.893   4.291
 1187W        W73612   2.027  23.630  10.298
 1188W        W73613   9.087  40.212   1.537
 1189W        W73614  31.335   3.027  13.786
 1190W        W73615  40.335  42.692  10.330
 1191W        W73616   5.434  17.947   3.371
 1192W        W73617  22.135  22.309   1.411
 1193W        W73618  26.730  26.232  14.080
 1194W        W73619  29.608  23.052   4.450
 1195W        W73620  35.582  15.231  13.106
 1196W        W73621  33.159  40.328  13.262
 1197W        W73622   1.835  36.360   2.798
 1198W        W73623  43.972   8.717   1.812
 1199W        W73624   3.459  18.602   0.308
 1200W        W73625  44.400  41.836  12.389
 1201W        W73626   0.214  39.870   1.302
 1202W        W73627  30.688  20.542  13.427
 1203W        W73628  41.956  20.939  12.078
 1204W        W73629  39.775  22.185   0.245
 1205W        W73630  39.578  15.386   0.509
 1206W        W73631  23.661  30.591   3.127
 1207W        W73632  41.003  10.630  12.044
 1208W        W73633  39.453  13.709  12.759
 1209W        W73634   6.390   3.833  13.880
 1210W        W73635  18.879  19.840   3.308
 1211W        W73636  26.724  13.063   4.552
 1212W        W73637  15.696  41.914   2.231
 1213W        W73638  12.803  14.255  11.127
 1214W        W73639   1.496  39.733  11.856
 1215W        W73640  35.153  40.707   1.448
 1216W        W73641  24.128  27.569  12.602
 1217W        W73642  35.859  28.323   1.127
 1218W        W73643   5.146  24.366  13.968
 1219W        W73644  13.799  17.233   1.366
 1220W        W73645  32.907   0.918  13.290
 1221W        W73646  10.781  40.114  10.708
 1222W        W73647  44.541  31.486   9.791
 1223W        W73648   2.427  23.534  10.660
 1224W        W73649  37.379  18.092  12.091
 1225W        W73650  38.648  16.577   1.378
 1226W        W73651   1.741   5.767  10.694
 1227W        W73652  27.187  10.386   1.317
 1228W        W73653  17.956  24.680  11.171
 1229W        W73654  28.413   1.095  11.626
 1230W        W73655  30.863  21.304   1.289
 1231W        W73656   0.330  16.127  14.553
 1232W        W73657  17.833  40.783   3.202
 1233W        W73658  20.664  30.967   0.690
 1234W        W73659  28.914   3.167   3.191
 1235W        W73660  14.289  35.545  13.408
 1236W        W73661  30.610  27.730  11.400
 1237W        W73662  29.517  18.273  12.981
 1238W        W73663   1.815   6.436   4.360
 1239W        W73664  25.082  44.532  11.378
 1240W        W73665  18.268  30.602  12.774
 1241W        W73666   8.921   5.449   3.363
 1242W        W73667   6.299   3.919   0.855
 1243W        W73668  20.613  41.790  13.498
 1244W        W73669  42.597   8.635   1.693
 1245W        W73670   5.005  29.095  11.651
 1246W        W73671  31.430  11.116   2.454
 1247W        W73672  12.269  40.032   2.062
 1248W        W73673  14.691  26.760  13.959
 1249W        W73674  20.070  33.533   0.942
 1250W        W73675  17.789  27.911   0.831
 1251W        W73676  22.253   2.707  13.481
 1252W        W73677  28.995  21.785   0.309
 1253W        W73678   1.214  44.494  14.556
 1254W        W73679  41.726  41.304   3.184
 1255W        W73680  33.446   5.022  14.951
 1256W        W73681   7.264   9.927   4.334
 1257W        W73682  17.893  31.889   3.237
 1258W        W73683   6.357  15.176   2.223
 1259W        W73684  19.929  13.293   4.756
 1260W        W73685  36.255  23.740  11.656
 1261W        W73686  35.197  44.870   2.694
 1262W        W73687  42.307  43.105  12.686
 1263W        W73688  16.375  33.945  14.468
 1264W        W73689  26.042  21.266  10.357
 1265W        W73690  43.561  18.281  14.405
 1266W        W73691  10.892   1.948   2.817
 1267W        W73692  43.223  35.305  13.073
 1268W        W73693   5.819  42.273   3.787
 1269W        W73694   9.376   9.398  11.664
 1270W        W73695  39.534  19.122   3.238
 1271W        W73696  36.381   5.858  13.874
 1272W        W73697  21.290  38.369   0.549
 1273W        W73698  36.550  16.270   4.255
 1274W        W73699  40.261   1.414  12.886
 1275W        W73700  37.363  20.760  12.181
 1276W        W73701  21.742  30.974  11.459
 1277W        W73702   4.028  29.466  12.478
 1278W        W73703  21.603  38.746   2.358
 1279W        W73704   8.124  19.709  13.530
 1280W        W73705  30.971   1.033  12.985
 1281W        W73706  35.032  25.602  12.058
 1282W        W73707  13.883  40.459   0.292
 1283W        W73708   2.564  12.875   0.921
 1284W        W73709  43.468  25.965   2.705
 1285W        W73710  37.533  24.930  10.762
 1286W        W73711  25.794  28.823  14.512
 1287W        W73712  11.124   5.611   4.841
 1288W        W73713  15.777  33.189  10.284
 1289W        W73714  24.772  41.498   0.907
 1290W        W73715  27.625  43.424   2.271
 1291W        W73716  38.428  42.571  10.812
 1292W        W73717  22.186  21.815  12.032
 1293W        W73718  12.173  35.361   1.149
 1294W        W73719  39.954   9.901   4.041
 1295W        W73720  23.886  14.292   3.473
 1296W        W73721  34.532   1.941   3.295
 1297W        W73722  13.665  33.180   3.193
 1298W        W73723  37.469  39.361  14.229
 1299W        W73724   1.235  30.495  14.074
 1300W        W73725  26.672  18.527   4.598
 1301W        W73726  42.232  25.955  11.627
 1302W        W73727  35.532  23.952  14.910
 1303W        W73728  27.457  34.981   1.207
 1304W        W73729  12.208  21.142  11.715
 1305W        W73730   9.390  42.974   2.731
 1306W        W73731  25.078  30.664  11.956
 1307W        W73732  36.879  12.404  14.845
 1308W        W73733  42.009  22.867  11.550
 1309W        W73734  29.095  11.353   1.638
 1310W        W73735   8.869   7.648   0.490
 1311W        W73736  22.785  23.976  14.948
 1312W        W73737   7.398  41.907  14.332
 1313W        W73738  18.285  10.074   1.304
 1314W        W73739  11.546  42.187  10.634
 1315W        W73740  35.606  15.109  12.611
 1316W        W73741  18.346  15.267   3.314
 1317W        W73742  37.646  29.433   0.410
 1318W        W73743  42.436   0.251  13.394
 1319W        W73744  21.211  31.521  12.679
 1320W        W73745  42.170   5.721  12.152
 1321W        W73746  14.678  29.343   3.185
 1322W        W73747  28.911   5.785  12.075
 1323W        W73748  17.678  20.418   4.521
 1324W        W73749  22.208   7.010   4.020
 1325W        W73750   8.210  38.129  11.801
 1326W        W73751  20.487   7.811  10.771
 1327W        W73752   8.365  38.370   2.898
 1328W        W73753  41.834   8.965   4.937
 1329W        W73754  29.501  13.811   3.298
 1330W        W73755  17.070  34.143  11.126
 1331W        W73756  23.898  23.047   4.742
 1332W        W73757  22.750  33.317   3.256
 1333W        W73758  25.141  19.324   0.913
 1334W        W73759  23.315  36.608  11.993
 1335W        W73760  19.578  33.023   0.787
 1336W        W73761  27.880  33.918  12.134
 1337W        W73762  42.494  29.501   4.050
 1338W        W73763  43.848  39.851  12.930
 1339W        W73764  25.439  27.794   0.016
 1340W        W73765   7.546  17.004   3.758
 1341W        W73766  34.352  12.733   3.938
 1342W        W73767  28.513  25.645   4.725
 1343W        W73768   4.786  31.376   2.953
 1344W        W73769  33.905  11.824   3.086
 1345W        W73770  30.239  32.856   0.822
 1346W        W73771  22.734  16.851   3.750
 1347W        W73772   1.285  17.514   0.847
 1348W        W73773  10.385  33.646   4.539
 1349W        W73774  10.914   5.660   3.189
 1350W        W73775  25.437  20.645   4.598
 1351W        W73776  28.577   9.569   1.004
 1352W        W73777  12.179  11.844  12.979
 1353W        W73778   0.525   1.817   1.586
 1354W        W73779  26.045  27.560   1.476
 1355W        W73780  40.789  41.926  12.422
 1356W        W73781  26.673  28.233  12.403
 1357W        W73782  32.136   5.345   1.801
 1358W        W73783   1.879   0.593   0.800
 1359W        W73784  15.524  40.054  13.256
 1360W        W73785  16.359  36.072  12.492
 1361W        W73786  21.609   0.634  12.342
 1362W        W73787  25.633  27.917  12.349
 1363W        W73788  22.496  38.364  13.321
 1364W        W73789  21.544   3.439  14.162
 1365W        W73790  11.863  34.477  14.285
 1366W        W73791  24.743  12.226   1.784
 1367W        W73792   0.826   6.837  10.012
 1368W        W73793  18.484  18.326   1.910
 1369W        W73794  44.911  25.588   4.626
 1370W        W73795  26.139  30.854   2.099
 1371W        W73796  31.338  27.591   3.724
 1372W        W73797   4.933  12.604  14.353
 1373W        W73798  21.520  30.845   4.611
 1374W        W73799  24.477  32.627   0.186
 1375W        W73800  15.135  32.158  14.404
 1376W        W73801  31.125  18.043  12.981
 1377W        W73802  33.613  28.411   1.234
 1378W        W73803  39.805  26.164  13.334
 1379W        W73804  41.458  34.126   2.792
 1380W        W73805  26.535  11.733   3.067
 1381W        W73806  24.041  11.826   0.228
 1382W        W73807  17.919  24.010   4.663
 1383W        W73808  16.337  14.301   2.184
 1384W        W73809  23.301  35.420   3.354
 1385W        W73810  23.487  31.771  11.908
 1386W        W73811  11.711  18.114   3.666
 1387W        W73812  42.298  24.435   2.341
 1388W        W73813  29.590  30.071  13.726
 1389W        W73814   5.213   6.256   0.876
 1390W        W73815  32.902   4.096   4.931
 1391W        W73816   2.989  37.389   0.317
 1392W        W73817  17.608  20.035   2.328
 1393W        W73818  21.089  11.600  10.326
 1394W        W73819  41.912  37.486   4.959
 1395W        W73820  35.383  26.544  13.872
 1396W        W73821  22.609  17.250   2.151
 1397W        W73822  43.519  32.988   0.524
 1398W        W73823  10.252  36.098   1.217
 1399W        W73824  19.224  31.738   1.162
 1400W        W73825   6.881  21.018  11.605
 1401W        W73826  24.112  31.793  10.247
 1402W        W73827  24.931  19.567  12.493
 1403W        W73828  16.325  41.301   2.490
 1404W        W73829   7.241  30.692  11.145
 1405W        W73830  14.649  27.259   4.673
 1406W        W73831   5.974  41.602  12.009
 1407W        W73832  16.422  30.827   2.928
 1408W        W73833   8.117  34.135  14.244
 1409W        W73834   4.135  25.064  10.630
 1410W        W73835  25.665  21.483  13.378
 1411W        W73836  30.766   7.885  14.511
 1412W        W73837  12.130  11.354  10.483
 1413W        W73838  41.239  32.987   0.488
 1414W        W73839  20.226   3.205  13.550
 1415W        W73840  32.524   1.659   4.049
 1416W        W73841  31.950  29.961   1.866
 1417W        W73842   1.200   6.773  14.895
 1418W        W73843   0.861  25.390   3.182
 1419W        W73844   1.973  25.363  13.047
 1420W        W73845   5.598  38.928   4.720
 1421W        W73846   6.792  34.974  13.930
 1422W        W73847  40.387  27.771  13.292
 1423W        W73848  42.222   9.861   4.000
 1424W        W73849  31.737  30.135   2.855
 1425W        W73850  23.186  42.248   0.263
 1426W        W73851  42.317  38.475   0.644
 1427W        W73852  21.717  28.041  10.661
 1428W        W73853  35.739   2.128  11.186
 1429W        W73854  26.194  28.179  10.702
 1430W        W73855  24.856  12.073  10.912
 1431W        W73856  35.042   0.929  13.340
 1432W        W73857  38.490  36.438  14.037
 1433W        W73858  21.684  41.002   4.563
 1434W        W73859  17.690  28.936  11.902
 1435W        W73860  28.580  44.412  13.399
 1436W        W73861  22.183   9.250   3.556
 1437W        W73862  12.669   3.251  14.533
 1438W        W73863  38.510  42.644  11.309
 1439W        W73864  25.667  17.166  11.951
 1440W        W73865  27.913   2.634  12.877
 1441W        W73866  35.416   2.903   0.315
 1442W        W73867  42.707  21.476   0.084
 1443W        W73868   0.075   7.379  13.149
 1444W        W73869  37.474  15.599  11.585
 1445W        W73870  13.159  37.501  10.204
 1446W        W73871  43.532  27.011  13.487
 1447W        W73872  28.266   8.357   4.139
 1448W        W73873  19.284  37.420   4.982
 1449W        W73874  35.548  23.559   0.777
 1450W        W73875  26.582   4.515   3.200
 1451W        W73876   2.891  44.775  14.081
 1452W        W73877   1.669  40.526  12.941
 1453W        W73878  36.570   2.815  10.638
 1454W        W73879  14.117  18.250   3.758
 1455W        W73880  36.044   6.844  10.549
 1456W        W73881   6.372   7.328   4.107
 1457W        W73882  23.341  37.758  13.200
 1458W        W73883  13.752   6.712   2.324
 1459W        W73884   9.385  21.057   2.194
 1460W        W73885  18.568  14.540   0.949
 1461W        W73886  18.128   2.294   4.686
 1462W        W73887  19.348  33.047  13.928
 1463W        W73888  23.654  20.739  13.361
 1464W        W73889  22.661  34.183  11.105
 1465W        W73890  15.344  27.995   3.523
 1466W        W73891   5.154  22.332   3.057
 1467W        W73892  37.575   9.864  10.486
 1468W        W73893   8.191  13.901  14.056
 1469W        W73894  43.273  35.951  14.446
 1470W        W73895  21.678  32.592   1.205
 1471W        W73896  26.843  17.648  12.495
 1472W        W73897  22.554  30.897   2.688
 1473W        W73898  29.353   5.121   1.845
 1474W        W73899   1.173   8.388  13.760
 1475W        W73900  15.397  23.773   4.938
 1476W        W73901  20.608  19.767  11.943
 1477W        W73902  19.753  28.614   4.263
 1478W        W73903   9.906  29.105   1.426
 1479W        W73904  43.949   3.575   3.717
 1480W        W73905  37.427  38.554   4.201
 1481W        W73906  38.820  12.628  12.881
 1482W        W73907   9.733  31.538  12.708
 1483W        W73908  31.148   4.310   3.623
 1484W        W73909  13.219   3.214   2.855
 1485W        W73910   5.630  40.857   1.487
 1486W        W73911  18.993  18.346   1.757
 1487W        W73912  35.790  10.678   4.587
 1488W        W73913  35.001  14.623  11.611
 1489W        W73914  20.258  32.853  13.509
 1490W        W73915  26.775  43.802  13.071
 1491W        W73916  30.955  12.260  13.060
 1492W        W73917  33.067  18.603   2.601
 1493W        W73918  37.964  28.896  14.915
 1494W        W73919  35.166  37.024   1.817
 1495W        W73920  27.599  21.714  10.221
 1496W        W73921  16.102  23.369  13.612
 1497W        W73922  42.398   6.928  14.667
 1498W        W73923  34.951  35.538   0.901
 1499W        W73924  21.638  15.306   3.637
 1500W        W73925   3.672  36.968  12.379
 1501W        W73926  15.573  35.565  14.377
 1502W        W73927  26.923  26.125   3.610
 1503W        W73928   5.663   0.296   4.117
 1504W        W73929  10.683  11.225   1.395
 1505W        W73930  23.511  43.835   2.267
 1506W        W73931  42.893  16.839   4.398
 1507W        W73932   6.232   4.739  14.047
 1508W        W73933   4.848  24.052  14.283
 1509W        W73934   9.354   6.325   3.083
 1510W        W73935   0.409  43.346   3.332
 1511W        W73936  17.823  13.234   4.595
 1512W        W73937  28.152  32.994   0.999
 1513W        W73938  12.631  22.996  14.371
 1514W        W73939  30.557  43.915   2.653
 1515W        W73940  11.067  33.475   0.798
 1516W        W73941  28.340   2.560  14.515
 1517W        W73942  19.862   3.550   0.936
 1518W        W73943  19.010   3.839  11.409
 1519W        W73944  39.587  28.044  12.111
 1520W        W73945  16.514  35.545  13.967
 1521W        W73946  27.248  12.247   4.486
 1522W        W73947  27.008  39.045   1.753
 1523W        W73948  43.311  40.862  11.605
 1524W        W73949  37.588  11.594   3.793
 1525W        W73950  21.231  42.800   2.882
 1526W        W73951  43.130  23.305   4.288
 1527W        W73952  28.663  30.691  14.462
 1528W        W73953  43.395  29.021   1.619
 1529W        W73954  30.742  44.483   1.780
 1530W        W73955  40.921  33.058  14.508
 1531W        W73956  23.561   0.476  13.425
 1532W        W73957  38.335  24.005   3.803
 1533W        W73958  39.477  14.284  13.096
 1534W        W73959  39.450  23.339  13.954
 1535W        W73960  23.807  14.668  14.251
 1536W        W73961  44.000   2.439  13.780
 1537W        W73962  34.476  11.736   4.391
 1538W        W73963  39.823  23.421   1.560
 1539W        W73964  21.046  17.095   2.740
 1540W        W73965  13.056  35.365   1.309
 1541W        W73966  17.774   2.841  13.399
 1542W        W73967  25.749   4.871  10.552
 1543W        W73968  43.912  43.043   0.267
 1544W        W73969  32.036  43.513  11.608
 1545W        W73970  44.583  39.632  11.441
 1546W        W73971  22.154  26.190   3.793
 1547W        W73972  38.365   8.735  11.986
 1548W        W73973   2.025  31.115   0.078
 1549W        W73974   8.243   3.098  13.349
 1550W        W73975  26.884   6.811   2.654
 1551W        W73976   0.183  42.353   0.906
 1552W        W73977  25.351  34.203   1.315
 1553W        W73978  16.139  40.941  14.513
 1554W        W73979  38.499  41.506   3.061
 1555W        W73980  26.265  27.057   3.164
 1556W        W73981  29.435  41.437  11.373
 1557W        W73982  14.308  12.561   2.338
 1558W        W73983  10.531  17.335  12.134
 1559W        W73984  30.450  43.908   0.966
 1560W        W73985  38.321  37.876  11.523
 1561W        W73986  15.298   5.928   4.530
 1562W        W73987  37.532   2.310   2.420
 1563W        W73988  26.571  28.507  12.867
 1564W        W73989  18.081  34.862   9.610
 1565W        W73990   2.478  18.432  11.118
 1566W        W73991   1.235  37.914   1.242
 1567W        W73992   6.652  15.801  13.816
 1568W        W73993  29.919   4.210  14.146
 1569W        W73994  26.481  29.163  12.043
 1570W        W73995  17.124  32.386  14.752
 1571W        W73996   0.954  14.406  12.626
 1572W        W73997  36.511   4.968   1.295
 1573W        W73998  26.751  37.635   3.732
 1574W        W73999  13.137  14.034  12.380
 1575W        W74000  15.409  20.148   3.537
 1576W        W74001  37.032   9.591   4.179
 1577W        W74002  44.704  36.242  11.210
 1578W        W74003   3.996  27.065   1.096
 1579W        W74004  13.737  19.962   1.770
 1580W        W74005  11.669   1.957   3.451
 1581W        W74006  22.931  35.745  14.033
 1582W        W74007  37.661  29.622  12.495
 1583W        W74008   1.800  29.478  14.545
 1584W        W74009   5.648  30.842   2.740
 1585W        W74010   3.357   3.228   2.117
 1586W        W74011  31.490  21.019   3.798
 1587W        W74012  22.712  23.196   0.696
 1588W        W74013  22.528  40.595   1.874
 1589W        W74014  42.273  34.214   2.199
 1590W        W74015   7.425   0.443   4.738
 1591W        W74016  29.127   6.947  14.875
 1592W        W74017  29.712  25.607  12.341
 1593W        W74018  12.716   3.726  11.855
 1594W        W74019  34.683  41.291  13.972
 1595W        W74020  25.090  40.966  14.614
 1596W        W74021   8.318  10.551  12.514
 1597W        W74022  39.333  10.615  10.417
 1598W        W74023   5.479  41.561   4.142
 1599W        W74024  41.989   9.397  14.407
 1600W        W74025  17.562  28.668   0.822
 1601W        W74026  43.735  21.854  14.414
 1602W        W74027  13.424  29.486  14.872
 1603W        W74028  24.246  10.846   4.425
 1604W        W74029   1.398  22.240  13.301
 1605W        W74030   7.829  14.395   1.869
 1606W        W74031  42.323  31.010   1.263
 1607W        W74032  22.010  32.967   0.020
 1608W        W74033  19.193  15.862  12.429
 1609W        W74034  28.384  25.262  13.392
 1610W        W74035  33.551   5.404   4.708
 1611W        W74036  40.112   9.154  12.564
 1612W        W74037  13.168  14.569  12.193
 1613W        W74038  18.575  34.208   3.795
 1614W        W74039   8.995  43.531   4.179
 1615W        W74040  23.662   4.934   3.874
 1616W        W74041   7.838  17.294   3.330
 1617W        W74042   9.182   9.956   0.049
 1618W        W74043  15.523  14.985  14.055
 1619W        W74044   8.923  37.569   4.208
 1620W        W74045  41.806  38.905  12.083
 1621W        W74046  32.980  13.719  14.864
 1622W        W74047   0.672   7.679  14.945
 1623W        W74048  22.994  12.624  10.793
 1624W        W74049   8.188  29.803   2.927
 1625W        W74050  39.805  38.569   0.442
 1626W        W74051  37.070  27.383  14.952
 1627W        W74052   8.284  11.715   1.944
 1628W        W74053   8.775  44.545  13.815
 1629W        W74054  27.613  25.538   0.781
 1630W        W74055  44.060  16.586  12.104
 1631W        W74056  19.582   4.230  12.497
 1632W        W74057   6.958   1.318   3.704
 1633W        W74058  21.262  32.535   0.903
 1634W        W74059  13.636   7.235   2.274
 1635W        W74060  42.387  20.297  14.845
 1636W        W74061  38.524  21.062  12.098
 1637W        W74062  10.804  11.910  14.002
 1638W        W74063  22.464  36.063  12.079
 1639W        W74064   1.852   0.873  11.335
 1640W        W74065  10.528  37.817  14.495
 1641W        W74066  12.892  42.075   0.460
 1642W        W74067  35.307  31.671  14.925
 1643W        W74068  18.771  22.278  12.560
 1644W        W74069   8.232  38.040  14.517
 1645W        W74070   5.455  42.363  12.407
 1646W        W74071  39.408  21.031  12.425
 1647W        W74072  22.286  26.762   4.564
 1648W        W74073  12.028  32.420  11.145
 1649W        W74074  19.260  37.051  12.896
 1650W        W74075  29.690  39.380   1.374
 1651W        W74076  12.786   4.249  13.919
 1652W        W74077  38.016  42.885   4.464
 1653W        W74078  33.971  14.566  14.738
 1654W        W74079  36.496   6.516   4.071
 1655W        W74080   4.768  43.767  10.792
 1656W        W74081  33.060  33.684  12.127
 1657W        W74082  20.472   0.692  12.552
 1658W        W74083  39.182  35.052   1.386
 1659W        W74084  41.929   1.283  14.012
 1660W        W74085   2.752  17.434   0.199
 1661W        W74086  12.075  44.592  13.267
 1662W        W74087   0.464  22.098  10.566
 1663W        W74088   8.827  35.060   1.156
 1664W        W74089  21.556  22.175  12.095
 1665W        W74090  40.441   9.373   1.437
 1666W        W74091  24.697  28.644   4.662
 1667W        W74092  31.176   5.276   0.055
 1668W        W74093  15.171   2.153  12.825
 1669W        W74094  29.037  32.308  14.998
 1670W        W74095   3.437  37.870  11.587
 1671W        W74096  13.572  10.363  11.924
 1672W        W74097  11.728   2.355   1.976
 1673W        W74098  40.779  11.167   1.171
 1674W        W74099   9.301  27.515   0.749
 1675W        W74100   8.936   8.176  11.375
 1676W        W74101  13.059  14.045  14.015
 1677W        W74102  42.036  42.451   4.130
 1678W        W74103  31.270  21.732  10.151
 1679W        W74104  43.030  44.815   1.651
 1680W        W74105   5.670   2.434  14.554
 1681W        W74106  44.217  25.252  11.924
 1682W        W74107  13.229  36.523  10.401
 1683W        W74108  13.180  39.141   4.613
 1684W        W74109  17.478  19.096   2.654
 1685W        W74110  42.077  35.420  13.399
 1686W        W74111  20.461  13.620  10.707
 1687W        W74112  18.723  42.601   0.928
 1688W        W74113  25.043  37.533  10.717
 1689W        W74114  17.272  31.346   4.185
 1690W        W74115   7.209  31.961   1.876
 1691W        W74116   0.881   4.140   0.915
 1692W        W74117   8.752   4.907  13.239
 1693W        W74118   7.846  42.965   1.022
 1694W        W74119  27.858   2.346  14.505
 1695W        W74120  33.989  23.583  11.369
 1696W        W74121  42.498  42.652  10.718
 1697W        W74122   7.720   4.046  11.772
 1698W        W74123  21.728  26.236  10.435
 1699W        W74124  10.772  35.000  10.595
 1700W        W74125  32.800  29.642   3.263
 1701W        W74126  26.496  20.100   3.232
 1702W        W74127  29.596   9.230   1.364
 1703W        W74128  24.977  31.949  11.143
 1704W        W74129  39.281  32.915  10.539
 1705W        W74130   3.752  44.453   4.326
 1706W        W74131  13.553  22.391   0.168
 1707W        W74132  43.055  18.719   3.435
 1708W        W74133   6.635  32.168  11.030
 1709W        W74134   3.009   5.847   0.546
 1710W        W74135  17.088   3.991  12.609
 1711W        W74136  42.766  23.608   4.567
 1712W        W74137  39.529  32.559   2.326
 1713W        W74138  31.398   9.147   3.270
 1714W        W74139   0.860   8.535   3.577
 1715W        W74140  33.831  37.511   1.775
 1716W        W74141  34.203  35.485   1.577
 1717W        W74142  41.804  10.713  13.710
 1718W        W74143   7.152  29.175  14.317
 1719W        W74144  39.818  29.055   1.929
 1720W        W74145   8.865  41.867   3.858
 1721W        W74146   4.446  19.828  13.786
 1722W        W74147  43.054  15.742   3.780
 1723W        W74148  27.439  36.973   2.330
 1724W        W74149  25.968  43.579  13.176
 1725W        W74150  35.124  26.976  13.953
 1726W        W74151  22.677  13.228   2.269
 1727W        W74152  32.694   4.846   3.668
 1728W        W74153  27.831  41.916   1.150
 1729W        W74154  10.694  10.409   3.819
 1730W        W74155  13.285  10.251  13.719
 1731W        W74156  12.724  27.192   3.732
 1732W        W74157  27.677  13.157  13.942
 1733W        W74158  26.223  10.148  12.937
 1734W        W74159  22.266  27.103   4.138
 1735W        W74160  44.937  12.107  14.942
 1736W        W74161  22.027  29.450   4.605
 1737W        W74162   1.818  18.542  14.744
 1738W        W74163  33.452  10.829   3.957
 1739W        W74164  25.460  32.246  11.089
 1740W        W74165  30.434  32.565   1.318
 1741W        W74166  25.642   2.228  14.942
 1742W        W74167  23.134   7.155  12.856
 1743W        W74168  13.738   7.706  13.488
 1744W        W74169  11.119  38.292   3.066
 1745W        W74170  21.747  11.387   0.525
 1746W        W74171  14.338  42.334   0.126
 1747W        W74172  29.501  13.291  10.690
 1748W        W74173  39.709  25.959  12.348
 1749W        W74174  19.543  25.249  11.714
 1750W        W74175  12.709  40.132  10.989
 1751W        W74176  15.015  39.131   5.148
 1752W        W74177  40.100  22.132  11.956
 1753W        W74178  30.813  24.291   4.494
 1754W        W74179  14.376  16.506  14.244
 1755W        W74180   7.440  14.772   4.580
 1756W        W74181   4.416   5.718  11.655
 1757W        W74182  44.405  37.005   0.816
 1758W        W74183  13.465   5.779   3.096
 1759W        W74184   2.396   1.474   1.246
 1760W        W74185  29.957   3.844   0.701
 1761W        W74186  27.778  43.898  12.898
 1762W        W74187  34.930  25.323  10.706
 1763W        W74188   3.943   9.187   5.004
 1764W        W74189  16.032   8.877   0.063
 1765W        W74190  39.445  34.223  14.080
 1766W        W74191  17.309  34.240  11.986
 1767W        W74192  37.618  18.726  13.975
 1768W        W74193   0.536   5.422  11.435
 1769W        W74194  27.192  34.111  14.281
 1770W        W74195  12.110  42.085  12.728
 1771W        W74196  27.347   3.811  14.565
 1772W        W74197  44.898  23.312   1.668
 1773W        W74198  31.560   2.214   4.481
 1774W        W74199  27.925  24.941   1.056
 1775W        W74200   1.017  32.440   0.913
 1776W        W74201  15.841   7.216  13.316
 1777W        W74202   1.607  37.917   0.826
 1778W        W74203  33.546  39.068   0.273
 1779W        W74204  36.747  14.746   1.654
 1780W        W74205  40.505  11.654  13.872
 1781W        W74206  12.367  24.768   9.671
 1782W        W74207  43.305  22.314  10.966
 1783W        W74208  35.524  20.528  12.958
 1784W        W74209  31.615  11.802  11.105
 1785W        W74210  21.244   7.600  10.587
 1786W        W74211  41.332  35.873   1.959
 1787W        W74212  31.674   2.402   3.439
 1788W        W74213   2.850  33.559   3.257
 1789W        W74214   3.274  29.482   0.804
 1790W        W74215  27.420  40.534  13.993
 1791W        W74216   2.391  37.583  11.866
 1792W        W74217  14.435  27.177   4.210
 1793W        W74218  20.607   2.871  10.744
 1794W        W74219  32.504   4.300   0.978
 1795W        W74220  32.113  26.536   2.981
 1796W        W74221  29.603   5.203   3.680
 1797W        W74222  14.074   1.978   4.602
 1798W        W74223   5.252  19.522   3.950
 1799W        W74224   8.264  30.129  14.942
 1800W        W74225   4.978   1.928   0.307
 1801W        W74226  42.404  18.355   1.717
 1802W        W74227  28.618  15.202   1.262
 1803W        W74228  17.264   8.659  13.769
 1804W        W74229   9.746  33.469   1.318
 1805W        W74230   1.819  32.184   3.799
 1806W        W74231   4.326  39.904  11.258
 1807W        W74232   6.294  27.131  12.487
 1808W        W74233   4.481  14.267  10.521
 1809W        W74234  24.521  14.810   0.754
 1810W        W74235  18.976  36.142   3.533
 1811W        W74236  40.244  29.460  13.546
 1812W        W74237  39.279  11.201   2.891
 1813W        W74238   8.714  16.316  13.033
 1814W        W74239  21.674  37.644   4.797
 1815W        W74240  21.300  33.890   0.473
 1816W        W74241   4.724  20.438   2.289
 1817W        W74242  31.140  10.911   2.831
 1818W        W74243   7.367  44.362   2.853
 1819W        W74244  18.055   8.222   4.125
 1820W        W74245  11.201   8.440  13.659
 1821W        W74246  22.571  16.545   3.335
 1822W        W74247  31.911  34.361  10.754
 1823W        W74248  17.190  32.627   3.414
 1824W        W74249  17.809  43.964  13.908
 1825W        W74250  20.725   5.294  13.291
 1826W        W74251  39.514  43.627   3.261
 1827W        W74252  26.049  15.191  13.694
 1828W        W74253  43.322   5.178   3.470
 1829W        W74254  15.742  38.495  14.168
 1830W        W74255  24.014  28.934   1.460
 1831W        W74256  30.610  15.302   0.935
 1832W        W74257  36.432  11.773   4.391
 1833W        W74258  19.501   5.130  11.433
 1834W        W74259  20.114  36.168   1.762
 1835W        W74260  31.059  13.116  11.713
 1836W        W74261  21.183  36.060  14.772
 1837W        W74262  41.254  33.845   1.216
 1838W        W74263  11.538  37.663  14.225
 1839W        W74264  39.004  33.404   0.023
 1840W        W74265  44.417  23.212  10.976
 1841W        W74266  16.590  10.959   3.389
 1842W        W74267  13.882  37.391   2.736
 1843W        W74268  22.480  22.203  13.991
 1844W        W74269  35.750  15.805   3.283
 1845W        W74270   7.532  29.216  12.807
 1846W        W74271  14.129  37.946  14.065
 1847W        W74272   5.373  25.633   4.668
 1848W        W74273  39.854   1.947  14.041
 1849W        W74274  39.078  23.427  14.984
 1850W        W74275  37.640  43.632  10.168
 1851W        W74276  17.781  27.070  11.119
 1852W        W74277   8.868   0.986   0.824
 1853W        W74278   5.438   4.928  13.672
 1854W        W74279   3.755  19.568  14.385
 1855W        W74280   3.215  16.109   3.192
 1856W        W74281   0.673  12.621  14.846
 1857W        W74282  28.654  14.865  13.064
 1858W        W74283  40.289   7.103   3.623
 1859W        W74284  19.952  26.994   2.011
 1860W        W74285  28.268  23.756   2.946
 1861W        W74286  18.607   5.733   1.894
 1862W        W74287   9.671  30.241   2.309
 1863W        W74288  23.303  38.484   0.938
 1864W        W74289  33.625  42.029  11.501
 1865W        W74290  17.293   2.524   0.112
 1866W        W74291  35.145   8.628  13.271
 1867W        W74292  36.081  25.402   4.653
 1868W        W74293  12.210   0.445   2.787
 1869W        W74294  42.388   3.023  12.636
 1870W        W74295  43.370  26.416  12.066
 1871W        W74296   1.709  23.121   1.815
 1872W        W74297  18.863  35.169  14.055
 1873W        W74298   6.305   6.954  14.066
 1874W        W74299  34.554  42.944   2.232
 1875W        W74300   7.857  14.574  11.623
 1876W        W74301  18.361  28.505  12.076
 1877W        W74302  21.245  14.117  14.353
 1878W        W74303  20.767  40.483   3.174
 1879W        W74304  27.430  15.118  13.815
 1880W        W74305  30.546  33.130   3.198
 1881W        W74306   7.135  10.216  12.818
 1882W        W74307  32.925   3.073   1.869
 1883W        W74308  13.072  26.358  11.716
 1884W        W74309   8.943   8.265  14.408
 1885W        W74310  28.143  13.351  13.813
 1886W        W74311  44.467  34.072  14.592
 1887W        W74312   1.624  43.993  13.109
 1888W        W74313  23.681  29.153  11.150
 1889W        W74314   7.677  25.788  11.512
 1890W        W74315   3.848   3.790  13.292
 1891W        W74316  39.006  11.009  11.157
 1892W        W74317  18.833  19.637  12.561
 1893W        W74318   0.675  33.206   3.287
 1894W        W74319  28.374  28.421  14.316
 1895W        W74320  34.357  41.345   0.224
 1896W        W74321  39.108  40.552  14.361
 1897W        W74322  12.703  10.072   0.523
 1898W        W74323  11.522  29.609   3.080
 1899W        W74324  32.806  15.498  11.890
 1900W        W74325  18.861  16.402   1.266
 1901W        W74326   1.781  33.432   4.345
 1902W        W74327  39.752  15.698  12.885
 1903W        W74328   5.599  16.583   2.325
 1904W        W74329  34.859   8.675   3.405
 1905W        W74330  14.070  41.381   0.726
 1906W        W74331  20.281   3.923   2.843
 1907W        W74332   3.187  24.062  10.846
 1908W        W74333  41.091  30.527  12.486
 1909W        W74334  39.818   1.841   1.809
 1910W        W74335  23.134   7.213  14.947
 1911W        W74336  20.574   7.317   4.545
 1912W        W74337  30.841   0.789   1.547
 1913W        W74338  43.025  30.180   4.103
 1914W        W74339  19.850   2.299   4.166
 1915W        W74340  32.463   7.450   3.896
 1916W        W74341  30.005  44.756  12.098
 1917W        W74342   8.948  32.767   2.194
 1918W        W74343  33.101  14.922  10.592
 1919W        W74344  36.959  34.453   4.613
 1920W        W74345  42.694  29.640  11.434
 1921W        W74346   0.108  33.981   4.489
 1922W        W74347  17.451  32.451  12.347
 1923W        W74348  20.605  28.462  14.810
 1924W        W74349   6.948  40.479   4.215
 1925W        W74350  19.538  41.058  12.326
 1926W        W74351  16.353  41.143  13.542
 1927W        W74352  19.065  35.064   0.779
 1928W        W74353  13.665  35.584  11.257
 1929W        W74354  42.024  24.768  11.500
 1930W        W74355   6.396  33.618  13.998
 1931W        W74356  36.090   5.944   1.422
 1932W        W74357  26.072  37.908   0.933
 1933W        W74358  40.278  18.275  10.545
 1934W        W74359  27.549   3.075  11.621
 1935W        W74360  26.119  19.786  12.190
 1936W        W74361  30.228  38.015   0.448
 1937W        W74362  19.409  38.348  11.476
 1938W        W74363   1.955  38.372  12.374
 1939W        W74364  16.285  15.183   2.240
 1940W        W74365  30.860  38.020  14.239
 1941W        W74366  11.203   6.811  14.837
 1942W        W74367   7.616  27.796   4.222
 1943W        W74368  33.029   2.462  12.152
 1944W        W74369  21.936  25.564   0.985
 1945W        W74370  39.264  40.968  13.018
 1946W        W74371  37.500  37.346  14.435
 1947W        W74372  36.557  15.404   2.320
 1948W        W74373   8.173  27.996   0.365
 1949W        W74374  26.517  22.218  11.630
 1950W        W74375  39.831  17.658   3.170
 1951W        W74376   1.982  27.554  12.474
 1952W        W74377   9.495  18.678  12.972
 1953W        W74378  15.394  21.019  11.541
 1954W        W74379  19.271   4.247   3.122
 1955W        W74380  23.830   8.914   1.853
 1956W        W74381  23.736  42.798  13.851
 1957W        W74382  19.639   3.269   1.841
 1958W        W74383  23.146  21.805   2.741
 1959W        W74384  20.165  13.834   3.089
 1960W        W74385   5.466  42.080   0.876
 1961W        W74386  44.800  39.035   1.436
 1962W        W74387  40.593  41.455  14.994
 1963W        W74388  27.600  14.530   0.917
 1964W        W74389   9.423  41.271   2.306
 1965W        W74390  15.780  41.383  11.516
 1966W        W74391  19.863  22.714  12.571
 1967W        W74392  41.794  11.809  11.183
 1968W        W74393  10.927   6.517  12.508
 1969W        W74394  16.036   6.114  12.544
 1970W        W74395  13.800  11.964   0.358
 1971W        W74396  28.153  32.498  14.413
 1972W        W74397  30.973  11.177   2.183
 1973W        W74398  41.727  39.782  13.607
 1974W        W74399  17.981  19.977  13.189
 1975W        W74400  19.668  13.640   0.985
 1976W        W74401   9.089   3.722  13.199
 1977W        W74402  23.627  10.222   2.460
 1978W        W74403   1.793  39.568  13.021
 1979W        W74404   9.217   3.446  12.373
 1980W        W74405  15.357  37.710  10.525
 1981W        W74406  39.023  18.617  13.883
 1982W        W74407  37.667  16.689   3.552
 1983W        W74408  13.645  30.177  12.464
 1984W        W74409  40.424  23.573   0.163
 1985W        W74410   6.220  21.245  13.881
 1986W        W74411   9.234  31.964   0.383
 1987W        W74412  31.969  34.090  13.410
 1988W        W74413  34.217  10.339  11.954
 1989W        W74414  41.732  19.154  10.182
 1990W        W74415  13.736  40.688   4.184
 1991W        W74416   6.586  16.779   0.200
 1992W        W74417  20.080  43.550   3.218
 1993W        W74418  42.487   2.889  11.606
 1994W        W74419  33.977  10.316   1.141
 1995W        W74420   6.509   2.935   0.326
 1996W        W74421  31.840  15.532   1.474
 1997W        W74422  35.788   2.758  13.629
 1998W        W74423  34.565  16.751   1.402
 1999W        W74424  34.338  14.678   1.457
 2000W        W74425   1.493  11.583   4.685
 2001W        W74426  17.136  19.793   4.927
 2002W        W74427  28.990   5.357  12.390
 2003W        W74428  17.127   4.099  12.081
 2004W        W74429  26.120   9.761  11.824
 2005W        W74430  35.377  19.274  14.418
 2006W        W74431  23.952  43.053  11.158
 2007W        W74432  35.383  22.750  14.446
 2008W        W74433   9.766  20.781   2.689
 2009W        W74434   7.117   4.126   2.346
 2010W        W74435  27.807  17.815   1.910
 2011W        W74436   2.021  21.578   2.776
 2012W        W74437  29.577  44.722  11.455
 2013W        W74438  42.741  24.715  14.099
 2014W        W74439   9.846   1.650  13.872
 2015W        W74440  11.932   9.673  13.316
 2016W        W74441  31.851  23.778  14.577
 2017W        W74442  12.042  29.572   1.503
 2018W        W74443  19.340  28.559  13.955
 2019W        W74444  13.378  21.234   4.889
 2020W        W74445  25.008  27.952  11.582
 2021W        W74446  31.080  44.496  14.421
 2022W        W74447  32.257  27.834   4.728
 2023W        W74448  30.980  29.461  13.226
 2024W        W74449  12.646   9.974  12.023
 2025W        W74450  21.151   8.017  12.618
 2026W        W74451  22.847  11.597  11.093
 2027W        W74452   8.395  15.373  13.988
 2028W        W74453  41.473  35.001  13.543
 2029W        W74454  41.794  32.101  11.092
 2030W        W74455  30.099  20.099  11.729
 2031W        W74456  23.519  13.193   4.809
 2032W        W74457  41.409  36.369  14.669
 2033W        W74458  44.544  32.700  10.246
 2034W        W74459  30.156  32.486   3.111
 2035W        W74460  22.894   7.349  13.266
 2036W        W74461  38.421  28.669  14.753
 2037W        W74462   8.483   1.269  11.299
 2038W        W74463   9.555   1.816   0.500
 2039W        W74464  33.365   5.930  10.961
 2040W        W74465   6.758   4.866  13.813
 2041W        W74466  18.116  16.437  12.103
 2042W        W74467  34.466  11.593  13.054
 2043W        W74468  40.316   7.543   0.274
 2044W        W74469  39.536   4.964   3.677
 2045W        W74470  34.108  14.551   4.556
 2046W        W74471  14.101  25.054  10.633
 2047W        W74472   8.312  18.357  12.121
 2048W        W74473  19.036  23.905  11.667
 2049W        W74474  23.492  43.082   4.176
 2050W        W74475  21.606  26.357  12.796
 2051W        W74476  31.108  10.743  14.176
 2052W        W74477   2.745  20.257  11.109
 2053W        W74478  27.025  25.854   3.200
 2054W        W74479  42.375  22.226  11.047
 2055W        W74480  11.262   2.453   2.200
 2056W        W74481   9.930  39.929  11.179
 2057W        W74482  43.921  19.209  13.771
 2058W        W74483  36.320  27.613   0.819
 2059W        W74484  24.703  31.362   1.222
 2060W        W74485  40.284  37.580   9.950
 2061W        W74486  13.624  27.066  11.966
 2062W        W74487  12.755  41.045   0.498
 2063W        W74488  42.040   8.596  14.881
 2064W        W74489  20.309  27.564  14.450
 2065W        W74490  27.617  11.831   1.659
 2066W        W74491  31.892  16.008  13.941
 2067W        W74492  31.092  26.856   1.427
 2068W        W74493  10.666   8.969   4.058
 2069W        W74494  34.267  25.101   0.330
 2070W        W74495  29.087   0.841  10.495
 2071W        W74496   9.870   7.395   2.405
 2072W        W74497  42.336  15.421  10.702
 2073W        W74498  27.088  33.867  13.796
 2074W        W74499   0.723  20.583  12.115
 2075W        W74500   9.109  15.394  14.302
 2076W        W74501  32.395  20.600   3.131
 2077W        W74502  20.359  30.074   2.845
 2078W        W74503  10.132  12.802  11.566
 2079W        W74504   1.901  19.548  14.527
 2080W        W74505   1.289  28.052   0.254
 2081W        W74506  32.527  14.851  12.420
 2082W        W74507  20.640  17.723  12.777
 2083W        W74508  22.251  26.464  10.892
 2084W        W74509   8.321   5.836  12.440
 2085W        W74510  18.142  33.673   9.805
 2086W        W74511   0.524   7.209   0.930
 2087W        W74512  17.808  43.501  12.546
 2088W        W74513  33.411   6.416  10.844
 2089W        W74514  27.274  32.492   4.636
 2090W        W74515  42.460  10.758  13.407
 2091W        W74516   6.957  27.072  14.985
 2092W        W74517  43.690  17.639   4.685
 2093W        W74518  17.235  39.555   3.119
 2094W        W74519  23.550  23.110   3.914
 2095W        W74520  30.937  24.374   3.677
 2096W        W74521  44.001  12.621  13.414
 2097W        W74522   1.430   2.010  13.504
 2098W        W74523  11.858  37.795  12.513
 2099W        W74524   3.250   4.708   0.124
 2100W        W74525  10.685  15.106  12.669
 2101W        W74526  26.988  11.580   1.850
 2102W        W74527  37.932  42.474  12.991
 2103W        W74528  29.717  38.553   4.342
 2104W        W74529   6.283  40.057  11.574
 2105W        W74530  20.169   6.851   4.177
 2106W        W74531   0.271  11.625  14.302
 2107W        W74532  38.850   6.243   4.572
 2108W        W74533   4.965   4.634  14.260
 2109W        W74534  13.676  26.921  14.867
 2110W        W74535  16.849  29.091  12.557
 2111W        W74536  19.716  34.306  14.056
 2112W        W74537  26.497   6.704  14.836
 2113W        W74538  40.951  14.330  10.420
 2114W        W74539  37.701  33.697   0.605
 2115W        W74540   1.261  20.026  14.164
 2116W        W74541  35.976  32.145  11.172
 2117W        W74542   7.818  26.947  13.569
 2118W        W74543  20.829  30.132  14.857
 2119W        W74544  14.245   5.948  10.490
 2120W        W74545  34.428  25.811  12.860
 2121W        W74546  42.982  35.502  14.496
 2122W        W74547  22.036  27.598  10.721
 2123W        W74548  16.293  39.338  11.577
 2124W        W74549  44.548  36.894   4.344
 2125W        W74550  33.769  36.696  14.438
 2126W        W74551  35.118  39.073   4.192
 2127W        W74552  16.694  39.936  14.215
 2128W        W74553   6.230  36.353  12.961
 2129W        W74554  20.664  32.133  13.064
 2130W        W74555  42.789  11.741   0.396
 2131W        W74556  30.732  26.793  13.175
 2132W        W74557   5.415  37.387   2.220
 2133W        W74558   6.972  36.822  13.541
 2134W        W74559  21.780  33.432   0.074
 2135W        W74560  37.641  32.515  11.577
 2136W        W74561  13.583  43.010   1.371
 2137W        W74562   2.321  10.139  14.048
 2138W        W74563  16.798  29.602  12.495
 2139W        W74564   3.826  25.146   4.575
 2140W        W74565  13.769  16.569  10.343
 2141W        W74566  20.576   1.702   3.747
 2142W        W74567  10.195  36.367   0.770
 2143W        W74568  21.538   5.880  13.871
 2144W        W74569  31.633   8.103  12.980
 2145W        W74570  35.434  18.510   2.688
 2146W        W74571  24.690  20.044   0.916
 2147W        W74572   6.182  30.542   3.619
 2148W        W74573   0.880   3.237   0.804
 2149W        W74574  20.933  14.776   1.206
 2150W        W74575  19.643  27.101   3.512
 2151W        W74576  14.112  26.020   0.053
 2152W        W74577  30.418  33.601  13.393
 2153W        W74578  31.642  18.189  14.879
 2154W        W74579   9.223  41.986  12.937
 2155W        W74580   5.125  35.802   2.811
 2156W        W74581   9.839  11.757  10.605
 2157W        W74582   2.637   3.907  14.844
 2158W        W74583   1.255  15.811  11.134
 2159W        W74584  40.788  12.181   4.214
 2160W        W74585  14.794   4.446  10.921
 2161W        W74586  38.494   5.411  14.844
 2162W        W74587   9.340   1.933   1.912
 2163W        W74588  12.824  44.167   3.827
 2164W        W74589   1.282  35.715  14.324
 2165W        W74590  43.276  26.460  14.742
 2166W        W74591  10.314  42.063  11.089
 2167W        W74592  43.346  13.301   2.790
 2168W        W74593  12.041   0.232   1.873
 2169W        W74594  41.899  29.933   0.817
 2170W        W74595   2.295  44.297   2.299
 2171W        W74596  11.202   2.556  13.945
 2172W        W74597   0.719   2.046  14.739
 2173W        W74598  12.826  24.921   3.093
 2174W        W74599  14.868   5.834   3.772
 2175W        W74600  10.055  17.714  10.618
 2176W        W74601  38.534  31.433  14.690
 2177W        W74602  24.294  35.472   3.263
 2178W        W74603  12.638  24.240   3.773
 2179W        W74604  37.790  10.877  13.837
 2180W        W74605  29.000  12.286  12.935
 2181W        W74606   9.934  32.449   1.662
 2182W        W74607  12.443   9.563   4.982
 2183W        W74608   3.154   1.211   2.105
 2184W        W74609  11.160  38.599   4.529
 2185W        W74610  13.691  16.137   0.954
 2186W        W74611  19.722  44.229   0.997
 2187W        W74612  28.159   7.873   4.004
 2188W        W74613   4.829  24.635   0.830
 2189W        W74614  23.296  11.249  14.399
 2190W        W74615  20.034   4.654   1.901
 2191W        W74616  42.538  26.107   2.954
 2192W        W74617  24.161  34.930   1.650
 2193W        W74618  16.068   2.072   3.369
 2194W        W74619  22.074  37.116  11.351
 2195W        W74620  35.607  10.759  14.424
 2196W        W74621  27.158  20.619   0.237
 2197W        W74622  20.030   1.728   0.712
 2198W        W74623  24.179  22.405   1.187
 2199W        W74624  31.434   4.415   3.052
 2200W        W74625  37.962  30.054   1.780
 2201W        W74626   9.453  37.683  12.994
 2202W        W74627   8.262  34.013  12.797
 2203W        W74628  39.935  31.388  13.547
 2204W        W74629  33.603   7.418  12.892
 2205W        W74630  24.898  15.795  12.418
 2206W        W74631   3.246  17.955  14.041
 2207W        W74632  39.019  11.345  12.459
 2208W        W74633  40.497  16.290   2.183
 2209W        W74634  21.599  24.649  11.195
 2210W        W74635  16.206  17.768   4.049
 2211W        W74636  42.652  10.498   5.149
 2212W        W74637   5.193  30.557   0.562
 2213W        W74638  28.064  24.880   1.987
 2214W        W74639  30.906  23.972   0.412
 2215W        W74640  30.930  27.745   3.409
 2216W        W74641  44.287  42.854   1.064
 2217W        W74642   9.947  10.937  13.805
 2218W        W74643  24.941  10.175  12.486
 2219W        W74644  17.604  36.122   0.257
 2220W        W74645  44.744   4.702  10.732
 2221W        W74646  36.831   7.189  11.016
 2222W        W74647  42.212  21.222   2.367
 2223W        W74648  24.510  12.639  11.886
 2224W        W74649  15.260  38.886   1.793
 2225W        W74650  41.321   1.565  11.252
 2226W        W74651  43.996  33.312  14.132
 2227W        W74652  41.387   4.082  11.092
 2228W        W74653   3.672  18.126  14.324
 2229W        W74654  11.145  41.819   0.897
 2230W        W74655   1.691  36.176   4.953
 2231W        W74656  23.128   7.247   3.141
 2232W        W74657  19.521  33.081  12.945
 2233W        W74658  35.624  17.672  12.474
 2234W        W74659  27.008   8.433   3.345
 2235W        W74660  23.965  42.541  11.122
 2236W        W74661  37.594  19.726   3.254
 2237W        W74662  24.692   9.407  11.472
 2238W        W74663  23.436   0.226  12.989
 2239W        W74664   0.482  17.382  14.147
 2240W        W74665  39.214  30.341   4.594
 2241W        W74666  24.568  27.355  12.456
 2242W        W74667  40.420  41.792   4.424
 2243W        W74668   1.940  32.048  11.566
 2244W        W74669   6.819  19.517  13.942
 2245W        W74670  39.386  22.938  14.330
 2246W        W74671   6.669  36.671   0.359
 2247W        W74672   5.744  22.260   4.700
 2248W        W74673  12.445   4.658  14.936
 2249W        W74674  19.271  32.981  12.441
 2250W        W74675  20.171   1.473   4.261
 2251W        W74676  18.713  18.894  12.927
 2252W        W74677  19.348   1.894  13.609
 2253W        W74678  30.471  22.981   2.492
 2254W        W74679  37.852  43.971  11.417
 2255W        W74680  39.649   8.691  11.553
 2256W        W74681  26.163  31.050   2.581
 2257W        W74682   0.021   5.353  11.552
 2258W        W74683  13.770  21.198  12.083
 2259W        W74684  31.075  17.542   2.049
 2260W        W74685   0.917  14.808  11.658
 2261W        W74686  43.512  24.137   0.930
 2262W        W74687  18.837  24.217  14.864
 2263W        W74688  17.227  33.871   1.392
 2264W        W74689   0.954   7.634  13.646
 2265W        W74690   3.431  30.438   0.108
 2266W        W74691  36.982  42.569   0.462
 2267W        W74692  17.884   7.804  12.404
 2268W        W74693  36.423  12.283   1.851
 2269W        W74694  28.450  32.007   1.720
 2270W        W74695  23.494   8.836  11.632
 2271W        W74696  30.539  32.454  10.581
 2272W        W74697  24.950  31.103   3.401
 2273W        W74698  36.483  19.637   1.767
 2274W        W74699   8.350  13.793   4.824
 2275W        W74700  19.156  41.842  14.482
 2276W        W74701  27.252  36.467  13.806
 2277W        W74702  19.378   7.120  11.884
 2278W        W74703   4.927  33.844  14.821
 2279W        W74704  41.374  44.392   0.503
 2280W        W74705   9.818  13.501   4.977
 2281W        W74706  23.710   5.292  11.114
 2282W        W74707   3.723  25.740   3.265
 2283W        W74708  18.550   0.687   4.987
 2284W        W74709  22.051  15.654   2.335
 2285W        W74710  17.963  36.087   0.801
 2286W        W74711  32.342  17.168   3.774
 2287W        W74712   6.341  29.634  14.495
 2288W        W74713  34.033  38.615   3.172
 2289W        W74714   1.165  15.633   0.442
 2290W        W74715  42.303  44.002  13.007
 2291W        W74716  18.128  33.968  13.555
 2292W        W74717   8.799  12.237  11.947
 2293W        W74718  41.333  20.819   3.697
 2294W        W74719  44.879  42.665   4.747
 2295W        W74720  28.497   6.320   4.150
 2296W        W74721  27.024   2.463  10.602
 2297W        W74722  29.452  24.094  14.328
 2298W        W74723  35.943  23.736   2.306
 2299W        W74724   4.919   0.418   4.539
 2300W        W74725  25.256  19.029  13.950
 2301W        W74726  28.997   2.169   1.570
 2302W        W74727  44.019  18.185  12.097
 2303W        W74728  38.108   6.280   1.902
 2304W        W74729  26.526   1.233  12.028
 2305W        W74730  23.439   0.848  12.369
 2306W        W74731  27.002  39.365  11.823
 2307W        W74732   3.222   2.518  14.314
 2308W        W74733  16.039  10.759   0.805
 2309W        W74734   8.080  35.423  11.568
 2310W        W74735  14.796  25.454   0.624
 2311W        W74736  14.153   8.167   4.136
 2312W        W74737   0.907  34.599   5.068
 2313W        W74738  34.251  18.250   1.411
 2314W        W74739  18.182  11.858   1.877
 2315W        W74740  33.812   6.147   2.684
 2316W        W74741  36.115  16.579   4.297
 2317W        W74742   9.922  23.063  14.134
 2318W        W74743  29.037  19.795   2.440
 2319W        W74744  38.636  13.247   1.369
 2320W        W74745  43.464  17.719  12.551
 2321W        W74746  20.658  40.074   2.861
 2322W        W74747  40.755  18.589   4.773
 2323W        W74748  28.937  37.322   3.280
 2324W        W74749  32.079  14.760   0.133
 2325W        W74750  22.034  44.324  11.843
 2326W        W74751  10.464  31.369  13.505
 2327W        W74752  23.671  16.079   3.786
 2328W        W74753   9.173  26.338  13.713
 2329W        W74754   3.841  41.290   1.825
 2330W        W74755  44.110  33.641  13.128
 2331W        W74756  30.004  24.078  11.192
 2332W        W74757  42.881  18.243   3.394
 2333W        W74758  12.360  25.268  10.530
 2334W        W74759  20.127  17.563   3.610
 2335W        W74760  10.814  39.091   4.036
 2336W        W74761   4.348  20.308   3.680
 2337W        W74762  33.103  43.453  14.849
 2338W        W74763  10.135  21.293   4.707
 2339W        W74764  31.051  21.545  12.727
 2340W        W74765  17.462  27.617   1.770
 2341W        W74766  14.157   0.811  10.448
 2342W        W74767   5.380  21.980  13.128
 2343W        W74768  20.816   2.013   2.384
 2344W        W74769  38.288  41.698   0.175
 2345W        W74770  10.920  22.757  11.631
 2346W        W74771  34.405   1.187   4.242
 2347W        W74772  25.160  36.864  12.468
 2348W        W74773   2.372  22.495  13.031
 2349W        W74774   7.366   8.404   3.573
 2350W        W74775   5.156  11.578   2.451
 2351W        W74776   7.784  20.209   1.950
 2352W        W74777  25.670  24.514   0.217
 2353W        W74778   7.728  15.661   1.145
 2354W        W74779  30.744  40.952   3.805
 2355W        W74780   8.467  19.510  12.468
 2356W        W74781  21.022   3.409  12.027
 2357W        W74782  14.732  19.081   2.199
 2358W        W74783  22.545  29.674  10.679
 2359W        W74784  10.615  34.942   3.306
 2360W        W74785  42.858   4.757  12.409
 2361W        W74786  30.407  27.677  10.919
 2362W        W74787  36.359   5.223  12.079
 2363W        W74788  33.730  37.678   3.199
 2364W        W74789  38.884  16.616  14.172
 2365W        W74790  31.433  38.004  13.335
 2366W        W74791  31.888  28.345  11.945
 2367W        W74792  28.676  28.668   0.328
 2368W        W74793  31.622  12.036   4.321
 2369W        W74794  25.690   4.189  13.073
 2370W        W74795  15.328  41.806  10.755
 2371W        W74796  41.601  21.734   4.810
 2372W        W74797   4.820   8.964  14.466
 2373W        W74798  38.019  36.559   0.874
 2374W        W74799   7.776  15.256  14.998
 2375W        W74800  27.582  33.510   4.314
 2376W        W74801  29.932   2.424   3.142
 2377W        W74802  27.425   4.230  10.766
 2378W        W74803  38.532  18.777   2.792
 2379W        W74804  16.098  16.123   2.748
 2380W        W74805  39.479   7.706  11.875
 2381W        W74806  26.756  13.568  12.104
 2382W        W74807  25.545  15.070  13.875
 2383W        W74808  14.322  29.839  13.370
 2384W        W74809   1.439  41.539  10.689
 2385W        W74810  35.423   6.881   2.688
 2386W        W74811  32.435  36.023  14.480
 2387W        W74812  37.004  40.490  14.068
 2388W        W74813  27.727  41.726  12.323
 2389W        W74814  30.384  16.822   1.431
 2390W        W74815  39.128  39.885   4.672
 2391W        W74816   0.070  37.979  13.915
 2392W        W74817  32.611   3.330   0.901
 2393W        W74818  20.230  33.596   1.807
 2394W        W74819   0.870  30.197  12.495
 2395W        W74820  38.883  31.103  13.889
 2396W        W74821  23.652  30.126   0.781
 2397W        W74822   4.656   2.873  13.812
 2398W        W74823  38.916  20.933   0.842
 2399W        W74824   5.195  22.263   0.798
 2400W        W74825   5.381  19.508  13.995
 2401W        W74826  14.124  20.718  11.461
 2402W        W74827   4.489  24.284  14.885
 2403W        W74828  40.825  41.759  14.318
 2404W        W74829  17.142  23.219  14.251
 2405W        W74830   2.904   2.999   0.861
 2406W        W74831  11.654  11.690   1.254
 2407W        W74832  31.909  24.634  13.001
 2408W        W74833  25.732  13.910  12.991
 2409W        W74834  26.573  19.054   3.767
 2410W        W74835  33.084   1.308  14.998
 2411W        W74836  27.293   9.679  12.825
 2412W        W74837   0.587  11.608  12.921
 2413W        W74838  13.389  26.173   1.313
 2414W        W74839  10.541  23.767  14.805
 2415W        W74840  43.440  41.568   4.577
 2416W        W74841   4.711  11.542   3.658
 2417W        W74842  42.856  32.634   1.210
 2418W        W74843  16.543  30.650  10.461
 2419W        W74844  13.829   0.944   2.686
 2420W        W74845  23.878  16.604  12.536
 2421W        W74846  22.144   1.655  13.025
 2422W        W74847   5.819  10.915  12.022
 2423W        W74848  27.908  22.897  11.965
 2424W        W74849  22.181  31.523  12.477
 2425W        W74850  15.245   6.775  13.949
 2426W        W74851   8.871  34.203   3.415
 2427W        W74852  27.616  32.894  13.035
 2428W        W74853  20.289  10.708   3.749
 2429W        W74854   0.025  12.729  11.146
 2430W        W74855  27.632  14.604   4.820
 2431W        W74856  33.621  33.901   3.145
 2432W        W74857  43.589   3.318  10.960
 2433W        W74858  27.955  21.265   3.252
 2434W        W74859  37.705  32.778   3.301
 2435W        W74860  14.359  37.407   1.866
 2436W        W74861  12.444  22.031   3.481
 2437W        W74862  28.584  43.048   0.458
 2438W        W74863   7.717  25.157  10.804
 2439W        W74864   6.633  29.685  12.023
 2440W        W74865  28.246   0.892   0.332
 2441W        W74866  43.645  44.628   0.411
 2442W        W74867  31.162   2.627  12.001
 2443W        W74868  41.360  29.374   2.319
 2444W        W74869  42.893  31.505   3.433
 2445W        W74870   1.164  11.361  12.342
 2446W        W74871  38.303  11.401   1.445
 2447W        W74872  16.301  18.786  14.350
 2448W        W74873  25.498  39.552  12.532
 2449W        W74874  26.001  26.898   2.106
 2450W        W74875  24.811  28.139   4.560
 2451W        W74876  33.519   1.041   3.687
 2452W        W74877  20.759  44.398   4.432
 2453W        W74878  14.784  12.394   1.697
 2454W        W74879   5.376  18.432   3.189
 2455W        W74880  33.347  36.934  12.285
 2456W        W74881  15.078  22.045   0.724
 2457W        W74882   5.324   5.202  10.694
 2458W        W74883  37.219  37.783   3.749
 2459W        W74884  25.238  19.742   0.192
 2460W        W74885  39.312  41.609   2.857
 2461W        W74886  23.909   8.271  13.851
 2462W        W74887  29.939  22.751   4.164
 2463W        W74888  41.020   8.540   3.664
 2464W        W74889  38.513  36.117   3.019
 2465W        W74890  24.928   0.958  12.575
 2466W        W74891  17.510  10.181   2.276
 2467W        W74892  27.736  39.227   2.740
 2468W        W74893  32.807  37.840   3.697
 2469W        W74894  11.315   6.164  14.312
 2470W        W74895  30.929   7.626  10.909
 2471W        W74896  26.479  18.784  13.585
 2472W        W74897  40.942  42.385  14.048
 2473W        W74898  13.050  16.640  11.527
 2474W        W74899  31.956  33.806  11.293
 2475W        W74900  20.272  37.906  14.015
 2476W        W74901  21.618  25.343   1.403
 2477W        W74902   0.276  22.454  12.510
 2478W        W74903  24.023  21.680  14.991
 2479W        W74904  18.228  27.128   3.575
 2480W        W74905   5.373  39.722  10.580
 2481W        W74906  30.510  31.199  11.186
 2482W        W74907   6.844  17.204  10.711
 2483W        W74908   6.431   4.383   1.925
 2484W        W74909   8.711  30.821  13.908
 2485W        W74910  38.471   5.811  12.394
 2486W        W74911  24.549  21.008   3.591
 2487W        W74912  26.416  11.321  11.192
 2488W        W74913  26.470  23.250   0.012
 2489W        W74914  26.094   7.232  13.153
 2490W        W74915  42.544  42.398   0.486
 2491W        W74916  16.088   1.248   3.719
 2492W        W74917  25.176  34.797  14.536
 2493W        W74918   5.996   5.275   2.180
 2494W        W74919   4.132  22.012   2.164
 2495W        W74920  35.458  26.609   2.153
 2496W        W74921  31.574  20.280   3.127
 2497W        W74922   0.404   9.845   0.568
 2498W        W74923  10.155   8.326  12.018
 2499W        W74924   6.153   2.959   0.728
 2500W        W74925  19.171   9.929  12.875
 2501W        W74926   4.845   3.796  12.313
 2502W        W74927  20.927  40.875  11.190
 2503W        W74928   2.412  35.604  13.990
 2504W        W74929  21.048   5.783   2.368
 2505W        W74930  22.304   9.374   2.161
 2506W        W74931  16.712  41.832   0.876
 2507W        W74932  43.864  27.117   3.735
 2508W        W74933  12.523   7.218  13.169
 2509W        W74934   4.362  37.559   0.680
 2510W        W74935  21.083  19.787   3.871
 2511W        W74936   4.794  22.249   1.988
 2512W        W74937   5.456   7.039  11.449
 2513W        W74938  32.712   0.321   2.713
 2514W        W74939  42.432  29.353  12.839
 2515W        W74940  27.096  20.118   2.348
 2516W        W74941  40.031  29.859   2.362
 2517W        W74942  42.979   3.975   4.658
 2518W        W74943  35.918  22.634   4.013
 2519W        W74944  25.441   9.186   0.454
 2520W        W74945  29.172  39.044   0.800
 2521W        W74946  32.426  19.620   0.383
 2522W        W74947   3.473  29.585  12.045
 2523W        W74948  39.794  23.730   2.486
 2524W        W74949   1.509  26.963   4.074
 2525W        W74950  23.864  42.715   1.560
 2526W        W74951  28.148  41.868   3.260
 2527W        W74952  28.873   9.517   1.809
 2528W        W74953  39.395  11.414  14.846
 2529W        W74954  39.263  35.073   3.196
 2530W        W74955  37.621  35.975  11.700
 2531W        W74956  25.176  12.839  10.710
 2532W        W74957   1.086  24.025   2.907
 2533W        W74958   7.593   1.877  13.425
 2534W        W74959   6.891  17.800   1.731
 2535W        W74960  25.540   6.622   3.191
 2536W        W74961  22.105  13.683   1.376
 2537W        W74962   8.715   1.939   0.795
 2538W        W74963  30.088  20.646  14.330
 2539W        W74964  35.181   8.307   2.657
 2540W        W74965  18.255  37.397   4.076
 2541W        W74966  41.123   5.469   4.181
 2542W        W74967  10.856  40.280  11.960
 2543W        W74968  43.418  11.270   0.143
 2544W        W74969  34.370  12.125  11.939
 2545W        W74970  39.538  12.808   2.686
 2546W        W74971   4.825  25.452  13.602
 2547W        W74972  16.318  15.112  13.591
 2548W        W74973  27.238  23.683  12.089
 2549W        W74974  36.050  40.548   0.900
 2550W        W74975  41.501  16.277  12.817
 2551W        W74976  10.291   8.956  11.420
 2552W        W74977  31.568  38.386   4.808
 2553W        W74978  34.829  31.479  14.954
 2554W        W74979  28.849  43.384  11.816
 2555W        W74980  18.132   9.744  13.061
 2556W        W74981  14.191  29.384  11.598
 2557W        W74982  33.686  39.841   1.895
 2558W        W74983  14.184  20.463   4.166
 2559W        W74984  13.861  31.565  12.620
 2560W        W74985   1.983  39.490   3.109
 2561W        W74986  25.945   5.760  12.356
 2562W        W74987  12.117   4.929   0.247
 2563W        W74988  28.485  39.494  12.978
 2564W        W74989  35.976  22.258   1.924
 2565W        W74990  39.026  19.293  11.276
 2566W        W74991  23.729   5.159   0.776
 2567W        W74992  33.017  10.180   3.585
 2568W        W74993  30.701  40.365  14.441
 2569W        W74994  14.022   3.337   1.336
 2570W        W74995  37.068  17.650  11.202
 2571W        W74996   9.744  26.432  13.479
 2572W        W74997  22.548  42.937  13.015
 2573W        W74998  41.124  22.275   2.445
 2574W        W74999  32.067  16.903   1.703
 2575W        W75000  24.511   4.920  10.037
 2576W        W75001  42.959  41.358   2.405
 2577W        W75002  34.057  21.968   1.750
 2578W        W75003  38.837  22.027   4.128
 2579W        W75004  19.987   1.684   2.041
 2580W        W75005  16.980   3.477   0.880
 2581W        W75006  41.368   5.007   1.916
 2582W        W75007  32.248  42.225   4.420
 2583W        W75008  12.348  42.175  11.108
 2584W        W75009  16.998  34.376  10.657
 2585W        W75010  15.399   4.791   1.648
 2586W        W75011  37.466  30.127   1.671
 2587W        W75012  20.635  11.327   2.317
 2588W        W75013  25.540   9.452  12.383
 2589W        W75014   3.320   0.431  10.670
 2590W        W75015  31.623   9.618   0.149
 2591W        W75016  41.937  35.299   3.303
 2592W        W75017  28.920  30.619   2.197
 2593W        W75018   1.912  33.849   3.283
 2594W        W75019  29.654   8.449  11.499
 2595W        W75020  40.779   8.397  12.166
 2596W        W75021  29.597  38.903   2.168
 2597W        W75022  16.311   1.896  12.379
 2598W        W75023   7.104  30.000  13.366
 2599W        W75024  36.877   3.346   2.769
 2600W        W75025  10.158   3.424  12.790
 2601W        W75026  34.438  25.572   0.022
 2602W        W75027  19.016   2.461   2.700
 2603W        W75028  37.578  15.772   3.561
 2604W        W75029  16.511  34.935  11.745
 2605W        W75030  25.030  10.780  10.707
 2606W        W75031   8.465  40.207  13.069
 2607W        W75032  28.682  44.793  11.224
 2608W        W75033  22.687  25.531   0.499
 2609W        W75034  44.723  21.151   2.588
 2610W        W75035  11.828   2.796   3.617
 2611W        W75036  13.706  19.755  14.573
 2612W        W75037  33.051  33.631  10.747
 2613W        W75038  11.879  42.749   2.271
 2614W        W75039  18.578  12.190   4.903
 2615W        W75040  34.907   1.289   2.856
 2616W        W75041  24.470  15.254   3.874
 2617W        W75042  10.428  10.047  14.631
 2618W        W75043  21.137   4.296   2.472
 2619W        W75044  31.911  15.102  11.492
 2620W        W75045  16.553   5.520  14.506
 2621W        W75046  10.813  39.470  14.375
 2622W        W75047  40.867  20.272  14.513
 2623W        W75048  24.083   6.205  10.867
 2624W        W75049  36.689   4.376  13.490
 2625W        W75050   6.679   5.733   0.973
 2626W        W75051   4.850  21.517  11.062
 2627W        W75052   3.898   8.863   0.105
 2628W        W75053  38.704  26.474   2.728
 2629W        W75054  26.255  10.828  11.095
 2630W        W75055  31.890  35.058   3.643
 2631W        W75056   9.145  35.818  14.354
 2632W        W75057  20.595  40.840   1.224
 2633W        W75058  22.094  30.670  14.479
 2634W        W75059  13.251   4.952   3.370
 2635W        W75060  15.153  21.718   1.919
 2636W        W75061  16.012   2.675   0.196
 2637W        W75062  16.924  14.318  11.128
 2638W        W75063  42.480  41.977  14.396
 2639W        W75064  33.028  32.983   4.677
 2640W        W75065  12.699  29.470  11.690
 2641W        W75066  11.750  25.910  10.489
 2642W        W75067  24.140  30.601  13.829
 2643W        W75068   3.855   8.445   4.622
 2644W        W75069  15.675   0.974  10.841
 2645W        W75070  26.109   3.300  12.364
 2646W        W75071  38.808  38.553   0.853
 2647W        W75072   6.751   6.340   2.678
 2648W        W75073   2.991  33.054   4.652
 2649W        W75074   0.966  25.539  14.724
 2650W        W75075  19.359  21.804   0.240
 2651W        W75076   8.759  17.331   0.358
 2652W        W75077  38.773  29.902   3.355
 2653W        W75078  44.966  17.095  13.814
 2654W        W75079  12.728  28.286   4.679
 2655W        W75080   3.864  41.073   3.615
 2656W        W75081   9.075  39.069  13.907
 2657W        W75082  16.575  32.080  13.477
 2658W        W75083  24.980  10.346  14.959
 2659W        W75084  32.734   0.754  11.121
 2660W        W75085  20.552  19.347  12.674
 2661W        W75086  34.282  11.816  13.564
 2662W        W75087  17.778  37.932   4.553
 2663W        W75088  14.790  42.741   2.688
 2664W        W75089  21.750  12.731   3.126
 2665W        W75090   4.323  25.198   4.425
 2666W        W75091  39.363  35.465  13.560
 2667W        W75092  21.651  44.201  13.938
 2668W        W75093  11.714   7.533   0.999
 2669W        W75094  21.219  34.023   3.661
 2670W        W75095  29.632  38.432  10.710
 2671W        W75096  36.781  13.866   2.213
 2672W        W75097  33.336   9.805   2.660
 2673W        W75098   1.293  13.581   1.350
 2674W        W75099  21.613   7.223   1.881
 2675W        W75100  19.118  25.489   1.151
 2676W        W75101  39.235  13.708  11.406
 2677W        W75102  24.237  23.535  13.407
 2678W        W75103  10.247  34.334   0.337
 2679W        W75104  24.418  22.993  14.891
 2680W        W75105  26.201  21.464  14.640
 2681W        W75106  10.346  36.983   3.355
 2682W        W75107   0.269  19.166  13.785
 2683W        W75108  41.703  33.473  12.821
 2684W        W75109  42.972  30.827  12.085
 2685W        W75110   9.789  16.314   2.237
 2686W        W75111  37.667   6.164  13.969
 2687W        W75112  36.966  31.159  10.477
 2688W        W75113  21.283  20.192   1.867
 2689W        W75114  18.580   0.413   4.203
 2690W        W75115   3.761  14.099   2.112
 2691W        W75116  26.023  14.848  14.075
 2692W        W75117  33.471  25.978   1.407
 2693W        W75118  37.432   7.315  10.085
 2694W        W75119  23.688   0.309   0.682
 2695W        W75120   3.409  40.345  12.386
 2696W        W75121   5.439   1.755   4.136
 2697W        W75122   8.310  16.705  11.067
 2698W        W75123   0.479   4.031  11.169
 2699W        W75124  36.781   7.847   2.387
 2700W        W75125   0.282  29.666   4.621
 2701W        W75126  44.859  42.432  14.997
 2702W        W75127  37.398  16.514  10.621
 2703W        W75128  40.905   4.050   0.528
 2704W        W75129   2.413  37.989  10.607
 2705W        W75130  37.855  15.173  14.441
 2706W        W75131   1.820  25.379   2.193
 2707W        W75132  42.888  35.685  13.157
 2708W        W75133  26.964  42.362  13.057
 2709W        W75134  29.989  16.046  12.553
 2710W        W75135  14.600  26.659   1.143
 2711W        W75136  36.974   3.252  11.785
 2712W        W75137  44.744  15.247  14.412
 2713W        W75138  30.938  31.710   1.790
 2714W        W75139   8.398  24.580  14.439
 2715W        W75140  13.736  21.471   1.816
 2716W        W75141  13.373  27.574  12.536
 2717W        W75142  17.294  33.344  11.203
 2718W        W75143  22.457  24.323   3.231
 2719W        W75144  29.139   3.094   1.727
 2720W        W75145  17.345  10.336   4.094
 2721W        W75146  35.438  31.078   3.126
 2722W        W75147  37.422  34.035  12.853
 2723W        W75148   0.282  40.252  12.471
 2724W        W75149  23.010  35.394   1.967
 2725W        W75150   9.266   2.971  12.580
 2726W        W75151  10.579  23.566   0.277
 2727W        W75152  35.970  13.446  11.588
 2728W        W75153   0.864   3.789   3.861
 2729W        W75154  23.030  38.391   0.492
 2730W        W75155  22.253  16.024   0.969
 2731W        W75156  22.699  22.651   1.869
 2732W        W75157  28.256  38.016   1.284
 2733W        W75158   8.814   2.222  14.433
 2734W        W75159   5.952  35.936   2.268
 2735W        W75160   0.747  39.451   0.279
 2736W        W75161  31.815   3.498  12.964
 2737W        W75162  10.789  32.913   1.703
 2738W        W75163   2.190   6.292   2.578
 2739W        W75164   8.792  14.076  14.346
 2740W        W75165  30.107  28.016   0.258
 2741W        W75166  31.779  15.831   4.247
 2742W        W75167  12.867  43.266   2.860
 2743W        W75168  28.575  24.086  11.344
 2744W        W75169  14.753  40.796   3.085
 2745W        W75170  24.490   5.283  10.635
 2746W        W75171  37.131  18.949  13.405
 2747W        W75172  25.425   5.162   4.237
 2748W        W75173  15.201  23.599  13.864
 2749W        W75174  25.727  33.652   2.813
 2750W        W75175  32.100  42.725  11.265
 2751W        W75176  11.217   9.589   3.698
 2752W        W75177  21.259  16.557  14.521
 2753W        W75178  26.963   4.312  10.536
 2754W        W75179  20.639  19.772   0.853
 2755W        W75180   7.189  21.040  12.020
 2756W        W75181   8.615  38.364  13.458
 2757W        W75182  31.863   9.333   2.854
 2758W        W75183  43.997  42.360  10.620
 2759W        W75184  24.418  39.968  12.853
 2760W        W75185   6.390  39.380   0.189
 2761W        W75186  39.309  30.847  11.671
 2762W        W75187  24.601  12.835   4.060
 2763W        W75188  17.647   3.654  14.713
 2764W        W75189  27.927  37.161   2.272
 2765W        W75190   7.483  44.812   3.083
 2766W        W75191  34.555   5.460   2.861
 2767W        W75192  25.123  30.227   3.215
 2768W        W75193   4.058  11.256  14.078
 2769W        W75194  28.589  17.762   0.836
 2770W        W75195   8.887  44.428  12.021
 2771W        W75196   8.383  10.015  13.925
 2772W        W75197   7.645  34.209   2.378
 2773W        W75198  42.836  11.837   4.585
 2774W        W75199  24.954  16.506   3.343
 2775W        W75200  35.196  26.330   9.988
 2776W        W75201   2.677  38.429  10.644
 2777W        W75202  44.759  22.030   3.134
 2778W        W75203   2.984  10.729  11.482
 2779W        W75204  41.201  24.606  13.018
 2780W        W75205  42.941  11.837  12.948
 2781W        W75206   4.947   6.603   2.673
 2782W        W75207  24.615  44.244   2.691
 2783W        W75208  15.174  42.318  13.435
 2784W        W75209  20.746  11.972  10.263
 2785W        W75210  31.702  16.352   4.696
 2786W        W75211   2.426   3.071  14.867
 2787W        W75212  31.926   0.846   4.050
 2788W        W75213  22.110  19.008  13.378
 2789W        W75214  19.483  20.081  12.111
 2790W        W75215  29.908  40.254  10.659
 2791W        W75216  37.407   1.292   4.410
 2792W        W75217  34.844  40.324   1.302
 2793W        W75218   9.638  35.108  14.048
 2794W        W75219  33.865  10.731  12.072
 2795W        W75220  28.704   3.038   3.775
 2796W        W75221   9.656  33.836  14.492
 2797W        W75222  12.100   7.656  14.770
 2798W        W75223   4.378   5.453   2.328
 2799W        W75224   4.722   5.484  12.035
 2800W        W75225  41.744  42.982   9.808
 2801W        W75226  36.012  13.730   2.744
 2802W        W75227  21.215  40.245   4.880
 2803W        W75228  40.561  21.190  12.157
 2804W        W75229  35.130  38.493  14.843
 2805W        W75230  11.916  16.063  11.947
 2806W        W75231  33.704  26.033  13.578
 2807W        W75232  17.989  32.046  10.857
 2808W        W75233  35.488  20.584  10.674
 2809W        W75234   0.015  24.993  12.360
 2810W        W75235  14.668  25.892  12.445
 2811W        W75236  39.850  33.379  12.692
 2812W        W75237  27.548  37.089  11.169
 2813W        W75238  27.709  30.963  14.472
 2814W        W75239  17.882  34.405   2.581
 2815W        W75240  38.562  33.607   1.855
 2816W        W75241  29.945  34.398  11.810
 2817W        W75242  39.619  28.540   3.454
 2818W        W75243  24.468  35.446  10.669
 2819W        W75244  37.491  33.672   4.912
 2820W        W75245  33.951  40.667  13.440
 2821W        W75246   2.201  16.645  11.511
 2822W        W75247  26.383  30.981  14.902
 2823W        W75248  23.994  42.230  12.454
 2824W        W75249  21.045  34.342  14.569
 2825W        W75250  10.533  18.779  12.057
 2826W        W75251  18.040  36.906   4.159
 2827W        W75252  23.964  24.432  14.416
 2828W        W75253  30.173  23.925  13.949
 2829W        W75254   3.463  23.328   1.301
 2830W        W75255   8.440  32.124   1.015
 2831W        W75256  27.490  31.643   2.975
 2832W        W75257  15.335  44.290  11.633
 2833W        W75258   0.640   2.537  12.825
 2834W        W75259  34.383  24.474  14.205
 2835W        W75260  33.586   8.968   2.731
 2836W        W75261  27.653  14.121  11.231
 2837W        W75262  41.368  25.158  11.108
 2838W        W75263  10.317  38.596   2.711
 2839W        W75264  29.389  17.213  13.830
 2840W        W75265  34.201  14.233   1.667
 2841W        W75266   7.824  32.351  10.157
 2842W        W75267  33.502  33.368  14.210
 2843W        W75268  38.040   1.829  10.075
 2844W        W75269  28.877  38.855  10.528
 2845W        W75270  42.085  36.942  14.528
 2846W        W75271  13.320  27.449  13.984
 2847W        W75272   9.151  15.728  12.502
 2848W        W75273  21.954  21.172   2.812
 2849W        W75274  27.513   9.345   2.165
 2850W        W75275  29.607  23.204  14.332
 2851W        W75276  35.632   4.153  11.644
 2852W        W75277  16.731  10.211   1.306
 2853W        W75278  30.927   3.436  14.555
 2854W        W75279  28.112  37.504  11.647
 2855W        W75280  34.625  21.705  14.060
 2856W        W75281  30.640  23.570  13.074
 2857W        W75282  33.075  16.314   4.686
 2858W        W75283  20.606   4.895   1.347
 2859W        W75284  12.311  39.951   2.584
 2860W        W75285   5.006   0.956   4.564
 2861W        W75286  37.884  30.210   0.821
 2862W        W75287   7.766   1.998  13.920
 2863W        W75288  35.080  19.505  10.313
 2864W        W75289  34.976  40.901  14.848
 2865W        W75290  29.493  11.857   1.867
 2866W        W75291  37.806  21.719  12.003
 2867W        W75292  18.428   3.807  11.902
 2868W        W75293   5.204   5.274   4.630
 2869W        W75294  34.618  18.859   0.927
 2870W        W75295  19.629  26.911  14.353
 2871W        W75296  39.440  31.514  12.133
 2872W        W75297   3.545  29.021  11.128
 2873W        W75298   4.226   0.516   2.294
 2874W        W75299  34.025  11.664  10.606
 2875W        W75300  31.228  43.908  14.466
 2876W        W75301  38.161  17.297   2.520
 2877W        W75302  19.569   8.008  11.849
 2878W        W75303  37.918  34.455  14.932
 2879W        W75304  32.174   0.620  14.313
 2880W        W75305  30.883   6.716   4.172
 2881W        W75306  20.439  38.987   4.546
 2882W        W75307  39.848  36.456   1.281
 2883W        W75308  36.730  42.118  11.077
 2884W        W75309  44.729   3.301  12.876
 2885W        W75310   1.875   9.457   2.055
 2886W        W75311  13.821  43.228   0.919
 2887W        W75312  44.179  13.801   1.437
 2888W        W75313  15.581   3.340  14.683
 2889W        W75314  32.958  29.965  12.049
 2890W        W75315   9.408  43.545  13.361
 2891W        W75316  31.447  42.514   3.320
 2892W        W75317   3.753  28.466   4.046
 2893W        W75318  21.076  20.567   4.564
 2894W        W75319  14.021  30.720  12.012
 2895W        W75320  20.799  24.612   3.146
 2896W        W75321  20.384  37.953  12.552
 2897W        W75322   3.490  12.320  11.145
 2898W        W75323  43.470  12.203   0.506
 2899W        W75324  28.982  23.606   4.729
 2900W        W75325  20.979   5.516   0.295
 2901W        W75326  25.625  38.321   0.663
 2902W        W75327  21.979  22.837   2.286
 2903W        W75328  43.953  39.923   2.207
 2904W        W75329  35.382  10.209   0.844
 2905W        W75330  34.325  33.657  13.057
 2906W        W75331  17.800   2.648  12.558
 2907W        W75332  22.176  18.636  12.070
 2908W        W75333  18.834  16.332  14.295
 2909W        W75334  30.641  14.269  14.184
 2910W        W75335  29.054  28.485   2.643
 2911W        W75336  29.403  39.379   9.939
 2912W        W75337  12.767  20.938   4.280
 2913W        W75338   7.159  41.225  12.527
 2914W        W75339  20.274  42.738   1.883
 2915W        W75340  22.710  38.588   4.715
 2916W        W75341   3.982  32.662   0.491
 2917W        W75342  21.987   8.870  10.436
 2918W        W75343  29.021  41.734   4.203
 2919W        W75344   0.504  39.299   2.896
 2920W        W75345  11.482  12.080   2.236
 2921W        W75346  43.037  17.470  11.619
 2922W        W75347   5.213  13.110  12.976
 2923W        W75348  10.699  16.536   1.745
 2924W        W75349   5.233  17.201   4.096
 2925W        W75350  21.700  14.360   1.659
 2926W        W75351   2.390  30.998   1.808
 2927W        W75352   3.659  41.489   2.700
 2928W        W75353  36.957   9.459  14.975
 2929W        W75354  40.844   0.964   0.789
 2930W        W75355  24.104  39.348   0.243
 2931W        W75356  19.279  21.613  13.495
 2932W        W75357  39.935  20.861   9.579
 2933W        W75358  18.268  28.146  14.198
 2934W        W75359  25.755  18.373   0.138
 2935W        W75360  22.256  28.573  13.368
 2936W        W75361   8.508  11.054  12.545
 2937W        W75362   4.704  21.939  10.137
 2938W        W75363  16.208  36.955   3.402
 2939W        W75364  11.158  28.366  14.078
 2940W        W75365  24.679  34.667  14.357
 2941W        W75366   0.854   9.223  11.885
 2942W        W75367  15.850  23.568  10.847
 2943W        W75368  29.158  17.843  13.034
 2944W        W75369  27.616  33.086   3.577
 2945W        W75370  39.748  25.750   4.171
 2946W        W75371  35.852   0.866   0.889
 2947W        W75372  28.409  44.346  11.933
 2948W        W75373  18.892  12.316   0.718
 2949W        W75374  28.516  15.634  14.312
 2950W        W75375  36.283   6.711   3.630
 2951W        W75376  41.682  42.865  11.892
 2952W        W75377  36.637  16.091   1.867
 2953W        W75378  16.009  24.519   0.413
 2954W        W75379   9.897   1.746   3.745
 2955W        W75380  25.490  17.166  11.484
 2956W        W75381  44.850  44.343  13.548
 2957W        W75382  40.572  26.691   4.244
 2958W        W75383   2.185  39.570   0.923
 2959W        W75384  37.560  23.469  12.148
 2960W        W75385   2.320   7.450   0.466
 2961W        W75386  16.189  38.287  14.435
 2962W        W75387   7.807  19.296  13.119
 2963W        W75388  11.292  32.016   2.236
 2964W        W75389  37.273   0.435  12.001
 2965W        W75390   5.141   6.479   3.152
 2966W        W75391  28.492   4.221  14.888
 2967W        W75392   1.937   0.855  14.475
 2968W        W75393  42.531  27.528   2.827
 2969W        W75394  11.668   9.873  11.945
 2970W        W75395   0.155  11.760   3.744
 2971W        W75396  11.743   2.049   2.953
 2972W        W75397  29.101  36.544  11.497
 2973W        W75398  26.330  22.780  14.824
 2974W        W75399  38.032  36.309  14.950
 2975W        W75400  39.308   0.815  14.376
 2976W        W75401  13.356  38.430  10.678
 2977W        W75402  12.595  33.846  13.584
 2978W        W75403  28.549  22.827   1.903
 2979W        W75404  16.590  14.381   0.930
 2980W        W75405  20.811   2.949  12.218
 2981W        W75406   4.700   8.678  14.898
 2982W        W75407  43.340  15.394  13.400
 2983W        W75408  10.766  20.682  11.538
 2984W        W75409  20.048  29.675  14.306
 2985W        W75410  38.289  11.799  12.831
 2986W        W75411  35.860  43.450  13.820
 2987W        W75412  25.970   2.674  14.389
 2988W        W75413  20.541  15.312  12.085
 2989W        W75414  28.407  22.086   0.268
 2990W        W75415   9.086  42.380   1.392
 2991W        W75416  18.490  20.165   0.424
 2992W        W75417  36.891  28.487  14.057
 2993W        W75418  13.808  18.286  14.448
 2994W        W75419   5.912  40.166  12.102
 2995W        W75420   2.354  34.150   3.327
 2996W        W75421  11.911   4.656  10.844
 2997W        W75422   8.559  16.837   0.363
 2998W        W75423  26.525  13.378  10.714
 2999W        W75424  31.156  12.239   4.397
 3000W        W75425  31.902  25.961   0.212
 3001W        W75426  24.098   3.460   3.563
 3002W        W75427  10.714   5.150   0.302
 3003W        W75428  35.652   3.140  11.519
 3004W        W75429  18.315   7.506  12.440
 3005W        W75430  21.635  42.032   1.681
 3006W        W75431  16.333  15.295   3.212
 3007W        W75432  23.085  31.007   0.443
 3008W        W75433  29.563  35.679   3.793
 3009W        W75434  40.987  37.841  14.378
 3010W        W75435  26.505  26.655   1.222
 3011W        W75436  43.703  42.902   1.538
 3012W        W75437  37.325  19.866   3.668
 3013W        W75438   3.203   8.190   3.191
 3014W        W75439  16.512  11.911  12.574
 3015W        W75440  39.271   4.262  14.956
 3016W        W75441  42.871  44.611  12.308
 3017W        W75442  29.331  16.165  11.516
 3018W        W75443   6.860  22.032  13.042
 3019W        W75444  31.118   2.574  13.748
 3020W        W75445  24.495  31.202  12.816
 3021W        W75446  10.568  20.436  11.997
 3022W        W75447  43.684   1.092   4.270
 3023W        W75448  35.568  11.711  10.608
 3024W        W75449  19.470   5.690  12.589
 3025W        W75450  10.567  20.087   0.403
 3026W        W75451  35.792   8.034   2.107
 3027W        W75452  33.629  27.572  10.675
 3028W        W75453  16.233   4.321   1.755
 3029W        W75454  32.945  30.877   0.445
 3030W        W75455   1.589  38.496   4.901
 3031W        W75456  25.155  26.621   4.163
 3032W        W75457  41.729  37.000   4.943
 3033W        W75458  41.562  20.189  13.311
 3034W        W75459  24.554   4.401  11.142
 3035W        W75460  27.516  31.199   1.274
 3036W        W75461  26.781  39.566  14.168
 3037W        W75462  17.085  19.033   1.732
 3038W        W75463  21.764  33.034   0.460
 3039W        W75464   8.788  41.781   2.791
 3040W        W75465  20.642  17.184  11.569
 3041W        W75466  15.089  20.233  11.006
 3042W        W75467  18.209  29.569   2.004
 3043W        W75468  17.260  11.352  13.735
 3044W        W75469  30.548   3.359  11.623
 3045W        W75470   5.272  11.660  12.580
 3046W        W75471  38.927  22.812  11.938
 3047W        W75472  15.529   8.549  12.629
 3048W        W75473  29.939  23.448  13.565
 3049W        W75474  33.454  29.357  14.452
 3050W        W75475   0.553  42.496  13.529
 3051W        W75476  29.665   2.862   3.390
 3052W        W75477  12.277  38.095   2.819
 3053W        W75478   3.058  16.610  12.487
 3054W        W75479  32.027  25.564  10.615
 3055W        W75480  25.503  13.545   3.154
 3056W        W75481  19.160  39.723  11.167
 3057W        W75482  30.954  29.918   0.690
 3058W        W75483  34.322   4.997   2.276
 3059W        W75484  43.304  18.733  11.530
 3060W        W75485  20.579   1.648  12.115
 3061W        W75486  40.329  30.602   3.670
 3062W        W75487   4.087  41.078  12.068
 3063W        W75488   6.093  15.885  12.497
 3064W        W75489   6.872   3.347   2.861
 3065W        W75490  37.318   1.325  12.077
 3066W        W75491   8.584  24.565  11.973
 3067W        W75492   2.428  23.126  13.919
 3068W        W75493  43.538  34.933  13.280
 3069W        W75494  35.219   3.785  11.134
 3070W        W75495  42.494  33.919  11.731
 3071W        W75496  10.139  10.303   0.230
 3072W        W75497  43.416   9.827   2.347
 3073W        W75498  42.513  19.295  11.377
 3074W        W75499  30.603  30.549   4.199
 3075W        W75500  21.921  29.342  14.573
 3076W        W75501   9.709  12.943   1.423
 3077W        W75502   2.881  33.978   4.450
 3078W        W75503  31.062  13.620  11.564
 3079W        W75504   8.302  30.214   3.227
 3080W        W75505  20.076  40.959  13.453
 3081W        W75506  30.658  34.166  11.523
 3082W        W75507  24.162  29.018   2.470
 3083W        W75508   5.537  20.484  10.742
 3084W        W75509  40.095  21.701  13.382
 3085W        W75510  25.177  39.695  13.271
 3086W        W75511  44.584  32.965   1.855
 3087W        W75512   2.748  12.916   4.897
 3088W        W75513  33.676  40.812   3.419
 3089W        W75514  24.623  18.081   2.417
 3090W        W75515   6.629  40.117   0.353
 3091W        W75516  20.341  39.058   3.624
 3092W        W75517  22.997   5.253   2.921
 3093W        W75518   3.245  19.691   2.607
 3094W        W75519  40.085  43.053  12.591
 3095W        W75520  14.160  30.198   0.507
 3096W        W75521  40.981   8.406  13.510
 3097W        W75522  40.631  33.512  10.300
 3098W        W75523  23.024  10.818   2.644
 3099W        W75524   3.855   0.547   1.888
 3100W        W75525  37.661  17.185   2.311
 3101W        W75526   0.070  35.514   2.241
 3102W        W75527  34.568  10.854  13.354
 3103W        W75528   3.112  35.581  11.494
 3104W        W75529  27.018  39.851  10.542
 3105W        W75530  18.328   4.636  13.825
 3106W        W75531  21.229  30.937  12.175
 3107W        W75532   9.254  34.547   1.656
 3108W        W75533  28.627  22.764   3.637
 3109W        W75534  40.610  30.016   1.187
 3110W        W75535   2.979  38.541   2.960
 3111W        W75536  22.224   1.204  14.282
 3112W        W75537  26.149   2.966  14.782
 3113W        W75538  20.292  23.954  12.114
 3114W        W75539  16.597  37.548   3.519
 3115W        W75540  30.729  18.124  10.739
 3116W        W75541  24.055  39.993   4.496
 3117W        W75542  42.754  21.100   3.806
 3118W        W75543  18.338  32.885  14.422
 3119W        W75544  19.989  28.996  14.881
 3120W        W75545  20.676  16.278  11.762
 3121W        W75546   8.883   7.698   1.911
 3122W        W75547  41.582   8.184   4.687
 3123W        W75548  36.476  27.216   2.201
 3124W        W75549  24.495  28.408   4.215
 3125W        W75550  17.297  14.819   1.306
 3126W        W75551   1.988   5.863   0.312
 3127W        W75552   4.296  18.493   3.798
 3128W        W75553  42.030  41.280  11.624
 3129W        W75554  33.671  29.689  11.570
 3130W        W75555  42.704   0.499  11.139
 3131W        W75556  34.403  35.031  10.655
 3132W        W75557   3.911  39.588  14.658
 3133W        W75558  10.931   0.042   2.895
 3134W        W75559   1.823   1.660  14.807
 3135W        W75560  17.103  23.140  13.714
 3136W        W75561   0.386  22.108  11.081
 3137W        W75562  23.528  28.193  13.857
 3138W        W75563  30.019  14.556  12.470
 3139W        W75564  21.518   4.365   2.152
 3140W        W75565   1.291  25.275  13.966
 3141W        W75566  21.858  11.228   3.424
 3142W        W75567  43.801  34.705   1.772
 3143W        W75568  13.052  21.441   3.823
 3144W        W75569  17.192  17.345  14.843
 3145W        W75570  10.070  16.008  11.656
 3146W        W75571  41.282  20.565   1.508
 3147W        W75572  25.103  25.512   2.809
 3148W        W75573  11.032  39.710   4.973
 3149W        W75574  30.909  33.415  13.936
 3150W        W75575  31.967  21.688   3.202
 3151W        W75576  17.634  15.236  11.801
 3152W        W75577   7.206  32.879   1.860
 3153W        W75578   5.485   5.287   1.289
 3154W        W75579  26.252  35.495  14.111
 3155W        W75580  25.912   4.391  10.488
 3156W        W75581  27.079  26.236  13.048
 3157W        W75582  23.732  12.113   4.179
 3158W        W75583  37.492  31.883  12.515
 3159W        W75584  22.450  18.566  12.547
 3160W        W75585  43.405  28.371  11.998
 3161W        W75586  35.514  11.235  14.226
 3162W        W75587   6.417  25.449  11.886
 3163W        W75588  18.811  19.189  13.371
 3164W        W75589  32.662  38.347  14.362
 3165W        W75590  39.418  21.088  13.316
 3166W        W75591  27.219  20.057   4.293
 3167W        W75592  15.627  16.955  13.577
 3168W        W75593  29.331   1.668  12.496
 3169W        W75594  36.068   1.953   2.202
 3170W        W75595  26.680  30.495  12.109
 3171W        W75596  19.170  38.314  12.374
 3172W        W75597  22.789  28.962   3.830
 3173W        W75598  43.864  40.622   3.426
 3174W        W75599  36.752   4.520   5.060
 3175W        W75600  14.699  29.232  10.947
 3176W        W75601  37.610  28.655  12.151
 3177W        W75602  28.388  22.297   3.641
 3178W        W75603  30.443   4.827   2.179
 3179W        W75604  16.657  13.824  10.401
 3180W        W75605  37.001  28.234  12.194
 3181W        W75606   1.406  15.639  13.923
 3182W        W75607  38.494  30.468  11.215
 3183W        W75608  30.878  40.778   4.614
 3184W        W75609  34.646  37.036   1.811
 3185W        W75610  19.046  11.546   3.060
 3186W        W75611  36.374  23.908  12.990
 3187W        W75612  25.188  18.300   3.789
 3188W        W75613  41.077  31.107   2.409
 3189W        W75614   0.581   7.292   2.144
 3190W        W75615  32.714  32.070  12.538
 3191W        W75616  23.735   5.758  11.624
 3192W        W75617  11.727  18.568   4.431
 3193W        W75618  38.901  43.614  13.698
 3194W        W75619   8.279  14.511   5.011
 3195W        W75620   1.062  32.062  11.063
 3196W        W75621  25.954  28.689   0.908
 3197W        W75622  35.656  43.013  12.616
 3198W        W75623  21.642  11.634   3.044
 3199W        W75624  29.216   8.231  11.181
 3200W        W75625  23.885  28.376  12.625
 3201W        W75626  37.001   4.230   3.149
 3202W        W75627   8.290  41.641  11.571
 3203W        W75628  15.567  28.746   0.924
 3204W        W75629   6.498  30.395  10.201
 3205W        W75630  16.769   3.718   4.369
 3206W        W75631  27.483  37.891  13.816
 3207W        W75632  21.476  20.122   3.712
 3208W        W75633  10.610  20.220  13.327
 3209W        W75634  30.413  34.576  11.734
 3210W        W75635  18.079  28.622  14.684
 3211W        W75636  34.514  36.044  14.039
 3212W        W75637   0.854  14.792  13.947
 3213W        W75638  30.583  21.094   2.651
 3214W        W75639  29.920  17.744   0.706
 3215W        W75640   5.807  16.318   0.543
 3216W        W75641   2.170  24.618  13.975
 3217W        W75642  12.718  30.065   3.616
 3218W        W75643  36.914  32.197   2.166
 3219W        W75644  37.402  44.048  11.634
 3220W        W75645  33.126  30.949   4.571
 3221W        W75646  33.937  38.365  11.452
 3222W        W75647  38.712  15.232   0.694
 3223W        W75648  29.053   3.417  14.385
 3224W        W75649  35.939  17.055   3.109
 3225W        W75650   2.507  42.443  11.533
 3226W        W75651   1.486  37.066   3.710
 3227W        W75652  14.532  33.082   4.970
 3228W        W75653  31.022  13.313  10.727
 3229W        W75654  24.779   1.262  11.486
 3230W        W75655   5.464  33.436  11.222
 3231W        W75656  18.694   9.617   3.786
 3232W        W75657  44.455  24.502   1.377
 3233W        W75658  15.600  15.241   0.777
 3234W        W75659  33.919   1.296   2.661
 3235W        W75660   5.369  13.116   0.874
 3236W        W75661   2.176  27.710   4.030
 3237W        W75662  44.821  17.545  12.651
 3238W        W75663  43.452  39.502   3.070
 3239W        W75664   5.872  30.951   2.273
 3240W        W75665   7.721  23.613  13.281
 3241W        W75666  35.508  25.571   2.507
 3242W        W75667  10.679   1.906  13.805
 3243W        W75668  39.927  31.938   1.510
 3244W        W75669  34.468  41.884   0.782
 3245W        W75670  30.853  34.857  11.680
 3246W        W75671  29.568  27.172  14.329
 3247W        W75672  22.296  44.455   0.717
 3248W        W75673  31.295  19.354  13.303
 3249W        W75674   4.790   5.816   4.680
 3250W        W75675  38.562  37.387   3.741
 3251W        W75676  38.311  33.591   3.798
 3252W        W75677  19.015  36.343  11.559
 3253W        W75678  21.591  22.385  13.919
 3254W        W75679   3.932  40.956  14.464
 3255W        W75680  26.019   8.384   0.358
 3256W        W75681  30.965   4.309   2.631
 3257W        W75682  28.661   3.894  14.515
 3258W        W75683  12.949  11.883  12.032
 3259W        W75684  19.649  19.757   3.571
 3260W        W75685  18.811   1.685   0.410
 3261W        W75686  23.868   7.816  14.810
 3262W        W75687  32.981  31.039   2.315
 3263W        W75688   9.174  17.295  14.887
 3264W        W75689   6.421  20.859  10.719
 3265W        W75690   0.284  37.814   4.620
 3266W        W75691  20.126  27.200   1.305
 3267W        W75692  19.346  16.933   4.538
 3268W        W75693  33.582   3.273   1.726
 3269W        W75694  30.321   0.160  10.832
 3270W        W75695  33.172  44.491   2.896
 3271W        W75696  24.274  14.608   0.178
 3272W        W75697  39.754  32.638   2.823
 3273W        W75698   0.154   0.413   4.252
 3274W        W75699  39.799   5.775  13.034
 3275W        W75700   9.208   1.899   2.438
 3276W        W75701   6.463  10.748  12.578
 3277W        W75702  41.565  20.178   1.709
 3278W        W75703  33.375  43.963   2.330
 3279W        W75704  13.583  23.566  10.221
 3280W        W75705  15.041  24.415   4.753
 3281W        W75706  31.648   4.448   0.726
 3282W        W75707  11.564  32.001   4.611
 3283W        W75708  14.662  34.251  11.454
 3284W        W75709   9.300  18.936   4.218
 3285W        W75710  12.807  26.156   3.802
 3286W        W75711  20.229  19.093   1.456
 3287W        W75712  18.091  38.602  13.303
 3288W        W75713  44.088   8.344  14.068
 3289W        W75714  11.784  16.080   4.294
 3290W        W75715  26.043  13.282  11.310
 3291W        W75716  42.325  17.561  11.266
 3292W        W75717  35.696  17.231   2.347
 3293W        W75718  34.631   4.866   0.862
 3294W        W75719  38.421   3.201   0.901
 3295W        W75720  40.025   1.419  12.409
 3296W        W75721  33.216  43.432   4.985
 3297W        W75722  35.687  15.245   1.506
 3298W        W75723  24.362  22.191   3.298
 3299W        W75724   1.976  37.957   1.408
 3300W        W75725  20.705  38.670  14.411
 3301W        W75726  38.863   5.278   1.256
 3302W        W75727  39.240   6.947   0.336
 3303W        W75728  14.163   5.268   4.116
 3304W        W75729  40.890  14.766   2.651
 3305W        W75730   1.963  36.570  12.424
 3306W        W75731  29.902   7.356   1.446
 3307W        W75732  11.402  16.351  10.577
 3308W        W75733  23.003   2.394   4.821
 3309W        W75734   7.811  31.542  12.095
 3310W        W75735   5.207  15.669  12.454
 3311W        W75736  26.915  29.373   2.778
 3312W        W75737  39.518   0.352   1.174
 3313W        W75738  33.621  12.303  11.223
 3314W        W75739  34.623  17.527  12.489
 3315W        W75740  13.766  34.388   4.941
 3316W        W75741  13.544   2.045   4.582
 3317W        W75742  40.345   5.982   3.106
 3318W        W75743   6.138  23.453   0.438
 3319W        W75744  22.777  11.097  10.954
 3320W        W75745  44.905  38.379   1.875
 3321W        W75746   1.966  15.786   0.717
 3322W        W75747   8.397  25.141   2.902
 3323W        W75748  34.543  37.127  12.761
 3324W        W75749  40.992  44.180  14.417
 3325W        W75750  24.134   0.847  13.093
 3326W        W75751   0.038  43.349  11.657
 3327W        W75752   5.567  18.735   2.402
 3328W        W75753  35.447  30.416   0.402
 3329W        W75754  33.878  21.569   2.368
 3330W        W75755  29.460  38.387  13.104
 3331W        W75756   8.002   7.417  10.413
 3332W        W75757  23.252  31.483  12.599
 3333W        W75758  43.598  25.642  11.152
 3334W        W75759  22.593   4.010  11.677
 3335W        W75760   0.557  31.106  12.949
 3336W        W75761  37.333   4.256  12.629
 3337W        W75762  27.144  20.521  12.815
 3338W        W75763   8.262  22.203  14.076
 3339W        W75764  21.149  40.891  14.805
 3340W        W75765  12.963  30.734  12.978
 3341W        W75766  36.812  43.469   2.359
 3342W        W75767  36.377  31.020  12.157
 3343W        W75768  13.551  17.760  11.904
 3344W        W75769  39.046  40.330  13.873
 3345W        W75770  27.603  34.239  11.826
 3346W        W75771   8.505  33.425   2.547
 3347W        W75772  14.925  35.003  10.592
 3348W        W75773   0.548  36.125  11.076
 3349W        W75774  34.640  31.457  12.495
 3350W        W75775  29.071  32.768  13.536
 3351W        W75776  25.152   2.825   4.582
 3352W        W75777  23.517  37.950  11.630
 3353W        W75778  10.413  15.711   1.649
 3354W        W75779  35.395   3.940   4.245
 3355W        W75780  12.091  44.965   4.680
 3356W        W75781  25.476   8.599   2.513
 3357W        W75782   0.004  26.743  13.034
 3358W        W75783  38.840  21.965   3.089
 3359W        W75784  16.231   3.949   3.679
 3360W        W75785   5.403  41.092  12.880
 3361W        W75786   5.941  34.874   2.769
 3362W        W75787  22.400   2.907  14.830
 3363W        W75788  27.131  19.790  11.447
 3364W        W75789  27.481  28.431  12.439
 3365W        W75790  22.247   5.251   0.671
 3366W        W75791  14.148   4.872  13.512
 3367W        W75792  20.097   2.723  10.714
 3368W        W75793   0.177  31.552   4.948
 3369W        W75794  35.849  28.158  12.134
 3370W        W75795  37.111   7.618   0.995
 3371W        W75796  38.129  21.798   2.590
 3372W        W75797   1.875  27.693  11.425
 3373W        W75798  25.740  13.754   2.720
 3374W        W75799  12.193  29.899  13.009
 3375W        W75800  39.147  21.628   2.833
 3376W        W75801  17.085  30.353  12.117
 3377W        W75802   4.945  19.684  12.877
 3378W        W75803  16.825  34.997   3.280
 3379W        W75804  19.253  28.279   3.684
 3380W        W75805  33.517  17.734   1.535
 3381W        W75806  23.259   4.595   1.974
 3382W        W75807  13.686  33.510  14.991
 3383W        W75808  36.406  17.717  10.627
 3384W        W75809  12.191  25.077   4.698
 3385W        W75810  20.811  43.026   2.649
 3386W        W75811  31.099  26.003  11.461
 3387W        W75812  18.322   0.644  10.841
 3388W        W75813  36.011  28.890  13.110
 3389W        W75814   1.949   4.404  12.091
 3390W        W75815  15.166  37.104   0.798
 3391W        W75816   1.772  27.530  11.958
 3392W        W75817   8.358  36.517  11.869
 3393W        W75818  10.725  30.178  11.604
 3394W        W75819  15.155   5.302  11.800
 3395W        W75820  21.291  10.692  12.918
 3396W        W75821  16.653   9.680  11.152
 3397W        W75822   0.707   5.281   1.245
 3398W        W75823  30.904   8.827  12.991
 3399W        W75824  13.853  23.020   4.111
 3400W        W75825   9.962   5.198  11.684
 3401W        W75826  16.415  44.729  11.635
 3402W        W75827  26.565  32.967   0.885
 3403W        W75828  43.953   4.279   4.026
 3404W        W75829   8.798  12.130   4.145
 3405W        W75830  23.225   1.685   4.566
 3406W        W75831  33.845  26.524   0.861
 3407W        W75832   9.272  37.373  13.386
 3408W        W75833  10.081   2.887   1.968
 3409W        W75834   1.782  44.266   4.094
 3410W        W75835  15.376  36.932  14.444
 3411W        W75836  39.247  34.472  13.184
 3412W        W75837  42.519  18.851   1.684
 3413W        W75838   8.550   1.920   3.374
 3414W        W75839  28.750  35.369   1.552
 3415W        W75840   4.644  35.422   2.723
 3416W        W75841  43.300   5.626  11.035
 3417W        W75842  35.601   5.465   2.788
 3418W        W75843  38.847  22.445  12.478
 3419W        W75844  10.038  20.525   0.474
 3420W        W75845  38.351  39.619  14.990
 3421W        W75846  27.616  24.720  12.106
 3422W        W75847  44.500  21.531   0.476
 3423W        W75848  38.390  38.434   3.868
 3424W        W75849  25.199  33.948  13.392
 3425W        W75850  10.601  30.698  12.209
 3426W        W75851  29.311   9.453  10.684
 3427W        W75852   7.134  34.620  11.970
 3428W        W75853  16.271  43.753   0.506
 3429W        W75854   4.963  38.137   4.266
 3430W        W75855  28.986  15.866  14.358
 3431W        W75856  22.778   3.992   1.727
 3432W        W75857  25.160  27.599  13.597
 3433W        W75858  19.046  22.603   2.710
 3434W        W75859   1.110  14.838  13.483
 3435W        W75860   2.838  34.870   2.822
 3436W        W75861   2.557   6.261   3.472
 3437W        W75862  31.358  43.919   3.377
 3438W        W75863  39.979   9.399  14.211
 3439W        W75864  16.348  29.132  11.724
 3440W        W75865  38.372  14.456   1.977
 3441W        W75866   1.383  40.955   1.313
 3442W        W75867   6.654  36.380   2.309
 3443W        W75868  36.837  32.336  11.828
 3444W        W75869  33.196  10.805   1.248
 3445W        W75870  33.679  15.273  14.334
 3446W        W75871   8.339  23.517   0.422
 3447W        W75872   2.841  26.628   2.916
 3448W        W75873  22.998  24.595  13.389
 3449W        W75874  42.802  40.132  10.678
 3450W        W75875  36.056  23.967  13.439
 3451W        W75876  31.620   0.045  14.942
 3452W        W75877  34.642  44.818   2.749
 3453W        W75878  34.590   5.595  14.863
 3454W        W75879  31.696   4.850  14.443
 3455W        W75880  35.290  26.582   3.573
 3456W        W75881  44.947  33.041  10.345
 3457W        W75882  12.690  37.279  13.959
 3458W        W75883  44.213   5.934  10.669
 3459W        W75884  19.595  39.001   1.206
 3460W        W75885  29.882  29.124  14.885
 3461W        W75886  18.357   6.641  12.225
 3462W        W75887   9.385  44.529   3.327
 3463W        W75888   3.928  36.609   0.464
 3464W        W75889  22.662   8.627  14.533
 3465W        W75890  29.627  41.326   1.490
 3466W        W75891   7.291  37.428  11.960
 3467W        W75892  12.644  17.571   3.763
 3468W        W75893   2.035   1.310  10.498
 3469W        W75894  40.871  21.793   5.528
 3470W        W75895  12.143  43.872   3.735
 3471W        W75896   4.662  10.655   2.697
 3472W        W75897  18.742  15.175   2.342
 3473W        W75898  22.008  11.375  10.734
 3474W        W75899  14.285  42.930  12.372
 3475W        W75900  23.099  37.255   2.238
 3476W        W75901   6.774  36.380   0.786
 3477W        W75902  14.346  41.528  13.381
 3478W        W75903   9.338  28.555  11.966
 3479W        W75904  31.127  20.807  13.396
 3480W        W75905   0.159  29.669   0.756
 3481W        W75906  32.487   7.659   2.201
 3482W        W75907  26.467  18.973  12.394
 3483W        W75908  38.609   5.180   0.311
 3484W        W75909  31.036  37.621   2.410
 3485W        W75910  15.671   5.763  12.300
 3486W        W75911  39.027  31.669  13.789
 3487W        W75912  43.078  30.517   0.368
 3488W        W75913  25.802  34.416  13.487
 3489W        W75914  14.481  39.589  11.106
 3490W        W75915  44.840  25.287  11.543
 3491W        W75916  30.403  42.734  11.685
 3492W        W75917  38.067  22.239   0.724
 3493W        W75918   2.954  26.447   1.198
 3494W        W75919   1.371  22.628   3.222
 3495W        W75920  15.577  27.943  10.107
 3496W        W75921  29.508  22.002   2.765
 3497W        W75922  33.901  17.631   4.440
 3498W        W75923  40.857  44.548  12.720
 3499W        W75924   2.837  38.298  11.981
 3500W        W75925  33.461   6.798   0.060
 3501W        W75926  13.784  32.709   3.358
 3502W        W75927   7.398  11.908   2.800
 3503W        W75928  19.676  10.337   3.342
 3504W        W75929  21.287  17.712   1.835
 3505W        W75930   0.311   9.264  13.752
 3506W        W75931  21.116   0.553   4.234
 3507W        W75932   7.470   5.858   2.425
 3508W        W75933  10.079  13.996  10.251
 3509W        W75934  30.589  44.242   4.956
 3510W        W75935  27.903  18.533   4.085
 3511W        W75936  38.097  33.148  14.575
 3512W        W75937  19.350  22.797  12.612
 3513W        W75938  34.836   5.844   0.962
 3514W        W75939  11.731   1.764  14.394
 3515W        W75940  32.915  29.370  14.366
 3516W        W75941  30.258  36.013   3.145
 3517W        W75942   8.977  17.824  14.322
 3518W        W75943  39.999  39.647  13.917
 3519W        W75944  13.528  30.260  13.852
 3520W        W75945  21.483  38.219   3.592
 3521W        W75946  14.586  39.360  13.967
 3522W        W75947  18.625  16.371  11.996
 3523W        W75948  27.946  42.787   3.715
 3524W        W75949  38.697   5.988  11.949
 3525W        W75950  27.594  35.465   2.473
 3526W        W75951  21.038  18.535  13.369
 3527W        W75952   2.487  20.040   4.250
 3528W        W75953   5.263  21.389  12.407
 3529W        W75954  33.971  17.993   2.750
 3530W        W75955  26.631  37.781   1.592
 3531W        W75956  15.184  27.568  13.181
 3532W        W75957  28.910  19.017   2.955
 3533W        W75958  32.633  12.119   1.325
 3534W        W75959  16.873  41.851   2.925
 3535W        W75960  32.350   6.289  12.444
 3536W        W75961  12.342   9.236  13.998
 3537W        W75962  35.958  12.324  11.573
 3538W        W75963  13.620  43.586   4.476
 3539W        W75964   9.539  39.456   1.797
 3540W        W75965  21.040   0.408   0.069
 3541W        W75966  15.977  10.695  12.890
 3542W        W75967  18.106  29.199  11.666
 3543W        W75968  15.030  44.173  12.582
 3544W        W75969  24.731  31.229   2.235
 3545W        W75970   9.671  31.359   0.829
 3546W        W75971  18.320   1.444   4.080
 3547W        W75972  30.437  29.257   0.909
 3548W        W75973  26.270   9.547  14.364
 3549W        W75974   4.453  28.046  13.366
 3550W        W75975  33.396   9.766  12.059
 3551W        W75976  13.168   9.790  12.637
 3552W        W75977   3.686   9.914   2.288
 3553W        W75978  34.799  23.338   4.483
 3554W        W75979  32.539  28.649  14.930
 3555W        W75980  39.302  14.280   1.259
 3556W        W75981  10.872   7.805  11.707
 3557W        W75982   0.773   1.725   4.893
 3558W        W75983  35.436  28.198  10.721
 3559W        W75984  16.270  13.575  14.965
 3560W        W75985  19.617  18.512   1.814
 3561W        W75986   1.015  20.548  10.628
 3562W        W75987  38.386  14.744  12.244
 3563W        W75988  26.891  29.585   4.580
 3564W        W75989   1.845  41.314   0.068
 3565W        W75990  19.500   3.435   2.803
 3566W        W75991  15.460  36.915   0.329
 3567W        W75992   6.202  30.697   0.762
 3568W        W75993  28.026  33.112  10.529
 3569W        W75994  39.860  31.111   1.008
 3570W        W75995  32.409  26.649  11.567
 3571W        W75996   7.938   9.076  11.412
 3572W        W75997  39.479  23.445  14.445
 3573W        W75998  11.100  26.710  11.354
 3574W        W75999  24.185  12.270  12.125
 3575W        W76000  17.087   5.250  13.055
 3576W        W76001  10.640   3.640  10.721
 3577W        W76002  13.863  26.470   0.687
 3578W        W76003  14.362  34.559  12.460
 3579W        W76004   2.528  44.060   2.708
 3580W        W76005  34.640  22.312   4.863
 3581W        W76006  27.924   9.686  11.594
 3582W        W76007  40.077   2.740  14.672
 3583W        W76008  10.595  39.035   2.696
 3584W        W76009  21.502  17.125  11.030
 3585W        W76010  25.678  17.593  13.145
 3586W        W76011  42.990  15.047  14.028
 3587W        W76012  40.839  38.046  13.073
 3588W        W76013   7.316  44.521   4.801
 3589W        W76014  37.606  16.567  14.957
 3590W        W76015   7.794   8.861   0.767
 3591W        W76016  17.376   6.915   4.754
 3592W        W76017   8.813  39.595  14.821
 3593W        W76018  23.863  14.859  12.319
 3594W        W76019  42.511   4.266  14.628
 3595W        W76020  24.369  15.711   1.909
 3596W        W76021  38.013  25.061   4.607
 3597W        W76022  12.117  34.456  12.925
 3598W        W76023  31.651  36.061  13.311
 3599W        W76024  13.142  28.587  13.352
 3600W        W76025  42.126  35.450   2.840
 3601W        W76026  19.030   9.832   2.858
 3602W        W76027  43.824  44.992  11.542
 3603W        W76028  10.290   4.846   0.216
 3604W        W76029  26.335  43.039  13.340
 3605W        W76030  18.843  43.817   2.345
 3606W        W76031  31.851  21.339  11.583
 3607W        W76032   6.395  34.746   3.526
 3608W        W76033  25.903  24.631  10.588
 3609W        W76034   5.322  25.488   2.387
 3610W        W76035  23.481  27.661   4.126
 3611W        W76036   9.819  34.628   0.466
 3612W        W76037  28.864  42.327  14.713
 3613W        W76038  17.788  42.936   3.256
 3614W        W76039   0.493  40.886  13.019
 3615W        W76040  41.363  40.745  12.373
 3616W        W76041  34.501   8.262   0.227
 3617W        W76042  27.103   7.735  14.101
 3618W        W76043  18.418  18.510   4.127
 3619W        W76044   0.349  14.155   2.676
 3620W        W76045   2.927  17.570   0.710
 3621W        W76046   7.743  21.911  13.814
 3622W        W76047   5.952  30.484  13.049
 3623W        W76048  20.118   0.066  14.853
 3624W        W76049  25.004  45.000   0.517
 3625W        W76050  34.329  18.819  13.422
 3626W        W76051  10.354  38.497  12.491
 3627W        W76052  26.725  11.307  11.610
 3628W        W76053  30.998  26.232   2.246
 3629W        W76054   7.954   4.791   0.407
 3630W        W76055  43.121  22.138   3.000
 3631W        W76056  14.334   1.128   0.147
 3632W        W76057  38.468  17.766  11.208
 3633W        W76058  30.109  43.840   4.247
 3634W        W76059  11.631  44.600  11.230
 3635W        W76060  21.887  38.033   3.847
 3636W        W76061  19.738   6.204  13.957
 3637W        W76062  35.414  14.067   3.346
 3638W        W76063  40.408  41.152  10.250
 3639W        W76064  24.020  44.434   1.888
 3640W        W76065  18.294   2.931   2.347
 3641W        W76066   2.764  10.090  14.857
 3642W        W76067  23.919  29.669  14.189
 3643W        W76068  25.950  42.398  11.833
 3644W        W76069   4.524  24.528  12.118
 3645W        W76070   0.573   5.050  11.086
 3646W        W76071  36.969  11.164   1.443
 3647W        W76072  27.325   7.621   4.512
 3648W        W76073  14.252  37.909   4.302
 3649W        W76074  43.385   7.154  13.796
 3650W        W76075  10.964  42.247  13.991
 3651W        W76076  10.459  28.695   0.315
 3652W        W76077  16.148  43.860   4.608
 3653W        W76078  24.382  14.238   3.356
 3654W        W76079  42.036  33.598   1.244
 3655W        W76080  26.180  26.005  10.679
 3656W        W76081   4.769  43.186  12.562
 3657W        W76082  10.114   5.600  13.033
 3658W        W76083   1.976  27.227   4.123
 3659W        W76084  40.403  38.056  13.568
 3660W        W76085  23.497  35.593   1.911
 3661W        W76086  21.974  24.387   4.224
 3662W        W76087  11.247  10.665   0.838
 3663W        W76088   9.644   3.400   1.144
 3664W        W76089   5.335  19.579   2.016
 3665W        W76090  41.617  35.076  11.951
 3666W        W76091  14.284  19.719   1.765
 3667W        W76092  25.965  38.515  11.895
 3668W        W76093  24.770  19.838   1.706
 3669W        W76094  18.189  11.356  11.657
 3670W        W76095  39.972  27.088   4.575
 3671W        W76096  44.954  27.532  11.455
 3672W        W76097   2.327   6.088  12.162
 3673W        W76098  29.119  21.935  11.428
 3674W        W76099  32.511  21.221  11.982
 3675W        W76100  15.096  17.484   1.339
 3676W        W76101  19.112  33.471  10.676
 3677W        W76102  13.726  18.483  13.988
 3678W        W76103   7.195  38.648   4.206
 3679W        W76104  29.426   2.412   3.291
 3680W        W76105  25.537   5.293  10.717
 3681W        W76106  32.347  29.654  14.854
 3682W        W76107  39.429   7.529   4.606
 3683W        W76108   4.752  17.568  14.973
 3684W        W76109  43.915  36.007  14.202
 3685W        W76110  20.151  33.815   2.289
 3686W        W76111   2.115   2.955  14.455
 3687W        W76112  38.155   7.216  12.826
 3688W        W76113  20.705  43.483   5.106
 3689W        W76114  28.712  32.199  12.326
 3690W        W76115  14.164  43.082   4.727
 3691W        W76116   1.482  26.789  14.046
 3692W        W76117  11.749  34.086  12.826
 3693W        W76118  33.105  33.999   4.577
 3694W        W76119  28.249  18.769   3.147
 3695W        W76120  13.561  26.512   4.560
 3696W        W76121  16.662  33.452   3.142
 3697W        W76122  29.528  31.161  12.895
 3698W        W76123  44.453  13.278  12.636
 3699W        W76124  15.012  25.296  13.954
 3700W        W76125  24.011  19.664  14.887
 3701W        W76126  24.775  22.696   2.760
 3702W        W76127  44.719  44.288   2.814
 3703W        W76128  36.941  23.927  12.545
 3704W        W76129   8.764  30.641  13.413
 3705W        W76130  12.028   3.800  14.098
 3706W        W76131   1.331  35.912   3.234
 3707W        W76132  43.515  34.412   3.640
 3708W        W76133  30.835  32.465  11.220
 3709W        W76134  23.266   1.378  13.999
 3710W        W76135  15.774  31.761   5.147
 3711W        W76136  23.039  19.436  14.490
 3712W        W76137  25.203  28.567  12.774
 3713W        W76138  26.619   5.258  10.562
 3714W        W76139  17.290  35.423   2.217
 3715W        W76140  12.390  13.883   0.216
 3716W        W76141  16.226  18.510  12.779
 3717W        W76142  27.045  23.378  13.882
 3718W        W76143  36.026  44.561   0.499
 3719W        W76144  37.189  37.378   0.961
 3720W        W76145  44.319  42.720  10.107
 3721W        W76146  19.471  40.026  10.900
 3722W        W76147   4.643  28.664   4.583
 3723W        W76148  31.301  36.523  14.912
 3724W        W76149   3.466  29.579  11.085
 3725W        W76150   3.201  10.129   1.958
 3726W        W76151  19.514   8.268  13.340
 3727W        W76152   6.693   5.472  13.315
 3728W        W76153  27.782  44.467  11.097
 3729W        W76154  42.346   3.398  11.698
 3730W        W76155  28.584  38.664   0.043
 3731W        W76156  22.253  36.084   0.853
 3732W        W76157   2.503  27.738  12.492
 3733W        W76158  38.522   6.937  13.888
 3734W        W76159  22.731  17.765  11.399
 3735W        W76160  40.978  10.309   4.295
 3736W        W76161   9.755  17.886  10.233
 3737W        W76162  24.234  42.655  10.242
 3738W        W76163  32.803  15.147   1.629
 3739W        W76164  24.602   8.436  14.416
 3740W        W76165   1.879  25.742   4.537
 3741W        W76166  43.673  24.590  11.166
 3742W        W76167  38.909  12.708   1.808
 3743W        W76168   7.296   3.732  14.815
 3744W        W76169  31.922  30.980  12.357
 3745W        W76170  35.447   0.281   4.222
 3746W        W76171  14.812  29.268   4.557
 3747W        W76172  40.405  40.496   2.171
 3748W        W76173  16.468  27.661   1.816
 3749W        W76174  27.154  13.570   2.720
 3750W        W76175   4.891  11.353   0.854
 3751W        W76176  33.523  41.279   1.717
 3752W        W76177  44.458  42.228   1.314
 3753W        W76178  38.188   3.974   2.628
 3754W        W76179  35.677   0.211  10.752
 3755W        W76180  40.586   1.463   1.394
 3756W        W76181  38.540  24.743  13.979
 3757W        W76182  20.540  22.943   2.658
 3758W        W76183  29.330  22.197  11.833
 3759W        W76184  33.633  29.139   4.174
 3760W        W76185  21.338  41.272   0.081
 3761W        W76186   7.434  16.712  13.015
 3762W        W76187  42.202   6.058   3.324
 3763W        W76188   3.435  39.945   0.756
 3764W        W76189  41.123  38.952  10.789
 3765W        W76190  19.408   9.284   0.840
 3766W        W76191  17.065  12.840  14.350
 3767W        W76192  16.945   4.739  10.943
 3768W        W76193  40.026  17.420   2.725
 3769W        W76194  18.685  20.998   4.082
 3770W        W76195  11.277  11.173  13.894
 3771W        W76196  31.516  39.464  13.854
 3772W        W76197   3.471  17.780   0.475
 3773W        W76198  25.165  36.922  10.766
 3774W        W76199   9.914  32.195   2.826
 3775W        W76200  42.199  36.027   4.082
 3776W        W76201  14.309  16.586  12.848
 3777W        W76202   8.772  42.641   2.205
 3778W        W76203   9.382  29.134   1.700
 3779W        W76204   9.851  43.301   3.634
 3780W        W76205   2.499  17.215   0.751
 3781W        W76206  14.789  12.937  11.917
 3782W        W76207  19.542  18.655  13.557
 3783W        W76208  19.333  18.596   2.865
 3784W        W76209  14.114  22.543  10.897
 3785W        W76210   0.454  21.780   3.670
 3786W        W76211  36.458  21.072   3.757
 3787W        W76212  20.212  31.996   0.335
 3788W        W76213  10.039  26.688  13.960
 3789W        W76214  16.325   4.685  14.033
 3790W        W76215   3.994  15.301  11.899
 3791W        W76216  16.763  41.901  13.291
 3792W        W76217   8.454  23.980  13.550
 3793W        W76218  29.219  13.117   4.781
 3794W        W76219  24.883  12.239   3.723
 3795W        W76220  16.071  14.625  14.343
 3796W        W76221   5.660  15.879   4.179
 3797W        W76222  35.507  12.633   3.321
 3798W        W76223  32.932   5.847   0.882
 3799W        W76224  32.933  26.125  14.037
 3800W        W76225   7.659  42.749   1.904
 3801W        W76226  11.852  14.742   2.184
 3802W        W76227   2.664  37.552   2.126
 3803W        W76228  13.361  42.523   3.370
 3804W        W76229  13.365  41.482  10.624
 3805W        W76230   9.117  35.968   1.880
 3806W        W76231  17.942   8.948  11.121
 3807W        W76232  38.063  22.486   3.260
 3808W        W76233  33.037  44.477  14.438
 3809W        W76234  40.128   2.251   1.606
 3810W        W76235   7.494  30.533  14.448
 3811W        W76236  30.193   2.963  12.018
 3812W        W76237  37.567  21.285   3.792
 3813W        W76238   5.468  18.725  14.499
 3814W        W76239   6.582  10.284   9.931
 3815W        W76240  15.779  28.190   1.745
 3816W        W76241  33.278  32.329   0.986
 3817W        W76242  39.362  12.569   3.822
 3818W        W76243  25.012  27.200   3.675
 3819W        W76244  10.104  37.746  13.126
 3820W        W76245  36.204  17.867   2.762
 3821W        W76246  32.678  18.841  11.026
 3822W        W76247  31.889  30.217  13.466
 3823W        W76248  30.732  38.583  10.815
 3824W        W76249  37.271   1.356   0.891
 3825W        W76250  41.299  21.713  11.012
 3826W        W76251  35.399  17.803  11.464
 3827W        W76252   0.000   1.551  10.608
 3828W        W76253  44.944  30.755   3.057
 3829W        W76254  22.748  18.175  12.775
 3830W        W76255  13.581  36.939  12.949
 3831W        W76256  36.625  32.802  11.848
 3832W        W76257   1.270  32.528  11.078
 3833W        W76258   9.712  22.126  13.209
 3834W        W76259  44.780  37.999   4.709
 3835W        W76260  13.216  14.858   2.406
 3836W        W76261  43.773  31.827  14.417
 3837W        W76262  35.232  29.097  14.933
 3838W        W76263  25.168  35.238   5.128
 3839W        W76264  28.699  38.585   4.103
 3840W        W76265  10.872  26.085  11.691
 3841W        W76266  19.642  36.977  14.623
 3842W        W76267   2.060  42.057   4.230
 3843W        W76268   6.348   1.709  10.136
 3844W        W76269  17.426  19.753  13.441
 3845W        W76270  41.447  43.369   0.448
 3846W        W76271  14.692   9.376   0.397
 3847W        W76272   7.973   3.616  11.895
 3848W        W76273  37.880  19.763   4.527
 3849W        W76274  39.028  23.615  14.106
 3850W        W76275  25.947  28.017   2.705
 3851W        W76276  13.638  26.950  11.031
 3852W        W76277  23.454  14.068  11.910
 3853W        W76278  19.724  22.424   1.847
 3854W        W76279  18.019  13.094   3.704
 3855W        W76280  43.483   0.626   0.475
 3856W        W76281  13.726  23.517   2.767
 3857W        W76282  28.990  16.480   3.718
 3858W        W76283   7.754  32.896  13.405
 3859W        W76284   8.357  10.430  14.253
 3860W        W76285   2.637  36.157   3.830
 3861W        W76286  41.478  31.175  12.435
 3862W        W76287   8.763  17.038  13.828
 3863W        W76288   1.113   3.286   2.410
 3864W        W76289  15.329  23.005  14.507
 3865W        W76290  10.353  11.266   4.419
 3866W        W76291  26.503  13.927   0.393
 3867W        W76292  36.400  39.454   2.827
 3868W        W76293   1.876  19.804  13.460
 3869W        W76294  28.622  12.427  12.545
 3870W        W76295  40.034  21.076   3.674
 3871W        W76296   1.778  31.115   4.794
 3872W        W76297  35.387  29.505   4.333
 3873W        W76298  31.174  44.362   3.160
 3874W        W76299  20.452   0.993  12.123
 3875W        W76300  35.201   8.871   2.314
 3876W        W76301   9.804  11.800   0.838
 3877W        W76302   8.688  28.026  13.392
 3878W        W76303  10.638  15.536   0.914
 3879W        W76304  34.201   7.471   3.524
 3880W        W76305  11.072  30.351  13.392
 3881W        W76306  15.027   1.532   4.739
 3882W        W76307  29.128  37.060  12.114
 3883W        W76308  17.137  23.612  11.637
 3884W        W76309  42.366  36.584  14.788
 3885W        W76310   8.600   2.771   4.530
 3886W        W76311  28.178  20.163   4.143
 3887W        W76312   8.417  40.171   2.324
 3888W        W76313  30.208  40.959  11.524
 3889W        W76314   4.485  20.244   1.858
 3890W        W76315  41.263  23.247  12.011
 3891W        W76316  44.844  24.813  11.719
 3892W        W76317  15.276  27.649  14.761
 3893W        W76318  43.306   0.346   3.352
 3894W        W76319  36.121   6.299  13.887
 3895W        W76320   3.897  15.160   3.740
 3896W        W76321   5.849   9.341  11.962
 3897W        W76322  36.328   5.441   0.006
 3898W        W76323  23.486  10.892  14.033
 3899W        W76324  19.862  35.525  14.122
 3900W        W76325  26.093  28.491   4.607
 3901W        W76326  27.484  24.485   1.739
 3902W        W76327  12.939   6.781  10.998
 3903W        W76328  37.975   5.075  14.021
 3904W        W76329  43.057  20.090  10.124
 3905W        W76330  42.990  36.285   5.034
 3906W        W76331  24.969   0.543   4.481
 3907W        W76332  21.459  41.795   4.134
 3908W        W76333   2.934  13.490  11.945
 3909W        W76334  13.852  38.588   0.372
 3910W        W76335  17.736  22.988  10.714
 3911W        W76336   0.434  36.038   1.008
 3912W        W76337  38.221  15.855  14.059
 3913W        W76338  44.885  29.190  11.226
 3914W        W76339  12.274  36.999   3.219
 3915W        W76340  37.070  44.060  12.046
 3916W        W76341   3.451   0.198  12.058
 3917W        W76342  26.271   8.204   2.751
 3918W        W76343   8.266   4.205   3.787
 3919W        W76344   5.042  23.548  14.051
 3920W        W76345  37.522  27.927  12.825
 3921W        W76346   1.949  26.738   0.283
 3922W        W76347  23.220  30.894   1.487
 3923W        W76348  42.752   9.903  10.756
 3924W        W76349  35.101  42.390  10.740
 3925W        W76350  13.800  40.830  13.032
 3926W        W76351   2.125  25.624   4.101
 3927W        W76352  15.301  39.291  14.464
 3928W        W76353   8.209  39.964   4.121
 3929W        W76354  34.772  33.466   0.497
 3930W        W76355  43.788   9.100   3.157
 3931W        W76356   4.384  23.191   2.809
 3932W        W76357  31.261   3.639  13.107
 3933W        W76358  27.885   2.753   2.629
 3934W        W76359  28.575  15.108  11.535
 3935W        W76360  37.073  27.074   4.140
 3936W        W76361  22.797   1.948   2.630
 3937W        W76362  44.434  28.820   4.568
 3938W        W76363  31.497  24.187   2.098
 3939W        W76364  20.185  40.141  14.057
 3940W        W76365  35.613  22.869  11.084
 3941W        W76366  24.948  37.414  13.254
 3942W        W76367  20.451  42.999   3.910
 3943W        W76368  16.096  32.458  10.883
 3944W        W76369  38.447  30.527   0.636
 3945W        W76370   1.915   0.015  14.047
 3946W        W76371   0.005  26.464  13.925
 3947W        W76372  21.284  37.510  12.430
 3948W        W76373  39.481   2.285   1.012
 3949W        W76374  17.268  34.451  14.880
 3950W        W76375   1.564  22.468  12.494
 3951W        W76376   0.028  25.474  14.041
 3952W        W76377  33.021   3.000  10.342
 3953W        W76378  30.481  26.393   0.882
 3954W        W76379  30.480   2.479  10.665
 3955W        W76380  33.724  25.260   2.819
 3956W        W76381  26.364  12.945  13.448
 3957W        W76382  12.871  22.483  12.012
 3958W        W76383  21.563   6.220  12.520
 3959W        W76384  34.096  30.962   0.035
 3960W        W76385   2.179  18.267   4.904
 3961W        W76386  40.954  43.250   2.298
 3962W        W76387  22.115  20.505   4.295
 3963W        W76388  38.066   5.847  14.645
 3964W        W76389   9.861  44.407  12.124
 3965W        W76390   1.998  39.496  14.014
 3966W        W76391  40.447  17.277   0.748
 3967W        W76392  19.061  22.938  11.471
 3968W        W76393  40.106  36.433  11.557
 3969W        W76394  11.559  32.623   0.333
 3970W        W76395  39.338  15.307   1.336
 3971W        W76396  32.411  32.483   2.179
 3972W        W76397   0.966  35.437   4.105
 3973W        W76398  18.619  34.128  13.531
 3974W        W76399  40.057  43.351   2.053
 3975W        W76400  12.274  22.294  10.748
 3976W        W76401  34.377  40.448   3.393
 3977W        W76402  26.528  39.021  13.445
 3978W        W76403  13.128  27.507   3.578
 3979W        W76404   7.860  14.410   2.381
 3980W        W76405  34.114  42.432   2.625
 3981W        W76406  42.701  19.741  12.114
 3982W        W76407  10.187  43.412  10.603
 3983W        W76408  33.271   1.875  13.575
 3984W        W76409   9.406  29.222   3.922
 3985W        W76410  19.292   6.129   2.891
 3986W        W76411  40.989  31.027  12.653
 3987W        W76412  30.777  22.020  10.597
 3988W        W76413   1.184  16.520   0.424
 3989W        W76414  27.712  20.629   1.009
 3990W        W76415  43.471  13.133   1.337
 3991W        W76416  42.489  29.523  14.891
 3992W        W76417  29.476  23.478   4.722
 3993W        W76418  11.589  11.170   1.273
 3994W        W76419   8.065  42.813   4.982
 3995W        W76420  44.296  15.766  12.311
 3996W        W76421  11.725  18.578   0.839
 3997W        W76422   1.507  38.489  12.617
 3998W        W76423  22.030   6.936   0.459
 3999W        W76424  43.390   7.640   4.050
 4000W        W76425  29.388   5.698   0.924
 4001W        W76426  30.551  30.867  12.969
 4002W        W76427  19.521  42.782  10.875
 4003W        W76428  31.124  38.142  14.671
 4004W        W76429  29.955   3.401   3.232
 4005W        W76430   1.462  22.183   4.110
 4006W        W76431  11.115  25.054  12.458
 4007W        W76432  30.209   0.324   2.422
 4008W        W76433  43.885  36.498   1.391
 4009W        W76434   7.639  42.903  13.459
 4010W        W76435  32.421  33.621   3.607
 4011W        W76436   6.708  16.302   2.910
 4012W        W76437   1.263  40.514  14.547
 4013W        W76438  21.347  44.416  13.164
 4014W        W76439  34.955   4.471  13.901
 4015W        W76440  18.123  30.519   0.448
 4016W        W76441  39.800   4.368   4.533
 4017W        W76442  31.264  29.172   1.869
 4018W        W76443  29.317  20.681  10.235
 4019W        W76444  22.082  42.272   1.316
 4020W        W76445  19.544  32.564   4.587
 4021W        W76446  12.122  28.214  11.161
 4022W        W76447  40.034  37.437   2.268
 4023W        W76448  20.580  14.014  13.962
 4024W        W76449  20.584  17.140  14.447
 4025W        W76450   9.673   7.771  14.356
 4026W        W76451  32.327  18.586  10.730
 4027W        W76452  15.773   2.329  11.023
 4028W        W76453  23.766  37.575   3.675
 4029W        W76454  39.079  44.394   1.366
 4030W        W76455  42.262  26.471   3.825
 4031W        W76456  20.974  40.102  11.573
 4032W        W76457  29.315  22.466  13.915
 4033W        W76458  37.045   7.195   1.803
 4034W        W76459   1.939  22.709   4.930
 4035W        W76460  43.722  40.812  12.852
 4036W        W76461  42.477  34.846  13.395
 4037W        W76462  21.587  24.924  12.112
 4038W        W76463  43.532  37.542  10.688
 4039W        W76464  34.498   0.932  13.857
 4040W        W76465  24.424  34.391  13.021
 4041W        W76466  30.012  31.658  10.609
 4042W        W76467  14.142  33.587  14.728
 4043W        W76468  44.158   9.099   4.545
 4044W        W76469  44.336   7.668  14.860
 4045W        W76470  44.389  29.524  13.855
 4046W        W76471  43.061  43.931   4.140
 4047W        W76472  42.020   7.676   0.795
 4048W        W76473  44.982   4.282   0.923
 4049W        W76474  35.429   3.890  12.048
 4050W        W76475  22.093  40.206   3.690
 4051W        W76476  32.592  16.680   1.770
 4052W        W76477  16.361   6.375  13.465
 4053W        W76478  12.578  44.904   0.950
 4054W        W76479  17.688  24.919  12.509
 4055W        W76480  42.716  41.209  13.478
 4056W        W76481  44.801  44.117   0.766
 4057W        W76482   9.416  42.304   3.701
 4058W        W76483  22.976  43.815  12.882
 4059W        W76484  18.614  19.501  12.080
 4060W        W76485   1.432  39.274  11.601
 4061W        W76486  18.362  30.955   1.717
 4062W        W76487  23.637  18.406  10.658
 4063W        W76488  37.677  30.500   4.607
 4064W        W76489   1.933  25.112  12.589
 4065W        W76490   7.468   3.275   4.296
 4066W        W76491  23.471  21.428   4.099
 4067W        W76492   1.393  14.310   3.746
 4068W        W76493   8.413   3.523   4.109
 4069W        W76494  42.516  25.572  11.376
 4070W        W76495  27.287  34.786  12.635
 4071W        W76496  15.356  23.979  13.524
 4072W        W76497  13.049  13.835  14.836
 4073W        W76498  28.350   3.445   3.706
 4074W        W76499   6.322   0.019  12.154
 4075W        W76500  10.676   8.626  11.139
 4076W        W76501   3.314  15.280   1.934
 4077W        W76502  16.362  24.085   0.392
 4078W        W76503  26.733  21.749   4.583
 4079W        W76504   3.540   7.410   2.211
 4080W        W76505   6.614   1.382   0.828
 4081W        W76506   4.626   0.622  13.512
 4082W        W76507  25.324  34.390  13.701
 4083W        W76508  10.127  28.945   3.240
 4084W        W76509  11.730  10.675   2.773
 4085W        W76510  38.846  23.340   1.833
 4086W        W76511   0.414  14.242   0.655
 4087W        W76512   1.884  34.305   3.516
 4088W        W76513  14.166  38.540   2.183
 4089W        W76514  27.401  23.274   4.083
 4090W        W76515  41.102  15.787  10.361
 4091W        W76516   3.737  31.174  12.862
 4092W        W76517  32.787  13.617  11.927
 4093W        W76518   6.596   4.253   2.417
 4094W        W76519   3.933  16.514  13.978
 4095W        W76520  25.198  26.710   5.049
 4096W        W76521  35.877   8.367  11.940
 4097W        W76522  16.183   2.764  14.282
 4098W        W76523  38.381  16.122   4.066
 4099W        W76524  34.230  28.766   0.597
 4100W        W76525  36.418  30.143  13.111
 4101W        W76526  25.529   0.466  13.035
 4102W        W76527  34.316  27.271  13.947
 4103W        W76528   5.157  37.794  14.214
 4104W        W76529  28.159  25.901   4.169
 4105W        W76530   2.735  37.574   2.654
 4106W        W76531   9.154  26.492  11.723
 4107W        W76532  36.919  16.244  12.190
 4108W        W76533   3.040  23.456  11.598
 4109W        W76534  33.425  30.174   4.169
 4110W        W76535  17.189  28.935  13.584
 4111W        W76536  37.801   6.813  12.800
 4112W        W76537  16.056  31.427  12.285
 4113W        W76538  19.590  41.359   3.692
 4114W        W76539  13.534  36.821  13.448
 4115W        W76540  23.947   5.813  13.443
 4116W        W76541  19.068  29.106   0.762
 4117W        W76542   4.199   9.824  13.984
 4118W        W76543   3.258  14.791   3.652
 4119W        W76544  29.917   9.192   0.921
 4120W        W76545  28.142   8.210  13.317
 4121W        W76546  39.365  16.470  14.333
 4122W        W76547  28.126   0.222   2.854
 4123W        W76548  22.027   7.712  13.000
 4124W        W76549  30.765  22.961  14.953
 4125W        W76550  24.188   7.846   4.431
 4126W        W76551  25.737  22.199  13.804
 4127W        W76552  43.212  36.071   2.326
 4128W        W76553  26.362  41.722  12.438
 4129W        W76554  41.141  40.974   3.714
 4130W        W76555   3.831   1.287  14.172
 4131W        W76556  12.661   1.043  11.219
 4132W        W76557   0.810   2.804  14.053
 4133W        W76558   8.960  36.170  14.667
 4134W        W76559  25.759  23.018  10.575
 4135W        W76560   1.731  26.081  11.525
 4136W        W76561  44.259  28.869  10.368
 4137W        W76562  37.973  27.480  12.359
 4138W        W76563   2.218  24.207   2.304
 4139W        W76564  31.641  23.226  10.038
 4140W        W76565  15.728  32.696  14.825
 4141W        W76566   5.998   2.965   3.138
 4142W        W76567  13.196  27.018   2.242
 4143W        W76568  39.047  18.768   2.756
 4144W        W76569  17.132  21.169  13.520
 4145W        W76570  11.286  11.646   2.426
 4146W        W76571   2.095  28.621  11.180
 4147W        W76572  21.509  16.068  13.299
 4148W        W76573  44.410  10.960   2.357
 4149W        W76574  20.786  16.687  11.402
 4150W        W76575  13.481  34.642  10.850
 4151W        W76576  24.280   9.638  11.655
 4152W        W76577  26.751   5.442  11.025
 4153W        W76578  20.067  29.546  11.600
 4154W        W76579  18.824  17.246  11.013
 4155W        W76580  26.220   4.013  13.931
 4156W        W76581  32.558  27.022   4.131
 4157W        W76582  23.530  26.158  12.368
 4158W        W76583  22.277  14.329   0.860
 4159W        W76584  18.293  37.591  11.116
 4160W        W76585  13.151   0.875   5.129
 4161W        W76586   4.391  25.661  12.298
 4162W        W76587   8.677  26.598  11.553
 4163W        W76588  41.722  15.141   2.765
 4164W        W76589  26.283  35.913  10.379
 4165W        W76590  18.503  13.633   4.882
 4166W        W76591  36.154  38.924   1.004
 4167W        W76592  13.842  36.337  14.832
 4168W        W76593  34.881  44.994  10.638
 4169W        W76594  16.836  22.314   1.230
 4170W        W76595  32.451  32.962   0.875
 4171W        W76596  41.528   4.822  12.145
 4172W        W76597   0.754  44.508  12.910
 4173W        W76598  16.507  27.759  13.552
 4174W        W76599  28.051  30.046   1.490
 4175W        W76600  42.063  37.007   0.920
 4176W        W76601  32.384  34.302  14.010
 4177W        W76602  42.923  44.073  13.958
 4178W        W76603  36.956  28.475  11.731
 4179W        W76604   0.903  23.458  13.450
 4180W        W76605  18.671  41.022  13.551
 4181W        W76606   1.734  30.179  11.551
 4182W        W76607  38.522  44.254   4.543
 4183W        W76608  38.700  11.769   4.593
 4184W        W76609   8.805  40.385  12.688
 4185W        W76610   7.639  29.172   2.899
 4186W        W76611  33.905  41.314   0.766
 4187W        W76612   4.436  16.524   0.356
 4188W        W76613   2.362  36.902  13.414
 4189W        W76614  18.754  42.983  11.702
 4190W        W76615  24.452  17.689  14.231
 4191W        W76616   9.850  17.275   4.392
 4192W        W76617  34.904   6.409   3.584
 4193W        W76618  43.721  21.035  13.060
 4194W        W76619  10.006  29.528   0.359
 4195W        W76620  37.089   3.217  13.170
 4196W        W76621  38.311  17.558   3.305
 4197W        W76622  20.780  24.093  12.062
 4198W        W76623   7.005  10.236   4.636
 4199W        W76624   9.311   0.956  13.774
 4200W        W76625   2.919   1.297  12.049
 4201W        W76626  42.846   6.433   2.803
 4202W        W76627  15.816   6.260  12.071
 4203W        W76628  12.712  32.463   4.286
 4204W        W76629  14.352  18.124  13.018
 4205W        W76630   6.305  20.183  14.423
 4206W        W76631  23.464  11.445   4.744
 4207W        W76632  39.844  42.593  11.687
 4208W        W76633  37.874  11.130  12.763
 4209W        W76634  19.565  37.402  14.934
 4210W        W76635  18.645  30.512   3.254
 4211W        W76636  25.733  36.418  13.852
 4212W        W76637  15.481  33.286   3.278
 4213W        W76638  27.204   2.535   4.174
 4214W        W76639  15.252  42.167  11.568
 4215W        W76640  34.515  37.044  10.728
 4216W        W76641  13.827  35.425   3.823
 4217W        W76642   7.776  14.601   0.265
 4218W        W76643  16.195  18.008  13.021
 4219W        W76644  12.644  11.166   4.133
 4220W        W76645   2.397  40.443  13.328
 4221W        W76646  27.748  32.462   0.304
 4222W        W76647  34.407  18.283   2.807
 4223W        W76648  25.036  24.255   1.290
 4224W        W76649  39.432  11.583  13.502
 4225W        W76650  23.659  32.722  11.044
 4226W        W76651   6.634  13.735   4.110
 4227W        W76652  23.548  31.115   0.739
 4228W        W76653  21.518  10.670  11.660
 4229W        W76654   2.653  39.436  12.796
 4230W        W76655  33.053  41.341   3.873
 4231W        W76656  15.147  16.427  13.925
 4232W        W76657  41.379   7.372   4.197
 4233W        W76658  26.983  14.825  13.863
 4234W        W76659  37.059  19.165   1.852
 4235W        W76660   3.692   6.397  14.883
 4236W        W76661  11.390   3.985  10.639
 4237W        W76662  11.134   9.733   1.934
 4238W        W76663  25.071  30.092  13.802
 4239W        W76664  38.380  29.202   1.313
 4240W        W76665  36.015  31.004  14.877
 4241W        W76666  22.495  18.196  11.423
 4242W        W76667  42.297  13.102  12.986
 4243W        W76668  20.094  19.243  11.883
 4244W        W76669  40.027  22.638   3.155
 4245W        W76670  28.702  35.973  14.445
 4246W        W76671  13.387  24.516   3.185
 4247W        W76672  19.316   6.709  12.216
 4248W        W76673  18.320   9.927  11.359
 4249W        W76674  11.697  24.325   2.437
 4250W        W76675  43.052  20.327   4.751
 4251W        W76676  11.524  40.307   2.646
 4252W        W76677  13.155  27.885  10.899
 4253W        W76678  32.939  26.863   3.702
 4254W        W76679   9.151  27.791  11.655
 4255W        W76680   1.816  13.073   3.669
 4256W        W76681  26.575  36.069  11.186
 4257W        W76682  22.164  12.219   3.827
 4258W        W76683  11.818  44.571   2.727
 4259W        W76684  37.497  23.188  11.299
 4260W        W76685  16.856  44.344  12.998
 4261W        W76686  32.284  18.712   3.801
 4262W        W76687  13.702  28.830   3.143
 4263W        W76688  27.614  24.576   4.129
 4264W        W76689  25.103  13.379  12.425
 4265W        W76690   0.286  37.948   0.712
 4266W        W76691   2.820  23.024  12.086
 4267W        W76692  31.321  40.493   5.005
 4268W        W76693  31.655  14.434  12.913
 4269W        W76694  23.854  38.707  13.368
 4270W        W76695  29.315  35.417   4.173
 4271W        W76696  14.670  33.064  13.338
 4272W        W76697  28.830  11.488  13.886
 4273W        W76698  31.585  14.126  11.168
 4274W        W76699  44.672  41.160  12.877
 4275W        W76700  36.010  41.275  14.447
 4276W        W76701  18.467  19.071   2.827
 4277W        W76702  44.285  27.132  13.022
 4278W        W76703   9.454  27.572   3.577
 4279W        W76704  27.673  21.669   1.612
 4280W        W76705  26.718  33.104   3.553
 4281W        W76706  28.915  20.173  13.264
 4282W        W76707  12.235  11.119   0.654
 4283W        W76708   7.860  30.427   1.320
 4284W        W76709  44.334  26.260   4.574
 4285W        W76710  28.326  19.710  13.530
 4286W        W76711  17.114  36.670  14.448
 4287W        W76712  10.224   5.443  13.870
 4288W        W76713   6.761   4.492  14.763
 4289W        W76714  30.188   3.302   3.697
 4290W        W76715  28.514  23.608  13.987
 4291W        W76716  12.752  44.476   1.793
 4292W        W76717  40.568  23.455   3.296
 4293W        W76718  13.703  17.917  11.451
 4294W        W76719  14.863  15.571   2.243
 4295W        W76720  15.324  28.556   2.165
 4296W        W76721  43.043  29.137  12.057
 4297W        W76722  13.562  39.291  10.676
 4298W        W76723  18.684  16.846   1.463
 4299W        W76724  22.604  28.533   2.147
 4300W        W76725  21.981  43.556   3.313
 4301W        W76726  14.237  24.514  14.792
 4302W        W76727  12.948  19.159  13.509
 4303W        W76728   0.548  25.116   0.892
 4304W        W76729  41.791   8.942  11.761
 4305W        W76730  14.171  18.879  11.186
 4306W        W76731  12.721  22.070  10.936
 4307W        W76732  10.157  44.881  11.528
 4308W        W76733   1.862  35.959   3.193
 4309W        W76734  18.440  11.188  12.062
 4310W        W76735   9.965  38.128  12.566
 4311W        W76736  30.969  21.068  12.548
 4312W        W76737   0.794  44.032  12.723
 4313W        W76738  27.198  32.987  12.722
 4314W        W76739  28.743  21.069   3.134
 4315W        W76740   2.291  32.002  13.412
 4316W        W76741  37.557   9.325   3.320
 4317W        W76742  19.494  29.245  13.054
 4318W        W76743  17.682  29.035  11.397
 4319W        W76744  10.145  41.922  12.869
 4320W        W76745  18.529  36.889  14.045
 4321W        W76746  32.196  30.530  11.594
 4322W        W76747   0.716  15.659   1.355
 4323W        W76748  10.075  36.951  11.647
 4324W        W76749  16.739  17.754   3.073
 4325W        W76750  14.266   5.710   2.863
 4326W        W76751  10.321  34.029   4.199
 4327W        W76752   6.400   0.804  10.654
 4328W        W76753   6.919  18.577  14.021
 4329W        W76754  43.767  43.849   4.598
 4330W        W76755   6.826  36.465  14.500
 4331W        W76756  27.858  31.683   1.293
 4332W        W76757  43.515  24.198  13.426
 4333W        W76758  10.382  32.122  10.694
 4334W        W76759  26.748  43.618   2.066
 4335W        W76760  21.189  32.939  10.828
 4336W        W76761  40.384  38.112   4.582
 4337W        W76762   6.726  13.352  12.885
 4338W        W76763  20.221  30.578   5.115
 4339W        W76764  39.587   5.740  14.028
 4340W        W76765  43.397  44.088  12.879
 4341W        W76766  24.684  19.717   4.026
 4342W        W76767  42.819  41.282   3.268
 4343W        W76768  36.337   5.864   1.895
 4344W        W76769  35.820   5.961  10.502
 4345W        W76770  34.445  18.551  12.507
 4346W        W76771   6.114  27.097   1.407
 4347W        W76772  19.821   6.914  12.096
 4348W        W76773  26.165  35.887  12.113
 4349W        W76774  28.896  28.987  13.825
 4350W        W76775  36.976   9.803   2.213
 4351W        W76776  17.748   4.000   1.138
 4352W        W76777  19.797   9.201  11.083
 4353W        W76778  24.245   1.328  11.493
 4354W        W76779   0.743  42.540  12.106
 4355W        W76780   6.819  42.788   4.714
 4356W        W76781  31.133  36.308  10.605
 4357W        W76782  20.735  13.280  11.931
 4358W        W76783  18.056  34.367   3.075
 4359W        W76784  33.989  18.650   1.596
 4360W        W76785  30.420  31.705   0.433
 4361W        W76786  19.585  35.405   3.191
 4362W        W76787  34.797  42.951  13.056
 4363W        W76788   0.923  10.392  13.102
 4364W        W76789  36.963  23.625   2.091
 4365W        W76790  30.069  18.683  14.444
 4366W        W76791  20.637  27.633   3.183
 4367W        W76792  24.195  31.395   2.175
 4368W        W76793   8.687  21.966  13.927
 4369W        W76794  27.752  16.349  14.415
 4370W        W76795   3.214  31.054  10.713
 4371W        W76796  41.380   0.584   2.404
 4372W        W76797  34.165   8.844   4.631
 4373W        W76798   2.904  27.714  12.830
 4374W        W76799  32.429   5.287  14.938
 4375W        W76800  36.980  26.549   4.154
 4376W        W76801  31.064  30.869   2.533
 4377W        W76802   0.863  18.709  14.840
 4378W        W76803  16.890   7.888  14.817
 4379W        W76804  15.817   4.720   3.357
 4380W        W76805  42.838  31.919  12.452
 4381W        W76806  15.605  38.014   4.480
 4382W        W76807   2.383  39.274   0.408
 4383W        W76808   3.283  44.450   3.594
 4384W        W76809  15.157  17.238  11.500
 4385W        W76810   5.429  20.643   1.387
 4386W        W76811   1.686  20.802   1.805
 4387W        W76812  34.475  42.315   3.407
 4388W        W76813  24.637   5.407   1.876
 4389W        W76814  18.717   2.228  10.650
 4390W        W76815   4.399  42.840   1.155
 4391W        W76816  17.142  26.943  11.178
 4392W        W76817  29.664  21.071   3.274
 4393W        W76818  14.894  44.160  13.946
 4394W        W76819  41.023  31.500  12.445
 4395W        W76820   9.593   8.980  13.821
 4396W        W76821  33.199  18.073  11.403
 4397W        W76822  12.677   7.237   0.297
 4398W        W76823  13.129  23.220  13.543
 4399W        W76824  37.996  12.735   1.458
 4400W        W76825  43.752   8.386   2.754
 4401W        W76826  17.521   8.450   0.706
 4402W        W76827   0.753   7.188  13.429
 4403W        W76828  18.651  36.341   1.799
 4404W        W76829  40.324  36.015   0.871
 4405W        W76830  26.131   4.971   0.034
 4406W        W76831   0.879   9.323  10.480
 4407W        W76832   8.730   9.099   3.640
 4408W        W76833  42.203  22.975   2.863
 4409W        W76834  37.119  10.692   2.461
 4410W        W76835  43.445   8.004   0.359
 4411W        W76836   6.139   3.376  10.330
 4412W        W76837  24.227  34.658   4.613
 4413W        W76838  15.311  25.480  11.131
 4414W        W76839  38.189  25.173   3.193
 4415W        W76840   2.312  43.452  13.136
 4416W        W76841  27.227  36.451  11.315
 4417W        W76842   8.855  27.423  11.029
 4418W        W76843  30.549  34.020   0.572
 4419W        W76844  43.074   1.665   1.320
 4420W        W76845  44.247  39.043   4.526
 4421W        W76846  30.141  27.530  11.529
 4422W        W76847  18.742   8.280  12.341
 4423W        W76848  33.937   4.802  14.942
 4424W        W76849  31.539  18.809   0.378
 4425W        W76850   4.100   2.239   1.847
 4426W        W76851  13.240  28.490   4.323
 4427W        W76852  29.691  37.602   1.640
 4428W        W76853   1.657  41.151   3.244
 4429W        W76854  17.739  20.328  12.413
 4430W        W76855  24.176  21.298   0.846
 4431W        W76856   4.617  31.436   0.454
 4432W        W76857  36.055  43.460  11.926
 4433W        W76858  31.572  10.853   3.692
 4434W        W76859  18.245  36.917   4.650
 4435W        W76860  19.538  43.571   3.183
 4436W        W76861  39.425  26.408  13.045
 4437W        W76862  15.687   0.894  14.861
 4438W        W76863  24.890  30.803  10.645
 4439W        W76864  37.834   3.673  12.082
 4440W        W76865  32.362  20.390   2.668
 4441W        W76866   0.445  34.366  12.121
 4442W        W76867  41.845  29.078  10.656
 4443W        W76868  12.813  14.151  10.611
 4444W        W76869  26.125  30.480  13.923
 4445W        W76870  25.890   3.738  11.992
 4446W        W76871  31.931  30.409  14.541
 4447W        W76872   4.168  13.665   0.358
 4448W        W76873  33.068  21.287   3.649
 4449W        W76874  14.284  30.558  14.452
 4450W        W76875  32.994  31.473   4.303
 4451W        W76876  13.844  10.182  11.510
 4452W        W76877  36.916  13.546   4.548
 4453W        W76878   0.276  36.044   3.275
 4454W        W76879   6.427  26.484   0.296
 4455W        W76880   1.908   4.262  13.799
 4456W        W76881  17.690   5.415  12.480
 4457W        W76882  43.827  36.748   1.877
 4458W        W76883  24.689  25.683  12.094
 4459W        W76884  41.315   0.943   1.565
 4460W        W76885  39.341   8.954   4.860
 4461W        W76886  36.090   8.153  13.625
 4462W        W76887  28.119  41.753  14.547
 4463W        W76888   6.295  13.072  14.288
 4464W        W76889  23.893  32.187  13.064
 4465W        W76890   3.940  32.911   3.200
 4466W        W76891  37.836   6.325  11.072
 4467W        W76892  30.003   5.485  13.066
 4468W        W76893  40.292  17.122   4.117
 4469W        W76894   3.268  42.951  11.486
 4470W        W76895   2.558  17.440  14.631
 4471W        W76896   9.708  18.394  12.092
 4472W        W76897  35.983  10.341   4.096
 4473W        W76898  25.280  42.428   0.821
 4474W        W76899  21.530  27.500   2.936
 4475W        W76900   9.048  16.883   0.815
 4476W        W76901  39.778  44.053  11.908
 4477W        W76902  16.439   6.394   4.219
 4478W        W76903  17.588   4.668  14.750
 4479W        W76904  30.647  38.797  13.847
 4480W        W76905  26.454  37.303  10.291
 4481W        W76906  25.937  28.885   4.260
 4482W        W76907  28.263  31.925  11.953
 4483W        W76908  12.273  37.050   0.260
 4484W        W76909   9.357  41.583  10.758
 4485W        W76910  18.164  42.786   4.073
 4486W        W76911  10.471  31.671   1.294
 4487W        W76912   1.286  26.138  11.168
 4488W        W76913   9.163  31.832   4.425
 4489W        W76914  27.711  23.748   1.149
 4490W        W76915   4.145  24.400   4.197
 4491W        W76916  32.843  29.459  10.680
 4492W        W76917  11.935  22.081   3.623
 4493W        W76918  40.581  40.276   0.844
 4494W        W76919   6.718  15.799  10.309
 4495W        W76920  34.849  40.265   2.757
 4496W        W76921  33.604  26.070   0.911
 4497W        W76922  23.554   5.753   4.746
 4498W        W76923   5.469  15.239  13.999
 4499W        W76924  28.102  42.982   0.294
 4500W        W76925   4.463  32.442   0.495
 4501W        W76926  26.641  40.106  11.403
 4502W        W76927  38.782  42.341   1.806
 4503W        W76928  37.615  38.453   4.720
 4504W        W76929  43.313   3.503  12.551
 4505W        W76930   4.662  11.712   1.777
 4506W        W76931  15.708  30.369   1.038
 4507W        W76932  12.097  20.832   1.227
 4508W        W76933   0.372  31.550  14.263
 4509W        W76934  27.912  44.881  12.356
 4510W        W76935   4.347  38.949   3.139
 4511W        W76936  30.960  12.404  13.996
 4512W        W76937  41.099  35.098  11.918
 4513W        W76938  26.435  12.620  11.439
 4514W        W76939  23.003  19.330  13.266
 4515W        W76940  41.060  39.504   3.443
 4516W        W76941  16.089   8.160   2.302
 4517W        W76942   5.487  16.041  12.903
 4518W        W76943  35.408  41.041  10.582
 4519W        W76944  43.818  16.233   3.802
 4520W        W76945  44.639   0.480  11.536
 4521W        W76946  24.229   9.978   4.178
 4522W        W76947   2.676   8.681   3.686
 4523W        W76948  18.889  30.164   4.123
 4524W        W76949  16.741  33.593  11.142
 4525W        W76950  44.464  26.189  10.921
 4526W        W76951  32.990   0.931   4.937
 4527W        W76952   4.972  30.101  11.610
 4528W        W76953  36.019  25.695  12.061
 4529W        W76954   0.125   3.743   0.817
 4530W        W76955   2.668  30.918   3.257
 4531W        W76956  11.626   0.472  14.894
 4532W        W76957   7.186  24.940  13.882
 4533W        W76958  44.821  37.882  10.741
 4534W        W76959  27.201  43.331  12.980
 4535W        W76960  31.317   1.367  14.941
 4536W        W76961  29.977   8.886  10.626
 4537W        W76962  26.499  37.025   2.368
 4538W        W76963  44.919   6.973  14.962
 4539W        W76964   2.195  38.023  11.103
 4540W        W76965  38.871  20.156   1.870
 4541W        W76966  22.587  43.730   2.223
 4542W        W76967  15.227  15.219  10.756
 4543W        W76968  21.174  28.131   2.553
 4544W        W76969   6.896  44.453  11.049
 4545W        W76970   8.751  24.409  13.458
 4546W        W76971   1.534  26.990   0.439
 4547W        W76972  33.053  25.707  12.297
 4548W        W76973  23.852  30.585   9.740
 4549W        W76974  14.555   6.650  12.953
 4550W        W76975  33.716  34.588   3.677
 4551W        W76976  19.118  26.184   4.362
 4552W        W76977  13.232   6.938   2.147
 4553W        W76978   7.314  22.627   0.377
 4554W        W76979  32.471  13.600   4.297
 4555W        W76980  13.392  34.243  12.390
 4556W        W76981  27.145  28.032   1.558
 4557W        W76982  12.234  20.235  12.500
 4558W        W76983   2.785  37.086   2.382
 4559W        W76984  28.541  26.575   4.862
 4560W        W76985   5.415  10.664   3.121
 4561W        W76986  23.153  37.596   1.822
 4562W        W76987  20.109  20.756  11.624
 4563W        W76988  24.010   7.944  13.484
 4564W        W76989  11.796  39.432  13.113
 4565W        W76990  39.025  13.229  14.743
 4566W        W76991   9.164  29.525   2.612
 4567W        W76992  38.007  24.160   0.027
 4568W        W76993  14.294   4.142  14.257
 4569W        W76994  35.792  40.400   3.640
 4570W        W76995  23.332   6.760   3.243
 4571W        W76996   5.349  37.531  14.633
 4572W        W76997  16.838   2.483   0.359
 4573W        W76998  13.770  12.087  14.812
 4574W        W76999  22.430  17.754   3.790
 4575W        W77000   1.873  11.633   0.864
 4576W        W77001  13.785  10.188  13.562
 4577W        W77002  32.843   3.948  14.386
 4578W        W77003   9.906  10.772   2.849
 4579W        W77004  43.596   1.860  12.491
 4580W        W77005  34.177  31.995  14.031
 4581W        W77006  18.189  22.850  13.876
 4582W        W77007  43.727  38.444   1.155
 4583W        W77008  19.137  10.704  13.818
 4584W        W77009  44.931  18.690   4.418
 4585W        W77010   2.121   7.456  11.112
 4586W        W77011  36.072   2.232  14.849
 4587W        W77012  34.858  31.905  12.402
 4588W        W77013  25.159   1.998   1.811
 4589W        W77014  16.747  38.272   2.270
 4590W        W77015   0.198   1.253  14.433
 4591W        W77016   9.887   6.236   0.907
 4592W        W77017  25.479  13.282  13.606
 4593W        W77018  32.445  27.016   0.905
 4594W        W77019  28.843   0.953  11.874
 4595W        W77020  29.986  34.173  14.321
 4596W        W77021  15.097   7.940   1.835
 4597W        W77022   0.912  32.371  11.459
 4598W        W77023  38.594  33.969  14.097
 4599W        W77024  27.412  24.122   3.666
 4600W        W77025  44.492   3.255   2.714
 4601W        W77026  11.893  28.141   4.949
 4602W        W77027  17.209  36.591   4.034
 4603W        W77028   4.154  41.209   2.702
 4604W        W77029  42.610   4.119  11.223
 4605W        W77030  16.582  42.779   0.868
 4606W        W77031  10.616  30.021  14.780
 4607W        W77032  33.035  42.495   1.247
 4608W        W77033   0.951  43.224  13.248
 4609W        W77034  18.571  34.493  10.868
 4610W        W77035  23.063  28.395   3.350
 4611W        W77036  39.062  30.556  14.811
 4612W        W77037  18.574  11.777   1.255
 4613W        W77038   8.569   3.276  14.219
 4614W        W77039   7.582   7.169  11.145
 4615W        W77040   3.895   5.251  14.028
 4616W        W77041  19.051  13.592   2.086
 4617W        W77042  36.444  30.347  11.615
 4618W        W77043  34.102  34.957  13.515
 4619W        W77044   3.757  20.712   2.436
 4620W        W77045  28.729  16.929   2.761
 4621W        W77046   6.404  30.237   2.164
 4622W        W77047  35.202  41.107   0.727
 4623W        W77048  24.906  14.114  12.978
 4624W        W77049  44.819  14.687  13.107
 4625W        W77050  37.920  27.631  13.404
 4626W        W77051   2.447  11.672  14.694
 4627W        W77052  27.878  39.852   1.187
 4628W        W77053  17.875  27.885  14.407
 4629W        W77054  19.129   6.747   1.169
 4630W        W77055  12.891  25.996   1.273
 4631W        W77056  26.417  34.061  12.033
 4632W        W77057  16.740  34.915  10.869
 4633W        W77058  21.451   2.817  14.526
 4634W        W77059  30.099  28.620   4.613
 4635W        W77060   8.832  19.333   2.405
 4636W        W77061   4.752  40.554   4.748
 4637W        W77062  23.921   8.243   4.619
 4638W        W77063  30.025  13.775   3.274
 4639W        W77064  22.004  11.212   5.006
 4640W        W77065  13.903   1.580  11.533
 4641W        W77066  44.833  28.124   0.460
 4642W        W77067   0.803  12.669   2.655
 4643W        W77068  21.288  20.018   5.124
 4644W        W77069  40.311   3.210  13.871
 4645W        W77070  26.465  17.054   3.328
 4646W        W77071  40.874   2.823  13.303
 4647W        W77072  30.671  21.644   4.161
 4648W        W77073  26.639  40.607  11.540
 4649W        W77074   0.837  13.032   4.551
 4650W        W77075  24.460  39.547   0.939
 4651W        W77076  15.844  34.474   2.567
 4652W        W77077  21.535  16.735   3.310
 4653W        W77078   2.484  42.857   0.453
 4654W        W77079  39.992  18.686  12.655
 4655W        W77080  12.788   5.188  10.490
 4656W        W77081  40.448   4.972   4.666
 4657W        W77082  38.540  31.986   2.865
 4658W        W77083  34.973  39.181  13.462
 4659W        W77084  35.206   2.785   4.607
 4660W        W77085  31.625  29.271   1.334
 4661W        W77086   3.905  33.761  10.585
 4662W        W77087  37.395   6.634   1.976
 4663W        W77088  39.514  33.053   2.501
 4664W        W77089  17.224   5.846   3.190
 4665W        W77090  23.017   6.138   1.254
 4666W        W77091  17.121  26.685   3.763
 4667W        W77092  31.656  12.907   0.456
 4668W        W77093  42.000  42.958   2.230
 4669W        W77094   1.210   7.856  11.528
 4670W        W77095  35.252  43.444   0.229
 4671W        W77096  29.928  38.612   3.186
 4672W        W77097   4.971  31.301  12.743
 4673W        W77098  35.910   7.169  13.979
 4674W        W77099   1.657  37.575   1.208
 4675W        W77100   7.107  12.193   3.138
 4676W        W77101  13.503  24.662   4.687
 4677W        W77102  10.280  31.105  13.975
 4678W        W77103  16.838  39.756   4.664
 4679W        W77104   8.236  19.773  12.065
 4680W        W77105  34.585  16.586  11.576
 4681W        W77106  14.365   7.640   0.182
 4682W        W77107  10.760  12.241   3.766
 4683W        W77108  17.812  11.234   3.615
 4684W        W77109  20.281  32.498   1.879
 4685W        W77110  13.376  10.911   3.569
 4686W        W77111   9.907   3.164  13.904
 4687W        W77112  39.083  39.839   3.231
 4688W        W77113  12.915  25.868  11.731
 4689W        W77114  14.308  19.814   2.733
 4690W        W77115   3.207  15.287   0.962
 4691W        W77116   6.217  33.743  10.619
 4692W        W77117   2.672  12.304  10.673
 4693W        W77118   1.780  39.838  14.365
 4694W        W77119  18.664  40.058   2.576
 4695W        W77120  25.720  43.556  11.507
 4696W        W77121  24.894  32.408   2.164
 4697W        W77122  37.239   3.805   3.326
 4698W        W77123  11.511  43.477  13.979
 4699W        W77124  35.481  21.333  14.509
 4700W        W77125  26.262  40.816  13.401
 4701W        W77126  15.976  34.467  13.437
 4702W        W77127   5.419  18.644   0.423
 4703W        W77128  31.283  27.821   1.326
 4704W        W77129  18.310  17.242  11.864
 4705W        W77130  21.165  11.709   4.143
 4706W        W77131  40.811  44.694   4.181
 4707W        W77132  40.339   1.794   1.743
 4708W        W77133  43.322   2.442  13.592
 4709W        W77134  14.776  17.790   3.742
 4710W        W77135  40.598  39.764  11.394
 4711W        W77136  17.502  43.269  14.398
 4712W        W77137  28.346  12.025   0.558
 4713W        W77138  19.641  15.751  12.220
 4714W        W77139  19.692  17.137  14.538
 4715W        W77140  44.486  22.217   0.702
 4716W        W77141  29.428  14.726   3.277
 4717W        W77142  39.288  38.864  11.062
 4718W        W77143  43.041  35.914  11.583
 4719W        W77144  28.363   0.884  12.667
 4720W        W77145  25.671  39.232   1.642
 4721W        W77146   5.233  17.980   3.987
 4722W        W77147  41.265  42.543   4.520
 4723W        W77148  15.175  37.896   0.990
 4724W        W77149  40.286   4.415  12.185
 4725W        W77150  10.908  39.344  14.870
 4726W        W77151  39.951  35.921  14.022
 4727W        W77152  34.945  29.167  11.266
 4728W        W77153  22.419  18.039   5.303
 4729W        W77154  12.093  36.523   3.102
 4730W        W77155  39.506  35.576   1.737
 4731W        W77156   2.774  17.094   3.609
 4732W        W77157  35.890   0.732  14.995
 4733W        W77158   4.928   5.986  12.960
 4734W        W77159  41.793  21.988   3.040
 4735W        W77160  28.507  30.430   0.416
 4736W        W77161   9.253  30.089  12.955
 4737W        W77162  21.275  25.454  11.704
 4738W        W77163  37.150   9.091   4.142
 4739W        W77164   6.811  25.268   0.443
 4740W        W77165  25.006  20.978  13.972
 4741W        W77166  38.698  38.512  10.666
 4742W        W77167  34.999  28.767  10.301
 4743W        W77168   6.461   1.207  13.923
 4744W        W77169  32.857  20.966  13.928
 4745W        W77170  30.901   7.576  14.908
 4746W        W77171  13.107  13.293   1.808
 4747W        W77172  44.436  25.630  12.220
 4748W        W77173   6.101  22.560   4.922
 4749W        W77174  24.611   6.690  13.877
 4750W        W77175  39.282  19.794  13.381
 4751W        W77176  33.710  17.741   2.340
 4752W        W77177  22.535  41.563  13.624
 4753W        W77178  41.537  26.169   3.295
 4754W        W77179  14.064  33.080  12.031
 4755W        W77180   8.729   0.090   4.139
 4756W        W77181  26.715  19.670   1.014
 4757W        W77182  37.979   2.827   0.985
 4758W        W77183  33.164  23.087   4.889
 4759W        W77184  17.869  35.409  13.440
 4760W        W77185   8.404  24.034   0.305
 4761W        W77186  38.766   4.220   2.757
 4762W        W77187  40.023   9.618   2.290
 4763W        W77188  13.660  17.714   2.678
 4764W        W77189  20.921  20.590  14.713
 4765W        W77190  31.805  28.959   0.743
 4766W        W77191   0.735  33.725   1.223
 4767W        W77192  33.480  35.143  10.154
 4768W        W77193  25.674   6.818   4.621
 4769W        W77194  36.127  42.984  12.876
 4770W        W77195  35.596  38.614   3.140
 4771W        W77196  31.818  40.507  10.863
 4772W        W77197   7.192  41.411   1.223
 4773W        W77198   9.101  40.868   3.222
 4774W        W77199  13.268  14.825  12.958
 4775W        W77200  23.012  21.184   1.312
 4776W        W77201  14.913  34.415   5.040
 4777W        W77202   8.805  16.603   4.975
 4778W        W77203  13.373  42.264  14.371
 4779W        W77204  36.323  27.396   4.239
 4780W        W77205   2.778  32.613  14.867
 4781W        W77206   4.887   9.456  14.285
 4782W        W77207  33.992  25.016  13.888
 4783W        W77208  41.326   3.941  11.589
 4784W        W77209  15.264  11.062  14.313
 4785W        W77210  36.634  36.499   4.698
 4786W        W77211  11.332   3.353   3.346
 4787W        W77212  41.895  24.089   2.763
 4788W        W77213  27.033  44.463  14.869
 4789W        W77214  20.968  11.092  13.896
 4790W        W77215  25.020  44.340  10.901
 4791W        W77216   9.531  40.569  10.609
 4792W        W77217  19.349  35.476   0.866
 4793W        W77218  36.347   9.660  14.911
 4794W        W77219  29.523  43.164   1.450
 4795W        W77220  33.639  11.856  12.773
 4796W        W77221   9.961   9.403  13.326
 4797W        W77222  35.895   0.413  14.059
 4798W        W77223  38.935  35.839  11.280
 4799W        W77224  33.026  11.862  10.472
 4800W        W77225  36.000  44.308  14.504
 4801W        W77226  41.799   2.793  11.166
 4802W        W77227  24.008   9.625   1.390
 4803W        W77228  15.262  40.417   4.150
 4804W        W77229  19.682   6.706  12.584
 4805W        W77230   5.849  12.527  10.628
 4806W        W77231   4.234  25.826   3.295
 4807W        W77232  17.117  13.128   0.692
 4808W        W77233  14.717  19.189  12.429
 4809W        W77234  30.427  13.240   1.719
 4810W        W77235  23.027  36.576   0.642
 4811W        W77236  23.385  15.050  13.036
 4812W        W77237  42.262  34.556  13.987
 4813W        W77238  33.453  32.671   4.565
 4814W        W77239  31.025  37.620  10.330
 4815W        W77240   6.442   7.917   1.174
 4816W        W77241  37.427  33.149   2.597
 4817W        W77242  29.889  29.116   1.082
 4818W        W77243  19.332   4.736  14.420
 4819W        W77244  12.664  20.998   2.634
 4820W        W77245  28.033   3.249   0.835
 4821W        W77246  18.445  29.026   2.716
 4822W        W77247  18.942  33.433   1.855
 4823W        W77248  14.651  35.369  14.581
 4824W        W77249  26.467   5.459   0.400
 4825W        W77250  17.775  42.749  11.219
 4826W        W77251  32.166  19.671  12.032
 4827W        W77252  14.208  22.086  12.604
 4828W        W77253   8.898   4.827   0.260
 4829W        W77254  42.082  19.632  13.980
 4830W        W77255  35.649  16.075   1.898
 4831W        W77256  23.794   6.653  11.572
 4832W        W77257  44.823  44.574  14.043
 4833W        W77258  11.602  25.150  11.521
 4834W        W77259  37.283  11.885   0.753
 4835W        W77260  11.367  13.245   4.153
 4836W        W77261  14.733  25.721   1.568
 4837W        W77262  19.667   9.730   3.260
 4838W        W77263  30.174  32.252   4.629
 4839W        W77264   2.782  22.069  13.351
 4840W        W77265  21.592  26.064  10.923
 4841W        W77266  23.494  21.109   1.537
 4842W        W77267   0.086  10.338   2.697
 4843W        W77268  18.387  13.233  13.231
 4844W        W77269  43.947  26.796   2.749
 4845W        W77270  22.117  19.805  14.427
 4846W        W77271  16.102  15.352  10.531
 4847W        W77272  42.494   6.529  12.687
 4848W        W77273  23.204  13.103  12.957
 4849W        W77274  20.675  33.538   4.163
 4850W        W77275   0.571  43.377  12.469
 4851W        W77276  39.116   9.287   4.527
 4852W        W77277  29.187  39.550  10.700
 4853W        W77278  35.588  33.684  11.177
 4854W        W77279  16.714  39.582   3.156
 4855W        W77280   5.375   0.451  14.184
 4856W        W77281  33.664   5.660  13.504
 4857W        W77282   3.656  28.132   0.443
 4858W        W77283  18.883  29.883  13.913
 4859W        W77284  20.793  15.381   1.669
 4860W        W77285  39.512  24.000   4.613
 4861W        W77286  42.905   5.266   2.669
 4862W        W77287  28.934  16.871   4.520
 4863W        W77288   6.748  15.641  14.880
 4864W        W77289  25.898  13.247   3.739
 4865W        W77290  14.630  40.312  13.139
 4866W        W77291  40.478   6.987  12.141
 4867W        W77292   1.783  44.991  12.586
 4868W        W77293  29.795  21.503  14.990
 4869W        W77294   5.181  38.463   0.971
 4870W        W77295  28.627  11.881   0.073
 4871W        W77296  17.467   3.015   2.624
 4872W        W77297   4.475  13.904   3.755
 4873W        W77298   6.840   8.623  11.643
 4874W        W77299  32.513  32.619  14.286
 4875W        W77300  44.366   9.013  11.649
 4876W        W77301  29.548  20.089   2.920
 4877W        W77302   8.678  39.831  11.371
 4878W        W77303  43.002  33.879   0.789
 4879W        W77304  26.449  15.505  11.516
 4880W        W77305   0.005  13.950  11.572
 4881W        W77306   0.066  43.326  13.512
 4882W        W77307   3.979  37.868   0.823
 4883W        W77308  42.689  13.153   5.016
 4884W        W77309  22.512  10.745  11.378
 4885W        W77310   0.865  13.599   2.859
 4886W        W77311   9.743  15.428  12.981
 4887W        W77312  30.141  38.505   4.069
 4888W        W77313  12.252  13.334   3.082
 4889W        W77314  23.619  12.341  13.557
 4890W        W77315  36.031  18.621   0.413
 4891W        W77316  25.535  30.883   1.790
 4892W        W77317  21.801  29.545   2.603
 4893W        W77318  37.409  33.565   1.815
 4894W        W77319   3.135  12.204  11.551
 4895W        W77320  39.050   6.389   1.963
 4896W        W77321  32.976  13.104  11.192
 4897W        W77322  10.606  21.039  10.240
 4898W        W77323   4.323  27.956  11.070
 4899W        W77324   2.318   7.395  12.546
 4900W        W77325  29.601  27.466   0.911
 4901W        W77326   9.669  43.829  13.785
 4902W        W77327  34.441   8.304   5.098
 4903W        W77328  44.406   3.934   2.240
 4904W        W77329  42.889  23.090  14.753
 4905W        W77330  41.399   2.858  11.541
 4906W        W77331   3.738  30.249  12.798
 4907W        W77332  42.337  10.801   0.496
 4908W        W77333  16.121  12.970  13.353
 4909W        W77334  24.426  21.607  13.122
 4910W        W77335  36.000  38.773  13.672
 4911W        W77336  16.899   0.827   3.205
 4912W        W77337  22.331  24.142  12.964
 4913W        W77338   6.266  35.880   1.269
 4914W        W77339  25.994  25.528  10.768
 4915W        W77340  16.231  37.980  11.985
 4916W        W77341  28.705   7.177  13.958
 4917W        W77342  42.069  33.059   1.148
 4918W        W77343   9.278   9.142   0.705
 4919W        W77344  24.737   2.259   0.897
 4920W        W77345  34.024   5.816  12.490
 4921W        W77346  19.148   3.741   2.244
 4922W        W77347  11.340  35.413   0.843
 4923W        W77348  38.529  39.996  11.451
 4924W        W77349  36.251  39.226   1.448
 4925W        W77350   2.585  42.115   4.202
 4926W        W77351  25.456   3.283  12.810
 4927W        W77352  41.902  27.475   2.428
 4928W        W77353   6.638  20.921  13.772
 4929W        W77354  26.661  29.143   1.323
 4930W        W77355   5.170  23.113   0.444
 4931W        W77356  42.039  31.012  10.617
 4932W        W77357  44.013  25.615   1.693
 4933W        W77358  31.306  27.483  11.886
 4934W        W77359   0.704  41.401   5.005
 4935W        W77360   5.538  20.921   0.357
 4936W        W77361  32.754   1.144  14.586
 4937W        W77362  21.163  40.570   3.496
 4938W        W77363  15.116  20.744  13.078
 4939W        W77364  32.405   6.336  13.370
 4940W        W77365  18.770  15.681  14.785
 4941W        W77366  37.360   1.882  14.573
 4942W        W77367  25.671   7.379  13.411
 4943W        W77368  13.268  12.236   0.759
 4944W        W77369   4.442   6.910  13.063
 4945W        W77370  16.792  14.682  10.328
 4946W        W77371   0.259  33.216   9.945
 4947W        W77372  18.816   7.331  12.195
 4948W        W77373  38.583   0.028   1.777
 4949W        W77374   7.392  27.076  13.276
 4950W        W77375  20.255  16.538   0.277
 4951W        W77376  11.323  36.591   4.587
 4952W        W77377  29.224  32.515  12.833
 4953W        W77378  14.609   6.865  14.813
 4954W        W77379  24.509  36.610  11.647
 4955W        W77380  16.639  27.030   4.463
 4956W        W77381  31.951  29.192  12.335
 4957W        W77382  41.081   5.431  10.483
 4958W        W77383  20.266  36.696  10.785
 4959W        W77384  40.673  29.661  12.403
 4960W        W77385  30.545  17.041   0.382
 4961W        W77386  42.987  31.811  12.925
 4962W        W77387  35.639   1.962  14.442
 4963W        W77388  26.401   3.883  12.109
 4964W        W77389  37.931  25.565  12.425
 4965W        W77390  28.782  35.390   4.157
 4966W        W77391  35.467  15.817  14.494
 4967W        W77392  11.761  35.008  12.379
 4968W        W77393  38.253  27.065  10.751
 4969W        W77394  11.129  36.428   0.953
 4970W        W77395  17.278  41.938   2.118
 4971W        W77396  39.905  30.665  11.213
 4972W        W77397   4.818  22.802  14.649
 4973W        W77398  11.935  14.134   4.142
 4974W        W77399  14.686  35.748  12.440
 4975W        W77400  13.834  19.246  13.267
 4976W        W77401  40.345  12.161  13.957
 4977W        W77402  18.981  31.484  14.488
 4978W        W77403  37.570  29.931  14.217
 4979W        W77404  16.132  16.667  14.004
 4980W        W77405  15.347   3.134   4.141
 4981W        W77406   1.387  14.431   0.979
 4982W        W77407   7.909  26.642   2.429
 4983W        W77408  24.952  33.036   1.823
 4984W        W77409  24.539  16.010   1.515
 4985W        W77410   4.230   4.876  14.909
 4986W        W77411  37.155  43.911  13.882
 4987W        W77412  44.150  27.007  11.726
 4988W        W77413  37.882  15.676   1.346
 4989W        W77414  29.904   6.360   0.493
 4990W        W77415  12.728  14.274   4.561
 4991W        W77416  18.025  13.522  10.814
 4992W        W77417  10.146   5.207   3.620
 4993W        W77418  19.053  42.378   0.492
 4994W        W77419  13.395  17.329   2.951
 4995W        W77420   1.113  33.870   0.885
 4996W        W77421  22.753  18.847  13.937
 4997W        W77422   6.442  35.922   2.386
 4998W        W77423   9.441   7.041   4.969
 4999W        W77424  32.440  30.985  14.497
 5000W        W77425  12.991  24.732   4.717
 5001W        W77426  11.172  37.810   4.159
 5002W        W77427  39.877  36.055  13.505
 5003W        W77428  35.352  20.743   1.317
 5004W        W77429  13.614   5.297  11.493
 5005W        W77430  15.382  40.334   1.800
 5006W        W77431  43.384   4.779   1.495
 5007W        W77432   2.486  18.706   3.015
 5008W        W77433  44.538  39.202   0.756
 5009W        W77434  30.381  15.673  14.497
 5010W        W77435  28.979  40.552   3.464
 5011W        W77436  33.942  34.587  14.925
 5012W        W77437  33.513  32.539   1.407
 5013W        W77438   1.723  34.635  10.573
 5014W        W77439   4.768  37.267  12.504
 5015W        W77440   7.004  15.390   4.133
 5016W        W77441  19.212  28.667  10.986
 5017W        W77442  29.938  35.871  14.235
 5018W        W77443  17.594  11.588   0.296
 5019W        W77444  26.815  15.936   0.307
 5020W        W77445  31.471  10.122  12.572
 5021W        W77446  17.280  35.966  14.023
 5022W        W77447  42.659   2.597   3.734
 5023W        W77448   0.295  10.561  13.392
 5024W        W77449  29.637  37.387   1.165
 5025W        W77450  36.354  31.594   2.416
 5026W        W77451   9.344   0.357   4.688
 5027W        W77452   4.782  17.695   0.862
 5028W        W77453  35.172  40.335  12.876
 5029W        W77454  43.319  30.435  12.025
 5030W        W77455  42.760   3.242   2.057
 5031W        W77456   7.788  32.535  13.013
 5032W        W77457  13.391   5.062   2.380
 5033W        W77458  34.404  32.166   0.275
 5034W        W77459  24.375  41.002  11.652
 5035W        W77460  20.546  40.937  12.998
 5036W        W77461  44.022  12.121   1.737
 5037W        W77462   8.134   9.699  13.440
 5038W        W77463  17.992  44.350   3.232
 5039W        W77464  27.213  32.388  13.912
 5040W        W77465  18.881   3.842  13.344
 5041W        W77466  10.923  33.489  12.915
 5042W        W77467   8.599  43.179   4.241
 5043W        W77468  36.384  15.588   2.768
 5044W        W77469  44.828   7.344   1.289
 5045W        W77470  16.811  35.079   4.983
 5046W        W77471  26.565   7.317  12.943
 5047W        W77472  17.305  43.416  12.601
 5048W        W77473  24.808  36.875   1.700
 5049W        W77474  17.982  17.084  12.676
 5050W        W77475  34.008  24.008   3.269
 5051W        W77476  41.061  35.339   3.205
 5052W        W77477  41.350   3.307   1.915
 5053W        W77478  14.413  10.293   3.216
 5054W        W77479  17.530   1.126  14.704
 5055W        W77480  22.301  22.810   1.454
 5056W        W77481  29.519  37.366  13.020
 5057W        W77482  33.159  28.586  13.986
 5058W        W77483  41.939  26.863   3.768
 5059W        W77484   7.831  35.774  12.833
 5060W        W77485  17.534  21.759   1.440
 5061W        W77486  22.731   3.987   0.407
 5062W        W77487  33.093  25.526  12.780
 5063W        W77488   8.002  25.491   2.877
 5064W        W77489  11.583  22.919   4.685
 5065W        W77490  17.849   3.517  10.743
 5066W        W77491  40.970  15.333   0.289
 5067W        W77492   8.966  13.363   4.108
 5068W        W77493  35.058  41.935  14.633
 5069W        W77494  26.000  36.395   3.682
 5070W        W77495  16.308  16.217   4.219
 5071W        W77496  41.511  28.982  13.286
 5072W        W77497  28.976  36.806   3.228
 5073W        W77498  10.310  10.171   3.540
 5074W        W77499  38.331  29.467   4.219
 5075W        W77500  35.312  21.720  13.630
 5076W        W77501  37.466   3.870  14.018
 5077W        W77502   1.192   0.789   1.349
 5078W        W77503  11.937   1.544   2.928
 5079W        W77504  19.509  20.801   2.706
 5080W        W77505   5.192  14.796  12.389
 5081W        W77506  15.517  20.997  13.472
 5082W        W77507  31.998   1.875  11.208
 5083W        W77508  15.791  36.986   0.731
 5084W        W77509  38.514  37.776  11.038
 5085W        W77510  43.228  11.045  14.193
 5086W        W77511   8.578  39.679  13.099
 5087W        W77512  15.896   8.234   4.584
 5088W        W77513  36.092  19.516  12.461
 5089W        W77514  36.839  29.921  12.400
 5090W        W77515  30.931   6.220   3.993
 5091W        W77516  29.082  28.003   0.878
 5092W        W77517  14.571  26.122   0.283
 5093W        W77518  38.823  33.431  11.141
 5094W        W77519   1.934  22.380  14.726
 5095W        W77520  27.252  21.087  13.524
 5096W        W77521  17.316  22.295   9.991
 5097W        W77522  10.274  33.552   5.034
 5098W        W77523  10.168   8.211   4.707
 5099W        W77524  31.181  16.203   2.720
 5100W        W77525  21.179  16.767   3.673
 5101W        W77526  31.202   7.173  10.775
 5102W        W77527   6.157   6.896   1.360
 5103W        W77528  37.411   8.238   0.927
 5104W        W77529  21.690  26.481   0.737
 5105W        W77530  17.884   0.374   0.363
 5106W        W77531   1.307  25.198   2.937
 5107W        W77532  25.484  14.708   4.522
 5108W        W77533  20.129  28.493   0.512
 5109W        W77534  43.596   6.553   2.799
 5110W        W77535  44.395   5.655  12.121
 5111W        W77536   8.218  30.701  12.142
 5112W        W77537  15.305  17.106   1.690
 5113W        W77538  34.899   1.567  11.659
 5114W        W77539  42.311  24.775  11.043
 5115W        W77540  32.590  11.767  13.265
 5116W        W77541   7.326  30.072   2.696
 5117W        W77542  21.979  15.858  12.542
 5118W        W77543  37.976  13.619  12.528
 5119W        W77544  19.138   4.308   4.630
 5120W        W77545  30.450  23.969   3.169
 5121W        W77546  44.899   5.955   0.045
 5122W        W77547  38.650  23.460   0.929
 5123W        W77548  43.963  22.945   4.529
 5124W        W77549  30.047  36.430  12.422
 5125W        W77550  11.373   9.717   1.422
 5126W        W77551  15.550   9.746   0.792
 5127W        W77552  18.144  22.050   1.663
 5128W        W77553  35.995   1.915   4.233
 5129W        W77554  26.880  41.606  12.537
 5130W        W77555  35.007  37.569  14.301
 5131W        W77556   4.085  30.547   1.059
 5132W        W77557  40.040  35.557  12.880
 5133W        W77558  22.676  22.575   4.956
 5134W        W77559   5.863  32.665  11.118
 5135W        W77560  20.273  41.411  13.667
 5136W        W77561   0.524  11.311   2.852
 5137W        W77562  21.591  23.922   1.663
 5138W        W77563  28.525  18.911  11.587
 5139W        W77564  21.164  43.621   4.838
 5140W        W77565  17.153  35.105  10.097
 5141W        W77566  38.614  25.021  14.787
 5142W        W77567  31.220   5.596   1.836
 5143W        W77568   6.952   5.582   1.433
 5144W        W77569  29.932   3.570   4.102
 5145W        W77570   6.331  33.285  10.432
 5146W        W77571   5.543  43.831  11.008
 5147W        W77572  43.843  44.114   0.439
 5148W        W77573  34.469  15.751   2.722
 5149W        W77574  31.072   4.071  12.892
 5150W        W77575  26.749   5.244   3.856
 5151W        W77576  17.792  14.772   4.309
 5152W        W77577   6.302  40.188   2.255
 5153W        W77578  22.783  13.703  14.357
 5154W        W77579  35.724  13.414  13.372
 5155W        W77580  27.978   7.323   0.314
 5156W        W77581  35.369  17.120   1.969
 5157W        W77582  39.346   0.955   1.243
 5158W        W77583  11.585  22.684  13.943
 5159W        W77584   4.042   3.966   3.803
 5160W        W77585  12.966  27.492   2.094
 5161W        W77586  16.774  36.890  11.618
 5162W        W77587  18.285  22.737   2.226
 5163W        W77588  25.021  11.331  11.574
 5164W        W77589  30.648  22.634  12.045
 5165W        W77590  11.430  19.740   3.135
 5166W        W77591  20.585  17.589  14.229
 5167W        W77592  30.640   7.761   4.116
 5168W        W77593  15.241   6.973  14.935
 5169W        W77594   7.199  18.278  14.341
 5170W        W77595   3.812  10.957  14.594
 5171W        W77596  28.005  42.390  14.591
 5172W        W77597  37.453  35.199   2.720
 5173W        W77598  43.241  17.224  13.461
 5174W        W77599   4.801   3.402   1.537
 5175W        W77600  17.214  43.589   4.935
 5176W        W77601  34.804   9.758   2.366
 5177W        W77602  10.798  11.626  13.516
 5178W        W77603  39.003  34.394   0.786
 5179W        W77604  17.073  43.465   2.151
 5180W        W77605  24.558  16.100   0.577
 5181W        W77606   9.045  19.276  14.332
 5182W        W77607  12.842   8.999  14.304
 5183W        W77608  24.784   2.358   1.807
 5184W        W77609   0.951  10.706  11.618
 5185W        W77610  28.032  30.031   4.355
 5186W        W77611  26.035   2.520  12.991
 5187W        W77612  17.275  36.180   4.326
 5188W        W77613   9.059  17.753  13.074
 5189W        W77614  24.997  19.304   3.786
 5190W        W77615  33.414  29.368   1.449
 5191W        W77616  11.197  43.692  12.522
 5192W        W77617  14.505  15.195   3.333
 5193W        W77618  36.364  12.623   3.251
 5194W        W77619  40.863   5.121  12.935
 5195W        W77620   6.318  19.676   1.270
 5196W        W77621   4.366  19.508  10.694
 5197W        W77622  20.116   8.362   4.600
 5198W        W77623  19.230  42.782   2.766
 5199W        W77624  22.442   4.294   4.510
 5200W        W77625  35.355   0.727   0.853
 5201W        W77626   9.187  29.619   1.716
 5202W        W77627   6.921  36.878  12.607
 5203W        W77628   0.180  40.780   1.475
 5204W        W77629  25.762  37.801  11.136
 5205W        W77630   1.452  32.847  12.039
 5206W        W77631  27.600  29.976  13.568
 5207W        W77632  24.462   9.351   1.324
 5208W        W77633  39.286   0.057   3.182
 5209W        W77634  20.510  38.372  14.795
 5210W        W77635  25.578  36.680   3.667
 5211W        W77636  12.244  16.813   2.327
 5212W        W77637  39.467  44.761  13.066
 5213W        W77638   3.953   8.647   2.835
 5214W        W77639  28.735  31.433  14.017
 5215W        W77640   8.450  34.234  13.850
 5216W        W77641  30.126   5.613   2.677
 5217W        W77642   1.411  18.347  13.027
 5218W        W77643  14.818  36.103   4.110
 5219W        W77644  27.121  34.346  12.455
 5220W        W77645  34.327  37.509  10.582
 5221W        W77646  36.842  18.630   0.009
 5222W        W77647   0.015  39.356  12.065
 5223W        W77648  28.678   6.850  11.013
 5224W        W77649  25.417  43.041   2.985
 5225W        W77650  31.469  17.334   0.237
 5226W        W77651  35.174  36.985  11.297
 5227W        W77652  15.888  29.427  12.408
 5228W        W77653  25.870   5.804   4.031
 5229W        W77654  40.388  30.939   4.088
 5230W        W77655  24.765   5.706  11.524
 5231W        W77656   0.664  32.450   9.678
 5232W        W77657  23.527  22.947   4.405
 5233W        W77658   4.004  37.799  12.471
 5234W        W77659  26.990  25.010  14.313
 5235W        W77660   8.321  16.494  14.427
 5236W        W77661  27.547  29.795   2.247
 5237W        W77662   9.202  26.161   4.097
 5238W        W77663  24.965  30.435   2.741
 5239W        W77664   3.520   6.246  12.433
 5240W        W77665  25.919  24.270  11.089
 5241W        W77666  41.733   3.154   4.931
 5242W        W77667  29.420   6.512   1.194
 5243W        W77668  22.603   1.272  10.567
 5244W        W77669  35.359  41.130   2.921
 5245W        W77670  20.483  15.289   1.255
 5246W        W77671  22.136  24.623   0.237
 5247W        W77672   9.892  12.666   1.834
 5248W        W77673  12.870   7.599  13.919
 5249W        W77674  38.772  19.255   2.783
 5250W        W77675  26.738  24.542  11.680
 5251W        W77676  25.364  19.643  11.607
 5252W        W77677  27.920  24.123   3.752
 5253W        W77678  33.490  22.405  12.508
 5254W        W77679  38.314  12.126   4.593
 5255W        W77680  16.372  25.476   1.253
 5256W        W77681  38.479  12.635   4.025
 5257W        W77682  15.847   6.290  13.440
 5258W        W77683  35.178   2.784   3.549
 5259W        W77684  33.032  44.273  11.111
 5260W        W77685  11.182  14.063  13.365
 5261W        W77686  38.083  10.920  13.389
 5262W        W77687  39.025  39.057   9.997
 5263W        W77688  40.778  31.545   0.796
 5264W        W77689  25.503  33.394   4.575
 5265W        W77690  19.635  20.248   4.498
 5266W        W77691  26.058  16.542   0.393
 5267W        W77692   8.940  42.963  14.458
 5268W        W77693  20.300   6.675   0.343
 5269W        W77694  31.226  35.398   1.271
 5270W        W77695   8.859  18.182   1.824
 5271W        W77696  44.895  19.160  10.487
 5272W        W77697   5.801  39.917  10.798
 5273W        W77698  39.159  42.433   0.912
 5274W        W77699  28.565  21.507   2.284
 5275W        W77700   4.861  18.498   3.157
 5276W        W77701  29.642  34.683  13.551
 5277W        W77702   8.411  25.892  12.115
 5278W        W77703  18.625  23.710   2.121
 5279W        W77704  12.206  32.155   1.648
 5280W        W77705  14.597  35.847   0.349
 5281W        W77706  10.419  24.903   0.792
 5282W        W77707  17.917  43.049  13.712
 5283W        W77708  29.690  28.245   0.463
 5284W        W77709  28.831   6.212  13.268
 5285W        W77710  15.786  39.923   3.449
 5286W        W77711  44.070  38.417  12.644
 5287W        W77712   6.872   0.040   0.894
 5288W        W77713  36.836  10.375   0.657
 5289W        W77714  31.093  42.912   3.253
 5290W        W77715   5.992  33.391   3.098
 5291W        W77716  40.852  25.984  13.553
 5292W        W77717  29.715  33.569   4.084
 5293W        W77718  33.531  42.221   3.400
 5294W        W77719  12.294   1.850  14.484
 5295W        W77720   1.673  32.593   4.073
 5296W        W77721   4.934  36.067   3.305
 5297W        W77722  21.396  13.853  12.152
 5298W        W77723  35.591   3.363   1.629
 5299W        W77724   5.369  39.952   1.861
 5300W        W77725   0.072   7.325  14.588
 5301W        W77726  30.983   2.956   3.347
 5302W        W77727  28.596   5.953  14.484
 5303W        W77728  39.366  39.791  14.564
 5304W        W77729  19.640   4.909  13.105
 5305W        W77730   4.323  10.431  13.826
 5306W        W77731  24.561  10.981  11.598
 5307W        W77732  37.115   4.671   3.409
 5308W        W77733  36.605  33.380  12.631
 5309W        W77734   3.871   0.976   2.816
 5310W        W77735  19.519  32.078   0.884
 5311W        W77736  40.904  24.376   3.725
 5312W        W77737  22.186  26.991  10.824
 5313W        W77738   1.960  44.557   0.796
 5314W        W77739  26.094  10.058   4.642
 5315W        W77740  12.611  24.508  14.061
 5316W        W77741  12.059  39.446   3.071
 5317W        W77742  40.777  16.720  14.165
 5318W        W77743  33.562   3.547  11.873
 5319W        W77744  36.831  11.197  14.075
 5320W        W77745  27.749  18.484  12.551
 5321W        W77746  34.580  38.617  13.080
 5322W        W77747  41.065  40.802  14.507
 5323W        W77748  29.601  26.905   4.135
 5324W        W77749  13.624  10.695   4.840
 5325W        W77750  28.146  13.463   3.653
 5326W        W77751  33.119  31.289  12.412
 5327W        W77752  40.453  29.149   0.669
 5328W        W77753  19.027  20.311   1.303
 5329W        W77754  24.493   2.313  14.434
 5330W        W77755  28.523  20.153   3.506
 5331W        W77756  23.167  16.068   3.952
 5332W        W77757  31.445  37.338  11.974
 5333W        W77758  38.079  42.379  14.386
 5334W        W77759  22.740  33.843   1.493
 5335W        W77760   5.770  11.393  14.208
 5336W        W77761  29.693   9.645  11.216
 5337W        W77762  41.634  39.370  14.394
 5338W        W77763   2.383   8.598  14.374
 5339W        W77764  19.065  21.337  13.935
 5340W        W77765  42.489  18.855  13.749
 5341W        W77766  34.565  13.157   2.228
 5342W        W77767   7.276  18.813  14.294
 5343W        W77768  16.173  21.543   2.664
 5344W        W77769   1.162  14.155   3.323
 5345W        W77770  26.489   0.708   5.112
 5346W        W77771  38.930  42.052   1.189
 5347W        W77772  25.575  26.743  10.603
 5348W        W77773  41.931  22.426   3.295
 5349W        W77774  28.250  40.634   4.244
 5350W        W77775  30.970  20.215   4.681
 5351W        W77776   8.765   3.913   4.169
 5352W        W77777   2.134  13.392   1.484
 5353W        W77778   2.213  44.421  11.021
 5354W        W77779   2.394  41.289  12.066
 5355W        W77780  15.232  20.527   3.851
 5356W        W77781  19.734  44.510  11.945
 5357W        W77782   1.205  37.996   4.834
 5358W        W77783  41.272  22.590   9.857
 5359W        W77784  29.098   9.212  11.934
 5360W        W77785  38.652  20.179   0.251
 5361W        W77786  28.488   5.962   2.442
 5362W        W77787  44.456   9.230  10.307
 5363W        W77788  38.404  43.548  13.518
 5364W        W77789  17.061  24.326  10.417
 5365W        W77790   7.160  29.966  10.684
 5366W        W77791  42.262   8.345  13.945
 5367W        W77792   4.473  37.896   3.080
 5368W        W77793  33.475  33.516   5.145
 5369W        W77794  31.019  26.408  11.783
 5370W        W77795  16.914  30.679  12.482
 5371W        W77796   0.765  13.993  12.029
 5372W        W77797  22.705  18.580  10.666
 5373W        W77798  30.007  18.543  12.880
 5374W        W77799  30.384   0.412  14.775
 5375W        W77800  40.972   1.788   3.905
 5376W        W77801  43.850  34.008   3.105
 5377W        W77802  10.255   4.877  12.054
 5378W        W77803  10.352  42.731   2.739
 5379W        W77804  37.441   5.667   0.774
 5380W        W77805  20.970  12.747   1.135
 5381W        W77806  38.926  33.437  14.514
 5382W        W77807  21.597   9.300   4.770
 5383W        W77808  30.621   6.212  14.947
 5384W        W77809  25.063  16.120   0.376
 5385W        W77810  22.540  24.806   3.409
 5386W        W77811  30.003   8.658   0.953
 5387W        W77812   3.797   3.282   2.378
 5388W        W77813  33.365   8.225   2.252
 5389W        W77814  31.045  19.328   3.684
 5390W        W77815  22.498   2.972   1.216
 5391W        W77816  25.083  22.762  11.095
 5392W        W77817  18.733  28.105   1.799
 5393W        W77818  44.048  21.162   4.125
 5394W        W77819  35.230  39.035   2.315
 5395W        W77820  40.325  25.668   2.947
 5396W        W77821  36.952  30.486  11.532
 5397W        W77822  19.192  19.570  11.018
 5398W        W77823  25.928   7.204   0.344
 5399W        W77824  13.881  24.310  10.149
 5400W        W77825  24.421  38.204  10.729
 5401W        W77826   1.365  42.469   4.620
 5402W        W77827  36.587  31.581   3.731
 5403W        W77828  43.372  44.461  10.072
 5404W        W77829  32.238  39.511  12.433
 5405W        W77830  36.578  26.458   1.541
 5406W        W77831  29.835  37.454   2.304
 5407W        W77832   2.451   0.171  11.601
 5408W        W77833   8.026  39.280   4.842
 5409W        W77834  29.939  19.805   2.744
 5410W        W77835  22.168  37.901  12.525
 5411W        W77836  39.949  21.507  14.485
 5412W        W77837  41.995  13.049  13.432
 5413W        W77838  36.611  40.345   3.255
 5414W        W77839  20.477  40.103  11.712
 5415W        W77840  41.499  17.408   0.987
 5416W        W77841   6.799  11.887  11.988
 5417W        W77842  16.819  25.218  10.683
 5418W        W77843  38.446  39.110  14.987
 5419W        W77844   8.230  16.963  14.215
 5420W        W77845  14.113  21.075  10.105
 5421W        W77846   6.610  18.853  13.731
 5422W        W77847  35.652  23.183   1.737
 5423W        W77848  13.055  36.000   4.439
 5424W        W77849  15.758  12.238   4.383
 5425W        W77850  16.778  35.077  13.975
 5426W        W77851  15.253  16.202  11.955
 5427W        W77852   8.637  32.322   2.219
 5428W        W77853   5.758  21.270  12.564
 5429W        W77854  18.021   0.988  14.635
 5430W        W77855  26.527  11.770  12.427
 5431W        W77856  19.476  16.741  14.806
 5432W        W77857   4.167  41.408  13.423
 5433W        W77858  36.944  38.433  10.865
 5434W        W77859  21.688  31.707   3.728
 5435W        W77860  28.428  19.174   2.883
 5436W        W77861  19.736   5.264   3.172
 5437W        W77862   9.396  25.654   2.606
 5438W        W77863  44.076  18.667   0.692
 5439W        W77864   8.653  24.865  12.656
 5440W        W77865  27.401  16.645   3.565
 5441W        W77866  13.701  31.907  14.381
 5442W        W77867  34.380  24.502  12.423
 5443W        W77868   7.635  25.025   0.708
 5444W        W77869  26.614   6.407   2.840
 5445W        W77870  43.987   1.706  11.743
 5446W        W77871  12.073  14.313   1.986
 5447W        W77872  20.161   0.751   2.116
 5448W        W77873  27.580   6.688  12.303
 5449W        W77874  33.377  17.294   4.043
 5450W        W77875  42.861   3.270  11.678
 5451W        W77876   4.216  32.656   4.188
 5452W        W77877  10.759  31.022   2.683
 5453W        W77878  13.169  28.219  11.291
 5454W        W77879  41.305  41.350   0.393
 5455W        W77880  14.580  26.535   3.608
 5456W        W77881   9.351  37.586  14.923
 5457W        W77882  20.959  12.795  11.856
 5458W        W77883   0.420  29.196   2.285
 5459W        W77884  40.893  36.545  10.784
 5460W        W77885  44.530  16.847  10.186
 5461W        W77886  10.186  13.652  13.952
 5462W        W77887  15.588  40.518  10.823
 5463W        W77888   8.158  25.575   0.349
 5464W        W77889  39.706  41.321  10.761
 5465W        W77890  33.990  16.339   4.565
 5466W        W77891  10.712   4.398  13.844
 5467W        W77892   7.352   7.127   2.723
 5468W        W77893  34.676  40.553   2.336
 5469W        W77894   7.904  13.262   0.842
 5470W        W77895   0.825  12.127   4.921
 5471W        W77896  36.815  43.820  10.758
 5472W        W77897   1.115  23.604  12.355
 5473W        W77898  18.777  10.372  13.675
 5474W        W77899  17.141  13.354   2.787
 5475W        W77900  32.015  27.669   0.407
 5476W        W77901  33.472  12.783   4.089
 5477W        W77902  11.357  24.000   1.201
 5478W        W77903  27.525  42.776   0.592
 5479W        W77904  44.220  27.558  10.570
 5480W        W77905  18.078   9.335   0.749
 5481W        W77906  37.769  42.818   0.932
 5482W        W77907  36.560  21.099   1.326
 5483W        W77908  39.558  30.502  13.477
 5484W        W77909  13.574   1.955  10.865
 5485W        W77910   2.750   0.766  13.008
 5486W        W77911  25.583   6.453  12.135
 5487W        W77912  27.411  22.996  13.449
 5488W        W77913  26.720  35.943   4.495
 5489W        W77914  37.462  17.664  13.810
 5490W        W77915   7.931  44.992  14.003
 5491W        W77916  18.612  19.625   4.203
 5492W        W77917  12.653  40.458  12.221
 5493W        W77918  10.991  11.387   2.745
 5494W        W77919   1.699  33.146  10.618
 5495W        W77920  35.330   4.787   1.430
 5496W        W77921  40.110   1.984   0.337
 5497W        W77922  32.239   2.541   2.444
 5498W        W77923  22.592  41.955   3.242
 5499W        W77924  38.541  24.874  11.156
 5500W        W77925  42.300  42.807  13.111
 5501W        W77926  11.706  27.958   3.166
 5502W        W77927   3.480  31.983  14.752
 5503W        W77928  26.647  38.189   0.243
 5504W        W77929  35.838  21.259   3.147
 5505W        W77930  41.253   8.183  14.005
 5506W        W77931  17.627  30.035  11.428
 5507W        W77932  11.359  29.702   0.191
 5508W        W77933   3.042  26.321  13.457
 5509W        W77934  24.122  42.944   0.754
 5510W        W77935  31.530  23.255   1.756
 5511W        W77936  43.622  28.905   3.270
 5512W        W77937  32.126   9.872   2.146
 5513W        W77938  38.892  32.690  12.603
 5514W        W77939  39.846  13.688  10.630
 5515W        W77940   6.401  22.228  13.832
 5516W        W77941   3.212   4.369  13.345
 5517W        W77942  44.027  25.016   3.791
 5518W        W77943  14.195  29.941  14.456
 5519W        W77944   6.649  42.010   0.046
 5520W        W77945  38.713   8.266  12.836
 5521W        W77946  35.970  21.232   4.570
 5522W        W77947   9.188  38.084  10.795
 5523W        W77948  20.213   4.411  13.196
 5524W        W77949  40.191  24.643  12.955
 5525W        W77950  29.059   9.512   3.653
 5526W        W77951  21.268  34.165  13.408
 5527W        W77952   9.335  21.095   1.192
 5528W        W77953  42.794  13.988   4.214
 5529W        W77954  30.052  16.342  12.080
 5530W        W77955   2.963  29.651  13.136
 5531W        W77956   8.646  27.624  11.456
 5532W        W77957  34.562   7.249   2.154
 5533W        W77958  10.358  20.290  13.988
 5534W        W77959  44.702  14.023  10.694
 5535W        W77960   9.283  17.308  12.931
 5536W        W77961  15.253   8.850   0.760
 5537W        W77962   1.844  24.115  13.377
 5538W        W77963  15.142  27.429  14.321
 5539W        W77964  35.060   9.720  14.765
 5540W        W77965  42.770   0.977   0.206
 5541W        W77966  24.241  12.457   1.765
 5542W        W77967   5.563   6.221   3.062
 5543W        W77968   7.235  19.574   5.044
 5544W        W77969   2.791  20.910   2.733
 5545W        W77970   5.444  27.522  12.380
 5546W        W77971  20.248  18.901   1.947
 5547W        W77972  37.533  44.489  12.980
 5548W        W77973   2.042   7.741   2.137
 5549W        W77974  25.706  28.162  10.573
 5550W        W77975  16.419   9.459   0.248
 5551W        W77976  29.075  10.101  12.943
 5552W        W77977  38.799  13.532   2.972
 5553W        W77978  23.404  40.268   1.678
 5554W        W77979   0.513  20.671  14.936
 5555W        W77980  41.312   4.836  14.186
 5556W        W77981  39.619  24.201  13.910
 5557W        W77982  39.380  24.658  14.971
 5558W        W77983  43.778  42.780   1.030
 5559W        W77984  36.324  38.005   4.491
 5560W        W77985  17.494  13.077  11.514
 5561W        W77986  14.155   2.717  10.289
 5562W        W77987  11.094  33.115  11.591
 5563W        W77988   8.434  15.635   4.316
 5564W        W77989  18.222   2.809   4.648
 5565W        W77990  26.877  42.400  14.573
 5566W        W77991   0.021  44.935  10.808
 5567W        W77992   8.593  44.783   4.592
 5568W        W77993   8.688  32.630  10.811
 5569W        W77994   8.167  29.799  10.726
 5570W        W77995  32.871  21.135   1.922
 5571W        W77996  30.669   7.268   4.734
 5572W        W77997   3.968  13.234   2.885
 5573W        W77998  21.842   1.209  11.532
 5574W        W77999  18.537  21.695   3.630
 5575W        W78000   9.109  40.514   2.766
 5576W        W78001   1.936  15.607   3.258
 5577W        W78002  28.402   8.333   1.369
 5578W        W78003  10.493  18.806  12.891
 5579W        W78004  24.181  17.094  11.634
 5580W        W78005  14.720  21.492  10.710
 5581W        W78006  10.630  22.763  10.172
 5582W        W78007  20.605  37.345   1.834
 5583W        W78008  37.922  42.231  13.470
 5584W        W78009  42.477  17.066  13.068
 5585W        W78010  11.240  35.437   2.929
 5586W        W78011  18.818  21.695  11.394
 5587W        W78012   9.395  22.034  11.987
 5588W        W78013  19.426  35.831   3.771
 5589W        W78014   1.729  44.588  11.733
 5590W        W78015   3.900  17.092   0.852
 5591W        W78016  25.971  21.708  10.711
 5592W        W78017  36.487  35.114  13.417
 5593W        W78018  43.764  30.469  12.462
 5594W        W78019   5.270  12.809  12.205
 5595W        W78020  44.558  10.674   0.933
 5596W        W78021  33.855  18.262   2.337
 5597W        W78022  44.558  15.691  11.843
 5598W        W78023  42.838  27.537   2.297
 5599W        W78024   4.191  11.069   0.070
 5600W        W78025  16.831  25.532  13.949
 5601W        W78026  39.394   1.158  13.032
 5602W        W78027  30.296  44.893  13.397
 5603W        W78028  31.546  10.097   2.862
 5604W        W78029  25.103  26.474  14.831
 5605W        W78030  12.490  39.980  13.463
 5606W        W78031  27.694   5.838   3.197
 5607W        W78032  26.556   8.723  13.260
 5608W        W78033  28.978  25.665  10.740
 5609W        W78034   1.520  39.506  14.873
 5610W        W78035   8.142  32.543  13.433
 5611W        W78036  12.521  17.057   4.902
 5612W        W78037   1.486  35.969  10.405
 5613W        W78038  38.734  33.924  11.871
 5614W        W78039  14.894  32.578   2.342
 5615W        W78040  38.991   0.725   4.259
 5616W        W78041   9.890   2.678   2.857
 5617W        W78042  12.168   1.925  12.875
 5618W        W78043  34.404  29.979   3.658
 5619W        W78044  40.182  27.658  11.443
 5620W        W78045  29.159   8.310  11.705
 5621W        W78046  11.959  30.536   4.103
 5622W        W78047  29.397  29.090   1.351
 5623W        W78048  23.208  23.027  12.472
 5624W        W78049  32.961  31.009  11.492
 5625W        W78050   4.833  30.466  14.259
 5626W        W78051  20.922  21.048   4.467
 5627W        W78052  21.512  43.468  12.071
 5628W        W78053  29.641  27.440  14.771
 5629W        W78054  10.036   9.504  11.610
 5630W        W78055   2.388  24.948   1.775
 5631W        W78056  25.955   3.315   3.323
 5632W        W78057  28.189   4.253   2.865
 5633W        W78058  13.132  30.851   3.307
 5634W        W78059  36.351  20.799  11.595
 5635W        W78060  26.405  42.279  11.602
 5636W        W78061  10.304  12.556   2.641
 5637W        W78062  16.591  35.395   4.259
 5638W        W78063  11.253  31.041  12.239
 5639W        W78064  39.470  44.797   0.475
 5640W        W78065  25.611  18.664  11.170
 5641W        W78066  28.861  20.740  12.021
 5642W        W78067  44.986   7.226  11.499
 5643W        W78068  23.237  20.060   0.847
 5644W        W78069  34.297  42.799  11.468
 5645W        W78070  35.021  39.937  14.925
 5646W        W78071  24.788  43.595  14.459
 5647W        W78072  23.667   7.338  14.728
 5648W        W78073   7.380  14.170   2.389
 5649W        W78074   3.936  44.684   0.919
 5650W        W78075   1.760  26.611  10.646
 5651W        W78076  13.754  34.639   2.404
 5652W        W78077   6.275  36.877  10.669
 5653W        W78078  21.637  32.393   1.708
 5654W        W78079  22.671  39.136  10.890
 5655W        W78080  33.412  26.647   3.813
 5656W        W78081  29.978  12.165  10.803
 5657W        W78082  39.089  26.415  13.448
 5658W        W78083   3.213   1.816   3.775
 5659W        W78084  22.772  40.099   0.488
 5660W        W78085   2.403  16.777   3.407
 5661W        W78086   4.031  21.016  10.584
 5662W        W78087  24.579  13.715  12.967
 5663W        W78088  39.743   2.863  10.764
 5664W        W78089  32.953  36.086  14.300
 5665W        W78090   0.856   0.909   2.647
 5666W        W78091  22.765  31.907   0.369
 5667W        W78092  20.961  21.950   4.682
 5668W        W78093  10.951  34.829  14.265
 5669W        W78094   3.496   9.597   2.678
 5670W        W78095  38.430  40.363   2.306
 5671W        W78096  15.252  38.118  10.821
 5672W        W78097  29.345  32.654  11.162
 5673W        W78098  28.558  11.545   0.475
 5674W        W78099   7.592  42.324  13.896
 5675W        W78100  43.968   3.807  13.299
 5676W        W78101   6.998   8.721   3.284
 5677W        W78102   2.617  20.110   0.569
 5678W        W78103  22.244   5.815   2.773
 5679W        W78104   0.358   1.239  13.145
 5680W        W78105  25.740  19.066   2.474
 5681W        W78106  18.214   2.314  14.678
 5682W        W78107  28.762  42.078   2.768
 5683W        W78108  43.786  31.472  12.769
 5684W        W78109  40.166  29.595   2.819
 5685W        W78110  11.382  32.529   4.577
 5686W        W78111  23.915  34.649  12.915
 5687W        W78112  14.590  42.333  10.822
 5688W        W78113  35.209  12.829   3.693
 5689W        W78114  17.360  40.611  14.804
 5690W        W78115  24.084  42.782  12.504
 5691W        W78116  11.300   8.774   3.300
 5692W        W78117  22.260  18.088  10.992
 5693W        W78118  25.087  37.281   3.185
 5694W        W78119   4.199  23.729  12.991
 5695W        W78120  22.038  40.768  10.950
 5696W        W78121  30.494  26.147  11.009
 5697W        W78122  34.759  11.876  13.443
 5698W        W78123  19.616  28.956  12.628
 5699W        W78124  14.086   2.159   1.714
 5700W        W78125  15.292  17.579   2.697
 5701W        W78126  25.567   3.661   3.203
 5702W        W78127  23.907   6.275  12.152
 5703W        W78128   5.239  11.908  10.663
 5704W        W78129  44.749  34.398  14.035
 5705W        W78130  33.499  17.716  13.902
 5706W        W78131  10.613   5.404   3.670
 5707W        W78132  16.363  36.517  12.156
 5708W        W78133  42.393   3.552   3.174
 5709W        W78134  35.292  10.738   4.543
 5710W        W78135  13.379  44.542   3.582
 5711W        W78136  21.022   4.346   1.951
 5712W        W78137  14.853  32.825   9.963
 5713W        W78138   7.249  30.019  11.555
 5714W        W78139  30.920  30.839   3.022
 5715W        W78140  15.294  43.411   1.772
 5716W        W78141  44.230  23.268  12.764
 5717W        W78142  39.087  39.023   4.106
 5718W        W78143  21.437  12.118   4.348
 5719W        W78144   7.914   2.773  10.460
 5720W        W78145   8.983  16.095  13.423
 5721W        W78146  42.296  23.700  11.452
 5722W        W78147   6.764  34.370  11.580
 5723W        W78148  21.225  31.847   1.275
 5724W        W78149  19.378   3.779  13.219
 5725W        W78150  10.450  10.273   0.655
 5726W        W78151   3.575  33.394  12.434
 5727W        W78152  39.329  36.285   2.606
 5728W        W78153  15.561  35.860   3.734
 5729W        W78154  27.566  44.743   1.492
 5730W        W78155  10.334  27.462   0.867
 5731W        W78156  40.832  10.142   2.147
 5732W        W78157   8.145  44.033   3.170
 5733W        W78158  25.187  25.145   3.673
 5734W        W78159  19.315   7.549  13.852
 5735W        W78160  39.278  20.214   3.232
 5736W        W78161  44.268  40.483  14.474
 5737W        W78162   7.596  37.885  13.505
 5738W        W78163  20.180  40.551  13.744
 5739W        W78164  34.458   4.768  14.865
 5740W        W78165  41.804  27.033   0.771
 5741W        W78166  22.681   7.283   3.960
 5742W        W78167  34.518  29.977   2.185
 5743W        W78168   2.384  40.556   0.233
 5744W        W78169  37.390  42.767   5.001
 5745W        W78170  14.140  24.042  12.909
 5746W        W78171  28.678  40.340   2.051
 5747W        W78172  21.667  39.519  13.456
 5748W        W78173  15.749  32.280   2.385
 5749W        W78174  17.037  19.068  10.589
 5750W        W78175  25.716  21.975  12.105
 5751W        W78176   4.865  23.469  11.598
 5752W        W78177   4.211  42.434   0.885
 5753W        W78178   9.892  15.221  14.617
 5754W        W78179  43.443  37.090  12.510
 5755W        W78180  18.218  20.835  13.929
 5756W        W78181  21.826  17.840   1.787
 5757W        W78182  44.324  28.972   2.738
 5758W        W78183  22.225   9.818   0.868
 5759W        W78184  10.854  42.077   0.310
 5760W        W78185   8.856  23.874   0.046
 5761W        W78186  40.520  21.645   3.274
 5762W        W78187  23.425   7.665   0.039
 5763W        W78188   6.398  35.189   1.977
 5764W        W78189   9.814  26.386  12.483
 5765W        W78190  23.986   9.859  11.299
 5766W        W78191  40.069  38.562  11.462
 5767W        W78192  43.330  14.348   2.772
 5768W        W78193  20.498  19.312  10.540
 5769W        W78194  16.546  39.423   3.770
 5770W        W78195  16.215  11.478  12.442
 5771W        W78196  38.398  40.548  10.542
 5772W        W78197  20.106   6.808   3.209
 5773W        W78198  36.969  24.951  12.551
 5774W        W78199   1.418  10.782  14.896
 5775W        W78200  37.474  17.837   1.861
 5776W        W78201  22.766  29.994  11.040
 5777W        W78202  33.584  38.459  12.610
 5778W        W78203  16.797  34.250  12.956
 5779W        W78204   6.431  12.035   2.639
 5780W        W78205  43.333  19.272   0.953
 5781W        W78206  39.447  41.818  13.568
 5782W        W78207  34.057  24.685   3.413
 5783W        W78208   9.771  22.598  14.288
 5784W        W78209  40.948  26.112   0.391
 5785W        W78210  37.131   4.814  14.945
 5786W        W78211  12.369  40.626  14.668
 5787W        W78212  34.445  30.477   4.549
 5788W        W78213  35.872  31.984  10.204
 5789W        W78214  10.196  34.643  14.742
 5790W        W78215  14.386  34.140   2.610
 5791W        W78216  30.525  40.967  11.106
 5792W        W78217  34.207  25.975  13.383
 5793W        W78218  11.364  11.857   4.465
 5794W        W78219  42.799  18.568   1.343
 5795W        W78220   1.268  12.167  14.266
 5796W        W78221  29.236   8.737  11.104
 5797W        W78222  41.993  39.251   3.279
 5798W        W78223  20.190   7.731  14.708
 5799W        W78224  10.137   4.786   2.826
 5800W        W78225  19.948  43.074  10.934
 5801W        W78226  27.218  35.953  10.609
 5802W        W78227  23.557  19.990   0.430
 5803W        W78228  35.861   2.405   2.367
 5804W        W78229  44.516  25.768  13.357
 5805W        W78230  37.045  36.518  10.755
 5806W        W78231  44.899  33.628  13.465
 5807W        W78232   6.731   2.235  13.002
 5808W        W78233  42.790  18.195  12.824
 5809W        W78234  42.325  13.645   0.571
 5810W        W78235  39.834  15.653   2.116
 5811W        W78236  14.113  35.504  11.018
 5812W        W78237  17.240  40.309  14.402
 5813W        W78238  24.224   6.290  12.569
 5814W        W78239  39.320  26.696   4.563
 5815W        W78240  43.234   0.250  14.397
 5816W        W78241  37.935  42.843   1.473
 5817W        W78242   7.739  19.948   5.117
 5818W        W78243  13.862  42.876   5.079
 5819W        W78244   4.082  15.502   2.296
 5820W        W78245   0.907   9.133  13.604
 5821W        W78246   6.419  44.357   0.840
 5822W        W78247  25.167  28.024  12.585
 5823W        W78248  38.299  25.154  10.803
 5824W        W78249   2.267  39.440  13.154
 5825W        W78250  33.538  18.653   2.371
 5826W        W78251  18.332  37.302  13.770
 5827W        W78252  12.340  36.147  11.648
 5828W        W78253  26.788  22.626  12.520
 5829W        W78254  23.095   1.832   2.174
 5830W        W78255   7.831  24.806  10.452
 5831W        W78256  38.622  43.997  11.130
 5832W        W78257  29.142  23.276   0.088
 5833W        W78258  20.540  39.112  11.577
 5834W        W78259  14.758  12.388   0.277
 5835W        W78260  28.081  33.341   4.173
 5836W        W78261   4.808   3.406  11.953
 5837W        W78262  37.971  40.497   2.114
 5838W        W78263   4.172  33.534   1.948
 5839W        W78264  11.242  15.623  11.677
 5840W        W78265  26.176  40.312   0.719
 5841W        W78266  38.616   0.951   2.607
 5842W        W78267  14.847  11.514   4.486
 5843W        W78268  44.984   0.539  12.507
 5844W        W78269  44.495   7.980  12.470
 5845W        W78270  36.426  40.582   1.265
 5846W        W78271   9.233  37.989   4.157
 5847W        W78272   7.800  11.582   2.818
 5848W        W78273  21.805  25.758  13.472
 5849W        W78274  28.553  32.845   4.926
 5850W        W78275  23.885  17.209   4.092
 5851W        W78276  15.533  14.117   1.261
 5852W        W78277   2.882  19.379  11.983
 5853W        W78278  30.182  11.734  10.597
 5854W        W78279  12.333  21.184   4.060
 5855W        W78280   0.021   6.571   1.594
 5856W        W78281  20.630  37.839   1.652
 5857W        W78282  22.519  31.905   0.845
 5858W        W78283  23.978  21.170   1.786
 5859W        W78284   6.941  30.551   2.315
 5860W        W78285  44.113  37.950  11.885
 5861W        W78286  27.487   3.753  11.020
 5862W        W78287  42.376  20.726   1.735
 5863W        W78288  44.311  39.033  12.854
 5864W        W78289  39.219  11.298   3.386
 5865W        W78290  37.308  22.241  10.245
 5866W        W78291  14.791  17.961  11.484
 5867W        W78292  33.967  18.514  13.654
 5868W        W78293  24.130   6.344   0.967
 5869W        W78294  35.772  12.306   4.899
 5870W        W78295  15.730  35.439  14.909
 5871W        W78296  40.398  25.544  11.930
 5872W        W78297  39.136  44.445   2.798
 5873W        W78298  11.573  37.296  11.793
 5874W        W78299   8.762  42.275  12.647
 5875W        W78300   8.248  25.063  10.948
 5876W        W78301  23.917  43.516  11.384
 5877W        W78302   0.170  44.498   0.859
 5878W        W78303  19.134  40.630  11.963
 5879W        W78304  15.384  27.182   1.093
 5880W        W78305  36.335  41.401  11.443
 5881W        W78306  23.384  14.845  12.501
 5882W        W78307  20.849  41.893  13.963
 5883W        W78308  43.809   8.137  13.667
 5884W        W78309   4.377  44.863   4.436
 5885W        W78310   7.722   2.788  10.932
 5886W        W78311   6.917  36.174   1.227
 5887W        W78312  15.023   7.152   4.827
 5888W        W78313  25.732  15.908  11.179
 5889W        W78314   8.129  35.798   0.892
 5890W        W78315  19.011  41.248  11.046
 5891W        W78316  18.082   8.119  11.146
 5892W        W78317  13.729  30.097   1.415
 5893W        W78318   8.564  12.718   1.876
 5894W        W78319  23.933  11.235   4.612
 5895W        W78320   6.702  28.310  14.745
 5896W        W78321  11.111  21.242  11.979
 5897W        W78322  41.050  29.415   1.891
 5898W        W78323   4.310  44.381   9.944
 5899W        W78324  35.803  14.900   3.274
 5900W        W78325   2.824  43.125  14.512
 5901W        W78326   9.177  37.050   1.289
 5902W        W78327  31.176  43.815  11.425
 5903W        W78328  18.497   0.300   3.363
 5904W        W78329   0.124  36.802  14.388
 5905W        W78330  25.740  31.871   4.666
 5906W        W78331  16.792   2.020   4.730
 5907W        W78332  16.518  32.664  14.171
 5908W        W78333  40.323  31.078  11.994
 5909W        W78334  22.634  31.416   0.452
 5910W        W78335   9.137  35.534   1.367
 5911W        W78336   2.600   3.186  10.063
 5912W        W78337   8.276  17.515   0.554
 5913W        W78338   1.988  28.725  13.113
 5914W        W78339  17.536  32.084  14.863
 5915W        W78340  33.442  14.546  13.908
 5916W        W78341  38.526  15.298   1.160
 5917W        W78342   3.100  12.204  13.293
 5918W        W78343  12.829  42.339   0.951
 5919W        W78344  29.791  30.857   1.693
 5920W        W78345  15.671  16.082  10.773
 5921W        W78346  40.801   3.694  12.705
 5922W        W78347  12.243  19.616  14.153
 5923W        W78348  44.853  11.128  14.988
 5924W        W78349  31.362  19.311   3.277
 5925W        W78350  34.274  14.714  13.851
 5926W        W78351  16.579   4.270   2.126
 5927W        W78352   3.476  13.601   3.588
 5928W        W78353  24.750  28.624   3.804
 5929W        W78354  30.460   6.851   4.444
 5930W        W78355  34.186  11.247  13.731
 5931W        W78356  10.676  31.970  10.267
 5932W        W78357  17.193  15.150   4.080
 5933W        W78358  17.388  43.582   4.443
 5934W        W78359   6.751  41.556   1.457
 5935W        W78360  33.558  36.979   0.214
 5936W        W78361   1.969  10.069   2.771
 5937W        W78362   4.076   4.374  11.594
 5938W        W78363  30.572  23.512  12.540
 5939W        W78364  35.067   8.886   4.154
 5940W        W78365  37.157  36.505  12.750
 5941W        W78366  33.105  34.970   0.378
 5942W        W78367  16.278   0.038  12.017
 5943W        W78368   5.388  20.008  14.127
 5944W        W78369  12.450  24.779   2.325
 5945W        W78370  34.025  29.308  13.851
 5946W        W78371  10.661  32.476  10.410
 5947W        W78372  14.653  32.683  12.972
 5948W        W78373  37.814  37.811  11.552
 5949W        W78374  20.140  12.808   0.717
 5950W        W78375  12.085  13.290   3.563
 5951W        W78376  22.688  38.380   2.865
 5952W        W78377   2.868  28.646  13.152
 5953W        W78378  32.061  20.567   0.910
 5954W        W78379  14.205  36.990  11.612
 5955W        W78380  36.037  18.608   1.353
 5956W        W78381   1.345  42.588  10.501
 5957W        W78382  13.680   5.296   2.012
 5958W        W78383   6.134  40.783   3.142
 5959W        W78384  18.307  23.066   1.805
 5960W        W78385  41.433  13.686  12.884
 5961W        W78386  22.805  23.598   1.409
 5962W        W78387  43.414  30.109   0.647
 5963W        W78388  14.746  23.660  11.835
 5964W        W78389  23.593   1.964   4.354
 5965W        W78390  10.553  20.378  12.829
 5966W        W78391   4.645  31.434   4.350
 5967W        W78392  13.786   1.413   2.988
 5968W        W78393   2.954  39.489   4.068
 5969W        W78394  42.534   7.170  13.376
 5970W        W78395   1.415  15.173   0.219
 5971W        W78396  37.008  40.067  12.384
 5972W        W78397   4.159   3.988  10.645
 5973W        W78398  11.607  14.704  10.729
 5974W        W78399  30.654   7.731   1.266
 5975W        W78400  34.589  35.561   1.914
 5976W        W78401  26.542  22.411  12.114
 5977W        W78402  44.959   3.948  11.194
 5978W        W78403  26.183  40.598   1.208
 5979W        W78404   0.940  43.384   3.099
 5980W        W78405  14.286  28.402   1.873
 5981W        W78406   1.566  19.826  14.814
 5982W        W78407  21.534  14.774  11.010
 5983W        W78408  28.816  40.854   1.273
 5984W        W78409  36.600   7.752  14.760
 5985W        W78410   4.828  23.641   3.842
 5986W        W78411  35.372  20.170   0.764
 5987W        W78412  26.437  11.250  13.102
 5988W        W78413  14.556  24.223   3.935
 5989W        W78414  19.112  29.579  10.555
 5990W        W78415  24.205  24.070  10.366
 5991W        W78416  29.147  37.545   2.836
 5992W        W78417  33.001  18.079  13.428
 5993W        W78418   5.865  41.872  13.945
 5994W        W78419  20.446  34.328   0.592
 5995W        W78420  42.991   6.960  13.500
 5996W        W78421  20.584  26.644  13.041
 5997W        W78422  31.527  14.873   4.927
 5998W        W78423  42.985  33.173  12.946
 5999W        W78424  25.991   1.943   2.719
 6000W        W78425  39.788  36.050   0.944
 6001W        W78426  42.829  14.440  13.473
 6002W        W78427  32.668  28.002  12.546
 6003W        W78428  37.059  23.486   4.225
 6004W        W78429  20.325  27.499   4.520
 6005W        W78430  24.482   4.795   0.708
 6006W        W78431  11.205  31.977  13.025
 6007W        W78432  38.921  26.996   4.449
 6008W        W78433  23.000   2.114   0.762
 6009W        W78434  39.833  17.673  13.351
 6010W        W78435  17.780  10.193   0.460
 6011W        W78436  15.195  26.188  13.575
 6012W        W78437  41.775  23.219   3.076
 6013W        W78438  41.719  22.674  11.954
 6014W        W78439   5.932  10.707  12.632
 6015W        W78440  44.269  39.337   0.320
 6016W        W78441  15.766  13.166  14.329
 6017W        W78442   9.151   4.856  11.587
 6018W        W78443   5.430   4.072   0.365
 6019W        W78444   3.855  23.193  13.932
 6020W        W78445  16.779  42.296  13.603
 6021W        W78446  12.145  23.441   2.380
 6022W        W78447   0.821  44.762   4.524
 6023W        W78448  30.482   9.569   3.291
 6024W        W78449   4.484   5.900  14.936
 6025W        W78450  32.608  28.201   4.594
 6026W        W78451  32.687  33.150   4.105
 6027W        W78452  36.384   6.907   0.847
 6028W        W78453  18.644  11.460  14.363
 6029W        W78454  32.291   4.340  14.009
 6030W        W78455  18.028  18.617   1.932
 6031W        W78456  31.121   0.886   4.815
 6032W        W78457   0.871  19.189   3.695
 6033W        W78458  22.019  34.969   0.910
 6034W        W78459  10.925  16.208   2.904
 6035W        W78460  13.346  27.337  14.779
 6036W        W78461   8.576  19.529  14.312
 6037W        W78462  41.491   9.965   3.319
 6038W        W78463  13.096  14.085   2.809
 6039W        W78464  37.294  43.822   0.284
 6040W        W78465  12.226  21.494  14.882
 6041W        W78466  43.067  15.212   4.125
 6042W        W78467  39.853  19.303  10.947
 6043W        W78468  19.637   0.963  14.036
 6044W        W78469  25.942  25.102   0.609
 6045W        W78470  21.144  22.247   1.188
 6046W        W78471  26.004  26.028   2.385
 6047W        W78472   4.419   0.243   2.688
 6048W        W78473  30.282  26.427   4.589
 6049W        W78474  24.232  15.417  14.450
 6050W        W78475  17.021  23.993   2.798
 6051W        W78476  17.844  21.984   2.402
 6052W        W78477   7.750  31.900   4.127
 6053W        W78478  32.206  24.593   1.318
 6054W        W78479  29.555  28.881  12.167
 6055W        W78480  37.481  15.542   2.327
 6056W        W78481  19.467  20.255   2.649
 6057W        W78482  36.557   8.669  14.980
 6058W        W78483  23.486  36.451   2.232
 6059W        W78484  12.270   6.936  12.431
 6060W        W78485  29.610  18.551  12.528
 6061W        W78486  43.501  15.667  11.916
 6062W        W78487  23.745  23.510   3.185
 6063W        W78488  17.715  40.091  11.185
 6064W        W78489  17.566  32.770  10.668
 6065W        W78490  34.199   7.223   2.535
 6066W        W78491  34.946  20.882   2.212
 6067W        W78492   2.298  28.069   3.674
 6068W        W78493  39.819   8.463  11.984
 6069W        W78494  16.184   2.395   1.001
 6070W        W78495  24.459  11.737   0.672
 6071W        W78496  14.348  43.415  10.696
 6072W        W78497  39.382  40.291   3.299
 6073W        W78498  43.808  19.311  11.956
 6074W        W78499  43.810  19.247   4.613
 6075W        W78500  25.423  31.564  10.346
 6076W        W78501   5.073  31.309   0.243
 6077W        W78502  35.770  23.929  11.775
 6078W        W78503   2.690  41.033  14.956
 6079W        W78504   6.490  26.874   5.211
 6080W        W78505  44.000  18.647   3.733
 6081W        W78506   2.920  39.824   1.738
 6082W        W78507  36.371  16.602   0.270
 6083W        W78508  17.334  42.996  11.870
 6084W        W78509   9.436  37.596   1.725
 6085W        W78510  23.461  40.929  12.154
 6086W        W78511  13.054  15.481   1.815
 6087W        W78512  25.533  11.867   1.370
 6088W        W78513   8.386   6.154  11.130
 6089W        W78514  41.414   9.154   2.928
 6090W        W78515  42.754  19.629   0.347
 6091W        W78516   7.225  31.501   4.184
 6092W        W78517  44.315  40.741   0.888
 6093W        W78518  31.253   0.497  12.183
 6094W        W78519  27.665  17.307   4.242
 6095W        W78520  16.530   1.012   3.524
 6096W        W78521   6.720  14.339  13.071
 6097W        W78522  28.820   3.779  14.990
 6098W        W78523  11.866  32.559  12.474
 6099W        W78524  10.407  36.147   3.126
 6100W        W78525  15.082   4.920   3.224
 6101W        W78526  15.295  36.961   3.421
 6102W        W78527  31.098  16.698   1.352
 6103W        W78528   2.361  14.633   4.632
 6104W        W78529  11.700  26.154   1.512
 6105W        W78530  27.142  30.951   2.879
 6106W        W78531  32.790  22.520   4.640
 6107W        W78532  35.451   8.132  12.099
 6108W        W78533   5.895  18.696  11.422
 6109W        W78534   9.501  18.316  11.036
 6110W        W78535  38.365  28.697   1.237
 6111W        W78536  18.075   9.637  14.008
 6112W        W78537  10.175  12.782  14.341
 6113W        W78538  10.749  10.013   1.606
 6114W        W78539   5.169  10.174   3.646
 6115W        W78540   9.752  10.181   3.317
 6116W        W78541  14.212  29.235   1.444
 6117W        W78542  25.431  40.753  12.814
 6118W        W78543   0.888  28.455   1.274
 6119W        W78544  22.027  42.541   3.204
 6120W        W78545  38.394   9.180   1.890
 6121W        W78546  37.417  24.743  11.597
 6122W        W78547   9.660  42.792   3.622
 6123W        W78548  16.312  23.484   3.134
 6124W        W78549   4.966  42.897   0.334
 6125W        W78550   8.394  20.767  13.426
 6126W        W78551   6.911   6.818  12.875
 6127W        W78552  29.673  27.199   2.816
 6128W        W78553  23.629   8.690  12.118
 6129W        W78554  16.303  34.833  14.363
 6130W        W78555  32.344  24.195  14.980
 6131W        W78556  26.001  16.139  13.316
 6132W        W78557  25.534  21.944   0.254
 6133W        W78558  41.335  25.636   1.203
 6134W        W78559   5.442   4.814   0.974
 6135W        W78560   6.866  23.862  13.357
 6136W        W78561  35.823   9.285  11.646
 6137W        W78562   3.256  26.096   2.241
 6138W        W78563  18.663  28.868   3.512
 6139W        W78564  41.876  20.809   0.959
 6140W        W78565  40.999   4.204  13.054
 6141W        W78566  29.176  32.037   0.909
 6142W        W78567  34.423  29.206  10.641
 6143W        W78568  35.498  22.282   3.893
 6144W        W78569  17.396   1.850  12.393
 6145W        W78570  11.278   6.460   1.976
 6146W        W78571  32.865  18.506  10.688
 6147W        W78572   3.869  37.892   2.452
 6148W        W78573  31.344  13.146  14.326
 6149W        W78574  12.924  31.604   4.621
 6150W        W78575  20.247  11.024  12.236
 6151W        W78576  11.048  23.173  12.997
 6152W        W78577   2.938  21.920  14.903
 6153W        W78578  12.871  32.826   0.446
 6154W        W78579  14.060  20.610   1.380
 6155W        W78580  12.470  11.087   3.628
 6156W        W78581   8.647  30.480   4.655
 6157W        W78582  37.465  13.028  10.723
 6158W        W78583  44.906  36.726  13.428
 6159W        W78584  29.152   9.557  11.158
 6160W        W78585  42.220   4.888   0.405
 6161W        W78586  15.560  20.723   4.297
 6162W        W78587  25.228  15.392  12.432
 6163W        W78588  17.109  11.050  10.721
 6164W        W78589  28.228  13.871  13.853
 6165W        W78590  27.930  25.009   3.367
 6166W        W78591  10.073  34.168  14.509
 6167W        W78592   0.753  12.364  11.493
 6168W        W78593   5.932   6.013  13.130
 6169W        W78594  22.712   6.409  14.843
 6170W        W78595   7.760  29.091  11.508
 6171W        W78596  14.682   9.845   3.160
 6172W        W78597  17.708  44.759  11.709
 6173W        W78598  33.217  35.927  12.506
 6174W        W78599   5.403   7.740  14.631
 6175W        W78600  44.234  21.284   3.614
 6176W        W78601   7.390  22.820   1.284
 6177W        W78602  17.284  38.009  13.084
 6178W        W78603  10.621  37.505  13.986
 6179W        W78604   6.995  35.476  11.564
 6180W        W78605  12.175  18.874  10.522
 6181W        W78606   3.937  23.444   2.873
 6182W        W78607  36.500  38.317  12.821
 6183W        W78608   7.207   3.740   3.169
 6184W        W78609  43.297  25.738  10.725
 6185W        W78610  14.674  25.844  14.700
 6186W        W78611  23.612  19.527   0.210
 6187W        W78612  13.920  27.187   4.170
 6188W        W78613  24.584  32.361   3.401
 6189W        W78614  26.720   3.887   1.752
 6190W        W78615  42.845   2.589  14.281
 6191W        W78616   4.313   9.364  11.759
 6192W        W78617   8.971  40.509   0.313
 6193W        W78618  17.061  20.685   0.123
 6194W        W78619  29.236  28.206   4.529
 6195W        W78620  31.629  40.926  13.461
 6196W        W78621   9.147  28.054  13.133
 6197W        W78622  43.951  35.141  13.559
 6198W        W78623  35.406  38.058  14.813
 6199W        W78624  15.019  18.546  11.452
 6200W        W78625  35.341   1.637  10.643
 6201W        W78626  18.638  11.590  11.639
 6202W        W78627  14.297  22.476   1.340
 6203W        W78628   6.378  26.522   4.287
 6204W        W78629   3.118  38.795   1.266
 6205W        W78630  28.848  41.388   4.572
 6206W        W78631   3.691  22.641  11.381
 6207W        W78632  41.547  19.997  11.507
 6208W        W78633  31.493  33.047  14.932
 6209W        W78634  39.868  17.765   4.500
 6210W        W78635  35.514   1.558  14.949
 6211W        W78636  15.077   6.937  13.470
 6212W        W78637  32.195  11.351  11.086
 6213W        W78638  40.387  32.633  13.081
 6214W        W78639  11.170  38.037   4.617
 6215W        W78640  34.112  30.983  11.189
 6216W        W78641  40.904  18.123   4.570
 6217W        W78642   6.674  36.973  13.927
 6218W        W78643  34.570  14.564  13.426
 6219W        W78644  40.552  38.447   1.152
 6220W        W78645  26.559   3.988   3.167
 6221W        W78646  26.244  28.790   5.589
 6222W        W78647  17.693  43.776   4.843
 6223W        W78648  20.720   2.594   1.247
 6224W        W78649   3.858  41.768  14.752
 6225W        W78650   4.468  28.415   0.243
 6226W        W78651  37.085  35.953  10.726
 6227W        W78652  28.966  24.002  13.128
 6228W        W78653  30.405  17.699   0.910
 6229W        W78654  10.853  42.951  13.489
 6230W        W78655  41.615  23.072   2.087
 6231W        W78656  34.084  36.330   2.078
 6232W        W78657  22.933  29.173  14.445
 6233W        W78658  22.472  44.710   4.172
 6234W        W78659  16.052  22.472  10.229
 6235W        W78660  18.644  44.106  13.476
 6236W        W78661  33.959  32.458   3.284
 6237W        W78662   7.225  43.492   3.612
 6238W        W78663  37.540  13.478   3.316
 6239W        W78664  24.440  34.507   5.071
 6240W        W78665  30.421  19.229  13.028
 6241W        W78666  34.049   5.299  13.536
 6242W        W78667  37.891  35.989  11.139
 6243W        W78668  26.629   2.419  13.605
 6244W        W78669  18.143   7.445   4.717
 6245W        W78670   6.962  28.949  11.997
 6246W        W78671  23.251  14.225   4.642
 6247W        W78672  32.074  44.245  11.050
 6248W        W78673  43.223  35.832   0.331
 6249W        W78674   0.889  27.942   1.304
 6250W        W78675  33.391  21.121   0.571
 6251W        W78676  17.033  44.483  10.778
 6252W        W78677  31.449  36.613  12.591
 6253W        W78678  24.475  44.060   1.340
 6254W        W78679  26.183  37.364  13.892
 6255W        W78680   4.290  40.498   2.413
 6256W        W78681   1.185  16.791  11.528
 6257W        W78682  12.311  40.606  12.830
 6258W        W78683  28.200  27.004   4.227
 6259W        W78684  35.616  33.867   1.734
 6260W        W78685  13.200  42.377  14.895
 6261W        W78686   4.814  29.909   2.491
 6262W        W78687   6.601  30.361   0.929
 6263W        W78688  40.799  43.034  11.835
 6264W        W78689   3.266   7.776  10.891
 6265W        W78690   4.297  12.074   1.874
 6266W        W78691  42.896  19.068  12.183
 6267W        W78692  22.176  23.991  13.456
 6268W        W78693   6.879  37.338   1.979
 6269W        W78694  13.232  10.350   2.483
 6270W        W78695   1.893  10.226  13.339
 6271W        W78696  22.115   8.644  13.004
 6272W        W78697  10.332  16.593  13.024
 6273W        W78698  24.928  16.685  12.574
 6274W        W78699  35.433  18.976  13.030
 6275W        W78700   0.742  34.809   0.821
 6276W        W78701   8.905   7.645   3.638
 6277W        W78702  38.874  36.133  14.892
 6278W        W78703  31.134  16.142   1.302
 6279W        W78704   3.250  24.921   2.690
 6280W        W78705   1.374  10.372  10.980
 6281W        W78706  14.082  35.294  10.559
 6282W        W78707  38.636  13.134  13.041
 6283W        W78708  33.095  31.258  11.062
 6284W        W78709  20.658  27.613  13.083
 6285W        W78710  15.282  13.602   0.397
 6286W        W78711  10.341  34.739  11.608
 6287W        W78712  32.516  23.931   0.817
 6288W        W78713  33.985  35.999  14.080
 6289W        W78714   4.740  35.561  10.614
 6290W        W78715  20.429  30.548  11.167
 6291W        W78716  17.102  12.822   2.758
 6292W        W78717  44.840  41.403   3.868
 6293W        W78718  35.806  35.518   4.498
 6294W        W78719  25.153  36.955  13.410
 6295W        W78720  31.383  13.759   3.764
 6296W        W78721   7.478  41.020  12.883
 6297W        W78722  29.639  20.919   9.883
 6298W        W78723  20.183  43.327   4.548
 6299W        W78724  32.012   8.469  13.767
 6300W        W78725  11.157  10.743  13.585
 6301W        W78726  42.127  33.209   0.239
 6302W        W78727  11.491  33.127   0.288
 6303W        W78728  25.927  38.636   2.205
 6304W        W78729  24.950   6.781  10.931
 6305W        W78730  35.544   5.519   4.068
 6306W        W78731  21.183   6.870   4.239
 6307W        W78732   4.694  29.192   4.619
 6308W        W78733  35.439  12.077  12.828
 6309W        W78734  14.418  15.297   2.290
 6310W        W78735  19.338  33.034  11.560
 6311W        W78736  19.551  42.460  11.633
 6312W        W78737  17.838  36.614  13.470
 6313W        W78738  13.724  12.209   1.658
 6314W        W78739  39.386   2.605  13.913
 6315W        W78740  43.436  32.693   4.715
 6316W        W78741  21.208   5.713  10.517
 6317W        W78742   7.694   1.713  14.350
 6318W        W78743  17.743   3.174   2.182
 6319W        W78744  33.137  26.659  12.271
 6320W        W78745  19.116  22.364   1.393
 6321W        W78746   1.581  19.920  10.706
 6322W        W78747  25.045  20.177  14.991
 6323W        W78748   0.304  19.515   2.152
 6324W        W78749  32.060   8.381   2.481
 6325W        W78750  36.263  35.583  11.260
 6326W        W78751   6.425   0.293   1.125
 6327W        W78752  11.570  25.696   0.919
 6328W        W78753  12.281   3.489   2.386
 6329W        W78754  16.691  12.664  12.833
 6330W        W78755  31.210  24.265   2.832
 6331W        W78756  37.110  22.411  12.486
 6332W        W78757  17.727   0.635   2.206
 6333W        W78758  27.896  35.986   3.115
 6334W        W78759  15.241  34.540   0.005
 6335W        W78760   6.709   9.881   2.811
 6336W        W78761  37.114   6.845   1.124
 6337W        W78762   9.455   9.315  13.424
 6338W        W78763  44.415  11.353   4.143
 6339W        W78764  19.932  23.805  11.136
 6340W        W78765  29.734  18.152   1.393
 6341W        W78766  27.887  18.456   4.992
 6342W        W78767   6.154  31.835   0.362
 6343W        W78768  35.077  38.578   3.209
 6344W        W78769  40.722  33.355  13.910
 6345W        W78770  31.123  10.087  12.960
 6346W        W78771  38.446  36.856  13.197
 6347W        W78772  30.024  32.986   3.220
 6348W        W78773  11.137  35.072  14.686
 6349W        W78774  20.692  43.502   4.548
 6350W        W78775   1.809  36.541   3.696
 6351W        W78776   6.442   1.744  13.979
 6352W        W78777   7.905  32.859   3.167
 6353W        W78778  12.747   6.928  11.986
 6354W        W78779   8.711  21.121   1.302
 6355W        W78780  42.482  12.822  13.404
 6356W        W78781  17.777  29.409  11.018
 6357W        W78782  37.569  36.535  14.848
 6358W        W78783  44.571  25.956   4.215
 6359W        W78784  29.946   6.122  12.523
 6360W        W78785   8.284  32.838  11.999
 6361W        W78786  42.345   3.794  14.365
 6362W        W78787  29.079  39.286  13.408
 6363W        W78788  26.148  31.388   2.171
 6364W        W78789  13.768  14.683  12.816
 6365W        W78790  18.484  21.104   2.750
 6366W        W78791   3.579  23.568   4.352
 6367W        W78792  35.715   0.732  12.799
 6368W        W78793  24.694  31.429   5.070
 6369W        W78794  26.208  37.459  11.093
 6370W        W78795  44.750  11.574  12.974
 6371W        W78796  30.418  13.049  11.174
 6372W        W78797  40.882  25.201  13.153
 6373W        W78798   0.975  13.076  13.074
 6374W        W78799  19.059  22.244  10.632
 6375W        W78800  13.858   5.325  13.981
 6376W        W78801  39.452   4.970   2.116
 6377W        W78802  32.103  32.461   0.274
 6378W        W78803  22.180  43.454  14.946
 6379W        W78804   2.765  37.336  12.675
 6380W        W78805  40.321  12.546  11.627
 6381W        W78806  37.648  43.399  14.436
 6382W        W78807  28.651   2.786  12.661
 6383W        W78808  11.532   9.603   0.021
 6384W        W78809  41.864  43.416   2.446
 6385W        W78810   0.758  13.205   1.935
 6386W        W78811  27.052  18.045  14.509
 6387W        W78812  41.105  37.660  11.636
 6388W        W78813   8.468   4.881   0.551
 6389W        W78814  18.955  14.349   3.932
 6390W        W78815  22.060  39.844  10.582
 6391W        W78816  34.382  29.725  13.880
 6392W        W78817  18.637   5.518  11.057
 6393W        W78818   0.931  25.252  12.176
 6394W        W78819  19.154  29.200  12.684
 6395W        W78820  28.089   5.138   2.919
 6396W        W78821  15.816  30.421  12.443
 6397W        W78822  42.023  13.363  12.585
 6398W        W78823  29.189  42.166   3.049
 6399W        W78824  24.619  14.222   2.221
 6400W        W78825  32.007  15.340   4.297
 6401W        W78826  34.161  30.084  14.284
 6402W        W78827  28.460  40.490  13.974
 6403W        W78828   9.254  37.561   1.210
 6404W        W78829  15.041   2.887  11.223
 6405W        W78830   1.349   7.102  12.617
 6406W        W78831  14.088  28.656   4.112
 6407W        W78832  36.257  36.972  12.908
 6408W        W78833  38.604  27.789   4.985
 6409W        W78834  23.958   4.872   1.503
 6410W        W78835   1.027  36.003   2.832
 6411W        W78836   9.833  35.526  11.594
 6412W        W78837  36.017  40.792  14.803
 6413W        W78838  14.640  24.130   4.965
 6414W        W78839   5.718  32.797  13.372
 6415W        W78840  27.441  39.234   4.603
 6416W        W78841  43.901   8.907  11.513
 6417W        W78842  33.047  27.658   3.286
 6418W        W78843   3.597  34.985  14.438
 6419W        W78844  17.187  31.915   0.657
 6420W        W78845  41.968  44.221   4.581
 6421W        W78846  28.731  31.968  13.494
 6422W        W78847   4.363  28.542   1.748
 6423W        W78848   8.921  23.160   3.243
 6424W        W78849  32.693  44.513  13.475
 6425W        W78850  14.932   9.443  10.994
 6426W        W78851  15.379  44.942   2.330
 6427W        W78852  32.566  27.543  14.698
 6428W        W78853  28.718  25.623   0.436
 6429W        W78854  15.593   4.846  12.402
 6430W        W78855   0.353  26.158  14.154
 6431W        W78856  10.193  12.895  13.389
 6432W        W78857   0.993  23.891   0.733
 6433W        W78858  34.447  40.381   4.217
 6434W        W78859   5.231   9.878   4.095
 6435W        W78860  35.344  38.999  10.641
 6436W        W78861  25.137  20.718  14.959
 6437W        W78862  10.342  22.908   3.261
 6438W        W78863  13.540  23.070  11.912
 6439W        W78864  34.219   0.486   1.278
 6440W        W78865  13.851   1.232  10.685
 6441W        W78866  17.711  13.764   3.638
 6442W        W78867  12.850  14.642   1.635
 6443W        W78868  13.764  26.066   4.859
 6444W        W78869  33.725   7.368  14.472
 6445W        W78870  42.809  31.773  11.121
 6446W        W78871  31.069   8.338  10.639
 6447W        W78872   7.922   9.665   1.808
 6448W        W78873  34.402  38.811  14.447
 6449W        W78874  12.718   1.509  13.395
 6450W        W78875   5.555  35.953  14.304
 6451W        W78876   8.603  43.173  10.210
 6452W        W78877   9.145   6.764   0.380
 6453W        W78878  34.311  13.218   3.726
 6454W        W78879  22.036  14.717   1.951
 6455W        W78880  41.610   9.613  12.014
 6456W        W78881  40.262  14.716  11.482
 6457W        W78882  26.331   2.225   1.204
 6458W        W78883  34.098  33.548  14.980
 6459W        W78884   8.632  12.597  11.620
 6460W        W78885   9.414  16.167  12.398
 6461W        W78886  16.598  36.469  14.051
 6462W        W78887  39.731  28.583   0.189
 6463W        W78888  38.512  40.889  14.968
 6464W        W78889   6.070  19.196  14.932
 6465W        W78890  24.450  11.991  10.488
 6466W        W78891   7.611   6.835  11.526
 6467W        W78892   6.948  21.182   2.243
 6468W        W78893  21.521  24.565   0.998
 6469W        W78894  21.732  13.093  14.939
 6470W        W78895  23.036  17.835  12.427
 6471W        W78896  34.310  22.640   3.318
 6472W        W78897  13.237  22.126   4.533
 6473W        W78898  40.381  24.919  14.366
 6474W        W78899  27.591  25.251  12.107
 6475W        W78900  36.487  15.651  14.856
 6476W        W78901   7.467  18.625   0.820
 6477W        W78902   5.402  11.671   0.515
 6478W        W78903  31.221  27.674  13.346
 6479W        W78904  12.378  43.240  14.175
 6480W        W78905   4.510  31.738   3.235
 6481W        W78906   9.800  28.923   2.802
 6482W        W78907  31.065  29.617   1.709
 6483W        W78908  15.789  27.921   2.620
 6484W        W78909  34.040  31.681   2.486
 6485W        W78910  26.028  20.172   0.552
 6486W        W78911   7.603  30.617   0.884
 6487W        W78912  37.460  11.093   2.522
 6488W        W78913  10.733  41.018   0.942
 6489W        W78914  43.005  36.351   0.909
 6490W        W78915  41.235  38.056  12.360
 6491W        W78916   3.126   3.766  12.063
 6492W        W78917   3.485  37.258   1.584
 6493W        W78918   5.542   1.295  13.944
 6494W        W78919  11.086   6.485  12.022
 6495W        W78920  27.502  15.618   3.177
 6496W        W78921  13.414  33.519  13.470
 6497W        W78922   4.827  28.231   1.780
 6498W        W78923  32.840  26.378  11.444
 6499W        W78924  11.586  15.198   2.257
 6500W        W78925  30.982   7.656   0.822
 6501W        W78926  44.931  31.567  12.204
 6502W        W78927  44.914  37.433   4.726
 6503W        W78928  25.493  24.665  14.401
 6504W        W78929  32.315  11.622   3.355
 6505W        W78930  14.100  20.982   3.392
 6506W        W78931  32.478  24.222  13.283
 6507W        W78932  28.465  38.036  12.252
 6508W        W78933  12.388  30.596  13.388
 6509W        W78934   4.438  19.559  12.844
 6510W        W78935  28.983  30.167   0.354
 6511W        W78936  39.213  20.626  13.229
 6512W        W78937  36.437   8.439  10.370
 6513W        W78938  23.303  29.795   4.314
 6514W        W78939  13.435  16.306   4.531
 6515W        W78940  25.658  25.459   0.300
 6516W        W78941  31.556   7.730   2.581
 6517W        W78942  32.033  17.483   2.845
 6518W        W78943  20.743  12.224   2.803
 6519W        W78944  19.965  27.700   1.326
 6520W        W78945   8.889  16.553   3.620
 6521W        W78946   7.238  23.240   2.160
 6522W        W78947  35.403  10.158  10.876
 6523W        W78948  33.313  31.851   1.177
 6524W        W78949  17.571   6.838   0.357
 6525W        W78950   3.903  37.818   3.798
 6526W        W78951  31.163  41.756  10.963
 6527W        W78952  27.951  22.617  14.053
 6528W        W78953  34.622  11.027  13.877
 6529W        W78954   1.699  12.215  13.257
 6530W        W78955  13.569  13.759   4.892
 6531W        W78956  22.139  39.476  11.400
 6532W        W78957  30.553  14.703   1.839
 6533W        W78958  12.333  23.036   4.458
 6534W        W78959  36.866  24.334   3.816
 6535W        W78960  18.863  24.421  12.024
 6536W        W78961   8.665  34.055  14.289
 6537W        W78962  11.786   2.256  12.984
 6538W        W78963  22.142   8.084   2.587
 6539W        W78964  17.289  10.288  12.181
 6540W        W78965  23.477  11.196  14.910
 6541W        W78966  35.929  33.834  12.045
 6542W        W78967  32.501  35.660  14.870
 6543W        W78968  42.584  24.604  12.885
 6544W        W78969  35.090   6.663   3.147
 6545W        W78970  11.411  36.920  10.135
 6546W        W78971  24.971  22.180   1.707
 6547W        W78972  24.501  32.803  10.125
 6548W        W78973  42.782  42.089   4.155
 6549W        W78974  31.959  10.459   0.441
 6550W        W78975  21.574  26.191   1.718
 6551W        W78976  30.641  20.550   3.548
 6552W        W78977  33.715  28.722   1.944
 6553W        W78978   8.221  28.816   1.793
 6554W        W78979   3.273   6.592  12.726
 6555W        W78980  27.473  19.512  12.609
 6556W        W78981  28.531  42.451  11.861
 6557W        W78982   8.316  12.397   2.653
 6558W        W78983  15.362  14.577   0.318
 6559W        W78984  43.284  31.194  14.790
 6560W        W78985  15.118  28.489  12.928
 6561W        W78986  38.058  16.610   3.890
 6562W        W78987  39.425  17.606  12.029
 6563W        W78988  21.606  15.508  12.472
 6564W        W78989  11.788  14.904  13.355
 6565W        W78990  23.954  22.598   4.340
 6566W        W78991  33.719   6.832  11.105
 6567W        W78992  14.016  30.084  13.045
 6568W        W78993  17.834  33.601   5.458
 6569W        W78994   8.146  39.292  10.668
 6570W        W78995  41.357  28.739   3.627
 6571W        W78996  33.036  15.924  12.068
 6572W        W78997   4.378  35.548  12.485
 6573W        W78998  26.015   9.339  12.617
 6574W        W78999  40.907   4.257  14.563
 6575W        W79000  29.904  28.185   1.322
 6576W        W79001  36.100  37.640   4.201
 6577W        W79002  10.653   6.571  10.786
 6578W        W79003  20.202  13.837   0.374
 6579W        W79004  34.514   5.878  10.609
 6580W        W79005  21.916   0.262  13.092
 6581W        W79006   7.276   3.664   2.123
 6582W        W79007  11.815  21.706  13.355
 6583W        W79008  38.424   8.867  10.236
 6584W        W79009  42.562   7.847   1.739
 6585W        W79010  32.306  32.053  11.844
 6586W        W79011  15.166  17.193   0.661
 6587W        W79012   1.185  40.836  11.139
 6588W        W79013  28.608  32.733  14.303
 6589W        W79014  12.799  23.948  12.068
 6590W        W79015  24.218  39.844  14.618
 6591W        W79016  27.516  18.773  14.893
 6592W        W79017  28.411  10.317   2.141
 6593W        W79018  16.801  16.604  12.009
 6594W        W79019  21.448  38.914  13.334
 6595W        W79020   3.867   8.642  12.572
 6596W        W79021  24.913  39.786  14.804
 6597W        W79022  41.981  20.158  10.213
 6598W        W79023  30.932  43.407  11.571
 6599W        W79024  36.084  33.495   3.802
 6600W        W79025  23.202   2.855   3.610
 6601W        W79026  17.810  20.871   1.997
 6602W        W79027  27.544  29.042  13.449
 6603W        W79028  16.313  20.041   0.759
 6604W        W79029  25.506  40.491   3.697
 6605W        W79030  33.109  35.929   0.208
 6606W        W79031  38.878  34.318   3.194
 6607W        W79032   9.222  38.436   0.653
 6608W        W79033  28.930  16.201  11.841
 6609W        W79034  39.432  14.546   3.304
 6610W        W79035  40.892  43.373  14.045
 6611W        W79036   2.112  27.770  13.859
 6612W        W79037  39.903  31.884   3.367
 6613W        W79038  36.072  29.486   4.824
 6614W        W79039   2.881  25.457   4.664
 6615W        W79040  44.269  31.489   2.677
 6616W        W79041  40.580  14.815  11.857
 6617W        W79042   0.018  34.829  11.745
 6618W        W79043   2.501  39.497  14.096
 6619W        W79044  38.153  38.718  10.296
 6620W        W79045  29.443  20.250  11.117
 6621W        W79046  16.773   4.776   3.080
 6622W        W79047  35.918  26.694  13.822
 6623W        W79048   6.276  42.765   2.876
 6624W        W79049  23.130  38.537  12.116
 6625W        W79050  31.229  37.964   3.222
 6626W        W79051  28.374   1.539   2.991
 6627W        W79052  10.190  35.483  12.912
 6628W        W79053   7.784  16.788   3.132
 6629W        W79054  27.912  22.942   0.942
 6630W        W79055  30.149  22.774  11.549
 6631W        W79056  44.920  43.776   4.625
 6632W        W79057  38.845  11.216   3.744
 6633W        W79058  37.873   6.403   4.402
 6634W        W79059  18.814  43.004   3.164
 6635W        W79060  27.137  26.359   0.940
 6636W        W79061  44.516   8.740   3.242
 6637W        W79062  13.678  13.665  13.009
 6638W        W79063   6.463  15.755   3.073
 6639W        W79064  35.724  36.928  11.318
 6640W        W79065   6.451  16.201  12.322
 6641W        W79066  37.807  26.061  12.525
 6642W        W79067  13.980  33.198  14.419
 6643W        W79068  37.867  27.630  11.294
 6644W        W79069  25.465  30.518   2.719
 6645W        W79070  36.035   6.328   2.938
 6646W        W79071  30.328  12.880   2.292
 6647W        W79072  13.726  15.888  14.988
 6648W        W79073   0.721  11.742   0.219
 6649W        W79074  25.497   3.585  11.662
 6650W        W79075  37.496  36.339  13.740
 6651W        W79076  21.284  20.900  13.852
 6652W        W79077   4.861   7.308  13.841
 6653W        W79078   3.690  43.623   0.891
 6654W        W79079   4.343   2.320  13.557
 6655W        W79080  26.780  40.282  12.341
 6656W        W79081   6.252  36.619  14.017
 6657W        W79082  22.279   8.234   0.309
 6658W        W79083  12.888  44.799  12.434
 6659W        W79084  23.760  44.201  10.871
 6660W        W79085   6.453  30.871   4.279
 6661W        W79086   8.822  32.359  12.916
 6662W        W79087   3.491   0.369  13.871
 6663W        W79088  23.071  33.924   2.677
 6664W        W79089  27.968  10.158  12.444
 6665W        W79090  33.131  32.104   1.793
 6666W        W79091   7.251  27.745   4.604
 6667W        W79092  20.028  13.909  10.807
 6668W        W79093  23.464   4.904  11.958
 6669W        W79094  34.144  33.485  11.471
 6670W        W79095   5.261  23.624   0.523
 6671W        W79096  19.313  12.386  14.472
 6672W        W79097  39.465  16.699  14.773
 6673W        W79098  16.110  26.136  13.789
 6674W        W79099  21.837  21.267  11.143
 6675W        W79100  41.083   8.213   0.877
 6676W        W79101  21.781  40.951  11.374
 6677W        W79102  14.628  37.593   3.645
 6678W        W79103  34.860  16.107  13.356
 6679W        W79104   0.815  41.379  12.701
 6680W        W79105  25.299  22.220  12.972
 6681W        W79106  23.381  37.651  14.053
 6682W        W79107   1.982  42.763  13.895
 6683W        W79108  16.139  30.970   0.669
 6684W        W79109  10.873  43.285   1.385
 6685W        W79110  18.767  11.043  10.355
 6686W        W79111  36.454  44.502  11.570
 6687W        W79112  28.641  10.370   1.203
 6688W        W79113   9.912   1.930  14.941
 6689W        W79114  16.710  18.797   3.468
 6690W        W79115   6.790  14.421  13.896
 6691W        W79116  44.796   5.791  12.436
 6692W        W79117   3.367  23.657  12.596
 6693W        W79118   8.638   4.241  11.905
 6694W        W79119  44.874  31.435   5.404
 6695W        W79120  21.531  29.486  10.707
 6696W        W79121  11.190  37.157  14.138
 6697W        W79122  26.933  35.556   2.233
 6698W        W79123  22.778  16.646  14.862
 6699W        W79124  39.788  14.331  11.256
 6700W        W79125  23.841  31.982  14.409
 6701W        W79126   4.523   1.191  11.950
 6702W        W79127  17.230  33.317   2.243
 6703W        W79128  31.399  41.450   1.651
 6704W        W79129  10.946  11.885  14.523
 6705W        W79130  23.644   5.514   0.358
 6706W        W79131  20.038   5.708   2.586
 6707W        W79132  18.124   3.932  11.498
 6708W        W79133  24.997  42.757  14.789
 6709W        W79134  26.348  40.497   1.737
 6710W        W79135  28.843  20.650  14.062
 6711W        W79136  33.684  20.240  13.826
 6712W        W79137   1.557   3.458   1.569
 6713W        W79138  41.406  22.180  14.573
 6714W        W79139  10.769  31.754   3.208
 6715W        W79140  20.268  11.137   4.071
 6716W        W79141  26.659  20.230  14.250
 6717W        W79142  14.536  28.114  14.524
 6718W        W79143  32.347  40.468  13.586
 6719W        W79144   0.737  26.217  13.121
 6720W        W79145  23.550  23.188   2.394
 6721W        W79146  28.921  31.756   0.192
 6722W        W79147  44.204  36.395  12.974
 6723W        W79148   4.508   6.823   0.015
 6724W        W79149   5.861  16.148  10.812
 6725W        W79150  23.637  22.650  10.889
 6726W        W79151  24.057  18.154  12.579
 6727W        W79152   3.748  41.464   4.525
 6728W        W79153  39.350  32.966  13.592
 6729W        W79154   0.289  31.942  13.417
 6730W        W79155  23.565  28.147  12.981
 6731W        W79156  36.377  30.457   1.904
 6732W        W79157  17.115  28.353   4.243
 6733W        W79158  31.705  20.638  11.045
 6734W        W79159  40.068   3.205  13.398
 6735W        W79160  10.838  25.694  14.659
 6736W        W79161  28.853  28.969   0.744
 6737W        W79162  44.795  40.499   0.910
 6738W        W79163  24.058  20.146   4.198
 6739W        W79164  32.369  37.477  11.682
 6740W        W79165  11.740  44.353  10.309
 6741W        W79166  32.651  21.628   1.821
 6742W        W79167  17.231  12.751   3.634
 6743W        W79168  12.232   2.364  11.999
 6744W        W79169  13.191  40.721   1.259
 6745W        W79170  41.485  15.966  11.867
 6746W        W79171   0.899  25.877   2.213
 6747W        W79172  26.139   8.574  11.132
 6748W        W79173  12.943  11.218  14.298
 6749W        W79174  24.000  33.486   3.234
 6750W        W79175  10.725  34.627  14.681
 6751W        W79176  26.141   1.248   0.644
 6752W        W79177  15.702   8.469   2.855
 6753W        W79178   7.420   8.175   0.343
 6754W        W79179  37.319  15.094   0.427
 6755W        W79180  37.997  28.009   4.237
 6756W        W79181  25.601  21.127  14.664
 6757W        W79182   8.590  32.436  11.681
 6758W        W79183   2.414  15.107  13.317
 6759W        W79184   4.156   8.898  11.093
 6760W        W79185  40.097  34.308  12.981
 6761W        W79186  30.308  31.685  11.093
 6762W        W79187  20.717   9.368   3.675
 6763W        W79188  13.972  12.391  12.941
 6764W        W79189  27.639  31.941   3.821
 6765W        W79190  28.974  41.187   2.759
 6766W        W79191  24.552  16.822  13.375
 6767W        W79192  26.293   6.270   0.063
 6768W        W79193  28.485   5.774   1.943
 6769W        W79194  40.842  11.932   3.752
 6770W        W79195   0.467  40.524   2.356
 6771W        W79196  19.212  44.797  13.378
 6772W        W79197  41.537  25.959  12.358
 6773W        W79198  34.353   8.750   1.441
 6774W        W79199  10.244  24.055   3.388
 6775W        W79200   1.478  36.581  13.406
 6776W        W79201  36.025   4.325  12.893
 6777W        W79202  27.352  11.685   3.074
 6778W        W79203  41.934  40.357   4.698
 6779W        W79204  12.564   2.298  12.426
 6780W        W79205  18.792   8.725   1.765
 6781W        W79206  21.643  37.559   1.715
 6782W        W79207  29.346  41.351   5.466
 6783W        W79208  17.719   9.318   4.837
 6784W        W79209  22.507  26.602   9.997
 6785W        W79210  37.431  41.993   1.795
 6786W        W79211  21.267  21.366  11.781
 6787W        W79212  33.563   4.350  14.566
 6788W        W79213  42.362   7.299  11.000
 6789W        W79214  40.967   0.817   4.731
 6790W        W79215  10.815  37.748   4.906
 6791W        W79216  41.428  44.825   3.707
 6792W        W79217  44.215   8.205  13.262
 6793W        W79218  14.144  25.019  12.045
 6794W        W79219   2.317  22.135   0.445
 6795W        W79220  31.455  15.053  12.082
 6796W        W79221  14.480  41.227   4.430
 6797W        W79222  31.011   0.626  14.245
 6798W        W79223  31.893   5.243  12.864
 6799W        W79224  28.073  19.472   1.957
 6800W        W79225  12.114  37.339  12.971
 6801W        W79226   4.268  23.946   0.728
 6802W        W79227  44.427  37.614   4.640
 6803W        W79228  29.331  17.550   3.197
 6804W        W79229  32.146  15.660   3.398
 6805W        W79230  16.182  21.480  11.209
 6806W        W79231  32.792  22.715   0.086
 6807W        W79232  12.344  10.673  14.376
 6808W        W79233  40.620  18.615  10.968
 6809W        W79234   4.072  22.612   1.711
 6810W        W79235  12.728  32.030  12.351
 6811W        W79236   9.298  35.543  11.617
 6812W        W79237  14.366   1.249  13.419
 6813W        W79238  23.638   4.462   3.106
 6814W        W79239  22.245  44.125  11.427
 6815W        W79240  28.949  15.692   0.697
 6816W        W79241   5.734  18.657   4.449
 6817W        W79242  36.103  12.375   0.791
 6818W        W79243  30.445  40.487  12.931
 6819W        W79244   7.379  24.023   4.524
 6820W        W79245  32.547  41.074   0.370
 6821W        W79246  21.490   9.235   4.247
 6822W        W79247  37.133  43.369  10.749
 6823W        W79248  29.976   1.074   4.608
 6824W        W79249   9.697  14.725   2.764
 6825W        W79250  30.438  25.536  14.061
 6826W        W79251  27.241  39.273  13.340
 6827W        W79252   7.385   5.667   0.092
 6828W        W79253  16.812   1.538  11.996
 6829W        W79254   2.673  19.490   1.255
 6830W        W79255  30.969  22.584   5.038
 6831W        W79256  23.581  31.491  14.376
 6832W        W79257  32.447  38.288  12.095
 6833W        W79258  32.066   6.758  12.538
 6834W        W79259  25.351  10.096   5.174
 6835W        W79260   2.030  30.866   2.621
 6836W        W79261  10.660   9.006   3.278
 6837W        W79262  31.898  39.893  12.507
 6838W        W79263  37.057  20.203   2.788
 6839W        W79264  16.903   4.944   1.685
 6840W        W79265  20.739  18.703  14.978
 6841W        W79266  22.676  29.997  12.331
 6842W        W79267  10.791  28.037   0.292
 6843W        W79268  17.391  37.936  14.864
 6844W        W79269  24.906  31.209  14.991
 6845W        W79270  17.636   0.677   4.789
 6846W        W79271  38.911  25.263   2.218
 6847W        W79272  13.738  25.869  14.277
 6848W        W79273  26.053   0.743  14.474
 6849W        W79274  23.830  35.638  13.103
 6850W        W79275  18.173  24.170  11.428
 6851W        W79276  21.599   3.221   3.882
 6852W        W79277  38.957  11.706   3.591
 6853W        W79278  27.901  38.026  10.363
 6854W        W79279  18.153   5.802   4.098
 6855W        W79280   3.552  31.851  11.207
 6856W        W79281   1.232  22.514  12.893
 6857W        W79282   0.435  23.692  14.396
 6858W        W79283  18.970  44.499  14.940
 6859W        W79284  12.429  13.142  12.562
 6860W        W79285  31.564  32.437   3.813
 6861W        W79286  26.673  27.991   3.385
 6862W        W79287  32.933  14.182   2.248
 6863W        W79288  35.834  17.247   1.781
 6864W        W79289  40.415  23.626   2.805
 6865W        W79290  14.751  21.139  13.907
 6866W        W79291  29.443  44.832   4.644
 6867W        W79292  28.199  23.625  10.279
 6868W        W79293   9.103  17.618  10.733
 6869W        W79294  24.598  11.906   4.280
 6870W        W79295  33.700  18.711   3.240
 6871W        W79296   1.040  43.921   3.809
 6872W        W79297  42.496   4.661   4.486
 6873W        W79298   7.467  17.611   3.073
 6874W        W79299  44.237  43.423  12.966
 6875W        W79300  24.545  19.149  11.603
 6876W        W79301  25.454  19.620   0.641
 6877W        W79302  38.835  42.537   1.319
 6878W        W79303  43.070  29.045   2.128
 6879W        W79304  23.092   5.990   0.768
 6880W        W79305  39.723  31.918   9.992
 6881W        W79306  14.551   9.853   0.536
 6882W        W79307   3.903   1.383  11.030
 6883W        W79308  31.862  44.821   1.353
 6884W        W79309  24.079  12.563  13.455
 6885W        W79310  10.187  26.878  14.521
 6886W        W79311  42.873   3.805  11.889
 6887W        W79312  31.693  44.276   3.156
 6888W        W79313  17.353   5.993   0.067
 6889W        W79314  39.329  30.037   0.964
 6890W        W79315  14.201  24.710   0.295
 6891W        W79316   9.526   3.985   1.403
 6892W        W79317  42.376  41.474  10.459
 6893W        W79318  20.424  35.410   4.580
 6894W        W79319   0.734  21.987   4.696
 6895W        W79320   0.304   1.749   4.643
 6896W        W79321  25.955  11.066   0.366
 6897W        W79322  10.721   8.714  12.100
 6898W        W79323  22.029  44.174   4.367
 6899W        W79324   9.481  43.384   4.031
 6900W        W79325  17.564  39.465  12.065
 6901W        W79326   8.415  23.035  13.934
 6902W        W79327  44.861   4.651   3.260
 6903W        W79328  20.009  30.194  14.295
 6904W        W79329  36.023  34.340  13.452
 6905W        W79330  44.248  34.452  12.623
 6906W        W79331  19.070  14.133  12.962
 6907W        W79332   2.323  29.037  10.260
 6908W        W79333  19.022  34.577  11.149
 6909W        W79334  17.083  30.497   4.134
 6910W        W79335  41.140  18.597   3.799
 6911W        W79336   0.792   6.147   4.187
 6912W        W79337  35.850  17.511  11.588
 6913W        W79338   0.882  22.399  13.380
 6914W        W79339  34.039  34.496   2.294
 6915W        W79340  13.750  11.072  13.113
 6916W        W79341  40.343   3.454   5.011
 6917W        W79342   1.057  10.901   1.678
 6918W        W79343   5.332  18.476  13.116
 6919W        W79344  39.793   1.398  14.913
 6920W        W79345  20.676  22.625  11.014
 6921W        W79346  17.319  24.044  13.342
 6922W        W79347  12.704  30.966   3.583
 6923W        W79348  14.045  28.620  12.050
 6924W        W79349  33.158  12.401  11.660
 6925W        W79350  10.738  21.497   4.099
 6926W        W79351  33.361  21.846   1.470
 6927W        W79352  11.364  31.415  10.231
 6928W        W79353   3.963   8.932   2.373
 6929W        W79354   2.446  18.127  14.026
 6930W        W79355  44.729  30.109  11.435
 6931W        W79356   6.137   0.497   0.722
 6932W        W79357  35.913  39.390  14.727
 6933W        W79358  39.268  14.216  12.086
 6934W        W79359   2.333  42.446   3.265
 6935W        W79360  37.795  12.249   1.688
 6936W        W79361  15.658  44.397  11.104
 6937W        W79362  21.637  28.208  14.236
 6938W        W79363   0.152  25.625   1.678
 6939W        W79364  25.675  13.002   2.069
 6940W        W79365  26.481   4.309   5.148
 6941W        W79366  25.006  44.693   0.075
 6942W        W79367  26.658  34.991   0.986
 6943W        W79368   9.130  30.233  11.953
 6944W        W79369  15.384   5.716  14.881
 6945W        W79370  10.105  16.392  14.895
 6946W        W79371  44.323  11.101  11.984
 6947W        W79372   9.507  28.014   0.830
 6948W        W79373   6.389  39.957   4.290
 6949W        W79374  11.115  43.742   1.235
 6950W        W79375  22.183  10.334  10.633
 6951W        W79376  11.104  44.468   4.016
 6952W        W79377  40.894  13.642   1.779
 6953W        W79378  37.595   5.069   4.185
 6954W        W79379   8.742  43.376  10.683
 6955W        W79380  17.712  22.032  14.400
 6956W        W79381  38.372  20.154   3.148
 6957W        W79382  37.787  38.314  10.383
 6958W        W79383  42.941  42.514  10.941
 6959W        W79384   6.902  22.213  10.951
 6960W        W79385  33.140  31.375   2.937
 6961W        W79386  33.880  14.089  14.258
 6962W        W79387   4.439  22.931  11.994
 6963W        W79388  35.469  32.624   2.173
 6964W        W79389  17.638  24.628  14.561
 6965W        W79390  32.200  44.410  13.322
 6966W        W79391  35.197  13.901  13.962
 6967W        W79392  31.578  34.332   2.259
 6968W        W79393  21.710  25.189   4.646
 6969W        W79394  44.222   3.704   2.700
 6970W        W79395  30.961  19.225  10.712
 6971W        W79396   2.904  20.702  10.357
 6972W        W79397   1.459  26.033   2.933
 6973W        W79398  14.220  30.005   4.496
 6974W        W79399   7.710   8.922   3.842
 6975W        W79400  12.826  32.176  14.226
 6976W        W79401   0.732  23.149   1.076
 6977W        W79402  32.080  35.676   1.419
 6978W        W79403   1.779   5.445  12.388
 6979W        W79404  23.771   4.655  14.923
 6980W        W79405  44.697  31.420  12.637
 6981W        W79406  10.103  36.332  14.332
 6982W        W79407  14.235  19.155  10.750
 6983W        W79408   3.855  41.946  12.735
 6984W        W79409  28.655  21.697   4.546
 6985W        W79410  30.641  39.054   0.395
 6986W        W79411  43.979  24.396   2.750
 6987W        W79412  18.859  38.972  11.031
 6988W        W79413  28.150   9.445   1.269
 6989W        W79414  36.413   3.988  13.043
 6990W        W79415  44.447  14.295   2.686
 6991W        W79416  19.579   0.103  12.332
 6992W        W79417  24.076  22.175  14.792
 6993W        W79418  37.710   8.780  13.282
 6994W        W79419  13.634  29.898   0.178
 6995W        W79420  35.005  29.870  14.356
 6996W        W79421   8.382  33.909  11.148
 6997W        W79422   7.310  41.258   2.443
 6998W        W79423  25.521   7.496  11.049
 6999W        W79424  18.306   1.308  12.012
 7000W        W79425  11.168  34.359  11.133
 7001W        W79426  41.924  34.112   2.538
 7002W        W79427   0.315   8.749   3.771
 7003W        W79428  27.392  24.270  14.097
 7004W        W79429  41.436  14.189   9.815
 7005W        W79430   2.690  24.461   3.191
 7006W        W79431  26.090  18.377   0.791
 7007W        W79432   2.511  26.026   2.661
 7008W        W79433  30.233  42.501  10.912
 7009W        W79434  40.165  42.540  12.481
 7010W        W79435  13.564  13.266   3.099
 7011W        W79436   8.436  25.415  11.928
 7012W        W79437   0.787  27.518   3.780
 7013W        W79438  17.796  11.177   2.742
 7014W        W79439  41.032   7.223  13.025
 7015W        W79440  44.021  14.484  14.328
 7016W        W79441  36.669   9.279   3.993
 7017W        W79442  42.402  39.980  10.353
 7018W        W79443   5.377   4.635  10.347
 7019W        W79444   3.366  13.133   0.269
 7020W        W79445  10.736   2.887  14.878
 7021W        W79446  40.544  15.337   1.001
 7022W        W79447  25.667  11.811  14.364
 7023W        W79448  32.955   0.251  12.146
 7024W        W79449  37.526  28.057   3.787
 7025W        W79450  39.945  31.527  10.787
 7026W        W79451  11.239  10.141  11.829
 7027W        W79452  24.138  11.786   4.070
 7028W        W79453  40.301  44.879   2.408
 7029W        W79454  29.363  38.006  10.735
 7030W        W79455   3.716  31.857   4.440
 7031W        W79456  43.415  23.290   1.984
 7032W        W79457  37.404   8.185   4.315
 7033W        W79458  25.164  11.296  10.664
 7034W        W79459  44.398  44.262   1.208
 7035W        W79460  34.127  34.848   0.345
 7036W        W79461  16.289  11.004  12.605
 7037W        W79462  10.237  11.528   1.336
 7038W        W79463  22.178  42.932  14.864
 7039W        W79464  44.208   1.742  13.095
 7040W        W79465  40.475  31.175  11.059
 7041W        W79466  44.571  20.392   1.294
 7042W        W79467  19.044  37.811  12.403
 7043W        W79468  35.799  37.952   3.599
 7044W        W79469  23.693  34.491   2.422
 7045W        W79470  33.986  38.118   1.177
 7046W        W79471  23.059  39.437   0.681
 7047W        W79472  34.238   4.855   0.408
 7048W        W79473  11.266  33.023  13.930
 7049W        W79474  35.324  29.372  12.809
 7050W        W79475   5.173  30.168   1.495
 7051W        W79476   9.667  29.212   3.257
 7052W        W79477  15.231  13.085   0.411
 7053W        W79478  24.578   8.445   2.833
 7054W        W79479  25.224   8.310  11.139
 7055W        W79480  14.138  30.537  12.849
 7056W        W79481  23.469   5.758  11.185
 7057W        W79482  35.809  28.210  14.794
 7058W        W79483   7.884   1.281  11.995
 7059W        W79484  44.800  20.259   3.631
 7060W        W79485   8.197  13.992  12.164
 7061W        W79486  34.058  33.626   4.183
 7062W        W79487  43.192  32.119  11.177
 7063W        W79488   1.647  34.495  13.883
 7064W        W79489  44.091  17.569  13.800
 7065W        W79490  24.679   1.556  12.964
 7066W        W79491  14.093  12.374  11.516
 7067W        W79492  17.476  28.508   4.599
 7068W        W79493  40.371  31.661  13.544
 7069W        W79494  25.942   9.267  12.107
 7070W        W79495  14.213  19.906  12.058
 7071W        W79496  18.483  25.639   2.469
 7072W        W79497  36.799   9.195   4.475
 7073W        W79498  22.342   2.920   3.730
 7074W        W79499  21.249  10.861   3.327
 7075W        W79500  36.725   4.542   2.151
 7076W        W79501  11.411  26.358   4.602
 7077W        W79502  21.046  35.100   3.970
 7078W        W79503  36.602  11.102  10.496
 7079W        W79504  31.705   9.590  10.671
 7080W        W79505  23.248  31.612   3.827
 7081W        W79506  20.852   0.422   0.690
 7082W        W79507  30.997  14.862   1.642
 7083W        W79508  29.638  35.606   1.880
 7084W        W79509   6.422  33.668   3.177
 7085W        W79510  33.501  32.483  14.589
 7086W        W79511  40.561  44.704   1.624
 7087W        W79512  16.156  40.059  14.788
 7088W        W79513  14.988   5.334  11.335
 7089W        W79514  42.452  17.684  10.780
 7090W        W79515  37.309  36.542   2.403
 7091W        W79516  13.258   5.855   2.130
 7092W        W79517  43.875  44.356   4.616
 7093W        W79518  14.885  27.173  13.329
 7094W        W79519  29.241  25.448  12.084
 7095W        W79520  24.167  20.960   1.344
 7096W        W79521  35.497  22.420  12.991
 7097W        W79522   0.251   0.773   1.168
 7098W        W79523  28.126  36.158   0.720
 7099W        W79524  20.771   3.371   3.391
 7100W        W79525  31.428  22.749   4.851
 7101W        W79526  34.574  15.717   1.389
 7102W        W79527  35.222   9.628   4.652
 7103W        W79528  22.244  24.241   1.173
 7104W        W79529  37.785   8.429   4.584
 7105W        W79530  23.454  39.015  12.105
 7106W        W79531  29.356  15.801  13.847
 7107W        W79532  18.749   5.935   0.101
 7108W        W79533  11.891   1.543  11.678
 7109W        W79534  14.996  19.090   3.901
 7110W        W79535  11.769   6.684  14.947
 7111W        W79536  33.246  18.092  12.418
 7112W        W79537  25.419   5.709  12.464
 7113W        W79538  34.872  40.313  12.456
 7114W        W79539  17.428   7.197  11.103
 7115W        W79540  29.026  18.001   4.447
 7116W        W79541  31.228  14.469   0.894
 7117W        W79542  15.798  13.665  11.484
 7118W        W79543  21.175  27.732  12.352
 7119W        W79544  36.828   6.026  11.605
 7120W        W79545  39.440  10.932   1.237
 7121W        W79546  23.627   3.771   4.194
 7122W        W79547  30.547   5.368  10.479
 7123W        W79548   4.991  28.912  13.748
 7124W        W79549  27.280  33.932   3.418
 7125W        W79550  27.323  33.098   4.479
 7126W        W79551  34.662   5.860   0.478
 7127W        W79552  11.095  35.109   0.199
 7128W        W79553  35.468  29.706   2.888
 7129W        W79554  13.604   4.699   5.558
 7130W        W79555  24.472  35.974  13.846
 7131W        W79556  18.568   7.090  11.611
 7132W        W79557  26.551  41.513   4.723
 7133W        W79558  36.280  39.951   2.848
 7134W        W79559  43.477  28.053   4.078
 7135W        W79560  39.435   7.813   0.179
 7136W        W79561  28.437   8.437  12.918
 7137W        W79562   8.730  10.021   3.589
 7138W        W79563   5.328  36.672   3.338
 7139W        W79564  31.997  36.387   4.202
 7140W        W79565  27.292   0.231  13.298
 7141W        W79566  32.155  31.467  10.601
 7142W        W79567  26.906  33.108   0.527
 7143W        W79568  16.033   1.280  11.083
 7144W        W79569  19.757  20.692   0.493
 7145W        W79570   5.462  13.656   4.907
 7146W        W79571  22.217  40.817   1.490
 7147W        W79572  35.959  17.780   1.724
 7148W        W79573   8.472  28.368   2.869
 7149W        W79574  32.473  43.427   3.844
 7150W        W79575  44.782  43.563  13.983
 7151W        W79576   3.823  24.524  11.609
 7152W        W79577  40.402  11.943  13.448
 7153W        W79578   8.257  21.089   0.274
 7154W        W79579  21.507  34.047  14.570
 7155W        W79580  29.139  27.715   3.124
 7156W        W79581  11.739  18.993   3.410
 7157W        W79582   1.386   8.249  13.293
 7158W        W79583  23.261   7.857   1.024
 7159W        W79584  27.760  22.380   5.456
 7160W        W79585  36.129  20.976   1.083
 7161W        W79586  32.520  38.294   2.870
 7162W        W79587   7.808  24.666  12.153
 7163W        W79588  16.418  34.566  10.051
 7164W        W79589  27.986   5.390   2.118
 7165W        W79590  25.619  34.308  11.734
 7166W        W79591  28.654  28.281   2.390
 7167W        W79592  39.517  37.786  14.358
 7168W        W79593  25.231  29.031   5.210
 7169W        W79594  27.538  35.219  12.503
 7170W        W79595  31.708  12.893   1.803
 7171W        W79596  38.499  22.120  14.776
 7172W        W79597  27.330  29.261  10.513
 7173W        W79598  43.019  16.576   4.830
 7174W        W79599  31.551  21.604  12.865
 7175W        W79600  25.147  18.133   3.294
 7176W        W79601  16.077   4.340   1.251
 7177W        W79602  25.961  16.157   2.152
 7178W        W79603  39.606   2.311   2.841
 7179W        W79604   0.785  24.314  11.635
 7180W        W79605   8.837  15.920   4.186
 7181W        W79606  41.353  12.638  12.846
 7182W        W79607  23.824  18.864  13.064
 7183W        W79608  12.307   5.347  12.399
 7184W        W79609  28.351   4.683  11.489
 7185W        W79610  24.566  43.012  11.513
 7186W        W79611  16.911   8.193   4.740
 7187W        W79612   2.611   9.707   3.730
 7188W        W79613   6.122  22.376   3.320
 7189W        W79614  37.483  32.260   4.125
 7190W        W79615  27.532  19.209  10.652
 7191W        W79616  23.072  31.360   2.948
 7192W        W79617  12.837  18.102   1.737
 7193W        W79618  24.895   1.612   4.542
 7194W        W79619  27.613   5.132   2.387
 7195W        W79620  24.066  13.683  11.109
 7196W        W79621  21.071  43.656  12.338
 7197W        W79622   7.432   4.435   3.644
 7198W        W79623  10.977   0.715  10.674
 7199W        W79624   8.190  21.577   0.462
 7200W        W79625  24.823  34.040  12.459
 7201W        W79626  27.282  34.967   3.894
 7202W        W79627  31.958  19.120   3.779
 7203W        W79628  44.862  18.337   2.795
 7204W        W79629  40.389  42.993   3.252
 7205W        W79630  10.485  34.420  14.283
 7206W        W79631   4.637   8.737  12.004
 7207W        W79632  34.000  21.254  14.547
 7208W        W79633  16.535  42.905   4.136
 7209W        W79634  43.215  38.067  12.310
 7210W        W79635  44.845  12.236   0.461
 7211W        W79636  34.178  36.453   0.722
 7212W        W79637   3.187   8.117  12.235
 7213W        W79638  40.081  14.756  11.970
 7214W        W79639   4.863   8.432  14.449
 7215W        W79640  28.516   3.427  11.284
 7216W        W79641   4.334  36.935   2.812
 7217W        W79642  18.039  18.608  13.040
 7218W        W79643  12.602  29.078  12.018
 7219W        W79644  38.044  44.471  11.443
 7220W        W79645  26.277   3.935   2.716
 7221W        W79646  44.438  36.010   3.875
 7222W        W79647  10.324  41.884  11.962
 7223W        W79648   5.383  11.433  13.439
 7224W        W79649   6.397   9.136  12.451
 7225W        W79650  16.494   8.461   3.742
 7226W        W79651  42.484   8.920  13.087
 7227W        W79652  34.736  24.674   4.102
 7228W        W79653   4.672   2.507   1.761
 7229W        W79654  16.172  28.638   1.788
 7230W        W79655  43.290  36.935  11.210
 7231W        W79656  39.490  32.518  13.307
 7232W        W79657  35.004  27.008  11.596
 7233W        W79658  13.534  32.942  11.181
 7234W        W79659   0.327  37.162  10.686
 7235W        W79660  14.530  40.507   1.214
 7236W        W79661  40.775  19.668   4.198
 7237W        W79662   4.341  25.506   0.926
 7238W        W79663  27.080  24.234  12.482
 7239W        W79664  11.963  27.986   4.105
 7240W        W79665  35.186  36.328  10.668
 7241W        W79666  42.574  39.319   1.292
 7242W        W79667  18.316  25.929   1.667
 7243W        W79668  36.893  42.197   5.086
 7244W        W79669   8.969  31.400   3.290
 7245W        W79670   0.461   4.610   1.000
 7246W        W79671   5.518  43.935  11.493
 7247W        W79672  41.947  15.551  12.905
 7248W        W79673   6.400  37.129   2.171
 7249W        W79674  43.960  37.405   2.170
 7250W        W79675  38.535  17.226  12.155
 7251W        W79676   7.660  44.307   2.260
 7252W        W79677  12.791   8.332   1.000
 7253W        W79678  10.731   1.889   4.924
 7254W        W79679  23.732   9.653  12.202
 7255W        W79680  29.370  41.917  12.686
 7256W        W79681  14.844   4.397  12.895
 7257W        W79682   3.982  12.920  14.809
 7258W        W79683   4.890  28.530   3.076
 7259W        W79684  25.000  30.464  11.030
 7260W        W79685   7.613  30.063  13.383
 7261W        W79686  13.805  23.636  14.024
 7262W        W79687  27.376  17.566  12.493
 7263W        W79688  31.697  34.626  14.397
 7264W        W79689   1.502  43.294   2.366
 7265W        W79690  16.209  36.919   4.415
 7266W        W79691   4.861   1.050   0.456
 7267W        W79692  11.091  12.628   3.672
 7268W        W79693   7.478  36.014  13.569
 7269W        W79694  36.781  25.117  11.167
 7270W        W79695  20.603  41.022   2.964
 7271W        W79696  21.185  13.419   2.494
 7272W        W79697  41.087  12.108  14.780
 7273W        W79698  36.116   2.916  11.549
 7274W        W79699   5.666  39.453  14.383
 7275W        W79700  32.410   6.740  14.051
 7276W        W79701  34.936   8.691   2.895
 7277W        W79702  37.225  18.016  11.590
 7278W        W79703   1.343   2.763  13.068
 7279W        W79704  13.203  12.126   1.717
 7280W        W79705  25.572  28.368   4.285
 7281W        W79706  16.630  36.387   2.923
 7282W        W79707   7.918  13.257  14.885
 7283W        W79708   6.484  37.144   0.639
 7284W        W79709  35.987  16.271   0.834
 7285W        W79710   6.183  14.150  14.559
 7286W        W79711  31.648   3.897   1.383
 7287W        W79712  37.437  18.680   0.866
 7288W        W79713  23.163  21.040   3.311
 7289W        W79714  12.660  11.049  11.135
 7290W        W79715  18.961  10.665   1.351
 7291W        W79716  40.651  42.436  12.355
 7292W        W79717  44.420  26.209  12.503
 7293W        W79718  33.812  11.193  10.492
 7294W        W79719   4.918  16.332   2.688
 7295W        W79720   9.340   5.745  12.542
 7296W        W79721   4.391  21.682   2.833
 7297W        W79722  10.232  32.782  12.485
 7298W        W79723   6.115  37.393   0.335
 7299W        W79724  15.764  32.773  10.023
 7300W        W79725  26.128  19.421   1.577
 7301W        W79726  42.344  41.724   1.278
 7302W        W79727   6.887  23.872  11.040
 7303W        W79728  20.298  43.410   0.914
 7304W        W79729  15.307  25.287   2.203
 7305W        W79730  32.934  20.718  13.465
 7306W        W79731   3.924  36.928  11.409
 7307W        W79732  30.862  39.813  13.916
 7308W        W79733   5.305  35.609  10.649
 7309W        W79734  18.105  35.310   0.457
 7310W        W79735  31.607  12.267  11.550
 7311W        W79736  24.082   5.271   3.737
 7312W        W79737  31.541   3.920  10.786
 7313W        W79738  11.960  44.870   1.506
 7314W        W79739  29.572  26.352   4.120
 7315W        W79740  19.962   7.197   0.040
 7316W        W79741  28.525  37.478  13.547
 7317W        W79742  25.219  21.741   1.679
 7318W        W79743   8.695  29.906  14.729
 7319W        W79744   4.374  39.772   3.711
 7320W        W79745  42.844  31.212   1.887
 7321W        W79746  24.279  22.032  12.860
 7322W        W79747  24.074  25.264  11.566
 7323W        W79748  43.308  32.301  10.259
 7324W        W79749  25.284   8.271  14.698
 7325W        W79750   8.344   9.651   1.467
 7326W        W79751  19.238   1.526   3.951
 7327W        W79752  43.928  15.299   4.465
 7328W        W79753  43.236   6.405   3.151
 7329W        W79754  13.146  29.700  12.068
 7330W        W79755   0.927  17.250  12.847
 7331W        W79756   6.931   6.796   4.149
 7332W        W79757  42.040  39.920   4.100
 7333W        W79758  31.043   1.367   4.583
 7334W        W79759   1.257   0.510  13.399
 7335W        W79760  35.474  34.763  14.982
 7336W        W79761  11.910   5.224   0.605
 7337W        W79762  24.695  11.420  12.547
 7338W        W79763  13.408  29.160   2.761
 7339W        W79764  34.725  10.136  14.892
 7340W        W79765  40.847  25.458  13.615
 7341W        W79766  25.367  15.917  14.456
 7342W        W79767  32.880  44.414  14.935
 7343W        W79768  42.348  14.978   1.781
 7344W        W79769   3.306   7.716   4.216
 7345W        W79770  36.048   2.182   4.679
 7346W        W79771   6.316  13.141  10.746
 7347W        W79772  23.631  32.717  13.791
 7348W        W79773  28.005  18.029   3.663
 7349W        W79774  43.080  28.106   3.244
 7350W        W79775   5.394   0.938  13.019
 7351W        W79776  25.052  38.983  12.183
 7352W        W79777  24.061  38.386   4.862
 7353W        W79778   2.764  33.634  13.328
 7354W        W79779  22.193   1.306   4.487
 7355W        W79780   9.114  28.144  13.929
 7356W        W79781  21.001  30.708   3.858
 7357W        W79782  27.498  20.319   3.240
 7358W        W79783  10.823  12.697  12.843
 7359W        W79784  36.169   6.772  11.038
 7360W        W79785  11.211  18.714   0.964
 7361W        W79786  15.344  15.754   3.157
 7362W        W79787  31.904   7.645   0.955
 7363W        W79788  25.712  36.026   4.957
 7364W        W79789  11.315  27.363   1.945
 7365W        W79790  25.342  31.141   4.340
 7366W        W79791  29.592  25.719   1.338
 7367W        W79792  39.502  11.655  14.361
 7368W        W79793  10.311  31.137   1.287
 7369W        W79794   5.347  31.681   2.199
 7370W        W79795  17.923  30.456  11.436
 7371W        W79796  40.998   4.390  14.081
 7372W        W79797  35.181  15.330  12.778
 7373W        W79798  39.320   4.026  13.432
 7374W        W79799  37.844  30.240  13.111
 7375W        W79800  14.239   8.381  14.718
 7376W        W79801  11.249   5.698   0.835
 7377W        W79802  17.040  16.998  13.557
 7378W        W79803  21.831   9.210   3.180
 7379W        W79804   0.020  43.499  10.417
 7380W        W79805  13.663  29.104   4.940
 7381W        W79806  16.383  17.159   0.244
 7382W        W79807  23.594  33.351   3.804
 7383W        W79808  16.360  25.418   3.725
 7384W        W79809  11.879   0.663   5.053
 7385W        W79810   6.185   8.895  12.024
 7386W        W79811  39.417  22.201   1.219
 7387W        W79812  16.840  17.100   3.628
 7388W        W79813  34.926   5.659  11.997
 7389W        W79814   6.330   8.231   0.257
 7390W        W79815  14.336  33.000  10.257
 7391W        W79816  38.045   6.076  11.502
 7392W        W79817  44.897   5.415  12.078
 7393W        W79818  31.786  22.385  14.695
 7394W        W79819  43.006   2.829  11.478
 7395W        W79820  32.917  22.142  13.854
 7396W        W79821   7.852   1.079   2.835
 7397W        W79822  28.134  33.620  10.612
 7398W        W79823   5.853  29.579   3.375
 7399W        W79824   5.290  29.722   2.410
 7400W        W79825  32.571   6.332  11.959
 7401W        W79826  27.386  20.616  13.369
 7402W        W79827  16.636  34.346   2.225
 7403W        W79828  16.875  22.298  14.247
 7404W        W79829  12.889  42.401  14.480
 7405W        W79830  13.743   4.296  11.141
 7406W        W79831  22.171  33.136  13.063
 7407W        W79832  30.130  24.445  14.010
 7408W        W79833   8.915  34.465  10.634
 7409W        W79834  37.511   1.639   2.924
 7410W        W79835  39.440  30.949   3.668
 7411W        W79836  40.121  17.300  13.599
 7412W        W79837  23.224  30.306   3.188
 7413W        W79838  41.025  23.126  12.645
 7414W        W79839  41.038  19.200  11.514
 7415W        W79840   2.952  17.175   1.043
 7416W        W79841  31.852  17.356   3.645
 7417W        W79842  36.864  11.091   3.241
 7418W        W79843   4.442  34.917   2.904
 7419W        W79844  12.669  44.439   0.210
 7420W        W79845  36.278  24.955   2.619
 7421W        W79846  39.805   7.912   4.278
 7422W        W79847  26.718  15.607  12.880
 7423W        W79848  38.056  18.794   1.296
 7424W        W79849  18.218  34.634  14.245
 7425W        W79850  18.224  38.548  11.110
 7426W        W79851  37.408  26.464  10.094
 7427W        W79852  32.070  38.762  11.685
 7428W        W79853  21.617  31.582  13.630
 7429W        W79854  25.956  26.424  10.475
 7430W        W79855  39.972  31.426   1.400
 7431W        W79856   7.849  23.711  14.926
 7432W        W79857  12.294  37.938   1.432
 7433W        W79858  25.659   0.399   1.216
 7434W        W79859   9.356  29.633   3.611
 7435W        W79860   7.729  13.752  13.678
 7436W        W79861   4.927   7.881  14.495
 7437W        W79862  28.049  34.339   4.066
 7438W        W79863  42.055  35.898   0.829
 7439W        W79864  26.942   3.688  13.585
 7440W        W79865  44.391   0.675  10.666
 7441W        W79866   1.129  39.758   0.478
 7442W        W79867  15.342  10.560  14.402
 7443W        W79868   2.720  11.103  12.439
 7444W        W79869  10.762  40.293   2.083
 7445W        W79870  21.196   7.187   3.354
 7446W        W79871  26.963  30.339  11.098
 7447W        W79872  24.402   8.680   2.332
 7448W        W79873  25.067  40.224   3.610
 7449W        W79874  41.043  29.008   2.485
 7450W        W79875   2.687  15.288   0.842
 7451W        W79876  23.135  37.515  13.614
 7452W        W79877  19.128  26.173   0.522
 7453W        W79878  22.872  26.182  14.449
 7454W        W79879  12.400  25.803   1.211
 7455W        W79880  13.928   1.855  12.465
 7456W        W79881  31.174   3.722   4.595
 7457W        W79882  16.732  33.162  12.421
 7458W        W79883  12.153  16.848   0.507
 7459W        W79884  41.576   3.170  14.993
 7460W        W79885  28.743  16.660  14.754
 7461W        W79886   7.935  27.838  13.436
 7462W        W79887  23.645  16.233  14.530
 7463W        W79888  10.111  35.090   1.390
 7464W        W79889  21.639  38.831   4.042
 7465W        W79890   9.696  16.874  10.572
 7466W        W79891  19.442  33.510   1.823
 7467W        W79892  13.042  17.570   1.785
 7468W        W79893  23.084  44.776   4.738
 7469W        W79894  10.158  44.043  11.903
 7470W        W79895  31.865   1.519  13.526
 7471W        W79896  21.784  20.186   1.770
 7472W        W79897   9.218   2.522   1.250
 7473W        W79898  33.113  10.778  11.579
 7474W        W79899  41.377   0.975   2.070
 7475W        W79900  38.109  17.097   3.162
 7476W        W79901  11.816   7.114   1.853
 7477W        W79902  15.044  22.146   4.584
 7478W        W79903  13.943  14.275   4.145
 7479W        W79904  32.860  29.005  10.995
 7480W        W79905  37.030  23.633  12.103
 7481W        W79906  41.240  38.953  14.113
 7482W        W79907  21.711  44.085   2.800
 7483W        W79908  22.900  44.411  10.780
 7484W        W79909  28.648   4.301   4.609
 7485W        W79910  31.149  35.000  13.070
 7486W        W79911  40.799   4.366   3.455
 7487W        W79912  13.684  38.443  14.040
 7488W        W79913   8.092  37.049   0.484
 7489W        W79914  20.006  36.322   3.333
 7490W        W79915  28.396  13.997  14.315
 7491W        W79916  26.071  17.131   4.586
 7492W        W79917  27.985   4.819   4.666
 7493W        W79918  33.556  43.512  12.324
 7494W        W79919   4.139  32.456   2.368
 7495W        W79920  40.323  28.914   2.392
 7496W        W79921  19.795  34.956  12.433
 7497W        W79922  40.970  32.046  14.050
 7498W        W79923   7.364  12.617  14.925
 7499W        W79924  21.048  24.820   0.878
 7500W        W79925  25.041  32.599   3.251
 7501W        W79926  17.207  36.075   2.972
 7502W        W79927   5.929  25.245   0.390
 7503W        W79928  43.199  12.290   1.872
 7504W        W79929   1.026  22.211  14.981
 7505W        W79930  42.108   2.787   3.593
 7506W        W79931   4.953  12.320  11.063
 7507W        W79932  41.041  38.923  11.595
 7508W        W79933  36.479   1.967   0.035
 7509W        W79934  10.654  37.340  12.569
 7510W        W79935  20.538  35.134   3.323
 7511W        W79936  40.484   6.750  10.006
 7512W        W79937  29.553   1.446   1.553
 7513W        W79938  22.151  23.138  10.743
 7514W        W79939  42.206  21.990   1.412
 7515W        W79940  37.447   8.652  14.147
 7516W        W79941  11.633  42.425   0.766
 7517W        W79942  20.110  30.923   3.380
 7518W        W79943  33.428  32.071  13.502
 7519W        W79944  14.810  33.688   2.724
 7520W        W79945  10.339  12.017   1.207
 7521W        W79946  30.761  21.177  10.570
 7522W        W79947  34.372  23.448  12.180
 7523W        W79948  10.280  30.229   3.719
 7524W        W79949  34.947  42.493   0.437
 7525W        W79950  21.177  21.451   4.680
 7526W        W79951  16.311  15.105  14.539
 7527W        W79952  18.606   7.661   0.249
 7528W        W79953  22.879  20.901  10.544
 7529W        W79954   5.780   4.177  14.947
 7530W        W79955  11.360   3.843  13.555
 7531W        W79956  28.481  31.923  13.955
 7532W        W79957  25.309  27.754   2.579
 7533W        W79958  34.421  23.654  11.706
 7534W        W79959  42.233  44.922  11.475
 7535W        W79960   0.266  16.146   1.270
 7536W        W79961  30.065  13.099  14.990
 7537W        W79962  11.222  21.555  14.516
 7538W        W79963  27.613   5.705  13.804
 7539W        W79964  39.843  28.057  12.576
 7540W        W79965   1.199  28.467  13.514
 7541W        W79966  43.697  32.103  14.857
 7542W        W79967  16.125  18.957  10.321
 7543W        W79968   8.137  37.382   3.818
 7544W        W79969   6.865   1.630   1.398
 7545W        W79970   5.661  21.210   2.674
 7546W        W79971   6.413   4.086   3.855
 7547W        W79972  33.565   3.785   2.875
 7548W        W79973  25.982  32.222   0.293
 7549W        W79974  18.150   9.862  14.482
 7550W        W79975   1.272   9.623   0.432
 7551W        W79976  18.357  28.147  10.607
 7552W        W79977   5.769  18.706  12.892
 7553W        W79978  41.007  31.422   4.562
 7554W        W79979  23.655  43.427  12.026
 7555W        W79980  20.790  42.375  14.770
 7556W        W79981   5.227   6.603   3.999
 7557W        W79982  28.148   2.401  13.853
 7558W        W79983  22.345   9.858   9.750
 7559W        W79984  40.993  31.584   2.238
 7560W        W79985   7.860  11.512   1.673
 7561W        W79986  32.355  27.820  13.806
 7562W        W79987  41.945   1.918   4.580
 7563W        W79988  44.877   4.511  13.192
 7564W        W79989  18.561  34.993  13.028
 7565W        W79990   7.180  26.057  14.343
 7566W        W79991  16.533  30.034   2.523
 7567W        W79992  25.392   9.852   4.648
 7568W        W79993   4.884  37.998   0.240
 7569W        W79994  18.842  22.740  13.477
 7570W        W79995   8.466  25.204  14.709
 7571W        W79996  27.886  44.840   3.728
 7572W        W79997  37.897  17.089   0.519
 7573W        W79998  41.025  29.428   2.767
 7574W        W79999   9.257   9.381   3.155
 7575W        W80000  22.704  22.225  11.106
 7576W        W80001   2.930  31.694  14.334
 7577W        W80002   3.460  38.579  11.140
 7578W        W80003   8.256  24.493  13.520
 7579W        W80004  29.197  21.034  11.365
 7580W        W80005  36.961  44.966   0.377
 7581W        W80006  17.958  25.581   0.274
 7582W        W80007  29.631   2.104  12.364
 7583W        W80008  40.646  28.052  12.948
 7584W        W80009  37.750  16.180   1.273
 7585W        W80010  30.889  15.533  11.061
 7586W        W80011  27.298  32.460  11.128
 7587W        W80012  11.299  15.594  14.946
 7588W        W80013  13.537  20.081  13.526
 7589W        W80014  44.371  24.431  12.943
 7590W        W80015  11.737  28.094  11.945
 7591W        W80016  43.074  43.226  14.361
 7592W        W80017   6.384  29.607  11.566
 7593W        W80018   4.551  15.587   0.881
 7594W        W80019  14.561  44.465  12.551
 7595W        W80020   7.231   6.632  11.213
 7596W        W80021  22.322  35.891  10.674
 7597W        W80022   5.762  21.782  14.482
 7598W        W80023  13.167   9.579   0.843
 7599W        W80024  32.008   0.363   1.705
 7600W        W80025  10.398  25.886   1.675
 7601W        W80026  25.944  39.125   3.178
 7602W        W80027  15.349  27.126  14.732
 7603W        W80028  19.628  34.351   3.226
 7604W        W80029  28.065  15.551  14.571
 7605W        W80030  18.741  20.365   3.247
 7606W        W80031   1.500   7.667  14.596
 7607W        W80032  43.357  12.627   4.144
 7608W        W80033  34.685  24.574  11.131
 7609W        W80034  37.207  37.957  10.131
 7610W        W80035   3.520  44.525   2.722
 7611W        W80036  32.683  32.922   2.242
 7612W        W80037  10.349   2.588  11.818
 7613W        W80038  37.072  14.730   1.234
 7614W        W80039   6.397  25.427  11.385
 7615W        W80040   7.216   6.136  14.885
 7616W        W80041  31.791  19.265  14.084
 7617W        W80042  35.849  12.859   1.530
 7618W        W80043  29.683  39.383   2.909
 7619W        W80044  39.509  12.159  10.721
 7620W        W80045  40.554  43.946  13.521
 7621W        W80046  23.779  43.364   3.102
 7622W        W80047  20.475  40.627  14.393
 7623W        W80048   1.651  16.538  11.508
 7624W        W80049   0.329   3.569   1.431
 7625W        W80050  20.041  43.269   3.717
 7626W        W80051  21.555  13.598  14.893
 7627W        W80052   4.774  20.502   3.257
 7628W        W80053  42.895  16.140  10.563
 7629W        W80054  15.990  16.837  10.994
 7630W        W80055  28.437   1.276  14.995
 7631W        W80056  13.244  41.745   1.276
 7632W        W80057  43.495  39.147   2.712
 7633W        W80058  20.127   9.807  10.722
 7634W        W80059  35.064   6.333   4.951
 7635W        W80060  39.303  40.968  10.764
 7636W        W80061  13.602  11.600  12.538
 7637W        W80062  29.784  41.532  10.943
 7638W        W80063  29.386  22.463   2.961
 7639W        W80064  23.676  44.307   0.757
 7640W        W80065  19.130  25.107  12.447
 7641W        W80066   5.043  13.696  14.966
 7642W        W80067   2.414  43.454   1.724
 7643W        W80068  24.813  36.243   2.146
 7644W        W80069  37.363  37.005   4.608
 7645W        W80070  24.907  32.802   0.440
 7646W        W80071  18.667  16.089  11.246
 7647W        W80072  13.314  25.585  14.515
 7648W        W80073   0.100  44.694  12.311
 7649W        W80074   9.662  36.889  11.270
 7650W        W80075   1.878  40.513  13.422
 7651W        W80076  15.197  10.336  13.499
 7652W        W80077  38.780  25.158  10.637
 7653W        W80078   9.641  35.353   1.378
 7654W        W80079  34.257   9.473   3.054
 7655W        W80080  32.652  34.071   1.874
 7656W        W80081  35.646  16.245  12.950
 7657W        W80082   5.491  40.824   2.499
 7658W        W80083  10.738  23.085   5.000
 7659W        W80084  31.205  11.957  11.443
 7660W        W80085  27.553  35.990   1.742
 7661W        W80086   0.935  13.256  11.549
 7662W        W80087  38.618   1.281   3.769
 7663W        W80088   3.366  12.766  10.951
 7664W        W80089  28.150  41.238  14.432
 7665W        W80090  29.189  16.256  12.991
 7666W        W80091  35.859  37.416  10.606
 7667W        W80092  25.432  37.104  12.977
 7668W        W80093   2.741   2.270  11.741
 7669W        W80094  14.568  28.486  12.883
 7670W        W80095  18.013  28.645   1.553
 7671W        W80096  34.494  24.599   2.208
 7672W        W80097   2.836  19.236   0.059
 7673W        W80098  21.546  23.111   3.795
 7674W        W80099  14.308  21.599   1.387
 7675W        W80100  11.747  36.759   3.827
 7676W        W80101  28.017  25.616  10.274
 7677W        W80102  35.999  10.110  13.725
 7678W        W80103  26.285  10.333  13.868
 7679W        W80104   7.485  31.259   1.243
 7680W        W80105  40.031  24.955  11.066
 7681W        W80106  34.323  12.418   2.662
 7682W        W80107  17.873  21.574  13.519
 7683W        W80108  44.311  10.684   1.452
 7684W        W80109  11.382  44.490  14.838
 7685W        W80110  15.557  17.747  13.999
 7686W        W80111  19.382   2.072   2.827
 7687W        W80112  41.355   4.261   3.709
 7688W        W80113  12.166   9.714  11.966
 7689W        W80114  24.042   8.809   2.890
 7690W        W80115  15.211   8.725   2.508
 7691W        W80116   8.648   3.344  11.644
 7692W        W80117  27.933  11.263   4.255
 7693W        W80118  17.709  24.090   1.400
 7694W        W80119   7.153  13.062   4.579
 7695W        W80120  37.256  40.182  12.825
 7696W        W80121  17.764   0.043   0.755
 7697W        W80122   9.107   4.281  12.475
 7698W        W80123  12.821  36.494   1.262
 7699W        W80124  39.722   7.920   4.818
 7700W        W80125   0.932  17.695  10.689
 7701W        W80126  25.830   6.295   4.504
 7702W        W80127  34.654  31.004  14.852
 7703W        W80128  19.500  38.222  14.911
 7704W        W80129  27.396   5.899   2.788
 7705W        W80130  29.043  26.698   2.339
 7706W        W80131  33.905  16.142  11.194
 7707W        W80132  43.915  28.567   0.390
 7708W        W80133  15.682   8.203   3.281
 7709W        W80134  10.744  10.177   4.784
 7710W        W80135  41.850   0.657   3.492
 7711W        W80136   2.010  29.148   4.123
 7712W        W80137   6.948  41.322  12.977
 7713W        W80138  23.933  33.909   2.957
 7714W        W80139  20.096   5.702  12.990
 7715W        W80140  33.837  14.615  14.246
 7716W        W80141   6.489  38.013   0.684
 7717W        W80142  42.797  35.320   1.523
 7718W        W80143  17.360  12.583   3.156
 7719W        W80144  26.999   7.746   2.735
 7720W        W80145  42.507   9.768  14.461
 7721W        W80146   7.377  32.852  13.027
 7722W        W80147  26.802  43.990  14.889
 7723W        W80148  17.574  31.938  11.158
 7724W        W80149  26.131  29.277   1.804
 7725W        W80150  24.203  36.370  14.018
 7726W        W80151  25.018   7.716  11.202
 7727W        W80152  42.707  34.532  14.580
 7728W        W80153  44.895  29.438  13.867
 7729W        W80154  44.500   9.784   0.767
 7730W        W80155  12.668  10.408  13.992
 7731W        W80156  37.419   6.410  14.435
 7732W        W80157   7.457   1.659   0.173
 7733W        W80158  12.350  24.233   0.323
 7734W        W80159  16.799  20.680  13.818
 7735W        W80160  43.927  16.651   1.720
 7736W        W80161  18.042  29.660   3.376
 7737W        W80162  13.212   6.901  12.462
 7738W        W80163  23.265   5.321   4.634
 7739W        W80164  24.994  23.080   4.639
 7740W        W80165  24.809  20.146   3.652
 7741W        W80166  28.093   6.398  13.878
 7742W        W80167   9.104   6.202  12.469
 7743W        W80168  16.352  22.188   2.108
 7744W        W80169  32.444  29.140  10.691
 7745W        W80170  29.578  18.332  11.098
 7746W        W80171   4.489  30.949  10.722
 7747W        W80172  24.943  33.532   3.518
 7748W        W80173  41.728  36.191   3.973
 7749W        W80174  11.888  36.287   1.578
 7750W        W80175  41.139  22.406  13.251
 7751W        W80176   3.001  12.131   2.350
 7752W        W80177  31.546  44.107  12.163
 7753W        W80178  32.952  40.476  13.736
 7754W        W80179   7.228   5.605   2.844
 7755W        W80180   6.744  25.827  13.509
 7756W        W80181  18.397   7.701  10.451
 7757W        W80182  19.061  10.101   4.171
 7758W        W80183  22.691  42.142  12.606
 7759W        W80184  35.617  36.264   0.991
 7760W        W80185  38.375  30.981   3.426
 7761W        W80186  29.004  44.384   1.351
 7762W        W80187   4.620   3.317   3.667
 7763W        W80188  40.064   1.712   2.792
 7764W        W80189  25.149  12.846   5.017
 7765W        W80190  23.585  16.255  13.587
 7766W        W80191  20.750  25.585  13.843
 7767W        W80192  10.890  36.859   4.734
 7768W        W80193  37.861  22.993   0.409
 7769W        W80194  38.533  10.852   2.863
 7770W        W80195  15.483  41.630   4.452
 7771W        W80196  29.708   9.437   0.489
 7772W        W80197  26.208  14.274   1.749
 7773W        W80198  44.945  30.564  11.645
 7774W        W80199  16.745  13.181  10.965
 7775W        W80200  36.104  21.226  10.974
 7776W        W80201  29.240  22.249  14.416
 7777W        W80202   1.253  37.606   3.642
 7778W        W80203  37.157  17.113   2.254
 7779W        W80204   0.335   1.979   2.061
 7780W        W80205  13.361  32.410  12.367
 7781W        W80206   1.744  39.615   4.475
 7782W        W80207  42.301  11.181   4.213
 7783W        W80208  20.909  27.557   0.260
 7784W        W80209  38.106  42.086   0.486
 7785W        W80210  31.828  43.956   2.776
 7786W        W80211  11.874  42.049  13.617
 7787W        W80212  32.097  31.868  13.125
 7788W        W80213  33.502  18.910   2.820
 7789W        W80214  42.919  17.109  13.915
 7790W        W80215  39.527  31.029  13.453
 7791W        W80216   0.258  21.765   2.493
 7792W        W80217  34.960  30.086  11.836
 7793W        W80218  36.180  22.423  12.183
 7794W        W80219  17.486  26.129  14.796
 7795W        W80220   7.695   4.502  12.358
 7796W        W80221  40.402  12.259  13.023
 7797W        W80222  31.578  39.084   1.804
 7798W        W80223  34.597  27.079   0.931
 7799W        W80224  28.397  40.565  11.140
 7800W        W80225   3.352  14.283  10.497
 7801W        W80226  39.857  38.395  12.431
 7802W        W80227  22.372  18.654  13.651
 7803W        W80228  28.567  37.208   1.682
 7804W        W80229  41.599  16.053   4.577
 7805W        W80230  15.084   4.902  12.536
 7806W        W80231   7.723   2.542  13.908
 7807W        W80232  28.675  28.626  11.558
 7808W        W80233  13.291  10.273  10.604
 7809W        W80234  40.425  15.175  14.979
 7810W        W80235   9.350  34.992   2.783
 7811W        W80236  30.065  31.090   3.658
 7812W        W80237  26.959  36.749   2.387
 7813W        W80238  37.870  28.515   4.206
 7814W        W80239  44.921  19.998  13.859
 7815W        W80240  12.314   0.806  10.908
 7816W        W80241  18.403  30.015  14.055
 7817W        W80242  18.955  35.913   3.997
 7818W        W80243  22.565  20.315  12.872
 7819W        W80244  14.301  15.810  14.258
 7820W        W80245  19.552   8.698  11.109
 7821W        W80246  28.000  12.686   1.249
 7822W        W80247  19.051  29.840   4.493
 7823W        W80248  17.083  26.084   3.337
 7824W        W80249  44.966  16.591  13.913
 7825W        W80250   6.762  40.590  12.348
 7826W        W80251  11.861   4.871   4.140
 7827W        W80252  41.724   0.263   3.148
 7828W        W80253   6.639   7.691   3.754
 7829W        W80254   4.877  13.654  11.076
 7830W        W80255  35.678   7.003   9.684
 7831W        W80256   8.005  24.226   1.446
 7832W        W80257  39.624  40.604  12.923
 7833W        W80258  36.617  23.782   0.747
 7834W        W80259   3.287  22.052  13.319
 7835W        W80260   5.372  24.154  14.381
 7836W        W80261  15.628  25.072   2.906
 7837W        W80262   4.335   0.265   1.860
 7838W        W80263   0.266  14.149  11.166
 7839W        W80264  43.856  20.863  14.443
 7840W        W80265  33.587   2.658   1.412
 7841W        W80266   7.218  26.475  13.985
 7842W        W80267  33.968   6.492  13.634
 7843W        W80268  26.001  29.667  10.634
 7844W        W80269  17.858  10.290  12.057
 7845W        W80270  37.990   2.901   0.472
 7846W        W80271  19.376   8.666   4.545
 7847W        W80272  31.812  35.470   3.989
 7848W        W80273  10.823  15.110   4.589
 7849W        W80274  16.569  13.874   0.882
 7850W        W80275  18.707  28.985   0.343
 7851W        W80276   0.473  41.032   2.357
 7852W        W80277   7.214  12.620  14.004
 7853W        W80278  10.552   5.040  13.886
 7854W        W80279   4.368   1.734   3.840
 7855W        W80280   2.614  15.116  11.814
 7856W        W80281  12.792  18.622  12.615
 7857W        W80282  30.955  17.053  11.985
 7858W        W80283  36.472  35.695   1.016
 7859W        W80284  28.787  24.836  13.368
 7860W        W80285  23.383  33.631  12.482
 7861W        W80286  30.453  43.205  14.340
 7862W        W80287  27.093  37.645  14.750
 7863W        W80288  34.132  36.859  11.892
 7864W        W80289  41.003  41.230   1.776
 7865W        W80290  41.431  33.844   0.009
 7866W        W80291  39.920  20.552   2.184
 7867W        W80292  13.280  43.347   4.793
 7868W        W80293  18.641  29.531   4.648
 7869W        W80294  28.522   1.056  14.476
 7870W        W80295  41.220  39.041  14.778
 7871W        W80296   9.426  17.002   2.336
 7872W        W80297  12.886  14.632   0.305
 7873W        W80298  43.445  42.498  14.344
 7874W        W80299  13.939  19.350  14.374
 7875W        W80300  38.174  43.313  14.392
 7876W        W80301   0.384   1.470   1.937
 7877W        W80302  16.002  43.984   1.708
 7878W        W80303  25.469  22.392  11.172
 7879W        W80304  22.811  34.629  14.343
 7880W        W80305   1.014  24.622   3.655
 7881W        W80306  18.202  35.126   4.596
 7882W        W80307  17.613  17.135  11.882
 7883W        W80308  10.883   1.395  10.629
 7884W        W80309   9.719  32.758  11.834
 7885W        W80310  13.318  36.066  10.634
 7886W        W80311  15.249  35.999   1.913
 7887W        W80312  25.676  33.204   1.400
 7888W        W80313  19.105   2.335   4.697
 7889W        W80314  36.371  28.997  10.930
 7890W        W80315   2.987  21.101   0.570
 7891W        W80316  29.589  21.714  11.944
 7892W        W80317  28.234  11.538   3.027
 7893W        W80318  32.548   9.637   2.332
 7894W        W80319  20.558  10.350   4.942
 7895W        W80320  20.904  44.223  13.432
 7896W        W80321  32.192  28.220   2.360
 7897W        W80322  30.908  21.226   3.979
 7898W        W80323  17.256  43.976   1.211
 7899W        W80324   7.695  16.139  11.053
 7900W        W80325  23.678   6.287   4.491
 7901W        W80326  34.047   7.273   0.809
 7902W        W80327  17.037  13.361  12.665
 7903W        W80328   4.290  34.489  12.046
 7904W        W80329  40.550  38.373   2.444
 7905W        W80330  26.109  17.095   2.774
 7906W        W80331   5.226   0.257   1.895
 7907W        W80332   3.975  18.581   0.196
 7908W        W80333  31.021  24.475  13.520
 7909W        W80334  41.551  19.438   9.743
 7910W        W80335  41.895  21.458   4.116
 7911W        W80336   9.888  39.582   0.783
 7912W        W80337  16.285  36.989  14.825
 7913W        W80338  33.616   0.273  11.569
 7914W        W80339   4.370  35.178  13.514
 7915W        W80340  33.982  14.402  11.979
 7916W        W80341  31.631   1.422  13.979
 7917W        W80342  33.891  43.349   1.836
 7918W        W80343  24.118  36.605   1.224
 7919W        W80344  39.426  23.714   1.362
 7920W        W80345   3.291  21.670  11.557
 7921W        W80346  25.205  39.454   1.813
 7922W        W80347  24.111  28.919   0.898
 7923W        W80348  15.013  32.470  13.917
 7924W        W80349   3.230  30.440  11.221
 7925W        W80350  44.869  13.248   1.645
 7926W        W80351   8.347  22.890  12.949
 7927W        W80352  43.769   3.963   2.750
 7928W        W80353  33.440   5.882  12.061
 7929W        W80354   2.978  25.567   3.820
 7930W        W80355  36.895  44.838  13.846
 7931W        W80356  35.378  42.934  14.421
 7932W        W80357  23.615  44.492  11.917
 7933W        W80358  25.082   2.031   3.643
 7934W        W80359   0.444  25.982   1.463
 7935W        W80360  20.520  12.856  12.104
 7936W        W80361  39.638  36.415   2.203
 7937W        W80362  25.017  31.288  10.619
 7938W        W80363  27.474   4.501   3.148
 7939W        W80364  11.100  13.234   0.849
 7940W        W80365  24.747   2.217   2.802
 7941W        W80366   0.757   2.775  10.453
 7942W        W80367   2.026  39.036   3.675
 7943W        W80368  12.596  17.234  14.371
 7944W        W80369  40.764  17.305   4.088
 7945W        W80370  30.096  40.467   1.771
 7946W        W80371   1.715  32.980  12.484
 7947W        W80372  42.936   6.270   2.277
 7948W        W80373  31.000  29.366  11.905
 7949W        W80374  38.449  44.826  14.418
 7950W        W80375  22.461  39.937   1.474
 7951W        W80376  13.766  13.599  14.350
 7952W        W80377  42.156   8.251  12.565
 7953W        W80378   3.299   6.104   5.152
 7954W        W80379  10.608  44.309   2.329
 7955W        W80380  15.010  13.960  11.020
 7956W        W80381   0.310   8.885   0.806
 7957W        W80382  31.822  18.365   3.155
 7958W        W80383  14.867   5.763  11.688
 7959W        W80384  44.305   8.398  14.968
 7960W        W80385  43.979  22.055   3.083
 7961W        W80386  23.134  40.252  11.624
 7962W        W80387  10.265  36.370  14.838
 7963W        W80388  18.433  20.422  13.037
 7964W        W80389  28.052  19.816  10.688
 7965W        W80390  38.403  25.202   1.313
 7966W        W80391   4.673  43.523   4.483
 7967W        W80392  15.148   3.800  14.041
 7968W        W80393  38.671   2.935  14.822
 7969W        W80394  39.956   2.659   4.166
 7970W        W80395  35.589  34.446   4.775
 7971W        W80396  17.553  38.588   2.754
 7972W        W80397  43.453   9.144  11.456
 7973W        W80398  28.409  30.443  12.633
 7974W        W80399  31.842  12.227   0.261
 7975W        W80400  20.799   4.802   1.810
 7976W        W80401  25.392  15.823  12.635
 7977W        W80402   7.761   9.293   4.796
 7978W        W80403   8.347  29.885  13.939
 7979W        W80404   6.259   4.147  12.278
 7980W        W80405  10.824  32.602  11.868
 7981W        W80406   2.694  11.649   4.141
 7982W        W80407  21.717  25.082   3.216
 7983W        W80408  34.149  38.935   2.213
 7984W        W80409  41.579  20.155  12.422
 7985W        W80410  23.707  11.204  12.767
 7986W        W80411  12.721  14.653  14.813
 7987W        W80412  18.730   5.865   3.396
 7988W        W80413  24.235  28.119   2.426
 7989W        W80414  28.560   5.838   4.398
 7990W        W80415  37.834  29.512  14.045
 7991W        W80416  40.569   6.700   3.830
 7992W        W80417  39.699  14.415  14.861
 7993W        W80418  15.012  26.954  12.442
 7994W        W80419  28.607  15.618  14.825
 7995W        W80420  32.037  18.342   1.552
 7996W        W80421  29.705  32.563   2.010
 7997W        W80422  40.000  40.126   4.873
 7998W        W80423  37.015  43.154   0.887
 7999W        W80424  31.906  41.023   2.339
 8000W        W80425  26.621  41.251  10.718
 8001W        W80426   4.968  34.181   3.157
 8002W        W80427  19.883  37.541  11.230
 8003W        W80428   7.245  31.438   1.928
 8004W        W80429   4.443   2.805   4.633
 8005W        W80430  26.237  13.067   0.400
 8006W        W80431  19.505  31.413   4.227
 8007W        W80432  31.609   1.995   0.727
 8008W        W80433   7.460  17.266   4.483
 8009W        W80434  28.770  40.082  13.286
 8010W        W80435  21.976  10.188   3.297
 8011W        W80436  29.579  16.538  14.514
 8012W        W80437  39.096  17.589   0.401
 8013W        W80438   2.398  15.373   4.154
 8014W        W80439   0.162  22.101  11.544
 8015W        W80440  22.471  22.734   0.480
 8016W        W80441  11.249  26.194  14.775
 8017W        W80442  28.613  35.601  12.120
 8018W        W80443  30.990  42.824   4.715
 8019W        W80444   6.809  14.212   2.673
 8020W        W80445  33.111  43.272   4.520
 8021W        W80446   3.915  39.970  12.954
 8022W        W80447  31.971   9.781   3.123
 8023W        W80448  39.173  14.597   1.736
 8024W        W80449  14.514   4.487  11.952
 8025W        W80450  43.678  32.322   4.136
 8026W        W80451  18.699  24.472  10.738
 8027W        W80452  32.522   6.761  12.251
 8028W        W80453   6.724  19.023  14.221
 8029W        W80454  14.796  12.850  13.050
 8030W        W80455  32.550  24.502   1.689
 8031W        W80456  14.576  20.984  13.447
 8032W        W80457  12.550  25.237  11.331
 8033W        W80458  36.864   8.733  10.177
 8034W        W80459  27.731   3.945  13.162
 8035W        W80460   0.909  22.442   4.454
 8036W        W80461  27.123   0.188  14.175
 8037W        W80462   5.372   0.956   0.633
 8038W        W80463  11.721  15.327  14.773
 8039W        W80464  33.559  27.932   3.207
 8040W        W80465  21.808   9.794   9.771
 8041W        W80466  13.328  29.749   1.406
 8042W        W80467  24.555  17.785   2.000
 8043W        W80468  34.412   5.733  12.120
 8044W        W80469  26.649  14.539   1.884
 8045W        W80470  32.985  27.565   1.897
 8046W        W80471  16.577  19.277  12.965
 8047W        W80472   3.315  43.922   3.761
 8048W        W80473  20.477  29.693   3.212
 8049W        W80474  32.063  44.861  13.076
 8050W        W80475  22.340  12.202  14.324
 8051W        W80476  35.987  33.484  13.971
 8052W        W80477  22.613   5.783   2.389
 8053W        W80478  42.339  29.578   2.436
 8054W        W80479  21.457   2.880  12.969
 8055W        W80480  24.615  20.966   0.831
 8056W        W80481  17.523  32.606  11.513
 8057W        W80482  34.467   1.212   0.212
 8058W        W80483  25.880  17.316   4.152
 8059W        W80484  24.701   4.317   3.616
 8060W        W80485  13.830   4.448   3.871
 8061W        W80486  12.841  28.232  14.929
 8062W        W80487  42.755  33.454   4.896
 8063W        W80488   2.036   9.699   1.176
 8064W        W80489   0.846   9.029   5.007
 8065W        W80490  20.758   4.507   2.755
 8066W        W80491  39.330   6.828  11.883
 8067W        W80492  19.986  25.694   2.257
 8068W        W80493  32.844  23.058   3.962
 8069W        W80494  41.519  31.582   3.644
 8070W        W80495  18.725  39.268   2.900
 8071W        W80496  10.213  25.552   0.426
 8072W        W80497   8.464   9.375   4.679
 8073W        W80498  27.786  17.720   3.293
 8074W        W80499  31.948  30.168   1.384
 8075W        W80500   4.290  26.488   1.672
 8076W        W80501  43.802  22.664  11.390
 8077W        W80502   9.936  42.346   3.617
 8078W        W80503  43.924  26.917   0.886
 8079W        W80504  24.009  13.173  14.510
 8080W        W80505  36.863  16.724  12.007
 8081W        W80506  44.687  36.449   3.652
 8082W        W80507  30.489  14.754  11.657
 8083W        W80508  38.769  38.720  14.995
 8084W        W80509  15.690  14.965   2.070
 8085W        W80510  39.826  35.539  14.361
 8086W        W80511  41.530  37.005   2.860
 8087W        W80512  12.994  43.705  13.593
 8088W        W80513   4.679  10.422  14.689
 8089W        W80514  37.002  38.789   4.380
 8090W        W80515  13.003  40.856   3.635
 8091W        W80516  17.528  10.889  12.892
 8092W        W80517   2.785  20.027   2.156
 8093W        W80518  42.908  40.283   3.106
 8094W        W80519  35.506  42.155  12.139
 8095W        W80520  23.021  37.848  12.798
 8096W        W80521  38.267  44.145  14.374
 8097W        W80522   7.885  31.054  11.871
 8098W        W80523  44.307  21.000   4.997
 8099W        W80524  44.478  32.498   0.940
 8100W        W80525  23.437   6.281   3.470
 8101W        W80526  28.608  19.063   0.385
 8102W        W80527  40.834  21.166   2.391
 8103W        W80528   7.168   9.165   1.700
 8104W        W80529  18.669   7.637   4.752
 8105W        W80530  43.236  35.122   2.415
 8106W        W80531  14.858   8.443  13.477
 8107W        W80532  13.556  12.569  14.839
 8108W        W80533  32.984  44.424   3.868
 8109W        W80534  10.362  21.165   2.460
 8110W        W80535  20.889  41.373   3.347
 8111W        W80536   8.193  37.180  14.998
 8112W        W80537  40.865   2.240   0.593
 8113W        W80538  13.678  16.258  11.736
 8114W        W80539  14.626  33.917   4.855
 8115W        W80540   8.890  20.747  13.540
 8116W        W80541  40.375  14.173  12.595
 8117W        W80542  30.447  19.815   4.077
 8118W        W80543   1.991   3.352   2.405
 8119W        W80544  22.627  37.114   0.723
 8120W        W80545   4.224  17.976  10.837
 8121W        W80546  17.328  15.810  11.972
 8122W        W80547  42.128  24.187   0.012
 8123W        W80548  34.358  23.944  14.440
 8124W        W80549   4.359  27.104   1.945
 8125W        W80550  32.387  16.223  13.447
 8126W        W80551  29.141  31.543   2.077
 8127W        W80552  24.566  14.240  12.629
 8128W        W80553  21.268  16.596  12.519
 8129W        W80554  12.421  43.378  10.447
 8130W        W80555   8.415   3.697  12.152
 8131W        W80556  16.356   5.343  11.847
 8132W        W80557  27.624  40.756  12.324
 8133W        W80558  41.109  39.491  12.064
 8134W        W80559  37.389  21.935  11.082
 8135W        W80560   4.995  22.975  11.579
 8136W        W80561   2.323  21.115  12.938
 8137W        W80562   5.837  42.956   2.670
 8138W        W80563   1.416  13.565  13.983
 8139W        W80564   6.482  26.645   9.975
 8140W        W80565  38.429  28.615   4.124
 8141W        W80566  32.029  23.753   4.019
 8142W        W80567  38.575  10.777   3.786
 8143W        W80568  32.880  12.604   0.982
 8144W        W80569   1.938  39.238   1.257
 8145W        W80570   5.322  19.143  10.740
 8146W        W80571   0.991  17.744  12.041
 8147W        W80572  38.784  13.658  10.590
 8148W        W80573   0.652  30.907  11.423
 8149W        W80574  33.718  15.125  13.343
 8150W        W80575  36.165  39.444   4.614
 8151W        W80576  13.280  18.197  14.195
 8152W        W80577  33.361  34.928   2.109
 8153W        W80578  28.204  13.047   4.986
 8154W        W80579  36.669  37.293  14.959
 8155W        W80580  20.496  15.799   1.620
 8156W        W80581  18.252  44.250   0.389
 8157W        W80582  30.339  44.338  12.022
 8158W        W80583   7.473  39.222  13.886
 8159W        W80584  24.420   2.553   3.659
 8160W        W80585  21.069  18.126   2.695
 8161W        W80586  23.626  25.973  12.844
 8162W        W80587  35.513  38.593   2.334
 8163W        W80588  22.977   5.645  12.390
 8164W        W80589  28.176  23.918  11.905
 8165W        W80590  26.767  36.397   1.180
 8166W        W80591   1.524  44.779   3.437
 8167W        W80592  37.301  29.451  11.025
 8168W        W80593  28.703  34.674   2.099
 8169W        W80594  25.936   0.295  13.330
 8170W        W80595  32.089  22.105   2.437
 8171W        W80596   4.624  41.557  13.226
 8172W        W80597  15.655  18.860   2.448
 8173W        W80598  18.100   5.473  12.795
 8174W        W80599  23.453  13.566   1.419
 8175W        W80600  19.609  43.768   1.319
 8176W        W80601  36.942  35.811  11.505
 8177W        W80602  26.885   2.861  11.148
 8178W        W80603  41.940  27.527   3.745
 8179W        W80604  34.586   0.790  11.255
 8180W        W80605  29.890  34.480  10.555
 8181W        W80606   7.212  40.313   3.815
 8182W        W80607  28.150   4.670  12.999
 8183W        W80608  39.827  18.673   3.245
 8184W        W80609  27.107  38.427   0.914
 8185W        W80610  11.684   5.972   0.967
 8186W        W80611  26.687  12.665   1.849
 8187W        W80612  44.901  30.674  13.385
 8188W        W80613  19.791  35.069  11.456
 8189W        W80614  30.213  15.832  12.122
 8190W        W80615  36.522  34.264   4.349
 8191W        W80616  16.265  31.302   2.923
 8192W        W80617  37.299  29.462  14.235
 8193W        W80618   7.816  10.454   1.462
 8194W        W80619  12.644  25.961  10.850
 8195W        W80620  29.915   8.223  13.595
 8196W        W80621  37.182   4.574  13.309
 8197W        W80622  39.290  35.501  12.116
 8198W        W80623   4.584  23.129  10.680
 8199W        W80624  16.156  19.767  12.500
 8200W        W80625   9.368  20.490   0.037
 8201W        W80626  22.458  18.251  11.912
 8202W        W80627  12.095  38.534   3.070
 8203W        W80628  20.985   7.533   1.420
 8204W        W80629  31.276  43.068  13.423
 8205W        W80630   2.169  19.795   0.502
 8206W        W80631  32.541  32.540   3.146
 8207W        W80632  31.610   5.235  14.781
 8208W        W80633  43.288  13.536   4.569
 8209W        W80634   2.017  33.997  10.844
 8210W        W80635  20.377   7.195   0.379
 8211W        W80636  12.399   4.096   9.667
 8212W        W80637  13.350   6.098  14.211
 8213W        W80638   2.724  29.055  10.671
 8214W        W80639  17.813  23.263   4.856
 8215W        W80640  42.412  43.277   2.709
 8216W        W80641  36.865  24.720   1.744
 8217W        W80642  17.160  36.372   0.381
 8218W        W80643  30.670   7.546   0.394
 8219W        W80644  24.592  10.671  12.015
 8220W        W80645  39.704  43.402  12.606
 8221W        W80646   3.910   5.980  12.844
 8222W        W80647  16.776   9.671  14.542
 8223W        W80648  40.366  33.111  12.925
 8224W        W80649  17.918  44.885   2.177
 8225W        W80650  17.159  33.377   1.228
 8226W        W80651   0.666  33.492  11.219
 8227W        W80652  10.159  39.981   0.432
 8228W        W80653  27.606   5.150  10.973
 8229W        W80654  32.587  20.484   0.867
 8230W        W80655  43.622  18.515  11.996
 8231W        W80656  13.008  41.463  13.929
 8232W        W80657  13.442  16.437  13.428
 8233W        W80658  19.562  12.772  11.190
 8234W        W80659  40.126  22.715   4.075
 8235W        W80660  35.886  15.324  10.621
 8236W        W80661  14.510  33.786   4.366
 8237W        W80662  21.453  18.226   1.753
 8238W        W80663  11.646  17.145  14.311
 8239W        W80664  17.666   1.377  13.939
 8240W        W80665   1.487  39.698  11.331
 8241W        W80666  40.866  11.053  12.565
 8242W        W80667  10.172  43.454  13.116
 8243W        W80668  12.761  43.328   3.361
 8244W        W80669  41.130   1.475   3.327
 8245W        W80670   4.964  20.045   1.015
 8246W        W80671  12.091  20.979  13.951
 8247W        W80672  29.587  31.866   3.729
 8248W        W80673  31.487  30.570   0.430
 8249W        W80674  23.946  11.076   2.870
 8250W        W80675   4.704  24.637  13.052
 8251W        W80676  28.392  44.906  14.195
 8252W        W80677   7.291  22.388  10.628
 8253W        W80678  40.269  41.432   3.710
 8254W        W80679   0.383  33.326   1.455
 8255W        W80680  41.305  34.497   0.775
 8256W        W80681   5.447  23.064   2.853
 8257W        W80682  31.844  21.765  14.550
 8258W        W80683  42.928  28.611  14.476
 8259W        W80684  33.403  35.598   0.926
 8260W        W80685  42.896  30.645   4.623
 8261W        W80686  25.723  41.330   4.093
 8262W        W80687   1.561  27.136  11.118
 8263W        W80688  22.788   4.903  13.015
 8264W        W80689  10.865  28.967   4.647
 8265W        W80690   6.638  32.095  13.770
 8266W        W80691  23.487  43.005   1.323
 8267W        W80692  17.507  10.253  14.958
 8268W        W80693  44.506  27.959   2.686
 8269W        W80694  28.429   9.406  14.974
 8270W        W80695   3.441   5.353   1.985
 8271W        W80696  43.235  11.162   1.601
 8272W        W80697  28.556   8.250   3.698
 8273W        W80698  20.693   6.881  14.027
 8274W        W80699  35.646   1.046   1.324
 8275W        W80700  23.464   9.796   3.757
 8276W        W80701  44.367  19.252  14.050
 8277W        W80702  42.006  28.261  10.426
 8278W        W80703  21.053  28.660   3.283
 8279W        W80704  39.644  44.335   2.794
 8280W        W80705   3.341  28.107   0.859
 8281W        W80706  12.383   1.966  14.974
 8282W        W80707  36.815   1.923  12.826
 8283W        W80708  20.202   4.428  14.919
 8284W        W80709  27.429  43.306   0.909
 8285W        W80710  27.675  32.685   4.408
 8286W        W80711  38.055   4.300  10.916
 8287W        W80712  33.554  23.220  11.909
 8288W        W80713  17.147  38.925   3.661
 8289W        W80714  13.346  32.605  14.811
 8290W        W80715  37.059  13.265  11.514
 8291W        W80716  29.072  44.949  12.439
 8292W        W80717  23.708   6.872  14.091
 8293W        W80718  31.921  38.167   1.689
 8294W        W80719  33.913  38.616   0.258
 8295W        W80720  32.933   4.817  10.696
 8296W        W80721  29.965  33.001   4.115
 8297W        W80722   5.909  23.281  14.339
 8298W        W80723  29.475  14.757   1.440
 8299W        W80724  32.098  19.242   0.945
 8300W        W80725  44.286  26.212   2.196
 8301W        W80726  34.829  31.038   1.303
 8302W        W80727  20.059   9.825   4.855
 8303W        W80728   2.287  34.516   4.839
 8304W        W80729  15.885  31.162   0.195
 8305W        W80730  37.799  38.002  14.287
 8306W        W80731   9.377   7.405  11.605
 8307W        W80732  22.154  28.667   2.371
 8308W        W80733  19.258  32.511   4.143
 8309W        W80734   7.751  27.153   2.393
 8310W        W80735   3.787  23.699   2.410
 8311W        W80736   6.819   6.712   3.244
 8312W        W80737  42.872  15.248   3.651
 8313W        W80738  31.088  24.763  14.011
 8314W        W80739  14.544   4.032  14.809
 8315W        W80740  18.592   4.602   1.368
 8316W        W80741  29.603  43.672   1.311
 8317W        W80742  40.361   8.932  10.600
 8318W        W80743   7.963  41.835   4.064
 8319W        W80744  26.096  21.149  13.353
 8320W        W80745   6.520   6.183   2.216
 8321W        W80746  35.460  28.173   1.453
 8322W        W80747   6.806  22.275  13.479
 8323W        W80748  31.563  31.703   1.430
 8324W        W80749  15.248  25.633   4.148
 8325W        W80750  10.211   7.191   3.686
 8326W        W80751  25.587  20.989  13.306
 8327W        W80752  36.694  20.082  11.192
 8328W        W80753  22.484  39.317  12.207
 8329W        W80754  42.222   0.357  11.155
 8330W        W80755  44.558  24.127   0.913
 8331W        W80756  42.478   0.248   2.712
 8332W        W80757  13.096   0.617  14.843
 8333W        W80758   5.767   7.686  13.865
 8334W        W80759  15.075   9.697   0.323
 8335W        W80760  23.149  36.953   3.711
 8336W        W80761  41.690  29.622   3.526
 8337W        W80762  24.894  22.691   0.772
 8338W        W80763  31.494  44.818  14.484
 8339W        W80764  30.252   3.667   2.847
 8340W        W80765  14.183  13.614  12.623
 8341W        W80766   2.821  22.994   0.052
 8342W        W80767  44.548  23.682   1.837
 8343W        W80768  20.622  11.611  10.622
 8344W        W80769   1.108  21.548  12.932
 8345W        W80770  38.961  36.950   2.122
 8346W        W80771  25.238  33.306  11.945
 8347W        W80772  36.835  30.494   2.189
 8348W        W80773  24.641   0.421   1.885
 8349W        W80774  14.707  18.770   1.336
 8350W        W80775   1.410  24.606   4.685
 8351W        W80776  23.849  40.836  13.038
 8352W        W80777   1.368  35.931  12.841
 8353W        W80778  40.824  33.522   2.749
 8354W        W80779  11.595  39.098   1.421
 8355W        W80780   0.553   2.272  10.475
 8356W        W80781  21.262  28.395   0.889
 8357W        W80782  23.099   1.464   3.264
 8358W        W80783  43.003   7.918  13.436
 8359W        W80784  33.688  29.900  14.494
 8360W        W80785  40.438  41.919   2.243
 8361W        W80786   6.511  23.727   0.060
 8362W        W80787  10.122  19.835  11.211
 8363W        W80788  13.598  14.114  14.958
 8364W        W80789  30.755  25.932  14.802
 8365W        W80790  21.796  11.631   5.649
 8366W        W80791  11.099  26.150   0.262
 8367W        W80792  42.493  12.677   2.354
 8368W        W80793  36.621   4.024   2.209
 8369W        W80794   5.254  23.657   1.464
 8370W        W80795  35.981   6.180   4.720
 8371W        W80796  16.466  38.349   3.728
 8372W        W80797  40.458  25.968   4.740
 8373W        W80798   6.164  31.483   4.688
 8374W        W80799  34.896  24.900   2.364
 8375W        W80800   7.243  26.713   1.814
 8376W        W80801   3.589  14.138  14.118
 8377W        W80802   7.264  36.877   0.108
 8378W        W80803  26.940  41.342  11.165
 8379W        W80804  39.902  19.613   4.425
 8380W        W80805  43.688  30.063  13.751
 8381W        W80806  44.435  26.302   3.562
 8382W        W80807  21.574  23.486   2.532
 8383W        W80808   0.547  18.827  14.385
 8384W        W80809  43.013  44.491  11.084
 8385W        W80810   3.487  32.992  13.477
 8386W        W80811  38.185  18.818  14.858
 8387W        W80812   0.942  12.801   1.146
 8388W        W80813  28.495  16.908  12.057
 8389W        W80814  39.437  38.309  12.087
 8390W        W80815  42.506   3.147   1.220
 8391W        W80816  33.187   4.390  10.584
 8392W        W80817  19.874  12.725  13.929
 8393W        W80818  16.106  34.337   2.144
 8394W        W80819  37.588  43.818  11.014
 8395W        W80820  41.159  41.247  14.853
 8396W        W80821   2.000   7.942   1.653
 8397W        W80822  27.840  24.003  12.903
 8398W        W80823   0.557  31.502   1.880
 8399W        W80824  21.888  32.715  12.867
 8400W        W80825   7.374   6.578   4.034
 8401W        W80826  10.582  31.488  10.118
 8402W        W80827  16.523  12.641  13.317
 8403W        W80828  16.159  27.148   0.273
 8404W        W80829  39.153  35.168  10.222
 8405W        W80830  43.373  37.353   3.856
 8406W        W80831   3.907  26.416   4.006
 8407W        W80832  25.278   0.519   3.650
 8408W        W80833  16.303  19.303  14.307
 8409W        W80834  33.334  32.843   0.992
 8410W        W80835  28.868  29.913   4.672
 8411W        W80836  35.650   4.132  12.558
 8412W        W80837  33.472  22.749  14.323
 8413W        W80838  28.753  38.361   2.333
 8414W        W80839  39.448   0.191   2.156
 8415W        W80840   6.384  40.541  13.332
 8416W        W80841  19.649   6.387   2.649
 8417W        W80842  30.856  14.844   0.837
 8418W        W80843   2.019  25.925  10.681
 8419W        W80844  28.207   8.958   1.466
 8420W        W80845  15.783  27.729   4.653
 8421W        W80846  30.801   1.392  14.815
 8422W        W80847  36.906   1.286  13.421
 8423W        W80848  39.907  36.089   3.752
 8424W        W80849  34.916  41.234  12.998
 8425W        W80850   3.839  17.589   0.780
 8426W        W80851  11.618  44.303   0.321
 8427W        W80852  42.696  31.998   5.093
 8428W        W80853  38.933   4.265  11.191
 8429W        W80854  13.275  33.437  11.667
 8430W        W80855  39.351  26.352   3.762
 8431W        W80856   4.581  19.186  11.478
 8432W        W80857  38.023  37.613  11.114
 8433W        W80858  40.426   2.710   0.654
 8434W        W80859   1.448  24.946   2.351
 8435W        W80860  37.509  31.601   2.760
 8436W        W80861  25.705  20.370  13.949
 8437W        W80862  15.498  21.227  10.102
 8438W        W80863  12.159  35.301  13.053
 8439W        W80864  12.338  21.563  13.121
 8440W        W80865  13.835   0.679   2.218
 8441W        W80866   4.827  41.017   3.755
 8442W        W80867  13.268  20.616  13.614
 8443W        W80868  18.288  35.003  12.549
 8444W        W80869  29.109  41.860  10.530
 8445W        W80870  13.041  31.050  11.685
 8446W        W80871  18.282   0.501   3.782
 8447W        W80872  18.691  14.994  13.967
 8448W        W80873   5.267   4.213   1.475
 8449W        W80874  22.012  25.591   2.316
 8450W        W80875  39.356  31.320  13.974
 8451W        W80876  33.209  41.692   3.539
 8452W        W80877  17.629   7.361  12.535
 8453W        W80878  21.003  11.443  14.789
 8454W        W80879  14.048   0.832  11.808
 8455W        W80880  28.751  39.006   1.871
 8456W        W80881  11.877  32.361  14.849
 8457W        W80882  41.311  12.301   3.638
 8458W        W80883  28.904  20.556  12.899
 8459W        W80884  33.924  14.344  13.815
 8460W        W80885  20.800  26.162   4.278
 8461W        W80886  32.714  26.613   3.294
 8462W        W80887  39.457   6.103   1.186
 8463W        W80888  20.798  22.721   4.123
 8464W        W80889  17.591  15.724   4.024
 8465W        W80890  26.696  21.420  14.776
 8466W        W80891  19.238   6.210   2.382
 8467W        W80892  31.618  20.768  14.374
 8468W        W80893  31.610   8.432   1.667
 8469W        W80894  18.364  34.846   0.422
 8470W        W80895  42.143  16.669   4.318
 8471W        W80896  10.942  20.093   1.614
 8472W        W80897   8.494  24.592   4.120
 8473W        W80898  22.216  25.646  14.174
 8474W        W80899  15.522  25.528   2.682
 8475W        W80900  25.234  37.595  12.851
 8476W        W80901  25.115  10.745  13.298
 8477W        W80902  40.002  43.871   3.296
 8478W        W80903  36.372  11.512   2.341
 8479W        W80904  10.018  20.784   2.257
 8480W        W80905  32.369  21.500   0.791
 8481W        W80906  26.492   8.308  11.929
 8482W        W80907  40.309   9.126   2.775
 8483W        W80908  20.662   6.825   4.305
 8484W        W80909  37.963  41.238  12.429
 8485W        W80910  12.275  40.360  10.828
 8486W        W80911  19.595   1.605   2.887
 8487W        W80912  18.210  20.057  14.862
 8488W        W80913   2.242  25.496  12.414
 8489W        W80914   3.550  41.212  12.092
 8490W        W80915  12.263  21.885  13.594
 8491W        W80916  40.301   9.022   4.076
 8492W        W80917  37.609  31.941  10.743
 8493W        W80918  19.213   7.298  10.713
 8494W        W80919  23.183   7.924   1.914
 8495W        W80920  17.083   2.969   0.842
 8496W        W80921  13.805  20.970   1.711
 8497W        W80922   5.823   2.340  12.539
 8498W        W80923  15.443  20.703   0.872
 8499W        W80924  14.306  37.526  14.984
 8500W        W80925  12.169  13.868   3.049
 8501W        W80926  22.012  42.441  13.919
 8502W        W80927   8.984  14.398  13.358
 8503W        W80928   6.719  31.887  11.468
 8504W        W80929  23.711   0.819   0.803
 8505W        W80930  21.854  10.202  10.245
 8506W        W80931  20.614  37.000  13.823
 8507W        W80932  38.807  16.076   1.297
 8508W        W80933   5.175   0.381   2.404
 8509W        W80934  31.090  35.784  10.641
 8510W        W80935   6.840  38.404   3.704
 8511W        W80936   1.171  22.055  11.833
 8512W        W80937   1.379  42.627   3.617
 8513W        W80938  43.294  26.023   0.030
 8514W        W80939  35.987  14.426   3.231
 8515W        W80940   1.918  33.322   4.941
 8516W        W80941  22.144  15.098  11.798
 8517W        W80942  37.369  28.505   0.354
 8518W        W80943  28.595  29.083  12.426
 8519W        W80944  27.204  10.858   4.028
 8520W        W80945  32.082   3.062  12.854
 8521W        W80946  43.819  28.526  10.457
 8522W        W80947  24.445  22.951  12.484
 8523W        W80948  31.133  38.309  11.557
 8524W        W80949  15.539   7.812  10.225
 8525W        W80950   2.462  39.405   2.851
 8526W        W80951  28.037  39.195  13.094
 8527W        W80952  30.507  22.735  13.383
 8528W        W80953  27.443  42.336  13.319
 8529W        W80954   4.878  19.454   3.217
 8530W        W80955  34.695  29.045   4.613
 8531W        W80956  12.156  35.604  13.491
 8532W        W80957  20.330  22.177  12.352
 8533W        W80958  20.204  11.466  14.544
 8534W        W80959  10.594  18.512  14.797
 8535W        W80960  18.790  40.270  12.510
 8536W        W80961  40.287  23.503  14.293
 8537W        W80962  12.528  34.043   2.900
 8538W        W80963  14.585  11.423  11.058
 8539W        W80964  36.077  36.762  13.344
 8540W        W80965   9.769  33.126   1.942
 8541W        W80966  10.391  44.176   4.373
 8542W        W80967   3.883  12.349   0.707
 8543W        W80968  30.871  26.995   0.024
 8544W        W80969  37.459   8.166   3.119
 8545W        W80970   4.353   4.340   3.559
 8546W        W80971  36.639  12.938   4.931
 8547W        W80972  14.566  28.840   3.280
 8548W        W80973  31.626   5.331  10.493
 8549W        W80974  35.877  14.698   0.205
 8550W        W80975   6.213  30.472   0.285
 8551W        W80976  37.500  29.658  14.675
 8552W        W80977  37.015   7.969   2.838
 8553W        W80978   3.728   5.350  13.351
 8554W        W80979   6.641  34.561  14.501
 8555W        W80980  41.921  23.924   4.622
 8556W        W80981  24.642  10.459  11.532
 8557W        W80982  17.146  32.395   5.477
 8558W        W80983  20.129   0.298   2.874
 8559W        W80984  15.185  12.578  11.934
 8560W        W80985  43.026  38.586  13.461
 8561W        W80986  34.669  30.292  10.840
 8562W        W80987   5.619  27.066  11.727
 8563W        W80988  38.142   8.272  12.039
 8564W        W80989   1.555  33.967   1.185
 8565W        W80990  38.588  30.188   2.300
 8566W        W80991   5.293   8.727   1.293
 8567W        W80992  11.958  23.117  13.390
 8568W        W80993  35.155  15.645  10.184
 8569W        W80994   5.258   4.218   4.399
 8570W        W80995  11.461  44.783  10.427
 8571W        W80996   5.697   8.808   2.409
 8572W        W80997  38.587   5.177   4.492
 8573W        W80998  40.842  41.925   0.967
 8574W        W80999  35.368  32.933  13.788
 8575W        W81000  36.474  22.705  10.107
 8576W        W81001   5.310  14.111  14.090
 8577W        W81002  23.056   7.715  11.952
 8578W        W81003   8.716   5.879  11.670
 8579W        W81004   7.494  16.228   3.731
 8580W        W81005  34.567   2.972  14.420
 8581W        W81006  22.538  14.804   3.846
 8582W        W81007  44.042  12.405   4.853
 8583W        W81008  33.628  41.958   0.210
 8584W        W81009  30.221  36.392  10.839
 8585W        W81010  11.388  15.609   3.617
 8586W        W81011  12.993  22.530   4.315
 8587W        W81012  21.511  22.964   2.458
 8588W        W81013  25.084  38.487  12.328
 8589W        W81014  14.860  39.345   2.718
 8590W        W81015  31.205  26.576   1.921
 8591W        W81016  32.368  19.520   1.829
 8592W        W81017  12.656  41.236   4.180
 8593W        W81018  41.801  26.070   2.275
 8594W        W81019  36.163   4.990  14.786
 8595W        W81020   0.948  32.666  11.957
 8596W        W81021  24.876  29.041  14.733
 8597W        W81022  32.961  15.803   3.665
 8598W        W81023   3.492  21.002  10.401
 8599W        W81024  40.332   8.761  12.306
 8600W        W81025  11.515   2.345   4.951
 8601W        W81026  11.721  21.429   2.647
 8602W        W81027  24.925  19.700   0.607
 8603W        W81028  17.851   9.801  11.114
 8604W        W81029  41.005   1.698   2.857
 8605W        W81030   8.469  14.064  11.714
 8606W        W81031   5.220  25.945   1.236
 8607W        W81032  38.695  43.672   3.200
 8608W        W81033  24.216   8.122  11.203
 8609W        W81034  32.911  15.794  14.357
 8610W        W81035  18.259   4.994  12.889
 8611W        W81036  23.121  24.204   4.826
 8612W        W81037  37.832  20.760   4.819
 8613W        W81038  21.319  44.469   5.155
 8614W        W81039   6.223   4.937   4.258
 8615W        W81040  14.231  38.945  10.656
 8616W        W81041   2.465  35.680   3.396
 8617W        W81042  19.703  32.628  14.705
 8618W        W81043  13.344   1.899   4.116
 8619W        W81044  12.418   1.477   2.713
 8620W        W81045  25.176  15.982   0.904
 8621W        W81046  13.373   8.374  11.534
 8622W        W81047  19.582  23.214   2.938
 8623W        W81048  18.791  25.918  10.569
 8624W        W81049  39.178  44.803  13.546
 8625W        W81050  41.344  24.101  11.423
 8626W        W81051   1.880   3.366  11.154
 8627W        W81052   7.769   8.884  11.889
 8628W        W81053  36.590  40.831   0.845
 8629W        W81054  19.043  26.286   0.003
 8630W        W81055  11.854  28.346  10.740
 8631W        W81056  14.537   6.311   2.374
 8632W        W81057  22.580   3.490   0.373
 8633W        W81058   8.248  16.808  14.809
 8634W        W81059  10.180  41.320  13.858
 8635W        W81060   8.137   6.917   4.144
 8636W        W81061   3.898  38.116   4.203
 8637W        W81062  11.692  23.097   3.844
 8638W        W81063  38.380  13.201   2.221
 8639W        W81064  14.144   7.774  11.530
 8640W        W81065  29.177   0.417   3.935
 8641W        W81066   0.298  10.045  11.412
 8642W        W81067  20.775  22.718  14.734
 8643W        W81068  26.167   2.794  12.531
 8644W        W81069  17.974  42.446  11.681
 8645W        W81070   8.296   6.761   1.423
 8646W        W81071  28.648  23.362  14.872
 8647W        W81072  31.180  23.736  14.026
 8648W        W81073  25.034  33.528  13.131
 8649W        W81074  22.613  11.426   5.114
 8650W        W81075  26.732  13.725   0.827
 8651W        W81076  13.543   8.071   1.481
 8652W        W81077  13.842  17.378  12.097
 8653W        W81078  37.582  17.195  14.369
 8654W        W81079   1.261  12.766   4.357
 8655W        W81080  40.786  44.987  14.774
 8656W        W81081   0.193  11.621  13.763
 8657W        W81082  10.988  40.812   1.365
 8658W        W81083  35.707   2.604  14.928
 8659W        W81084  44.362   9.523  11.711
 8660W        W81085  38.379  13.364  10.776
 8661W        W81086  23.613  27.131  10.657
 8662W        W81087   7.901   1.853   1.987
 8663W        W81088  28.609  35.400   0.960
 8664W        W81089  18.551   3.817  12.896
 8665W        W81090  10.237  35.578   1.295
 8666W        W81091  33.536  43.571   3.736
 8667W        W81092   0.595  34.788  10.728
 8668W        W81093  31.440  25.930   1.442
 8669W        W81094   2.331   3.398  14.241
 8670W        W81095  26.349  43.495  14.597
 8671W        W81096  20.482  16.362  12.210
 8672W        W81097   6.736  31.681   4.167
 8673W        W81098  34.425  40.510   4.990
 8674W        W81099  25.042  43.304  14.812
 8675W        W81100   5.209  11.292  12.952
 8676W        W81101  43.360  43.883  13.336
 8677W        W81102  12.452  30.428   4.022
 8678W        W81103   8.011  18.593   2.744
 8679W        W81104  20.522  40.472   0.813
 8680W        W81105  22.364   7.064   3.535
 8681W        W81106  26.675  37.937  12.872
 8682W        W81107  22.075  37.813  13.043
 8683W        W81108  36.438   5.943   4.785
 8684W        W81109  15.506  31.991   2.759
 8685W        W81110  14.108  11.301   1.985
 8686W        W81111  19.859  28.043  14.812
 8687W        W81112  44.687   4.471   2.761
 8688W        W81113   6.123  24.221   2.228
 8689W        W81114  35.111  41.328   4.522
 8690W        W81115  39.557  17.619   1.304
 8691W        W81116  38.597   9.217  14.377
 8692W        W81117  15.570  28.193  13.080
 8693W        W81118   2.295  25.390  10.508
 8694W        W81119  14.719   9.862  11.225
 8695W        W81120  26.201  29.085   3.297
 8696W        W81121  44.610  38.900   0.277
 8697W        W81122  26.245  42.815  11.914
 8698W        W81123   5.773  23.055  14.773
 8699W        W81124   1.236   8.780  11.620
 8700W        W81125  14.479  18.287   1.935
 8701W        W81126  13.163  26.662  14.365
 8702W        W81127   9.857  31.963   1.819
 8703W        W81128  18.648  25.777  11.544
 8704W        W81129  20.325  12.750  10.844
 8705W        W81130  34.001  12.030  14.442
 8706W        W81131  29.558  26.781   2.099
 8707W        W81132  10.422  38.061   9.954
 8708W        W81133  12.528   5.740  12.100
 8709W        W81134  24.106  44.489  12.825
 8710W        W81135  22.126  33.090  14.039
 8711W        W81136  29.960  40.279   4.710
 8712W        W81137  25.663  29.206  11.578
 8713W        W81138  30.975  24.055   3.239
 8714W        W81139  43.783  40.404   2.038
 8715W        W81140   0.845   2.519  11.446
 8716W        W81141  38.930   2.722   3.499
 8717W        W81142  11.864  44.497   4.522
 8718W        W81143  32.367   1.471   0.808
 8719W        W81144   9.211  16.233   4.911
 8720W        W81145  30.594  33.059   1.469
 8721W        W81146  35.760   9.075  13.929
 8722W        W81147  19.100   8.448   3.353
 8723W        W81148  32.095   8.760   1.708
 8724W        W81149  35.695  36.274   1.976
 8725W        W81150  44.415  41.367   1.166
 8726W        W81151  43.927  20.209  11.856
 8727W        W81152  38.810  18.485  13.404
 8728W        W81153   2.681  33.010   1.070
 8729W        W81154  25.199  15.613   2.256
 8730W        W81155  44.409  44.042  11.544
 8731W        W81156   6.157  40.469   4.259
 8732W        W81157  13.704  24.983  14.585
 8733W        W81158  37.797  21.921  14.490
 8734W        W81159  33.347  31.076  14.558
 8735W        W81160  27.243   6.979   2.310
 8736W        W81161   3.156  11.906   4.150
 8737W        W81162  17.327  29.423   1.932
 8738W        W81163  42.278  17.574   2.295
 8739W        W81164  35.186  38.030   0.514
 8740W        W81165  37.998  33.501   4.839
 8741W        W81166  36.410   2.783  14.222
 8742W        W81167   4.036   0.370  13.841
 8743W        W81168  10.985  23.465  14.879
 8744W        W81169   0.401  17.324  13.640
 8745W        W81170  28.971   9.772  13.360
 8746W        W81171  20.287  38.511   0.804
 8747W        W81172   0.133   8.327  13.813
 8748W        W81173  20.029  41.473   0.728
 8749W        W81174  40.080  15.182  11.605
 8750W        W81175  42.379  18.115   4.115
 8751W        W81176  19.534  20.703   0.969
 8752W        W81177   9.327  18.312  14.381
 8753W        W81178  11.570  41.887   0.081
 8754W        W81179  22.622  33.693   3.601
 8755W        W81180  10.418  37.979  13.986
 8756W        W81181  36.399   5.000  12.991
 8757W        W81182  12.930  31.962   4.218
 8758W        W81183  43.372  40.691  12.080
 8759W        W81184  31.316  37.887  12.014
 8760W        W81185  41.328  37.226   3.280
 8761W        W81186   3.969  36.339   1.858
 8762W        W81187  40.798   8.999   1.279
 8763W        W81188  30.102  44.989  14.824
 8764W        W81189   2.229  29.886  12.668
 8765W        W81190  33.870  12.167   2.692
 8766W        W81191   3.790  27.701  13.097
 8767W        W81192   9.071  32.425   0.523
 8768W        W81193   9.315  26.161  14.626
 8769W        W81194  14.520   3.260   4.560
 8770W        W81195  33.119  29.982  12.937
 8771W        W81196  13.651  37.022   0.939
 8772W        W81197   1.509  41.177  12.018
 8773W        W81198  30.388  14.500   1.367
 8774W        W81199   8.176  12.304   3.159
 8775W        W81200  13.730  22.867  14.985
 8776W        W81201  17.102   8.078   5.192
 8777W        W81202  14.722   1.910   2.321
 8778W        W81203  38.401   6.899  11.420
 8779W        W81204  29.717  44.365  12.639
 8780W        W81205   1.961  22.682   1.676
 8781W        W81206  34.872  28.293  14.705
 8782W        W81207  36.011  24.480  13.415
 8783W        W81208  23.630  38.435  14.641
 8784W        W81209  14.622  20.672   0.460
 8785W        W81210   3.677  20.300  12.236
 8786W        W81211   2.290  24.209  12.396
 8787W        W81212   5.361  32.020  12.629
 8788W        W81213  19.216   2.301  13.936
 8789W        W81214  15.919  20.234  11.723
 8790W        W81215  22.921  13.510   1.408
 8791W        W81216   3.498  39.048   2.254
 8792W        W81217  26.593  27.164  11.141
 8793W        W81218  40.891  43.105  13.437
 8794W        W81219  32.043   9.010  13.810
 8795W        W81220  15.577  21.693  13.096
 8796W        W81221  34.533  30.306  11.632
 8797W        W81222  20.492   5.355   0.213
 8798W        W81223  26.097  12.662  12.134
 8799W        W81224  30.777   8.140  11.002
 8800W        W81225   7.904  35.768   0.143
 8801W        W81226  23.256  32.069   0.359
 8802W        W81227  13.530  35.112   1.439
 8803W        W81228  13.882  44.573  14.078
 8804W        W81229  20.903   5.907  11.084
 8805W        W81230   3.641  22.718  13.843
 8806W        W81231   0.333  28.433  10.712
 8807W        W81232   5.327  38.403   4.043
 8808W        W81233  25.642  21.325  11.998
 8809W        W81234  34.280   8.653   1.942
 8810W        W81235  38.477  15.351   3.164
 8811W        W81236  25.125  21.430   2.133
 8812W        W81237  38.270  16.232   2.177
 8813W        W81238  44.930  35.005   2.291
 8814W        W81239   0.400  21.107   3.203
 8815W        W81240   0.775  29.958  14.633
 8816W        W81241  41.271  16.840   2.779
 8817W        W81242  26.207   0.761   1.663
 8818W        W81243  39.925  33.503  12.169
 8819W        W81244  21.502  14.354   2.159
 8820W        W81245  22.114   6.980  14.492
 8821W        W81246  36.590  29.625   4.964
 8822W        W81247  17.443  25.324   0.996
 8823W        W81248   9.208  31.934  11.121
 8824W        W81249  14.726  13.569  10.777
 8825W        W81250  41.571  21.137   0.391
 8826W        W81251  10.844   7.272  14.112
 8827W        W81252  43.368  22.300   1.621
 8828W        W81253  29.497  22.040   3.801
 8829W        W81254  31.834   3.473   2.372
 8830W        W81255   0.335  15.819  13.441
 8831W        W81256  33.905  14.755  10.640
 8832W        W81257  30.248  21.315  12.218
 8833W        W81258   7.388  41.031  11.686
 8834W        W81259  33.385   0.025  11.985
 8835W        W81260  36.322  37.066   2.903
 8836W        W81261  33.004  26.557  13.742
 8837W        W81262  17.310  19.611  10.765
 8838W        W81263  24.319   1.902   0.458
 8839W        W81264  38.926   7.637   2.387
 8840W        W81265  21.425   8.932   3.281
 8841W        W81266  44.898  31.616  13.535
 8842W        W81267  30.154  34.877   1.882
 8843W        W81268   9.031  35.338   4.062
 8844W        W81269  33.329   9.345  14.038
 8845W        W81270  21.674  42.916   0.575
 8846W        W81271  13.143  26.995  10.987
 8847W        W81272  41.664  22.597   5.033
 8848W        W81273  37.076   0.691   3.858
 8849W        W81274   4.330  23.144  13.718
 8850W        W81275   7.911  12.490  12.356
 8851W        W81276   6.617  14.161   1.351
 8852W        W81277  18.763  28.465   0.386
 8853W        W81278  30.384  18.723   4.969
 8854W        W81279  32.124   3.215   0.787
 8855W        W81280  38.467  39.032   3.158
 8856W        W81281  25.709  32.794  13.069
 8857W        W81282  41.969  21.650  14.029
 8858W        W81283  43.652  36.499   0.270
 8859W        W81284  42.411   1.652   2.263
 8860W        W81285  22.030  12.413   2.835
 8861W        W81286  22.302  10.874  14.445
 8862W        W81287  36.821  39.737  11.986
 8863W        W81288  13.656  16.291  11.218
 8864W        W81289  33.491   0.537   0.943
 8865W        W81290  23.980  30.460   4.930
 8866W        W81291  26.978  38.496  12.039
 8867W        W81292  37.358  41.989   2.818
 8868W        W81293  42.118  14.359   4.404
 8869W        W81294   6.283   9.117   1.944
 8870W        W81295  26.623   4.665  11.606
 8871W        W81296   3.989  12.237   2.277
 8872W        W81297  22.614  23.517  10.752
 8873W        W81298   7.831  42.369  12.564
 8874W        W81299   9.240   8.836  13.446
 8875W        W81300  39.933  34.657  12.433
 8876W        W81301  18.419  24.043   3.759
 8877W        W81302  33.373   6.322  11.390
 8878W        W81303   7.742  17.558   2.195
 8879W        W81304  18.453  31.617  11.906
 8880W        W81305  30.256  17.462  14.378
 8881W        W81306  43.483  21.119   1.304
 8882W        W81307  36.985  18.012   2.332
 8883W        W81308   3.425  12.133  13.897
 8884W        W81309  17.075  44.481   1.198
 8885W        W81310  32.543  25.280  11.471
 8886W        W81311  14.898  32.975   0.370
 8887W        W81312  17.144  41.053   0.498
 8888W        W81313  27.218  44.350   1.707
 8889W        W81314   1.473   5.601   1.261
 8890W        W81315  26.783  38.372  11.563
 8891W        W81316  20.709   0.615   1.560
 8892W        W81317  20.311  40.528  13.235
 8893W        W81318  30.455  27.609   3.215
 8894W        W81319   2.949  30.254   4.480
 8895W        W81320  29.558  42.842   1.898
 8896W        W81321  11.268  33.796  10.437
 8897W        W81322  25.755   9.401   0.835
 8898W        W81323  16.571  10.874  12.145
 8899W        W81324  44.392  39.302   3.645
 8900W        W81325   4.910  11.256  14.518
 8901W        W81326  28.891  34.951   4.773
 8902W        W81327  33.892   6.844  12.066
 8903W        W81328  43.094  40.607   4.118
 8904W        W81329  29.590  34.179  14.687
 8905W        W81330  41.824  37.615   1.279
 8906W        W81331   1.189  21.137  13.719
 8907W        W81332  16.745  29.124  10.965
 8908W        W81333   3.823   4.665  13.895
 8909W        W81334   7.326   4.132   2.820
 8910W        W81335  33.622  20.739  13.024
 8911W        W81336   3.476   8.608   4.301
 8912W        W81337  23.298  13.801   0.828
 8913W        W81338  16.713  17.260  13.913
 8914W        W81339  13.099  31.086   2.849
 8915W        W81340  19.677  23.121   4.419
 8916W        W81341   2.384  32.476   0.214
 8917W        W81342  40.555   1.747   4.610
 8918W        W81343  17.603  11.806   4.071
 8919W        W81344   4.783  30.912   3.702
 8920W        W81345  17.063  19.527  11.626
 8921W        W81346  14.125   7.158  12.496
 8922W        W81347  31.161  22.142  13.473
 8923W        W81348  28.100  41.931  12.055
 8924W        W81349  11.385   5.110  11.398
 8925W        W81350   7.184   8.951   2.172
 8926W        W81351  42.463  12.735  12.023
 8927W        W81352   3.217  39.819   2.801
 8928W        W81353  37.538  41.829   2.315
 8929W        W81354  21.738  32.877  13.779
 8930W        W81355   7.795  43.551  13.549
 8931W        W81356  26.152  28.059   1.287
 8932W        W81357  28.787  14.879   2.610
 8933W        W81358  42.759  20.213  10.538
 8934W        W81359   8.090   6.169  10.701
 8935W        W81360  42.077  10.452  11.185
 8936W        W81361  18.470  32.252   4.499
 8937W        W81362  29.192  28.758   0.405
 8938W        W81363  23.629  31.235  11.010
 8939W        W81364  17.092  20.312  14.195
 8940W        W81365  18.627  42.826  12.625
 8941W        W81366  11.889  36.654   0.308
 8942W        W81367  38.950  27.906   2.874
 8943W        W81368   0.719  24.552   4.175
 8944W        W81369  30.329  17.047   4.514
 8945W        W81370  19.122  28.125  14.067
 8946W        W81371  42.559  16.588  12.485
 8947W        W81372  28.694  13.756   0.052
 8948W        W81373  28.018  37.457  13.548
 8949W        W81374   9.690  34.441   3.315
 8950W        W81375   7.305  18.630   1.675
 8951W        W81376  30.876   8.516   2.244
 8952W        W81377  14.711  23.708  11.316
 8953W        W81378  16.268  21.562  13.727
 8954W        W81379  14.731   0.242  11.869
 8955W        W81380   0.572   8.455  12.121
 8956W        W81381  31.118  18.846  13.421
 8957W        W81382  28.333  29.738  13.378
 8958W        W81383  24.985  36.557  14.407
 8959W        W81384  19.940   5.447  12.295
 8960W        W81385  26.707   1.006   4.176
 8961W        W81386  36.493  11.589   4.854
 8962W        W81387  22.934  14.142   3.652
 8963W        W81388  27.182  18.903  12.914
 8964W        W81389  27.861  21.209  11.175
 8965W        W81390  19.080  19.234  12.804
 8966W        W81391  36.889  40.552  13.571
 8967W        W81392  10.347  40.241   2.399
 8968W        W81393  43.658   5.141   4.350
 8969W        W81394  13.315   5.242   4.263
 8970W        W81395  28.659   6.377   0.655
 8971W        W81396  34.475  19.072  14.121
 8972W        W81397  14.325  11.671  11.823
 8973W        W81398  29.724  18.887   2.626
 8974W        W81399  30.172  33.579   2.097
 8975W        W81400  19.695  36.218  13.449
 8976W        W81401  20.489  27.555   1.268
 8977W        W81402  17.572  17.404   3.965
 8978W        W81403  11.398  14.861  13.029
 8979W        W81404  41.465  26.041   1.498
 8980W        W81405  16.817   6.053  12.813
 8981W        W81406  35.868  14.328   2.097
 8982W        W81407  15.228  13.137  13.062
 8983W        W81408   4.015  23.792  12.062
 8984W        W81409  26.369  28.348   1.699
 8985W        W81410  37.178  22.666   1.535
 8986W        W81411  28.587   8.871  13.794
 8987W        W81412  30.667   2.527  14.532
 8988W        W81413  30.336  36.814   3.401
 8989W        W81414  10.940  41.931   1.781
 8990W        W81415   7.681  37.832   2.959
 8991W        W81416  23.980  31.133   4.633
 8992W        W81417  37.222  34.943  13.864
 8993W        W81418  17.203  25.398   0.348
 8994W        W81419  28.555  34.378   1.102
 8995W        W81420  22.614   8.357   1.423
 8996W        W81421  43.630  15.930  11.192
 8997W        W81422  31.980  31.997   3.243
 8998W        W81423  18.798   1.305  11.090
 8999W        W81424   6.123  36.193   0.857
 9000W        W81425  21.132  31.089   1.855
 9001W        W81426  10.256  44.763   1.859
 9002W        W81427  24.626   4.344   1.884
 9003W        W81428  40.692   6.961  12.712
 9004W        W81429   8.091  33.643   2.761
 9005W        W81430  30.057  32.060   0.408
 9006W        W81431  27.927   3.036  12.041
 9007W        W81432  29.684   5.889   2.757
 9008W        W81433  28.827  23.175  10.180
 9009W        W81434  28.066  38.627   3.359
 9010W        W81435  25.725  36.819   1.871
 9011W        W81436  31.332  39.628   0.335
 9012W        W81437  18.619   7.591  14.312
 9013W        W81438  19.799   9.736  12.470
 9014W        W81439  17.704   2.427   2.012
 9015W        W81440  19.273  29.506  13.892
 9016W        W81441  31.932  23.105   1.466
 9017W        W81442  22.504  22.292  12.977
 9018W        W81443  42.804  14.983   0.699
 9019W        W81444  15.336   8.457  11.881
 9020W        W81445  15.874   8.583   4.187
 9021W        W81446  29.627   0.549   4.146
 9022W        W81447  39.624  27.107  11.107
 9023W        W81448  24.160  11.740   4.588
 9024W        W81449  28.309  34.419  12.431
 9025W        W81450  15.614  44.907   1.532
 9026W        W81451  38.717  15.739   3.637
 9027W        W81452  38.861  44.441   2.347
 9028W        W81453  44.359  33.850   3.186
 9029W        W81454  36.196  21.983  10.540
 9030W        W81455  33.850  44.113   0.123
 9031W        W81456  34.097   9.310  12.997
 9032W        W81457  15.025  35.127   4.964
 9033W        W81458   1.370  34.912  13.649
 9034W        W81459   0.781  15.629  11.038
 9035W        W81460  25.251  19.044   3.323
 9036W        W81461  21.707   5.251   3.726
 9037W        W81462  23.535  32.082   1.046
 9038W        W81463  27.650  28.503  10.457
 9039W        W81464   5.400  41.036   0.915
 9040W        W81465  29.419  36.720  11.872
 9041W        W81466  36.862  39.139   4.037
 9042W        W81467  33.052  10.176   0.753
 9043W        W81468  38.350  40.997   2.937
 9044W        W81469   1.491  31.078  11.145
 9045W        W81470   7.410  27.450   0.070
 9046W        W81471  27.197  15.659  13.453
 9047W        W81472  10.857  19.172  11.993
 9048W        W81473   1.893  15.631   4.368
 9049W        W81474  20.800  32.567  11.930
 9050W        W81475  32.852  33.547   2.251
 9051W        W81476  43.940  22.114   0.657
 9052W        W81477  24.738   2.521  11.780
 9053W        W81478   0.761   2.473  14.444
 9054W        W81479   2.639  10.582  12.565
 9055W        W81480  12.146  13.214   1.825
 9056W        W81481  32.265  44.242  14.212
 9057W        W81482  41.782   3.269  13.834
 9058W        W81483   9.705  42.216  12.901
 9059W        W81484   4.733  39.333   1.738
 9060W        W81485  12.373   2.289  11.508
 9061W        W81486   1.531  42.455  11.534
 9062W        W81487   2.436  11.105   4.552
 9063W        W81488  24.410  21.702  10.775
 9064W        W81489  17.085  25.593   2.247
 9065W        W81490  31.673  39.948   3.371
 9066W        W81491  18.002  20.493   2.752
 9067W        W81492  38.177  15.270   0.737
 9068W        W81493   1.206  11.618   2.213
 9069W        W81494  32.933  44.252   2.313
 9070W        W81495  14.185  15.094   4.908
 9071W        W81496   9.211  43.253  11.434
 9072W        W81497  42.409  40.609   4.730
 9073W        W81498  43.437   2.905   3.552
 9074W        W81499   4.533  39.912  11.731
 9075W        W81500  19.219  27.308  14.775
 9076W        W81501  42.970  27.161  10.655
 9077W        W81502  22.268  31.265  13.806
 9078W        W81503  19.323  28.095  13.520
 9079W        W81504   9.221   6.257   4.477
 9080W        W81505  26.787  19.758   2.001
 9081W        W81506   4.665  43.021  12.067
 9082W        W81507  21.487   1.537   2.725
 9083W        W81508  18.298  11.349   1.807
 9084W        W81509  15.375  11.684  10.749
 9085W        W81510  19.796  17.189   0.566
 9086W        W81511   1.210  42.500   0.376
 9087W        W81512  38.120  17.754  11.615
 9088W        W81513  41.930  33.455  12.013
 9089W        W81514  12.300   1.840  13.371
 9090W        W81515   8.896  43.018   2.526
 9091W        W81516  21.650  22.939  10.801
 9092W        W81517   9.946   8.765  12.888
 9093W        W81518  31.995  16.089  14.969
 9094W        W81519  12.658  24.459   1.390
 9095W        W81520  41.342  23.416   0.438
 9096W        W81521  13.860  43.000   2.696
 9097W        W81522  12.188  39.649   1.702
 9098W        W81523   3.266  26.334  14.558
 9099W        W81524   5.892  44.427   1.888
 9100W        W81525  41.364  19.604  11.809
 9101W        W81526  30.105  41.451   4.747
 9102W        W81527  12.384  12.199  13.359
 9103W        W81528  27.941  14.101   0.462
 9104W        W81529   1.830  12.780  14.058
 9105W        W81530  10.345   6.410  13.006
 9106W        W81531   5.982  21.665  13.470
 9107W        W81532  25.492   3.826  13.418
 9108W        W81533  30.495   5.329  14.548
 9109W        W81534  41.415  41.832   0.359
 9110W        W81535   2.654   8.898   3.210
 9111W        W81536  29.342  43.827   4.648
 9112W        W81537  11.601  33.086  11.282
 9113W        W81538   9.851  36.929  12.124
 9114W        W81539  42.554   4.641  11.996
 9115W        W81540  30.433  36.894   1.783
 9116W        W81541  18.747  36.967   4.840
 9117W        W81542  38.738   8.352   5.017
 9118W        W81543   9.784  44.992   1.860
 9119W        W81544  23.021  14.710   4.081
 9120W        W81545  43.459  21.998  14.844
 9121W        W81546  36.096  10.130  10.190
 9122W        W81547  40.292  39.088   3.143
 9123W        W81548  42.334  20.764  10.963
 9124W        W81549  40.952  11.142  11.998
 9125W        W81550  29.379   6.409   4.139
 9126W        W81551  11.348  42.987  14.945
 9127W        W81552  11.254  31.248  11.228
 9128W        W81553  38.767  44.532   1.821
 9129W        W81554  33.409  42.195  10.504
 9130W        W81555  34.421  27.706  11.996
 9131W        W81556   2.524  16.662   2.921
 9132W        W81557  34.867   7.405   0.844
 9133W        W81558  44.857  22.839   1.884
 9134W        W81559  30.581  13.245   2.607
 9135W        W81560  12.167   2.642  11.042
 9136W        W81561  17.321  16.881   1.065
 9137W        W81562   8.181  19.400   4.071
 9138W        W81563  44.000  34.722  11.665
 9139W        W81564  22.300  29.489  13.915
 9140W        W81565  36.513  32.916   4.175
 9141W        W81566   4.647  41.297  12.513
 9142W        W81567   8.148   5.909   3.153
 9143W        W81568  17.094   0.036   2.466
 9144W        W81569  31.489  35.443   4.378
 9145W        W81570  19.240  22.988   3.842
 9146W        W81571  44.951  44.264   1.722
 9147W        W81572  32.102   7.873  13.007
 9148W        W81573  20.326  37.580   4.550
 9149W        W81574  43.920  26.238   2.816
 9150W        W81575   3.382  11.916   0.007
 9151W        W81576  21.502   7.179  14.722
 9152W        W81577  30.121  37.256   3.615
 9153W        W81578  44.558   9.143   2.376
 9154W        W81579  28.551   2.192  11.588
 9155W        W81580  14.225   0.416   3.501
 9156W        W81581  11.383   5.147   4.688
 9157W        W81582   7.735   0.539   4.149
 9158W        W81583  44.796  36.577  11.602
 9159W        W81584  18.771  11.337   4.583
 9160W        W81585  43.820   9.860  13.902
 9161W        W81586  42.725  41.077   2.035
 9162W        W81587  20.659   2.306   4.972
 9163W        W81588   5.426   8.281  11.231
 9164W        W81589  31.469  35.746   2.381
 9165W        W81590  21.037  16.733  12.991
 9166W        W81591   6.526  29.927   1.756
 9167W        W81592  15.563   2.134  13.646
 9168W        W81593   8.961  37.419   1.637
 9169W        W81594  10.839  35.654  13.692
 9170W        W81595   7.602  23.091   3.642
 9171W        W81596  43.841  33.399  10.996
 9172W        W81597  39.105  13.114  11.919
 9173W        W81598  33.346  40.727   0.093
 9174W        W81599  15.674  36.079  14.191
 9175W        W81600  30.413  41.499  14.800
 9176W        W81601  20.526   7.738  13.446
 9177W        W81602  43.842  19.560   0.553
 9178W        W81603   0.989  41.484   4.571
 9179W        W81604   1.068   2.184  11.134
 9180W        W81605  15.909  29.922  13.420
 9181W        W81606  38.368   7.493   5.466
 9182W        W81607   6.170  38.406  13.070
 9183W        W81608   5.060   9.522  13.796
 9184W        W81609  35.860  34.133  14.480
 9185W        W81610  11.894  31.528   2.733
 9186W        W81611  32.493  16.099  10.648
 9187W        W81612  23.658  18.216  11.967
 9188W        W81613  25.097  42.172  12.895
 9189W        W81614  33.935   0.514   4.652
 9190W        W81615  28.899  10.332  12.451
 9191W        W81616  36.543  11.166   4.535
 9192W        W81617  30.150  16.773  13.321
 9193W        W81618  16.734   0.717   4.551
 9194W        W81619   8.679  29.380   1.170
 9195W        W81620  22.753  32.370   0.664
 9196W        W81621  17.553  37.380  10.770
 9197W        W81622  41.850   7.607  12.966
 9198W        W81623   1.417  29.192   0.305
 9199W        W81624   0.530   4.583   3.749
 9200W        W81625  43.035  29.349  14.997
 9201W        W81626  44.794  17.712  11.019
 9202W        W81627   5.447  44.333  13.508
 9203W        W81628  13.389  27.721  14.413
 9204W        W81629  35.820   2.524  12.974
 9205W        W81630  24.536   4.474  14.372
 9206W        W81631  27.152  13.058   2.743
 9207W        W81632   3.867   0.468   0.217
 9208W        W81633  12.600  33.437   4.161
 9209W        W81634   8.502   8.797   4.310
 9210W        W81635  30.459  42.108   1.292
 9211W        W81636  19.785   6.669   4.511
 9212W        W81637   7.838  12.178  13.578
 9213W        W81638  29.839   4.747   4.708
 9214W        W81639  36.163  31.444   0.124
 9215W        W81640  33.392   6.253  12.432
 9216W        W81641   9.812   9.399  10.746
 9217W        W81642  26.640  19.814  13.821
 9218W        W81643  18.258  15.116   1.403
 9219W        W81644  13.127  24.195  13.391
 9220W        W81645  19.198  13.222   4.384
 9221W        W81646  18.258  38.037   4.336
 9222W        W81647  23.826  40.584   0.326
 9223W        W81648  20.056  44.469   3.285
 9224W        W81649   5.944  22.004   3.643
 9225W        W81650  12.624   3.159   2.216
 9226W        W81651  14.540  17.730  13.904
 9227W        W81652   2.500  21.107   4.150
 9228W        W81653  27.215  14.582   0.578
 9229W        W81654  28.176  19.509   4.301
 9230W        W81655  17.027  24.942  13.098
 9231W        W81656  43.437  19.156  10.062
 9232W        W81657   5.216  35.178   3.342
 9233W        W81658  17.561  14.911  12.409
 9234W        W81659   9.413  23.776   1.742
 9235W        W81660  32.396  41.889   0.494
 9236W        W81661  29.654  10.646   4.695
 9237W        W81662   0.182  19.579  12.161
 9238W        W81663   5.816  21.199  14.997
 9239W        W81664   9.397  20.053  10.694
 9240W        W81665  41.077  11.387  10.554
 9241W        W81666   1.246  24.219  14.491
 9242W        W81667  30.062   5.031   2.858
 9243W        W81668  17.811  17.906  10.761
 9244W        W81669  28.396   0.341  13.468
 9245W        W81670  27.201  22.719   0.100
 9246W        W81671  11.116   8.406  11.868
 9247W        W81672  33.604  38.888   2.294
 9248W        W81673  20.521  19.862  13.969
 9249W        W81674  41.126  36.896   1.150
 9250W        W81675  15.119  25.241  14.837
 9251W        W81676   5.168  10.750   2.638
 9252W        W81677  40.404   0.596   3.196
 9253W        W81678  36.129  13.716   3.661
 9254W        W81679  31.449  16.083  14.891
 9255W        W81680  11.152  10.138   3.787
 9256W        W81681  44.608  18.872  11.868
 9257W        W81682  38.222  32.990  10.595
 9258W        W81683  25.261  30.206   1.453
 9259W        W81684   7.611  32.763  11.505
 9260W        W81685  44.814  34.220  10.995
 9261W        W81686  22.949  26.570  10.266
 9262W        W81687  44.952  28.052  13.340
 9263W        W81688   2.029  25.214   0.855
 9264W        W81689  43.259  18.939   0.451
 9265W        W81690   9.629  17.411   1.750
 9266W        W81691  33.965  29.595   2.197
 9267W        W81692   4.262  29.188  14.098
 9268W        W81693   3.946   1.907  13.463
 9269W        W81694   2.956  15.689   2.177
 9270W        W81695  20.070  34.864   2.407
 9271W        W81696   8.773   6.441  11.622
 9272W        W81697   7.300  43.283   2.300
 9273W        W81698  20.474  29.134   4.052
 9274W        W81699  14.526  38.538  10.523
 9275W        W81700   0.844  27.128   1.762
 9276W        W81701  32.608  39.393   2.666
 9277W        W81702  13.763  36.708   0.307
 9278W        W81703  43.359  23.489  13.835
 9279W        W81704  22.879   6.710   4.747
 9280W        W81705  11.273  39.610  14.161
 9281W        W81706  14.125   7.914   0.945
 9282W        W81707   6.954  28.535  12.339
 9283W        W81708  18.991  34.006  13.893
 9284W        W81709  29.986   4.511  12.187
 9285W        W81710  14.363  43.013  11.539
 9286W        W81711  32.530   8.716  14.744
 9287W        W81712  10.512  12.376  10.714
 9288W        W81713   7.360  10.398   1.212
 9289W        W81714  16.551   4.697  13.505
 9290W        W81715  28.443  20.824  10.630
 9291W        W81716  14.124  22.756   1.810
 9292W        W81717   3.977  32.840   1.002
 9293W        W81718  22.975   8.372  13.378
 9294W        W81719  20.166  37.774   1.429
 9295W        W81720   2.299   8.742  13.016
 9296W        W81721   6.032   3.383   2.339
 9297W        W81722   3.543  15.627   0.702
 9298W        W81723  16.213  24.516   3.019
 9299W        W81724  39.921  44.228  12.551
 9300W        W81725  14.442  23.637  10.482
 9301W        W81726  17.113  15.763   2.828
 9302W        W81727  20.148  20.650   4.624
 9303W        W81728  25.628  41.416  10.299
 9304W        W81729  11.304  10.745   3.051
 9305W        W81730   0.064  34.070  11.451
 9306W        W81731  44.043  31.646  10.724
 9307W        W81732  29.689  36.442   4.747
 9308W        W81733   2.389  25.677  13.525
 9309W        W81734  23.515  29.013   1.604
 9310W        W81735  35.022   0.396  12.909
 9311W        W81736   9.614  15.318   0.546
 9312W        W81737  43.913   3.820   2.278
 9313W        W81738  25.229  31.141  10.107
 9314W        W81739  32.010  44.276   2.365
 9315W        W81740   7.009   2.670   3.190
 9316W        W81741  23.040  42.750   1.190
 9317W        W81742   2.353   7.287  10.685
 9318W        W81743   7.148  42.141   0.021
 9319W        W81744  38.627  42.302  14.478
 9320W        W81745  18.289  39.968   3.584
 9321W        W81746  33.531  37.057  14.693
 9322W        W81747  21.060   0.807  12.575
 9323W        W81748   6.682  43.066   2.760
 9324W        W81749  43.050  21.029  12.063
 9325W        W81750  25.022   7.652   0.025
 9326W        W81751  39.328  41.227   1.144
 9327W        W81752  39.967   3.442   3.148
 9328W        W81753  19.257  41.064   0.841
 9329W        W81754   1.248   1.346  11.768
 9330W        W81755  34.451  20.712   2.232
 9331W        W81756  29.203  39.313   3.106
 9332W        W81757   3.391   5.287  14.292
 9333W        W81758  12.225  12.145   2.644
 9334W        W81759  21.598   4.186  10.994
 9335W        W81760  10.251  34.052  10.766
 9336W        W81761   6.035  12.824  11.868
 9337W        W81762  16.639  10.039  10.782
 9338W        W81763  17.819   7.404  14.130
 9339W        W81764   0.231  31.162  14.926
 9340W        W81765   1.218  10.374  12.377
 9341W        W81766  38.510  42.487   4.127
 9342W        W81767  39.933  29.706  12.132
 9343W        W81768  19.998  29.967   3.297
 9344W        W81769  38.451  20.550   4.055
 9345W        W81770  36.596  23.200   0.056
 9346W        W81771   2.224  16.876   1.416
 9347W        W81772  32.032  38.535  13.404
 9348W        W81773   3.759  28.362   4.567
 9349W        W81774   8.124  21.601   3.713
 9350W        W81775  37.306  14.356  14.438
 9351W        W81776  44.455   6.534   2.691
 9352W        W81777  27.794   0.967   2.386
 9353W        W81778  44.414  21.919  11.028
 9354W        W81779  24.211  40.268   0.513
 9355W        W81780  23.272  34.097   3.581
 9356W        W81781   6.727  40.904   3.230
 9357W        W81782   8.927  26.418  12.524
 9358W        W81783  35.419  20.465   3.198
 9359W        W81784  21.574  26.722   0.264
 9360W        W81785   1.784  38.147  12.835
 9361W        W81786   6.810  37.039  13.090
 9362W        W81787   8.513   0.042   1.459
 9363W        W81788  37.541   5.300   1.952
 9364W        W81789  24.888   4.910   2.784
 9365W        W81790  16.636   1.187  11.486
 9366W        W81791  23.191  29.711  11.104
 9367W        W81792  10.204  23.985   2.262
 9368W        W81793   8.430  10.229  12.130
 9369W        W81794  33.990  19.600   4.267
 9370W        W81795  43.286  31.022  14.296
 9371W        W81796  12.792  34.022  14.551
 9372W        W81797   2.684  10.038   2.645
 9373W        W81798  17.374  13.260  10.226
 9374W        W81799  44.998  37.799   3.819
 9375W        W81800  41.438  11.320   1.686
 9376W        W81801   5.454  22.707   1.335
 9377W        W81802   1.903  31.202  13.890
 9378W        W81803   8.674  37.563   3.760
 9379W        W81804  11.081  15.203  13.959
 9380W        W81805  30.523  13.301  12.639
 9381W        W81806  41.218  32.562   1.784
 9382W        W81807  11.151  43.916  10.489
 9383W        W81808  26.928  29.173   2.299
 9384W        W81809  14.574  29.487  13.633
 9385W        W81810  27.859   5.163  14.421
 9386W        W81811  25.483  13.364   4.229
 9387W        W81812  32.244  42.972   5.033
 9388W        W81813  40.801  20.809   2.758
 9389W        W81814   6.330  25.697  12.809
 9390W        W81815  41.375  19.697  13.271
 9391W        W81816  27.393  38.901   0.903
 9392W        W81817  22.797  30.404  13.899
 9393W        W81818   5.695  44.020   4.055
 9394W        W81819  38.124  29.503  12.664
 9395W        W81820  14.975  30.530  10.245
 9396W        W81821   3.430  41.815  13.467
 9397W        W81822  40.857  11.715  14.545
 9398W        W81823   5.666  14.616  12.417
 9399W        W81824  39.246  11.738  10.770
 9400W        W81825  15.783  13.125   2.422
 9401W        W81826  26.237  15.029   0.317
 9402W        W81827  22.979  14.660   1.923
 9403W        W81828  31.841   6.254   1.735
 9404W        W81829  14.820  42.542   1.323
 9405W        W81830  35.469  13.111  11.597
 9406W        W81831  43.756  10.827  13.890
 9407W        W81832  25.070   0.755   1.935
 9408W        W81833   3.942  16.256   3.718
 9409W        W81834   0.888  16.801   2.964
 9410W        W81835   9.220   5.322   2.113
 9411W        W81836  17.112  22.750  14.486
 9412W        W81837  36.021  35.345  13.393
 9413W        W81838  17.105  23.639  13.889
 9414W        W81839  22.466  17.186  14.768
 9415W        W81840  19.549  20.318   1.304
 9416W        W81841  24.016  35.241  10.833
 9417W        W81842  30.088   9.085   3.641
 9418W        W81843   7.274   1.291   0.507
 9419W        W81844  14.828   9.931  13.477
 9420W        W81845  10.645  26.030  11.231
 9421W        W81846  42.832  13.197  14.096
 9422W        W81847  23.668  20.239   3.062
 9423W        W81848   4.883   2.334  11.491
 9424W        W81849  19.103  36.118   1.586
 9425W        W81850   0.497  18.877  11.102
 9426W        W81851  14.099  24.973   0.965
 9427W        W81852   6.246  34.105  13.960
 9428W        W81853  10.108  36.905   4.198
 9429W        W81854  42.317  37.048  14.034
 9430W        W81855  24.525  24.589  12.009
 9431W        W81856   9.408  32.383  12.013
 9432W        W81857  29.435  36.116   2.596
 9433W        W81858  35.411   4.997   4.091
 9434W        W81859  10.772  13.201   4.985
 9435W        W81860  35.446  36.892  10.499
 9436W        W81861  25.617  17.131   4.854
 9437W        W81862  22.223   0.349  13.502
 9438W        W81863  41.120   4.685  11.851
 9439W        W81864  43.955  17.824   0.195
 9440W        W81865  15.692  19.747   4.167
 9441W        W81866  32.328  34.584   2.684
 9442W        W81867  31.549  26.128  12.190
 9443W        W81868  24.012  25.354   1.292
 9444W        W81869  23.522  37.186   1.857
 9445W        W81870  14.736  15.788   3.764
 9446W        W81871   5.295   9.089   2.255
 9447W        W81872   3.604  20.102   2.010
 9448W        W81873  43.398  22.682   0.292
 9449W        W81874   1.018  30.298  13.282
 9450W        W81875   9.866  10.245  11.637
 9451W        W81876   1.186  23.393   1.310
 9452W        W81877  34.884  26.195   2.832
 9453W        W81878  40.103  17.911   2.782
 9454W        W81879  42.450  33.722   2.282
 9455W        W81880  24.235   5.078  12.995
 9456W        W81881   9.502   9.388   2.691
 9457W        W81882  27.900  40.790   3.647
 9458W        W81883   1.280  33.834  11.888
 9459W        W81884  30.154  31.950   2.683
 9460W        W81885  37.532   5.271  11.687
 9461W        W81886  29.094  34.819   2.582
 9462W        W81887  19.809   1.503  11.078
 9463W        W81888   6.720  37.557   1.537
 9464W        W81889  12.178  38.933  11.876
 9465W        W81890   5.678  39.897   0.405
 9466W        W81891   7.914   9.841  12.989
 9467W        W81892  14.097  37.580  13.049
 9468W        W81893  39.429  33.128   1.547
 9469W        W81894  44.310  35.739   9.759
 9470W        W81895  31.640  11.783   0.454
 9471W        W81896  44.455  30.073  13.178
 9472W        W81897  19.721  22.721  13.843
 9473W        W81898  29.031   1.990  14.359
 9474W        W81899  29.500   1.293  14.468
 9475W        W81900  40.070  13.673   2.199
 9476W        W81901  15.562  34.318   1.706
 9477W        W81902  25.804  17.964   4.525
 9478W        W81903  22.804  29.005  12.507
 9479W        W81904  38.623  21.123   0.092
 9480W        W81905  18.848  43.475   4.375
 9481W        W81906  19.518  43.170   5.045
 9482W        W81907  38.410  13.715   1.292
 9483W        W81908  35.347  15.517  10.689
 9484W        W81909  39.381  32.355   3.649
 9485W        W81910   6.674  38.494  13.078
 9486W        W81911   3.978   5.276  12.550
 9487W        W81912  15.285  43.125  13.980
 9488W        W81913  39.124  30.231  13.304
 9489W        W81914  16.706   4.641  11.418
 9490W        W81915  44.804  42.900  10.267
 9491W        W81916  34.768   8.818  14.006
 9492W        W81917  19.005  14.787  14.441
 9493W        W81918   9.224  13.589  11.508
 9494W        W81919   3.008  10.655   4.077
 9495W        W81920  22.504  35.554  14.281
 9496W        W81921  39.042  36.313  12.541
 9497W        W81922  31.701  16.104  14.444
 9498W        W81923  14.378  10.796  12.027
 9499W        W81924   8.268  42.498   4.114
 9500W        W81925  42.501  35.146   3.651
 9501W        W81926  11.794  37.324  11.331
 9502W        W81927  34.914  27.062  12.129
 9503W        W81928   5.869  13.587   4.604
 9504W        W81929  12.702  22.382   2.691
 9505W        W81930  11.836   8.048   2.985
 9506W        W81931   3.330  40.674   2.838
 9507W        W81932  26.549  10.197  13.441
 9508W        W81933  26.234  33.635   0.413
 9509W        W81934  29.829   1.082  12.890
 9510W        W81935  25.445   7.643  11.544
 9511W        W81936   1.994  39.403   2.620
 9512W        W81937   3.810  21.744  11.644
 9513W        W81938  32.027  29.630   1.429
 9514W        W81939   2.012  28.403  12.218
 9515W        W81940   4.734   7.839   3.212
 9516W        W81941   3.750   1.941  14.768
 9517W        W81942  27.456  42.011   2.745
 9518W        W81943   4.493  37.941  14.401
 9519W        W81944  32.192  14.950   5.121
 9520W        W81945  11.887  30.620   0.913
 9521W        W81946  20.504  30.401  14.371
 9522W        W81947  23.525  26.486  12.996
 9523W        W81948   9.316  23.301  13.115
 9524W        W81949  20.180  31.047  13.807
 9525W        W81950  15.588  22.583   4.113
 9526W        W81951   2.358  38.500   2.566
 9527W        W81952  41.327  31.855   4.412
 9528W        W81953  36.004   0.527   4.198
 9529W        W81954  10.097  17.805  14.793
 9530W        W81955  11.104   6.379   0.321
 9531W        W81956  21.187  40.402  13.854
 9532W        W81957  26.977  11.715   3.828
 9533W        W81958   1.381  37.950  10.871
 9534W        W81959  11.205   1.551  11.013
 9535W        W81960  13.319  12.388  11.108
 9536W        W81961  33.138  15.771   4.510
 9537W        W81962  35.278   1.949  11.048
 9538W        W81963  42.925  33.370  13.835
 9539W        W81964  11.937  13.845  11.550
 9540W        W81965  39.292  29.000   2.118
 9541W        W81966  44.323  27.061   4.833
 9542W        W81967  29.900  34.038  12.961
 9543W        W81968  14.766   1.898   3.848
 9544W        W81969  35.957  43.022   4.155
 9545W        W81970   4.270  29.928  10.671
 9546W        W81971  26.980  32.716  10.737
 9547W        W81972   4.195   2.302  11.994
 9548W        W81973  33.127  36.894   1.502
 9549W        W81974  22.818  13.710  10.943
 9550W        W81975  29.570  26.344  11.884
 9551W        W81976  33.457  24.786  11.586
 9552W        W81977  28.928  34.876  14.397
 9553W        W81978   9.866  43.397  13.537
 9554W        W81979  21.539  40.083  14.976
 9555W        W81980   0.986  28.937  13.419
 9556W        W81981  10.790  30.021   1.244
 9557W        W81982  13.079  23.723  13.554
 9558W        W81983  40.917  15.042  12.813
 9559W        W81984  43.838  19.132   0.897
 9560W        W81985  43.904  23.766   4.413
 9561W        W81986  34.029  20.141  14.401
 9562W        W81987  28.244  19.659  11.158
 9563W        W81988  34.114   7.455   4.043
 9564W        W81989  27.954  30.504  11.933
 9565W        W81990   8.012  24.728   4.216
 9566W        W81991  31.007   0.445   3.336
 9567W        W81992  35.497  32.455   0.809
 9568W        W81993  18.546  30.173  12.929
 9569W        W81994  15.109  12.184  12.909
 9570W        W81995  44.203  38.835   0.609
 9571W        W81996  18.551  22.950  11.634
 9572W        W81997   9.136  12.718  11.137
 9573W        W81998   3.779  38.945  11.438
 9574W        W81999  23.077  31.427   0.753
 9575W        W82000   1.305  21.185  13.222
 9576W        W82001  23.788   3.463  12.516
 9577W        W82002   8.369   7.229  13.424
 9578W        W82003  20.556   9.693  13.662
 9579W        W82004  37.393  17.999   4.033
 9580W        W82005  25.180  44.770   0.958
 9581W        W82006  31.709  27.626   2.760
 9582W        W82007  35.586  36.046  14.747
 9583W        W82008  38.352  35.725  14.348
 9584W        W82009  10.653  40.477   4.187
 9585W        W82010  33.198   4.705  11.161
 9586W        W82011  25.812  10.632   0.613
 9587W        W82012  27.834   8.579  10.081
 9588W        W82013   6.633  33.043   4.234
 9589W        W82014  13.350  26.132  12.099
 9590W        W82015  19.071  27.659   0.237
 9591W        W82016  41.762  31.745  11.439
 9592W        W82017   8.936  29.592  13.417
 9593W        W82018   7.962  25.047   2.619
 9594W        W82019  16.135  39.078  12.533
 9595W        W82020  28.781  38.590  10.033
 9596W        W82021  10.788  43.265   4.679
 9597W        W82022  16.997  15.811   2.336
 9598W        W82023  40.725  25.715  12.557
 9599W        W82024  15.358  34.245   4.185
 9600W        W82025  13.606   1.741  11.934
 9601W        W82026  28.734   3.905   0.917
 9602W        W82027  24.120  40.744  12.568
 9603W        W82028   2.246  41.401  13.267
 9604W        W82029  27.852  43.476   4.189
 9605W        W82030  25.147  32.725   4.129
 9606W        W82031  36.647   5.907   2.324
 9607W        W82032  20.039  14.816  11.042
 9608W        W82033  35.838  29.534   1.833
 9609W        W82034  44.397  13.402   0.748
 9610W        W82035   3.830  29.487   0.920
 9611W        W82036  12.773  31.247   1.601
 9612W        W82037  38.856  18.275  14.726
 9613W        W82038  11.401  28.041   2.697
 9614W        W82039   3.987  17.155   2.724
 9615W        W82040   2.506  37.174  10.848
 9616W        W82041  33.812  41.083  14.418
 9617W        W82042   3.757  24.991   2.733
 9618W        W82043  14.179   0.326  14.355
 9619W        W82044  30.673  39.455   4.126
 9620W        W82045  19.674   1.364  12.459
 9621W        W82046  39.452  12.393   1.126
 9622W        W82047  15.474  12.408  13.244
 9623W        W82048  29.503  23.753  12.403
 9624W        W82049   4.663  38.330   3.890
 9625W        W82050  22.742  14.257   4.584
 9626W        W82051  42.059  26.047  13.520
 9627W        W82052  10.796  13.384   0.007
 9628W        W82053   8.392  37.636   2.456
 9629W        W82054  26.122  36.684   2.395
 9630W        W82055  17.605  41.621   3.603
 9631W        W82056  19.330   3.343  14.032
 9632W        W82057  12.815  22.291   0.738
 9633W        W82058  38.570  32.580   4.573
 9634W        W82059   2.203  24.167   4.195
 9635W        W82060  43.354  42.152  11.635
 9636W        W82061  16.846   9.475   3.794
 9637W        W82062  11.359  20.778  12.479
 9638W        W82063  33.583  15.531  11.546
 9639W        W82064  39.330  36.895  11.510
 9640W        W82065   7.004  25.735  10.631
 9641W        W82066   2.421  31.927  11.667
 9642W        W82067  39.261  23.816   4.182
 9643W        W82068  30.430  29.173  14.065
 9644W        W82069   2.791  18.840  13.220
 9645W        W82070   4.776  12.426   3.182
 9646W        W82071  15.230  16.989  14.647
 9647W        W82072  34.053  12.180   1.230
 9648W        W82073  18.547   0.841  12.254
 9649W        W82074  20.358   2.320   4.186
 9650W        W82075   7.277  39.729  14.911
 9651W        W82076  13.895  30.623   0.392
 9652W        W82077  27.958  27.193   4.673
 9653W        W82078  15.561  11.201   1.822
 9654W        W82079  12.567  31.119  12.491
 9655W        W82080  27.194  10.198  12.918
 9656W        W82081  43.711  32.564   2.691
 9657W        W82082  14.107   5.199  14.429
 9658W        W82083   1.491   5.991   2.420
 9659W        W82084   2.357  26.941  11.441
 9660W        W82085   8.380  19.274  13.401
 9661W        W82086  27.687  23.213   1.297
 9662W        W82087   1.826  17.524  11.577
 9663W        W82088  10.627  40.336  12.422
 9664W        W82089  43.502  36.100   4.619
 9665W        W82090  18.490  41.850   0.384
 9666W        W82091  10.464   8.499  11.603
 9667W        W82092  22.200   8.449   1.717
 9668W        W82093  24.925  43.952   2.322
 9669W        W82094   5.294  13.334   0.404
 9670W        W82095  38.403  23.715  12.384
 9671W        W82096  25.219   2.312  13.029
 9672W        W82097  22.022   7.796   0.410
 9673W        W82098   3.033   8.684  10.506
 9674W        W82099  12.612   7.399   2.141
 9675W        W82100  29.587   7.214   4.770
 9676W        W82101  25.995  15.735   0.886
 9677W        W82102  38.372   1.301  12.893
 9678W        W82103  40.623  10.530  14.368
 9679W        W82104  32.386  20.133   0.217
 9680W        W82105  39.716  38.370  13.431
 9681W        W82106  39.930  34.228   1.766
 9682W        W82107  18.750  18.941  11.321
 9683W        W82108  35.983  12.292   4.438
 9684W        W82109  33.969  10.236   3.563
 9685W        W82110   2.300  13.935   4.062
 9686W        W82111  10.196  26.655   1.731
 9687W        W82112  42.368  36.315  14.331
 9688W        W82113  27.494  43.018   2.834
 9689W        W82114  42.867   5.342   3.212
 9690W        W82115  36.279   6.455  12.147
 9691W        W82116  17.223  10.216  13.622
 9692W        W82117   1.197  12.375  13.321
 9693W        W82118  13.967   6.266   4.682
 9694W        W82119   0.228  38.598   4.105
 9695W        W82120   6.747   1.197  14.384
 9696W        W82121  15.103   8.728   3.771
 9697W        W82122  41.499  15.542  14.490
 9698W        W82123   8.226  43.475  10.439
 9699W        W82124  37.071  10.582  10.355
 9700W        W82125  37.833  17.349  10.682
 9701W        W82126   0.259  22.429  14.053
 9702W        W82127   8.163  23.814  13.956
 9703W        W82128  29.829   2.112   4.164
 9704W        W82129  16.828  18.493   3.896
 9705W        W82130  32.947  12.582   4.774
 9706W        W82131  30.163  30.047   2.546
 9707W        W82132   8.947  23.130  12.093
 9708W        W82133  36.404  33.906  10.822
 9709W        W82134  30.346   2.308  12.042
 9710W        W82135  18.202  43.908   4.868
 9711W        W82136  43.219  21.211   2.664
 9712W        W82137  20.479  27.052  13.912
 9713W        W82138  40.575  16.700   1.366
 9714W        W82139  44.054  11.312   1.199
 9715W        W82140  14.224  26.528  13.982
 9716W        W82141  33.494  23.711  14.881
 9717W        W82142  18.323  25.725  12.007
 9718W        W82143  27.766  28.023  10.244
 9719W        W82144   4.320  31.629   4.883
 9720W        W82145  12.202  16.717  12.573
 9721W        W82146  17.615  31.185  14.472
 9722W        W82147   6.645  29.123  10.755
 9723W        W82148  10.144  29.447  12.484
 9724W        W82149  11.665  11.184  14.919
 9725W        W82150   4.980  21.645  13.417
 9726W        W82151  19.147  41.183   2.810
 9727W        W82152   3.141  18.811   4.038
 9728W        W82153  36.522  40.608  11.026
 9729W        W82154  21.017  16.543  10.724
 9730W        W82155   1.742   2.807  11.196
 9731W        W82156  23.395   0.966   2.741
 9732W        W82157  40.880  38.452  11.517
 9733W        W82158  37.534  18.123  14.579
 9734W        W82159  43.510  23.855  11.972
 9735W        W82160  31.604   8.260   2.706
 9736W        W82161  32.998  32.611   1.343
 9737W        W82162  44.360  35.476  13.588
 9738W        W82163   3.748  16.092   0.820
 9739W        W82164  17.028  42.200   1.741
 9740W        W82165  23.020  27.904   0.655
 9741W        W82166   5.349   3.942  13.672
 9742W        W82167  10.310  41.479  11.594
 9743W        W82168  42.553  36.081  11.603
 9744W        W82169  24.209  40.035  13.350
 9745W        W82170  27.388  27.102   1.941
 9746W        W82171  32.703  14.294   3.774
 9747W        W82172  37.990  24.689   3.183
 9748W        W82173  38.426  23.171  11.719
 9749W        W82174  42.509  15.996  11.760
 9750W        W82175  33.960  15.496   4.123
 9751W        W82176  30.616  32.095   4.126
 9752W        W82177  12.591  23.063   3.864
 9753W        W82178  42.730  30.606  10.699
 9754W        W82179  43.853  15.456  14.169
 9755W        W82180  24.560  32.686   2.980
 9756W        W82181  33.166  36.535  14.542
 9757W        W82182  15.189  16.250  10.773
 9758W        W82183   5.046  14.622  14.809
 9759W        W82184   3.886  12.745   2.134
 9760W        W82185  20.045   6.408   1.708
 9761W        W82186  15.743  27.393   0.449
 9762W        W82187   0.312  37.562   4.163
 9763W        W82188  15.662  19.587  14.775
 9764W        W82189  26.958  15.233   2.318
 9765W        W82190  15.248  24.792  10.733
 9766W        W82191  29.195  28.084  12.080
 9767W        W82192  26.529  41.246  12.601
 9768W        W82193   5.838  32.963   0.663
 9769W        W82194  32.085  10.378   2.440
 9770W        W82195  25.962  20.200  11.897
 9771W        W82196  11.000  13.834   0.221
 9772W        W82197  17.782  14.965   1.211
 9773W        W82198  32.414  34.879  14.430
 9774W        W82199  22.539  19.095  11.246
 9775W        W82200  16.840   3.208   4.198
 9776W        W82201  41.604   6.859  10.846
 9777W        W82202  15.304  34.982  12.179
 9778W        W82203  17.317   5.654   1.344
 9779W        W82204  30.689  44.105   1.397
 9780W        W82205  19.155  34.586   0.057
 9781W        W82206  41.512   9.257  14.536
 9782W        W82207  40.449  25.071   4.341
 9783W        W82208  17.805  38.846   3.145
 9784W        W82209  26.608  19.974  12.419
 9785W        W82210  17.964  11.933   0.441
 9786W        W82211  35.698   4.772   4.446
 9787W        W82212  38.041   3.077   2.307
 9788W        W82213   9.909  20.715   4.173
 9789W        W82214  22.455   1.591  12.030
 9790W        W82215  13.835  38.801   3.248
 9791W        W82216   2.911  13.918  13.070
 9792W        W82217  16.031  41.351  14.220
 9793W        W82218  26.615   3.406   1.930
 9794W        W82219  27.432  25.439   3.627
 9795W        W82220  12.146  35.655   4.693
 9796W        W82221  23.766  36.437  14.939
 9797W        W82222   4.932   7.848   4.559
 9798W        W82223  39.053  17.025  12.326
 9799W        W82224  43.808  12.723  14.895
 9800W        W82225  18.396  40.710   4.171
 9801W        W82226   3.049   9.314   2.372
 9802W        W82227  26.436  10.416  12.519
 9803W        W82228  25.678   8.945  14.287
 9804W        W82229  28.465  38.316   3.732
 9805W        W82230  32.690   1.913  13.830
 9806W        W82231   3.048   0.934   4.042
 9807W        W82232  17.712  10.859   2.254
 9808W        W82233  36.803  28.212  10.523
 9809W        W82234  35.784  31.037   0.963
 9810W        W82235  34.027  23.913  13.043
 9811W        W82236  24.530  35.539   2.719
 9812W        W82237  20.522  21.276   0.470
 9813W        W82238  40.256  26.171  10.656
 9814W        W82239  19.655   5.191   4.592
 9815W        W82240  17.012  44.470  14.893
 9816W        W82241  27.661  18.713  13.013
 9817W        W82242   0.894  28.364  10.818
 9818W        W82243  43.911  35.363  10.692
 9819W        W82244  31.903  22.585  11.463
 9820W        W82245  29.111  21.667   2.734
 9821W        W82246  11.694  34.415  11.570
 9822W        W82247  36.417  31.158  13.919
 9823W        W82248  25.794  15.886  12.018
 9824W        W82249  41.342  13.962  11.037
 9825W        W82250  42.695  28.679  11.622
 9826W        W82251  36.123  10.832   4.226
 9827W        W82252  22.071  18.057   2.211
 9828W        W82253  39.287   9.723   0.421
 9829W        W82254  23.793  30.036  10.762
 9830W        W82255  24.711  20.988   2.282
 9831W        W82256   5.891   2.878  11.063
 9832W        W82257  30.993  22.643   3.092
 9833W        W82258  34.447  15.082   3.439
 9834W        W82259  33.958   5.224   4.983
 9835W        W82260  34.437  33.174  13.897
 9836W        W82261  14.723  31.853  10.822
 9837W        W82262  19.218  23.990   3.573
 9838W        W82263  19.183  12.000   1.798
 9839W        W82264  26.906  31.956  12.996
 9840W        W82265   7.638   3.272  12.716
 9841W        W82266  28.945  23.731   3.091
 9842W        W82267  15.131  29.054   0.918
 9843W        W82268  16.404  11.157   0.710
 9844W        W82269   5.203   3.602  14.636
 9845W        W82270  29.458  23.827   1.458
 9846W        W82271  12.825  25.430   3.143
 9847W        W82272  32.072  33.849  12.967
 9848W        W82273  11.768  17.659   2.579
 9849W        W82274  31.934  28.529  13.062
 9850W        W82275  42.870   6.818  12.514
 9851W        W82276  43.835   0.942  10.677
 9852W        W82277   3.725  40.526   1.383
 9853W        W82278  23.677  44.975  12.090
 9854W        W82279  16.589  25.658   2.303
 9855W        W82280  40.861  19.695  12.523
 9856W        W82281  34.831  20.137  14.931
 9857W        W82282  32.694  14.985  11.852
 9858W        W82283   5.400  14.621  13.861
 9859W        W82284  41.298  30.972   4.450
 9860W        W82285  30.718  10.907  11.766
 9861W        W82286   1.179  36.489  14.984
 9862W        W82287  30.590  41.082   1.407
 9863W        W82288  38.806  27.413   0.029
 9864W        W82289   9.326  11.793  14.504
 9865W        W82290  36.069   3.299   4.051
 9866W        W82291  31.169  41.901   1.801
 9867W        W82292   6.286  25.141   4.632
 9868W        W82293  15.741   6.256   1.862
 9869W        W82294   0.292  30.437   2.781
 9870W        W82295  14.380  41.858  13.801
 9871W        W82296  22.529  16.580  12.572
 9872W        W82297  30.092  29.610   4.382
 9873W        W82298   3.652  38.060  12.128
 9874W        W82299  36.623  14.398   2.060
 9875W        W82300  17.963  27.711   1.685
 9876W        W82301  44.044  12.482  11.653
 9877W        W82302  42.719  33.210   4.450
 9878W        W82303  30.515  22.599  14.326
 9879W        W82304  32.947  22.581  11.588
 9880W        W82305   0.268  35.015   4.085
 9881W        W82306  11.212  28.126   3.202
 9882W        W82307  32.026  28.959   1.258
 9883W        W82308   7.900  29.643   4.720
 9884W        W82309  35.047  42.282   2.162
 9885W        W82310  41.942  40.888  14.447
 9886W        W82311  32.000  21.263  10.266
 9887W        W82312  11.288  12.860   0.472
 9888W        W82313  36.604  44.217  10.479
 9889W        W82314   1.986   7.131   0.928
 9890W        W82315  37.600   1.165   0.335
 9891W        W82316  31.719  32.593  13.507
 9892W        W82317  20.356   0.396   4.653
 9893W        W82318   1.943  14.225   1.320
 9894W        W82319  29.997  40.540   0.847
 9895W        W82320  40.497  39.077  12.485
 9896W        W82321  32.457  30.078   4.387
 9897W        W82322   2.636   3.852   4.150
 9898W        W82323   8.884  43.742  14.426
 9899W        W82324  13.779  31.309  11.178
 9900W        W82325  26.881  41.812   0.800
 9901W        W82326  41.278  26.491   2.697
 9902W        W82327  22.431  34.529   3.453
 9903W        W82328   6.202  23.169  13.532
 9904W        W82329   9.614  42.405   4.578
 9905W        W82330   1.281  23.077  12.182
 9906W        W82331  28.427  30.728   2.107
 9907W        W82332  15.532  34.079  13.458
 9908W        W82333  28.981  24.167   0.179
 9909W        W82334   0.063  19.169   4.205
 9910W        W82335  22.882   9.452   3.251
 9911W        W82336   9.869  40.900  12.127
 9912W        W82337  40.394  44.265   1.228
 9913W        W82338  44.880  28.633   1.430
 9914W        W82339  17.117  25.041   0.711
 9915W        W82340  43.415   3.973  14.623
 9916W        W82341   4.709   0.758  11.052
 9917W        W82342  38.752  21.130   9.865
 9918W        W82343  30.482  38.899  11.980
 9919W        W82344  35.507  22.220  11.139
 9920W        W82345  24.771  43.438   4.212
 9921W        W82346  18.988  17.735  11.122
 9922W        W82347  11.196  20.071   0.120
 9923W        W82348  38.386  12.187   2.206
 9924W        W82349  23.376  14.622  11.224
 9925W        W82350  44.425  37.538   0.898
 9926W        W82351  27.496  29.860  12.333
 9927W        W82352  17.720  32.608   2.427
 9928W        W82353  44.628  14.583   0.992
 9929W        W82354  18.795   5.609  14.696
 9930W        W82355  39.780  15.377   4.415
 9931W        W82356   6.786  24.252  14.565
 9932W        W82357   8.507  37.566  12.618
 9933W        W82358  25.011  13.708   1.366
 9934W        W82359  12.867  32.663  11.523
 9935W        W82360  29.561  30.173   0.276
 9936W        W82361  43.593  30.622   1.503
 9937W        W82362  17.162  41.869   4.761
 9938W        W82363   1.246  18.647  14.006
 9939W        W82364  24.853  25.852   3.124
 9940W        W82365   4.251  37.257  11.655
 9941W        W82366  18.714  43.061   2.666
 9942W        W82367  25.437  16.751   1.732
 9943W        W82368  37.539   8.285  11.161
 9944W        W82369  23.451  27.554   1.760
 9945W        W82370  27.937  24.540   4.537
 9946W        W82371  30.389  24.154  11.961
 9947W        W82372  20.133  15.786   2.307
 9948W        W82373  44.490  41.454   1.664
 9949W        W82374  31.615  23.039  11.434
 9950W        W82375  10.068   3.295   0.324
 9951W        W82376  40.370   6.506   0.243
 9952W        W82377  42.070   8.391   4.836
 9953W        W82378  15.118  31.921   1.798
 9954W        W82379  13.866  22.745   2.274
 9955W        W82380  15.371  27.459   9.993
 9956W        W82381   7.336  19.574  13.881
 9957W        W82382  27.512  12.491   0.154
 9958W        W82383  11.107  34.435   4.453
 9959W        W82384  39.775  36.859   0.946
 9960W        W82385  44.547  32.439  10.693
 9961W        W82386  32.688  35.412  10.420
 9962W        W82387  26.061  37.635   2.257
 9963W        W82388   8.678   6.605  11.135
 9964W        W82389   1.320  35.816   0.525
 9965W        W82390  25.256  21.303  13.073
 9966W        W82391  15.130  13.385  12.609
 9967W        W82392  40.327   1.881   1.194
 9968W        W82393  16.706  25.986  11.035
 9969W        W82394  33.490  37.346   1.382
 9970W        W82395  39.924  14.124   1.928
 9971W        W82396  41.923   2.689  12.172
 9972W        W82397  22.503  13.672  10.546
 9973W        W82398   7.844  11.395  11.355
 9974W        W82399  26.060  38.150   2.333
 9975W        W82400  24.532  39.100   3.345
 9976W        W82401  44.349  26.635  10.665
 9977W        W82402  24.446  35.889   1.279
 9978W        W82403  39.955  11.119  11.905
 9979W        W82404  41.622   9.439  11.516
 9980W        W82405  10.943   3.860  12.101
 9981W        W82406  12.812  12.744   3.272
 9982W        W82407  43.712  40.613   4.368
 9983W        W82408  39.507  43.953   4.402
 9984W        W82409  22.224  11.427   2.302
 9985W        W82410  11.632  44.038   4.611
 9986W        W82411  27.690  39.726  13.422
 9987W        W82412  21.773  29.772  11.086
 9988W        W82413  20.687  44.900  12.870
 9989W        W82414  31.041  17.105  14.073
 9990W        W82415   7.793   0.173  14.462
 9991W        W82416  10.633  35.051  14.937
 9992W        W82417  13.355  31.183  10.852
 9993W        W82418  43.767  31.611   0.490
 9994W        W82419  19.822   2.751   1.435
 9995W        W82420  11.672  10.577  13.562
 9996W        W82421   3.461  14.358   1.330
 9997W        W82422  31.161  15.312  12.644
 9998W        W82423   1.514  32.910   0.326
 9999W        W82424  38.949  12.099  11.940
10000W        W82425   8.291  12.225   1.314
10001W        W82426  16.279  44.442  13.823
10002W        W82427  20.563   2.619   4.571
10003W        W82428  13.158  22.040  12.019
10004W        W82429  25.773  33.172   4.181
10005W        W82430   0.982  30.018  11.118
10006W        W82431  26.680  24.926  12.201
10007W        W82432  31.427  24.187   1.585
10008W        W82433   8.643  40.961   0.283
10009W        W82434  23.923  17.593  10.785
10010W        W82435   4.525  40.746  13.012
10011W        W82436  19.019  20.709   0.944
10012W        W82437   0.740  11.395   1.506
10013W        W82438  18.161  35.495  14.975
10014W        W82439  28.681  44.979   1.738
10015W        W82440  42.287   5.204  12.870
10016W        W82441   3.738   0.947   0.053
10017W        W82442  15.654  38.094  10.188
10018W        W82443   7.689   7.369  13.957
10019W        W82444   6.461   6.093   5.067
10020W        W82445   8.466  25.167   0.244
10021W        W82446  39.385  41.928  11.615
10022W        W82447   4.736  41.773   4.279
10023W        W82448   5.864  22.943  10.515
10024W        W82449   1.406  36.010   0.056
10025W        W82450   4.352  44.974   1.403
10026W        W82451   1.561  33.674  12.290
10027W        W82452  25.515   9.188  10.942
10028W        W82453  27.207   2.965  10.768
10029W        W82454  40.756  28.169   3.621
10030W        W82455  21.705  34.371  12.603
10031W        W82456  36.124  10.636   2.345
10032W        W82457  35.844  18.054  11.544
10033W        W82458   6.755   0.792  12.726
10034W        W82459  24.950  32.599  13.353
10035W        W82460  36.908  44.177   1.557
10036W        W82461  16.716  27.582   0.365
10037W        W82462  13.918  37.888  14.918
10038W        W82463  22.138  33.221  11.229
10039W        W82464  28.892  41.428  14.861
10040W        W82465  21.568  12.679  10.512
10041W        W82466  24.588  43.764   0.928
10042W        W82467  21.053  41.083  12.966
10043W        W82468  40.158   5.423   4.508
10044W        W82469  19.118  30.433   0.212
10045W        W82470  38.112  30.619   1.083
10046W        W82471  34.389  38.829  14.960
10047W        W82472  18.675  43.591  13.590
10048W        W82473  41.795  34.714  12.624
10049W        W82474  22.443  41.513  11.818
10050W        W82475  11.630   8.318   4.197
10051W        W82476  31.608   0.927  13.843
10052W        W82477  34.991  20.284   3.524
10053W        W82478   0.244   3.978  13.800
10054W        W82479   7.206  15.597   1.765
10055W        W82480  36.119  43.911  11.658
10056W        W82481  22.246  12.905  13.782
10057W        W82482  10.162  33.319  12.505
10058W        W82483  36.491  43.111   1.436
10059W        W82484  28.971  22.900  13.181
10060W        W82485  29.173  38.383  13.588
10061W        W82486  10.926  26.064  13.452
10062W        W82487  27.966  27.483   0.199
10063W        W82488  24.863  35.768   4.240
10064W        W82489  34.645  32.093  13.816
10065W        W82490   8.908   2.417  10.766
10066W        W82491   1.266  29.597  14.587
10067W        W82492  12.010  43.381  13.793
10068W        W82493  38.549   1.310  11.364
10069W        W82494  15.456  41.387  10.468
10070W        W82495  17.718  17.863   4.801
10071W        W82496  12.694  14.304  13.047
10072W        W82497  11.138  32.478  13.135
10073W        W82498   7.216   1.781   3.803
10074W        W82499   8.396  41.688  12.692
10075W        W82500  13.334  34.190   3.658
10076W        W82501  36.522  39.231   0.804
10077W        W82502  28.547  12.185  10.726
10078W        W82503  44.805  31.172   2.625
10079W        W82504  30.548  13.973   0.460
10080W        W82505  26.452  24.609   4.525
10081W        W82506  28.484  34.412   4.363
10082W        W82507  16.096  20.944  12.061
10083W        W82508   0.381  31.887  12.926
10084W        W82509  18.621  28.721  13.503
10085W        W82510   7.794  11.007   1.605
10086W        W82511  12.621  13.458   1.855
10087W        W82512  21.654  17.290  13.491
10088W        W82513   6.280   4.338  14.942
10089W        W82514  22.609  43.396   4.844
10090W        W82515  19.410  26.280  13.093
10091W        W82516   7.869  18.698  14.630
10092W        W82517   1.435   3.506   2.071
10093W        W82518  33.852  38.855  14.813
10094W        W82519  19.565  17.800   4.284
10095W        W82520   5.892  44.501  13.050
10096W        W82521   4.838  41.740  10.771
10097W        W82522   3.480  34.583  13.793
10098W        W82523  19.738   3.889   2.800
10099W        W82524  31.544  34.850  14.859
10100W        W82525  37.931  27.206   0.422
10101W        W82526  30.077  28.091   1.804
10102W        W82527   1.260  11.247  14.696
10103W        W82528  34.441  40.493  14.281
10104W        W82529  15.122   9.733   1.753
10105W        W82530  38.057  20.684   4.353
10106W        W82531   3.716   4.957   2.709
10107W        W82532  15.050  28.978   3.297
10108W        W82533  33.448   0.300  14.963
10109W        W82534   3.021  13.864   2.749
10110W        W82535   3.711  22.035  14.380
10111W        W82536  14.145  29.144   3.264
10112W        W82537  32.123  22.655   1.652
10113W        W82538  25.506  26.229   4.142
10114W        W82539  20.081  42.979   1.446
10115W        W82540  29.920  19.031   0.825
10116W        W82541   0.745  11.739   3.084
10117W        W82542  15.268   5.410   4.669
10118W        W82543  14.339  40.813   3.399
10119W        W82544  23.012  12.617   4.231
10120W        W82545  13.658   1.038   4.566
10121W        W82546  40.368   9.115   0.422
10122W        W82547  19.228  31.961  14.588
10123W        W82548  29.174  26.010  12.956
10124W        W82549  32.140  25.382  13.522
10125W        W82550   3.046   8.398  12.672
10126W        W82551   2.847   1.057  14.525
10127W        W82552  29.155  26.291  10.675
10128W        W82553  10.158  38.602   3.620
10129W        W82554  31.386   3.719  13.777
10130W        W82555  39.042  39.461  12.967
10131W        W82556  35.555  35.545   1.537
10132W        W82557   2.544  17.915  11.108
10133W        W82558  31.063   6.185   3.075
10134W        W82559  28.376   7.626   2.919
10135W        W82560  20.737  14.368   1.504
10136W        W82561  12.459  34.832  11.185
10137W        W82562  34.977  25.588  11.133
10138W        W82563  27.598  12.339  10.723
10139W        W82564  28.500  37.595  11.986
10140W        W82565  22.154  41.173  14.434
10141W        W82566  30.546   3.974   1.340
10142W        W82567  12.803  37.850   1.294
10143W        W82568  30.945   1.029   1.983
10144W        W82569  28.918   1.532  11.170
10145W        W82570   9.883   8.862   3.651
10146W        W82571  23.743  43.865  11.718
10147W        W82572   1.477  39.278   1.476
10148W        W82573  39.847  17.371  10.824
10149W        W82574   5.154  21.837  11.568
10150W        W82575  41.963  40.538   2.212
10151W        W82576   7.923  20.617  13.488
10152W        W82577   9.682  11.988  11.074
10153W        W82578  15.711   9.266   3.203
10154W        W82579  29.750  26.633  12.461
10155W        W82580  13.826  21.570   0.873
10156W        W82581  17.541  43.516  13.038
10157W        W82582  18.113   9.898  13.560
10158W        W82583  24.103  41.771  11.537
10159W        W82584  25.918  19.379  12.529
10160W        W82585   4.265  21.593  10.380
10161W        W82586  44.888  29.883  12.963
10162W        W82587   4.811   3.674  14.278
10163W        W82588  34.333   3.169   3.707
10164W        W82589   6.698  34.302   3.625
10165W        W82590  16.550  31.511  12.121
10166W        W82591  36.358  29.887  12.631
10167W        W82592  18.138   4.875   3.621
10168W        W82593   7.874  18.170  12.390
10169W        W82594  38.321   0.944  10.549
10170W        W82595  27.964   1.503   2.396
10171W        W82596  11.843   3.772  10.775
10172W        W82597  25.767  23.258   0.618
10173W        W82598  20.109   8.838   2.284
10174W        W82599  25.659  29.903   4.099
10175W        W82600  22.671  36.163  10.277
10176W        W82601  31.291  28.076  14.484
10177W        W82602   4.964  24.742   2.261
10178W        W82603   5.341   2.547  12.398
10179W        W82604   6.218   4.157  13.518
10180W        W82605  13.829  40.107  14.294
10181W        W82606   0.978  29.035   0.052
10182W        W82607   4.924  14.810  11.955
10183W        W82608  34.863  19.215   1.238
10184W        W82609  36.845  21.701   1.778
10185W        W82610  14.737  18.253  11.078
10186W        W82611  30.400  42.767   2.252
10187W        W82612  23.723   6.833   2.721
10188W        W82613   4.412  16.582  12.669
10189W        W82614  32.961  11.773  14.036
10190W        W82615  19.576  23.070  10.637
10191W        W82616  14.064   4.771   4.406
10192W        W82617  43.003  23.026  12.027
10193W        W82618  42.813  43.362   3.072
10194W        W82619  36.964   7.911   3.828
10195W        W82620   7.291  12.409  13.469
10196W        W82621   8.686  20.777  12.630
10197W        W82622   1.301  15.740  12.963
10198W        W82623  30.285  21.976   4.157
10199W        W82624  35.498  23.983   2.430
10200W        W82625  41.649   8.241  14.914
10201W        W82626  21.190  25.494  11.218
10202W        W82627   3.362  27.129  12.480
10203W        W82628  26.730  14.079  12.063
10204W        W82629  30.750  30.881   4.907
10205W        W82630  39.584   2.762   1.226
10206W        W82631  35.961  22.330  10.888
10207W        W82632  14.474   8.534  11.974
10208W        W82633  32.684  35.818   4.084
10209W        W82634  38.905  38.031   0.886
10210W        W82635  34.411  14.343   4.183
10211W        W82636  31.646  33.122  12.112
10212W        W82637  39.909  41.791   3.087
10213W        W82638  20.621   5.710  13.014
10214W        W82639  11.093   8.282   2.467
10215W        W82640  37.631   6.837  10.219
10216W        W82641  22.568  41.357   4.601
10217W        W82642  30.680   1.266   3.098
10218W        W82643  42.266  13.612   4.872
10219W        W82644  33.920  42.485   3.633
10220W        W82645  43.018  13.354   0.463
10221W        W82646  27.829  26.284  11.373
10222W        W82647   2.530  30.921   2.744
10223W        W82648  34.337  40.933   2.241
10224W        W82649  30.923   7.291  13.568
10225W        W82650  44.989  30.601   0.342
10226W        W82651   4.933  43.791   3.629
10227W        W82652   0.919  17.317  13.846
10228W        W82653  31.179  42.811  10.003
10229W        W82654   3.192  37.490   4.236
10230W        W82655  31.755  25.406   5.151
10231W        W82656   2.418   0.933  14.294
10232W        W82657  10.221  25.974  10.957
10233W        W82658  30.424  35.061  14.355
10234W        W82659   5.511  25.945   1.710
10235W        W82660  24.393  44.861   4.252
10236W        W82661  32.760  34.511  14.327
10237W        W82662  33.690  20.522  14.454
10238W        W82663   4.676   7.374  14.370
10239W        W82664  23.707  10.234   0.947
10240W        W82665  35.174  24.933  10.449
10241W        W82666  14.280  19.532   4.623
10242W        W82667   0.392   8.064   0.262
10243W        W82668  19.632  26.380  14.364
10244W        W82669  32.821  14.041  12.967
10245W        W82670   8.747  38.911   1.909
10246W        W82671  44.936  17.554   2.356
10247W        W82672  21.316   5.771   4.560
10248W        W82673  36.796   6.859   4.380
10249W        W82674  23.679   1.472  14.308
10250W        W82675  12.217  14.318  12.317
10251W        W82676  36.589  25.529   0.377
10252W        W82677  43.305  26.058   4.609
10253W        W82678  31.980  35.373   4.483
10254W        W82679  17.218  41.265  12.089
10255W        W82680  16.492  12.376   3.213
10256W        W82681  24.254  43.804  11.639
10257W        W82682  27.463  12.918   2.120
10258W        W82683  44.527  20.568  13.340
10259W        W82684  16.755  27.436  12.188
10260W        W82685  40.402  42.025   3.082
10261W        W82686  11.361  26.185  11.616
10262W        W82687   0.093  15.555   2.208
10263W        W82688  10.561  27.388   1.344
10264W        W82689  10.722  40.656   4.709
10265W        W82690  26.774  41.338  14.425
10266W        W82691   2.213  16.297  12.541
10267W        W82692  38.914  41.365  12.194
10268W        W82693   1.326  25.445  10.915
10269W        W82694  25.076  14.958   3.253
10270W        W82695  30.854   8.654  13.467
10271W        W82696  32.629  23.146   0.361
10272W        W82697   1.676   9.479  12.102
10273W        W82698   9.775  26.558   0.338
10274W        W82699  17.305  20.632   1.885
10275W        W82700   4.326  19.139   1.525
10276W        W82701  38.086  30.061   2.280
10277W        W82702   6.434   9.728   1.510
10278W        W82703  18.776  44.924  12.397
10279W        W82704  17.240  14.085   3.562
10280W        W82705  26.140   8.730  14.088
10281W        W82706  15.677  32.954  12.469
10282W        W82707  29.828  28.530  14.357
10283W        W82708  31.324  10.258   1.354
10284W        W82709  16.171  20.002   3.231
10285W        W82710  29.340  10.947  11.982
10286W        W82711  38.530  15.234  12.316
10287W        W82712  18.728  23.153   3.835
10288W        W82713  22.113   4.285   2.797
10289W        W82714  27.491  37.727   0.493
10290W        W82715   6.414  36.571  14.917
10291W        W82716  17.367   0.513  12.861
10292W        W82717   0.006  32.116   0.267
10293W        W82718  10.052  25.533   3.216
10294W        W82719   7.711  43.606   2.369
10295W        W82720  12.187  34.826   2.817
10296W        W82721  26.940  12.675  11.525
10297W        W82722  31.835   9.375   3.402
10298W        W82723  33.810   8.414   2.069
10299W        W82724  14.837  41.792  11.485
10300W        W82725  18.657  19.618  14.276
10301W        W82726  21.175  10.938   2.716
10302W        W82727  21.007   9.174   1.769
10303W        W82728   3.393   9.130   0.435
10304W        W82729  20.010  38.355  14.946
10305W        W82730  36.163  25.520   3.836
10306W        W82731  19.476   2.750  13.827
10307W        W82732  29.379  19.655   1.738
10308W        W82733  33.639  39.442   3.507
10309W        W82734   3.274  28.731   4.321
10310W        W82735  15.432  44.017  14.068
10311W        W82736  38.590  21.986   4.577
10312W        W82737  25.012  36.850   2.719
10313W        W82738  39.870  21.554  10.707
10314W        W82739   8.873  37.426   2.555
10315W        W82740  27.175  14.305   3.621
10316W        W82741  15.599  42.563  14.217
10317W        W82742  10.803   6.088   4.809
10318W        W82743  36.429   4.470   0.795
10319W        W82744  21.521  29.127   4.101
10320W        W82745  13.179  44.318   0.377
10321W        W82746  37.299  18.024  10.407
10322W        W82747   4.107  25.789   2.440
10323W        W82748  42.385   5.504  11.528
10324W        W82749  32.667  19.565   5.040
10325W        W82750  21.098  35.616  13.402
10326W        W82751  14.413  28.471  11.425
10327W        W82752  23.474  32.626  12.377
10328W        W82753   6.232  22.972   4.563
10329W        W82754  30.500  29.065  13.100
10330W        W82755  22.608  42.521   0.365
10331W        W82756   7.637  13.702   0.731
10332W        W82757  36.575  20.672  10.648
10333W        W82758  19.492  33.906  14.963
10334W        W82759  22.381   2.874   2.432
10335W        W82760  24.182  23.052   0.384
10336W        W82761  10.220   7.635   0.537
10337W        W82762  35.049  27.044   3.760
10338W        W82763  24.969  18.996   4.196
10339W        W82764  21.428  35.239   2.244
10340W        W82765  17.629  10.777   4.036
10341W        W82766  41.480   4.224  12.812
10342W        W82767  11.825  31.131   2.400
10343W        W82768  27.113   8.665   2.898
10344W        W82769   8.367  20.727   4.080
10345W        W82770  25.067   0.932  11.207
10346W        W82771  34.819  39.022   0.932
10347W        W82772  36.973  19.086  14.349
10348W        W82773  37.945   9.678   3.200
10349W        W82774  17.539  20.706  13.330
10350W        W82775  35.790   8.862   1.189
10351W        W82776  19.673  44.483   0.532
10352W        W82777  10.211   2.292  14.731
10353W        W82778  33.392  37.967  13.414
10354W        W82779  17.341  44.956  12.024
10355W        W82780  42.805  42.784  13.444
10356W        W82781  31.714  34.643  11.633
10357W        W82782  36.377  24.433  13.034
10358W        W82783  24.009   0.305   1.491
10359W        W82784  30.418  40.904   2.462
10360W        W82785  39.917   1.801  10.751
10361W        W82786  18.788  35.027   4.205
10362W        W82787  36.822  24.404  13.439
10363W        W82788   2.193   6.867  14.978
10364W        W82789  37.374  21.266   5.190
10365W        W82790  16.568  20.224   2.789
10366W        W82791  33.891  23.679   0.755
10367W        W82792  16.685  39.950  12.915
10368W        W82793  10.322  20.137   1.772
10369W        W82794  38.969  16.345   9.909
10370W        W82795  37.329  30.683  13.853
10371W        W82796  27.120   2.155   0.350
10372W        W82797  35.293  38.360   2.778
10373W        W82798  40.741  23.557  13.566
10374W        W82799  44.627  26.938   2.411
10375W        W82800   2.655  31.678   4.696
10376W        W82801  15.691  42.983   4.021
10377W        W82802  44.347  26.705   0.664
10378W        W82803   1.426  11.881   2.957
10379W        W82804  10.471  37.396   2.653
10380W        W82805  30.877  14.648  12.993
10381W        W82806  22.015   0.495  13.974
10382W        W82807  38.944   3.672  10.462
10383W        W82808   1.286  28.652   2.377
10384W        W82809  10.848  33.856   4.421
10385W        W82810  22.660  20.324   4.607
10386W        W82811  10.253  36.859  12.584
10387W        W82812  40.443  24.032   1.402
10388W        W82813  37.956   2.898   4.665
10389W        W82814  42.471  31.052  10.913
10390W        W82815  31.630  31.475  11.465
10391W        W82816  40.104   0.876   3.631
10392W        W82817  28.449  19.134  12.934
10393W        W82818  19.548  12.602  12.159
10394W        W82819   1.854   1.791  10.574
10395W        W82820  15.121   1.305   4.275
10396W        W82821  14.560   7.193   3.172
10397W        W82822  37.347  15.331   3.770
10398W        W82823  10.421  25.984  13.500
10399W        W82824  22.286  15.315  13.187
10400W        W82825   2.870  33.524  14.389
10401W        W82826   0.775  17.723   0.869
10402W        W82827  11.221   2.935  10.765
10403W        W82828  36.368  23.873   1.789
10404W        W82829   0.363  19.045   3.805
10405W        W82830   2.651  17.288  13.765
10406W        W82831  33.606  35.544  10.492
10407W        W82832   0.799   5.033   3.374
10408W        W82833  18.840  19.092  14.894
10409W        W82834  19.231  31.021  11.672
10410W        W82835  12.208  20.596  11.104
10411W        W82836  19.296   8.639  10.646
10412W        W82837  30.690   9.789   2.187
10413W        W82838  27.544  41.867   4.129
10414W        W82839  44.708  40.776  14.814
10415W        W82840  40.939  24.073   0.677
10416W        W82841   5.133  17.605  12.083
10417W        W82842  15.614  22.562  10.504
10418W        W82843  24.704  24.747   0.517
10419W        W82844   2.261  31.896   4.087
10420W        W82845   6.207  29.247   2.235
10421W        W82846  40.356  33.531  12.634
10422W        W82847  43.737  24.180  14.368
10423W        W82848  17.443  13.065  14.776
10424W        W82849  33.408  41.088   2.196
10425W        W82850  39.001   1.474   1.374
10426W        W82851  15.719  36.576  12.983
10427W        W82852  40.930   1.906   2.364
10428W        W82853  33.210  29.076  11.459
10429W        W82854  21.634   5.916  12.957
10430W        W82855  34.814   7.433  11.584
10431W        W82856  15.655  29.844   1.112
10432W        W82857  15.671   0.253  14.502
10433W        W82858  34.652   8.332   1.842
10434W        W82859  14.557  44.934  11.467
10435W        W82860  40.998  34.139  11.514
10436W        W82861   4.796  12.266  13.588
10437W        W82862   6.136   7.634  10.286
10438W        W82863  25.899  36.584  11.612
10439W        W82864   3.120  11.714   0.385
10440W        W82865  29.416  22.728  14.394
10441W        W82866  41.897  40.378  12.909
10442W        W82867  44.357  11.673  11.635
10443W        W82868  31.936  17.778  10.253
10444W        W82869  15.603  34.559  14.444
10445W        W82870  34.181  22.150   0.301
10446W        W82871  36.180  44.043  12.514
10447W        W82872  25.261   4.437  11.075
10448W        W82873  13.922   1.900   2.142
10449W        W82874  42.801   0.820  11.566
10450W        W82875  38.978  42.489  11.516
10451W        W82876   8.424  44.672  12.978
10452W        W82877  26.125  30.881   0.708
10453W        W82878  26.670  29.902   4.926
10454W        W82879  30.429  23.251  13.451
10455W        W82880  18.272  11.346   4.752
10456W        W82881  40.443  25.941  14.374
10457W        W82882  21.401   8.618   3.744
10458W        W82883  42.504  30.673  13.362
10459W        W82884  29.071  21.658   5.511
10460W        W82885  30.041  32.031  12.274
10461W        W82886   5.325  43.075   2.661
10462W        W82887   4.251  25.578  10.944
10463W        W82888  29.963  18.716   4.677
10464W        W82889  19.585  24.467  14.443
10465W        W82890   9.261   7.164   1.217
10466W        W82891  21.228  35.885   1.282
10467W        W82892  21.554  20.193  12.988
10468W        W82893   8.963  26.033  11.564
10469W        W82894  29.990  30.589  13.462
10470W        W82895  12.610  42.409   2.942
10471W        W82896  36.456   6.368   2.217
10472W        W82897  23.171  44.230  13.228
10473W        W82898  25.465  32.096   5.031
10474W        W82899  36.233   3.279  14.899
10475W        W82900  10.284  33.313   0.398
10476W        W82901  12.181   5.932  11.709
10477W        W82902  11.254   5.329  12.868
10478W        W82903  44.770  38.400  13.969
10479W        W82904  23.194  33.438   4.120
10480W        W82905  18.695   3.235  10.511
10481W        W82906  40.773   4.602  12.220
10482W        W82907  17.079  29.839   2.155
10483W        W82908  23.298   0.819  11.616
10484W        W82909  43.733   0.887   0.036
10485W        W82910  15.868  39.031   3.339
10486W        W82911  29.217   7.192   2.825
10487W        W82912  13.395  27.213  11.413
10488W        W82913   8.305  13.742  10.745
10489W        W82914   3.411  27.918   1.694
10490W        W82915  26.748  41.986   1.276
10491W        W82916  27.197   9.360  14.456
10492W        W82917  25.489  26.247   0.090
10493W        W82918   7.457  21.718   4.243
10494W        W82919  14.642  15.628  11.407
10495W        W82920  14.523   2.261   1.973
10496W        W82921  22.204  20.095  10.848
10497W        W82922  14.706  18.754   4.731
10498W        W82923  40.000  34.150   3.575
10499W        W82924  17.554  15.521  13.854
10500W        W82925  26.421   1.856  13.423
10501W        W82926  13.206  32.965   1.185
10502W        W82927   1.253   2.270   2.949
10503W        W82928  43.026  41.905   4.601
10504W        W82929  43.471  28.192  11.536
10505W        W82930  44.723  21.016  10.136
10506W        W82931  42.421   2.428   1.765
10507W        W82932  32.577  24.287   3.511
10508W        W82933  21.463  13.197  11.219
10509W        W82934   1.478  25.209  11.517
10510W        W82935  23.631   4.416  11.265
10511W        W82936  30.850  18.691  14.878
10512W        W82937  22.645  28.689  12.151
10513W        W82938   2.998  11.155   1.463
10514W        W82939  20.888   4.861   0.891
10515W        W82940   6.733  13.891  13.986
10516W        W82941  24.242  35.080  12.955
10517W        W82942  12.755   5.083  12.466
10518W        W82943  40.593   9.708   3.689
10519W        W82944  16.591  34.502   1.419
10520W        W82945   7.101   6.248  11.969
10521W        W82946   6.460  37.410  11.649
10522W        W82947  10.622   0.498  13.423
10523W        W82948  38.012  21.246  13.895
10524W        W82949  23.188  42.055   2.227
10525W        W82950  25.665  37.177   3.713
10526W        W82951  39.191  26.002  12.132
10527W        W82952  34.393  26.570   4.061
10528W        W82953  23.735  23.248  11.611
10529W        W82954  43.035  20.080  11.895
10530W        W82955  43.354  36.171  14.935
10531W        W82956   5.966  32.638   3.820
10532W        W82957  28.689   7.190   2.836
10533W        W82958  10.505  27.256   3.779
10534W        W82959   3.491  26.279   0.918
10535W        W82960   2.442  36.446  14.468
10536W        W82961   9.221  22.757  11.846
10537W        W82962  42.683   2.641  12.454
10538W        W82963  31.644  17.664  10.689
10539W        W82964  16.275  44.230  11.662
10540W        W82965  30.872   2.295   2.213
10541W        W82966   9.793   6.349  11.274
10542W        W82967   4.693   4.977  12.023
10543W        W82968  31.078  25.045  10.278
10544W        W82969  41.714  14.492   2.316
10545W        W82970  26.423  32.550  13.476
10546W        W82971  24.030  15.985   1.312
10547W        W82972  24.592  10.062   0.844
10548W        W82973   3.649  28.595  14.444
10549W        W82974  33.987  17.661  14.137
10550W        W82975  35.853   9.455   4.532
10551W        W82976  18.117   2.972  11.683
10552W        W82977  31.670   8.080  10.735
10553W        W82978   0.556  31.673   3.141
10554W        W82979  12.823   2.219  12.853
10555W        W82980  10.261   9.771   1.762
10556W        W82981  11.090   8.945  11.120
10557W        W82982   2.695  31.122  10.713
10558W        W82983  42.638  28.767   0.045
10559W        W82984  23.884  12.640   4.218
10560W        W82985  11.089  39.860  13.239
10561W        W82986   1.044  33.945   4.105
10562W        W82987  42.523  22.990  12.228
10563W        W82988  11.529  24.608   0.230
10564W        W82989  18.844  44.025  11.901
10565W        W82990  17.756   6.800  10.966
10566W        W82991   0.386  25.673  14.347
10567W        W82992  34.338  33.203   0.374
10568W        W82993  11.927  40.665  11.153
10569W        W82994  15.487  23.083   4.247
10570W        W82995  26.058   5.814  11.847
10571W        W82996   4.016  23.481   1.974
10572W        W82997  44.818  25.201  13.331
10573W        W82998   2.546  28.141   3.234
10574W        W82999  33.877   7.680  11.470
10575W        W83000   0.917  28.881  10.794
10576W        W83001   3.008  16.824   2.887
10577W        W83002  15.692  17.517  12.101
10578W        W83003  43.610  20.858  10.382
10579W        W83004   6.479   2.421  14.764
10580W        W83005  19.599  29.871  14.055
10581W        W83006  13.548  10.277  11.087
10582W        W83007  23.036  32.489  13.484
10583W        W83008  31.022  30.402   4.511
10584W        W83009  22.791   2.425   0.392
10585W        W83010  22.729  41.847   2.287
10586W        W83011  39.921  43.971  11.018
10587W        W83012  14.769   5.758  11.189
10588W        W83013  24.192  28.447   0.703
10589W        W83014   6.118   5.433   4.172
10590W        W83015   7.255  12.896  12.660
10591W        W83016  25.801  11.972  14.906
10592W        W83017  10.673  43.737   4.479
10593W        W83018  38.424  17.423   4.572
10594W        W83019  38.368   1.965  10.623
10595W        W83020  16.188   6.635  11.383
10596W        W83021  39.962   2.191  14.502
10597W        W83022  28.090   8.895   2.742
10598W        W83023  30.226  20.540  12.524
10599W        W83024   3.289  28.076   2.667
10600W        W83025  39.496  33.036   4.188
10601W        W83026   3.509   4.279  12.884
10602W        W83027   9.139   9.648  11.176
10603W        W83028  16.108  22.778  10.665
10604W        W83029  44.834   6.635   4.346
10605W        W83030  22.955  13.629  13.850
10606W        W83031   0.527  18.523  12.035
10607W        W83032  37.221  12.808   3.626
10608W        W83033  40.285  15.992   0.325
10609W        W83034  33.640  20.490  10.812
10610W        W83035  35.262  18.109  13.656
10611W        W83036  22.660  22.053  13.475
10612W        W83037  22.435  15.835   3.765
10613W        W83038   5.862  32.119  14.527
10614W        W83039  10.924  43.132   3.662
10615W        W83040  25.324  28.065  14.252
10616W        W83041   0.969  14.741   0.437
10617W        W83042  24.937  20.649   3.605
10618W        W83043  25.464   2.970  14.354
10619W        W83044   5.501  42.245  14.610
10620W        W83045  18.472  23.379  13.932
10621W        W83046  43.763   9.188   0.855
10622W        W83047  13.797  13.090   0.850
10623W        W83048   2.219  43.768   2.395
10624W        W83049  43.289  39.986  12.560
10625W        W83050  26.325  31.246   0.360
10626W        W83051  13.097   0.879  13.414
10627W        W83052  39.565   9.671   0.855
10628W        W83053  24.342  22.278   4.128
10629W        W83054  22.594  37.991   0.047
10630W        W83055  22.168  24.651   2.552
10631W        W83056  26.109   2.214  10.791
10632W        W83057  20.391  26.545  13.959
10633W        W83058  33.619  31.391   2.279
10634W        W83059  16.167   1.093   2.480
10635W        W83060  23.109   4.501  12.017
10636W        W83061   9.219  15.913  11.311
10637W        W83062  43.095  24.113  11.844
10638W        W83063  39.323  30.197   1.519
10639W        W83064  11.215  19.252  12.393
10640W        W83065   6.095  29.198  11.555
10641W        W83066  44.944  12.310   4.459
10642W        W83067  30.011   6.609  12.387
10643W        W83068   4.855  12.949   3.362
10644W        W83069  30.325  31.997  13.768
10645W        W83070  34.033  32.991   3.306
10646W        W83071   3.758   1.907   1.328
10647W        W83072  39.925  34.200   0.791
10648W        W83073  14.150  31.122   4.959
10649W        W83074  24.940  19.175  14.363
10650W        W83075  34.093  42.444  12.576
10651W        W83076  43.892  16.864   0.307
10652W        W83077  25.730  26.632  14.777
10653W        W83078  17.629   0.535   4.256
10654W        W83079   2.815  29.121   2.383
10655W        W83080  37.602  30.626  10.493
10656W        W83081   0.930   8.784  13.992
10657W        W83082  11.191  11.221   3.192
10658W        W83083   5.685  24.573  13.997
10659W        W83084  22.440   6.324  12.434
10660W        W83085  38.496  42.822   3.571
10661W        W83086  18.168  39.796   3.098
10662W        W83087  17.891   5.169   1.795
10663W        W83088  14.831  28.750   4.567
10664W        W83089  38.741  34.841   2.316
10665W        W83090  20.028  25.399   1.016
10666W        W83091   0.986   7.017   2.336
10667W        W83092  32.879   7.719   3.731
10668W        W83093  40.944  42.849  10.576
10669W        W83094  16.590  39.647  13.324
10670W        W83095  41.626  16.259   3.667
10671W        W83096  31.686  38.289  10.709
10672W        W83097   4.283  30.534   0.587
10673W        W83098  37.849  11.106  11.773
10674W        W83099  23.569  31.916   9.651
10675W        W83100   8.238  30.136   4.588
10676W        W83101  12.198  26.779   1.250
10677W        W83102  34.035  30.499   0.259
10678W        W83103  36.267   6.805  13.907
10679W        W83104  12.808  22.971  12.881
10680W        W83105  28.151  26.105   3.683
10681W        W83106   8.230  39.530   3.614
10682W        W83107  16.588   7.939  11.996
10683W        W83108  30.771  30.911  10.822
10684W        W83109  23.702  41.119  13.489
10685W        W83110  11.103  32.609   3.556
10686W        W83111  20.573  17.093   4.275
10687W        W83112  23.197  44.942   3.348
10688W        W83113  41.274   3.822  12.559
10689W        W83114  41.651  27.996  13.027
10690W        W83115  30.439  14.595  10.757
10691W        W83116  29.112  13.615  13.046
10692W        W83117   7.140   9.462   2.147
10693W        W83118  44.430  12.248   3.351
10694W        W83119  31.044  11.122  11.265
10695W        W83120   9.067  14.895  14.483
10696W        W83121  18.846  14.715   2.747
10697W        W83122  30.468  40.909  12.634
10698W        W83123  36.463   2.257  12.641
10699W        W83124  16.873  19.763   1.850
10700W        W83125  23.545  26.987  13.279
10701W        W83126   1.994  40.012   4.828
10702W        W83127  17.095  30.098  14.924
10703W        W83128  36.974  30.668   2.927
10704W        W83129  28.480  18.072  13.054
10705W        W83130  34.248   1.385  12.056
10706W        W83131  43.449   9.085  13.841
10707W        W83132   1.029   9.841   1.395
10708W        W83133  42.560  16.394   2.790
10709W        W83134  44.890  43.301   0.492
10710W        W83135  31.134  19.789  10.934
10711W        W83136  27.938  10.826   1.338
10712W        W83137  12.146  27.565   4.365
10713W        W83138  13.432  44.967   2.894
10714W        W83139  26.907  34.454   2.657
10715W        W83140  12.255  29.360  13.929
10716W        W83141  31.068   6.564   2.731
10717W        W83142  26.483  35.349   3.648
10718W        W83143   1.906   2.300  11.208
10719W        W83144   0.980  29.645   3.736
10720W        W83145  23.565  19.695   1.697
10721W        W83146   7.226  40.827   3.874
10722W        W83147   8.340  31.097   2.803
10723W        W83148   4.365  11.284  12.244
10724W        W83149   4.348   6.427  14.039
10725W        W83150  37.709  23.264   3.213
10726W        W83151  43.757   8.815   0.467
10727W        W83152  37.853   1.261  12.078
10728W        W83153  32.411  10.171  10.486
10729W        W83154  38.003  12.104  10.680
10730W        W83155   7.393  15.075  13.196
10731W        W83156  16.775   6.302  10.800
10732W        W83157  28.346   7.375  12.553
10733W        W83158   9.894  20.999  11.551
10734W        W83159  31.809   8.940  12.069
10735W        W83160  32.891  35.772   3.190
10736W        W83161  12.345  31.875  12.063
10737W        W83162  36.075   6.007   0.571
10738W        W83163  20.486   5.658   3.995
10739W        W83164  17.880  30.241  12.680
10740W        W83165  23.532  42.395   4.959
10741W        W83166   7.351  24.382   2.641
10742W        W83167   2.874  44.762   3.731
10743W        W83168  42.329  27.820  11.747
10744W        W83169  20.992  24.269   4.106
10745W        W83170   6.787  23.313  13.388
10746W        W83171  35.504  11.559   4.645
10747W        W83172   4.622  29.018   3.794
10748W        W83173  42.835  14.674   1.569
10749W        W83174  41.310  13.470   4.801
10750W        W83175  25.143  24.048  12.531
10751W        W83176  27.004  28.079  11.927
10752W        W83177  16.503  34.079  14.962
10753W        W83178  23.080   9.692  12.888
10754W        W83179  32.078  14.874  12.157
10755W        W83180  33.565   3.731   2.369
10756W        W83181  43.340  23.188   2.467
10757W        W83182   3.251  12.919   1.276
10758W        W83183  26.291  14.802   1.631
10759W        W83184  18.099  30.581  11.890
10760W        W83185  11.029  32.610   1.337
10761W        W83186  27.560  41.637  13.812
10762W        W83187  23.281  36.141   0.899
10763W        W83188  17.577   7.394   4.766
10764W        W83189  31.325  35.685   2.890
10765W        W83190  36.851   1.804  11.504
10766W        W83191  23.979   1.672   3.654
10767W        W83192  44.870  10.258  13.337
10768W        W83193  40.845   2.345  12.981
10769W        W83194  20.764  22.956  12.558
10770W        W83195  27.132  39.960  10.033
10771W        W83196  13.216   8.639   1.830
10772W        W83197   6.964  11.601   1.416
10773W        W83198   7.362   8.723  13.902
10774W        W83199  34.106   5.394  14.437
10775W        W83200  15.680   5.335  10.451
10776W        W83201  39.115  26.560   5.039
10777W        W83202  25.718  29.090   2.094
10778W        W83203  15.651  37.143   2.665
10779W        W83204   9.595  14.171  14.001
10780W        W83205  44.321  32.586  14.228
10781W        W83206  30.920  29.950   1.336
10782W        W83207   6.042   8.384   3.308
10783W        W83208  26.922  24.608   4.835
10784W        W83209   4.437   6.295   1.270
10785W        W83210  33.785  21.986  12.629
10786W        W83211  15.811  11.545  10.485
10787W        W83212  22.472  21.658   3.311
10788W        W83213  31.592  19.205   4.121
10789W        W83214  42.433  33.899   3.255
10790W        W83215  28.438  23.819   0.819
10791W        W83216   5.759  21.016   1.020
10792W        W83217  22.410  25.159  14.120
10793W        W83218  31.456  34.957  13.490
10794W        W83219  35.193  24.905   4.204
10795W        W83220  26.684  30.418  11.589
10796W        W83221  39.503  15.979  14.384
10797W        W83222  28.108   8.781  10.734
10798W        W83223  23.108  31.486  14.679
10799W        W83224  16.833   3.244   3.221
10800W        W83225   2.207  28.666   4.897
10801W        W83226  16.669   3.782   3.880
10802W        W83227  35.069  15.760   3.793
10803W        W83228   5.453  36.130  13.438
10804W        W83229   5.209  16.213   3.102
10805W        W83230  12.656  13.789  10.964
10806W        W83231  24.587  33.633   1.270
10807W        W83232  43.955   0.409  10.731
10808W        W83233   6.104  39.544   4.135
10809W        W83234  25.233  14.872   1.884
10810W        W83235  32.055  35.145   4.974
10811W        W83236  13.619  27.904  10.676
10812W        W83237  17.167  23.596   2.467
10813W        W83238  39.589   0.157   4.093
10814W        W83239   4.303  37.552   4.806
10815W        W83240  19.818  43.614  14.812
10816W        W83241  18.662  23.014   4.864
10817W        W83242   1.041  36.535   2.391
10818W        W83243  43.233  24.329  11.047
10819W        W83244   3.774  43.677  14.910
10820W        W83245   4.675  33.441  13.851
10821W        W83246  12.558  43.502   1.363
10822W        W83247  27.218  44.104  14.575
10823W        W83248  16.128  11.671  14.261
10824W        W83249   1.115  24.944   9.875
10825W        W83250  36.180  35.695   4.181
10826W        W83251   6.435  42.502   1.716
10827W        W83252   7.165  14.811  12.406
10828W        W83253  28.449  30.641  13.517
10829W        W83254  10.056  29.979  11.695
10830W        W83255  42.361  23.435  13.997
10831W        W83256  43.924  31.528  14.007
10832W        W83257  29.479  29.304   3.285
10833W        W83258  37.400  22.513   2.403
10834W        W83259   7.617  23.229  14.331
10835W        W83260  12.229  28.045   4.569
10836W        W83261  28.746  22.354  14.942
10837W        W83262   3.177   8.191   4.093
10838W        W83263  31.441  19.281  10.973
10839W        W83264  28.997  27.119   4.570
10840W        W83265   5.961  17.426   3.784
10841W        W83266  44.771  17.566   1.030
10842W        W83267  35.935  41.874   4.688
10843W        W83268  28.860  17.197   2.329
10844W        W83269  20.481  10.067   1.751
10845W        W83270  16.505  37.291  11.449
10846W        W83271  34.515  27.466  14.965
10847W        W83272  25.007   5.312   3.166
10848W        W83273  17.819  31.387   0.194
10849W        W83274  16.135  22.161   3.711
10850W        W83275  28.235  19.728   3.402
10851W        W83276  30.520  24.760   0.215
10852W        W83277   3.558   1.411   2.904
10853W        W83278   0.054  31.520   0.953
10854W        W83279   9.290  17.863  11.180
10855W        W83280  39.536  18.800   1.891
10856W        W83281  17.356   7.544   4.307
10857W        W83282  43.479  43.988  14.234
10858W        W83283  25.063  29.966   2.251
10859W        W83284  15.623  29.194  13.971
10860W        W83285  42.360  43.441   2.210
10861W        W83286  42.182   4.747  13.769
10862W        W83287  30.127  13.382  10.923
10863W        W83288  40.950  26.615  14.866
10864W        W83289  22.361  33.231   3.640
10865W        W83290   6.330  25.713  14.781
10866W        W83291   6.133  27.507   2.417
10867W        W83292   6.681   9.361  13.905
10868W        W83293   4.795  10.496   1.146
10869W        W83294  37.026  39.515  12.977
10870W        W83295  16.578   6.898   0.495
10871W        W83296  26.749   2.510   2.844
10872W        W83297  42.451  19.174  11.929
10873W        W83298  15.703  12.133  12.497
10874W        W83299  13.439  38.974  10.288
10875W        W83300  44.359  15.105   3.221
10876W        W83301   0.990  20.833   0.614
10877W        W83302  35.264  14.766  10.421
10878W        W83303  29.955  19.379  11.105
10879W        W83304   2.410  27.768   5.001
10880W        W83305  25.677   4.199   4.140
10881W        W83306  18.062   7.705   3.974
10882W        W83307  14.716   1.508   1.406
10883W        W83308   9.439  11.430   0.849
10884W        W83309  35.844  22.607  11.861
10885W        W83310  41.280  41.713  14.566
10886W        W83311   8.342  26.927   4.645
10887W        W83312  20.282  18.281  11.191
10888W        W83313   2.686  28.684   1.320
10889W        W83314  37.008  32.618   0.408
10890W        W83315   1.569  10.621  12.912
10891W        W83316  13.155   4.342   9.603
10892W        W83317  37.448   4.173   0.511
10893W        W83318  42.797  39.041   4.208
10894W        W83319   8.569  12.807   2.426
10895W        W83320  10.650  17.084   3.961
10896W        W83321  27.426  38.838  14.446
10897W        W83322  43.885  39.749   1.377
10898W        W83323  15.634  42.315  13.752
10899W        W83324  30.976   2.536  11.531
10900W        W83325  29.715  24.624  11.467
10901W        W83326  39.012   7.443  12.125
10902W        W83327  29.838  15.084   4.856
10903W        W83328  17.392   8.366   3.916
10904W        W83329   3.201  29.456   2.771
10905W        W83330  30.979  39.048   0.882
10906W        W83331  33.096  35.878   3.661
10907W        W83332   5.921  36.494   4.537
10908W        W83333  26.164  39.888   2.170
10909W        W83334  21.286  34.820   0.421
10910W        W83335  43.327  24.593   3.899
10911W        W83336  26.983  35.037  12.987
10912W        W83337  30.418  23.476   4.355
10913W        W83338  11.601  26.479   1.934
10914W        W83339  44.576  26.716   4.442
10915W        W83340  32.141  43.946  12.923
10916W        W83341  20.576  23.691   3.740
10917W        W83342  11.096  29.348  11.257
10918W        W83343  27.130   7.138  10.544
10919W        W83344   6.896  23.365  11.112
10920W        W83345  35.209  19.095  11.053
10921W        W83346   9.062  23.964  12.400
10922W        W83347  39.545  14.679   2.814
10923W        W83348  17.266  13.159   5.082
10924W        W83349   7.322  20.208  14.726
10925W        W83350  40.076   7.239  11.383
10926W        W83351  35.103  41.435  14.874
10927W        W83352  43.042  31.305   0.968
10928W        W83353  19.564  32.541  12.430
10929W        W83354  38.330  21.906   3.266
10930W        W83355  14.747  27.009   3.677
10931W        W83356  27.496  39.898   4.070
10932W        W83357  23.517   4.153   0.801
10933W        W83358  34.796  21.627  13.564
10934W        W83359  25.982  42.524  13.460
10935W        W83360  43.442  23.470  12.321
10936W        W83361  16.846  18.299   3.359
10937W        W83362  42.491  24.806   2.730
10938W        W83363  32.107  36.419  13.504
10939W        W83364  39.805  17.169   1.398
10940W        W83365   0.202  43.947  13.449
10941W        W83366  44.249  38.101   4.769
10942W        W83367  38.511  26.660   4.948
10943W        W83368   1.479  25.967   4.271
10944W        W83369  31.600  32.989  13.846
10945W        W83370  14.782  33.991   2.310
10946W        W83371   9.346  17.658   3.600
10947W        W83372   9.254  15.654   2.547
10948W        W83373   5.485   7.252   3.332
10949W        W83374  29.149  42.551   2.670
10950W        W83375  20.490  34.932  14.923
10951W        W83376   4.068   0.352  13.066
10952W        W83377  29.055  16.050   4.035
10953W        W83378  30.790   8.883  12.059
10954W        W83379  12.694  13.384  11.267
10955W        W83380  40.352   9.606  12.489
10956W        W83381  11.155  19.590   2.714
10957W        W83382  13.901   6.181  13.350
10958W        W83383  22.970  34.000  13.735
10959W        W83384   6.373  35.713  14.546
10960W        W83385  17.080   0.131  13.732
10961W        W83386  36.700   8.056   1.652
10962W        W83387  17.359   9.846   0.634
10963W        W83388  29.098  11.575   2.677
10964W        W83389  41.780  18.609  14.480
10965W        W83390  11.546  35.331   0.365
10966W        W83391  24.050  18.608  10.408
10967W        W83392   6.739  37.997  12.820
10968W        W83393  16.626  40.928  11.474
10969W        W83394  16.044  23.577   4.619
10970W        W83395  41.630  38.772  10.693
10971W        W83396  12.797  22.650   2.261
10972W        W83397  26.076  41.376   3.727
10973W        W83398  14.848  44.464  12.978
10974W        W83399  44.599  34.484   4.965
10975W        W83400  18.525  44.444  11.831
10976W        W83401  23.567  39.268  10.631
10977W        W83402  18.210   9.525  14.883
10978W        W83403   1.452  33.305   2.896
10979W        W83404   2.365   7.674   4.906
10980W        W83405   4.337  16.812   0.773
10981W        W83406  38.832  39.341  10.945
10982W        W83407  12.171  28.360  12.979
10983W        W83408  23.392  16.559  12.385
10984W        W83409  16.517  41.365   3.093
10985W        W83410  37.975  23.023   2.204
10986W        W83411  21.122  20.672   2.649
10987W        W83412   1.442  15.556  12.498
10988W        W83413  41.517  43.401   1.829
10989W        W83414  14.815  20.525  14.513
10990W        W83415  26.968  40.939   0.709
10991W        W83416   0.417   4.366  11.556
10992W        W83417   5.267  43.592   1.376
10993W        W83418  12.873  44.626   4.691
10994W        W83419  39.766  40.085  13.016
10995W        W83420   0.990  22.548  11.601
10996W        W83421  19.824  31.417  13.961
10997W        W83422  24.730   6.168   3.224
10998W        W83423  38.574  30.990  13.439
10999W        W83424  19.627  26.034  10.621
11000W        W83425  20.589  10.160   3.130
11001W        W83426  14.214  44.701  13.520
11002W        W83427  12.110  23.123  11.229
11003W        W83428  15.070  17.000  10.237
11004W        W83429  12.089  12.596  13.487
11005W        W83430   2.011  17.210   4.107
11006W        W83431   0.625  16.789   4.339
11007W        W83432  18.575  38.567  13.473
11008W        W83433   5.679   5.948   3.505
11009W        W83434  28.671  14.450  12.007
11010W        W83435  38.348  11.078   2.427
11011W        W83436  41.826   9.836  10.596
11012W        W83437   3.510  28.937  12.476
11013W        W83438  20.656  31.694  10.726
11014W        W83439  24.968  13.239  14.849
11015W        W83440   4.424  33.157   1.736
11016W        W83441   5.641   9.278   0.814
11017W        W83442  28.609  37.319  11.547
11018W        W83443   0.117  20.966  12.001
11019W        W83444  40.810  37.965   2.243
11020W        W83445   6.713   4.285   0.230
11021W        W83446  14.786  19.339   0.284
11022W        W83447  11.619   8.776  11.049
11023W        W83448  19.569  38.847   2.302
11024W        W83449  13.583  18.564  14.944
11025W        W83450  36.932  19.015  11.448
11026W        W83451  19.635   6.832   2.956
11027W        W83452  11.322   7.915  11.966
11028W        W83453  37.066  40.924   1.291
11029W        W83454  26.164   7.919   0.217
11030W        W83455  32.381  40.484   1.486
11031W        W83456  39.893  15.038  14.322
11032W        W83457  15.913  13.684  11.979
11033W        W83458  25.669  21.902  11.195
11034W        W83459  38.107  19.676  13.100
11035W        W83460   4.471   1.301   4.125
11036W        W83461   0.703   5.643  10.830
11037W        W83462   7.473  13.827  11.054
11038W        W83463  16.105   7.284  12.078
11039W        W83464  16.512  19.136  10.636
11040W        W83465  23.814  20.163  14.819
11041W        W83466  41.773   0.275  12.058
11042W        W83467  35.339  21.520  12.084
11043W        W83468   2.067  35.902   2.718
11044W        W83469  41.698  42.807   4.354
11045W        W83470  38.829  11.890   2.177
11046W        W83471  21.618  18.099   3.563
11047W        W83472  29.572  21.180  11.045
11048W        W83473  38.727   6.224  13.461
11049W        W83474  26.453  10.322  14.844
11050W        W83475  15.102  17.021   4.576
11051W        W83476   5.289  28.593  12.884
11052W        W83477  24.205   6.712  14.254
11053W        W83478  18.301  13.898   1.968
11054W        W83479  19.289  39.434   1.261
11055W        W83480  18.189  44.816   2.619
11056W        W83481  14.371  19.429  12.022
11057W        W83482  33.533  26.095   4.655
11058W        W83483  29.608  42.910   1.000
11059W        W83484  31.155   8.105   2.467
11060W        W83485  36.864   7.336  14.932
11061W        W83486   9.582  40.259   2.826
11062W        W83487   7.637  12.427   3.729
11063W        W83488  12.698   6.282  10.660
11064W        W83489  14.602  10.586   4.888
11065W        W83490   1.246   1.682   3.637
11066W        W83491  44.060  13.542  13.478
11067W        W83492   6.477  20.800   2.931
11068W        W83493  24.290   4.394   3.934
11069W        W83494  35.985  14.054  12.156
11070W        W83495  31.939  42.891   0.506
11071W        W83496  20.453  14.079   3.481
11072W        W83497  36.989   0.980   3.398
11073W        W83498   9.727   0.247   1.406
11074W        W83499   4.294  15.040   0.108
11075W        W83500  11.365   6.242  12.930
11076W        W83501  24.825  27.598   4.543
11077W        W83502   0.358  18.560   2.648
11078W        W83503  14.333   5.392   1.176
11079W        W83504   0.822  29.577  14.296
11080W        W83505  32.617  14.592   0.045
11081W        W83506  23.458  30.973  12.562
11082W        W83507  13.474  17.292   4.473
11083W        W83508  37.092   9.306   2.346
11084W        W83509  30.524  39.865   0.482
11085W        W83510   3.258  27.388   1.392
11086W        W83511   4.317  11.306   4.350
11087W        W83512   8.854  29.648  12.394
11088W        W83513  20.048  25.160   0.264
11089W        W83514  40.103  43.315   0.757
11090W        W83515  28.074  17.089   4.043
11091W        W83516   1.536  24.743   2.885
11092W        W83517  24.062  26.255  10.717
11093W        W83518  18.918  23.443   0.142
11094W        W83519  34.886  31.559   1.859
11095W        W83520  36.796  23.645   0.282
11096W        W83521  24.257  26.086  13.441
11097W        W83522  34.967  33.438  11.971
11098W        W83523   1.971  17.988   1.838
11099W        W83524   6.386  37.442   4.177
11100W        W83525  39.315  28.395  14.507
11101W        W83526  21.402  32.522   3.218
11102W        W83527  31.483  19.665  11.290
11103W        W83528  39.100   9.167   2.404
11104W        W83529  29.427  11.481  14.929
11105W        W83530  35.361  41.940  12.601
11106W        W83531  17.034   1.045   3.681
11107W        W83532  33.965  38.000   2.115
11108W        W83533  20.654   7.692   0.524
11109W        W83534  34.598  26.469   0.345
11110W        W83535  43.863   7.388  13.801
11111W        W83536  19.824   4.501  12.869
11112W        W83537   3.141  20.590  12.788
11113W        W83538  23.257   4.790  14.926
11114W        W83539  17.587  34.332  11.087
11115W        W83540  33.370  18.110   0.224
11116W        W83541   5.221  11.122   2.208
11117W        W83542   5.674   3.441   1.306
11118W        W83543   5.841  11.381   3.403
11119W        W83544  34.517   9.892  12.517
11120W        W83545   4.865  30.142  10.711
11121W        W83546   5.105  27.210  14.764
11122W        W83547  22.241  16.760   4.626
11123W        W83548  10.629  35.317   0.372
11124W        W83549  39.127  43.073   2.838
11125W        W83550  41.530  42.052  11.567
11126W        W83551  27.214   3.952  11.713
11127W        W83552   8.365  33.445   4.470
11128W        W83553  29.693  36.424  11.567
11129W        W83554  21.590  17.024   0.361
11130W        W83555  21.975  31.463  13.284
11131W        W83556  19.231  42.800   0.220
11132W        W83557  25.287  11.298   3.229
11133W        W83558   7.287  12.767   3.085
11134W        W83559  29.668  24.482  13.012
11135W        W83560   0.809   2.378  12.345
11136W        W83561  29.419  27.115  13.304
11137W        W83562  22.696  18.353   0.360
11138W        W83563  18.033  13.213   1.612
11139W        W83564  44.278   5.579  10.267
11140W        W83565  20.301  44.898  13.948
11141W        W83566  35.108  26.585   1.607
11142W        W83567  40.006  39.057   0.295
11143W        W83568  31.576   3.316   3.944
11144W        W83569  38.242  17.589   0.825
11145W        W83570  22.228  34.385  11.905
11146W        W83571  10.402  15.209   4.309
11147W        W83572  11.218  38.595  13.897
11148W        W83573  32.455  20.632   0.391
11149W        W83574  14.839  39.506  12.523
11150W        W83575   1.755  25.890   2.193
11151W        W83576   8.082  10.847   3.173
11152W        W83577   2.783  23.642  12.730
11153W        W83578   7.694  26.155   2.318
11154W        W83579   0.763  42.277   0.228
11155W        W83580  34.859  35.083   3.245
11156W        W83581  14.163  25.243  14.439
11157W        W83582  40.985  20.679   4.046
11158W        W83583   2.711  27.015  14.748
11159W        W83584  36.014  23.117   0.834
11160W        W83585  23.987  29.820   1.334
11161W        W83586  40.542  32.354   0.742
11162W        W83587  40.829  41.534   0.455
11163W        W83588  25.270  35.439  13.908
11164W        W83589  10.981  33.143   3.341
11165W        W83590  31.536  27.438   0.322
11166W        W83591   9.313  11.225  13.869
11167W        W83592  39.277  21.729  11.196
11168W        W83593  16.059  16.853   3.147
11169W        W83594  22.023  32.115   3.870
11170W        W83595   1.960  33.442  12.626
11171W        W83596  31.128  43.043   0.909
11172W        W83597  38.466  11.296  13.556
11173W        W83598  21.688  42.787  11.579
11174W        W83599  33.083  16.778  12.078
11175W        W83600  23.091  23.763   4.543
11176W        W83601  43.621  25.098  11.144
11177W        W83602  41.978  17.149   4.546
11178W        W83603   9.860   5.679  12.551
11179W        W83604  26.944  36.069  11.567
11180W        W83605   8.852  42.435  11.814
11181W        W83606  35.400  44.371  10.950
11182W        W83607  37.376  42.921   0.479
11183W        W83608  34.228  40.915   0.972
11184W        W83609   4.855  23.145  13.773
11185W        W83610  13.920   1.303  11.979
11186W        W83611  44.453  19.874  12.504
11187W        W83612  26.033   7.768   1.125
11188W        W83613  20.228  40.684   1.941
11189W        W83614  39.936  11.702   1.355
11190W        W83615  40.986   8.249  11.700
11191W        W83616   5.918  40.531   2.381
11192W        W83617  35.800  43.862  12.144
11193W        W83618  22.135   8.603   2.724
11194W        W83619  16.192   9.128  13.075
11195W        W83620   7.216  16.528  14.910
11196W        W83621  25.288  18.156  10.700
11197W        W83622  33.266  30.008   2.753
11198W        W83623  28.638  33.388   0.402
11199W        W83624  25.289  17.561  13.530
11200W        W83625   0.241  32.513   0.506
11201W        W83626  12.807  17.756   1.360
11202W        W83627  35.526  37.418  11.405
11203W        W83628   6.783  16.745  14.721
11204W        W83629  18.016   2.822  12.148
11205W        W83630   3.854  37.610  11.994
11206W        W83631   4.496   4.684  14.488
11207W        W83632  32.820  27.677  11.322
11208W        W83633  25.181   5.347  13.423
11209W        W83634   4.316   5.603   0.370
11210W        W83635  27.988  24.080   0.806
11211W        W83636   4.410  40.299   3.712
11212W        W83637   1.719  27.564  10.441
11213W        W83638  19.926  25.378   3.230
11214W        W83639  16.148  29.525  11.429
11215W        W83640   6.581  18.134   1.980
11216W        W83641  18.278  12.643  12.588
11217W        W83642  36.584  32.973  13.627
11218W        W83643  23.130  30.059   0.904
11219W        W83644  43.716  17.762  12.075
11220W        W83645  27.988  35.910   0.265
11221W        W83646  28.428  20.450  12.802
11222W        W83647  28.831  26.207  11.602
11223W        W83648  27.891   1.488   1.398
11224W        W83649  21.547  23.121   2.943
11225W        W83650  17.182  43.729  13.468
11226W        W83651  34.219  37.625  14.586
11227W        W83652  30.402  17.128   2.275
11228W        W83653  28.709  25.052   4.702
11229W        W83654   3.167   3.844  10.690
11230W        W83655  35.117   5.694   2.284
11231W        W83656  36.582  25.375   2.584
11232W        W83657   0.537  19.049   0.691
11233W        W83658   6.316  36.338  14.469
11234W        W83659  43.059   3.808  13.819
11235W        W83660  37.292  41.502   3.798
11236W        W83661  30.698  15.110  12.803
11237W        W83662  19.696  36.727  12.093
11238W        W83663  11.149   4.289   0.620
11239W        W83664   3.550  19.691   3.015
11240W        W83665   0.410  28.679   2.322
11241W        W83666   5.426  44.032   3.601
11242W        W83667  29.598  29.005  14.426
11243W        W83668  18.929  23.864  13.954
11244W        W83669  42.551  13.241  10.747
11245W        W83670  23.837  31.447  10.544
11246W        W83671   5.450  30.566  13.013
11247W        W83672   7.277  10.260   2.167
11248W        W83673  40.818  42.705  13.102
11249W        W83674  36.335   4.246   2.626
11250W        W83675  37.884  13.591   0.059
11251W        W83676  40.939  15.188  13.340
11252W        W83677  15.931  19.514  11.133
11253W        W83678   5.322  26.440   1.011
11254W        W83679  32.847  35.411   0.267
11255W        W83680   8.289  30.574  14.161
11256W        W83681  40.515  19.557   3.467
11257W        W83682  37.269  22.732   3.693
11258W        W83683  41.714   8.847   2.623
11259W        W83684   7.604  16.607   4.121
11260W        W83685   6.174  10.596  10.118
11261W        W83686  13.274  40.938   1.714
11262W        W83687  36.004  31.802  11.554
11263W        W83688  15.091   5.810  13.528
11264W        W83689  38.972  28.168   1.876
11265W        W83690  38.861  30.678   2.121
11266W        W83691   1.200  42.778  13.028
11267W        W83692   9.715  10.289   2.768
11268W        W83693  29.418  39.798   2.119
11269W        W83694  28.781  16.958   3.639
11270W        W83695  14.418  17.988   3.390
11271W        W83696   1.554  36.385   2.360
11272W        W83697  12.870   2.316   3.172
11273W        W83698  33.652  14.647  12.450
11274W        W83699   3.405  18.074  14.782
11275W        W83700  20.218  15.068  14.349
11276W        W83701   4.028  36.458   1.355
11277W        W83702  35.081  23.098   0.727
11278W        W83703  14.227  15.060  14.037
11279W        W83704  32.289  36.490  11.149
11280W        W83705   1.580   3.576   5.206
11281W        W83706  39.257  14.707  12.543
11282W        W83707  22.937  33.349  11.577
11283W        W83708   3.452  19.634   4.207
11284W        W83709  10.447  27.053  14.124
11285W        W83710  14.772  37.645   0.178
11286W        W83711  31.164   6.851   1.857
11287W        W83712  14.055   0.674   0.877
11288W        W83713  12.322  30.049   2.688
11289W        W83714  12.384  31.639  12.521
11290W        W83715  15.341  14.188   2.658
11291W        W83716  15.996  36.425   0.736
11292W        W83717   7.319  35.053  13.808
11293W        W83718   7.968  16.678  11.522
11294W        W83719  40.084   8.700  11.298
11295W        W83720  31.499   6.200   2.716
11296W        W83721  10.633  34.454   3.128
11297W        W83722  26.867  44.885  10.411
11298W        W83723  32.450   0.010   2.355
11299W        W83724  43.692   2.796   1.687
11300W        W83725  44.448  30.905  13.423
11301W        W83726  30.055  31.287  11.989
11302W        W83727   8.501   1.059   0.009
11303W        W83728  24.022  34.904  13.382
11304W        W83729  10.589  27.908  11.102
11305W        W83730   4.933  11.204   1.750
11306W        W83731  39.060  32.516   0.402
11307W        W83732  12.600  14.232   0.688
11308W        W83733  29.353  12.790  13.533
11309W        W83734  34.096  24.117   4.778
11310W        W83735  18.195   5.432   4.852
11311W        W83736  19.273  34.057  13.453
11312W        W83737  17.140  42.742   3.389
11313W        W83738   1.932   5.330  11.526
11314W        W83739  40.878  22.094   3.332
11315W        W83740  38.388   9.643  11.975
11316W        W83741  29.074   0.269  12.968
11317W        W83742  11.479  16.709   2.782
11318W        W83743   6.492  14.740   3.637
11319W        W83744  32.529  43.425  11.363
11320W        W83745  12.069   9.295   4.045
11321W        W83746  13.055  16.755   0.455
11322W        W83747  40.853  37.823  12.611
11323W        W83748  17.232   9.186  13.933
11324W        W83749  17.490   9.722  11.507
11325W        W83750  38.435  12.335  12.071
11326W        W83751  19.595  33.991   1.291
11327W        W83752   8.178  21.493   2.848
11328W        W83753   7.136  19.030   0.762
11329W        W83754   5.977  27.220   4.832
11330W        W83755  24.144  33.391   1.473
11331W        W83756  36.313   8.806  11.944
11332W        W83757   7.598  12.161  13.097
11333W        W83758  30.539   4.806  11.949
11334W        W83759  44.789   0.886   3.360
11335W        W83760  38.546   4.635   0.791
11336W        W83761  30.890  35.805   2.548
11337W        W83762  22.955  26.863   4.756
11338W        W83763  30.993  21.921  12.381
11339W        W83764  15.226  38.523  14.816
11340W        W83765  26.962  36.562  11.728
11341W        W83766  17.113  22.472   1.715
11342W        W83767  34.643   6.839   4.189
11343W        W83768  36.781   6.210  10.267
11344W        W83769  22.036  27.591  13.033
11345W        W83770  23.772  37.325   0.870
11346W        W83771  28.804  37.298  12.843
11347W        W83772  19.217  41.608  12.836
11348W        W83773  26.716   4.530   1.439
11349W        W83774  10.510  30.504  14.497
11350W        W83775   8.815  33.617  11.122
11351W        W83776  12.364   3.144  11.044
11352W        W83777  20.601  38.803   4.068
11353W        W83778  12.714  10.647  10.665
11354W        W83779  20.288  43.950  12.007
11355W        W83780  26.030  12.360   3.216
11356W        W83781  13.114  40.183  13.026
11357W        W83782  12.045  27.460   1.699
11358W        W83783  11.063  22.206   4.095
11359W        W83784  34.878   3.462   2.676
11360W        W83785  29.881  35.907  13.732
11361W        W83786  22.604  24.938  14.861
11362W        W83787  42.806  25.720   0.776
11363W        W83788  32.965  40.742  14.334
11364W        W83789  41.687  22.126   2.562
11365W        W83790  30.586  26.634  12.712
11366W        W83791   0.430  30.569  11.722
11367W        W83792  14.700   2.833   0.582
11368W        W83793   3.944  32.971   1.718
11369W        W83794  14.875  32.306  12.590
11370W        W83795  19.802  39.361   2.373
11371W        W83796   2.934  42.002   3.840
11372W        W83797  35.365   9.146  10.705
11373W        W83798   9.654  30.493   0.462
11374W        W83799  20.082  26.663  14.358
11375W        W83800  10.096  11.206   3.443
11376W        W83801  14.809  30.515   2.774
11377W        W83802  20.018  40.869  12.953
11378W        W83803  31.600   8.038   3.765
11379W        W83804  13.136  11.582   5.218
11380W        W83805  14.554  29.224  11.991
11381W        W83806   8.322  29.423  11.633
11382W        W83807  43.478  41.557  11.853
11383W        W83808  37.413  12.427   4.172
11384W        W83809  25.906  40.415  11.093
11385W        W83810  44.307  20.588  14.480
11386W        W83811  32.609  22.673   4.192
11387W        W83812  24.497  43.507  10.631
11388W        W83813   5.870  26.661   4.691
11389W        W83814  10.526  25.453  14.324
11390W        W83815  37.023  31.687  11.875
11391W        W83816   3.691   8.259  11.931
11392W        W83817  37.398  17.368   4.627
11393W        W83818  27.415   6.778   2.779
11394W        W83819   9.347   0.832   0.742
11395W        W83820  11.899   8.569   3.181
11396W        W83821  41.904  17.758   4.653
11397W        W83822  44.398   8.739  14.160
11398W        W83823  39.206  34.832  11.487
11399W        W83824  12.023   5.830   1.741
11400W        W83825   2.157  20.678   1.608
11401W        W83826  21.987  34.536   3.723
11402W        W83827  19.246  30.659  12.909
11403W        W83828  12.828  24.599  10.340
11404W        W83829  35.782  37.211   4.232
11405W        W83830  16.550  44.971   0.407
11406W        W83831  42.579  11.437  13.571
11407W        W83832   2.730  22.616  11.627
11408W        W83833   6.371  25.152  14.801
11409W        W83834  34.350   4.872  14.374
11410W        W83835  33.877  25.019   3.810
11411W        W83836  10.391  15.319   2.866
11412W        W83837  34.572  36.086  11.604
11413W        W83838  40.081  36.823  10.750
11414W        W83839  13.222  14.149   1.348
11415W        W83840  10.741  22.274  10.252
11416W        W83841   8.726  23.956  11.486
11417W        W83842  39.397  22.090   2.784
11418W        W83843  24.099  27.071   0.245
11419W        W83844  13.601  42.447   2.273
11420W        W83845  22.026  43.710  12.906
11421W        W83846  32.200  27.940  14.296
11422W        W83847  16.229  17.157  13.797
11423W        W83848   9.249  10.269   5.079
11424W        W83849  37.664  23.594  13.030
11425W        W83850  20.797  25.288   1.451
11426W        W83851  37.434  11.173  12.420
11427W        W83852  43.965  33.405   2.364
11428W        W83853  24.264  28.805   3.910
11429W        W83854   0.298   0.221   0.312
11430W        W83855  32.480   7.227   1.799
11431W        W83856  14.139  39.879   0.657
11432W        W83857  13.988  17.211   3.758
11433W        W83858   7.891  44.538  13.320
11434W        W83859   0.973  20.444   3.134
11435W        W83860   6.800  33.895   3.943
11436W        W83861  24.076   9.899  14.981
11437W        W83862  44.251  32.064   0.778
11438W        W83863   7.218  21.444  10.955
11439W        W83864  37.823  23.820  14.136
11440W        W83865  28.741   8.212   2.890
11441W        W83866  29.473  41.452  11.895
11442W        W83867   7.637  33.083   4.552
11443W        W83868  29.668  37.432  14.110
11444W        W83869  27.014  40.477  14.960
11445W        W83870  15.427  15.255   4.752
11446W        W83871  35.075   9.932   4.223
11447W        W83872  14.739  11.272  13.361
11448W        W83873   1.479  36.826  12.169
11449W        W83874  33.049  31.910  14.375
11450W        W83875   5.186  19.758   2.955
11451W        W83876  11.736  15.117  12.376
11452W        W83877  19.662  18.668   4.641
11453W        W83878  30.025  16.397  13.829
11454W        W83879   8.370  12.918  13.741
11455W        W83880  20.104   7.248  12.907
11456W        W83881  10.657  13.711   3.286
11457W        W83882  38.853  32.314   4.205
11458W        W83883   6.316  11.293  10.380
11459W        W83884  22.185  30.968   0.962
11460W        W83885  44.820  32.799  12.412
11461W        W83886  37.843  36.325   0.451
11462W        W83887  14.533   1.053   5.454
11463W        W83888  32.867  21.999   4.320
11464W        W83889   8.398  33.390   2.065
11465W        W83890  21.024   9.263   3.257
11466W        W83891  13.029  10.583  12.381
11467W        W83892   0.413  10.170   4.999
11468W        W83893  10.291  31.490   3.219
11469W        W83894  27.635  16.052  11.670
11470W        W83895  31.376  36.999  13.516
11471W        W83896   7.706   7.924   1.173
11472W        W83897  21.196   3.492   3.655
11473W        W83898  19.672  39.592  11.074
11474W        W83899  12.327   8.095  14.327
11475W        W83900  13.203  27.717   1.193
11476W        W83901   9.016  11.524   3.774
11477W        W83902  44.062  12.745   2.153
11478W        W83903  26.097  12.601   0.588
11479W        W83904   5.316  14.026   2.709
11480W        W83905  31.913  37.419   3.624
11481W        W83906   4.696   2.338  14.536
11482W        W83907  41.268   0.316  11.087
11483W        W83908   2.269  42.556   4.208
11484W        W83909  31.865  36.516  13.969
11485W        W83910   4.748  26.346   5.043
11486W        W83911  32.989  16.357   3.650
11487W        W83912  15.534  39.471  11.163
11488W        W83913  12.882  41.315  12.629
11489W        W83914  30.242  20.275  13.006
11490W        W83915  14.542  15.667   1.315
11491W        W83916  11.107  22.605  10.934
11492W        W83917  21.759   7.363   0.512
11493W        W83918  21.438  36.518  12.413
11494W        W83919  31.443  43.602  10.666
11495W        W83920  38.697  11.481  11.580
11496W        W83921  12.827  15.168   0.239
11497W        W83922  39.481  23.741  14.851
11498W        W83923  18.805  43.192  14.065
11499W        W83924  29.686  15.316  13.008
11500W        W83925  15.720  14.517  13.985
11501W        W83926   6.246  38.544  10.289
11502W        W83927  13.112   0.461  10.602
11503W        W83928  35.868  28.155   3.279
11504W        W83929  35.894  13.911  13.439
11505W        W83930  40.324   4.931  12.132
11506W        W83931  23.557  11.786   3.383
11507W        W83932  42.012   8.201   0.740
11508W        W83933   0.988  28.000  13.523
11509W        W83934   7.735  29.021  12.379
11510W        W83935   1.679   1.377  12.692
11511W        W83936  32.698  39.634  12.573
11512W        W83937  41.241  36.530   2.787
11513W        W83938   6.800   0.647  14.439
11514W        W83939  27.630  43.548   1.758
11515W        W83940  17.314  18.190  13.434
11516W        W83941   8.201  33.645   1.121
11517W        W83942   7.290  30.583   1.854
11518W        W83943   1.454  24.027  14.915
11519W        W83944  13.867  14.679   4.709
11520W        W83945  31.422  10.507   3.269
11521W        W83946   6.700  25.157  11.072
11522W        W83947  42.383   1.732   5.209
11523W        W83948  44.347  41.030  10.782
11524W        W83949   1.758  19.637   1.403
11525W        W83950  26.414  15.672  12.482
11526W        W83951  21.436  28.529   1.843
11527W        W83952  30.115  16.330   0.257
11528W        W83953  30.597  18.948   0.419
11529W        W83954   5.826   1.885  12.797
11530W        W83955   4.658  33.992   1.187
11531W        W83956  32.987  20.125  10.691
11532W        W83957   6.809  42.049  12.445
11533W        W83958   2.140  25.086  12.124
11534W        W83959  23.959  16.555   0.453
11535W        W83960  33.494  19.444  13.575
11536W        W83961   9.669  16.260   3.685
11537W        W83962  41.950  18.800   4.557
11538W        W83963  36.286  35.602   2.334
11539W        W83964  21.682   8.926  13.046
11540W        W83965   5.326  26.634  12.360
11541W        W83966   8.843  11.412  10.998
11542W        W83967  40.411   1.866   4.136
11543W        W83968   1.886  26.412  12.024
11544W        W83969  27.750  31.361   2.189
11545W        W83970  34.651  34.078   0.291
11546W        W83971  30.430  11.373   1.414
11547W        W83972  21.246   6.461  14.340
11548W        W83973  41.841  13.373  13.048
11549W        W83974  24.708  32.453  11.842
11550W        W83975   0.966  24.506  13.769
11551W        W83976   7.841   7.420  11.516
11552W        W83977   5.754  21.597  10.877
11553W        W83978   8.751  27.636   2.493
11554W        W83979   4.331  30.410  14.501
11555W        W83980  20.436  31.043  12.424
11556W        W83981  39.089   9.128   0.732
11557W        W83982  38.558  15.026   4.061
11558W        W83983  30.135   4.280   4.690
11559W        W83984  40.280  27.528  13.930
11560W        W83985  43.321  34.563   0.917
11561W        W83986  15.711   3.297   1.935
11562W        W83987  26.277  14.242   1.246
11563W        W83988  25.681  39.503  13.495
11564W        W83989  29.661  38.606  10.211
11565W        W83990  16.547  40.367  14.964
11566W        W83991  34.903  44.517  11.556
11567W        W83992  43.374  11.877  13.220
11568W        W83993  24.242  36.507  12.074
11569W        W83994  34.511  21.236   0.481
11570W        W83995  18.691   1.427  14.978
11571W        W83996  26.175  17.386  11.911
11572W        W83997  17.200   2.000  13.301
11573W        W83998  15.796   5.958   1.214
11574W        W83999  16.213  29.162   1.747
11575W        W84000  29.286  13.749  14.729
11576W        W84001  17.120   4.440  13.603
11577W        W84002  26.927  42.273  11.042
11578W        W84003   2.907  43.608  14.403
11579W        W84004   7.884  14.588   2.909
11580W        W84005  16.793  27.888  14.906
11581W        W84006  23.981   5.290  11.558
11582W        W84007   5.320  27.416   4.113
11583W        W84008   4.734  42.419  12.113
11584W        W84009   3.686  24.933   1.408
11585W        W84010  31.383  19.117  12.053
11586W        W84011  12.144  25.254  14.346
11587W        W84012  33.283  32.812   2.724
11588W        W84013  42.596  11.353   0.802
11589W        W84014  25.721   7.300   0.944
11590W        W84015  37.569  32.688  12.894
11591W        W84016  42.831  11.199  14.466
11592W        W84017  30.437   9.691  14.881
11593W        W84018   8.217  41.120   4.783
11594W        W84019  21.799   6.755   1.790
11595W        W84020  23.196  33.680   1.327
11596W        W84021  17.652  25.185   0.493
11597W        W84022  28.314  11.551  13.919
11598W        W84023  35.907  14.253   2.618
11599W        W84024  14.358  11.364   4.629
11600W        W84025  43.916  11.406  13.983
11601W        W84026  38.695   0.243   0.845
11602W        W84027  13.678  38.926   0.723
11603W        W84028  12.342  29.693   3.671
11604W        W84029  33.857   2.806   1.837
11605W        W84030   7.218   1.558   3.309
11606W        W84031  41.464  43.042  10.570
11607W        W84032  17.497  38.657   0.368
11608W        W84033   5.348   4.291  13.284
11609W        W84034  20.954  28.458   3.777
11610W        W84035   0.494  35.994   0.026
11611W        W84036   5.233  25.514   1.852
11612W        W84037  18.728  36.140  10.552
11613W        W84038  18.050  33.651  10.720
11614W        W84039  16.701  27.514  10.674
11615W        W84040  29.556  26.899  14.781
11616W        W84041  17.731  29.537   2.225
11617W        W84042  10.332  22.381   4.733
11618W        W84043  23.171  24.645  13.935
11619W        W84044  41.306  18.549  13.012
11620W        W84045   2.783   0.447  10.702
11621W        W84046  27.960   5.731   4.579
11622W        W84047   2.264  16.809  12.894
11623W        W84048  36.311  42.362   3.605
11624W        W84049  35.267  41.457   4.985
11625W        W84050  34.371  36.167  13.492
11626W        W84051  29.202   4.455  12.944
11627W        W84052  19.647  14.270  11.949
11628W        W84053  30.122  37.130   0.478
11629W        W84054  31.849   8.632  11.553
11630W        W84055  35.064  16.572   3.197
11631W        W84056  31.397  33.161  10.816
11632W        W84057  16.535  30.703  10.966
11633W        W84058  37.637  40.669  12.969
11634W        W84059  29.255   5.381   4.477
11635W        W84060  18.879   1.925   2.783
11636W        W84061   3.171  11.108   0.981
11637W        W84062  20.927   6.202   3.284
11638W        W84063  35.892  39.214   4.171
11639W        W84064  12.901   5.925  11.148
11640W        W84065   5.809  38.505  12.374
11641W        W84066  20.993  25.140  14.007
11642W        W84067  25.845  41.007   1.222
11643W        W84068  33.370   1.276  11.498
11644W        W84069  42.729  30.157  11.438
11645W        W84070  24.022   7.187  14.367
11646W        W84071  24.713  21.460   3.817
11647W        W84072   8.696  14.586   0.243
11648W        W84073  33.585  35.101   2.776
11649W        W84074   7.684   1.787   9.865
11650W        W84075  37.953  24.176  14.491
11651W        W84076  24.535  16.302  13.497
11652W        W84077   7.868  19.009   3.935
11653W        W84078   5.764  37.268  14.197
11654W        W84079  14.796  24.271   1.953
11655W        W84080  10.387  38.777  14.328
11656W        W84081  22.573  41.234   0.951
11657W        W84082  30.965  31.120   3.923
11658W        W84083   7.236  44.783   0.300
11659W        W84084   1.923   4.316   0.948
11660W        W84085  39.623  25.487   3.715
11661W        W84086   1.271  44.290   2.294
11662W        W84087   2.412   4.849   0.256
11663W        W84088  27.114  43.142  10.707
11664W        W84089  27.740  38.035  14.266
11665W        W84090  25.618  25.534  13.957
11666W        W84091  27.482  44.676  12.119
11667W        W84092  37.118  41.849   3.269
11668W        W84093   0.601  26.220   3.118
11669W        W84094  15.402   9.291  13.377
11670W        W84095   6.140  41.580  14.287
11671W        W84096  40.406  25.544   1.434
11672W        W84097   7.787  14.176   0.958
11673W        W84098  16.677   6.891   4.227
11674W        W84099  10.441  18.602  11.557
11675W        W84100   8.748  38.663  12.520
11676W        W84101   9.360   0.948   3.705
11677W        W84102  26.110  28.971   0.436
11678W        W84103  10.576   9.370   0.098
11679W        W84104  35.883   9.706  12.127
11680W        W84105  24.595  17.759   0.479
11681W        W84106  17.546   3.414  14.282
11682W        W84107   9.307   2.388  13.215
11683W        W84108  13.647  19.280   2.874
11684W        W84109  14.510  12.473   4.953
11685W        W84110  19.804  13.024   5.190
11686W        W84111  25.059  34.921  11.606
11687W        W84112  24.042  37.467   2.204
11688W        W84113  13.669  38.503  10.273
11689W        W84114  14.814   8.609   3.379
11690W        W84115  34.809  31.627  13.050
11691W        W84116   4.879  19.338  10.524
11692W        W84117  35.485  44.086  13.357
11693W        W84118  19.704  25.961  13.415
11694W        W84119   9.310  25.032  10.723
11695W        W84120  18.941  36.897  10.942
11696W        W84121  30.583  14.269  14.692
11697W        W84122  44.629   3.044   2.246
11698W        W84123  12.638   6.506   2.114
11699W        W84124  12.144   6.370  10.980
11700W        W84125  11.633   2.770  10.480
11701W        W84126  27.960  39.109   0.262
11702W        W84127   6.348   8.950  13.861
11703W        W84128   1.254   3.331  14.403
11704W        W84129  21.243  22.238   0.317
11705W        W84130  29.663  28.432   1.754
11706W        W84131  11.593  31.495  13.838
11707W        W84132  28.519  21.954  13.386
11708W        W84133  42.089  25.531  13.044
11709W        W84134  26.134  27.418   2.827
11710W        W84135   8.758   9.144   3.077
11711W        W84136  29.174   9.580  12.926
11712W        W84137  43.483  21.747  12.616
11713W        W84138  11.158  26.737   3.392
11714W        W84139  37.310  30.582   1.412
11715W        W84140  19.295  17.867   2.187
11716W        W84141  28.499  35.055  14.173
11717W        W84142   4.751  44.989   4.818
11718W        W84143  38.929  20.040  14.103
11719W        W84144  42.338  26.414  14.768
11720W        W84145   6.415  19.188   3.308
11721W        W84146  25.756   1.018   1.677
11722W        W84147  28.358  17.021   1.423
11723W        W84148  37.383  41.255   1.029
11724W        W84149  44.399  37.996   1.728
11725W        W84150   6.805   3.530  11.590
11726W        W84151  21.387  12.666   0.793
11727W        W84152  15.916  15.265   1.291
11728W        W84153  25.587   9.843  13.796
11729W        W84154   8.905  38.886   4.093
11730W        W84155   2.662   8.351   3.213
11731W        W84156  28.695  16.070   0.453
11732W        W84157  21.739  34.082   3.662
11733W        W84158  11.250  22.147  10.223
11734W        W84159   1.850   8.959  11.224
11735W        W84160  38.808   8.189   4.559
11736W        W84161  14.158   0.255   1.822
11737W        W84162  11.195  13.744   0.701
11738W        W84163   0.807  30.970   3.409
11739W        W84164  24.214   1.319  12.869
11740W        W84165  36.519   6.667  13.475
11741W        W84166   0.428   9.828  10.469
11742W        W84167   1.489  14.780   1.954
11743W        W84168  41.851  37.850   3.185
11744W        W84169  27.500   3.011   2.847
11745W        W84170  10.382  17.837  11.961
11746W        W84171  25.684  32.495  11.593
11747W        W84172  19.852  25.976   4.283
11748W        W84173  26.177  41.565  11.947
11749W        W84174   5.810  14.616   0.274
11750W        W84175  35.811  10.912  13.946
11751W        W84176  19.487  30.193  12.965
11752W        W84177  34.432  37.384   0.007
11753W        W84178   2.241  13.150  10.742
11754W        W84179  18.369  33.113   5.144
11755W        W84180  22.392  20.476   0.071
11756W        W84181  18.275  31.848  10.003
11757W        W84182   3.629  33.115  10.246
11758W        W84183  42.066  16.586   0.274
11759W        W84184  14.418  21.542  13.894
11760W        W84185  37.859  33.115   4.068
11761W        W84186   7.658  35.833   0.596
11762W        W84187  36.847   4.819  14.512
11763W        W84188  16.025  33.539  12.890
11764W        W84189  41.844   4.757   0.784
11765W        W84190  34.661  35.212  12.155
11766W        W84191  29.853  36.393   2.774
11767W        W84192  38.963  38.846   3.368
11768W        W84193  27.195   6.970   1.392
11769W        W84194  25.487  31.550   3.130
11770W        W84195   3.848   4.328   1.177
11771W        W84196  25.163   1.235   0.739
11772W        W84197  10.221  35.920   2.697
11773W        W84198   2.376  10.050  13.475
11774W        W84199  42.723  25.108  11.097
11775W        W84200  30.512   9.694  10.421
11776W        W84201  34.766  25.037   0.218
11777W        W84202   8.716  28.622   1.844
11778W        W84203  30.036  21.101  11.282
11779W        W84204  15.583  24.892   1.929
11780W        W84205  30.155   0.833   3.272
11781W        W84206  34.429  37.043  13.748
11782W        W84207  18.307   7.373  13.962
11783W        W84208  17.156  26.256  12.536
11784W        W84209  36.407  10.174  12.432
11785W        W84210   2.212  20.751  14.533
11786W        W84211  13.808  36.413  10.880
11787W        W84212   1.972  24.427   3.778
11788W        W84213   5.163  23.697   3.418
11789W        W84214  10.851  15.637  11.364
11790W        W84215  19.501   2.769   1.843
11791W        W84216  15.686  13.792  12.422
11792W        W84217  44.896  30.502  13.885
11793W        W84218  20.389  21.504  12.837
11794W        W84219   5.605  14.190   1.263
11795W        W84220   6.333  20.307   2.912
11796W        W84221  25.978  36.935   2.821
11797W        W84222  17.223  41.726  13.415
11798W        W84223  41.953   9.741   1.264
11799W        W84224  40.775  28.050   1.822
11800W        W84225  38.407  23.003  11.129
11801W        W84226   6.794  18.062   3.679
11802W        W84227  33.973   6.670  14.999
11803W        W84228  22.152  22.912  11.590
11804W        W84229  31.619  38.260  14.458
11805W        W84230  33.581  30.658   9.955
11806W        W84231  26.488  16.586  11.178
11807W        W84232  28.325  26.120  11.517
11808W        W84233  34.089  17.290  13.783
11809W        W84234  27.507  37.391   0.896
11810W        W84235   0.339  41.714  12.500
11811W        W84236  32.549  18.328  11.107
11812W        W84237  35.771  23.548  13.487
11813W        W84238   6.600  14.799  10.987
11814W        W84239  30.519  24.191  14.294
11815W        W84240  33.791  40.201  11.526
11816W        W84241  15.387  38.222   0.645
11817W        W84242  21.447   4.592  13.275
11818W        W84243   3.982  40.464  10.823
11819W        W84244  16.039   0.568   0.826
11820W        W84245  32.596  15.126   3.520
11821W        W84246  13.392   2.554   1.259
11822W        W84247  21.091   1.769  12.463
11823W        W84248   5.948  34.171  12.206
11824W        W84249  44.860  18.633   1.230
11825W        W84250  19.052  10.690   0.273
11826W        W84251  35.561   6.912   3.185
11827W        W84252  36.499  17.896   0.326
11828W        W84253  16.087   1.991   0.290
11829W        W84254  13.641  15.757  12.383
11830W        W84255  18.349  44.383  12.374
11831W        W84256   5.211  32.587   2.176
11832W        W84257  35.003   7.669   1.285
11833W        W84258  35.619  33.654  11.681
11834W        W84259  41.769  13.754   1.812
11835W        W84260  31.893  11.744  14.063
11836W        W84261   3.396  43.714   1.852
11837W        W84262  44.408  23.721  13.557
11838W        W84263  21.512  21.986   1.965
11839W        W84264  29.370  12.254   0.552
11840W        W84265  25.219   2.726   1.271
11841W        W84266  35.403  42.011   0.937
11842W        W84267  18.713  15.395  13.094
11843W        W84268  11.388  30.015  12.470
11844W        W84269   3.553   4.795  10.739
11845W        W84270   5.521  15.040   0.334
11846W        W84271  35.382  15.565  14.050
11847W        W84272   9.267  29.909   2.297
11848W        W84273  14.144  38.720  10.187
11849W        W84274  25.611   4.176   0.781
11850W        W84275  19.261  20.047   1.681
11851W        W84276  20.687   7.720   4.873
11852W        W84277   4.443   7.858  12.486
11853W        W84278  24.905   2.483   3.803
11854W        W84279  11.380   4.706   2.309
11855W        W84280  30.181   5.687   3.634
11856W        W84281  18.506  11.849  11.211
11857W        W84282  23.204  12.140  12.996
11858W        W84283  41.130  38.470  13.068
11859W        W84284  33.378  17.597  12.061
11860W        W84285  13.044   6.800   3.631
11861W        W84286  18.937   7.338   5.120
11862W        W84287  36.224  34.451  14.289
11863W        W84288  13.283  32.783  10.442
11864W        W84289  21.597  22.470   2.273
11865W        W84290   2.964  22.521  13.571
11866W        W84291  39.585  39.847   1.333
11867W        W84292   9.767  12.811  13.771
11868W        W84293  43.003  37.097  14.348
11869W        W84294   4.832  42.786  14.823
11870W        W84295  10.837   3.109   3.368
11871W        W84296  26.435   4.366  10.483
11872W        W84297   5.418   7.353  14.983
11873W        W84298  24.747  40.007  11.552
11874W        W84299  33.190  15.032  13.322
11875W        W84300  32.078   3.321   3.794
11876W        W84301  30.913  23.171   2.308
11877W        W84302  24.026   2.691  13.053
11878W        W84303  12.789  30.860   2.036
11879W        W84304  24.094  37.396   1.673
11880W        W84305  16.056  30.409  13.796
11881W        W84306  22.005  17.727   2.727
11882W        W84307  20.320  24.016  14.824
11883W        W84308  41.054  32.445   0.696
11884W        W84309   0.702   7.260   4.400
11885W        W84310  42.738  34.787   3.305
11886W        W84311  39.719   8.097   1.504
11887W        W84312  26.002  40.467   3.742
11888W        W84313  12.971  31.651   1.867
11889W        W84314  44.619   1.321  11.182
11890W        W84315  19.152  29.578   2.947
11891W        W84316  26.884  16.748   3.529
11892W        W84317  18.512  22.664   2.686
11893W        W84318  18.833  11.571  12.924
11894W        W84319  33.059  27.123  12.522
11895W        W84320  16.505  37.754   2.340
11896W        W84321  17.586   3.237   0.018
11897W        W84322  44.848  16.117  13.701
11898W        W84323  35.576  33.937   2.916
11899W        W84324  33.442   0.999  14.018
11900W        W84325  13.098  23.218   3.858
11901W        W84326   5.935  15.328   1.944
11902W        W84327   2.973   3.947  14.464
11903W        W84328  33.453  40.978  11.683
11904W        W84329  19.228  25.170   4.273
11905W        W84330  42.579   9.746   3.011
11906W        W84331  21.149  21.975   0.751
11907W        W84332   7.466   6.237   3.641
11908W        W84333   9.838  21.617  14.956
11909W        W84334  14.710   5.774   1.185
11910W        W84335  25.021  17.029  11.396
11911W        W84336   5.179  36.526   4.022
11912W        W84337  35.541  33.367   1.669
11913W        W84338   5.191  35.854  13.966
11914W        W84339  41.514  24.444   1.685
11915W        W84340  14.124  14.253  14.978
11916W        W84341  42.795  20.669  14.031
11917W        W84342  39.583  35.029  12.878
11918W        W84343  43.279  16.767  13.193
11919W        W84344  21.772   6.199  14.271
11920W        W84345  38.042  30.797   1.808
11921W        W84346  35.504   2.608   1.328
11922W        W84347  44.517  20.141  13.052
11923W        W84348  10.585  33.105  12.726
11924W        W84349  23.700  13.881  11.471
11925W        W84350   3.925  24.629   3.647
11926W        W84351   7.741   8.256   4.388
11927W        W84352  38.880  11.768  11.184
11928W        W84353   8.300  15.624   2.890
11929W        W84354   5.767  27.124   2.523
11930W        W84355  16.816   2.670  14.881
11931W        W84356  33.697   3.973   4.386
11932W        W84357  38.258  44.460   1.777
11933W        W84358   6.115   4.386  11.012
11934W        W84359  31.338   2.204  11.716
11935W        W84360   3.899  40.604  11.661
11936W        W84361  18.205  38.012   4.853
11937W        W84362  16.404  42.182  10.999
11938W        W84363  19.237  13.797  11.215
11939W        W84364  24.606  38.975   3.854
11940W        W84365  36.499   4.043  11.577
11941W        W84366   2.699  42.196   1.474
11942W        W84367  41.333  31.140   0.226
11943W        W84368  15.775  17.960  12.405
11944W        W84369  10.273   4.265   2.140
11945W        W84370  33.745   4.166  12.352
11946W        W84371   3.032   4.831  14.114
11947W        W84372   9.568  30.757  13.589
11948W        W84373   0.977  27.049  11.856
11949W        W84374  44.256  20.778  10.168
11950W        W84375  20.458  22.017   4.790
11951W        W84376  19.027  43.477   3.249
11952W        W84377  34.968  10.085  12.381
11953W        W84378  38.401  41.996   1.758
11954W        W84379  24.115   4.021  10.467
11955W        W84380  38.023  28.879   2.649
11956W        W84381  41.951  34.133  14.029
11957W        W84382  43.798  13.194   2.220
11958W        W84383  25.757  32.652   0.423
11959W        W84384  34.123  41.306   4.600
11960W        W84385  32.636  44.145  14.552
11961W        W84386  25.103  40.283  14.700
11962W        W84387  19.580  29.452  12.564
11963W        W84388  44.854  11.898  14.481
11964W        W84389  43.916  25.394  14.977
11965W        W84390   4.802  40.015  11.081
11966W        W84391  42.489  36.024   1.698
11967W        W84392  17.025  33.647   1.882
11968W        W84393   0.277  40.617  11.119
11969W        W84394  22.827  39.510   1.765
11970W        W84395  15.845   7.907   1.531
11971W        W84396  42.258  44.733  14.350
11972W        W84397  32.844  24.216  13.637
11973W        W84398  44.337  21.103  14.327
11974W        W84399   0.405   1.229  12.565
11975W        W84400   2.010  25.796  12.748
11976W        W84401  10.368   2.472   2.058
11977W        W84402  24.516  39.451  12.625
11978W        W84403  11.118  44.038   2.308
11979W        W84404  38.658  25.251   3.416
11980W        W84405  21.750   8.620   0.868
11981W        W84406  20.548  25.735  13.361
11982W        W84407  37.050  20.257   1.876
11983W        W84408  43.912  38.821  14.439
11984W        W84409  43.920  32.067   2.676
11985W        W84410  33.854  14.372   0.634
11986W        W84411   1.502   6.183   0.533
11987W        W84412  38.990  17.302  11.915
11988W        W84413   5.123  15.997   1.167
11989W        W84414  28.738  22.580  11.914
11990W        W84415  43.580  39.955   1.854
11991W        W84416  30.011  23.823   1.400
11992W        W84417  43.265   8.954   0.411
11993W        W84418  19.417   2.223   0.290
11994W        W84419  21.014  42.320  12.492
11995W        W84420  24.643  21.720  12.666
11996W        W84421  13.760  10.179  12.495
11997W        W84422  32.221  38.948  13.665
11998W        W84423  42.949  42.485   3.683
11999W        W84424  32.902  28.938  11.920
12000W        W84425   2.957  18.622   2.332
12001W        W84426  10.136   8.846   1.961
12002W        W84427  19.645  23.755  11.884
12003W        W84428  41.906  24.006   2.251
12004W        W84429  17.756  18.205   3.214
12005W        W84430  38.457  22.174   2.757
12006W        W84431  10.770  43.292  11.387
12007W        W84432  10.210  25.628   2.319
12008W        W84433  28.801  14.731  13.746
12009W        W84434  38.324  15.239  13.240
12010W        W84435  39.187   3.769   0.821
12011W        W84436  34.395  22.117   2.709
12012W        W84437  44.216  32.302  12.378
12013W        W84438  12.293  35.603   0.698
12014W        W84439  12.572  34.675   3.580
12015W        W84440  27.093   1.357   4.957
12016W        W84441  27.334   8.108  11.865
12017W        W84442   8.245  39.298  12.929
12018W        W84443  33.181   0.350   1.323
12019W        W84444  35.404  29.046   4.034
12020W        W84445  10.354  40.866  14.858
12021W        W84446  37.625  15.828   2.742
12022W        W84447  44.815  11.200  11.127
12023W        W84448  44.466  18.208  10.548
12024W        W84449  39.820  31.173   4.844
12025W        W84450  13.879  17.545   4.149
12026W        W84451  31.969  37.377  13.576
12027W        W84452  42.849   7.229   4.723
12028W        W84453  25.497  39.455   3.585
12029W        W84454   7.679   0.409   1.290
12030W        W84455  17.232  38.146  11.516
12031W        W84456  16.842  18.118   0.987
12032W        W84457  24.723  38.653  13.868
12033W        W84458  33.384  37.907   3.884
12034W        W84459  43.585  33.550  13.274
12035W        W84460  10.816  38.439   1.352
12036W        W84461  40.905  25.140   3.638
12037W        W84462  43.398  22.883  11.672
12038W        W84463  31.382  18.887  10.641
12039W        W84464  11.378  44.446   3.589
12040W        W84465   4.856  19.580   1.213
12041W        W84466  26.490  32.430   4.596
12042W        W84467  15.658  41.383   1.326
12043W        W84468   0.938  17.979   0.402
12044W        W84469  29.206  27.507   0.054
12045W        W84470  19.726  28.759   0.261
12046W        W84471  15.872  43.325  13.887
12047W        W84472   6.850  23.485   4.133
12048W        W84473  10.715  26.472   3.326
12049W        W84474  36.369  11.119   3.615
12050W        W84475  35.446  34.857   4.323
12051W        W84476  34.363   4.234   1.515
12052W        W84477   4.541  16.173  13.101
12053W        W84478  27.823  14.885  14.024
12054W        W84479  10.283   8.265  11.162
12055W        W84480  19.452   7.681   2.290
12056W        W84481   1.637   1.284  13.971
12057W        W84482  37.869  18.536  12.577
12058W        W84483  12.230  27.240   3.087
12059W        W84484   1.639  22.192  12.030
12060W        W84485  12.283  24.285  10.593
12061W        W84486  39.762  43.832   2.851
12062W        W84487   5.309  17.624   2.744
12063W        W84488  27.600  18.114  14.801
12064W        W84489  44.761  37.945  12.519
12065W        W84490  35.001   7.327  13.997
12066W        W84491   9.177  13.837  13.872
12067W        W84492  15.660  23.742   2.256
12068W        W84493  29.227  31.097   2.362
12069W        W84494  22.082  38.422  10.262
12070W        W84495   6.471  21.084  13.033
12071W        W84496   2.420  37.939  14.871
12072W        W84497  25.930  35.577   4.643
12073W        W84498  32.858   4.960   0.693
12074W        W84499  28.031  43.386  12.532
12075W        W84500  27.505  12.890  14.777
12076W        W84501  25.647  35.953   0.769
12077W        W84502  29.406  24.017  12.855
12078W        W84503  13.016   3.789  12.627
12079W        W84504   8.170  23.534  13.520
12080W        W84505  22.480  33.157   2.795
12081W        W84506   4.376  22.027  12.869
12082W        W84507  11.057  32.618  13.649
12083W        W84508  32.009  10.373  14.347
12084W        W84509   5.663  13.408   3.418
12085W        W84510  30.040   7.641   2.818
12086W        W84511  30.030  40.786  11.972
12087W        W84512  33.715  17.590   9.972
12088W        W84513  38.585  43.545   4.044
12089W        W84514  32.455  42.358  13.008
12090W        W84515  40.393   6.205  12.548
12091W        W84516  27.628  17.386  14.477
12092W        W84517  10.169   4.763  11.510
12093W        W84518  31.389  28.870  14.902
12094W        W84519  20.066  33.487  11.403
12095W        W84520   5.905  26.727  12.502
12096W        W84521  33.063   7.197   0.982
12097W        W84522   9.108   3.163   3.610
12098W        W84523  38.943  38.376   3.643
12099W        W84524   2.374   6.966  11.091
12100W        W84525  13.512  39.903  11.244
12101W        W84526   3.991  15.274   4.610
12102W        W84527  41.875  26.728   1.887
12103W        W84528  16.291   8.384  11.153
12104W        W84529  39.790   3.421   3.644
12105W        W84530   7.416  12.130  13.967
12106W        W84531   5.167   4.438   0.620
12107W        W84532  34.517  12.098  13.050
12108W        W84533  37.326   1.963  12.399
12109W        W84534  33.459  10.283   4.719
12110W        W84535  32.465   6.204   2.540
12111W        W84536  30.633  33.835   2.154
12112W        W84537  29.666  17.485  11.554
12113W        W84538   7.668   4.432   0.050
12114W        W84539  44.416  40.020   2.978
12115W        W84540  10.742  20.062   2.072
12116W        W84541  27.690  12.309   1.899
12117W        W84542   7.422  27.270   2.801
12118W        W84543  24.734  41.827   0.516
12119W        W84544  39.849  38.911  14.188
12120W        W84545  29.360  36.599   3.469
12121W        W84546  37.908   7.589  11.657
12122W        W84547  17.093  35.375   4.227
12123W        W84548  12.143  25.060  12.465
12124W        W84549  40.280  11.166  13.901
12125W        W84550  12.151  43.006  11.581
12126W        W84551   9.730  30.227   3.216
12127W        W84552  22.491  44.059  13.753
12128W        W84553  35.513   3.609   3.765
12129W        W84554   5.638  32.600  14.822
12130W        W84555  21.073   9.730  12.998
12131W        W84556  35.339  23.232   4.621
12132W        W84557  10.236   3.436   1.235
12133W        W84558   3.523  33.702   3.284
12134W        W84559  14.023  16.622   0.677
12135W        W84560  39.150  35.564   3.193
12136W        W84561  12.279  20.231   4.483
12137W        W84562  38.484  35.615   4.071
12138W        W84563   6.379   3.726  10.630
12139W        W84564  35.166  32.034   0.768
12140W        W84565  33.655  18.462  12.063
12141W        W84566  24.509  27.706   1.840
12142W        W84567  27.751   3.427  14.460
12143W        W84568  30.992  38.588  12.891
12144W        W84569   2.905  14.931  12.202
12145W        W84570  33.867  10.498  13.534
12146W        W84571  39.280   7.318  14.985
12147W        W84572  10.842  15.711  13.001
12148W        W84573  21.069  17.636  10.502
12149W        W84574  40.035  34.419   4.460
12150W        W84575  15.586   6.965   2.562
12151W        W84576  14.824  30.217   2.258
12152W        W84577  42.773   6.233   3.318
12153W        W84578  21.155  24.936  11.814
12154W        W84579  16.799   5.683   2.094
12155W        W84580  11.759  13.753   3.324
12156W        W84581  27.974  34.177   2.259
12157W        W84582  39.421  41.838   3.313
12158W        W84583  44.832  14.265  11.936
12159W        W84584  11.449  41.781   1.814
12160W        W84585   5.424  17.672  13.584
12161W        W84586   8.744  35.346  10.805
12162W        W84587  32.643   4.679  11.086
12163W        W84588  28.011  25.190  12.465
12164W        W84589  25.106  30.168  11.999
12165W        W84590  15.780   0.527   4.329
12166W        W84591  11.254  24.615   4.204
12167W        W84592  22.347   7.938  13.408
12168W        W84593  13.378  32.587   4.739
12169W        W84594   9.936  29.544  14.856
12170W        W84595  44.928  31.617  11.700
12171W        W84596   3.927  10.922   3.732
12172W        W84597   2.353  41.839  10.725
12173W        W84598   9.627  26.633  11.623
12174W        W84599  32.494  27.811  12.084
12175W        W84600  32.919  40.014   4.055
12176W        W84601  44.844   7.053   1.710
12177W        W84602  38.835   0.424   2.467
12178W        W84603  44.523  35.608   3.085
12179W        W84604  22.457  22.634   3.223
12180W        W84605  11.136  10.943  13.108
12181W        W84606  17.563  37.649   0.340
12182W        W84607  33.101  22.373  14.301
12183W        W84608   3.451  10.809  14.242
12184W        W84609  13.648   7.681  14.566
12185W        W84610  44.119  24.884  11.116
12186W        W84611  28.052  27.062  13.934
12187W        W84612   7.836   1.791   0.954
12188W        W84613   1.631  14.463   4.164
12189W        W84614  12.669  33.838   3.845
12190W        W84615  31.736  39.430  12.425
12191W        W84616  41.846  25.429   4.562
12192W        W84617  38.502   5.529   2.842
12193W        W84618  30.329  16.077  11.689
12194W        W84619  15.513   2.203   5.550
12195W        W84620  21.983  22.500   4.582
12196W        W84621  32.927  12.284   0.245
12197W        W84622  25.874  19.699  14.317
12198W        W84623  32.141  12.704   0.444
12199W        W84624  33.563  28.994   3.267
12200W        W84625  36.704   3.483  14.815
12201W        W84626   7.980  42.485  12.066
12202W        W84627  35.869  11.033   3.826
12203W        W84628   0.694   2.416   3.695
12204W        W84629  24.678  11.212  14.879
12205W        W84630   4.215  20.604  12.866
12206W        W84631  15.754  35.498   4.073
12207W        W84632   4.666  34.465  12.430
12208W        W84633   0.741  43.985  13.984
12209W        W84634   2.253  10.094   4.447
12210W        W84635  24.946   1.490   3.353
12211W        W84636  27.605  31.025   3.162
12212W        W84637  12.798  24.046   4.219
12213W        W84638  21.513   5.019   4.136
12214W        W84639  34.709  26.954   4.974
12215W        W84640  43.096  32.849  13.861
12216W        W84641  14.654  32.120   2.325
12217W        W84642  26.960   9.576   0.015
12218W        W84643  36.822   1.286  14.978
12219W        W84644   9.580  34.484   0.927
12220W        W84645   4.853  40.337   3.972
12221W        W84646  43.201   5.771  10.146
12222W        W84647  19.026  32.604  11.545
12223W        W84648  12.098  11.417   1.366
12224W        W84649  33.153   6.706   1.539
12225W        W84650  31.077  32.199  13.132
12226W        W84651  44.307  30.246  14.604
12227W        W84652  10.810   3.692   0.589
12228W        W84653  18.245  19.787  10.651
12229W        W84654  23.457  21.729   1.246
12230W        W84655  33.498   5.859   1.529
12231W        W84656  44.484  26.419  14.684
12232W        W84657  40.114  23.497  12.209
12233W        W84658  18.824  11.115   0.531
12234W        W84659  29.828   1.677  12.620
12235W        W84660  14.715  34.615   0.269
12236W        W84661   7.144  27.181   0.455
12237W        W84662  10.230  23.709  13.507
12238W        W84663  15.829  39.806  13.883
12239W        W84664  17.163  20.594  12.068
12240W        W84665  16.075  24.786   2.170
12241W        W84666  34.375   7.077   4.568
12242W        W84667  26.407   8.087   3.717
12243W        W84668  14.494  34.929   4.348
12244W        W84669  11.342  44.008   4.155
12245W        W84670  29.759  26.083   4.567
12246W        W84671  41.803   0.830  11.580
12247W        W84672  33.594  25.618  11.457
12248W        W84673  12.728   2.773  12.596
12249W        W84674  32.108  22.992  11.691
12250W        W84675   5.397  32.313   0.212
12251W        W84676  12.847  24.132   0.217
12252W        W84677  34.672  27.524   2.241
12253W        W84678  16.077  33.576  11.939
12254W        W84679  24.499  28.028   0.286
12255W        W84680  42.537  36.637   0.864
12256W        W84681  12.933  36.425  14.202
12257W        W84682  35.692  44.736  14.352
12258W        W84683  14.478  27.943   3.894
12259W        W84684  20.703  19.140   1.669
12260W        W84685   6.166   9.806  12.009
12261W        W84686  43.314  33.996  13.301
12262W        W84687   0.750  23.648  13.940
12263W        W84688  11.691   9.249   2.221
12264W        W84689  26.799  17.734   2.177
12265W        W84690  38.009  20.669   3.808
12266W        W84691  38.109  44.930  10.536
12267W        W84692  25.218  36.443   2.392
12268W        W84693  21.395  38.603  13.889
12269W        W84694  37.936  38.816  11.614
12270W        W84695  14.710  12.147   0.746
12271W        W84696   9.170  41.030  11.568
12272W        W84697  24.231  35.787  10.313
12273W        W84698  17.222  43.082  14.792
12274W        W84699  42.745  20.679   2.247
12275W        W84700  21.931  19.941   2.685
12276W        W84701  40.756  27.100  14.786
12277W        W84702  21.788  15.413   5.023
12278W        W84703  29.717   4.879   0.579
12279W        W84704  16.165  24.566   3.520
12280W        W84705  13.863  14.609   1.797
12281W        W84706  24.684  27.676   1.318
12282W        W84707  18.610   3.746   4.766
12283W        W84708  40.781  23.002   3.194
12284W        W84709  38.438   6.185   4.164
12285W        W84710  19.217  39.324  13.747
12286W        W84711  13.831   8.856   4.140
12287W        W84712  28.284  15.341  12.055
12288W        W84713  23.611  23.988   1.884
12289W        W84714  14.530  43.784  11.938
12290W        W84715  34.855  18.665  14.826
12291W        W84716  37.226  31.705   0.005
12292W        W84717  28.927   4.715   2.724
12293W        W84718  12.399   1.369  11.612
12294W        W84719  11.693  21.667   5.617
12295W        W84720  12.705  28.663   2.862
12296W        W84721  42.829  26.574  13.614
12297W        W84722   6.653  34.503   0.272
12298W        W84723  42.081  18.555   2.849
12299W        W84724   0.382  12.622  13.515
12300W        W84725  42.838  18.504  11.464
12301W        W84726  28.511  20.517  14.585
12302W        W84727   4.381  31.715  11.336
12303W        W84728  17.840  15.241  13.314
12304W        W84729  33.708   5.386   0.901
12305W        W84730  10.191  36.287  13.798
12306W        W84731  44.726  40.560  11.480
12307W        W84732   7.812  43.623  14.575
12308W        W84733  43.103  41.627   4.171
12309W        W84734  19.069  32.020   2.509
12310W        W84735  31.252  33.589   0.331
12311W        W84736  26.599  19.418   3.421
12312W        W84737   5.726  10.958  10.652
12313W        W84738  35.850   7.034   4.845
12314W        W84739  37.571  39.542   3.190
12315W        W84740  21.600   1.118  12.180
12316W        W84741  22.447   5.800  11.166
12317W        W84742  25.142  16.636   0.370
12318W        W84743  15.125   2.512   9.707
12319W        W84744  12.861   7.492  14.878
12320W        W84745  22.708  17.608  13.442
12321W        W84746  31.332  42.830  14.596
12322W        W84747  22.213   4.712  12.150
12323W        W84748  14.697   4.465   1.342
12324W        W84749  19.219  18.374  14.324
12325W        W84750  14.036  15.561   5.123
12326W        W84751  11.306  26.510   2.494
12327W        W84752  31.993  18.298  13.814
12328W        W84753  30.477  29.059   2.361
12329W        W84754   5.027  35.962   1.997
12330W        W84755   4.226  44.350  13.803
12331W        W84756  39.925  11.486   0.484
12332W        W84757  43.227  42.846  14.739
12333W        W84758  24.423  33.774  14.369
12334W        W84759  26.966  38.994   4.031
12335W        W84760  34.153  34.370  12.465
12336W        W84761  42.200  16.818   0.956
12337W        W84762  11.814  22.658   1.251
12338W        W84763  24.197  19.971   4.759
12339W        W84764  38.616  43.417  11.763
12340W        W84765  38.133  32.042  12.033
12341W        W84766  11.775   8.916  11.530
12342W        W84767   6.497  10.941  14.958
12343W        W84768  15.539  36.924  13.968
12344W        W84769  32.005  23.773   0.922
12345W        W84770   7.345  36.453   4.149
12346W        W84771   1.392   9.826   1.785
12347W        W84772  16.657  31.188  14.320
12348W        W84773   8.961   1.314  11.493
12349W        W84774  29.000  22.826   4.315
12350W        W84775  15.875  29.645  13.859
12351W        W84776  37.613  32.983   1.334
12352W        W84777  14.401  25.497   4.200
12353W        W84778  23.295  20.882   4.215
12354W        W84779   9.710   0.762   1.421
12355W        W84780  12.934  23.455  12.813
12356W        W84781  43.798   6.311   1.438
12357W        W84782  22.511  19.457  10.839
12358W        W84783  29.638  20.683   3.646
12359W        W84784  25.160  36.054   0.944
12360W        W84785  34.603  20.731  11.484
12361W        W84786  26.799  23.011  10.594
12362W        W84787  21.100  19.754   2.635
12363W        W84788   5.354   1.872   2.651
12364W        W84789  20.240  31.006  13.308
12365W        W84790  25.130  23.540   4.366
12366W        W84791  27.086  17.551  14.314
12367W        W84792  23.297  20.115   1.850
12368W        W84793  20.026  28.473   3.409
12369W        W84794  12.866  18.665  11.061
12370W        W84795  13.916  17.066  11.127
12371W        W84796  25.005  12.290   0.402
12372W        W84797   0.453  10.137  10.919
12373W        W84798  44.166  27.190   2.455
12374W        W84799  15.035  34.351  13.434
12375W        W84800  20.504   9.858  11.863
12376W        W84801  34.551  16.135   0.575
12377W        W84802  27.031  20.776   1.700
12378W        W84803   3.390   4.677   3.758
12379W        W84804   5.296  12.599   1.625
12380W        W84805  22.643  37.444   4.738
12381W        W84806  15.230   0.767   1.200
12382W        W84807  21.834  30.404   2.074
12383W        W84808  19.929  20.038   2.691
12384W        W84809  28.527  22.222   4.467
12385W        W84810  12.801   2.008  13.308
12386W        W84811  40.624  29.793   2.737
12387W        W84812  22.760  31.076   3.250
12388W        W84813  42.665  41.942   1.676
12389W        W84814  28.758   0.127  12.026
12390W        W84815  41.537  32.120   1.817
12391W        W84816   5.820  32.053   3.338
12392W        W84817  20.463  11.149  13.816
12393W        W84818  41.226  13.293   3.493
12394W        W84819  33.539  31.315  10.601
12395W        W84820  26.906  32.604  12.507
12396W        W84821  16.485  17.525  11.190
12397W        W84822   6.950  14.667  14.705
12398W        W84823  28.639   4.428   1.366
12399W        W84824  15.110  31.289   4.671
12400W        W84825  38.450  28.558   2.717
12401W        W84826  26.371  36.793  11.646
12402W        W84827  37.063  17.315  14.382
12403W        W84828   9.693  27.024  14.622
12404W        W84829   9.734  41.919   3.390
12405W        W84830  32.599   5.315  13.350
12406W        W84831  21.113  31.976  11.949
12407W        W84832   5.894  13.312   1.893
12408W        W84833  16.067  19.538   1.583
12409W        W84834  32.605  21.354  14.871
12410W        W84835   0.807  40.243   2.098
12411W        W84836  39.351  42.998  10.828
12412W        W84837  24.191  14.389   2.909
12413W        W84838  39.441  40.444  10.679
12414W        W84839   9.608   4.949   4.837
12415W        W84840  17.266  21.131  14.798
12416W        W84841   5.629   8.774   4.721
12417W        W84842  12.747  38.779   1.810
12418W        W84843  20.631  19.847   1.375
12419W        W84844  10.012  42.400   4.900
12420W        W84845  19.873  42.012  12.337
12421W        W84846  37.509  42.035   4.651
12422W        W84847  26.502  34.203   2.427
12423W        W84848  25.671  44.257   3.362
12424W        W84849  17.286  28.125  12.506
12425W        W84850  16.963  28.691   4.623
12426W        W84851  18.157  39.962  10.975
12427W        W84852  22.154  14.582  11.612
12428W        W84853  22.500  40.692  10.673
12429W        W84854  16.602  16.300   0.937
12430W        W84855  40.146  39.815   3.294
12431W        W84856  35.941  30.183   2.230
12432W        W84857  10.844  14.565   0.764
12433W        W84858   5.331  15.493  10.249
12434W        W84859   5.951  43.401   1.754
12435W        W84860   4.792  26.487   0.151
12436W        W84861  20.182  35.938   2.407
12437W        W84862  43.377  18.151  13.521
12438W        W84863  25.671  37.038  13.445
12439W        W84864   5.867  39.774  14.791
12440W        W84865  12.312  44.618   0.640
12441W        W84866  11.021   5.311  13.842
12442W        W84867   8.391  40.903   1.800
12443W        W84868  35.050   1.742  12.132
12444W        W84869   5.418  40.269  12.960
12445W        W84870  36.508   7.016   3.979
12446W        W84871  25.538   8.150  11.658
12447W        W84872  38.827   4.383  13.553
12448W        W84873  33.916  25.698   3.319
12449W        W84874  37.308   2.970  12.647
12450W        W84875  20.314   3.853   1.647
12451W        W84876  29.392  29.964  11.518
12452W        W84877  19.531  21.989  13.163
12453W        W84878  43.761  41.579  11.066
12454W        W84879  21.695  41.954  11.842
12455W        W84880  10.387   2.477  12.332
12456W        W84881  15.018  17.849  12.620
12457W        W84882  33.391  26.250   4.170
12458W        W84883  42.425  28.570  14.620
12459W        W84884   0.002  24.870  11.218
12460W        W84885  14.834  33.129   5.418
12461W        W84886  25.245  39.782   3.203
12462W        W84887  20.500  25.098  10.708
12463W        W84888  22.901  12.844   4.700
12464W        W84889   2.233  40.921  13.455
12465W        W84890   4.205  31.997   3.579
12466W        W84891  21.282  35.093  11.474
12467W        W84892  26.428   4.811  14.623
12468W        W84893  28.129   5.551   2.606
12469W        W84894  29.544  38.091   1.698
12470W        W84895  42.503  26.335  10.677
12471W        W84896   4.380   8.294   1.195
12472W        W84897  26.618  17.618  10.435
12473W        W84898  34.490  36.070   2.721
12474W        W84899   2.970  10.260   3.344
12475W        W84900   6.360  11.754  14.742
12476W        W84901  31.388   4.868  10.591
12477W        W84902  43.688  13.039  14.487
12478W        W84903  23.723  31.528   4.796
12479W        W84904  39.020  21.339  14.255
12480W        W84905   1.751  33.486   1.202
12481W        W84906   2.282  20.108  12.300
12482W        W84907  26.544  29.974  13.604
12483W        W84908  32.463  18.092  13.721
12484W        W84909   7.750  10.425  10.838
12485W        W84910  29.947  29.022   2.282
12486W        W84911  34.768  38.394   2.768
12487W        W84912  26.181  30.831   1.229
12488W        W84913  16.269  29.418  10.955
12489W        W84914  18.170  34.912  13.450
12490W        W84915  12.112  35.992   4.305
12491W        W84916  14.025  40.020   3.760
12492W        W84917   1.682  17.745  13.606
12493W        W84918   8.656  34.636   1.416
12494W        W84919  17.517  10.080   3.573
12495W        W84920  25.616  11.254  14.339
12496W        W84921  35.950  15.193  13.846
12497W        W84922   2.591  29.199   1.352
12498W        W84923  26.188  29.971  14.002
12499W        W84924   1.409  36.341   0.443
12500W        W84925  41.945   5.937   1.563
12501W        W84926  25.616  24.925   2.416
12502W        W84927  34.897  10.122  11.452
12503W        W84928  19.786  18.626   3.799
12504W        W84929  18.643   5.732   3.882
12505W        W84930  11.337  18.502  13.031
12506W        W84931  10.826  35.538  11.622
12507W        W84932   7.951  36.578  10.442
12508W        W84933   4.909   2.272  10.611
12509W        W84934  37.226  39.756  11.179
12510W        W84935  32.492  34.347   2.269
12511W        W84936  29.048  15.595   4.757
12512W        W84937  20.560   3.717   0.333
12513W        W84938  16.356  23.568  11.019
12514W        W84939   1.818  23.219   4.961
12515W        W84940  23.649  27.980  14.321
12516W        W84941  16.726  27.526   4.247
12517W        W84942  42.121  23.730   1.718
12518W        W84943  31.666  41.455   2.220
12519W        W84944  44.073   7.265  12.861
12520W        W84945   0.606  36.995   0.344
12521W        W84946   1.811  41.126  12.447
12522W        W84947  42.878  31.784  11.964
12523W        W84948  24.224  38.460  14.252
12524W        W84949  25.455  35.912  12.511
12525W        W84950   0.713  44.540  12.023
12526W        W84951   8.366   0.234  12.160
12527W        W84952   1.768  20.185   2.254
12528W        W84953  38.475  39.055  13.584
12529W        W84954  37.053  36.646  11.253
12530W        W84955  14.925  13.349   2.909
12531W        W84956   8.333   6.389   3.257
12532W        W84957   4.177  19.047   0.307
12533W        W84958   7.726  33.919  12.485
12534W        W84959  34.539  17.039   2.395
12535W        W84960  21.063  31.023   3.429
12536W        W84961   6.477  17.944   9.986
12537W        W84962  16.876  28.142  13.477
12538W        W84963  24.173  17.663   4.206
12539W        W84964  41.395  40.432  14.284
12540W        W84965  36.587  38.854   3.225
12541W        W84966  28.720  22.147  14.358
12542W        W84967  27.482  40.376   0.234
12543W        W84968  24.925  36.416  12.504
12544W        W84969   0.308  30.947   1.808
12545W        W84970  22.928  22.535   4.462
12546W        W84971  11.801  23.940  12.897
12547W        W84972  39.617  10.572   3.657
12548W        W84973   7.251   4.184   4.622
12549W        W84974   2.826  44.896   2.064
12550W        W84975   0.293  19.745   0.307
12551W        W84976  35.139  29.511   3.734
12552W        W84977  42.443  29.311   2.884
12553W        W84978  34.036  36.402   3.432
12554W        W84979  29.320  39.252   0.319
12555W        W84980  27.733  16.052   0.759
12556W        W84981  44.525  34.600   0.454
12557W        W84982  11.408   7.331  15.000
12558W        W84983  15.811   9.629  14.399
12559W        W84984   6.704   7.278  12.757
12560W        W84985   3.522  27.047   3.289
12561W        W84986  16.742  15.120   0.458
12562W        W84987  26.518  17.113   1.325
12563W        W84988  23.640  17.545  12.143
12564W        W84989  42.487  23.648  14.441
12565W        W84990  24.506  41.731   0.060
12566W        W84991  27.498  35.976   3.755
12567W        W84992  14.247  18.005  14.530
12568W        W84993  16.590  43.784  12.255
12569W        W84994  19.682   2.222   1.304
12570W        W84995  35.562   1.244  12.668
12571W        W84996  13.164  20.377   2.172
12572W        W84997  10.848  38.882   1.768
12573W        W84998  29.625  41.291   2.380
12574W        W84999  13.867  31.177  13.958
12575W        W85000  19.840  18.328  13.301
12576W        W85001   6.544  40.301   3.941
12577W        W85002  41.808  14.833  12.385
12578W        W85003  28.898  11.316   4.028
12579W        W85004  33.871  31.098  14.594
12580W        W85005  34.638  44.820  11.054
12581W        W85006  15.205  43.135   3.215
12582W        W85007   3.345  29.077  11.990
12583W        W85008  38.299  18.017  10.773
12584W        W85009   5.488   0.288  10.744
12585W        W85010  39.586   3.856  11.074
12586W        W85011  11.165  29.168   1.860
12587W        W85012  27.533  26.612   0.194
12588W        W85013  41.978  21.657   2.653
12589W        W85014  23.876  44.048  12.669
12590W        W85015  26.098  19.109   2.016
12591W        W85016  32.811  33.635   4.344
12592W        W85017  34.470  24.565   3.113
12593W        W85018  41.010  40.709  11.206
12594W        W85019   0.777  34.033  10.089
12595W        W85020  36.407  18.267  14.360
12596W        W85021  15.166  28.847  14.064
12597W        W85022  19.731  41.597   4.208
12598W        W85023   3.432  21.681   0.543
12599W        W85024   2.890   9.639  12.523
12600W        W85025  30.933  28.187  14.869
12601W        W85026  21.974  16.611   0.160
12602W        W85027  28.707   0.803   2.277
12603W        W85028  11.896  25.685   1.335
12604W        W85029  34.291   8.848  13.837
12605W        W85030   7.540  25.129   2.327
12606W        W85031  21.992  13.390   0.259
12607W        W85032  20.960   1.918  11.910
12608W        W85033  13.289  31.178   0.198
12609W        W85034  35.795  43.828   3.689
12610W        W85035  27.062  33.824  12.374
12611W        W85036   8.927  31.228  10.717
12612W        W85037  12.305  40.074  12.137
12613W        W85038  36.022  43.550   0.567
12614W        W85039  31.676  43.543  12.833
12615W        W85040  33.153  24.294   0.455
12616W        W85041  37.855  19.286   1.222
12617W        W85042   4.873  26.986   3.260
12618W        W85043  43.146  28.574   4.731
12619W        W85044  31.890  27.831   4.374
12620W        W85045  41.104   3.284  12.541
12621W        W85046  42.675   7.314  14.486
12622W        W85047  30.339   0.998  13.017
12623W        W85048  30.116  42.062   0.894
12624W        W85049  43.848  30.400   1.919
12625W        W85050  15.161  29.242   2.327
12626W        W85051  44.795  39.597   3.188
12627W        W85052  31.149  23.687  13.133
12628W        W85053  15.117   1.729  14.765
12629W        W85054   7.276  15.528  14.772
12630W        W85055   2.959  17.155  10.751
12631W        W85056   5.723  43.511  13.894
12632W        W85057  19.163  25.993   2.066
12633W        W85058   6.424  23.996  11.622
12634W        W85059  17.172  35.124   0.880
12635W        W85060  44.377  41.917   1.852
12636W        W85061   0.767  22.504  12.064
12637W        W85062  40.433   0.926  10.716
12638W        W85063   3.785  17.724  14.799
12639W        W85064   1.661   1.606  11.915
12640W        W85065  22.204   6.744  14.990
12641W        W85066   6.749  24.033  10.582
12642W        W85067  38.822  42.491  10.057
12643W        W85068  33.065   0.016   1.742
12644W        W85069  35.450  16.751   1.386
12645W        W85070  27.947  37.502   4.620
12646W        W85071  15.547  38.499  10.548
12647W        W85072   9.173  18.056   2.249
12648W        W85073  13.148  19.074  10.985
12649W        W85074  29.293  10.695   4.328
12650W        W85075  38.153  15.661   4.833
12651W        W85076  28.131  12.577  12.620
12652W        W85077  39.437  41.198  14.865
12653W        W85078  32.459  14.113   3.335
12654W        W85079   0.537  36.483   3.276
12655W        W85080   6.013  29.386   0.373
12656W        W85081   5.877  32.128  11.031
12657W        W85082  28.548  43.553  12.655
12658W        W85083  23.977  19.945   1.374
12659W        W85084  43.234  29.432  13.328
12660W        W85085  12.095  16.853   1.846
12661W        W85086  19.019  23.343   2.314
12662W        W85087  26.123  16.214  10.700
12663W        W85088   3.880   5.316  14.556
12664W        W85089   7.979   5.706   0.837
12665W        W85090  35.121   3.510   0.866
12666W        W85091  18.149  22.694  10.539
12667W        W85092  40.284  37.505   4.121
12668W        W85093  38.570  27.936   1.590
12669W        W85094  43.478  26.511   2.727
12670W        W85095  38.669  42.303   4.604
12671W        W85096  23.690   3.820  14.307
12672W        W85097  41.268  15.088  12.095
12673W        W85098  27.085   7.462   4.072
12674W        W85099  44.968   3.860  12.833
12675W        W85100  38.331   2.681  14.488
12676W        W85101  44.646  22.180   4.781
12677W        W85102  18.576  15.184   3.790
12678W        W85103  12.177  18.227  14.851
12679W        W85104  34.702  37.477  11.973
12680W        W85105   2.834  30.084  13.465
12681W        W85106  30.855  30.440   1.483
12682W        W85107  26.399  34.468  14.807
12683W        W85108   1.248   2.631  14.314
12684W        W85109  11.205  42.887   1.449
12685W        W85110  27.687  27.504   1.786
12686W        W85111   6.610  26.597  10.602
12687W        W85112   2.138  32.513   2.731
12688W        W85113  20.135  12.715  13.040
12689W        W85114  20.245  10.791   4.747
12690W        W85115  15.093  33.859  13.675
12691W        W85116  42.795   1.695   1.924
12692W        W85117  18.306  22.596   1.290
12693W        W85118   7.940   6.779  12.177
12694W        W85119  20.131  34.841   3.189
12695W        W85120  43.476  16.460   2.724
12696W        W85121  35.455   6.915  14.860
12697W        W85122  25.608  28.601   2.262
12698W        W85123   6.773   7.226   4.423
12699W        W85124  42.638   9.416   1.871
12700W        W85125   5.292  17.089   0.338
12701W        W85126  16.338  41.944  12.451
12702W        W85127  43.990  25.757  11.509
12703W        W85128  27.546  33.057  14.948
12704W        W85129   7.777  39.277   2.888
12705W        W85130  19.732  12.763  11.707
12706W        W85131   1.976  21.234  10.944
12707W        W85132  15.155  31.708   3.419
12708W        W85133   1.723   0.866   4.687
12709W        W85134  42.959  24.844   3.654
12710W        W85135  33.999   1.963  12.771
12711W        W85136  21.981  33.038  10.764
12712W        W85137  39.515  27.689  10.596
12713W        W85138  33.132   8.773   2.879
12714W        W85139  41.557  16.737   0.386
12715W        W85140  43.077  25.012   4.152
12716W        W85141  41.977  42.925  12.302
12717W        W85142  23.992  28.941  13.851
12718W        W85143  13.541   2.424   4.179
12719W        W85144  38.799  27.502  11.228
12720W        W85145  25.080   3.327   1.935
12721W        W85146  18.101  35.922   2.536
12722W        W85147  16.525  30.807   3.656
12723W        W85148  34.979   0.827  10.490
12724W        W85149  20.581  34.605  11.241
12725W        W85150   2.871  42.510   1.079
12726W        W85151  13.252  25.624   3.417
12727W        W85152   1.686  11.674   3.358
12728W        W85153  15.407  27.143   4.196
12729W        W85154  36.580   6.889   3.241
12730W        W85155  26.121   5.338  12.632
12731W        W85156   2.570  29.060  12.446
12732W        W85157  36.022   0.248  13.586
12733W        W85158  26.342  38.350  12.848
12734W        W85159  28.014  32.066  10.606
12735W        W85160   5.786  35.953   3.378
12736W        W85161  37.808  44.642   0.960
12737W        W85162  31.162  38.972  14.816
12738W        W85163  15.663  25.850   1.511
12739W        W85164  21.027  13.209   1.975
12740W        W85165   2.531   4.785  14.253
12741W        W85166   4.857  21.427   4.975
12742W        W85167  39.033  20.563   4.772
12743W        W85168  30.134  14.789  12.029
12744W        W85169  16.105   3.558  13.410
12745W        W85170   9.880  35.460   0.926
12746W        W85171   9.221  31.689  14.937
12747W        W85172  43.304  31.103   2.181
12748W        W85173  33.651   9.612   0.838
12749W        W85174  38.113  13.096  11.564
12750W        W85175  37.103  31.747   3.663
12751W        W85176  27.527  11.269   3.934
12752W        W85177  35.466  17.035   3.842
12753W        W85178  10.936  28.250   2.807
12754W        W85179  43.407   5.825   5.066
12755W        W85180  44.774  21.230  11.432
12756W        W85181  37.125   3.997   2.354
12757W        W85182   3.756  21.068  12.336
12758W        W85183  36.382  31.862   0.368
12759W        W85184   2.324   8.412  12.204
12760W        W85185  30.378  10.841  13.005
12761W        W85186  22.080   6.250  13.252
12762W        W85187  28.602   1.180   4.917
12763W        W85188   0.561  19.205   1.194
12764W        W85189  32.227  39.825   1.850
12765W        W85190   5.733   4.907   2.423
12766W        W85191   5.783  38.062  13.911
12767W        W85192  43.784   6.771   0.961
12768W        W85193  13.365   9.374   1.277
12769W        W85194  41.376   2.268  12.947
12770W        W85195   0.586  35.508  13.849
12771W        W85196  39.901  22.419  14.098
12772W        W85197  17.758  18.116  14.702
12773W        W85198  43.393  11.695  13.678
12774W        W85199  13.181  32.135  11.122
12775W        W85200  10.167   3.882  13.079
12776W        W85201  22.422  41.872   1.772
12777W        W85202   5.990  42.115  12.115
12778W        W85203  35.901  16.546   1.252
12779W        W85204  43.589   0.563   2.870
12780W        W85205  25.370   2.165  12.506
12781W        W85206  36.950  44.902  14.842
12782W        W85207  29.220  20.144   0.288
12783W        W85208  31.878  44.981   2.907
12784W        W85209  17.728  40.074   3.655
12785W        W85210  35.156  26.173  13.567
12786W        W85211  13.124   0.746   0.961
12787W        W85212   3.382  37.107   4.556
12788W        W85213  40.157   8.685   3.703
12789W        W85214  14.711  34.117   3.575
12790W        W85215   4.255  43.988  10.724
12791W        W85216  36.095  21.723  10.957
12792W        W85217  18.324  24.465   4.550
12793W        W85218   7.608  35.394  14.944
12794W        W85219  43.251  32.047   3.738
12795W        W85220  11.443  39.414  12.416
12796W        W85221  21.909  18.482  12.461
12797W        W85222  40.910  14.813  10.645
12798W        W85223  40.455  44.785   3.603
12799W        W85224   9.171   5.026  12.067
12800W        W85225   5.741  43.503  11.649
12801W        W85226  18.668  10.666   2.333
12802W        W85227  17.014  36.542  12.873
12803W        W85228  30.991  42.504   4.283
12804W        W85229  21.662  14.346  10.720
12805W        W85230  15.734  23.542   4.202
12806W        W85231  42.055  38.574  10.961
12807W        W85232  22.250  15.210   3.202
12808W        W85233  26.587  26.671  13.282
12809W        W85234  26.213  12.398  14.213
12810W        W85235  32.310  42.980  12.518
12811W        W85236  12.141  10.569  12.402
12812W        W85237  35.215   7.618  14.355
12813W        W85238  32.977   1.682   0.404
12814W        W85239   4.189   5.348   3.234
12815W        W85240  34.666   4.942   2.692
12816W        W85241   8.189  12.327  14.592
12817W        W85242  24.942  35.028  13.582
12818W        W85243  30.706  13.123   4.655
12819W        W85244  38.148  29.807  10.810
12820W        W85245  11.774   7.596   1.666
12821W        W85246  14.837  24.963  14.324
12822W        W85247  20.047  32.152   9.986
12823W        W85248  32.469  38.750  14.971
12824W        W85249  41.552   7.956   0.792
12825W        W85250   5.944  17.068  10.962
12826W        W85251  30.739  32.417  12.579
12827W        W85252   3.113  14.741  10.445
12828W        W85253   0.376  37.881  13.085
12829W        W85254  19.627   4.886   0.443
12830W        W85255  38.249   0.747  14.331
12831W        W85256  27.168   3.486   4.225
12832W        W85257  41.478  28.307  12.622
12833W        W85258  17.693  26.611  14.993
12834W        W85259  19.608  36.547  14.894
12835W        W85260  19.481  29.158  12.142
12836W        W85261  43.238  12.832  14.125
12837W        W85262   4.715  31.405  11.676
12838W        W85263  11.564  37.598  10.947
12839W        W85264   4.165  33.632  13.013
12840W        W85265  33.634  14.041   4.404
12841W        W85266   9.590  26.557  14.406
12842W        W85267  11.161  31.755  11.060
12843W        W85268   1.792  30.852  10.791
12844W        W85269  38.190   5.815  11.951
12845W        W85270  36.934  33.371   1.744
12846W        W85271  21.452  29.179  14.347
12847W        W85272   9.877  17.247   4.933
12848W        W85273  16.171  36.284  14.329
12849W        W85274  21.265  14.900  11.487
12850W        W85275  42.346  10.128  14.854
12851W        W85276  27.376  15.593  14.006
12852W        W85277  41.934  38.294   3.425
12853W        W85278  42.807   3.343   3.407
12854W        W85279  37.564  11.448  12.007
12855W        W85280   9.036   8.121   1.458
12856W        W85281  17.773  26.606  11.965
12857W        W85282  34.036  16.267   3.686
12858W        W85283  27.449  28.446   3.450
12859W        W85284   1.890  17.767  12.018
12860W        W85285  40.852  21.254  14.225
12861W        W85286  26.493  40.284  12.764
12862W        W85287  23.386  27.360   0.895
12863W        W85288  28.172  23.103  13.782
12864W        W85289  12.011  15.604  13.031
12865W        W85290  15.074  33.511   2.314
12866W        W85291  16.643  14.884   4.177
12867W        W85292  41.465  29.515   0.900
12868W        W85293  41.305  23.275   0.928
12869W        W85294  37.505   9.657   2.310
12870W        W85295   5.154  14.761  10.949
12871W        W85296  22.724   3.490  11.535
12872W        W85297  20.732  27.969   1.905
12873W        W85298  13.556   9.274  11.488
12874W        W85299  11.537  32.609  11.132
12875W        W85300  29.346  10.824  13.120
12876W        W85301   8.291  21.110  14.742
12877W        W85302  26.931  11.892   3.346
12878W        W85303  12.834  40.073   0.301
12879W        W85304  22.042  44.861  13.431
12880W        W85305  39.228  19.578   2.287
12881W        W85306  43.728  13.565  14.516
12882W        W85307  23.553   1.722   2.425
12883W        W85308   1.409  24.087   4.739
12884W        W85309  31.924  19.782  11.557
12885W        W85310  43.565  11.170   1.140
12886W        W85311  25.175  36.447   3.412
12887W        W85312  28.144  40.896  13.970
12888W        W85313  42.859   4.121   2.884
12889W        W85314   6.274  40.414  12.423
12890W        W85315  12.671  16.774  12.315
12891W        W85316  35.591  18.615   0.691
12892W        W85317  38.027  20.337  10.804
12893W        W85318  42.775   4.273  11.680
12894W        W85319  26.268  25.651  14.494
12895W        W85320  14.630  27.121  12.131
12896W        W85321  35.023  34.618  13.580
12897W        W85322  17.567  35.573  13.843
12898W        W85323  40.945  35.135   0.003
12899W        W85324  41.443  17.127   1.785
12900W        W85325  43.449  16.288   4.746
12901W        W85326  31.092  19.147   1.818
12902W        W85327   5.722  37.504   0.692
12903W        W85328  18.128  34.631   3.963
12904W        W85329  44.638  29.621  11.488
12905W        W85330  15.798   1.644  11.959
12906W        W85331   4.001   4.508   2.647
12907W        W85332  17.091  21.073  11.231
12908W        W85333  27.446  38.754   1.774
12909W        W85334  40.576  17.967  12.574
12910W        W85335   4.301  33.068  14.009
12911W        W85336  43.573  38.341  12.555
12912W        W85337  17.764  43.208   1.260
12913W        W85338  33.870   8.629  14.024
12914W        W85339  17.565   3.739  13.022
12915W        W85340  41.555  14.861  14.935
12916W        W85341  16.945  41.910   4.287
12917W        W85342  19.008  21.587   0.970
12918W        W85343   8.681  21.657   2.776
12919W        W85344  33.162  23.600   4.772
12920W        W85345  26.971  34.964   1.400
12921W        W85346  38.985   6.630   3.615
12922W        W85347   0.085  28.142   1.494
12923W        W85348   3.135   6.425  14.882
12924W        W85349   3.430  37.051   4.053
12925W        W85350   0.866   8.944   0.401
12926W        W85351  16.980   8.756  11.141
12927W        W85352  12.715  22.750   4.716
12928W        W85353   3.930  36.827  10.911
12929W        W85354  32.440  42.444  14.799
12930W        W85355   1.503  15.352  11.110
12931W        W85356  27.267  37.809  14.279
12932W        W85357  16.154   3.288  10.757
12933W        W85358  26.991  21.893  11.535
12934W        W85359  27.430  31.475   9.697
12935W        W85360   0.762   3.938   1.701
12936W        W85361  44.085  34.451   5.084
12937W        W85362   5.291  28.243  14.799
12938W        W85363  15.785  30.563   0.563
12939W        W85364  43.226  32.628   2.848
12940W        W85365  27.455  15.065  14.757
12941W        W85366   0.980   5.834  12.029
12942W        W85367  17.758  44.962  13.022
12943W        W85368  35.294   5.804   1.821
12944W        W85369  10.973  30.979   3.567
12945W        W85370  42.369  42.251  13.978
12946W        W85371   6.665  41.569  12.577
12947W        W85372  17.974  25.636   2.573
12948W        W85373  33.003  39.970   3.554
12949W        W85374  31.120  39.607  10.218
12950W        W85375  28.463  42.981   3.721
12951W        W85376  14.415  32.095  11.984
12952W        W85377  33.546  21.988   2.411
12953W        W85378  10.895   9.071   0.422
12954W        W85379   0.536  16.965  11.962
12955W        W85380  27.014   5.978  11.588
12956W        W85381  20.341  39.774  12.083
12957W        W85382  10.227   1.455   4.538
12958W        W85383   4.789   2.010   3.461
12959W        W85384  20.502  21.055  12.012
12960W        W85385   9.249  19.032  10.608
12961W        W85386  43.368  30.937   0.244
12962W        W85387  40.763  25.198  12.632
12963W        W85388   2.160  32.426   4.128
12964W        W85389  13.273  42.281   1.883
12965W        W85390   6.348  32.862  11.187
12966W        W85391  33.541   3.793   3.387
12967W        W85392  26.522  32.692   2.457
12968W        W85393  40.366  21.081  14.507
12969W        W85394  25.243  11.647  13.432
12970W        W85395  35.261  27.020   4.768
12971W        W85396   7.368  43.362  11.010
12972W        W85397   2.613  35.322   5.141
12973W        W85398  34.103  18.911  11.051
12974W        W85399  33.819  19.670   3.248
12975W        W85400  44.863  14.226   1.917
12976W        W85401  31.945  16.575   2.657
12977W        W85402   5.266  14.554  14.350
12978W        W85403  13.665  44.882   3.332
12979W        W85404  37.162  26.340   3.608
12980W        W85405  42.300  16.230   0.958
12981W        W85406  17.780  29.384   3.739
12982W        W85407  32.540  27.062   0.409
12983W        W85408   4.138  36.079   0.977
12984W        W85409  35.981  18.356   0.905
12985W        W85410  14.699   1.419   0.379
12986W        W85411  39.919  44.431   3.744
12987W        W85412  29.311   1.059  14.007
12988W        W85413  36.417  44.460  14.846
12989W        W85414  39.857  12.877  14.919
12990W        W85415  14.246  31.371   0.507
12991W        W85416  33.821  20.970  14.123
12992W        W85417   1.223   6.334   3.339
12993W        W85418  10.749  25.117   3.632
12994W        W85419   1.464  24.989  10.688
12995W        W85420  36.009   4.833  11.628
12996W        W85421  15.272  27.388  12.684
12997W        W85422  42.446  44.400   4.620
12998W        W85423  34.115  23.649   2.174
12999W        W85424  24.498  15.369  13.975
13000W        W85425  10.182  10.558   1.137
13001W        W85426  11.838  34.846   0.965
13002W        W85427  35.609  26.248  11.114
13003W        W85428   4.707  26.790  10.693
13004W        W85429  38.447   3.005   3.516
13005W        W85430  19.970  21.090  11.975
13006W        W85431  40.610   9.778  12.066
13007W        W85432  43.413  22.939  13.037
13008W        W85433  18.119  23.470  13.518
13009W        W85434   3.848  24.926  12.562
13010W        W85435  19.167  34.759   4.626
13011W        W85436  37.920  43.203  10.283
13012W        W85437  40.025  40.373  10.517
13013W        W85438  21.790  17.249  10.618
13014W        W85439  32.658   6.345  12.909
13015W        W85440  36.765   5.615   4.535
13016W        W85441  11.786  11.686  14.391
13017W        W85442  11.404  23.399   0.906
13018W        W85443  14.211  25.766  14.454
13019W        W85444  42.936  19.870  10.896
13020W        W85445  39.429  10.756  10.907
13021W        W85446   4.153  18.992   2.562
13022W        W85447   1.014   2.519   3.321
13023W        W85448  44.359  35.911  13.075
13024W        W85449  23.988  22.775  12.606
13025W        W85450   4.735  14.238  14.940
13026W        W85451  15.679  40.558  11.901
13027W        W85452   7.279  38.036   2.253
13028W        W85453  25.519   8.714  12.926
13029W        W85454  37.479  33.617  14.626
13030W        W85455  12.419  10.297   3.176
13031W        W85456   7.491  25.095   1.397
13032W        W85457  31.148  13.305  12.506
13033W        W85458  25.526  40.863   4.212
13034W        W85459  31.887  33.410  13.680
13035W        W85460   6.889  33.972   4.449
13036W        W85461   1.063  13.583  13.214
13037W        W85462  34.102  39.813  12.475
13038W        W85463  35.102   8.273  12.442
13039W        W85464   5.087   3.203   2.173
13040W        W85465  37.832  28.467  12.601
13041W        W85466  29.820  43.939   0.848
13042W        W85467  41.030  15.645  14.720
13043W        W85468  31.585  42.939  12.081
13044W        W85469  43.922  29.980   0.971
13045W        W85470  13.672   1.828   1.652
13046W        W85471  29.955  43.190  13.260
13047W        W85472   7.761  17.122  12.973
13048W        W85473  11.756   8.204  13.336
13049W        W85474   4.946  16.056  10.455
13050W        W85475  25.667  25.670   1.631
13051W        W85476  15.873  28.456  13.416
13052W        W85477  33.690   2.884   4.575
13053W        W85478  24.417  25.029   1.397
13054W        W85479  38.498  27.593  12.992
13055W        W85480  12.681  39.102  10.768
13056W        W85481  29.663  35.494  14.796
13057W        W85482  34.073  11.473  14.500
13058W        W85483  36.548  14.474  11.637
13059W        W85484  21.787  32.377  10.581
13060W        W85485   7.759   1.056   4.095
13061W        W85486  41.268  16.647   1.875
13062W        W85487  42.942  11.652  10.979
13063W        W85488   8.533  40.127   1.473
13064W        W85489  36.897  28.439   2.236
13065W        W85490  22.235   9.957  13.920
13066W        W85491  28.202  36.915   1.882
13067W        W85492  23.690  24.604  13.858
13068W        W85493  15.053   9.040  13.046
13069W        W85494  37.653  31.600  14.722
13070W        W85495  43.542  28.322   2.352
13071W        W85496  34.954  30.700  10.677
13072W        W85497   9.981  23.119   0.855
13073W        W85498   3.326   4.704   0.661
13074W        W85499  42.992  31.487  13.311
13075W        W85500  29.007  13.915  11.076
13076W        W85501  19.801  29.030   2.360
13077W        W85502  17.873  18.996   0.876
13078W        W85503  10.458  21.806  11.066
13079W        W85504  15.720  15.291   2.729
13080W        W85505   5.439  16.313  14.831
13081W        W85506  20.727  39.062   2.698
13082W        W85507   9.860   2.612   0.764
13083W        W85508  31.122  28.865  11.883
13084W        W85509  16.363  16.838   3.574
13085W        W85510  21.318  30.488   0.268
13086W        W85511  37.400  29.018   3.130
13087W        W85512   1.312   4.828   1.624
13088W        W85513  43.752  38.870   0.852
13089W        W85514   0.262  34.547  14.874
13090W        W85515  43.356  13.945   1.853
13091W        W85516  33.441  27.722   0.431
13092W        W85517   3.804  19.004   1.703
13093W        W85518   1.559  20.667   2.304
13094W        W85519  27.758  44.853   2.836
13095W        W85520  42.496  31.609  13.511
13096W        W85521  11.040   8.224   3.601
13097W        W85522  14.578  25.039   0.826
13098W        W85523  27.934  30.919  13.988
13099W        W85524  25.325  22.067  10.778
13100W        W85525  34.731  24.239  12.058
13101W        W85526  21.112  22.179  14.023
13102W        W85527  31.615  29.862   3.439
13103W        W85528   7.375   1.951  11.660
13104W        W85529  36.897  30.987  14.058
13105W        W85530  20.727  28.631  12.856
13106W        W85531   8.586  24.100   4.327
13107W        W85532   5.883  19.886  11.495
13108W        W85533   3.544  36.455  13.629
13109W        W85534  41.494  20.527   4.137
13110W        W85535  15.265  30.486  12.120
13111W        W85536  39.810  43.816  12.923
13112W        W85537  22.148  12.592   0.665
13113W        W85538  33.685  34.744   4.173
13114W        W85539  35.564  27.443   1.771
13115W        W85540   2.261  32.460  10.672
13116W        W85541   6.199  12.207   0.440
13117W        W85542  31.632  36.582   0.445
13118W        W85543  34.612   8.944  10.737
13119W        W85544  16.257  28.415  14.345
13120W        W85545  38.441   0.741   0.347
13121W        W85546  28.171  13.095   1.500
13122W        W85547  20.742  30.094   4.627
13123W        W85548  17.858   0.459  13.057
13124W        W85549  43.054  34.592  11.447
13125W        W85550   6.941  37.925  14.882
13126W        W85551  18.800  30.091   1.351
13127W        W85552  42.594  40.381   0.893
13128W        W85553  24.034   4.841   2.405
13129W        W85554  18.787  41.213   1.760
13130W        W85555  35.128  42.443  11.946
13131W        W85556  36.933  18.202  14.279
13132W        W85557   0.893  18.500   9.843
13133W        W85558  42.328   2.756  14.308
13134W        W85559  15.567  15.094  11.207
13135W        W85560   0.704  32.075  10.245
13136W        W85561   9.066  17.664   3.135
13137W        W85562  10.382  22.115   2.124
13138W        W85563  28.128  23.394  12.119
13139W        W85564  26.605  14.389  12.450
13140W        W85565  24.665  12.685   3.544
13141W        W85566  41.085  29.407  14.810
13142W        W85567  23.498  35.150   4.158
13143W        W85568  23.236  14.238   4.099
13144W        W85569  35.401  13.087  12.978
13145W        W85570  23.995   2.251   4.501
13146W        W85571  31.336   1.203   1.715
13147W        W85572  19.548  36.350   1.743
13148W        W85573  17.301  16.744   2.348
13149W        W85574   4.928  37.026   3.318
13150W        W85575  41.326  17.585  11.182
13151W        W85576  29.730  16.499  12.478
13152W        W85577  34.094  33.529  14.109
13153W        W85578   1.057  31.956   5.018
13154W        W85579  19.108   7.992   3.061
13155W        W85580   8.364  43.595  11.608
13156W        W85581   3.340  16.563   2.576
13157W        W85582   1.722   5.780   0.763
13158W        W85583  34.450   3.735  12.083
13159W        W85584   2.819  18.512   4.324
13160W        W85585  30.060  41.087  12.387
13161W        W85586   2.780  11.335  10.612
13162W        W85587  44.307  21.775  14.000
13163W        W85588  11.351  44.410   0.780
13164W        W85589  41.742  34.188   4.231
13165W        W85590  35.383  25.580   1.196
13166W        W85591  43.290  36.801  11.726
13167W        W85592  35.106   1.501  13.434
13168W        W85593   5.636  30.427   3.087
13169W        W85594  11.492  43.517   0.501
13170W        W85595  14.659  26.587   1.635
13171W        W85596  13.544  35.862   3.752
13172W        W85597  28.503   8.555  10.485
13173W        W85598  41.970  36.511   2.062
13174W        W85599  11.235  30.169   0.402
13175W        W85600  20.510  13.244   1.910
13176W        W85601  17.026  10.757  13.069
13177W        W85602  18.549  31.904   0.694
13178W        W85603  28.261   6.336  11.598
13179W        W85604  36.967  11.998   1.155
13180W        W85605   8.695  17.527  14.005
13181W        W85606   0.285  35.990   4.200
13182W        W85607  10.346  24.101  11.786
13183W        W85608   4.389   9.920   4.544
13184W        W85609  38.949  20.264  11.046
13185W        W85610  17.857  28.242  13.876
13186W        W85611  11.790  15.028  11.095
13187W        W85612  23.779  42.686   1.030
13188W        W85613  10.728  29.350  13.971
13189W        W85614  21.190   5.923   5.048
13190W        W85615  39.944  33.398   2.235
13191W        W85616  23.092   2.024  14.809
13192W        W85617  32.033  34.244  11.688
13193W        W85618  11.148   4.311   2.064
13194W        W85619  17.586   0.823  13.258
13195W        W85620  32.612  11.133   4.059
13196W        W85621   7.043  26.233  13.581
13197W        W85622   9.992  26.016   1.318
13198W        W85623   2.057  18.054  12.419
13199W        W85624  42.424  24.151   4.521
13200W        W85625  14.844   0.087  10.625
13201W        W85626  31.035  28.166  10.761
13202W        W85627   3.275  16.853   1.310
13203W        W85628  40.425  37.293  13.884
13204W        W85629   4.266  19.776   0.040
13205W        W85630  30.385  40.770  10.633
13206W        W85631  43.940  21.189   0.649
13207W        W85632   2.948  34.096  10.870
13208W        W85633   7.500  31.362   2.372
13209W        W85634  24.590  31.594  10.426
13210W        W85635  15.490  27.864   0.390
13211W        W85636   3.048  38.925   4.677
13212W        W85637  13.890   7.339  11.507
13213W        W85638  23.724  34.121  14.674
13214W        W85639   6.663  10.341  13.905
13215W        W85640  24.728  20.082  11.555
13216W        W85641  42.625   3.434  12.134
13217W        W85642   0.989  30.569  11.217
13218W        W85643  11.876  16.180   1.194
13219W        W85644  19.851  27.860   1.851
13220W        W85645   4.691  41.871   3.209
13221W        W85646  17.400  28.036  13.494
13222W        W85647  27.649  28.520  12.934
13223W        W85648  24.744  28.622   1.621
13224W        W85649  43.990  36.877  14.511
13225W        W85650  43.278  13.222   2.295
13226W        W85651   5.425  38.009  11.656
13227W        W85652  42.962  35.622   2.369
13228W        W85653  38.028  26.632  11.029
13229W        W85654  42.897  22.604  11.088
13230W        W85655  32.129  29.752   0.317
13231W        W85656  14.652  21.143  10.274
13232W        W85657  30.008  42.201   2.042
13233W        W85658  30.896   0.425  14.700
13234W        W85659   3.012  23.275   2.202
13235W        W85660  13.256  25.984   0.673
13236W        W85661  28.132  22.244  10.856
13237W        W85662  10.323  23.442   2.592
13238W        W85663   2.546  41.534   0.830
13239W        W85664  32.850  17.263   3.861
13240W        W85665  15.056  13.803   2.373
13241W        W85666  25.073  12.657   3.942
13242W        W85667   2.324  24.010   4.714
13243W        W85668  35.408  19.565  11.150
13244W        W85669  13.992  18.256   1.376
13245W        W85670  42.106  20.313   4.686
13246W        W85671  21.586  23.393   1.859
13247W        W85672  13.705  39.149   1.876
13248W        W85673  33.358  16.756   4.620
13249W        W85674  40.100  32.508   4.688
13250W        W85675  34.373   1.555  11.585
13251W        W85676  18.204  16.307  13.535
13252W        W85677  35.439  24.435   4.075
13253W        W85678   0.954   3.726   2.151
13254W        W85679  14.685   2.029   1.456
13255W        W85680   6.459  18.245   1.233
13256W        W85681  39.338   5.736   4.009
13257W        W85682   5.906  18.115  12.046
13258W        W85683  30.370  38.353   3.206
13259W        W85684  21.366  25.154   0.564
13260W        W85685  44.526  27.636   1.727
13261W        W85686  40.628  10.786  12.967
13262W        W85687  36.119  39.866   1.830
13263W        W85688   7.653  28.936  14.954
13264W        W85689  19.146   9.788  14.201
13265W        W85690  31.741   1.346   3.953
13266W        W85691  31.763  42.745  12.531
13267W        W85692  12.629  37.839  10.747
13268W        W85693  27.670  22.974  11.490
13269W        W85694  13.856  34.432  12.526
13270W        W85695  19.730  16.845   1.479
13271W        W85696  28.983  38.691  11.239
13272W        W85697  12.150  32.836  12.839
13273W        W85698  29.202   5.181   4.014
13274W        W85699  32.897   5.709   4.135
13275W        W85700   0.919  23.128  13.867
13276W        W85701  34.697  18.570   3.234
13277W        W85702  32.643  24.237   0.415
13278W        W85703   4.779   3.264   4.742
13279W        W85704   7.737  10.748  13.075
13280W        W85705  22.070  36.137  13.301
13281W        W85706  35.529  41.085   4.246
13282W        W85707  34.367  40.124   3.778
13283W        W85708  20.808   7.473  11.693
13284W        W85709  38.612  36.283   0.367
13285W        W85710  40.923  32.228   4.092
13286W        W85711  29.583  21.478   5.504
13287W        W85712  11.754  42.207   2.375
13288W        W85713  18.827  37.990   1.782
13289W        W85714  41.441  24.891  13.934
13290W        W85715  26.786   0.495  13.255
13291W        W85716   2.386  26.817   3.823
13292W        W85717  11.647   8.836   1.935
13293W        W85718  20.829  37.530   4.617
13294W        W85719  35.565  43.525   1.812
13295W        W85720  13.145  43.541   3.717
13296W        W85721  17.833   0.911  13.733
13297W        W85722  13.235   3.384  12.935
13298W        W85723   7.943  36.131  10.150
13299W        W85724  17.217  20.196  13.298
13300W        W85725  14.760  31.669  13.104
13301W        W85726  21.637  31.860  10.681
13302W        W85727   3.458   5.347  12.386
13303W        W85728  24.978  27.659  10.678
13304W        W85729  35.363   7.804  13.108
13305W        W85730  32.571  33.882  12.895
13306W        W85731  12.211  32.519  14.471
13307W        W85732  25.204  19.489  12.062
13308W        W85733  41.075  25.249   3.164
13309W        W85734  42.111  38.902  12.527
13310W        W85735  21.164  38.857   0.646
13311W        W85736  28.974  30.680   0.341
13312W        W85737  11.224  35.598   3.433
13313W        W85738  36.345  11.143   3.111
13314W        W85739  18.254   1.828  14.450
13315W        W85740  35.313  31.096  11.958
13316W        W85741  34.939  31.952   5.041
13317W        W85742  36.916  14.093   1.756
13318W        W85743  18.415  11.024   0.215
13319W        W85744   0.042  42.995  12.137
13320W        W85745  11.331  19.311  10.907
13321W        W85746  10.717  41.591  13.011
13322W        W85747  12.371  13.571  11.661
13323W        W85748  42.247   4.120   1.418
13324W        W85749  22.861  15.066   0.410
13325W        W85750  16.720  12.305  14.500
13326W        W85751   9.387  15.715   1.528
13327W        W85752  40.808  39.475   2.994
13328W        W85753  33.492  23.171  14.887
13329W        W85754   4.698  17.026   2.156
13330W        W85755   6.103  12.154  10.417
13331W        W85756  21.803   2.013  14.434
13332W        W85757  24.165  24.983  12.043
13333W        W85758  39.817  41.230   1.297
13334W        W85759  11.876  29.440  10.724
13335W        W85760  20.213   8.512   5.127
13336W        W85761  13.269  35.814  11.513
13337W        W85762   4.458   4.133   0.377
13338W        W85763  34.016  11.255   0.960
13339W        W85764  43.186  28.632  11.571
13340W        W85765  41.387  24.437  12.504
13341W        W85766  11.711  13.536  11.082
13342W        W85767  40.223  26.221  14.794
13343W        W85768  40.746  40.435   2.589
13344W        W85769  17.608  12.808  14.317
13345W        W85770  19.299  29.619  11.956
13346W        W85771  13.671  15.430   4.807
13347W        W85772   4.911  10.753  11.123
13348W        W85773  31.059  23.735  12.417
13349W        W85774  39.557  22.100   1.713
13350W        W85775   0.089  35.392  11.199
13351W        W85776  40.182  22.982  11.142
13352W        W85777   7.715  16.612   1.617
13353W        W85778  31.637  25.451  10.930
13354W        W85779   8.206   3.290   1.008
13355W        W85780  21.772  44.410  13.443
13356W        W85781  23.023  39.260  11.616
13357W        W85782  12.466  44.049   3.321
13358W        W85783  29.135  36.247  14.366
13359W        W85784  30.601  39.026   4.440
13360W        W85785  44.460   5.675   3.217
13361W        W85786  36.924  16.812   1.404
13362W        W85787   6.321   0.291   2.841
13363W        W85788  10.092  33.464   1.724
13364W        W85789  43.459   0.804  12.526
13365W        W85790  34.911  12.273   4.587
13366W        W85791  27.495  20.499  13.920
13367W        W85792  11.046  36.895   2.177
13368W        W85793  32.974   0.705  12.438
13369W        W85794   9.717  39.372  10.588
13370W        W85795  21.766  16.721  12.668
13371W        W85796  36.352  17.936  12.889
13372W        W85797  33.648  11.655   2.660
13373W        W85798  23.040  38.825   0.210
13374W        W85799  32.163  23.252   4.777
13375W        W85800  17.735  20.731   0.381
13376W        W85801  20.021  10.091  12.121
13377W        W85802  40.941  11.696   1.539
13378W        W85803  17.639  39.037   3.589
13379W        W85804  27.179  38.282   1.438
13380W        W85805  35.853  32.468  10.769
13381W        W85806  20.551   5.638  11.552
13382W        W85807   3.417  40.091  13.632
13383W        W85808  30.929  10.622   1.299
13384W        W85809  23.059  16.711  10.588
13385W        W85810  41.797  36.303  13.158
13386W        W85811  36.851  34.387   3.655
13387W        W85812   7.365  18.592   2.182
13388W        W85813   9.796  14.385   3.749
13389W        W85814  11.248  25.220   0.259
13390W        W85815  26.281  29.592   3.288
13391W        W85816  43.674  33.762  12.464
13392W        W85817  15.141  42.307  10.657
13393W        W85818  32.864  13.217  14.811
13394W        W85819   7.657  38.264   2.588
13395W        W85820  12.810  26.971  12.294
13396W        W85821  30.180  41.324  13.804
13397W        W85822  44.901   3.293   3.667
13398W        W85823   5.607  35.064   4.548
13399W        W85824  12.133  26.217   2.158
13400W        W85825   4.882  10.895  11.635
13401W        W85826  15.576  42.694   0.935
13402W        W85827  29.164  30.515  11.565
13403W        W85828  42.019  40.798   4.424
13404W        W85829  36.864  13.772   0.015
13405W        W85830   4.729  27.546   2.411
13406W        W85831   0.974  34.640   2.771
13407W        W85832  25.007  12.118   1.324
13408W        W85833   2.231  37.657   2.405
13409W        W85834   7.403   0.023  13.078
13410W        W85835  17.270  37.148   0.974
13411W        W85836  43.070  18.711   2.922
13412W        W85837  26.438  41.474  11.135
13413W        W85838  39.235  26.865   3.680
13414W        W85839  33.873  36.620   1.713
13415W        W85840  27.803  27.658   4.923
13416W        W85841  36.390   5.720   3.796
13417W        W85842  12.871  28.392   2.381
13418W        W85843  17.876  24.712   3.333
13419W        W85844   9.232  13.543   2.304
13420W        W85845  43.303  21.096  14.316
13421W        W85846  11.385  41.365  13.305
13422W        W85847  33.925  43.823   2.150
13423W        W85848  38.234  40.274   1.400
13424W        W85849  44.267   2.743   0.933
13425W        W85850  21.299  27.753  14.736
13426W        W85851  28.098   8.687   1.045
13427W        W85852  32.543  25.638  13.342
13428W        W85853   3.982  25.556   3.660
13429W        W85854  17.187  12.612   4.924
13430W        W85855  39.020  34.862   1.851
13431W        W85856  37.948  20.989   1.225
13432W        W85857   6.634   0.923  11.094
13433W        W85858  39.911  24.185  14.339
13434W        W85859   0.616  36.237   4.544
13435W        W85860  17.950  24.462   2.879
13436W        W85861  16.871  26.881  13.886
13437W        W85862  17.890  40.787   4.115
13438W        W85863  13.325   4.701  13.662
13439W        W85864  10.797  10.278   2.430
13440W        W85865   7.217   1.813  14.747
13441W        W85866  39.803   7.178  12.575
13442W        W85867  18.822   1.155  14.559
13443W        W85868  15.369  20.743  14.860
13444W        W85869  38.755  20.105   4.639
13445W        W85870  27.274  23.259  10.593
13446W        W85871  40.059  24.877   0.761
13447W        W85872  41.623  42.405   0.938
13448W        W85873  20.803  15.888   3.683
13449W        W85874  24.488  12.377   2.212
13450W        W85875   1.214   4.275   1.303
13451W        W85876   3.629  11.501  13.435
13452W        W85877  41.596   8.196  12.596
13453W        W85878  25.012  31.530   1.701
13454W        W85879  11.136  15.762   0.879
13455W        W85880  34.302  42.534   1.334
13456W        W85881  42.537   0.364  12.497
13457W        W85882  11.872  34.408   1.243
13458W        W85883  19.854  33.938  11.240
13459W        W85884  23.201  32.565   1.922
13460W        W85885  43.305  21.925  11.344
13461W        W85886   3.490  25.564   3.841
13462W        W85887   5.036  43.390   0.962
13463W        W85888  30.097  10.834  14.282
13464W        W85889   6.264  18.021   0.253
13465W        W85890  20.671  20.021   2.412
13466W        W85891  12.709  26.291  12.977
13467W        W85892  41.260  14.404  11.585
13468W        W85893  41.133  26.623   2.204
13469W        W85894  38.222  18.257  11.610
13470W        W85895  18.040   6.912   0.578
13471W        W85896  19.575  30.534  14.335
13472W        W85897  30.848  35.882   1.277
13473W        W85898  19.545  44.209   2.336
13474W        W85899  20.624   0.542   2.062
13475W        W85900  16.676  23.175   2.887
13476W        W85901  24.436  43.767  14.057
13477W        W85902  43.947   7.247  10.604
13478W        W85903  13.128  10.671   2.101
13479W        W85904  29.067  35.663   1.055
13480W        W85905  26.947   7.742  14.966
13481W        W85906  13.861  12.192  13.433
13482W        W85907  34.176  34.046  10.771
13483W        W85908  42.827  10.157  14.643
13484W        W85909  22.666  38.486  11.473
13485W        W85910  20.265  36.166   0.415
13486W        W85911   2.571   0.446  11.178
13487W        W85912  24.301  38.923  14.487
13488W        W85913  43.612  38.084  11.880
13489W        W85914  23.562  10.457  14.434
13490W        W85915  23.704  36.284  14.035
13491W        W85916  15.720  44.742   3.423
13492W        W85917   4.899  16.314   3.848
13493W        W85918  10.137  38.967  13.913
13494W        W85919  20.448   2.446  10.407
13495W        W85920  43.409   2.143  14.568
13496W        W85921  30.184  30.186   3.463
13497W        W85922  23.106  31.496   0.209
13498W        W85923  10.371  21.629  14.907
13499W        W85924  44.599  36.041   1.844
13500W        W85925  14.193  39.380  12.941
13501W        W85926  25.621  41.453  11.707
13502W        W85927  37.447  39.435  12.084
13503W        W85928  27.020  28.578  10.640
13504W        W85929  19.937  21.293   3.652
13505W        W85930  15.039  38.079  13.901
13506W        W85931  10.846  43.763  11.205
13507W        W85932  34.539  25.698  10.495
13508W        W85933   4.975  25.620   3.789
13509W        W85934   5.553  32.320   4.543
13510W        W85935  11.392  39.578  11.910
13511W        W85936  38.850   4.193   0.427
13512W        W85937  15.484  34.598  13.505
13513W        W85938  27.000  23.718  11.641
13514W        W85939   8.244  44.763  11.223
13515W        W85940  44.372  39.047  14.271
13516W        W85941   1.458  26.966  11.678
13517W        W85942  41.577  36.923  10.724
13518W        W85943   9.406   1.417  11.719
13519W        W85944  15.215  38.379   4.565
13520W        W85945  44.012   5.904   4.643
13521W        W85946  10.327  13.339   0.218
13522W        W85947  23.069  32.341  12.476
13523W        W85948  17.275  43.309   3.742
13524W        W85949  19.013   5.430  12.548
13525W        W85950  15.455  23.039   0.381
13526W        W85951   9.803  14.954  13.188
13527W        W85952  26.079   8.352  11.594
13528W        W85953  38.775  20.670   1.306
13529W        W85954  14.811  24.507   2.894
13530W        W85955  23.159  17.528  12.026
13531W        W85956  38.377   9.844   3.634
13532W        W85957  36.568   5.879   3.320
13533W        W85958  40.348  21.004   2.320
13534W        W85959  29.546  28.198  14.080
13535W        W85960  18.183  35.428  11.940
13536W        W85961  35.417  14.284   1.807
13537W        W85962  22.162   8.840   3.188
13538W        W85963  32.454  42.040   3.591
13539W        W85964  26.886  32.484   4.952
13540W        W85965  36.463  20.505   4.479
13541W        W85966  28.186  44.948   4.128
13542W        W85967  36.870  22.126   2.201
13543W        W85968  41.474  22.100   0.091
13544W        W85969   7.602   0.438  14.861
13545W        W85970  33.322  24.020  13.535
13546W        W85971  26.760  43.536  10.722
13547W        W85972  28.781  14.719  12.447
13548W        W85973  26.437  16.803  14.387
13549W        W85974  14.673  30.859   3.263
13550W        W85975  42.467   6.400   1.624
13551W        W85976  38.907   3.242   4.598
13552W        W85977  37.478   7.818  14.256
13553W        W85978  21.997  23.478  14.585
13554W        W85979   6.826   6.745   0.071
13555W        W85980   7.436  24.539  14.570
13556W        W85981  39.544  21.331   4.201
13557W        W85982  10.296  29.673  12.031
13558W        W85983  36.479   0.330   2.005
13559W        W85984   7.188  43.868  14.273
13560W        W85985  20.336  34.566   2.762
13561W        W85986  14.338  27.030   1.818
13562W        W85987   6.290  30.858  11.872
13563W        W85988  32.204  27.468  13.442
13564W        W85989   4.977  41.031   4.690
13565W        W85990   5.523  11.685  11.647
13566W        W85991  41.499  22.733   3.312
13567W        W85992   5.737  31.163   0.850
13568W        W85993  37.628   1.418  11.654
13569W        W85994  41.137   2.660  12.052
13570W        W85995  10.971  24.733  11.683
13571W        W85996  21.148  41.586  13.038
13572W        W85997  13.748   8.117   2.378
13573W        W85998  16.071  36.117  11.964
13574W        W85999  25.499  21.538  10.835
13575W        W86000   7.676  25.601  14.798
13576W        W86001  42.309  16.862  11.681
13577W        W86002  32.064  32.869   4.183
13578W        W86003  22.482  24.855  11.687
13579W        W86004  35.433   2.878   1.776
13580W        W86005  39.476  24.153   3.224
13581W        W86006  34.067  12.248   0.731
13582W        W86007   2.722   1.771   2.873
13583W        W86008  10.572  28.610  13.401
13584W        W86009   8.691  29.692   1.616
13585W        W86010   4.767  27.612   0.927
13586W        W86011  12.543  41.164   3.690
13587W        W86012   9.308  19.572   2.332
13588W        W86013  30.609   0.636  12.287
13589W        W86014  34.253  14.400  12.996
13590W        W86015  14.208  20.718  10.946
13591W        W86016  14.087  37.035   1.656
13592W        W86017  41.463  12.148  10.932
13593W        W86018  38.758  18.660   2.312
13594W        W86019   4.062  18.354   4.229
13595W        W86020  15.561  18.448   3.588
13596W        W86021  25.703  15.242   1.747
13597W        W86022  43.714  34.514   3.168
13598W        W86023  22.273  23.813   2.146
13599W        W86024  17.696  19.673  10.396
13600W        W86025  16.408  40.497  11.270
13601W        W86026  23.958   1.549  11.109
13602W        W86027  39.440  21.794   0.860
13603W        W86028  24.799  35.516   3.164
13604W        W86029   3.736  38.445  10.729
13605W        W86030  14.678  41.246   0.214
13606W        W86031  40.257  11.247   4.185
13607W        W86032  40.463   6.139   0.592
13608W        W86033  29.082   3.965   0.391
13609W        W86034  29.718   1.987  11.081
13610W        W86035  35.465   6.102   4.731
13611W        W86036  12.628   0.450  14.602
13612W        W86037  44.503  10.365   4.083
13613W        W86038  33.452  27.898   1.294
13614W        W86039  14.611   1.757  10.629
13615W        W86040  44.524  40.939   4.356
13616W        W86041  23.985  42.297   1.869
13617W        W86042  25.409  31.454  14.453
13618W        W86043   0.543   2.997  12.636
13619W        W86044   8.708   2.730  11.375
13620W        W86045   7.240  22.683   1.776
13621W        W86046  16.829  34.933   4.094
13622W        W86047  28.336  19.212   0.800
13623W        W86048  20.769  10.065  12.710
13624W        W86049   7.507  12.832   1.226
13625W        W86050  40.834  39.573   4.346
13626W        W86051   7.286   7.341  11.575
13627W        W86052  38.579   8.488  13.295
13628W        W86053  30.023  26.120  12.541
13629W        W86054   7.455   7.655  13.049
13630W        W86055  36.535  14.781  12.903
13631W        W86056  30.970  15.201  14.969
13632W        W86057   8.239  15.715   0.982
13633W        W86058  40.847  25.036   0.074
13634W        W86059   8.617  13.699   1.826
13635W        W86060   7.744  10.122   0.495
13636W        W86061  40.533  26.406  13.516
13637W        W86062  13.188  19.391  10.600
13638W        W86063  25.100  38.500   1.224
13639W        W86064  37.558  20.024   1.136
13640W        W86065  41.773  43.795   2.093
13641W        W86066  22.716   4.256  12.488
13642W        W86067  35.615  11.149   4.309
13643W        W86068   6.952  20.335   4.146
13644W        W86069  32.113  35.895  13.555
13645W        W86070  13.376  27.821  12.074
13646W        W86071   6.173  34.398  14.389
13647W        W86072   4.673  28.550   4.054
13648W        W86073  18.317  29.635  11.834
13649W        W86074   4.201  31.009   1.935
13650W        W86075  23.208  20.026   3.160
13651W        W86076  43.835  21.545  12.936
13652W        W86077  33.181  31.408  13.565
13653W        W86078   2.843   2.453   2.339
13654W        W86079  17.805  38.403   1.280
13655W        W86080  29.943   8.904   2.310
13656W        W86081  44.657  41.769  11.135
13657W        W86082  24.797  19.325   1.702
13658W        W86083  17.102  38.339  10.675
13659W        W86084  12.270  30.198  12.568
13660W        W86085   9.642  20.069  12.953
13661W        W86086  15.528  12.689   1.258
13662W        W86087  10.176  32.599  10.649
13663W        W86088  16.938  15.291  11.107
13664W        W86089  34.988  43.800  13.467
13665W        W86090  22.758  13.392  14.817
13666W        W86091  34.652   7.241   0.330
13667W        W86092  16.197  23.303  10.568
13668W        W86093   2.982  35.969  10.706
13669W        W86094  36.955   3.329  11.280
13670W        W86095  25.966  41.754   0.029
13671W        W86096   3.186  36.163   0.833
13672W        W86097   3.320  38.469   4.825
13673W        W86098  17.171  30.602   2.182
13674W        W86099  33.060   4.990   2.812
13675W        W86100   3.747  20.482  13.083
13676W        W86101  37.563   5.113  14.849
13677W        W86102  23.504   0.728  13.875
13678W        W86103  21.058   6.643  12.981
13679W        W86104  43.374  34.301   4.122
13680W        W86105  21.025  33.859  11.154
13681W        W86106  32.019  37.701   5.033
13682W        W86107  13.217   4.894  12.673
13683W        W86108  25.188   9.076   0.003
13684W        W86109  33.487   2.244  12.287
13685W        W86110   3.518  37.443   0.327
13686W        W86111  38.307  20.177   4.374
13687W        W86112  38.843  36.430  14.440
13688W        W86113   2.541  14.710  10.478
13689W        W86114  39.398   0.680   2.283
13690W        W86115  27.086   4.404  12.951
13691W        W86116   4.366  37.563  12.049
13692W        W86117   2.691  43.548  14.884
13693W        W86118   6.138  36.383   2.463
13694W        W86119   3.386   6.378   1.211
13695W        W86120  36.270  16.709  13.722
13696W        W86121   6.637   6.339  10.561
13697W        W86122  12.589   2.821  10.708
13698W        W86123  27.691  29.592   1.778
13699W        W86124  44.276   6.279   1.263
13700W        W86125  26.908  44.041  12.315
13701W        W86126  41.529  28.959   4.722
13702W        W86127  13.281   5.857   3.579
13703W        W86128  37.409  24.679  12.466
13704W        W86129  41.722  35.072   4.187
13705W        W86130  36.177  20.046  11.238
13706W        W86131  21.619  15.913  11.013
13707W        W86132  39.807  10.753  12.661
13708W        W86133  32.662  33.464  11.598
13709W        W86134  11.160  14.210   3.792
13710W        W86135  29.132  10.250  11.995
13711W        W86136  24.509  33.877   4.759
13712W        W86137  39.551  18.203   1.058
13713W        W86138  18.514  11.131  10.801
13714W        W86139  10.821   0.041   0.858
13715W        W86140  28.410  12.126   2.397
13716W        W86141  19.037  27.868   1.039
13717W        W86142   3.816   3.005  14.993
13718W        W86143  27.039  31.239  10.651
13719W        W86144  24.497  29.048  14.403
13720W        W86145  44.282   4.241  13.303
13721W        W86146   8.451  36.255  14.642
13722W        W86147   2.684  28.205   0.370
13723W        W86148  34.935  32.929  11.183
13724W        W86149  26.183  10.733   0.058
13725W        W86150   0.754   8.667  12.556
13726W        W86151  19.288  35.884  13.387
13727W        W86152  33.104   6.712  12.374
13728W        W86153  41.531  22.483  11.493
13729W        W86154   1.626  13.661   0.524
13730W        W86155   6.258  19.294  10.684
13731W        W86156  12.336  38.697  12.633
13732W        W86157   1.259  40.888   3.034
13733W        W86158  33.031  34.896   3.085
13734W        W86159  40.591  43.960  11.633
13735W        W86160  23.091  39.359   2.208
13736W        W86161  28.938   2.950   1.277
13737W        W86162  44.284  14.487  11.186
13738W        W86163  18.158  18.202   3.793
13739W        W86164  41.822  42.986  12.968
13740W        W86165   1.201  18.733   1.845
13741W        W86166  24.595  29.674   2.308
13742W        W86167   0.448   9.060  12.668
13743W        W86168  31.788  30.042  11.996
13744W        W86169  30.108  14.529  14.844
13745W        W86170  27.872  28.256  11.599
13746W        W86171  32.288  25.091  12.438
13747W        W86172  22.922  43.392   3.486
13748W        W86173  42.551  20.222  11.050
13749W        W86174   3.154  18.514  14.864
13750W        W86175   3.186  18.567  13.489
13751W        W86176   4.514  40.407  14.285
13752W        W86177  25.602   0.207  11.138
13753W        W86178  33.528  33.190   4.678
13754W        W86179   8.748  11.663   2.870
13755W        W86180   7.450  35.642  14.463
13756W        W86181  43.936   3.857   4.326
13757W        W86182  27.426  40.701   2.777
13758W        W86183  40.959  18.072  13.326
13759W        W86184  12.857  37.050  11.857
13760W        W86185  44.516  12.083   4.675
13761W        W86186  22.113  41.818  12.099
13762W        W86187  36.607  41.361  12.330
13763W        W86188  34.914  31.436   2.379
13764W        W86189  21.199  41.773  12.089
13765W        W86190  24.604   7.179   0.934
13766W        W86191  16.501  36.975  13.913
13767W        W86192  40.306  37.023  14.420
13768W        W86193  34.378  13.456   2.616
13769W        W86194  22.175   8.277  12.073
13770W        W86195  43.115  23.764  12.603
13771W        W86196   7.887  29.601  11.441
13772W        W86197  17.652  26.951  13.427
13773W        W86198  29.659  44.715   2.854
13774W        W86199   8.188   8.195   2.142
13775W        W86200  24.811  15.672   9.874
13776W        W86201  18.760  27.990  10.908
13777W        W86202  25.168  42.112   0.412
13778W        W86203  12.163  41.873  14.384
13779W        W86204  19.143   6.056  14.798
13780W        W86205   4.977  16.558  14.905
13781W        W86206  10.040  15.487  11.620
13782W        W86207  36.759  38.751  12.921
13783W        W86208  13.810  23.048   4.995
13784W        W86209  33.566  27.910  14.938
13785W        W86210  10.697   1.802   4.408
13786W        W86211  13.701  24.387   9.677
13787W        W86212  24.790   1.409   1.072
13788W        W86213  22.003  28.206   3.118
13789W        W86214  13.942   7.398   0.967
13790W        W86215   6.094  28.176  12.531
13791W        W86216   4.743  10.401  11.711
13792W        W86217  33.675  17.689   0.023
13793W        W86218  27.310  14.650   0.062
13794W        W86219  27.421  44.935  12.574
13795W        W86220  32.888  17.693   2.898
13796W        W86221  11.829  14.526  11.175
13797W        W86222  15.830   8.658  12.014
13798W        W86223  12.383   2.723   1.397
13799W        W86224   0.304  43.738  12.870
13800W        W86225  36.442  37.357   2.471
13801W        W86226   2.491   6.138   1.239
13802W        W86227  20.534  25.163  14.296
13803W        W86228  16.868  26.572   3.322
13804W        W86229  27.821  39.243   9.767
13805W        W86230  16.532   5.779   4.662
13806W        W86231  23.198  18.831   3.990
13807W        W86232  32.697  11.873   0.445
13808W        W86233  11.115  39.027   2.742
13809W        W86234  24.816   4.406   4.632
13810W        W86235   6.681  11.858  10.406
13811W        W86236   0.447   6.473  13.564
13812W        W86237  26.990  42.973   2.752
13813W        W86238  15.766  16.887  10.148
13814W        W86239  29.329  30.093   4.516
13815W        W86240  21.512   3.748   2.289
13816W        W86241  23.503   1.098  11.062
13817W        W86242  27.975  31.522  13.366
13818W        W86243   3.609  37.469  12.483
13819W        W86244  14.219   4.347   3.558
13820W        W86245  29.098  11.572  12.514
13821W        W86246   2.550  20.085   1.709
13822W        W86247  13.125  29.530  11.021
13823W        W86248   9.816  34.085  14.960
13824W        W86249  41.011  29.714   1.027
13825W        W86250  11.426  36.329  11.456
13826W        W86251  40.257  37.709   1.838
13827W        W86252  10.967  43.516   0.426
13828W        W86253  21.999  23.018   4.657
13829W        W86254  17.274  11.880  14.017
13830W        W86255  17.337  42.480  11.095
13831W        W86256  36.383  34.760   4.203
13832W        W86257   4.226  44.316   0.246
13833W        W86258   7.995  35.128   2.320
13834W        W86259  28.863   8.651  11.421
13835W        W86260  23.603  21.154   4.519
13836W        W86261  15.224  12.069   1.936
13837W        W86262  33.951   8.917  11.934
13838W        W86263   0.245  41.838   0.715
13839W        W86264   6.449   7.842   2.645
13840W        W86265  44.084  12.691  12.902
13841W        W86266   5.862  28.416   0.364
13842W        W86267  21.543  17.737  12.545
13843W        W86268  12.614  38.375  12.982
13844W        W86269  34.869  42.571  14.911
13845W        W86270  35.201  21.527   3.852
13846W        W86271  27.818   3.937   4.933
13847W        W86272  30.478  27.270  13.390
13848W        W86273  35.423  26.697  12.561
13849W        W86274  28.496  27.542   3.797
13850W        W86275   7.884  31.422  14.107
13851W        W86276  39.869   6.328   0.196
13852W        W86277  35.455  19.258   3.824
13853W        W86278  32.889  20.923   0.381
13854W        W86279  31.134   4.853   0.364
13855W        W86280  12.596   8.194   4.126
13856W        W86281   3.293   6.651  14.443
13857W        W86282  24.253   3.699  14.098
13858W        W86283  13.106  44.579  10.325
13859W        W86284  29.541  39.335   1.897
13860W        W86285  23.628  39.398   4.768
13861W        W86286   0.647   7.405  11.186
13862W        W86287  13.297  39.189  12.781
13863W        W86288   7.463  44.869   1.312
13864W        W86289  27.502  37.480   2.277
13865W        W86290  32.630  16.071   2.710
13866W        W86291  38.449   3.598  13.377
13867W        W86292  32.333   1.725  13.466
13868W        W86293  35.114  31.888   2.617
13869W        W86294   9.636  27.495   0.339
13870W        W86295  37.080  32.865  13.524
13871W        W86296   9.801   0.994   0.967
13872W        W86297  38.443  38.081   0.257
13873W        W86298  37.945  13.697   3.561
13874W        W86299  29.150  32.793   1.908
13875W        W86300  21.538  26.702  14.488
13876W        W86301  27.558   5.230  14.008
13877W        W86302  13.231   4.932  11.172
13878W        W86303  13.421  31.575   2.878
13879W        W86304  36.358  44.872   0.221
13880W        W86305  17.421  34.675  10.134
13881W        W86306  28.013  29.180  12.571
13882W        W86307  18.734  28.939  10.459
13883W        W86308  34.207  11.259   1.809
13884W        W86309  23.863  19.449   1.293
13885W        W86310   5.306  37.144  10.453
13886W        W86311   8.431  29.653   4.632
13887W        W86312   8.807  35.127  12.500
13888W        W86313  13.100   3.862  11.031
13889W        W86314  44.324  25.185  10.654
13890W        W86315  18.594  18.078  14.873
13891W        W86316  35.902  23.186  13.866
13892W        W86317  25.531  24.791  13.561
13893W        W86318  21.644   7.796  11.599
13894W        W86319  42.962  43.158   1.593
13895W        W86320  30.738  28.794   3.853
13896W        W86321  26.024   0.557  12.882
13897W        W86322   2.509  44.015   0.049
13898W        W86323   5.649   9.417  12.826
13899W        W86324  12.593  42.537  14.060
13900W        W86325  19.282  42.069  14.003
13901W        W86326  36.559   2.233   4.598
13902W        W86327  39.403  31.165  11.218
13903W        W86328  36.400   9.762  13.915
13904W        W86329  30.039   9.156  13.387
13905W        W86330  19.261   8.775   0.997
13906W        W86331   7.346  32.710   4.830
13907W        W86332   4.841  22.541   1.047
13908W        W86333  21.478  10.128   1.922
13909W        W86334  23.799   0.955  10.652
13910W        W86335  18.016  19.590  14.802
13911W        W86336  43.761  10.365   4.628
13912W        W86337  40.651   8.933   4.464
13913W        W86338  23.307  35.714  13.096
13914W        W86339  38.371  37.178  13.588
13915W        W86340  39.840   3.239   2.683
13916W        W86341  33.548  21.723   0.037
13917W        W86342  35.644  13.332   1.551
13918W        W86343  31.279  34.021  14.746
13919W        W86344  28.038  33.915   2.704
13920W        W86345   4.517  10.750  10.396
13921W        W86346  38.261  36.762   1.721
13922W        W86347  15.686  24.207  12.873
13923W        W86348  18.291  27.966   3.389
13924W        W86349   6.506  34.978   0.776
13925W        W86350  34.406   7.142  11.864
13926W        W86351  25.499   0.836  14.419
13927W        W86352  27.159  35.890  12.005
13928W        W86353  26.693  41.278  13.904
13929W        W86354  13.576   1.516   9.620
13930W        W86355  37.785  19.533   0.312
13931W        W86356  36.102  41.904   1.334
13932W        W86357  37.442  35.561  14.986
13933W        W86358  32.625  30.982   0.860
13934W        W86359   9.936   3.674   0.683
13935W        W86360   7.128   8.002   5.026
13936W        W86361  20.760  34.337   1.002
13937W        W86362  13.072  34.659   3.658
13938W        W86363  30.973  21.013   0.478
13939W        W86364  26.637  17.838   0.249
13940W        W86365  33.338  42.215  12.001
13941W        W86366  33.334  39.848  12.973
13942W        W86367   6.741  36.743   3.585
13943W        W86368  42.209   4.535   3.194
13944W        W86369  12.312  43.166  13.437
13945W        W86370   1.055  20.973  12.043
13946W        W86371   8.526  31.663  13.449
13947W        W86372  37.385  16.565  12.610
13948W        W86373  19.021  33.040  11.987
13949W        W86374   8.120  11.413   0.704
13950W        W86375  17.296   3.868  11.083
13951W        W86376  40.685   3.070   4.863
13952W        W86377  33.983   1.016  13.299
13953W        W86378  14.232  15.340  10.582
13954W        W86379  35.524   4.639  11.661
13955W        W86380  34.480  12.562   0.775
13956W        W86381  41.524  35.498   2.283
13957W        W86382  24.165   4.907  10.511
13958W        W86383  15.021  12.732   1.359
13959W        W86384  28.984  28.181  12.905
13960W        W86385  26.938  17.426   5.066
13961W        W86386  38.840  18.537   3.167
13962W        W86387  38.567  12.198  13.078
13963W        W86388  35.529  38.328   4.216
13964W        W86389  12.298  11.676   3.363
13965W        W86390   4.211   1.781  12.126
13966W        W86391  20.446  31.879   1.736
13967W        W86392  17.121  41.277   1.349
13968W        W86393  24.949  16.831  14.295
13969W        W86394  31.581   1.909   4.053
13970W        W86395  20.346  16.071  13.180
13971W        W86396  31.653  12.520   4.116
13972W        W86397  24.900  35.157  14.302
13973W        W86398  35.023   5.809  12.857
13974W        W86399  41.318  32.138  13.163
13975W        W86400   2.554  15.595  13.263
13976W        W86401  43.619  16.728   2.307
13977W        W86402   7.422  12.368  11.500
13978W        W86403   2.676  43.935   2.187
13979W        W86404  42.433  44.856  12.507
13980W        W86405   2.636   9.591  13.404
13981W        W86406  12.906  30.523   2.861
13982W        W86407   7.489   2.435  10.412
13983W        W86408   5.399  42.061   2.597
13984W        W86409   5.879   1.519   4.711
13985W        W86410  14.990  34.978   4.473
13986W        W86411  29.851  10.927  12.986
13987W        W86412  24.479  37.606  11.606
13988W        W86413   0.202  37.619  10.437
13989W        W86414  16.116  33.008   1.054
13990W        W86415  15.817  29.556   3.020
13991W        W86416  11.145  16.731   4.592
13992W        W86417  37.393   5.049  13.317
13993W        W86418  32.144   0.006   0.933
13994W        W86419   2.769  32.012   4.262
13995W        W86420  38.511  33.324  13.411
13996W        W86421  16.784  28.199   2.654
13997W        W86422  24.460  17.701   3.641
13998W        W86423  15.383  22.121   1.688
13999W        W86424  17.091   8.442   0.996
14000W        W86425  39.594   7.261  13.039
14001W        W86426  26.287  42.226  12.577
14002W        W86427  40.856  40.801  11.688
14003W        W86428  37.598  27.495   1.847
14004W        W86429   9.260  30.689   0.118
14005W        W86430  21.076  20.255   1.402
14006W        W86431  10.718  31.376  14.004
14007W        W86432  21.744  43.033   2.811
14008W        W86433  16.872   2.222   4.277
14009W        W86434  36.791   2.394  13.039
14010W        W86435   1.243  22.037   2.752
14011W        W86436  37.287  18.578  14.521
14012W        W86437  15.881  23.150   3.912
14013W        W86438   8.690  17.914  11.562
14014W        W86439   4.293  17.183   0.302
14015W        W86440  30.025  11.787   4.374
14016W        W86441  20.600  17.568  12.253
14017W        W86442  41.909  15.307  10.348
14018W        W86443  19.267  16.246   0.410
14019W        W86444  22.054  31.517   1.666
14020W        W86445  23.962   1.328   3.255
14021W        W86446  41.353   4.494   0.873
14022W        W86447   6.214  37.474   1.362
14023W        W86448   8.100  18.676   3.598
14024W        W86449  20.849   7.244   4.103
14025W        W86450  11.059   0.558  13.738
14026W        W86451  20.059  33.395  14.569
14027W        W86452  15.997  34.220  11.146
14028W        W86453  44.467  31.516  11.991
14029W        W86454  13.811   8.172  14.544
14030W        W86455   8.137  36.156  10.646
14031W        W86456  36.247  15.658  13.856
14032W        W86457  32.533  33.694  12.052
14033W        W86458  39.041   1.456  13.374
14034W        W86459  31.423  39.487   4.866
14035W        W86460   2.161  43.956  12.385
14036W        W86461  18.096  41.228   3.214
14037W        W86462   5.777   4.945  10.536
14038W        W86463  12.660  14.083   3.721
14039W        W86464  17.122  13.179   0.188
14040W        W86465  26.473  14.268   3.081
14041W        W86466   2.124  21.119  11.433
14042W        W86467   3.695  38.536   3.108
14043W        W86468  40.411  20.310  13.886
14044W        W86469  29.433  11.896   4.675
14045W        W86470  27.487  26.549  12.562
14046W        W86471  27.642  27.599   3.929
14047W        W86472  44.200   7.248  11.067
14048W        W86473  26.048   3.795  12.501
14049W        W86474  19.571  21.668   3.624
14050W        W86475  34.969  22.132   0.729
14051W        W86476  15.302  28.592   0.194
14052W        W86477   3.307   3.255  12.907
14053W        W86478  33.935   7.320  11.062
14054W        W86479  15.033   5.062  13.551
14055W        W86480  42.920  41.028   2.831
14056W        W86481  32.857  15.124  13.723
14057W        W86482  18.375  25.325   3.691
14058W        W86483   9.344  33.477  12.102
14059W        W86484   1.427   9.077  13.011
14060W        W86485  26.638  26.222  10.909
14061W        W86486   2.492  15.231  12.303
14062W        W86487  36.756   7.621   1.926
14063W        W86488  28.540  12.008  13.968
14064W        W86489  26.989   5.588  14.376
14065W        W86490  32.674  43.384  12.888
14066W        W86491  26.640  15.713  13.377
14067W        W86492  35.979  26.192  12.152
14068W        W86493  23.573   1.660   3.323
14069W        W86494  27.010  22.735   0.613
14070W        W86495  29.657  25.634   3.661
14071W        W86496  23.985  21.989  13.253
14072W        W86497  22.804  25.394  14.981
14073W        W86498  13.190  36.526  13.743
14074W        W86499  27.616  42.451  14.195
14075W        W86500  12.085  12.474   0.688
14076W        W86501   7.356  42.916   1.278
14077W        W86502   3.922  14.087  11.610
14078W        W86503  21.211   4.983  11.202
14079W        W86504  12.867  33.369   3.724
14080W        W86505  34.615  12.648   2.273
14081W        W86506  21.641  39.429  11.572
14082W        W86507  23.227   3.904  10.952
14083W        W86508  28.367   9.110   0.902
14084W        W86509   7.174  31.209  11.090
14085W        W86510  26.498  12.607   1.325
14086W        W86511  41.197  38.104  11.340
14087W        W86512  30.048  33.507   2.606
14088W        W86513  36.627   5.836   0.554
14089W        W86514  20.157  39.585   0.861
14090W        W86515  18.125  31.880   0.966
14091W        W86516  41.492  42.325   0.432
14092W        W86517  11.659  36.531  11.942
14093W        W86518  10.746   2.364  14.093
14094W        W86519  41.923  14.397   0.513
14095W        W86520  20.703  20.029   3.262
14096W        W86521   6.808  44.405   2.807
14097W        W86522  42.216  35.125   2.446
14098W        W86523  13.847  43.998   2.848
14099W        W86524  29.183  13.779   1.328
14100W        W86525  44.573  22.511   1.130
14101W        W86526  15.128   5.686  12.125
14102W        W86527  12.091   7.284  12.871
14103W        W86528  17.373   3.107   3.819
14104W        W86529  35.394  17.284  11.531
14105W        W86530   7.908   9.806  14.783
14106W        W86531  43.357  16.170   3.137
14107W        W86532  28.964  23.487   2.257
14108W        W86533  14.130   2.900   2.170
14109W        W86534  23.237  16.902  13.758
14110W        W86535  33.544  41.681   0.676
14111W        W86536  18.657  42.966  10.679
14112W        W86537  29.157   1.249   3.356
14113W        W86538  25.636  15.065  12.465
14114W        W86539  37.335   8.106  10.206
14115W        W86540  33.507  27.423   3.204
14116W        W86541  39.970   4.208   1.823
14117W        W86542  22.120  25.161   1.317
14118W        W86543  20.680  40.325   1.818
14119W        W86544  28.488  24.210   2.460
14120W        W86545  30.095  23.688  10.409
14121W        W86546  10.824  12.870  14.839
14122W        W86547  23.566  28.157  11.095
14123W        W86548  10.883  22.235  11.555
14124W        W86549   8.586  37.321   0.367
14125W        W86550  30.054  41.624   4.277
14126W        W86551  18.255  33.502  12.784
14127W        W86552  25.336  16.590  14.023
14128W        W86553  40.255   1.402   4.373
14129W        W86554   6.948  24.597  14.224
14130W        W86555  41.928  11.191   1.833
14131W        W86556  30.412  20.205  11.052
14132W        W86557  32.100   7.012  12.091
14133W        W86558  15.748  13.131   0.915
14134W        W86559  39.892  17.332  12.096
14135W        W86560   1.856  15.409  13.978
14136W        W86561   6.738  17.198  14.489
14137W        W86562  43.215  18.033  13.058
14138W        W86563  33.140  28.997  13.403
14139W        W86564  19.742  22.041   3.284
14140W        W86565  21.063  43.794  14.803
14141W        W86566  33.977  36.840  14.915
14142W        W86567   4.793   8.591   1.319
14143W        W86568  27.575  44.468  13.753
14144W        W86569  22.234   7.521   1.284
14145W        W86570   7.122  31.615   1.462
14146W        W86571  21.196  14.640  14.420
14147W        W86572  16.729  15.743   4.568
14148W        W86573   9.944  31.680   2.864
14149W        W86574   4.977  35.920  13.511
14150W        W86575   6.735   3.781   2.607
14151W        W86576  12.761  12.856  11.196
14152W        W86577   4.323  32.104  13.840
14153W        W86578  33.476   6.081   3.524
14154W        W86579  33.974   4.333   3.924
14155W        W86580  36.877   7.982   4.865
14156W        W86581  41.974  31.593   2.366
14157W        W86582  23.034   8.892  13.361
14158W        W86583   6.357  26.305  14.324
14159W        W86584  12.729  24.447  10.810
14160W        W86585   4.367  26.709  12.398
14161W        W86586  13.071  37.179  11.088
14162W        W86587  29.405  34.147   1.774
14163W        W86588  23.037  14.177   0.555
14164W        W86589  38.737  28.342   5.081
14165W        W86590  15.199  40.781  14.492
14166W        W86591  43.348  38.587   4.621
14167W        W86592  11.337  10.779  12.035
14168W        W86593  37.810  41.978   4.103
14169W        W86594  42.168   2.816   4.971
14170W        W86595   3.456  15.440  13.316
14171W        W86596   5.086   7.732   3.614
14172W        W86597  12.744  19.774  11.628
14173W        W86598   9.753  17.032  14.222
14174W        W86599  24.459   9.181   2.217
14175W        W86600  34.130  12.307   3.144
14176W        W86601  38.826  28.265  14.358
14177W        W86602  26.976  14.568   4.193
14178W        W86603  13.486  44.895  14.820
14179W        W86604  16.244  33.811   1.425
14180W        W86605  42.756  43.420   3.604
14181W        W86606   4.784   1.438   0.051
14182W        W86607  29.894  17.079  10.645
14183W        W86608  25.328   3.534   0.497
14184W        W86609   5.780   0.214  14.426
14185W        W86610  44.759  37.292  12.008
14186W        W86611   0.265  15.664   4.342
14187W        W86612  27.941  39.285   4.717
14188W        W86613  27.478   8.814   3.244
14189W        W86614  16.656  36.516   0.544
14190W        W86615  17.111   1.358  11.605
14191W        W86616  13.674   0.980  10.282
14192W        W86617  41.234   2.420  14.370
14193W        W86618  21.750   7.334  11.379
14194W        W86619   7.280  29.171   1.255
14195W        W86620  10.865   0.960  13.454
14196W        W86621  36.072   0.265   1.199
14197W        W86622  23.447  15.765   1.938
14198W        W86623  35.521  27.263   4.306
14199W        W86624  29.936  44.876   1.139
14200W        W86625  38.014   6.576  11.502
14201W        W86626  23.434   2.970  14.719
14202W        W86627  15.022   6.495   2.343
14203W        W86628   0.686  42.291  13.067
14204W        W86629  26.281   9.115   1.664
14205W        W86630   0.357  27.240   1.128
14206W        W86631  41.732   2.754  13.855
14207W        W86632  37.585  30.140  11.379
14208W        W86633  22.588  17.335  11.613
14209W        W86634   8.544  41.396   1.751
14210W        W86635  25.950  17.158   3.259
14211W        W86636  30.446  42.782  14.039
14212W        W86637  35.817  43.858  14.266
14213W        W86638  36.435   3.077   0.888
14214W        W86639  33.185  40.636   4.648
14215W        W86640  23.523  39.526   3.731
14216W        W86641   6.931   0.789   3.535
14217W        W86642  16.756   9.654  13.528
14218W        W86643  12.168  29.374  12.938
14219W        W86644   7.684  21.211  12.113
14220W        W86645  16.868  13.004   4.713
14221W        W86646  19.167  43.734   0.364
14222W        W86647  28.696  44.028   2.727
14223W        W86648  38.431   9.477  13.349
14224W        W86649  34.586   6.425   1.629
14225W        W86650   8.959  33.444   2.809
14226W        W86651  24.037   4.303   0.735
14227W        W86652   9.465  25.434  10.430
14228W        W86653  29.426  16.819  12.166
14229W        W86654   8.469   6.172   3.705
14230W        W86655  15.614  17.090   3.207
14231W        W86656   9.347   3.521   3.291
14232W        W86657  28.676   7.678   4.578
14233W        W86658   9.170  39.973  14.837
14234W        W86659  16.323   3.192  14.039
14235W        W86660   3.959  32.383   3.175
14236W        W86661   6.379   8.583   4.633
14237W        W86662   5.618  34.417  14.316
14238W        W86663  43.277  11.225  10.333
14239W        W86664  16.398   1.401  13.973
14240W        W86665   8.403  21.167   1.717
14241W        W86666  26.011  11.421   2.705
14242W        W86667   1.523   7.918   0.865
14243W        W86668  22.095  14.798  12.616
14244W        W86669  12.746  42.291   4.259
14245W        W86670  19.571  35.989  14.058
14246W        W86671  42.679  15.617  14.542
14247W        W86672  12.238  17.899   3.723
14248W        W86673  40.279  14.820  12.440
14249W        W86674  20.298  33.017   4.491
14250W        W86675  12.801   1.797  14.242
14251W        W86676  41.233  31.738   4.918
14252W        W86677  38.372  16.106  14.488
14253W        W86678   1.231  15.394   3.194
14254W        W86679  16.878  29.323  12.031
14255W        W86680  34.668  37.877  11.232
14256W        W86681   3.486  37.777   1.463
14257W        W86682  13.138  42.482   3.836
14258W        W86683  35.223   8.487   0.422
14259W        W86684  21.927  18.187  11.969
14260W        W86685   2.371   7.217  11.540
14261W        W86686   2.303   4.936  14.725
14262W        W86687  10.276  32.955  10.999
14263W        W86688   5.331  44.470   2.304
14264W        W86689  32.367  21.051   2.867
14265W        W86690   1.276   5.197  13.023
14266W        W86691  31.065  30.937  12.213
14267W        W86692  31.567  14.776   0.222
14268W        W86693   8.598   4.352  13.880
14269W        W86694  26.952  44.699  11.218
14270W        W86695  28.780  20.380   3.078
14271W        W86696  19.143  44.915  14.324
14272W        W86697  25.943  38.400  13.182
14273W        W86698  13.271  18.705  12.342
14274W        W86699  26.898  33.100  11.692
14275W        W86700  25.289  12.296  12.921
14276W        W86701  37.320  16.590   2.221
14277W        W86702  42.011  33.375   4.230
14278W        W86703  13.154  28.081  10.417
14279W        W86704  32.592   5.891  12.686
14280W        W86705  22.965  14.051  10.580
14281W        W86706  25.741  36.395   1.029
14282W        W86707   6.339  43.022  13.357
14283W        W86708  12.042  33.983   1.498
14284W        W86709  39.891  20.166   4.425
14285W        W86710  38.319  40.979  13.913
14286W        W86711   8.886  42.464   2.698
14287W        W86712  35.237  13.737  11.109
14288W        W86713  34.849  20.775   1.314
14289W        W86714  38.985   1.634   4.498
14290W        W86715   8.703  10.175   0.098
14291W        W86716  31.365  44.755   1.813
14292W        W86717  14.252  42.003  12.837
14293W        W86718  14.873  23.176  13.147
14294W        W86719  24.569  41.994  11.459
14295W        W86720  12.190  39.112  14.855
14296W        W86721   2.282   2.528   1.911
14297W        W86722  37.471  23.642   3.774
14298W        W86723   0.838  15.729   0.051
14299W        W86724  37.820  10.493   3.562
14300W        W86725   2.992  32.409  12.971
14301W        W86726   4.219   3.295   5.104
14302W        W86727   6.374  27.521   4.364
14303W        W86728  17.382   7.867  14.947
14304W        W86729  26.906  34.882  13.463
14305W        W86730  38.863  37.778   4.636
14306W        W86731   2.949  14.532   1.976
14307W        W86732  20.998  10.155   4.669
14308W        W86733   3.870  36.077   0.527
14309W        W86734  40.498  43.417  12.440
14310W        W86735   2.818   4.773   4.428
14311W        W86736  40.580   7.995   1.341
14312W        W86737  11.128  34.904  13.762
14313W        W86738   0.680  36.487  13.866
14314W        W86739  25.104  15.337  11.428
14315W        W86740  23.659   9.175  11.299
14316W        W86741  19.334  17.353  11.089
14317W        W86742  38.370  19.581   3.681
14318W        W86743  16.528   2.329  13.533
14319W        W86744  17.971  39.845  13.451
14320W        W86745  36.990  35.385   2.794
14321W        W86746  17.879  29.487  12.574
14322W        W86747  31.151  22.254  10.324
14323W        W86748  41.065  28.710  11.751
14324W        W86749   8.800  25.601  12.884
14325W        W86750  41.011  16.752   3.265
14326W        W86751  39.653  15.592  11.213
14327W        W86752  28.735   9.431   3.248
14328W        W86753   5.991  36.059  12.042
14329W        W86754  24.468  19.452   0.532
14330W        W86755  36.180  31.974   0.843
14331W        W86756  34.386  16.370   3.295
14332W        W86757  34.797  35.989   1.132
14333W        W86758   5.992  44.309  14.409
14334W        W86759  14.769  33.753  11.499
14335W        W86760  28.910  22.607  11.347
14336W        W86761  24.389  38.602  13.459
14337W        W86762  38.866  31.216   0.684
14338W        W86763   0.428  42.385   2.333
14339W        W86764  19.252  26.110   3.489
14340W        W86765  31.712  20.425  14.749
14341W        W86766  20.819  33.101   4.475
14342W        W86767  43.343  16.269  13.023
14343W        W86768  18.119   0.185   4.169
14344W        W86769  31.924   8.910   3.169
14345W        W86770  25.440  14.535   3.961
14346W        W86771  15.362  39.760  13.645
14347W        W86772  27.600   8.134   1.739
14348W        W86773  11.381  23.544   2.678
14349W        W86774  31.501  30.591  13.365
14350W        W86775  30.677  35.393   1.781
14351W        W86776   3.694   5.091   3.254
14352W        W86777  27.087  41.993   1.689
14353W        W86778   4.010  44.737  10.856
14354W        W86779   8.116  38.184   1.649
14355W        W86780  31.485  26.418  11.112
14356W        W86781   8.619  38.087  12.580
14357W        W86782  13.359  36.677   2.320
14358W        W86783  44.856  31.128  13.636
14359W        W86784  32.571  12.214  10.326
14360W        W86785  17.262   4.344  10.762
14361W        W86786   6.800  29.950   4.354
14362W        W86787  12.201  17.796  11.469
14363W        W86788  16.225   4.064  11.170
14364W        W86789  14.282   9.103   0.241
14365W        W86790  23.762   4.484   3.613
14366W        W86791   1.443  33.961   9.533
14367W        W86792  29.576  13.721   0.676
14368W        W86793  11.564   5.699   4.574
14369W        W86794  28.696  26.201  13.023
14370W        W86795  40.924  34.796  14.206
14371W        W86796   3.898  32.417   3.682
14372W        W86797  39.832   1.909   1.291
14373W        W86798   3.323  13.092   3.628
14374W        W86799  41.386  20.965  11.544
14375W        W86800  18.165  32.207   1.350
14376W        W86801  26.026  31.444   0.739
14377W        W86802   9.344  36.953  12.409
14378W        W86803  41.992   1.363   0.701
14379W        W86804   9.952  36.530   2.651
14380W        W86805  16.143   0.063   0.791
14381W        W86806  43.972  28.581   4.548
14382W        W86807   9.210   1.236   1.695
14383W        W86808  34.847  29.542  13.651
14384W        W86809  34.782  36.477   3.601
14385W        W86810  37.745  27.810  12.053
14386W        W86811  41.288  23.637   1.306
14387W        W86812  31.175  36.846  10.719
14388W        W86813  37.341   6.866   0.462
14389W        W86814  31.961  25.442   0.360
14390W        W86815  30.761  11.066   4.528
14391W        W86816  27.933  40.774   0.769
14392W        W86817  24.411  25.921  11.701
14393W        W86818  10.770   3.256   2.089
14394W        W86819  44.548  33.890   0.063
14395W        W86820  19.806  14.162   1.108
14396W        W86821  11.732  22.728   2.111
14397W        W86822  25.580  32.453  10.646
14398W        W86823   8.658  31.666  10.732
14399W        W86824  37.049  37.481  14.243
14400W        W86825  27.005   9.318   0.480
14401W        W86826   9.668  12.177   1.838
14402W        W86827  14.514  23.197  11.957
14403W        W86828  37.999  27.861  14.554
14404W        W86829  39.540  42.885   0.234
14405W        W86830  24.613  14.738   3.504
14406W        W86831  13.822  40.266  13.572
14407W        W86832  12.428   9.853  13.342
14408W        W86833  41.841   5.237  12.026
14409W        W86834  37.570  29.773   5.125
14410W        W86835  42.888  29.031   4.686
14411W        W86836   2.765  33.919  12.344
14412W        W86837  31.651  20.039   1.766
14413W        W86838   1.439   2.476   1.491
14414W        W86839  34.027  14.631  13.394
14415W        W86840   0.739  32.018   5.417
14416W        W86841  38.614  41.474  12.673
14417W        W86842  23.813  41.586   0.525
14418W        W86843  19.650  23.662  12.375
14419W        W86844  18.390  39.019   0.934
14420W        W86845   5.682  19.659   3.674
14421W        W86846   8.171   8.849   0.351
14422W        W86847  38.272  33.020   4.395
14423W        W86848  42.596   5.678   4.529
14424W        W86849  40.102  39.425  11.977
14425W        W86850  35.503   2.349   4.694
14426W        W86851   3.595   8.767  13.428
14427W        W86852  19.087  14.066   4.343
14428W        W86853  29.397  17.648   4.573
14429W        W86854   0.918  14.510  12.094
14430W        W86855  20.553  18.560  12.097
14431W        W86856  44.098  19.063   1.434
14432W        W86857  29.569  23.298  11.128
14433W        W86858  29.033  33.710  12.538
14434W        W86859  17.216  39.963   3.444
14435W        W86860   8.804  30.397   3.176
14436W        W86861   7.766   1.868   4.120
14437W        W86862  18.369  44.301  10.952
14438W        W86863  10.419   6.750  12.011
14439W        W86864  33.026  32.316   4.482
14440W        W86865  34.992  12.530   1.883
14441W        W86866  24.292  41.409   4.544
14442W        W86867  24.256  27.548  13.459
14443W        W86868   0.753  19.651   2.397
14444W        W86869  35.014  11.139  14.957
14445W        W86870   7.171  16.848   4.336
14446W        W86871   6.925  18.055  13.368
14447W        W86872  41.387  27.198   4.544
14448W        W86873   8.309  36.541   4.786
14449W        W86874  28.754  31.627  12.666
14450W        W86875   3.885  29.232  12.931
14451W        W86876  23.634  22.357   2.779
14452W        W86877  28.524  35.844   4.749
14453W        W86878  23.818   5.364  13.753
14454W        W86879  17.743  14.205  13.389
14455W        W86880  42.812   4.766  12.935
14456W        W86881  37.662  13.572   1.738
14457W        W86882  38.818  41.235  13.605
14458W        W86883  13.138  26.027  10.989
14459W        W86884  19.992  43.747  13.429
14460W        W86885  27.904  32.327  12.034
14461W        W86886   4.260  26.767  11.489
14462W        W86887  26.387   5.068  10.977
14463W        W86888  34.308  30.723  12.073
14464W        W86889  10.879   8.791  13.125
14465W        W86890  28.647   5.256   0.864
14466W        W86891  43.155  38.630   5.099
14467W        W86892  42.444   5.831   0.876
14468W        W86893  43.035  13.676   0.057
14469W        W86894  37.403  35.824  11.232
14470W        W86895  40.940  10.698  13.367
14471W        W86896  43.952  42.898   4.872
14472W        W86897  26.951   9.578  13.755
14473W        W86898  39.745  11.626  10.829
14474W        W86899  41.397  20.279   0.128
14475W        W86900   6.818  22.090   0.240
14476W        W86901  11.587  27.382   0.330
14477W        W86902   9.503  39.020   3.454
14478W        W86903  31.319  24.619  10.464
14479W        W86904  11.666  35.550  10.735
14480W        W86905   9.749  40.818  12.628
14481W        W86906  24.212  23.578   4.033
14482W        W86907   5.326   9.240  11.877
14483W        W86908  32.474  26.588   1.261
14484W        W86909  10.064   3.932   2.966
14485W        W86910  29.228  43.771  13.105
14486W        W86911  33.580  33.444   4.011
14487W        W86912  42.247  29.073  14.844
14488W        W86913   7.776  43.118   1.539
14489W        W86914   4.717  16.613   1.858
14490W        W86915  29.658  30.221  13.224
14491W        W86916  42.322  30.485   3.722
14492W        W86917  35.013  15.293  13.794
14493W        W86918  44.744  12.058  10.611
14494W        W86919   5.426  23.618  13.653
14495W        W86920   7.870   6.057   0.397
14496W        W86921  29.153  20.582  12.442
14497W        W86922   2.640  13.355   4.037
14498W        W86923  11.612   5.529   1.881
14499W        W86924  10.744   6.540  14.927
14500W        W86925  14.674  41.315  12.901
14501W        W86926  37.051  37.363  12.796
14502W        W86927  27.113  15.429  11.048
14503W        W86928   9.166   3.615   1.276
14504W        W86929  37.436  16.334   2.712
14505W        W86930  14.412  17.813   9.784
14506W        W86931  36.001  44.055   0.491
14507W        W86932  27.153   5.276   0.792
14508W        W86933   6.714  27.706  13.943
14509W        W86934   9.147  38.494   3.832
14510W        W86935  43.562  12.230  11.474
14511W        W86936  22.563  18.214   3.600
14512W        W86937  43.025  18.700  14.965
14513W        W86938  38.975  15.330   4.934
14514W        W86939  19.325  16.795  11.617
14515W        W86940   6.081   8.477  13.875
14516W        W86941  25.932  19.974  11.009
14517W        W86942  15.398  37.445   1.119
14518W        W86943  15.544  22.794  11.472
14519W        W86944  18.584   9.381   0.783
14520W        W86945  31.448  25.641   4.353
14521W        W86946   8.703  35.755   4.055
14522W        W86947  30.436  29.516   3.231
14523W        W86948  26.252  22.435   3.345
14524W        W86949  40.032   8.290   0.680
14525W        W86950  24.505  11.916  14.535
14526W        W86951  44.573  20.549  10.570
14527W        W86952  16.235  31.088   2.246
14528W        W86953  44.981  11.806   4.743
14529W        W86954   0.815  14.194  11.164
14530W        W86955  26.182   3.100   5.032
14531W        W86956   9.207  32.120  10.227
14532W        W86957  14.731  10.633   1.882
14533W        W86958  23.722  35.911  14.418
14534W        W86959   5.275  39.288  14.040
14535W        W86960  16.259  33.170   4.216
14536W        W86961   8.934  23.657   2.612
14537W        W86962  43.100  21.795   5.197
14538W        W86963  42.856  40.877  14.871
14539W        W86964  29.253  16.703  14.889
14540W        W86965  18.795  10.148   3.735
14541W        W86966   3.613  40.117   4.110
14542W        W86967  32.152  43.011   3.640
14543W        W86968  20.243   7.878   4.618
14544W        W86969   3.511  22.152  11.593
14545W        W86970  23.086   8.482   3.706
14546W        W86971  41.442   4.402  13.312
14547W        W86972  37.361  27.007  12.377
14548W        W86973  31.558  25.425  13.890
14549W        W86974  41.757  21.188   2.614
14550W        W86975  24.381   2.345  12.870
14551W        W86976   6.260   9.725  10.633
14552W        W86977  19.176  17.439   4.544
14553W        W86978  41.766  13.446   2.347
14554W        W86979   7.835  25.209   3.272
14555W        W86980   4.838  29.278  12.960
14556W        W86981   3.603  43.417   4.469
14557W        W86982  39.315   9.371  13.862
14558W        W86983  34.470  16.226   1.448
14559W        W86984  33.039  13.996  14.423
14560W        W86985  38.410  26.654  12.915
14561W        W86986  21.003  39.666   3.955
14562W        W86987  20.934  23.070  12.072
14563W        W86988  36.651  27.184   0.853
14564W        W86989  13.875  25.361  11.004
14565W        W86990   4.904  31.324  12.209
14566W        W86991  11.700  36.991  13.453
14567W        W86992  42.478  17.317   3.258
14568W        W86993  40.317  20.264  12.954
14569W        W86994  16.544  12.102  12.069
14570W        W86995  22.223  43.954   2.715
14571W        W86996  31.845  11.107   4.616
14572W        W86997  43.720  22.037   4.547
14573W        W86998   7.331  35.224  12.565
14574W        W86999  26.595  12.229  13.097
14575W        W87000  20.270   3.028  11.109
14576W        W87001   8.758  15.794  12.957
14577W        W87002  17.062  43.933  14.413
14578W        W87003  35.473  24.111   3.663
14579W        W87004   0.102   2.789  12.831
14580W        W87005  23.132  40.564   2.840
14581W        W87006  31.779  16.256  11.715
14582W        W87007  19.635   3.314  10.894
14583W        W87008   1.775   8.665   4.395
14584W        W87009   6.043  38.829   3.832
14585W        W87010  18.215  23.311  11.452
14586W        W87011  27.924  13.099   1.942
14587W        W87012  31.419  41.632   0.220
14588W        W87013  39.392   8.786   3.881
14589W        W87014  12.884  35.523   1.762
14590W        W87015  21.370  23.996  12.151
14591W        W87016  29.541   6.684   4.980
14592W        W87017  26.199   4.361   1.125
14593W        W87018   1.173   3.608  13.453
14594W        W87019  41.124  23.208   2.227
14595W        W87020  34.812  21.106   0.889
14596W        W87021  37.166  37.111  11.424
14597W        W87022  32.960  19.756   4.004
14598W        W87023  27.173  36.901   4.223
14599W        W87024  34.299  14.641   0.535
14600W        W87025   3.818  26.050  11.284
14601W        W87026  10.323  43.747   1.878
14602W        W87027  44.925  20.190  13.374
14603W        W87028  13.685  16.205  10.701
14604W        W87029   8.593   5.946  13.119
14605W        W87030  26.094  27.635  14.080
14606W        W87031  10.288  21.589   4.323
14607W        W87032   6.092  32.074   0.847
14608W        W87033  30.633   9.315  13.995
14609W        W87034  16.469  24.252   3.768
14610W        W87035   9.286  25.566   0.527
14611W        W87036  34.100   4.450   2.241
14612W        W87037  17.308   5.987   0.948
14613W        W87038  16.660   0.693  11.203
14614W        W87039  41.096   9.310  11.462
14615W        W87040  13.103  44.102   1.798
14616W        W87041  44.740  11.925  13.635
14617W        W87042   9.110  23.144   2.744
14618W        W87043   7.447  10.272  14.310
14619W        W87044  10.349  14.735   1.815
14620W        W87045  21.822  12.276  14.446
14621W        W87046  30.188  43.000   3.261
14622W        W87047  26.997  34.094   4.859
14623W        W87048  44.342  35.989  13.640
14624W        W87049  22.253   2.681   0.272
14625W        W87050   5.403   0.173   4.582
14626W        W87051  21.080  19.781   2.132
14627W        W87052  22.134  32.613  12.424
14628W        W87053  14.922  24.352   3.397
14629W        W87054   2.921  40.553  12.470
14630W        W87055  17.044  38.528   2.836
14631W        W87056  27.425  27.171  12.146
14632W        W87057  42.397  38.812  13.357
14633W        W87058   6.994  23.818   0.192
14634W        W87059  34.141  22.053   3.239
14635W        W87060   7.172  42.874  13.786
14636W        W87061  22.189  17.529   4.172
14637W        W87062  11.918  13.080  11.144
14638W        W87063   7.700   7.909   1.671
14639W        W87064   2.316  24.246  11.156
14640W        W87065  15.378   3.377   3.295
14641W        W87066  28.184   7.806   0.413
14642W        W87067   0.877  29.651   4.590
14643W        W87068  42.769  43.324  11.942
14644W        W87069   8.858  42.945   3.027
14645W        W87070  37.171   9.107   0.381
14646W        W87071  12.749   3.201  12.000
14647W        W87072  34.308  33.726   0.405
14648W        W87073  33.834  22.947   4.636
14649W        W87074  36.568  20.979   2.863
14650W        W87075  16.274   1.392  13.342
14651W        W87076  33.590   6.389   4.480
14652W        W87077  28.799  10.711  14.944
14653W        W87078  41.516  41.556  14.111
14654W        W87079  42.230   9.940   0.807
14655W        W87080  25.010  42.825  13.456
14656W        W87081   1.850   7.406   1.784
14657W        W87082  40.509  40.991  13.060
14658W        W87083  43.478  32.350   3.383
14659W        W87084   3.003  23.504  12.265
14660W        W87085  15.429  28.553   4.530
14661W        W87086  35.172  32.986  12.062
14662W        W87087  42.096  29.538  10.620
14663W        W87088  16.754  44.093   1.373
14664W        W87089  23.836  12.369  11.748
14665W        W87090  23.765  11.649   5.104
14666W        W87091   7.425  19.121  11.141
14667W        W87092  11.721  40.004  14.849
14668W        W87093  36.954  15.065  12.794
14669W        W87094  15.853  40.120   9.795
14670W        W87095  42.521  27.694  10.953
14671W        W87096  30.930   3.188   2.222
14672W        W87097  18.550  11.654   3.742
14673W        W87098   5.703  19.614   4.191
14674W        W87099  21.799   5.368  13.866
14675W        W87100   7.457  14.579  14.853
14676W        W87101  38.493  32.376  11.840
14677W        W87102  25.670  19.025  13.066
14678W        W87103  14.673   2.728  11.553
14679W        W87104  16.147  34.405   3.702
14680W        W87105  27.493   0.515  14.341
14681W        W87106  13.374  24.563   0.827
14682W        W87107   8.118   1.863   0.136
14683W        W87108  33.365  27.168   3.709
14684W        W87109  30.376   9.921   3.833
14685W        W87110  32.386   4.931  14.228
14686W        W87111  35.308  44.329   1.192
14687W        W87112  38.045  44.281   1.341
14688W        W87113   2.484  12.705  11.936
14689W        W87114  15.164  22.681  13.160
14690W        W87115  24.068  14.654   4.188
14691W        W87116  44.728  43.535   2.864
14692W        W87117  34.926  31.958   4.530
14693W        W87118   1.788  14.107   0.813
14694W        W87119  42.866  18.982  11.669
14695W        W87120  11.319  15.727  12.185
14696W        W87121   5.816  42.333  11.303
14697W        W87122  20.639  18.509   4.425
14698W        W87123  14.225  25.664   1.796
14699W        W87124  23.696  16.758  13.595
14700W        W87125  13.660  14.421  10.630
14701W        W87126  41.407   7.068  12.104
14702W        W87127  12.130  34.042   0.131
14703W        W87128  38.988  23.948  10.261
14704W        W87129  37.333  33.154  14.860
14705W        W87130   0.077  37.685  12.152
14706W        W87131  44.329   4.210   1.794
14707W        W87132  43.079  31.585  11.521
14708W        W87133   7.739   4.847  14.096
14709W        W87134  37.014  27.513   1.466
14710W        W87135  27.189  11.205  11.880
14711W        W87136  10.346  43.281   2.754
14712W        W87137  40.751  21.524   5.090
14713W        W87138   2.114  42.977  11.497
14714W        W87139  12.144  23.534   4.509
14715W        W87140  18.378  10.162  12.038
14716W        W87141  41.425  23.634  14.941
14717W        W87142  40.232  28.401  10.643
14718W        W87143  42.703   6.955   4.199
14719W        W87144  17.653  43.296   2.698
14720W        W87145  28.496  24.728  12.096
14721W        W87146  16.690  31.525   1.254
14722W        W87147   0.898  28.470   3.092
14723W        W87148   5.471  16.199   1.584
14724W        W87149  13.984  26.104  11.147
14725W        W87150  37.738  11.313  13.219
14726W        W87151  43.940  13.362   1.304
14727W        W87152  23.010   5.998  12.010
14728W        W87153   1.703  18.899  13.808
14729W        W87154  23.061  28.533  11.106
14730W        W87155  10.316  34.511  13.810
14731W        W87156  28.758  27.739  14.854
14732W        W87157  43.305  10.774   3.978
14733W        W87158  34.162  10.077  13.770
14734W        W87159   6.145  18.166   0.747
14735W        W87160  43.435  16.582   0.057
14736W        W87161  43.947   3.436   4.622
14737W        W87162   9.727  12.868  11.239
14738W        W87163  34.058   2.900   4.154
14739W        W87164  35.941  21.310   4.064
14740W        W87165  32.477  19.172   3.090
14741W        W87166  15.790  16.224   4.712
14742W        W87167  28.647   1.799   3.356
14743W        W87168  40.467  34.992   3.653
14744W        W87169  27.222   7.308  14.347
14745W        W87170  23.468  42.762   2.337
14746W        W87171  42.506  28.212  13.283
14747W        W87172  31.446  11.639   0.001
14748W        W87173  12.291  43.061   4.162
14749W        W87174  25.538  31.843   9.926
14750W        W87175   2.306   9.745   4.851
14751W        W87176  21.450  34.728   2.267
14752W        W87177  42.828  10.389  12.388
14753W        W87178  26.714  29.108  11.090
14754W        W87179  12.431   6.814  10.959
14755W        W87180   4.257  26.184   0.334
14756W        W87181  26.688   7.962   2.355
14757W        W87182  32.409  17.693   2.103
14758W        W87183  39.420  43.911  10.893
14759W        W87184  23.711  17.690  13.043
14760W        W87185  24.277  25.678  11.234
14761W        W87186   4.982  10.978  14.049
14762W        W87187   9.749   2.229  13.022
14763W        W87188  21.195   5.169   0.588
14764W        W87189  12.165  21.619   3.726
14765W        W87190  24.988  18.649  10.838
14766W        W87191   8.641  24.938  10.238
14767W        W87192  30.505   1.042  11.966
14768W        W87193  24.761  14.111   3.668
14769W        W87194   3.099  37.488  11.158
14770W        W87195   9.729  10.095  14.317
14771W        W87196   8.873  43.556   0.954
14772W        W87197  43.185  42.428  13.432
14773W        W87198  23.132   7.129   3.664
14774W        W87199  27.989  40.233  12.874
14775W        W87200   2.737  12.650  12.425
14776W        W87201  30.151  38.996   0.129
14777W        W87202  36.982  36.415  13.612
14778W        W87203  13.625  32.001  12.522
14779W        W87204   1.009  21.267  14.572
14780W        W87205  24.119   0.390   2.855
14781W        W87206  28.678  42.867   3.257
14782W        W87207  42.589   2.121  12.196
14783W        W87208  12.251  10.124  13.904
14784W        W87209  37.642  40.454   4.121
14785W        W87210  34.879  17.747  12.895
14786W        W87211  22.933  25.111  13.996
14787W        W87212   7.518  38.123   3.376
14788W        W87213   9.395  17.135  11.473
14789W        W87214  10.716  16.072   1.963
14790W        W87215  15.112  39.880   0.570
14791W        W87216   9.285  36.954  14.349
14792W        W87217   1.405  28.433  14.013
14793W        W87218  18.328  19.155  14.878
14794W        W87219   3.995  42.003   3.729
14795W        W87220  38.923  14.728  13.433
14796W        W87221  31.527   9.798   4.591
14797W        W87222   0.260   6.416  10.469
14798W        W87223   2.947  43.500  10.566
14799W        W87224   8.002  13.704  14.645
14800W        W87225  39.660  26.679   0.997
14801W        W87226  39.038  17.531  12.516
14802W        W87227  38.007  38.804   0.452
14803W        W87228  15.550   0.892  13.449
14804W        W87229  12.078  26.446   0.406
14805W        W87230  15.147  31.597  10.602
14806W        W87231   7.734  42.329   3.335
14807W        W87232   3.376  23.991   2.675
14808W        W87233   4.860  44.861  14.872
14809W        W87234  27.372  43.820   0.816
14810W        W87235  16.519  11.787  14.592
14811W        W87236  35.570  30.141   1.280
14812W        W87237   6.257   5.537  11.053
14813W        W87238  36.144   8.118   4.415
14814W        W87239  21.619  11.162   4.236
14815W        W87240  11.113  42.610  14.679
14816W        W87241  40.882  30.431  10.944
14817W        W87242  13.759   5.592   0.312
14818W        W87243  28.858  12.104   0.468
14819W        W87244  14.065  39.024   3.657
14820W        W87245  35.807   3.788   3.122
14821W        W87246  31.161   1.856   4.385
14822W        W87247  31.693  42.725  13.447
14823W        W87248  36.721   8.399   3.694
14824W        W87249  20.477  36.288  14.760
14825W        W87250  27.782  30.665  12.924
14826W        W87251  43.126  32.355   4.940
14827W        W87252  37.061  41.297  11.076
14828W        W87253   4.407  40.361  11.483
14829W        W87254  26.350  10.724   0.542
14830W        W87255  17.378  35.902   1.977
14831W        W87256  37.549  32.170  12.934
14832W        W87257   9.339  12.262  14.828
14833W        W87258   1.061  20.030  10.563
14834W        W87259   8.848  28.498  12.692
14835W        W87260  38.288   2.911  12.576
14836W        W87261  32.150  24.676  14.875
14837W        W87262  44.545  29.189   4.090
14838W        W87263  33.074  43.053   4.064
14839W        W87264  28.974   3.375  12.937
14840W        W87265  25.307  15.397   2.708
14841W        W87266   9.451  21.601   1.091
14842W        W87267  40.009  13.170  12.038
14843W        W87268   1.678  21.689  14.582
14844W        W87269  39.565  41.937   4.770
14845W        W87270  24.216  29.842   0.437
14846W        W87271  11.325  24.568   1.175
14847W        W87272  44.370   1.483  13.979
14848W        W87273   1.824  34.981   4.199
14849W        W87274  12.079  26.514   1.723
14850W        W87275  33.340  12.698   3.197
14851W        W87276  20.867  28.185   3.279
14852W        W87277  33.896   6.781   0.951
14853W        W87278  42.321  10.255   4.675
14854W        W87279  15.140  34.363   2.278
14855W        W87280  36.526  41.871  11.482
14856W        W87281  38.864  12.402   2.241
14857W        W87282  37.579  13.227  12.911
14858W        W87283  10.417  16.539   0.834
14859W        W87284  43.016  37.072   3.560
14860W        W87285  14.604  36.401   1.784
14861W        W87286   6.248  35.750  11.249
14862W        W87287  21.776  33.454   3.261
14863W        W87288  20.212  41.345  13.120
14864W        W87289  10.826  17.193  10.644
14865W        W87290  38.471  40.516   1.803
14866W        W87291  25.429  25.515   1.184
14867W        W87292  22.657   0.060   1.960
14868W        W87293  44.000  43.429  10.748
14869W        W87294  35.214  36.515   1.745
14870W        W87295   2.330  13.703  13.923
14871W        W87296  39.464  19.990  12.441
14872W        W87297  11.536   1.255   4.328
14873W        W87298  18.633  32.691  13.385
14874W        W87299   5.929  36.485  12.351
14875W        W87300  16.374   7.888   1.412
14876W        W87301  17.343   6.657   2.731
14877W        W87302  42.005   4.789   4.564
14878W        W87303  43.276  17.997   4.126
14879W        W87304  34.150  42.280  11.630
14880W        W87305   8.256  22.933   1.425
14881W        W87306  39.377  20.353   4.424
14882W        W87307  10.389  16.161  12.053
14883W        W87308  33.202  25.868   3.859
14884W        W87309   4.320   0.793   3.384
14885W        W87310  22.479  27.573   3.169
14886W        W87311  35.500  32.480  14.851
14887W        W87312  14.115  12.742   3.676
14888W        W87313  23.488  26.919  11.621
14889W        W87314  17.946  31.367   0.838
14890W        W87315  24.817  32.249   2.948
14891W        W87316   2.739  36.086   2.151
14892W        W87317  19.079  24.791  12.839
14893W        W87318  12.352  25.714  14.365
14894W        W87319  43.350  26.523  11.002
14895W        W87320  25.230  25.541   3.312
14896W        W87321  43.727  33.490   3.854
14897W        W87322  13.142   3.427  14.758
14898W        W87323  36.620   3.193   4.082
14899W        W87324  15.247  43.640   2.908
14900W        W87325  41.938  22.549   2.801
14901W        W87326  39.422  34.357  11.589
14902W        W87327  28.209   4.140  12.884
14903W        W87328   3.257   6.266   4.632
14904W        W87329  19.251  36.028  14.477
14905W        W87330  11.408  30.980  12.736
14906W        W87331  10.374  34.833  13.424
14907W        W87332  42.895  38.829  12.894
14908W        W87333  26.757  41.976   4.557
14909W        W87334  21.609   8.542   2.315
14910W        W87335  15.122  26.685  11.256
14911W        W87336  29.144  14.517   2.800
14912W        W87337  25.922   9.384  13.129
14913W        W87338  39.425  29.680   4.124
14914W        W87339  16.263  12.484  14.253
14915W        W87340  17.101  32.470  10.627
14916W        W87341  36.054  44.304   3.662
14917W        W87342  30.636  41.473   9.736
14918W        W87343   7.306  40.720  14.966
14919W        W87344  28.166  12.945  10.371
14920W        W87345   9.251   5.304   1.610
14921W        W87346  41.310  25.714  14.303
14922W        W87347   5.274  39.810   0.057
14923W        W87348   5.679  43.374   4.661
14924W        W87349  15.337  30.479   1.748
14925W        W87350  26.553   4.274  14.795
14926W        W87351  17.093  19.799   4.116
14927W        W87352  35.117  34.110  13.421
14928W        W87353  41.021  42.390   1.805
14929W        W87354  28.389  23.976  14.344
14930W        W87355   3.390  20.177   4.413
14931W        W87356   5.389  36.957   2.873
14932W        W87357   4.269  20.012  10.621
14933W        W87358   0.327  22.974   1.665
14934W        W87359   6.783   5.205  12.874
14935W        W87360  24.672  23.281  13.332
14936W        W87361   5.911   4.360  14.478
14937W        W87362  40.711   7.906   4.691
14938W        W87363   1.525  33.933   4.316
14939W        W87364  12.566  20.171  14.954
14940W        W87365   0.980  38.865  14.523
14941W        W87366  39.979  39.606   2.831
14942W        W87367  14.326   3.665   4.866
14943W        W87368  22.580   7.217  14.547
14944W        W87369  30.632  32.924  12.887
14945W        W87370  40.277  43.132  11.173
14946W        W87371  24.042   2.490  12.079
14947W        W87372   1.479  19.642   3.261
14948W        W87373  30.909  42.962  11.288
14949W        W87374   1.275  36.172  14.586
14950W        W87375  14.311  40.052   4.511
14951W        W87376  31.968  22.554   3.551
14952W        W87377   4.329  13.273   4.614
14953W        W87378  40.756  22.815   0.175
14954W        W87379  44.130  24.141   3.621
14955W        W87380  41.988   9.126  14.894
14956W        W87381  12.686  22.203  11.430
14957W        W87382  35.394  27.566  10.994
14958W        W87383  14.717  21.550   1.707
14959W        W87384   2.325  34.477   0.762
14960W        W87385  15.645  25.779   3.234
14961W        W87386  28.860  17.094   1.422
14962W        W87387  25.040  40.396  12.143
14963W        W87388  27.922   2.869  14.685
14964W        W87389  23.672  32.460  10.606
14965W        W87390  35.591  36.480   4.577
14966W        W87391  34.328  44.520   1.408
14967W        W87392   0.959  15.219   2.777
14968W        W87393   3.403  42.161   4.350
14969W        W87394   2.100   6.644  12.827
14970W        W87395  28.448  36.181   3.842
14971W        W87396  11.852  20.982   3.059
14972W        W87397  20.809   1.761  11.094
14973W        W87398  14.108  28.175   1.403
14974W        W87399  43.831  34.463  11.009
14975W        W87400   2.485  10.121   0.530
14976W        W87401  32.332  36.370   2.778
14977W        W87402  19.248  15.371  13.339
14978W        W87403   8.188  37.958  12.835
14979W        W87404  35.494  15.769  11.552
14980W        W87405  43.906  37.716  10.995
14981W        W87406  42.678  29.496  10.705
14982W        W87407   3.594  38.414   1.749
14983W        W87408  15.306  27.895   1.779
14984W        W87409  11.282  20.641  13.848
14985W        W87410   6.911   1.435  12.624
14986W        W87411   2.383  21.145   5.037
14987W        W87412  15.381   4.354   0.186
14988W        W87413  22.170  35.333  14.607
14989W        W87414  13.791  21.394   3.591
14990W        W87415  29.623  26.836  12.004
14991W        W87416  43.477  31.156   0.701
14992W        W87417  44.855  41.381  12.020
14993W        W87418  29.848  17.770  14.235
14994W        W87419  15.637  39.479   3.214
14995W        W87420   0.897   9.954   0.510
14996W        W87421  17.579  39.523  11.148
14997W        W87422  15.665  32.504   0.288
14998W        W87423  36.443   8.833   4.387
14999W        W87424  30.938   8.260   4.760
15000W        W87425  42.416  28.278  11.512
15001W        W87426  43.948  12.770  12.090
15002W        W87427  42.397  31.500  11.157
15003W        W87428  22.651   6.686  11.613
15004W        W87429  22.717  26.834  11.581
15005W        W87430  42.762  13.352   1.415
15006W        W87431  41.765  44.302  12.988
15007W        W87432  27.681  26.067  14.869
15008W        W87433  12.898   7.885  12.432
15009W        W87434   1.055  37.132  12.169
15010W        W87435  26.966  36.444   2.799
15011W        W87436  43.349  21.321   5.102
15012W        W87437  21.280  37.294   4.746
15013W        W87438  16.979   5.240   2.984
15014W        W87439  28.278  33.460   2.655
15015W        W87440  19.304  16.156   1.355
15016W        W87441  15.247  34.629   1.372
15017W        W87442  34.623  12.127  11.505
15018W        W87443  41.964  36.668  11.356
15019W        W87444  31.116  37.924   4.597
15020W        W87445  23.044  41.548  11.118
15021W        W87446  13.853  13.686   1.718
15022W        W87447   5.380   0.604   3.814
15023W        W87448  30.968  12.166  12.166
15024W        W87449   4.824  18.044  12.047
15025W        W87450   8.942  21.723  12.546
15026W        W87451  41.839   6.787   4.361
15027W        W87452  34.941  14.206  13.621
15028W        W87453  38.254  29.953  12.896
15029W        W87454   4.334  25.054  11.901
15030W        W87455   4.216  32.067   4.610
15031W        W87456  34.485   8.320  11.696
15032W        W87457   7.240   5.765   3.685
15033W        W87458  19.633  41.559  12.387
15034W        W87459  27.732  42.753   4.924
15035W        W87460  15.705   5.461   3.943
15036W        W87461  24.696   6.408   1.692
15037W        W87462   6.225  10.651   2.772
15038W        W87463  33.029   0.993  12.020
15039W        W87464  31.671   0.812  12.523
15040W        W87465  39.435  32.900  12.367
15041W        W87466  39.800  39.617   3.639
15042W        W87467  38.248  40.676  12.880
15043W        W87468   7.749  14.367  10.376
15044W        W87469   5.132  42.871   1.677
15045W        W87470   3.279  13.278   1.660
15046W        W87471  38.950  37.570  11.963
15047W        W87472  15.566  11.174  10.765
15048W        W87473  22.502  11.063   2.623
15049W        W87474  40.414  35.114   0.718
15050W        W87475   7.162  41.407  10.804
15051W        W87476   8.701  14.041   0.055
15052W        W87477   5.425  44.000  13.914
15053W        W87478  28.551   1.641   4.705
15054W        W87479  35.578   3.752   4.679
15055W        W87480  17.313  11.322   3.630
15056W        W87481   8.997   7.613   2.422
15057W        W87482  12.728   1.463   4.329
15058W        W87483  10.286  10.772   1.849
15059W        W87484  12.286   0.148   0.568
15060W        W87485  20.146  36.712  14.735
15061W        W87486  23.690  20.756   1.200
15062W        W87487  13.270  21.246   1.992
15063W        W87488  41.312  37.594  14.056
15064W        W87489  24.717  19.758  13.773
15065W        W87490  20.907  12.430  13.080
15066W        W87491  19.265  16.878  12.493
15067W        W87492   6.572   5.481   3.587
15068W        W87493  21.075  22.425   4.984
15069W        W87494  42.552  19.317   9.954
15070W        W87495  11.463  43.416  10.641
15071W        W87496  20.587  12.701   2.599
15072W        W87497   7.951  39.082   3.565
15073W        W87498  20.662  43.978   4.736
15074W        W87499  12.112  42.721  11.988
15075W        W87500  41.372  34.931   4.600
15076W        W87501  36.184  32.973  14.093
15077W        W87502  28.716   8.440  14.734
15078W        W87503   0.307  24.053  13.172
15079W        W87504  21.477  24.225   2.068
15080W        W87505  32.446  28.628  13.161
15081W        W87506  37.969  16.329  13.261
15082W        W87507  31.819  22.314   4.368
15083W        W87508  31.093  34.531   2.270
15084W        W87509  22.870   6.138  13.977
15085W        W87510  25.423  21.276   1.684
15086W        W87511  14.622   7.625  14.022
15087W        W87512   8.540   2.459   4.121
15088W        W87513   3.796  29.477   3.384
15089W        W87514  43.303   6.409   1.646
15090W        W87515   7.387  36.978   4.834
15091W        W87516   7.216  27.500   4.100
15092W        W87517  35.362  36.930   4.403
15093W        W87518  35.900  16.705  12.946
15094W        W87519   6.902  13.148  11.597
15095W        W87520  32.581   8.515   3.688
15096W        W87521   2.328  34.312   1.790
15097W        W87522  15.132  41.452   0.366
15098W        W87523  27.690   6.670   3.387
15099W        W87524   0.500  38.615   0.461
15100W        W87525  13.089  44.166  13.383
15101W        W87526  25.076  17.561  12.411
15102W        W87527  29.372   9.402   1.792
15103W        W87528  40.426   9.860   3.225
15104W        W87529  33.784   6.203  11.105
15105W        W87530   2.700   0.442   1.331
15106W        W87531  41.710  19.517   0.370
15107W        W87532  15.537  21.735   3.900
15108W        W87533  44.402  11.235   3.623
15109W        W87534  40.314   1.824  10.366
15110W        W87535  21.648  31.476  12.377
15111W        W87536  41.467   1.887   4.719
15112W        W87537  30.240  28.176  12.653
15113W        W87538   7.758  43.262   0.455
15114W        W87539  43.250  31.470   1.427
15115W        W87540  34.090  41.585   2.662
15116W        W87541  19.763  11.111   2.041
15117W        W87542  26.889  27.193   1.921
15118W        W87543  39.042   9.879  13.135
15119W        W87544  44.840  24.219  13.000
15120W        W87545  11.890  23.085   0.679
15121W        W87546  30.190  42.892   2.730
15122W        W87547   2.482   2.886  10.555
15123W        W87548   5.377  41.757  14.776
15124W        W87549  26.207  37.364  13.058
15125W        W87550  38.387  19.724   4.603
15126W        W87551   8.117   7.738   1.418
15127W        W87552  13.691  21.592  13.492
15128W        W87553  14.346   2.808   3.739
15129W        W87554  15.207  18.281   0.757
15130W        W87555  30.432  10.058   3.093
15131W        W87556  43.597   9.405   4.433
15132W        W87557  43.117   1.502  11.695
15133W        W87558  28.546  40.783   0.645
15134W        W87559   0.858  41.497   1.384
15135W        W87560  34.389  23.596   3.315
15136W        W87561  22.893  38.945  12.925
15137W        W87562  37.540  44.297  14.092
15138W        W87563  44.517  13.089   0.352
15139W        W87564   0.365  16.984  11.138
15140W        W87565   4.704  32.958  11.672
15141W        W87566   4.067  12.620  10.424
15142W        W87567  20.152   1.701  10.769
15143W        W87568  20.810  15.792  14.765
15144W        W87569   4.776  16.514   0.867
15145W        W87570  33.370   9.520   4.057
15146W        W87571  39.825  29.210  12.055
15147W        W87572  38.254  39.927  13.027
15148W        W87573   9.501  41.573  12.138
15149W        W87574  20.200  18.386   2.107
15150W        W87575  39.061   0.328  14.325
15151W        W87576   8.661  40.083  14.056
15152W        W87577  40.482  18.863   4.375
15153W        W87578  21.720  14.526   3.055
15154W        W87579  41.453  41.247  12.318
15155W        W87580  27.166  21.204  12.256
15156W        W87581  35.371  26.686   4.064
15157W        W87582  42.455  26.171  12.461
15158W        W87583   2.446  41.850  12.999
15159W        W87584   7.451   9.284  11.612
15160W        W87585  12.105   0.352  10.416
15161W        W87586  11.883   3.801   2.288
15162W        W87587  44.694   8.740  10.495
15163W        W87588   4.248  21.928  11.837
15164W        W87589  41.068  20.081  13.486
15165W        W87590  23.637  23.722  13.879
15166W        W87591  31.007  11.658  12.172
15167W        W87592  10.193  23.224   3.752
15168W        W87593   1.487  31.009   0.854
15169W        W87594  44.884  30.526   4.186
15170W        W87595   6.872  32.639  11.964
15171W        W87596  11.364  13.090   1.418
15172W        W87597   8.418   8.889  13.014
15173W        W87598  23.158  34.544   3.809
15174W        W87599  14.582  10.356  11.835
15175W        W87600  28.750  30.026   2.421
15176W        W87601  12.628  28.084  12.044
15177W        W87602  35.312  35.822   1.164
15178W        W87603  18.278  42.794   2.736
15179W        W87604   7.439  28.807  10.313
15180W        W87605  38.788  16.147  10.384
15181W        W87606  24.578  32.022   4.321
15182W        W87607  24.154  40.602   0.889
15183W        W87608  22.356   0.974  14.875
15184W        W87609  14.866  44.215   4.517
15185W        W87610   2.983  20.652   1.772
15186W        W87611  29.030  35.974   0.240
15187W        W87612  19.244  39.037  12.859
15188W        W87613   8.840  43.420  11.729
15189W        W87614   4.496  12.742  14.133
15190W        W87615  40.330   9.194  13.867
15191W        W87616  44.929  43.716   3.809
15192W        W87617  40.567  33.903  12.352
15193W        W87618  42.782  29.611   0.362
15194W        W87619  37.510   6.998   3.785
15195W        W87620  23.050  26.239   1.754
15196W        W87621   2.033  30.123  13.975
15197W        W87622  29.992  43.436  13.720
15198W        W87623   7.264  11.304   0.304
15199W        W87624  34.945  12.311  13.714
15200W        W87625  37.144  42.894  13.107
15201W        W87626   1.946  25.979  14.954
15202W        W87627  41.413  18.814   2.138
15203W        W87628   3.200   7.276   1.254
15204W        W87629  41.970  29.998  10.855
15205W        W87630  33.154  44.075   3.228
15206W        W87631  12.719   2.354   0.052
15207W        W87632  41.022  36.642  14.947
15208W        W87633  42.300  23.744   0.283
15209W        W87634  33.680   9.936  13.541
15210W        W87635  19.181   7.887  14.276
15211W        W87636  12.298  19.978   2.259
15212W        W87637  19.250  20.654   0.471
15213W        W87638  36.327   7.329  14.902
15214W        W87639   4.673  37.500   1.505
15215W        W87640  34.115  14.292   0.193
15216W        W87641  26.241  43.806  10.866
15217W        W87642  43.369  22.153  12.343
15218W        W87643  31.951  16.339   1.014
15219W        W87644  29.492   0.407  14.511
15220W        W87645   8.330  42.489   1.560
15221W        W87646  17.187  24.453   0.960
15222W        W87647   8.363   1.965  11.739
15223W        W87648  27.039   4.286   3.331
15224W        W87649   8.755   3.639   2.694
15225W        W87650  27.574  39.483  12.964
15226W        W87651   4.017  11.759  11.529
15227W        W87652  40.873  16.147  14.368
15228W        W87653  30.067  34.002  12.114
15229W        W87654  24.666  37.416  11.119
15230W        W87655  27.710  23.274  14.460
15231W        W87656  41.963  16.877  13.298
15232W        W87657  34.014  43.133  14.915
15233W        W87658  17.362  34.965  11.438
15234W        W87659   5.166  36.859  12.686
15235W        W87660  41.610   3.845   2.648
15236W        W87661   9.660  18.775  10.840
15237W        W87662  12.757  14.773   2.140
15238W        W87663  40.019  38.575  13.812
15239W        W87664  28.194  14.285  10.536
15240W        W87665  42.552  23.539  10.412
15241W        W87666  11.203   8.825  14.708
15242W        W87667  21.468  28.049  12.059
15243W        W87668  29.520  26.714  14.115
15244W        W87669  34.713  19.720  13.491
15245W        W87670  42.326  38.480   1.181
15246W        W87671  41.893  42.023   2.371
15247W        W87672  39.473  42.440   0.491
15248W        W87673  15.561   6.367  13.901
15249W        W87674  43.814  37.354  14.583
15250W        W87675  38.332   0.756   1.275
15251W        W87676  30.024   2.972   0.844
15252W        W87677  40.776  31.878   3.683
15253W        W87678   9.789  19.154   4.108
15254W        W87679  41.810  25.452   1.002
15255W        W87680  39.369  35.963  13.438
15256W        W87681  35.864   1.142   3.815
15257W        W87682   8.417  10.718   2.791
15258W        W87683   1.416   4.785  12.702
15259W        W87684  23.935  26.641   0.505
15260W        W87685  24.996   1.392   1.805
15261W        W87686  17.399  26.932   2.408
15262W        W87687  13.074   3.791  14.012
15263W        W87688  29.587   9.261   2.238
15264W        W87689  25.375  10.370  12.665
15265W        W87690   1.019   3.351   3.676
15266W        W87691   1.386  26.556   4.935
15267W        W87692  12.651   4.168  12.512
15268W        W87693  19.756  19.062   2.383
15269W        W87694  15.736  16.333   1.893
15270W        W87695  23.120  26.845  12.992
15271W        W87696  40.173  15.285  13.964
15272W        W87697  29.920  31.510   0.450
15273W        W87698  30.491   8.078   1.769
15274W        W87699  17.975  20.262  10.802
15275W        W87700  39.516   0.645  12.781
15276W        W87701  26.210  36.421  11.241
15277W        W87702  27.422  42.078   3.667
15278W        W87703  33.832  24.445  10.800
15279W        W87704  11.638  26.537  13.759
15280W        W87705  33.143  38.911   3.627
15281W        W87706   8.631  27.081   0.316
15282W        W87707   7.735  25.332  10.309
15283W        W87708   2.321  18.753   4.999
15284W        W87709  16.526  34.982   4.531
15285W        W87710  18.406  44.782  13.622
15286W        W87711  24.024  33.919   0.384
15287W        W87712  16.247  10.547   4.617
15288W        W87713  40.239   7.939  13.376
15289W        W87714  33.784  27.896  10.295
15290W        W87715  37.977  36.285  13.927
15291W        W87716  30.215  30.736  14.999
15292W        W87717  38.580  26.220  13.872
15293W        W87718  14.328  36.900   2.523
15294W        W87719  32.134  14.080  14.075
15295W        W87720   1.637  11.681  12.058
15296W        W87721  15.140  29.467  13.290
15297W        W87722  38.105  10.644   2.257
15298W        W87723  36.346  16.642  14.239
15299W        W87724  21.505  30.847  13.958
15300W        W87725   3.669  34.704   4.142
15301W        W87726  13.669  32.193   0.410
15302W        W87727  38.582  23.613  14.473
15303W        W87728  12.673  34.896  12.505
15304W        W87729  33.633   4.535  14.087
15305W        W87730  36.946  14.253   9.769
15306W        W87731   5.079  44.664   0.293
15307W        W87732  43.272  22.170  14.398
15308W        W87733  35.039  19.159   0.744
15309W        W87734  21.049  40.350   2.196
15310W        W87735  13.089  26.484   3.507
15311W        W87736  39.155   9.068  11.052
15312W        W87737  36.860  33.708   1.330
15313W        W87738  21.823  23.994   0.978
15314W        W87739  34.519   0.353  12.992
15315W        W87740  23.191  21.810   4.496
15316W        W87741  38.556  43.034   4.045
15317W        W87742  26.565   1.492   4.109
15318W        W87743   5.949   9.815   1.341
15319W        W87744  10.641  23.592   5.028
15320W        W87745  14.676  23.292   4.560
15321W        W87746  25.841  14.765   1.902
15322W        W87747  34.529  41.432   2.870
15323W        W87748  29.574  32.185  11.966
15324W        W87749  33.738  35.593  12.966
15325W        W87750  17.402   3.527  10.409
15326W        W87751  20.396  11.139   1.496
15327W        W87752   5.856  30.095   0.372
15328W        W87753   8.186  40.313  11.891
15329W        W87754  39.136   2.190  12.870
15330W        W87755  11.160  17.265  14.457
15331W        W87756  12.473  11.306  13.413
15332W        W87757  28.223  30.132   2.389
15333W        W87758   6.697  29.019  14.139
15334W        W87759  11.730  27.859   4.536
15335W        W87760  24.260  41.348  14.768
15336W        W87761  16.498  43.475  13.053
15337W        W87762  31.347  26.101   0.874
15338W        W87763  27.426  19.596   4.445
15339W        W87764  39.500  35.888   3.336
15340W        W87765  12.187  17.582  14.187
15341W        W87766  21.767  40.495   0.994
15342W        W87767   5.125  40.855   1.395
15343W        W87768  13.832   2.177  12.886
15344W        W87769  41.048  16.176  14.850
15345W        W87770  28.776  17.303  14.905
15346W        W87771   8.628  13.399  10.942
15347W        W87772  25.457  25.282  13.552
15348W        W87773  33.631  11.220  12.179
15349W        W87774  32.992  43.234   2.787
15350W        W87775   7.148  40.301   2.013
15351W        W87776  14.549  34.527  11.954
15352W        W87777  24.035  29.794  10.360
15353W        W87778  33.351  21.147  13.927
15354W        W87779  44.389   6.118   0.754
15355W        W87780   4.883  40.135   4.470
15356W        W87781   0.714  20.740   1.927
15357W        W87782  30.536  26.484   4.128
15358W        W87783   2.344  25.476   1.730
15359W        W87784  17.271  32.674   0.486
15360W        W87785  34.332  36.243   4.642
15361W        W87786  38.275  29.417  11.155
15362W        W87787  34.426  12.337  14.413
15363W        W87788  31.916  23.450  11.592
15364W        W87789  16.668   3.644  11.520
15365W        W87790   0.223  40.385  11.576
15366W        W87791  33.620   9.388  12.417
15367W        W87792  24.713  36.356  12.977
15368W        W87793  27.765  41.945  14.184
15369W        W87794  37.322  14.717   5.117
15370W        W87795  44.916  18.658  13.076
15371W        W87796   6.364  42.908   1.391
15372W        W87797   9.885  24.495   4.985
15373W        W87798  44.118  30.415   3.362
15374W        W87799  28.114  37.409   5.121
15375W        W87800  13.501  28.043   3.664
15376W        W87801  23.933  34.005   0.911
15377W        W87802  38.644  37.644  12.429
15378W        W87803  12.160  26.188   3.127
15379W        W87804  44.450  35.491   0.399
15380W        W87805  41.263   9.658  14.755
15381W        W87806   2.943  40.445   2.355
15382W        W87807  37.483   0.308  11.072
15383W        W87808  25.747  33.926  13.349
15384W        W87809  13.887  28.425  11.583
15385W        W87810  28.700   9.573  12.075
15386W        W87811  34.888   3.695   3.127
15387W        W87812  31.681   7.429  13.814
15388W        W87813  30.152   0.260  12.052
15389W        W87814  14.307  23.535   0.773
15390W        W87815  23.201  31.211   1.891
15391W        W87816   1.289   6.981   1.046
15392W        W87817  14.255  42.083   2.076
15393W        W87818   6.743  44.719   3.227
15394W        W87819  13.609   7.700   4.972
15395W        W87820  25.173  22.931  14.262
15396W        W87821  24.303  28.949   3.404
15397W        W87822  44.319  13.549   4.630
15398W        W87823  18.876  33.716  13.395
15399W        W87824  23.047   6.445   2.885
15400W        W87825  32.564  20.767  10.957
15401W        W87826  40.584  19.736  12.079
15402W        W87827  42.302  15.758   2.790
15403W        W87828  34.454  10.317  10.543
15404W        W87829  21.485  34.468   4.838
15405W        W87830   1.503  18.635   4.198
15406W        W87831   6.240  24.042  10.645
15407W        W87832  26.069  10.734  13.639
15408W        W87833   6.292  43.979  10.670
15409W        W87834   5.613   7.493  11.295
15410W        W87835  42.029  36.919   3.941
15411W        W87836  31.353  42.913   1.425
15412W        W87837   7.936  11.363   1.180
15413W        W87838  17.988  19.048   2.662
15414W        W87839  40.704  38.513  13.968
15415W        W87840  38.033  20.041   2.537
15416W        W87841   3.714  14.564  11.600
15417W        W87842  23.953  30.156  14.486
15418W        W87843   8.198  30.369   3.738
15419W        W87844  22.552   5.246  13.379
15420W        W87845  39.535  24.604   2.454
15421W        W87846  44.240   0.919   5.108
15422W        W87847   3.132   5.657  14.529
15423W        W87848   5.627  14.199  12.124
15424W        W87849  10.282  29.208   1.795
15425W        W87850  43.041  40.828   2.354
15426W        W87851  17.865   4.272   3.706
15427W        W87852  17.136   1.501  13.272
15428W        W87853  18.352  17.050   1.815
15429W        W87854   7.923  43.779  13.092
15430W        W87855   1.887  28.539  10.709
15431W        W87856   4.608  38.994  11.903
15432W        W87857  30.920   2.794  10.660
15433W        W87858  35.988   0.385  13.094
15434W        W87859  12.563  38.333  11.982
15435W        W87860  35.582  11.608  11.898
15436W        W87861   0.765   3.699  10.676
15437W        W87862  39.131  38.054   4.291
15438W        W87863  19.242  33.480  13.668
15439W        W87864   2.954  42.681   2.760
15440W        W87865  30.765  21.642   4.667
15441W        W87866  36.388  30.645  13.976
15442W        W87867   9.859  10.688   0.460
15443W        W87868  15.827  35.434   0.440
15444W        W87869  28.697  36.514   2.190
15445W        W87870  27.240  32.403   0.291
15446W        W87871  26.215  17.276   1.729
15447W        W87872   2.080  31.658   2.304
15448W        W87873  29.212  38.756  14.928
15449W        W87874  36.019  26.406   4.725
15450W        W87875   3.298   9.119   2.786
15451W        W87876  33.381  25.645  13.447
15452W        W87877  40.830   6.682   2.200
15453W        W87878  32.712   5.303  10.579
15454W        W87879  25.192  31.888   2.865
15455W        W87880  28.879  28.383  12.416
15456W        W87881  29.951  12.665   4.568
15457W        W87882   3.295   9.863  12.327
15458W        W87883  19.996  31.697  14.379
15459W        W87884  24.064  27.945   4.157
15460W        W87885  24.050  36.876   0.767
15461W        W87886  14.180  17.571  13.009
15462W        W87887  15.669  34.471   4.535
15463W        W87888  34.057  36.501   1.244
15464W        W87889  29.523   8.676  13.707
15465W        W87890  33.207  12.710  12.088
15466W        W87891  28.023  17.884  12.816
15467W        W87892  11.861  19.501   1.206
15468W        W87893  10.821   0.507  14.229
15469W        W87894  25.437  35.087   0.639
15470W        W87895  44.459  33.538   1.794
15471W        W87896  20.237  13.210  13.141
15472W        W87897  37.395  18.425  13.100
15473W        W87898  30.480  23.713   0.239
15474W        W87899  21.536  11.287   2.538
15475W        W87900  44.745  20.778   1.664
15476W        W87901  29.391   7.855  14.771
15477W        W87902  15.149  37.764   3.148
15478W        W87903  16.182  21.302   4.074
15479W        W87904  30.700  35.931  13.552
15480W        W87905   3.378  44.230  14.248
15481W        W87906  12.287  14.808   1.916
15482W        W87907  33.869  24.538   1.082
15483W        W87908  39.325   6.240   4.215
15484W        W87909  34.904  11.696  14.284
15485W        W87910  23.164  29.622   1.240
15486W        W87911   1.068  12.797  11.319
15487W        W87912  24.599  40.902   3.578
15488W        W87913  31.014   4.716   1.917
15489W        W87914  24.668   2.682  11.303
15490W        W87915  37.833  23.503   2.312
15491W        W87916  25.408  10.900   1.546
15492W        W87917  18.136  36.541   1.880
15493W        W87918  34.013   3.213  13.868
15494W        W87919  28.944   5.443  11.370
15495W        W87920  31.105  32.738   1.664
15496W        W87921  28.414  37.703   1.675
15497W        W87922  28.672  43.455   3.690
15498W        W87923  27.016  16.383   2.624
15499W        W87924  43.891  11.684  13.530
15500W        W87925  20.487   0.175  12.474
15501W        W87926   7.475  31.585  15.000
15502W        W87927  12.615   2.271   3.689
15503W        W87928   5.471  17.708  13.070
15504W        W87929   0.750  37.314  13.519
15505W        W87930  26.004  42.395  13.958
15506W        W87931  11.434  20.141   1.449
15507W        W87932  41.539  23.768   0.821
15508W        W87933  44.934  25.187   1.438
15509W        W87934  36.068  24.745  13.867
15510W        W87935  38.580  19.777  14.880
15511W        W87936  11.829  42.769  14.941
15512W        W87937  22.057  17.319  12.486
15513W        W87938  11.281   3.688   1.296
15514W        W87939  30.098  12.791   2.789
15515W        W87940  28.582   9.607   0.479
15516W        W87941   4.311  28.946  10.619
15517W        W87942   3.386  17.880   2.306
15518W        W87943  19.463   2.908  11.551
15519W        W87944  24.689  11.275   5.666
15520W        W87945  28.925  22.665   2.781
15521W        W87946  32.113   7.267   0.658
15522W        W87947   8.207  23.797  10.673
15523W        W87948  19.834  37.397   1.300
15524W        W87949  34.183  22.582   2.819
15525W        W87950  23.036  36.429  10.673
15526W        W87951   5.124   1.813   2.147
15527W        W87952  14.490  30.243   0.908
15528W        W87953  31.216   0.459   5.123
15529W        W87954  14.011  26.803  14.451
15530W        W87955  42.428  29.957  10.604
15531W        W87956  36.291  11.070   2.618
15532W        W87957   1.299   3.786   0.308
15533W        W87958  28.885  25.539   1.880
15534W        W87959   8.296  29.416   3.779
15535W        W87960  17.038  19.269   0.482
15536W        W87961   1.547  42.876  10.876
15537W        W87962  32.679  10.525  11.524
15538W        W87963  27.517  34.729  11.683
15539W        W87964  19.265   5.023  11.902
15540W        W87965  41.735  43.984  10.586
15541W        W87966  31.595  41.486   1.145
15542W        W87967  28.896  43.483  13.373
15543W        W87968  27.582  28.469   4.318
15544W        W87969   9.319  23.520   4.580
15545W        W87970  21.146  43.278   1.701
15546W        W87971   1.396  17.252  11.584
15547W        W87972  40.684  39.831   0.302
15548W        W87973  28.939  36.292   3.262
15549W        W87974  27.167  39.340  10.483
15550W        W87975   0.066  44.975   2.365
15551W        W87976  39.397  15.777  13.318
15552W        W87977  13.104  15.752   2.293
15553W        W87978  42.952   3.465  10.811
15554W        W87979   1.439  42.979   4.026
15555W        W87980  20.616  18.555   3.376
15556W        W87981   6.329  41.299   3.212
15557W        W87982  18.581   5.092  14.723
15558W        W87983   2.760  28.194   2.765
15559W        W87984  32.309  44.658  12.641
15560W        W87985  35.039  20.785  13.998
15561W        W87986  33.051  19.147  13.572
15562W        W87987   1.998   6.413  12.390
15563W        W87988  25.269   5.151   0.929
15564W        W87989  14.227  10.727   4.068
15565W        W87990  10.117   3.872  12.552
15566W        W87991   6.808  10.413   1.954
15567W        W87992  35.165   1.242   1.378
15568W        W87993  31.151  35.191   1.739
15569W        W87994  34.065  10.187   4.076
15570W        W87995  28.128   9.735   0.794
15571W        W87996  31.008  15.751   4.587
15572W        W87997   4.663  27.053  11.311
15573W        W87998  14.037  42.485  10.693
15574W        W87999  35.565  25.936  13.830
15575W        W88000  19.402   5.464   1.880
15576W        W88001  32.028  27.621  12.986
15577W        W88002   7.903  27.488   2.881
15578W        W88003  27.375  24.248  12.936
15579W        W88004  36.035  32.848   2.798
15580W        W88005  11.409  13.321  10.732
15581W        W88006   1.859  33.947  11.325
15582W        W88007  21.317  16.723   1.406
15583W        W88008  35.909   8.963   1.693
15584W        W88009  27.468  24.149   0.907
15585W        W88010  35.180  32.307  12.459
15586W        W88011  17.514  21.750   3.676
15587W        W88012  11.652  24.668   4.839
15588W        W88013  10.280   5.211  13.401
15589W        W88014  36.858  20.941   0.497
15590W        W88015  35.470  36.865   2.670
15591W        W88016  17.542  38.538   3.770
15592W        W88017  23.343  29.663  14.991
15593W        W88018   6.866  10.255  11.956
15594W        W88019  33.825  31.586  14.770
15595W        W88020  44.812   0.014   1.415
15596W        W88021  37.083  43.353   0.400
15597W        W88022  26.371  15.827   3.541
15598W        W88023  11.596   1.339  10.063
15599W        W88024   7.810  44.411   3.132
15600W        W88025  26.231  15.370  10.991
15601W        W88026  11.763   9.436  12.205
15602W        W88027   8.325   1.880   2.891
15603W        W88028  22.905  20.593  12.584
15604W        W88029  13.387  13.248  13.571
15605W        W88030  42.356  40.944  11.850
15606W        W88031  36.757  29.529   0.620
15607W        W88032   6.005  27.967  12.048
15608W        W88033   0.268  25.677  10.670
15609W        W88034   1.691  42.446   0.826
15610W        W88035   9.464  33.946   4.177
15611W        W88036  12.710  25.960   4.690
15612W        W88037  25.656   0.439  10.674
15613W        W88038  12.033  16.513  11.187
15614W        W88039  40.024   2.660  12.067
15615W        W88040  43.398  15.813   4.577
15616W        W88041   6.265  38.803  13.880
15617W        W88042  38.268   8.191   5.038
15618W        W88043  19.702  10.088  13.091
15619W        W88044  44.765  16.636   0.573
15620W        W88045  14.728  20.713   2.169
15621W        W88046  35.853  12.450  12.834
15622W        W88047  18.017   3.387   1.769
15623W        W88048  20.811  38.120  12.946
15624W        W88049  44.575  38.514  12.524
15625W        W88050  37.193  36.045   3.152
15626W        W88051  34.285  44.588   2.315
15627W        W88052  17.046  17.319   2.353
15628W        W88053   2.031   5.168  12.003
15629W        W88054  26.548   1.288   1.281
15630W        W88055  44.775  22.134   3.650
15631W        W88056  11.349   9.675   2.846
15632W        W88057   1.751  44.376  11.258
15633W        W88058  44.442  35.550  12.192
15634W        W88059  20.077  31.848  11.159
15635W        W88060   3.453  22.302  12.891
15636W        W88061  15.782   3.822   4.509
15637W        W88062  34.087   8.287   3.324
15638W        W88063  40.616  25.982  12.111
15639W        W88064  33.433  22.202   3.744
15640W        W88065  40.785  26.141   2.267
15641W        W88066   6.521  34.906  13.297
15642W        W88067  36.903  14.501  10.677
15643W        W88068  20.163  41.043  14.453
15644W        W88069  19.607  38.514  12.611
15645W        W88070  32.851   1.449  12.224
15646W        W88071  11.122  39.747  11.485
15647W        W88072  10.223  22.531  14.028
15648W        W88073  21.744  18.453   1.299
15649W        W88074   4.468  39.997  13.054
15650W        W88075  12.782  37.327   1.780
15651W        W88076   8.374   0.941   0.999
15652W        W88077  38.913  17.289  11.407
15653W        W88078  36.015  18.371  11.156
15654W        W88079  42.994  42.429  12.422
15655W        W88080  27.577   7.847   3.313
15656W        W88081   3.376  22.462   3.189
15657W        W88082  20.847  32.140   4.601
15658W        W88083  36.902  29.756  13.888
15659W        W88084  15.685   4.466   2.473
15660W        W88085  28.553  11.281  13.064
15661W        W88086  41.428  18.073   4.406
15662W        W88087   4.659  10.041   1.398
15663W        W88088  32.069  35.957   0.953
15664W        W88089  33.024  32.365  13.386
15665W        W88090  20.331  21.259  11.568
15666W        W88091  20.611   1.423  10.740
15667W        W88092   8.632  34.511   3.801
15668W        W88093  13.121  42.701   0.321
15669W        W88094  16.263  34.572  13.876
15670W        W88095  12.670  39.005   4.607
15671W        W88096  11.132  42.557   0.674
15672W        W88097  10.960   3.251  12.422
15673W        W88098  11.237  36.744   3.176
15674W        W88099   4.860  25.613  13.103
15675W        W88100  17.597   8.332  10.710
15676W        W88101   1.725   5.481  13.226
15677W        W88102  29.078  43.860   1.370
15678W        W88103  31.589  40.848  11.177
15679W        W88104  13.086   8.588  12.933
15680W        W88105  37.819  42.867   3.523
15681W        W88106   2.273  44.952   4.555
15682W        W88107  39.084  26.601   4.122
15683W        W88108  35.350  35.317  11.445
15684W        W88109   3.319   4.228   2.810
15685W        W88110  20.627   3.461  12.990
15686W        W88111   2.958  43.352  11.493
15687W        W88112  42.693  20.742  10.598
15688W        W88113   4.294   6.137   4.161
15689W        W88114  18.735  17.123   4.213
15690W        W88115  30.119  24.536   2.384
15691W        W88116  39.085  22.307  12.037
15692W        W88117  22.022  10.211  11.951
15693W        W88118  13.736  40.981   1.414
15694W        W88119   2.290  21.134   2.845
15695W        W88120  31.710  18.114   1.230
15696W        W88121   3.528  39.816   1.670
15697W        W88122  41.280  24.138  14.789
15698W        W88123  33.923  34.068  14.971
15699W        W88124  31.619   6.260  12.954
15700W        W88125  17.817   6.185  11.730
15701W        W88126  25.681  18.540   2.544
15702W        W88127  39.868  33.194   3.890
15703W        W88128  21.710  43.017  11.106
15704W        W88129  28.081  10.301  14.480
15705W        W88130  23.681   9.433   1.744
15706W        W88131  36.979  12.231  13.899
15707W        W88132  34.358  37.375  14.133
15708W        W88133   2.843  28.766  14.545
15709W        W88134  15.211   2.020   4.768
15710W        W88135   9.387  38.938   3.949
15711W        W88136  41.258  25.955  11.523
15712W        W88137  18.141   4.761   1.125
15713W        W88138  14.362  13.178   3.556
15714W        W88139  41.775  35.803  11.208
15715W        W88140  36.824   6.310  11.138
15716W        W88141  36.131  16.763  11.043
15717W        W88142  35.780  31.553  12.809
15718W        W88143  42.244  25.643   3.271
15719W        W88144  22.197  39.462   2.603
15720W        W88145  38.039  40.040  14.844
15721W        W88146  29.764  30.820  10.797
15722W        W88147  15.380   5.254  12.817
15723W        W88148  26.347  28.998  10.691
15724W        W88149  24.104  44.147   4.089
15725W        W88150   6.607  26.166   4.618
15726W        W88151  34.937  14.203  12.403
15727W        W88152  28.147  43.549  13.000
15728W        W88153  29.440   8.411  10.747
15729W        W88154  13.770  22.703   3.658
15730W        W88155  24.368  31.981  13.044
15731W        W88156  14.275  32.591   0.828
15732W        W88157   3.207  21.021   4.637
15733W        W88158  29.989  42.916   1.362
15734W        W88159  15.151  21.056   1.141
15735W        W88160  22.799  16.985  12.889
15736W        W88161  39.633  31.798  12.517
15737W        W88162  26.006  17.862   0.755
15738W        W88163  38.494  41.793   4.753
15739W        W88164  14.181   8.955   4.578
15740W        W88165   3.789  29.087  10.660
15741W        W88166   8.312  43.553   3.109
15742W        W88167  30.385  24.588   2.819
15743W        W88168  14.249   0.366  11.678
15744W        W88169   5.419  26.438   2.712
15745W        W88170  42.344  30.437  14.760
15746W        W88171   0.549  41.272  10.577
15747W        W88172  42.873   8.883   2.650
15748W        W88173  34.068  16.623   0.847
15749W        W88174  37.083  17.676  13.437
15750W        W88175  18.520  29.331  14.840
15751W        W88176  18.157  26.870  13.626
15752W        W88177  20.181  17.202  14.772
15753W        W88178   7.602  14.813   2.115
15754W        W88179  18.048  43.334  10.658
15755W        W88180  13.141   8.358   1.387
15756W        W88181   7.966  25.598  11.999
15757W        W88182  35.449   0.956  13.696
15758W        W88183  31.139  18.035   3.851
15759W        W88184  17.488  21.200   0.263
15760W        W88185  22.887  17.120   0.075
15761W        W88186  44.227  18.993  11.523
15762W        W88187  34.003  42.309   0.177
15763W        W88188  18.206  18.702   0.569
15764W        W88189  12.725  44.304  10.095
15765W        W88190   4.467  44.899  10.695
15766W        W88191   1.196  39.953   2.598
15767W        W88192  35.605   9.862  12.657
15768W        W88193  14.145   2.868   4.598
15769W        W88194   3.178   2.833  11.210
15770W        W88195  34.043   5.908   2.220
15771W        W88196  12.302  25.472   1.626
15772W        W88197  20.797  24.781  13.424
15773W        W88198  20.789  31.169  14.833
15774W        W88199  17.805  33.363  12.475
15775W        W88200  33.970  16.366   1.300
15776W        W88201  11.483   2.923  12.918
15777W        W88202   9.677  36.626  14.376
15778W        W88203  14.241  21.701   1.896
15779W        W88204   9.917  12.378  14.014
15780W        W88205  11.280  21.433   2.327
15781W        W88206  38.623  16.628   0.856
15782W        W88207  16.752  39.083   2.779
15783W        W88208  30.477  22.096   1.409
15784W        W88209  35.917   3.864  12.203
15785W        W88210  34.787  43.925   0.032
15786W        W88211  32.834  11.786   0.935
15787W        W88212  15.721  31.161  14.356
15788W        W88213  29.404  23.526   0.962
15789W        W88214  32.575  20.367  14.768
15790W        W88215  11.984   1.516   2.386
15791W        W88216  18.750  27.059  10.777
15792W        W88217  39.443  16.182  14.862
15793W        W88218  17.264  42.776   3.883
15794W        W88219  41.040   5.248   2.300
15795W        W88220   0.761  31.227   2.494
15796W        W88221  18.474  43.425  11.589
15797W        W88222  22.392  28.637  10.794
15798W        W88223  34.955   5.993  12.385
15799W        W88224  40.346  26.555   3.818
15800W        W88225  34.057  25.045  10.740
15801W        W88226   8.329  10.357   0.894
15802W        W88227  13.415   1.500  10.617
15803W        W88228  23.163   3.214  11.535
15804W        W88229  15.325  29.435   4.328
15805W        W88230  36.843   4.337   2.655
15806W        W88231   5.939  15.487   1.421
15807W        W88232  30.782  14.169  12.702
15808W        W88233  27.719  23.447  10.378
15809W        W88234  44.735   6.170   3.375
15810W        W88235  31.644  39.900   9.600
15811W        W88236  17.820  10.280  13.322
15812W        W88237  26.811  29.054  14.031
15813W        W88238  27.032  26.340   1.834
15814W        W88239  43.062   6.633  12.035
15815W        W88240  41.831  27.923   1.388
15816W        W88241  43.689   0.998   2.523
15817W        W88242   1.353  15.041  11.506
15818W        W88243  37.377   9.586   0.461
15819W        W88244  44.887  14.172   2.429
15820W        W88245  12.849  42.485   3.384
15821W        W88246  18.873  25.016  13.231
15822W        W88247   7.460  18.749  10.580
15823W        W88248  25.258  21.927  12.547
15824W        W88249  11.442  13.355   3.242
15825W        W88250  28.589   1.652  13.607
15826W        W88251   2.221  32.265  12.935
15827W        W88252  13.144   6.490  10.479
15828W        W88253   9.059   2.355   4.036
15829W        W88254  33.020  32.776   4.203
15830W        W88255  18.705  32.968   1.619
15831W        W88256  40.847  38.305  11.024
15832W        W88257  42.264   2.459  10.692
15833W        W88258  19.089  31.266   0.388
15834W        W88259  34.337  35.615   2.377
15835W        W88260  35.168  33.531  13.139
15836W        W88261   4.198   4.580   0.355
15837W        W88262  34.623  35.578   3.670
15838W        W88263  43.280   7.750   3.120
15839W        W88264  34.164  11.157  12.228
15840W        W88265  40.531  43.787   3.622
15841W        W88266  38.828  33.614  13.148
15842W        W88267  31.651   0.317   0.379
15843W        W88268  44.436  35.766   4.760
15844W        W88269   4.205  23.517  14.687
15845W        W88270   0.411  29.912  12.550
15846W        W88271  30.161  41.034   0.835
15847W        W88272   9.165  28.440   2.342
15848W        W88273   2.767  31.421   0.210
15849W        W88274  13.871  36.342  12.349
15850W        W88275   1.784  39.871   0.780
15851W        W88276  19.167  14.272   2.853
15852W        W88277  27.458  32.602   1.236
15853W        W88278  31.653  22.736  12.951
15854W        W88279  15.403  29.900   3.070
15855W        W88280  35.456  16.871   0.352
15856W        W88281  41.000   7.219   4.537
15857W        W88282  15.780  30.278   3.831
15858W        W88283  37.103  28.671   1.813
15859W        W88284  25.495  11.597   3.805
15860W        W88285  36.799  21.017   3.360
15861W        W88286  36.975  15.810   0.011
15862W        W88287  20.524  36.825  12.461
15863W        W88288  36.373  10.666  12.113
15864W        W88289  16.823   3.994   0.814
15865W        W88290  34.700   0.519   1.457
15866W        W88291  22.605   9.914  12.864
15867W        W88292  42.898  20.649   2.761
15868W        W88293  20.547  28.239   4.137
15869W        W88294  25.441  25.171  10.341
15870W        W88295  43.917  38.772  10.965
15871W        W88296  37.474  13.484  14.517
15872W        W88297  25.075  18.349   0.662
15873W        W88298  20.972   4.240  14.038
15874W        W88299  22.750  27.037  11.080
15875W        W88300   8.888  41.727  12.553
15876W        W88301  21.964  41.707   1.895
15877W        W88302  29.376   8.077   0.318
15878W        W88303   1.018  39.974  12.631
15879W        W88304   6.093  19.154   4.924
15880W        W88305  18.358  25.447   1.178
15881W        W88306   7.779  18.137   1.424
15882W        W88307  43.968  29.424  14.791
15883W        W88308  22.158   6.191   0.892
15884W        W88309  33.015  36.296   0.601
15885W        W88310   2.483  38.351  12.459
15886W        W88311  39.132   4.356   1.415
15887W        W88312   1.921  21.279   1.857
15888W        W88313  25.723  12.636   1.722
15889W        W88314  31.871  27.447  11.681
15890W        W88315  35.890  17.555  13.752
15891W        W88316  31.314  16.084   3.344
15892W        W88317  19.820  11.700  12.924
15893W        W88318  14.167  41.168   2.872
15894W        W88319  17.361  10.718  11.081
15895W        W88320  40.755   2.797   0.249
15896W        W88321  18.091   3.833  14.908
15897W        W88322   1.217  20.799   4.212
15898W        W88323  17.185  33.641   3.871
15899W        W88324  35.790  14.425  13.361
15900W        W88325  30.750  26.470   3.639
15901W        W88326  28.987  42.494   4.543
15902W        W88327  12.167  25.040   3.666
15903W        W88328  14.089  11.362   0.907
15904W        W88329  29.839  16.840   3.636
15905W        W88330   8.373  42.587  11.687
15906W        W88331  27.875   3.244   3.752
15907W        W88332  34.926   2.078  11.757
15908W        W88333  10.776  10.970   1.849
15909W        W88334  13.562  38.839   4.370
15910W        W88335  16.861  36.490   1.355
15911W        W88336   1.494  13.197   0.771
15912W        W88337  43.385  32.476   0.066
15913W        W88338  17.727  40.041  13.920
15914W        W88339  14.136  25.920   3.189
15915W        W88340   4.260  25.643   1.432
15916W        W88341  30.173   3.757  12.896
15917W        W88342  16.768  35.920   2.688
15918W        W88343  27.992  37.839   0.189
15919W        W88344   9.317  36.019   1.413
15920W        W88345  24.911  38.363  14.856
15921W        W88346  38.138  36.847   4.171
15922W        W88347  26.479  21.323  10.051
15923W        W88348  31.449  39.980  13.127
15924W        W88349   9.448  43.166   1.804
15925W        W88350   5.030  17.924  13.327
15926W        W88351  22.099  12.495   3.410
15927W        W88352  43.237  34.837   0.390
15928W        W88353  38.890  20.277  10.543
15929W        W88354  32.289  26.215   0.433
15930W        W88355  38.213   8.305   0.488
15931W        W88356  42.272  12.456   0.112
15932W        W88357  17.646  10.629  12.388
15933W        W88358  15.525  14.713  13.350
15934W        W88359  19.716  36.263   0.860
15935W        W88360  33.530  33.842  10.678
15936W        W88361   1.388  35.613   0.996
15937W        W88362  25.428  23.552   1.786
15938W        W88363  13.597  15.790   0.488
15939W        W88364   1.873   8.971   3.957
15940W        W88365  25.753   1.029  11.588
15941W        W88366  21.020  16.803   3.177
15942W        W88367  40.901  10.767  14.962
15943W        W88368  29.452  44.977   1.893
15944W        W88369   7.862  39.008  13.565
15945W        W88370  22.994  17.324  12.490
15946W        W88371  17.029  15.214   0.042
15947W        W88372  15.373  26.474  13.037
15948W        W88373   0.717   2.775   4.098
15949W        W88374  16.775   6.277   4.583
15950W        W88375   7.472   2.632  12.175
15951W        W88376  12.869  36.592   0.729
15952W        W88377  16.582  42.465  10.606
15953W        W88378   1.876  42.749   3.890
15954W        W88379  24.097  22.053  13.767
15955W        W88380  25.532  21.420   3.232
15956W        W88381  29.986   1.755  11.725
15957W        W88382  20.972   5.687   3.224
15958W        W88383  33.925  42.455   4.159
15959W        W88384  27.149   3.288   3.139
15960W        W88385  20.521  30.553  13.452
15961W        W88386  41.924   5.924  12.549
15962W        W88387  38.379   9.961  11.554
15963W        W88388  21.484  40.402  14.297
15964W        W88389   3.140   0.898   5.043
15965W        W88390  31.073  40.059   5.004
15966W        W88391  25.022  33.072   4.717
15967W        W88392  31.735   4.447   2.135
15968W        W88393  38.332   6.060   4.644
15969W        W88394  34.691  16.212   2.797
15970W        W88395  23.658  36.009  11.475
15971W        W88396  37.821  13.380  11.935
15972W        W88397  37.894  44.864  12.987
15973W        W88398  34.421   7.421   1.140
15974W        W88399  21.036  21.804   2.120
15975W        W88400   7.186   9.718  12.147
15976W        W88401   9.774  36.080  12.409
15977W        W88402   9.381  11.324  11.939
15978W        W88403  32.415   6.776  13.090
15979W        W88404   4.730   1.891  11.691
15980W        W88405  18.317   2.379  12.856
15981W        W88406  21.720   5.399  14.732
15982W        W88407  27.005  39.184  14.538
15983W        W88408  34.538  39.100   4.536
15984W        W88409  12.154  12.258   4.193
15985W        W88410  14.057  19.553   5.089
15986W        W88411  30.420  31.044   1.780
15987W        W88412   5.957  32.638   4.663
15988W        W88413   0.694   4.688   4.247
15989W        W88414  19.564   7.768  13.434
15990W        W88415  14.430  17.092  11.037
15991W        W88416   5.778  25.265   4.632
15992W        W88417   4.797  26.748   4.695
15993W        W88418   6.243  31.950  14.856
15994W        W88419  19.252  30.518   2.612
15995W        W88420   9.276  14.774  14.944
15996W        W88421  19.064  30.121  12.682
15997W        W88422  43.986  32.478  13.832
15998W        W88423  17.721  13.595   1.388
15999W        W88424  27.461  21.078  14.786
16000W        W88425  42.169  33.500  13.061
16001W        W88426  31.106  13.638   4.200
16002W        W88427   3.268   4.186   4.537
16003W        W88428  12.247  40.624   0.791
16004W        W88429  39.941   0.429   3.349
16005W        W88430  42.582  32.114   3.154
16006W        W88431  25.757  11.800  13.506
16007W        W88432   5.744  11.183   2.348
16008W        W88433  41.817  14.686   3.683
16009W        W88434  43.783  15.182   0.831
16010W        W88435  39.871  40.588  11.446
16011W        W88436  21.602  29.193  13.330
16012W        W88437  26.105  21.584  11.190
16013W        W88438   9.679   7.155   3.707
16014W        W88439  14.969   6.018  14.738
16015W        W88440   1.199  40.366  13.022
16016W        W88441  32.655   2.666  13.231
16017W        W88442  19.417  15.646   0.871
16018W        W88443   3.787  35.719  12.985
16019W        W88444   0.724  31.234   0.069
16020W        W88445  22.738  36.939   1.277
16021W        W88446  32.500   6.905   3.782
16022W        W88447  30.345  32.465  13.544
16023W        W88448  33.184  40.582   2.132
16024W        W88449  18.281  43.886   0.001
16025W        W88450   6.397  14.670  14.724
16026W        W88451  38.989  23.214  10.478
16027W        W88452  13.322  13.303   3.553
16028W        W88453  36.514  12.740   0.898
16029W        W88454   1.783  37.727  14.675
16030W        W88455   9.437  18.374   0.894
16031W        W88456  42.117   9.897  11.913
16032W        W88457  28.371   0.022   1.332
16033W        W88458  39.544  23.760   1.868
16034W        W88459  44.384  37.586  10.725
16035W        W88460  11.114  19.154   0.198
16036W        W88461  15.546  39.853   3.922
16037W        W88462   7.691  25.847   0.246
16038W        W88463  12.115  15.893   1.828
16039W        W88464   2.426  32.047   5.076
16040W        W88465  15.862   4.584  12.005
16041W        W88466  29.540  26.666  10.690
16042W        W88467  29.932   5.123   1.850
16043W        W88468  11.622  27.345  10.873
16044W        W88469   9.355   1.410   3.939
16045W        W88470  42.254  44.481  11.741
16046W        W88471  20.313  14.041  14.423
16047W        W88472  16.208  10.254  11.022
16048W        W88473  21.563  17.208  12.529
16049W        W88474  24.052  37.021   2.553
16050W        W88475  20.891   2.207   2.864
16051W        W88476  41.728  38.981  13.967
16052W        W88477  27.648  20.693  12.924
16053W        W88478  27.288  40.410  13.402
16054W        W88479  36.800  10.656   1.491
16055W        W88480   2.907  22.679   3.266
16056W        W88481  20.283   5.377  13.524
16057W        W88482  33.644   6.314  14.424
16058W        W88483   7.196  28.048   4.058
16059W        W88484  42.111  44.092  11.441
16060W        W88485   9.107  44.986  10.759
16061W        W88486   5.848  14.161   2.634
16062W        W88487   3.864  29.366   4.408
16063W        W88488  27.284  40.281   9.634
16064W        W88489  22.457  24.549   4.298
16065W        W88490   8.893  10.934  11.135
16066W        W88491  41.762  11.909   3.370
16067W        W88492  41.516  42.402  14.472
16068W        W88493   0.055  23.964   0.843
16069W        W88494   6.597  40.810  11.929
16070W        W88495  44.768   9.761  11.484
16071W        W88496  14.007  23.718   5.536
16072W        W88497  44.973  10.888   4.620
16073W        W88498  29.417  28.881   1.839
16074W        W88499  20.769  39.624   0.291
16075W        W88500  15.047  34.876  13.527
16076W        W88501  17.623  15.597   2.680
16077W        W88502  37.876   1.774  10.580
16078W        W88503   7.981  42.515  13.564
16079W        W88504   9.489   5.215  12.449
16080W        W88505   0.843  29.497   2.239
16081W        W88506  14.752   9.236   1.976
16082W        W88507  30.713  40.312   0.272
16083W        W88508  33.722  39.707  11.292
16084W        W88509  26.014   0.264  13.872
16085W        W88510  21.635  22.597   2.829
16086W        W88511  17.980   6.974  13.910
16087W        W88512  14.103  10.417  14.829
16088W        W88513  44.144  44.345   3.524
16089W        W88514  42.359  25.094   0.016
16090W        W88515   6.925  27.740   2.187
16091W        W88516  24.871  36.927   0.297
16092W        W88517   9.155  20.719  12.421
16093W        W88518  40.887  21.961  13.363
16094W        W88519  33.390  30.485   4.585
16095W        W88520  41.620  39.412  12.015
16096W        W88521  31.725  23.594   1.372
16097W        W88522  10.396  26.638   3.693
16098W        W88523   5.856   9.663   4.234
16099W        W88524  35.066  38.832   2.759
16100W        W88525  12.102  11.226   1.851
16101W        W88526  23.749   3.867   0.426
16102W        W88527  25.297  40.671   5.067
16103W        W88528   8.710   5.032  11.392
16104W        W88529   2.855  26.508  14.840
16105W        W88530  31.511  25.075   3.693
16106W        W88531  40.616  43.301   0.803
16107W        W88532  39.789   5.489  14.617
16108W        W88533  22.624   3.329   2.328
16109W        W88534   1.062  19.634   1.982
16110W        W88535  26.692  13.533  12.967
16111W        W88536  14.531  35.031  14.952
16112W        W88537   7.289  14.728   1.690
16113W        W88538  10.271  35.645  10.662
16114W        W88539  18.987  39.129   4.055
16115W        W88540  10.304  28.645   0.826
16116W        W88541   3.452  36.372   0.414
16117W        W88542  11.048   0.449   0.543
16118W        W88543  37.020  37.577  12.343
16119W        W88544   6.678  40.905  13.102
16120W        W88545  35.399  23.037   2.154
16121W        W88546   9.406   2.312  12.082
16122W        W88547   5.247  34.616  14.615
16123W        W88548   9.868  24.654  11.419
16124W        W88549  13.630  10.627   2.268
16125W        W88550  33.015   2.918   0.052
16126W        W88551  44.555   7.281  14.567
16127W        W88552   9.817  26.974  11.936
16128W        W88553   2.438  25.096  12.643
16129W        W88554   2.747  14.002  13.955
16130W        W88555  14.018  23.339  11.909
16131W        W88556  36.864  31.968  11.454
16132W        W88557  43.417  21.838   1.836
16133W        W88558  32.184   5.278  12.432
16134W        W88559  32.010  35.076   2.081
16135W        W88560  25.444  23.232  12.464
16136W        W88561  36.905   4.778   2.954
16137W        W88562  43.145   3.752   0.026
16138W        W88563  26.104  25.923   1.801
16139W        W88564  18.228  27.315   2.028
16140W        W88565  32.956  19.117   3.333
16141W        W88566  25.744  27.844   0.490
16142W        W88567  10.191  40.611  12.454
16143W        W88568  17.996  12.682  10.670
16144W        W88569  41.163  13.800  11.630
16145W        W88570  16.801  42.327   2.712
16146W        W88571  24.308  37.529  10.245
16147W        W88572  28.707   0.857   1.373
16148W        W88573  12.288  35.402  13.993
16149W        W88574  17.564  41.939  14.246
16150W        W88575  28.248  27.722  13.375
16151W        W88576  24.261  27.509   3.312
16152W        W88577  44.888  19.791   2.299
16153W        W88578  35.487  43.959   3.276
16154W        W88579  29.700   7.719   2.254
16155W        W88580  27.034  31.187  11.548
16156W        W88581   3.758  10.331  13.127
16157W        W88582  37.870   7.945   3.680
16158W        W88583   4.047   7.257   2.196
16159W        W88584  25.813  19.887  12.604
16160W        W88585   7.265   2.898  11.195
16161W        W88586  13.240   4.144   0.324
16162W        W88587  23.504   4.881  14.432
16163W        W88588  26.150  11.234  14.915
16164W        W88589  40.946  34.320  13.044
16165W        W88590  29.500  41.913  10.218
16166W        W88591  42.853  23.313  13.751
16167W        W88592  30.192  37.111   4.254
16168W        W88593  31.942   9.443  14.748
16169W        W88594  32.895  31.546   1.067
16170W        W88595   4.910  18.693   2.306
16171W        W88596  37.021  32.374  14.930
16172W        W88597  11.770  33.739  13.209
16173W        W88598  40.339  22.104   3.215
16174W        W88599  15.914  16.349  11.154
16175W        W88600  23.268   9.100   3.315
16176W        W88601  37.362  11.846  11.702
16177W        W88602  16.615  35.239  12.163
16178W        W88603  14.073  20.820   4.522
16179W        W88604  23.038  15.387  13.891
16180W        W88605  27.540  19.759  10.661
16181W        W88606  33.589  39.300  11.005
16182W        W88607  41.303  30.359  11.214
16183W        W88608  21.426  13.529   3.339
16184W        W88609   5.006  15.908  13.561
16185W        W88610  14.805  40.937  14.187
16186W        W88611   8.945  23.755   5.221
16187W        W88612  25.969  10.652  14.170
16188W        W88613  43.236   3.489   1.143
16189W        W88614   2.790  40.837   4.173
16190W        W88615  18.814  20.063   1.990
16191W        W88616  26.156  11.488  12.655
16192W        W88617  41.811  12.848  13.887
16193W        W88618  14.109  40.929  11.647
16194W        W88619  28.624   4.433  12.083
16195W        W88620  11.783   0.824  14.046
16196W        W88621   8.083  31.895  11.094
16197W        W88622  44.224  14.336   0.182
16198W        W88623  27.570  19.527   3.585
16199W        W88624  15.466   0.769  12.058
16200W        W88625  20.631  27.467   2.684
16201W        W88626  36.869  25.749  13.866
16202W        W88627  20.343   0.101   3.862
16203W        W88628   2.657  20.965  11.526
16204W        W88629  12.600  11.404   1.844
16205W        W88630  16.618  43.445   0.330
16206W        W88631  42.108  41.504   0.864
16207W        W88632  21.114  17.201   1.408
16208W        W88633  15.589   7.709  14.549
16209W        W88634  26.124  14.001  14.498
16210W        W88635   2.007  43.841   0.338
16211W        W88636  31.419  15.624  14.569
16212W        W88637   6.915   1.461   2.731
16213W        W88638  15.713   2.742  12.465
16214W        W88639  24.027  37.280  14.487
16215W        W88640   4.917  13.970  13.808
16216W        W88641   5.829  39.408  12.140
16217W        W88642  12.961  31.963   3.646
16218W        W88643  10.044   2.911  12.055
16219W        W88644  39.306   8.017   4.505
16220W        W88645   1.935  38.557   4.505
16221W        W88646  30.174  43.268   2.212
16222W        W88647  36.403  20.164  10.780
16223W        W88648  31.219   3.357   3.585
16224W        W88649  42.555  37.154   0.854
16225W        W88650   3.929  28.993   3.204
16226W        W88651  32.893  38.000  14.860
16227W        W88652  15.726  18.312   1.771
16228W        W88653  23.553  14.089  12.890
16229W        W88654  44.697  41.852   3.606
16230W        W88655   1.473  23.946  12.122
16231W        W88656  10.083  19.164  14.456
16232W        W88657   8.450  13.215   3.204
16233W        W88658   5.791  33.746   2.694
16234W        W88659   8.461  38.583   1.624
16235W        W88660  21.491   9.054   2.341
16236W        W88661   2.048  21.223  10.433
16237W        W88662  32.867  11.244   1.159
16238W        W88663  37.142   2.511   0.695
16239W        W88664  20.269  44.402  11.186
16240W        W88665  33.145  14.813  11.686
16241W        W88666  21.996  11.312   3.931
16242W        W88667   1.992   6.756   2.364
16243W        W88668  33.544  34.828  14.411
16244W        W88669  23.827   2.119   1.729
16245W        W88670   9.386  36.109   2.302
16246W        W88671  39.623  22.770   4.199
16247W        W88672  13.584   0.840   0.734
16248W        W88673  44.459  20.125  13.598
16249W        W88674  23.862  42.181  14.772
16250W        W88675  19.006  43.249   0.330
16251W        W88676  22.040   5.990  12.386
16252W        W88677   5.752   1.914  13.289
16253W        W88678  28.212  19.799  12.744
16254W        W88679  37.533  33.452  12.090
16255W        W88680  43.286  41.075  13.043
16256W        W88681  40.495  11.348   0.102
16257W        W88682  36.942  35.440   0.963
16258W        W88683  26.604  44.847   1.327
16259W        W88684  24.166   9.578   3.321
16260W        W88685  29.367  39.868  11.523
16261W        W88686  10.421  30.424   0.041
16262W        W88687  23.337  27.724  11.209
16263W        W88688  28.495   6.252  12.839
16264W        W88689  22.456   4.760  13.497
16265W        W88690  30.924  42.889   0.420
16266W        W88691  28.506  26.871  14.040
16267W        W88692  25.142  24.416   4.221
16268W        W88693  26.565  30.575   4.968
16269W        W88694   6.422  44.263   4.206
16270W        W88695  11.259  23.076   1.316
16271W        W88696   2.219  39.744  12.733
16272W        W88697  36.773  37.299   4.081
16273W        W88698   5.365  40.827   1.950
16274W        W88699  16.551  42.893   3.338
16275W        W88700   2.159  36.048   3.643
16276W        W88701  27.091   0.676  11.531
16277W        W88702  43.507  28.097   0.590
16278W        W88703   2.929  21.179   5.085
16279W        W88704   5.750  15.814   1.877
16280W        W88705  24.776  33.164  13.418
16281W        W88706  39.877   1.328   1.965
16282W        W88707   0.070  29.199  13.457
16283W        W88708  42.496   1.672  13.456
16284W        W88709   3.445  31.062   4.577
16285W        W88710  30.184  22.508   1.286
16286W        W88711  26.302  13.439  13.342
16287W        W88712   2.526   9.290  14.496
16288W        W88713  42.408   8.714  12.551
16289W        W88714  17.806  43.798  14.814
16290W        W88715  17.527   4.472  14.272
16291W        W88716  15.775   8.742   3.291
16292W        W88717  26.745  12.131  12.148
16293W        W88718  36.549   2.739   4.389
16294W        W88719  11.232  14.069   1.395
16295W        W88720  28.998  20.047   3.717
16296W        W88721  32.703   6.567   1.216
16297W        W88722  26.174  39.050  12.611
16298W        W88723  23.034  23.133   2.547
16299W        W88724  35.992  29.948  14.372
16300W        W88725  17.100  11.908   4.140
16301W        W88726   5.321  17.652   4.382
16302W        W88727  11.140   3.896   1.772
16303W        W88728  34.223  23.550   1.264
16304W        W88729  22.541  20.243  12.006
16305W        W88730  11.895  23.993   4.314
16306W        W88731   6.802  37.422   3.863
16307W        W88732  29.168  11.909   2.284
16308W        W88733  13.220  16.494  11.043
16309W        W88734   9.869  44.981  12.489
16310W        W88735  40.367  12.376   4.958
16311W        W88736  20.743  25.106  12.067
16312W        W88737  22.182  16.454   4.175
16313W        W88738  32.992  35.942   4.499
16314W        W88739  21.960  39.846   0.853
16315W        W88740  12.654   9.197   2.361
16316W        W88741  37.567  10.052   0.322
16317W        W88742  15.689  24.162  13.896
16318W        W88743   2.290  20.766   0.575
16319W        W88744  18.719  22.223   2.851
16320W        W88745  20.103  27.153   4.854
16321W        W88746  36.567  43.995  11.416
16322W        W88747  32.519  39.383   1.816
16323W        W88748  37.985  25.613   4.215
16324W        W88749  43.974  44.033  11.251
16325W        W88750  36.262  10.763   4.737
16326W        W88751   4.436  39.605   2.116
16327W        W88752  22.077   8.234  13.984
16328W        W88753  20.172  29.610   2.755
16329W        W88754  12.575  44.974  11.147
16330W        W88755  44.118   2.487  11.956
16331W        W88756   6.456  14.216   3.934
16332W        W88757  17.793  26.400  14.500
16333W        W88758  16.185  43.791  12.575
16334W        W88759  22.694  30.377  11.382
16335W        W88760  24.120  11.414   1.749
16336W        W88761  39.367  24.440  14.406
16337W        W88762   0.746   5.006   0.299
16338W        W88763  33.906  39.359  13.038
16339W        W88764  14.716  24.786  14.837
16340W        W88765  33.431   2.836   2.922
16341W        W88766  18.200   0.215  13.387
16342W        W88767   3.264  43.232  11.903
16343W        W88768  31.455  28.355  14.883
16344W        W88769  21.219  35.598  13.903
16345W        W88770  33.060  14.411  10.610
16346W        W88771  14.636  28.461   4.174
16347W        W88772  31.578  37.085   4.270
16348W        W88773  15.840  26.703   3.269
16349W        W88774  11.723  21.610   0.323
16350W        W88775  38.392  30.317   4.163
16351W        W88776  37.565   6.936   2.369
16352W        W88777  12.107  43.894  12.061
16353W        W88778  17.278   6.412   4.645
16354W        W88779   6.674  39.305  10.693
16355W        W88780  27.031   0.306   0.143
16356W        W88781  24.072  43.572  10.915
16357W        W88782  40.435  33.589  13.183
16358W        W88783  10.760  44.121  10.200
16359W        W88784  16.401  28.513  10.908
16360W        W88785   9.481  15.788   3.754
16361W        W88786   9.424   2.877  13.057
16362W        W88787  11.747  32.604  10.667
16363W        W88788  25.492  13.618  13.993
16364W        W88789  13.677  16.292   2.331
16365W        W88790   1.993  19.204  14.131
16366W        W88791  41.802   6.961   0.402
16367W        W88792  31.483  24.684   0.927
16368W        W88793  37.051  13.720  11.234
16369W        W88794  29.656  37.377   2.824
16370W        W88795  34.156  19.470   3.745
16371W        W88796  38.670  34.982   1.451
16372W        W88797   8.784  14.983  14.927
16373W        W88798   5.871   4.308   2.791
16374W        W88799  42.625  28.106   0.864
16375W        W88800  16.590  16.136  14.808
16376W        W88801  12.575  22.509   1.802
16377W        W88802  27.101  15.062   4.122
16378W        W88803  16.267  41.712   3.727
16379W        W88804  18.423  40.443   2.867
16380W        W88805  11.233  36.356   2.357
16381W        W88806  40.396   8.692   0.747
16382W        W88807  22.578  14.715  12.454
16383W        W88808  22.118  42.701   0.358
16384W        W88809  40.927  10.803   0.472
16385W        W88810   1.018  30.694   0.368
16386W        W88811  34.816   9.221  11.134
16387W        W88812   2.946   2.031   4.176
16388W        W88813  42.427   4.651   2.315
16389W        W88814  40.201  42.243  10.775
16390W        W88815  27.751  24.556   0.764
16391W        W88816  14.397  23.635  12.202
16392W        W88817   6.018   1.462  13.955
16393W        W88818  39.599  27.334   2.885
16394W        W88819  21.508  39.862   4.677
16395W        W88820  41.191  22.515  14.982
16396W        W88821  13.191  26.946   3.733
16397W        W88822  42.301   3.829   0.444
16398W        W88823   1.270  42.823  14.944
16399W        W88824   8.021  40.092   1.335
16400W        W88825  10.881  26.370   4.618
16401W        W88826  43.145  44.546  12.779
16402W        W88827   6.190  17.196  13.088
16403W        W88828   3.880  13.541   4.665
16404W        W88829  17.443  33.470   0.785
16405W        W88830  43.106  42.436   1.151
16406W        W88831  17.213  28.924   2.523
16407W        W88832  15.704   3.174   0.651
16408W        W88833   7.201  38.464   1.946
16409W        W88834  11.845  18.464   1.343
16410W        W88835   5.754  28.928   0.429
16411W        W88836  43.102   2.876  14.969
16412W        W88837  39.726   3.005   2.226
16413W        W88838  43.039  21.222  13.401
16414W        W88839  29.860  33.457   0.001
16415W        W88840  18.358  26.720  10.619
16416W        W88841  28.732  29.871  14.807
16417W        W88842  26.000   6.584  14.760
16418W        W88843  41.070   5.767  13.553
16419W        W88844  41.878  10.557   4.574
16420W        W88845  26.642  18.110   3.382
16421W        W88846  32.489  28.949  13.563
16422W        W88847  10.446   3.854   0.992
16423W        W88848  42.144  26.229  11.038
16424W        W88849   0.700  26.477  14.410
16425W        W88850  13.589  35.529   3.379
16426W        W88851  17.339  24.537  13.073
16427W        W88852  33.031  42.947  14.936
16428W        W88853  11.064   4.868   1.325
16429W        W88854  26.916  43.909   3.715
16430W        W88855  17.747  41.449  13.453
16431W        W88856  13.206  40.215   1.232
16432W        W88857  44.913  38.482  11.650
16433W        W88858  34.367  37.096   2.893
16434W        W88859  13.636  34.120  13.452
16435W        W88860  43.211   1.034  14.366
16436W        W88861  33.462   3.822   0.891
16437W        W88862  30.978  36.416   3.862
16438W        W88863  10.174  39.970  14.897
16439W        W88864   0.895   3.936  14.394
16440W        W88865  26.548  23.721   0.275
16441W        W88866  12.217   6.401  11.471
16442W        W88867  24.604  10.982  14.418
16443W        W88868   4.089  38.927   4.512
16444W        W88869  26.022  19.517   2.329
16445W        W88870  39.300   7.729   3.232
16446W        W88871  26.407  44.384   1.450
16447W        W88872  24.692  24.936   3.841
16448W        W88873  18.584  32.098  12.025
16449W        W88874  33.498  28.146   2.749
16450W        W88875  14.290  32.339   1.647
16451W        W88876  30.575  41.897  12.156
16452W        W88877  43.891  31.859   4.157
16453W        W88878  19.616   4.186  13.802
16454W        W88879  27.902  22.750   4.640
16455W        W88880  23.953  19.011   4.589
16456W        W88881   9.674   4.923   3.192
16457W        W88882  17.846  25.607   1.154
16458W        W88883  29.466   9.175   2.729
16459W        W88884  23.677   4.393   0.362
16460W        W88885  14.228  31.878   2.914
16461W        W88886  28.854  28.961  14.781
16462W        W88887  19.582   5.442  14.701
16463W        W88888  30.333  17.798  13.332
16464W        W88889  28.113  40.950  14.886
16465W        W88890  10.277  31.802   0.323
16466W        W88891  41.246  38.071  13.418
16467W        W88892   5.646   9.853  12.006
16468W        W88893  16.290  13.885   0.407
16469W        W88894  41.705   8.077  11.033
16470W        W88895  21.837  12.051  14.917
16471W        W88896  40.284  44.089  10.649
16472W        W88897  11.692  17.651  14.516
16473W        W88898  23.258   5.487   0.686
16474W        W88899  38.597   6.503  14.787
16475W        W88900  44.893  14.424   1.438
16476W        W88901  36.417  33.854   4.698
16477W        W88902  41.765  40.396   4.198
16478W        W88903   8.159  24.711   0.905
16479W        W88904   4.612   6.888  14.044
16480W        W88905  36.380  28.746  14.374
16481W        W88906  12.660  13.784  12.971
16482W        W88907  24.580   5.894   2.798
16483W        W88908  35.523  33.154  12.410
16484W        W88909  36.369  29.173  11.921
16485W        W88910  17.747  40.536  12.148
16486W        W88911  18.095   3.952  13.074
16487W        W88912  43.043  30.715   4.120
16488W        W88913  24.895  44.821   4.146
16489W        W88914  32.543   0.058   5.191
16490W        W88915  42.843  31.724   0.265
16491W        W88916   1.874  29.395   4.558
16492W        W88917  36.659  10.770  11.155
16493W        W88918  20.496  36.823  13.359
16494W        W88919  38.773  28.495   2.305
16495W        W88920  32.308  27.231  13.889
16496W        W88921  17.999  21.185   0.316
16497W        W88922  41.250  33.448   4.577
16498W        W88923  44.427  23.201  11.853
16499W        W88924   9.296  42.785   3.230
16500W        W88925  40.931   4.826   0.954
16501W        W88926  17.737  43.271  14.864
16502W        W88927   5.685   6.499  12.027
16503W        W88928  13.229   8.125   3.250
16504W        W88929   8.882  40.966   1.646
16505W        W88930  26.002   1.916   9.799
16506W        W88931  32.870  40.369   1.736
16507W        W88932   5.170  15.212  12.683
16508W        W88933  15.688  17.905  11.765
16509W        W88934   0.413  23.936  14.976
16510W        W88935  36.851  26.082  14.310
16511W        W88936   5.336  28.877  11.317
16512W        W88937   3.288  36.618   2.210
16513W        W88938  37.745  33.943  12.089
16514W        W88939   1.231   8.779  13.385
16515W        W88940  40.070   6.179   4.240
16516W        W88941  36.352   2.147   1.801
16517W        W88942  10.134  13.373   0.684
16518W        W88943  33.110   6.663   2.062
16519W        W88944  28.933   6.277   0.240
16520W        W88945  21.706  31.154   0.792
16521W        W88946  33.927  38.815   4.672
16522W        W88947  37.886  30.730  12.926
16523W        W88948  25.073  29.583  13.841
16524W        W88949   7.801  35.334   0.432
16525W        W88950   0.210  16.710   1.425
16526W        W88951  40.797  17.123   1.112
16527W        W88952  26.865  34.945   2.417
16528W        W88953  32.645  38.972  13.955
16529W        W88954  19.100  20.692  10.801
16530W        W88955  29.909  11.392   4.070
16531W        W88956  15.188  14.570   3.957
16532W        W88957  37.351   4.243   3.568
16533W        W88958   4.525  36.109  14.507
16534W        W88959   7.684   9.092  12.546
16535W        W88960  16.683  41.510   4.062
16536W        W88961   9.415   5.303   1.131
16537W        W88962  24.022  16.240   4.439
16538W        W88963  13.319  28.649  14.308
16539W        W88964   9.760  12.415   1.368
16540W        W88965  25.951  31.073  12.055
16541W        W88966  19.756  28.729  10.839
16542W        W88967   2.576  43.700  11.499
16543W        W88968  34.302  36.021  14.512
16544W        W88969  33.467  42.736   0.329
16545W        W88970   2.947   3.403  10.504
16546W        W88971  15.187  43.558  11.104
16547W        W88972  15.628  24.628  11.028
16548W        W88973  37.829  25.659  11.924
16549W        W88974  33.661   6.323  12.881
16550W        W88975  26.281  19.081   2.510
16551W        W88976  21.479  18.523  12.070
16552W        W88977   6.575  16.770  11.526
16553W        W88978   2.440  36.693   2.455
16554W        W88979  15.993  27.637  11.960
16555W        W88980  21.976  13.824  12.895
16556W        W88981   1.291  38.497  13.978
16557W        W88982   9.735  38.115  13.012
16558W        W88983   7.264  36.848   2.417
16559W        W88984  39.946  34.479  11.602
16560W        W88985  29.634  21.482   3.640
16561W        W88986  43.164  42.105   3.190
16562W        W88987  40.274  16.603  13.029
16563W        W88988  33.999  28.335  10.590
16564W        W88989  15.697   0.998   2.795
16565W        W88990  19.310  42.246   1.459
16566W        W88991  43.291  13.116  13.329
16567W        W88992  20.318   1.183  12.807
16568W        W88993   1.239  39.373  13.609
16569W        W88994   1.712   2.178  12.621
16570W        W88995  31.520  10.317   4.622
16571W        W88996   9.953  23.700   3.808
16572W        W88997  32.599  10.286   0.030
16573W        W88998  28.114   6.871   0.561
16574W        W88999  37.253  14.472   1.673
16575W        W89000  20.609  24.061   3.357
16576W        W89001  10.446  30.929   2.198
16577W        W89002  28.165   9.144  13.560
16578W        W89003  24.333  29.317  14.005
16579W        W89004   5.928  35.383   2.819
16580W        W89005  27.475  38.772   2.726
16581W        W89006  40.204  36.016  10.408
16582W        W89007  39.490  20.672   0.887
16583W        W89008  39.024  16.656   3.086
16584W        W89009  26.213   0.250  14.354
16585W        W89010   6.147   1.164  10.949
16586W        W89011  44.941  16.499   1.028
16587W        W89012   8.359  38.562  14.494
16588W        W89013   3.270  33.658   0.480
16589W        W89014  14.581  11.148  14.818
16590W        W89015  38.929   8.135  12.367
16591W        W89016  27.503  18.219   2.794
16592W        W89017  32.662  43.915   3.254
16593W        W89018  22.231  14.313  12.457
16594W        W89019  40.674  16.410  11.654
16595W        W89020  27.584  28.017   1.821
16596W        W89021   3.970  14.331  10.658
16597W        W89022  16.168   1.536  11.501
16598W        W89023  11.693  29.874   1.786
16599W        W89024  40.354  40.207   1.315
16600W        W89025  12.613   9.346   1.059
16601W        W89026  43.487  12.900   0.865
16602W        W89027  16.767  44.699   4.799
16603W        W89028   9.644  24.650   3.420
16604W        W89029  17.065  23.502   2.953
16605W        W89030  14.167  40.855   1.914
16606W        W89031  41.231   2.199   5.039
16607W        W89032  43.726  18.735   4.562
16608W        W89033   0.555  31.773   4.139
16609W        W89034   7.154  27.642   1.046
16610W        W89035   0.387  17.274   3.167
16611W        W89036  21.551  34.758   0.878
16612W        W89037  24.463   3.894   2.231
16613W        W89038  39.966   0.521   1.415
16614W        W89039   7.710  23.543  12.774
16615W        W89040   9.896   9.100   2.838
16616W        W89041  17.331  28.983  12.702
16617W        W89042  27.390  31.092   3.707
16618W        W89043  37.957  26.091  11.095
16619W        W89044   9.119  40.256   4.220
16620W        W89045  10.864   4.465   1.047
16621W        W89046  40.966  36.758  11.244
16622W        W89047   4.663  19.645  14.206
16623W        W89048  37.894  19.350   4.172
16624W        W89049  34.947   8.285  11.952
16625W        W89050  35.922  19.037   3.741
16626W        W89051  34.383  14.815   2.959
16627W        W89052   0.637  36.924   2.657
16628W        W89053  37.337   1.364  14.906
16629W        W89054  25.545   9.150   4.719
16630W        W89055  36.792  22.830   3.815
16631W        W89056   8.195  23.994   4.650
16632W        W89057  11.012   3.278   2.923
16633W        W89058  13.171   4.038   5.461
16634W        W89059  35.624  36.065   3.664
16635W        W89060  25.573  39.362  14.866
16636W        W89061  17.561  39.496   1.769
16637W        W89062  26.657  19.157  11.960
16638W        W89063  25.679  38.711   0.296
16639W        W89064  15.045  33.011   4.516
16640W        W89065  23.153  13.115  13.915
16641W        W89066  20.130   9.121  14.220
16642W        W89067  41.332  11.791   3.781
16643W        W89068   1.191  21.763  14.756
16644W        W89069  29.982  37.077   3.134
16645W        W89070  12.097  33.566   1.881
16646W        W89071  30.681  13.281   3.751
16647W        W89072  39.012  20.437   0.900
16648W        W89073  27.764   5.578   4.109
16649W        W89074  39.877  12.715   1.248
16650W        W89075  21.526  27.356  13.919
16651W        W89076  33.347  27.140  10.718
16652W        W89077  33.190   6.549  12.863
16653W        W89078  25.636  16.651  14.913
16654W        W89079  42.869  23.326  12.437
16655W        W89080  26.999  41.781  13.408
16656W        W89081  21.085  27.649  13.843
16657W        W89082   3.681   7.723  11.183
16658W        W89083  32.561  17.346  12.841
16659W        W89084  11.040  16.821  13.555
16660W        W89085  39.593   6.757   3.029
16661W        W89086  16.259  31.136  11.387
16662W        W89087  10.179  12.044  11.967
16663W        W89088  16.470  34.048  11.283
16664W        W89089  16.741  12.768   3.807
16665W        W89090   2.954  42.776  14.098
16666W        W89091  21.667  19.522  14.460
16667W        W89092  42.344  25.062   1.038
16668W        W89093  23.162  41.901  14.394
16669W        W89094  30.776  39.297  13.755
16670W        W89095  41.215  23.663  12.831
16671W        W89096   9.364  30.635  11.006
16672W        W89097  38.572  33.890   0.517
16673W        W89098  36.359  44.469  13.843
16674W        W89099   5.522  35.862   2.020
16675W        W89100   7.055  30.950  11.544
16676W        W89101  24.771   1.631   0.569
16677W        W89102   7.711   0.968  12.361
16678W        W89103   0.921   9.988   2.768
16679W        W89104  19.563  11.358   1.210
16680W        W89105  39.602  38.142   4.503
16681W        W89106   0.330   4.793  13.296
16682W        W89107  16.834  30.858   1.817
16683W        W89108  35.439  17.253  13.467
16684W        W89109  18.066  12.250  10.932
16685W        W89110  44.751  22.599   3.368
16686W        W89111  24.569  15.042   3.093
16687W        W89112  33.104  24.218   3.172
16688W        W89113  13.821  32.551   2.476
16689W        W89114  42.040  44.821  12.109
16690W        W89115  36.466  19.468   2.764
16691W        W89116  18.761  13.096  10.937
16692W        W89117  15.667   7.410  12.798
16693W        W89118  14.339   1.313  10.587
16694W        W89119  42.896  26.190  13.279
16695W        W89120  30.871  12.245  11.208
16696W        W89121  32.052  23.772   1.748
16697W        W89122  28.751  42.056  13.406
16698W        W89123   6.311  26.535  11.936
16699W        W89124  37.364  18.394   4.680
16700W        W89125  19.445   9.270   4.203
16701W        W89126  30.974  21.877  11.044
16702W        W89127  30.735  18.778   1.726
16703W        W89128  34.386  15.786  13.016
16704W        W89129   6.298  12.765   9.668
16705W        W89130  37.912  10.285   4.074
16706W        W89131  33.925  31.890  13.561
16707W        W89132  17.100  25.154   1.969
16708W        W89133  30.372  43.407   0.893
16709W        W89134  18.973  41.311  10.307
16710W        W89135  18.971   9.246   1.754
16711W        W89136  12.652  41.279   2.409
16712W        W89137  43.456  28.574  14.344
16713W        W89138  33.434   8.725   2.272
16714W        W89139  34.602  40.271   1.867
16715W        W89140  37.525  16.315  13.022
16716W        W89141  20.207   7.876   1.248
16717W        W89142  31.654  41.047   1.880
16718W        W89143  35.109  40.342  11.954
16719W        W89144  10.197  32.587  14.269
16720W        W89145  16.633  29.897  14.856
16721W        W89146   3.752  40.534  14.723
16722W        W89147  23.565  14.563   4.902
16723W        W89148  29.331  13.588   3.731
16724W        W89149   5.681   1.987   3.262
16725W        W89150   8.322   3.402   2.846
16726W        W89151  32.197  37.852  13.847
16727W        W89152   1.929  42.777  13.377
16728W        W89153  41.406  16.151   2.721
16729W        W89154  39.095  43.305  11.919
16730W        W89155   2.982  35.413  12.798
16731W        W89156  41.931  20.700  14.050
16732W        W89157  15.777  17.318   1.862
16733W        W89158   8.959  35.791  11.963
16734W        W89159  27.898  23.579   1.994
16735W        W89160  15.911   2.932   3.775
16736W        W89161  26.628   7.588   3.804
16737W        W89162  12.618  30.456  14.957
16738W        W89163  43.399  13.356   1.823
16739W        W89164   7.737  15.124   1.029
16740W        W89165  21.773  28.765   3.802
16741W        W89166  31.413  27.981  13.960
16742W        W89167   6.720  32.369   3.123
16743W        W89168  25.981  11.114  13.979
16744W        W89169  16.992  28.538  12.294
16745W        W89170   9.704  42.722  12.940
16746W        W89171  41.866  25.139  12.417
16747W        W89172   4.450  28.704  12.459
16748W        W89173  38.439  30.011  14.926
16749W        W89174  13.262  44.056   3.605
16750W        W89175   0.182  36.554  13.906
16751W        W89176  37.765  43.339  11.159
16752W        W89177  25.466  43.611   3.662
16753W        W89178  19.171   6.233   1.393
16754W        W89179  25.436  16.845  14.468
16755W        W89180   6.869  39.417   2.125
16756W        W89181   5.824   5.663  12.751
16757W        W89182  33.336  18.088  11.891
16758W        W89183  40.829  16.782  10.732
16759W        W89184  27.738   7.140   0.828
16760W        W89185  14.761  37.657  10.685
16761W        W89186  25.069  10.631  12.304
16762W        W89187  39.673  24.754  11.364
16763W        W89188   7.881  17.633   1.283
16764W        W89189  11.717  23.197  10.923
16765W        W89190  22.757  21.494   2.430
16766W        W89191  19.201  42.750   1.426
16767W        W89192  42.140  27.923  11.265
16768W        W89193  18.865  34.102   4.208
16769W        W89194  37.571  10.910  14.546
16770W        W89195  44.320   9.119   2.872
16771W        W89196  16.346   1.207  10.682
16772W        W89197  16.508  19.223  11.143
16773W        W89198  38.952  17.578  13.062
16774W        W89199  24.510  42.296  11.037
16775W        W89200  35.141  35.139  13.612
16776W        W89201  39.423   3.923   1.447
16777W        W89202  30.525  31.490  11.609
16778W        W89203   9.532   1.324   2.305
16779W        W89204  21.007  34.429   2.293
16780W        W89205   2.961  35.949   4.174
16781W        W89206   6.595  39.134  13.569
16782W        W89207  27.797  14.710  14.909
16783W        W89208  13.647   8.314  12.364
16784W        W89209   0.323  32.648  11.627
16785W        W89210  33.538   8.819  10.697
16786W        W89211  20.781  41.938  11.381
16787W        W89212  42.456  44.393  10.525
16788W        W89213   6.677   7.489  13.227
16789W        W89214   0.345  13.240  12.636
16790W        W89215   4.896  43.951  13.778
16791W        W89216   8.640   6.264   5.058
16792W        W89217  37.734  18.286   2.730
16793W        W89218  39.602  39.821   2.193
16794W        W89219  13.090  32.005  13.147
16795W        W89220  30.630  34.816  14.893
16796W        W89221   2.698  28.586   4.677
16797W        W89222  26.724  41.524  13.025
16798W        W89223  18.372  14.843  11.993
16799W        W89224  23.508  29.407  14.458
16800W        W89225  38.987   6.221  14.912
16801W        W89226  40.812  14.780  14.407
16802W        W89227   4.664  41.012   3.254
16803W        W89228  38.589   3.565  10.833
16804W        W89229  41.395  38.101   2.967
16805W        W89230  16.717  38.974   0.278
16806W        W89231  36.368  43.728  10.509
16807W        W89232  12.839   7.964  14.364
16808W        W89233  15.401   9.815   3.837
16809W        W89234  18.168  35.981   4.688
16810W        W89235  20.658   9.318  10.569
16811W        W89236  10.305  37.512   0.717
16812W        W89237   0.279  20.423   4.382
16813W        W89238   4.502  43.450  11.367
16814W        W89239   9.919  35.481   2.695
16815W        W89240   0.768  16.596  11.259
16816W        W89241  18.092  24.613   4.120
16817W        W89242   9.344  43.458  11.894
16818W        W89243  37.154  20.753   1.737
16819W        W89244   4.889  20.193  12.918
16820W        W89245   0.149  22.295   4.751
16821W        W89246  12.286  42.557   4.199
16822W        W89247  13.270   5.401   0.506
16823W        W89248   6.914  42.144   3.924
16824W        W89249  16.774  16.273   4.473
16825W        W89250  41.084  15.675  11.962
16826W        W89251  21.870   8.131  13.258
16827W        W89252   2.275  19.725   1.465
16828W        W89253  12.800   3.445  11.012
16829W        W89254  29.987   7.740  11.343
16830W        W89255  15.080  18.602   3.699
16831W        W89256  28.424   8.038  14.948
16832W        W89257  12.577  42.781  12.183
16833W        W89258  17.229   4.055   1.738
16834W        W89259   7.752  40.146  12.454
16835W        W89260  16.645  28.490   1.962
16836W        W89261  22.680  23.635  10.248
16837W        W89262  12.776   3.653   2.295
16838W        W89263  13.842  43.732   0.836
16839W        W89264  30.932  29.376   3.310
16840W        W89265  35.566  29.212   3.009
16841W        W89266  23.119  13.966   1.302
16842W        W89267  20.177  24.681   0.280
16843W        W89268  13.204  23.377   5.192
16844W        W89269   0.235  23.032   1.139
16845W        W89270  13.324  19.820  10.335
16846W        W89271  18.059   7.694  11.410
16847W        W89272  41.906  20.223   2.823
16848W        W89273  44.149  20.419   5.155
16849W        W89274  21.684  18.520  12.914
16850W        W89275  32.973   4.481   0.823
16851W        W89276  44.890   4.528  11.219
16852W        W89277  36.919  32.555  12.320
16853W        W89278  25.163  10.473   1.799
16854W        W89279  26.439  44.943   2.240
16855W        W89280  31.055  27.966  11.221
16856W        W89281  38.966   3.662  12.064
16857W        W89282   5.528  32.939   2.982
16858W        W89283  21.840  41.903   3.706
16859W        W89284   4.829   6.896   2.212
16860W        W89285  13.399  28.948  13.888
16861W        W89286  14.388  20.323   2.215
16862W        W89287  11.162  20.699  11.181
16863W        W89288  35.912  13.919   3.214
16864W        W89289   0.241   3.849  14.298
16865W        W89290  44.348  31.157  10.153
16866W        W89291   8.876  25.145   2.683
16867W        W89292  10.691  12.763   1.250
16868W        W89293   4.891   3.042  11.277
16869W        W89294  15.877  15.121  12.210
16870W        W89295  19.515  43.324   3.629
16871W        W89296  38.823  39.357  12.484
16872W        W89297  16.037  37.245   0.343
16873W        W89298  41.951   9.310   2.760
16874W        W89299  36.121   6.856   1.468
16875W        W89300  12.023   8.171  14.732
16876W        W89301  10.305   6.074  12.534
16877W        W89302  23.588  21.113  11.989
16878W        W89303   5.434   3.591   3.031
16879W        W89304  11.267   8.210  14.943
16880W        W89305  24.568  13.594  11.972
16881W        W89306   1.480  15.615   0.871
16882W        W89307   3.263  35.425   1.417
16883W        W89308   3.407   8.683  12.896
16884W        W89309  42.604  43.354   0.131
16885W        W89310   6.651  11.248  13.098
16886W        W89311  32.027  44.484  12.049
16887W        W89312  42.545  11.264   0.295
16888W        W89313  16.585  34.133   3.699
16889W        W89314  42.962  25.082  11.549
16890W        W89315  40.347   1.664   0.691
16891W        W89316  16.323  37.318  14.317
16892W        W89317  13.170  30.155   1.701
16893W        W89318  31.375  28.014   2.651
16894W        W89319  17.447  24.618  11.169
16895W        W89320   6.304  24.667   0.985
16896W        W89321   9.638  25.175  14.424
16897W        W89322  17.182  27.911  11.652
16898W        W89323  33.897  11.104  12.668
16899W        W89324  12.669  30.975   0.710
16900W        W89325  38.525   3.804   4.840
16901W        W89326   4.442  18.758   1.901
16902W        W89327  14.092  23.254   3.144
16903W        W89328  27.145  20.708   2.199
16904W        W89329   9.215  43.865   0.722
16905W        W89330   4.265   5.224  11.077
16906W        W89331  14.191  19.218   3.398
16907W        W89332  26.731  14.741   0.681
16908W        W89333  10.297  41.839   4.139
16909W        W89334  17.040  37.411   4.695
16910W        W89335  14.283  31.555  12.908
16911W        W89336   2.369  23.234   3.710
16912W        W89337  34.485  19.369  14.548
16913W        W89338  44.634  44.239   4.929
16914W        W89339  44.833  40.298  11.899
16915W        W89340  36.116  36.440   1.719
16916W        W89341  42.770  32.747   2.233
16917W        W89342  38.893   7.663  14.991
16918W        W89343  11.615  28.915   4.153
16919W        W89344  25.165  36.651  12.956
16920W        W89345  25.479   5.758   1.352
16921W        W89346   7.110  27.982  10.516
16922W        W89347   9.645   1.095  12.543
16923W        W89348   6.674  35.471   2.315
16924W        W89349  38.574  31.557   2.596
16925W        W89350   9.119  32.805  13.029
16926W        W89351   3.263  24.948   9.942
16927W        W89352  33.591  37.178   4.588
16928W        W89353  36.794  36.362  11.639
16929W        W89354  26.750  44.847  11.813
16930W        W89355  26.948  21.143   0.804
16931W        W89356  37.383  43.243   4.126
16932W        W89357  33.155  32.664   3.686
16933W        W89358  22.782  30.496   0.937
16934W        W89359  37.733  42.473  11.163
16935W        W89360  30.516  44.711   2.230
16936W        W89361  19.337  32.600  11.966
16937W        W89362   8.780  26.125  14.303
16938W        W89363  26.150  33.045  12.919
16939W        W89364  10.099  31.609  12.044
16940W        W89365  22.193   6.005   3.876
16941W        W89366  33.615  10.416  12.379
16942W        W89367  25.123  32.685  12.339
16943W        W89368   6.949  41.953   0.480
16944W        W89369  34.445  40.280   0.456
16945W        W89370   3.579  16.128   2.789
16946W        W89371  43.219   5.023  11.480
16947W        W89372  43.347   9.370  12.004
16948W        W89373   3.760  29.999   3.282
16949W        W89374   1.765  11.191  14.835
16950W        W89375  31.107  39.479  14.211
16951W        W89376   3.251  31.755   3.328
16952W        W89377  13.324  17.716   0.513
16953W        W89378  27.070  28.657   3.167
16954W        W89379   4.998  40.760   2.947
16955W        W89380  19.307  41.625   1.747
16956W        W89381  10.445  31.083   3.583
16957W        W89382  23.580   5.408   3.677
16958W        W89383  38.496  24.958   2.823
16959W        W89384  33.611  26.948   3.325
16960W        W89385   6.166  15.038   1.208
16961W        W89386  42.560  38.398   2.082
16962W        W89387  42.417  13.366  13.409
16963W        W89388  21.200  23.360   0.356
16964W        W89389  21.844   9.449   2.337
16965W        W89390  19.229  23.304   4.237
16966W        W89391   4.200  20.488   0.195
16967W        W89392   6.697  21.555   0.991
16968W        W89393   1.302  17.639   4.033
16969W        W89394  13.977  22.097   2.787
16970W        W89395  18.698  31.664   2.423
16971W        W89396  34.921  41.458  14.397
16972W        W89397  20.785   7.359  10.767
16973W        W89398  23.982  30.740   1.780
16974W        W89399   2.777  16.416   1.754
16975W        W89400  11.202  21.503   0.402
16976W        W89401  36.507   7.912   3.552
16977W        W89402   1.054  12.806  13.554
16978W        W89403  31.224  26.649  13.428
16979W        W89404  15.709  40.430   0.282
16980W        W89405  33.231   5.239  10.675
16981W        W89406  33.625   0.054   3.670
16982W        W89407   5.465   4.793  13.181
16983W        W89408  29.929  33.893  11.203
16984W        W89409  43.633   6.500   0.114
16985W        W89410  42.261   4.695  12.861
16986W        W89411   7.759   5.385   2.618
16987W        W89412  21.922  21.525  13.829
16988W        W89413  40.241   0.371  11.204
16989W        W89414  15.107  37.369  14.481
16990W        W89415  18.087  17.179   3.112
16991W        W89416  15.778  18.581  10.635
16992W        W89417   4.733   6.372  14.827
16993W        W89418  22.519   4.776   2.316
16994W        W89419   7.370  29.386   1.723
16995W        W89420  16.087  15.047   1.747
16996W        W89421  25.883  31.618  13.499
16997W        W89422  39.935   4.511  14.325
16998W        W89423  17.253  20.204  12.456
16999W        W89424  42.982  43.643  12.578
17000W        W89425  28.625  43.081  13.561
17001W        W89426  30.416  17.718  13.921
17002W        W89427  10.035  15.496   4.569
17003W        W89428  10.728  37.824   4.396
17004W        W89429  30.156  28.138   3.173
17005W        W89430  12.707  21.193  12.463
17006W        W89431  13.904   6.159   3.782
17007W        W89432  11.677  39.429   4.347
17008W        W89433   4.699  42.765   3.347
17009W        W89434  36.501  34.007   3.243
17010W        W89435  32.265  13.314  13.150
17011W        W89436   5.273  19.130   1.753
17012W        W89437  34.896   5.704  11.130
17013W        W89438  43.564  33.910   3.600
17014W        W89439   6.283   7.580   4.541
17015W        W89440  44.891  15.263   1.520
17016W        W89441  14.509  28.949   0.147
17017W        W89442  20.778  43.260  11.128
17018W        W89443   0.244  38.393   3.284
17019W        W89444  41.506  15.873  13.131
17020W        W89445  25.926  36.897  12.999
17021W        W89446   4.231  28.027  11.981
17022W        W89447  19.142   0.478   0.972
17023W        W89448  31.789  21.065  10.714
17024W        W89449   8.166  38.451   1.200
17025W        W89450  18.579  16.360  12.873
17026W        W89451  43.386  36.504   1.709
17027W        W89452  34.966  23.490  11.385
17028W        W89453  30.416   1.296  13.428
17029W        W89454  20.499  36.538   3.655
17030W        W89455  18.781  18.044  12.480
17031W        W89456  37.315  27.078  12.877
17032W        W89457  19.817   7.254   3.254
17033W        W89458  20.450  44.700   0.735
17034W        W89459  41.513  41.366  11.021
17035W        W89460   5.512  32.454  14.331
17036W        W89461  26.464   8.651  14.520
17037W        W89462  18.512  36.985  12.426
17038W        W89463  14.496  35.897   2.282
17039W        W89464  34.504  35.529  10.859
17040W        W89465   4.080  17.750   1.858
17041W        W89466  24.740   6.764   4.169
17042W        W89467  11.219  40.034   4.584
17043W        W89468  35.863  12.908  12.426
17044W        W89469  38.772  30.408   0.234
17045W        W89470  20.785  17.920  14.617
17046W        W89471  41.721   4.881  10.830
17047W        W89472   3.452   6.350   3.094
17048W        W89473  25.188   7.212  13.407
17049W        W89474  38.812  34.325   0.270
17050W        W89475  44.890  13.546  10.644
17051W        W89476  27.481  10.334  12.495
17052W        W89477  27.106  18.568   1.948
17053W        W89478  26.721  27.040  12.683
17054W        W89479  38.967   4.400  11.685
17055W        W89480  22.671  13.591  11.438
17056W        W89481  33.450  39.913  12.077
17057W        W89482  40.460  31.984   4.090
17058W        W89483  43.807  13.334  14.027
17059W        W89484  37.143  35.007   3.125
17060W        W89485  34.180  40.572   0.119
17061W        W89486  31.632  18.163   3.833
17062W        W89487  43.316   3.823  12.139
17063W        W89488  17.808  31.938  10.272
17064W        W89489   3.954  12.078  11.102
17065W        W89490   7.027  41.813  12.844
17066W        W89491  24.492  14.573  13.511
17067W        W89492   3.297  43.862   4.371
17068W        W89493   8.727  37.853  10.695
17069W        W89494  14.331  29.659   3.421
17070W        W89495   2.126  42.437  12.442
17071W        W89496  30.444  32.487  14.061
17072W        W89497   0.448  17.710  11.551
17073W        W89498  29.706  13.347   2.119
17074W        W89499  22.541   4.445   1.554
17075W        W89500  31.389  27.462  11.033
17076W        W89501  22.736  35.034  10.702
17077W        W89502  11.343  11.997   5.011
17078W        W89503  41.895  38.447  12.402
17079W        W89504  22.005  36.957  12.177
17080W        W89505  11.642  20.636   2.229
17081W        W89506  23.977  40.793  11.431
17082W        W89507  30.147  35.439   1.902
17083W        W89508  44.126   3.719   0.931
17084W        W89509   6.833  30.157   0.043
17085W        W89510  37.809  33.364   3.174
17086W        W89511  21.234  38.377  13.042
17087W        W89512  21.186  28.789  14.683
17088W        W89513  13.368  15.276   0.292
17089W        W89514  16.226  28.618   3.286
17090W        W89515   1.909  39.093   0.366
17091W        W89516  31.942  42.980   2.745
17092W        W89517   4.751  15.077  12.375
17093W        W89518  19.748  10.259  12.591
17094W        W89519  16.843  41.985  12.571
17095W        W89520  35.591  33.374   0.149
17096W        W89521   7.854  28.211  14.271
17097W        W89522   8.125  29.727   0.900
17098W        W89523  25.192  42.537   4.434
17099W        W89524  23.218  19.540   0.733
17100W        W89525  10.736  22.314   5.405
17101W        W89526  12.121  36.857   0.747
17102W        W89527  23.054  28.697   2.914
17103W        W89528  19.452  34.233  11.130
17104W        W89529  38.812  42.002  13.908
17105W        W89530   3.226  43.292   0.242
17106W        W89531  10.373   9.781  10.309
17107W        W89532   7.403   0.375  11.237
17108W        W89533  28.578   2.842   4.246
17109W        W89534  13.174  40.765  14.390
17110W        W89535  20.964  39.007   4.556
17111W        W89536  30.849  28.909   0.785
17112W        W89537  38.201  14.518   3.490
17113W        W89538  44.465  11.908   1.879
17114W        W89539  23.971  29.041   2.972
17115W        W89540  37.813  29.441   4.197
17116W        W89541   5.971  15.795   0.451
17117W        W89542  22.192  21.017   3.284
17118W        W89543   0.469  44.654   2.341
17119W        W89544  24.094  44.765  12.396
17120W        W89545   8.371  36.239   0.955
17121W        W89546  22.652  33.813   2.369
17122W        W89547   1.014  36.601  12.119
17123W        W89548  26.101  40.544   0.261
17124W        W89549  12.543  27.222  14.392
17125W        W89550  44.511  22.258  13.960
17126W        W89551  42.039  19.063   4.111
17127W        W89552  13.135  13.347  13.125
17128W        W89553   6.827  24.239  11.414
17129W        W89554  15.989  35.527   5.125
17130W        W89555  26.662  29.461  14.949
17131W        W89556  11.017  21.656   4.870
17132W        W89557  29.458  23.969  11.944
17133W        W89558   4.882  23.177  12.034
17134W        W89559  39.274  42.002  12.602
17135W        W89560  23.767  27.670   3.152
17136W        W89561   9.130  41.934  13.921
17137W        W89562   4.292   1.330   0.388
17138W        W89563  13.840  39.870  12.945
17139W        W89564  15.587  33.593  10.524
17140W        W89565  24.027  35.038   1.137
17141W        W89566  36.438  24.141   2.926
17142W        W89567  19.317  25.624  10.757
17143W        W89568  37.453  22.757  14.592
17144W        W89569  22.024  44.206   0.281
17145W        W89570  39.230  36.395  12.056
17146W        W89571  26.376  13.343   4.234
17147W        W89572   0.006  27.904  13.826
17148W        W89573  31.404  11.678   3.965
17149W        W89574   0.721  30.817  10.815
17150W        W89575  19.771  34.953   1.313
17151W        W89576  39.427  17.805   3.686
17152W        W89577   2.761  23.983  12.372
17153W        W89578  32.990  42.503   9.968
17154W        W89579  29.729   0.942   0.303
17155W        W89580   1.056  15.218  10.930
17156W        W89581  24.714   3.387  12.699
17157W        W89582  17.633  11.139  12.444
17158W        W89583   8.668   8.438  13.984
17159W        W89584  12.879  29.857  11.358
17160W        W89585  23.650   4.330  14.510
17161W        W89586  32.407  29.049  12.531
17162W        W89587  34.004  24.405   2.953
17163W        W89588  13.046  25.945  14.767
17164W        W89589  28.610  28.483   1.689
17165W        W89590  25.730   4.538  11.380
17166W        W89591   3.467  41.492  14.970
17167W        W89592  30.917  40.155  11.608
17168W        W89593  40.488  12.767  12.982
17169W        W89594  31.473  35.470  12.133
17170W        W89595  44.938  40.331   4.206
17171W        W89596   1.893  38.325   3.297
17172W        W89597   4.766  26.955   4.199
17173W        W89598  43.034  12.718   3.676
17174W        W89599  14.154  36.772   4.114
17175W        W89600  22.514  42.134  11.946
17176W        W89601   5.606  19.878   3.209
17177W        W89602  32.991  43.297  11.176
17178W        W89603   7.690  27.890  14.660
17179W        W89604  37.809  19.161   2.651
17180W        W89605  34.166  36.893  12.541
17181W        W89606  36.068  23.461   3.557
17182W        W89607   2.980  19.802   4.193
17183W        W89608  43.325  10.345  13.443
17184W        W89609   4.692  27.007  13.396
17185W        W89610  10.947  42.410   2.466
17186W        W89611   1.549  16.929   2.348
17187W        W89612   0.707   9.000   2.771
17188W        W89613  36.054  40.151   2.415
17189W        W89614  19.008   7.370  11.191
17190W        W89615  18.774  22.783   3.119
17191W        W89616  29.488   9.168  11.116
17192W        W89617  24.021   9.346   0.938
17193W        W89618   2.892  39.940  14.792
17194W        W89619  27.972  21.001   2.785
17195W        W89620  26.661   2.457   0.390
17196W        W89621  43.879  40.120  13.375
17197W        W89622  23.006  30.865  10.565
17198W        W89623   2.589  15.358  14.476
17199W        W89624  14.988  14.469  11.132
17200W        W89625   5.433  39.006   1.822
17201W        W89626  21.720   5.399  12.956
17202W        W89627  30.520  23.408  14.798
17203W        W89628  41.443  24.137  10.410
17204W        W89629  31.538  36.504  13.545
17205W        W89630  20.257   7.187  14.097
17206W        W89631  26.075   2.947  11.598
17207W        W89632  34.432  18.551   3.929
17208W        W89633  24.003  23.710   3.592
17209W        W89634  15.548   3.452   1.476
17210W        W89635  20.782  27.177  11.801
17211W        W89636  21.170  25.150   4.398
17212W        W89637  17.995   0.250   3.366
17213W        W89638  39.257  12.251   4.239
17214W        W89639   2.919  10.801  14.336
17215W        W89640  11.202  12.337   1.864
17216W        W89641  40.410  36.053  13.418
17217W        W89642  21.292  33.005   2.316
17218W        W89643  23.690  16.896   3.627
17219W        W89644  24.759  41.298  10.836
17220W        W89645  34.866  27.988   3.370
17221W        W89646  30.240  13.581   0.286
17222W        W89647   7.949  21.837   4.138
17223W        W89648  27.654  30.788   5.211
17224W        W89649  37.621   9.412  12.415
17225W        W89650  43.565  13.653   2.237
17226W        W89651  30.923  24.729  12.118
17227W        W89652  32.317  17.795  12.887
17228W        W89653  32.029   9.352  14.225
17229W        W89654  15.045  41.294   2.759
17230W        W89655  14.660  16.799  10.680
17231W        W89656   2.279  26.885   2.009
17232W        W89657  26.749   5.810  13.950
17233W        W89658  39.287  40.061   1.825
17234W        W89659  26.416  17.978  12.555
17235W        W89660  16.342  22.137  12.972
17236W        W89661  31.970  35.924  10.727
17237W        W89662  31.460  34.507  12.498
17238W        W89663   9.278  19.717   1.451
17239W        W89664  44.261   3.884  10.589
17240W        W89665  18.962   3.049  14.292
17241W        W89666  10.554  26.604  13.815
17242W        W89667  30.878  16.112  14.857
17243W        W89668  21.678   3.449   4.876
17244W        W89669  13.544  24.223   1.675
17245W        W89670  41.779  36.197  12.657
17246W        W89671   2.535   8.383  12.679
17247W        W89672  13.302  33.505   4.433
17248W        W89673  17.764   7.758  12.911
17249W        W89674  31.732  11.312  11.267
17250W        W89675   2.836  28.151   4.975
17251W        W89676  18.837   6.217   3.760
17252W        W89677  20.655  26.913   3.710
17253W        W89678   4.550  30.907   5.035
17254W        W89679  14.241  22.963   0.996
17255W        W89680  34.144  28.691   4.037
17256W        W89681  36.721  35.054  13.869
17257W        W89682  36.050  26.693  12.779
17258W        W89683   0.348   9.313  10.567
17259W        W89684   7.414  11.421  11.649
17260W        W89685  17.304   5.873  14.567
17261W        W89686  42.003  17.024   0.528
17262W        W89687  32.976  26.546   0.277
17263W        W89688  17.329  44.425  11.194
17264W        W89689   6.727   4.921   3.614
17265W        W89690  40.528  12.651  14.448
17266W        W89691  12.862  31.541  13.365
17267W        W89692  12.352   4.292   0.778
17268W        W89693  23.802  24.907   4.253
17269W        W89694  39.371  36.002  11.020
17270W        W89695  11.420  24.038  14.071
17271W        W89696  43.370  11.076   3.554
17272W        W89697  25.997  13.242  13.731
17273W        W89698  21.841  10.660  12.088
17274W        W89699  31.534  27.191   0.853
17275W        W89700   6.730  35.400   4.086
17276W        W89701  13.137   0.696  11.062
17277W        W89702  38.624   5.898  13.948
17278W        W89703  35.151  27.392   2.598
17279W        W89704  26.760  44.340  14.402
17280W        W89705  39.865   4.474  11.596
17281W        W89706   9.300  35.709   0.141
17282W        W89707   3.525  26.101  10.428
17283W        W89708  18.038  11.691  13.424
17284W        W89709   5.014  20.749  13.261
17285W        W89710   5.932  26.635   2.629
17286W        W89711  19.524  23.213  13.956
17287W        W89712   7.089  20.409  14.305
17288W        W89713  21.764   3.647  14.583
17289W        W89714  24.548   0.537   0.762
17290W        W89715  44.927   1.337  13.415
17291W        W89716  38.106  25.477  11.531
17292W        W89717   9.156   5.913  10.572
17293W        W89718  38.896   5.938  14.430
17294W        W89719  24.481  27.423   0.890
17295W        W89720  18.103  41.436  14.818
17296W        W89721   6.282  35.185  14.639
17297W        W89722   3.849  29.755  12.876
17298W        W89723  15.816  19.328   0.810
17299W        W89724  13.610   5.687   0.805
17300W        W89725   8.332  12.217   1.823
17301W        W89726  23.069  43.051   2.138
17302W        W89727   6.397  22.762   3.123
17303W        W89728  16.357   9.780   0.657
17304W        W89729  17.798  12.145  12.512
17305W        W89730  36.157  40.116   3.335
17306W        W89731  10.421  33.905  13.576
17307W        W89732   7.945  15.119   4.283
17308W        W89733   6.286   1.906   2.958
17309W        W89734  37.131  43.494   2.785
17310W        W89735  44.001   1.526   4.327
17311W        W89736  33.161  15.102  11.071
17312W        W89737   2.096  36.515  14.065
17313W        W89738  14.581  33.535  10.616
17314W        W89739  36.427  13.311   3.604
17315W        W89740   9.922   9.648  12.866
17316W        W89741   6.733  15.406   1.938
17317W        W89742  20.621  12.604   0.747
17318W        W89743   7.972  38.358  14.190
17319W        W89744  10.866  22.084   3.608
17320W        W89745  10.834  13.317  14.498
17321W        W89746  37.073  20.565   0.834
17322W        W89747  15.657  38.533   4.269
17323W        W89748   0.237   7.415   4.617
17324W        W89749  15.725  11.087   2.770
17325W        W89750  19.657  39.591  12.577
17326W        W89751  34.943   8.862   0.196
17327W        W89752  35.595   1.117  13.184
17328W        W89753  14.092  43.476  13.800
17329W        W89754  25.878  13.879   4.408
17330W        W89755  17.869  23.678  13.001
17331W        W89756  22.934  20.799   4.583
17332W        W89757   0.264  11.470  11.157
17333W        W89758  41.837  14.814  10.573
17334W        W89759  40.984  41.254  12.986
17335W        W89760  19.655  11.401  13.328
17336W        W89761  17.678  43.871  13.409
17337W        W89762  14.387  37.639  12.424
17338W        W89763  17.582   0.202   2.444
17339W        W89764  38.002   2.980  11.437
17340W        W89765  11.355  34.063   3.118
17341W        W89766  14.241  12.808  14.452
17342W        W89767  11.586  12.391   0.754
17343W        W89768   0.374  28.165   2.381
17344W        W89769   0.432  12.928   0.281
17345W        W89770  14.281  23.737   1.823
17346W        W89771  19.689  39.285  12.089
17347W        W89772  15.913  31.019   1.798
17348W        W89773   8.265  26.704  13.745
17349W        W89774  39.903  41.045   3.609
17350W        W89775   8.869  39.856   4.689
17351W        W89776   2.208  10.847   2.269
17352W        W89777  12.807  10.246   2.150
17353W        W89778  17.455  34.021   1.828
17354W        W89779  41.889  24.684  13.803
17355W        W89780  28.922   0.405   4.386
17356W        W89781  37.999  11.259   4.649
17357W        W89782  12.198  38.156  13.856
17358W        W89783  21.177  31.590   1.738
17359W        W89784  43.958  37.995   3.851
17360W        W89785   2.746  23.030   1.846
17361W        W89786  14.539  24.482  13.318
17362W        W89787  15.611  33.635   2.293
17363W        W89788  23.125  39.715  12.502
17364W        W89789  17.322   1.140   3.223
17365W        W89790  30.162  43.206  10.804
17366W        W89791  28.391  43.859   2.356
17367W        W89792  25.435  39.356   4.811
17368W        W89793  40.584  28.616  11.607
17369W        W89794  14.059  32.931   2.229
17370W        W89795  25.171   9.922   4.155
17371W        W89796  44.864  40.562  12.370
17372W        W89797  27.299  29.650   3.316
17373W        W89798  27.503  42.906  10.950
17374W        W89799  22.487  35.990  14.012
17375W        W89800  30.544  41.495   4.989
17376W        W89801  23.151  12.184   9.729
17377W        W89802  10.461  15.542  10.009
17378W        W89803   9.582  12.604  12.263
17379W        W89804  16.984   1.660  11.037
17380W        W89805  31.705   0.705  13.393
17381W        W89806  18.406  27.867  13.287
17382W        W89807  25.452   6.707  10.778
17383W        W89808  41.921  12.191   0.413
17384W        W89809  14.054  32.971   4.626
17385W        W89810  23.647   2.597   3.555
17386W        W89811  17.691  20.472  11.927
17387W        W89812  34.626   2.711  12.071
17388W        W89813   7.622  23.622   3.760
17389W        W89814  29.655  13.434  14.920
17390W        W89815  15.090   5.718  14.336
17391W        W89816   6.863  29.387   2.933
17392W        W89817  37.771   2.868  12.470
17393W        W89818  29.027  37.998   1.853
17394W        W89819   6.408  21.726  13.833
17395W        W89820  17.617  39.372   4.436
17396W        W89821  35.316  20.810   4.301
17397W        W89822  44.290  35.131   4.216
17398W        W89823  32.211  25.494   1.376
17399W        W89824  12.552  12.688   2.824
17400W        W89825  26.675  25.288   0.380
17401W        W89826   6.965  14.529   4.531
17402W        W89827   9.097  31.001  13.610
17403W        W89828  11.332  14.720  13.918
17404W        W89829  11.299  23.027  10.141
17405W        W89830  12.293  10.216   2.293
17406W        W89831  14.747  29.940   1.245
17407W        W89832  31.935  28.619   4.229
17408W        W89833  34.062  26.716   2.601
17409W        W89834  17.592  11.107   1.430
17410W        W89835  20.148   1.837   3.470
17411W        W89836  24.457  31.164  14.195
17412W        W89837  12.902  40.046  14.403
17413W        W89838   3.352  15.267  14.858
17414W        W89839  35.050  30.270   4.176
17415W        W89840  29.302   4.909   4.742
17416W        W89841   0.712  40.781   1.356
17417W        W89842  19.293   7.107   3.336
17418W        W89843  21.545  34.978  12.080
17419W        W89844  37.774   8.163   5.132
17420W        W89845   5.870  40.300   2.959
17421W        W89846  14.238  40.039  12.010
17422W        W89847  33.648  24.731  13.305
17423W        W89848  41.268   0.274  12.070
17424W        W89849  13.618  14.819  12.307
17425W        W89850  26.990   5.405  13.049
17426W        W89851   6.372  23.367   4.915
17427W        W89852   7.154  18.776   3.879
17428W        W89853  39.514  21.759   3.170
17429W        W89854   1.379  32.125   4.139
17430W        W89855   4.831  11.387   3.153
17431W        W89856  23.062  37.106   2.820
17432W        W89857  36.474   4.750   2.661
17433W        W89858  38.019  41.557   3.236
17434W        W89859  18.539  31.381  10.763
17435W        W89860  14.711   3.521   2.368
17436W        W89861  17.258  10.238   1.418
17437W        W89862  36.606  23.464   5.012
17438W        W89863   7.978  39.986   0.746
17439W        W89864  18.007  37.514   3.647
17440W        W89865  37.445  23.511   1.047
17441W        W89866  23.713  30.215  13.912
17442W        W89867  32.909  36.883   4.603
17443W        W89868  10.575  36.890   1.321
17444W        W89869  15.003  19.675   2.363
17445W        W89870   9.378  28.369   4.488
17446W        W89871  15.409   2.029   1.528
17447W        W89872  16.208  35.986  13.908
17448W        W89873  29.215  34.036  14.011
17449W        W89874  13.727  35.923   2.848
17450W        W89875   8.221  38.391  13.129
17451W        W89876  33.840  17.053  10.952
17452W        W89877  26.549   2.133  14.936
17453W        W89878  44.906  17.097  14.413
17454W        W89879  31.936   4.310   1.651
17455W        W89880  43.208  17.947  11.561
17456W        W89881  30.844  36.109   1.738
17457W        W89882  38.112  31.982  14.122
17458W        W89883  28.980   2.655   4.542
17459W        W89884   6.804  27.123  12.415
17460W        W89885  12.353  34.135  11.617
17461W        W89886  10.438   1.319   2.410
17462W        W89887   9.160  21.976   1.300
17463W        W89888  10.823  10.603   0.470
17464W        W89889  27.148  25.550  12.126
17465W        W89890  34.899  26.435   4.144
17466W        W89891  37.425  39.033  10.418
17467W        W89892  44.392  32.067   2.891
17468W        W89893   1.939  41.697  14.730
17469W        W89894  36.040  19.653  13.885
17470W        W89895  14.749  20.293   1.272
17471W        W89896  35.928  34.035  10.602
17472W        W89897   4.471  39.344   0.068
17473W        W89898  35.409  20.055  10.836
17474W        W89899  34.476  12.860   1.222
17475W        W89900   1.343  12.654  10.518
17476W        W89901  10.319  34.536   4.124
17477W        W89902  15.075  43.044  11.134
17478W        W89903  23.376  20.732  14.859
17479W        W89904  41.272   8.617   1.249
17480W        W89905  27.015  13.986  14.471
17481W        W89906  28.873  16.286  11.335
17482W        W89907  15.543  16.589  12.123
17483W        W89908  41.820  10.719  10.397
17484W        W89909  27.683   8.860   1.354
17485W        W89910  26.126  38.739  14.973
17486W        W89911  44.905  33.116  13.312
17487W        W89912  10.885  35.193   4.337
17488W        W89913  39.393  35.517   1.210
17489W        W89914  13.699  20.197   1.271
17490W        W89915   9.936  11.613   4.487
17491W        W89916  23.660  19.791   3.317
17492W        W89917  43.923  24.439   1.261
17493W        W89918  28.167  23.177  10.963
17494W        W89919   1.862  16.643   1.738
17495W        W89920  41.822  24.118   0.441
17496W        W89921  44.227  10.228   0.879
17497W        W89922  15.617  31.787  11.621
17498W        W89923   4.805  26.764   1.530
17499W        W89924  41.014  21.730  14.423
17500W        W89925   8.241  13.624   3.797
17501W        W89926  39.253  22.093   0.266
17502W        W89927  11.922  28.551   1.917
17503W        W89928  28.285  20.807   3.163
17504W        W89929  16.834  27.737   4.693
17505W        W89930   5.251   6.938   2.984
17506W        W89931  37.000  37.364   4.560
17507W        W89932  15.344   0.765   4.075
17508W        W89933  19.064  26.097  11.749
17509W        W89934  16.553   8.109  10.335
17510W        W89935  34.525   5.926  14.481
17511W        W89936   5.936  22.127  12.544
17512W        W89937  32.896  27.059   1.147
17513W        W89938  23.004  44.693  12.521
17514W        W89939  25.047  42.706   1.194
17515W        W89940  31.255   5.675  12.482
17516W        W89941  27.064  37.083  12.076
17517W        W89942   1.427  14.352   4.636
17518W        W89943  32.539   4.457  12.620
17519W        W89944  13.884  21.316   1.331
17520W        W89945  26.909  39.954  12.790
17521W        W89946   0.447  40.983   4.776
17522W        W89947  43.845   9.601  13.311
17523W        W89948  17.246   4.879   4.992
17524W        W89949   3.293  44.306  11.427
17525W        W89950  40.705  35.196   2.302
17526W        W89951  39.646  10.050  12.087
17527W        W89952  42.434  12.534  11.084
17528W        W89953   1.456  28.930   0.759
17529W        W89954  10.704  34.151  11.026
17530W        W89955  25.948  37.133   2.250
17531W        W89956  24.546  20.862  13.187
17532W        W89957   7.853  37.487  13.273
17533W        W89958  14.217   8.216   4.639
17534W        W89959  43.831  44.083  13.436
17535W        W89960   0.325  23.449   1.413
17536W        W89961  11.136  28.073  10.791
17537W        W89962  17.797  19.131  14.821
17538W        W89963   0.542  44.764   3.691
17539W        W89964   9.415  11.357  12.471
17540W        W89965   1.838   8.605   2.316
17541W        W89966  20.538  40.757  10.896
17542W        W89967  19.218  17.199   4.086
17543W        W89968  41.361   3.276   2.468
17544W        W89969   7.946  16.031   3.596
17545W        W89970  41.264  25.314  14.813
17546W        W89971   6.101   2.004   2.465
17547W        W89972  38.754  25.037  12.955
17548W        W89973  38.836   1.911  13.617
17549W        W89974  36.835  17.054   1.862
17550W        W89975  18.802  36.532   1.341
17551W        W89976  37.919   7.960   4.672
17552W        W89977  43.024  12.890   1.438
17553W        W89978   5.252  30.592  13.973
17554W        W89979  30.144  15.865  11.275
17555W        W89980  18.074  33.913  10.255
17556W        W89981   7.235  35.824  10.754
17557W        W89982  35.077   7.677   3.201
17558W        W89983  28.508  17.493   1.269
17559W        W89984   9.882  13.135  10.781
17560W        W89985  13.386   7.621  13.874
17561W        W89986  40.887  34.517   1.751
17562W        W89987  44.112  12.625   1.634
17563W        W89988  34.055  23.138   2.316
17564W        W89989   6.878   6.389   4.983
17565W        W89990  18.475  32.317   3.664
17566W        W89991  18.565   9.373   4.273
17567W        W89992   8.285  38.042   4.622
17568W        W89993  27.718  25.769   0.325
17569W        W89994  39.237  38.611   2.778
17570W        W89995  14.625   7.734   1.921
17571W        W89996  23.420  12.073   3.764
17572W        W89997  31.149  31.385  13.625
17573W        W89998   3.203   4.880   4.759
17574W        W89999  32.509   6.494  10.458
17575W        W90000  29.673   9.128   3.310
17576W        W90001  14.253  16.150  13.156
17577W        W90002  35.965  33.157   0.452
17578W        W90003  36.887  17.858   0.648
17579W        W90004  43.790  33.422   1.075
17580W        W90005  42.580  37.911  13.790
17581W        W90006   1.023  27.532  13.064
17582W        W90007  41.839  24.713   3.218
17583W        W90008  33.895  16.341   2.367
17584W        W90009  11.755  24.941   4.435
17585W        W90010  35.616  27.489  12.287
17586W        W90011  42.479  28.701  11.166
17587W        W90012  42.351   5.212   3.628
17588W        W90013  11.280  24.518  13.981
17589W        W90014   8.404  13.153  10.549
17590W        W90015  29.488   3.727  12.144
17591W        W90016  32.660  17.251   0.987
17592W        W90017  13.114  33.036  14.598
17593W        W90018  24.516  28.200   2.011
17594W        W90019  38.858  42.989   2.422
17595W        W90020   6.827  39.649   0.214
17596W        W90021  18.863   7.819   1.621
17597W        W90022   9.683  15.661   2.842
17598W        W90023  28.003  33.547  14.202
17599W        W90024  44.566  37.538   5.133
17600W        W90025   6.359  28.480   0.236
17601W        W90026   8.604  26.258   0.928
17602W        W90027  20.102  40.764  11.845
17603W        W90028  16.268  19.239  13.411
17604W        W90029   3.099  20.134   1.742
17605W        W90030   4.734   5.445  11.224
17606W        W90031   5.396  25.081  10.774
17607W        W90032  31.140   7.583   4.194
17608W        W90033  35.026  19.575   2.400
17609W        W90034  24.655  36.403   4.032
17610W        W90035  42.303  33.537   1.827
17611W        W90036   3.264  19.975  14.987
17612W        W90037  31.506  10.739  13.823
17613W        W90038  24.086  36.304  11.544
17614W        W90039  25.453  32.366   5.459
17615W        W90040  39.850  27.068  13.333
17616W        W90041  31.646  39.013  11.407
17617W        W90042  40.827   1.404  10.709
17618W        W90043  35.387  23.964   0.466
17619W        W90044  28.490  25.492   2.705
17620W        W90045  29.881  36.010   1.242
17621W        W90046  14.329  13.642   0.280
17622W        W90047   4.078  31.506   3.455
17623W        W90048  24.236   1.213   4.737
17624W        W90049  11.210  43.199  11.621
17625W        W90050  42.861  13.101   2.758
17626W        W90051   7.345  26.254  12.595
17627W        W90052   6.209  13.655  13.801
17628W        W90053   6.646  16.571   3.688
17629W        W90054  39.370  24.075  10.641
17630W        W90055  32.424  37.676   4.685
17631W        W90056  36.812  23.081  12.062
17632W        W90057  33.930  32.889   0.508
17633W        W90058   2.769  20.702  10.855
17634W        W90059  42.510  32.321   1.479
17635W        W90060  41.521  16.901  14.139
17636W        W90061  10.040  33.583   4.156
17637W        W90062  44.266  26.503   3.111
17638W        W90063  30.883  44.447   4.570
17639W        W90064   5.680  43.440   2.821
17640W        W90065  22.112  42.533  12.454
17641W        W90066  29.701  13.549  11.125
17642W        W90067  23.314  35.553  11.086
17643W        W90068  29.156   0.611  13.751
17644W        W90069  36.391  21.767  11.561
17645W        W90070  10.541  15.469  10.983
17646W        W90071  14.742   4.830  10.549
17647W        W90072  33.500  18.253  11.023
17648W        W90073  17.612  41.340   0.411
17649W        W90074  41.492  17.129  12.621
17650W        W90075  12.958  33.908   0.460
17651W        W90076  12.834  24.616   0.925
17652W        W90077   7.330  41.760  12.436
17653W        W90078  41.445  36.489   0.227
17654W        W90079  44.954  42.666   3.833
17655W        W90080  15.039   1.543   0.753
17656W        W90081  41.005   6.741   4.759
17657W        W90082  13.555  24.573   2.340
17658W        W90083  19.639  23.990   0.298
17659W        W90084   7.855   2.983   2.251
17660W        W90085  27.684  44.507   1.939
17661W        W90086   1.283   9.277   1.543
17662W        W90087  18.848  34.936   0.316
17663W        W90088  41.886   9.122   2.166
17664W        W90089  15.820  38.273  12.815
17665W        W90090  25.498  22.945  13.441
17666W        W90091  27.530  41.381   0.680
17667W        W90092  31.048  32.367   0.275
17668W        W90093  17.703   6.786  12.871
17669W        W90094  26.570  12.402  13.823
17670W        W90095   8.714  28.620  11.650
17671W        W90096  12.424   5.719   4.113
17672W        W90097  33.035   9.794   1.818
17673W        W90098  22.828  19.065  10.811
17674W        W90099  35.930   0.738  14.479
17675W        W90100  10.355  12.348  11.599
17676W        W90101  39.543  20.689  14.881
17677W        W90102  44.255  15.166   0.522
17678W        W90103  41.456  17.300  14.448
17679W        W90104  43.256  42.763  13.862
17680W        W90105  44.404  38.885   1.135
17681W        W90106  42.920   7.882  14.601
17682W        W90107   7.969  41.320  11.163
17683W        W90108   4.268   5.732  11.166
17684W        W90109  26.849  41.920  11.415
17685W        W90110  23.006  32.845  12.490
17686W        W90111   0.984  38.776  10.917
17687W        W90112  17.442  36.237  13.592
17688W        W90113  44.919  41.097   2.520
17689W        W90114  15.351  40.971   1.393
17690W        W90115  10.062  44.728  12.893
17691W        W90116  15.778  44.767   2.033
17692W        W90117  43.274  22.113   9.720
17693W        W90118  30.125  16.133   0.728
17694W        W90119   6.207  11.216  11.419
17695W        W90120  22.557  41.209  12.242
17696W        W90121   6.490   6.754   0.468
17697W        W90122  36.667  25.200   4.197
17698W        W90123  14.824  15.653  10.037
17699W        W90124   7.689  41.270   1.000
17700W        W90125  23.252  12.154   5.029
17701W        W90126   5.877  42.776   1.320
17702W        W90127  19.588  31.416   2.299
17703W        W90128  21.198  36.112   2.463
17704W        W90129   6.729   1.705  13.027
17705W        W90130  10.854  40.728  14.812
17706W        W90131  36.432  33.928  11.860
17707W        W90132  38.899  12.918   4.700
17708W        W90133  24.069  42.239   3.720
17709W        W90134  29.398   2.930   2.500
17710W        W90135   6.696  31.170  11.901
17711W        W90136  11.257  31.147  11.725
17712W        W90137  44.158   8.939   0.159
17713W        W90138   2.850  13.607   2.333
17714W        W90139  37.158  21.656   2.799
17715W        W90140  39.008  15.687   3.172
17716W        W90141   3.157   3.590   5.015
17717W        W90142  19.552   7.331   1.846
17718W        W90143  35.786  37.836   2.435
17719W        W90144  43.407  44.494   1.236
17720W        W90145  27.655  42.935  14.032
17721W        W90146  14.530  30.652   2.330
17722W        W90147   2.387  42.514  13.378
17723W        W90148  30.986  27.927   0.460
17724W        W90149  18.606   4.736   3.878
17725W        W90150   2.713  21.435   1.255
17726W        W90151  16.453  34.098   9.830
17727W        W90152   5.763  43.766   0.335
17728W        W90153   2.402  25.937  14.006
17729W        W90154  39.113  22.036   4.571
17730W        W90155  27.256  19.483  11.008
17731W        W90156   3.815  11.704   3.734
17732W        W90157  13.907  18.587   4.124
17733W        W90158  14.119  14.108   1.998
17734W        W90159  16.791  27.577   1.423
17735W        W90160  33.678  11.449   3.358
17736W        W90161  32.920   4.831   2.265
17737W        W90162  21.157  38.969  14.219
17738W        W90163  44.912  14.903   4.669
17739W        W90164  33.739  38.420   2.814
17740W        W90165  26.036  26.642   2.928
17741W        W90166  14.391  38.980   2.267
17742W        W90167  41.092   6.768  13.968
17743W        W90168   6.070   2.836  13.322
17744W        W90169  16.236   4.420  11.687
17745W        W90170  24.727   0.043   1.505
17746W        W90171  25.273  28.670  14.491
17747W        W90172  42.428  31.927  10.424
17748W        W90173  37.165  16.841  13.476
17749W        W90174  44.887   7.355   2.611
17750W        W90175  12.697  39.835   4.201
17751W        W90176  10.430  20.691  13.251
17752W        W90177   8.860  10.205  13.554
17753W        W90178   1.513  36.904  13.853
17754W        W90179  37.994   4.662  11.724
17755W        W90180  21.470  14.070  13.902
17756W        W90181  40.140  12.419   0.008
17757W        W90182  40.198   8.168  13.885
17758W        W90183   0.453  23.649  12.859
17759W        W90184  25.432  16.234  12.928
17760W        W90185  42.780   6.783   3.193
17761W        W90186   7.794  22.098   4.576
17762W        W90187   1.818  38.802  12.089
17763W        W90188   8.707   1.785  13.575
17764W        W90189  18.242   4.398   4.074
17765W        W90190  13.564   0.788   5.418
17766W        W90191  25.257   6.245  14.953
17767W        W90192   7.743  20.809  13.044
17768W        W90193  43.007  42.851   4.941
17769W        W90194  38.479   9.436   0.493
17770W        W90195  38.058  29.761  12.178
17771W        W90196  10.236  40.659  11.198
17772W        W90197  21.719  29.609  14.962
17773W        W90198  16.769  23.179  11.705
17774W        W90199  40.119  19.591  12.078
17775W        W90200  17.802  24.987   2.285
17776W        W90201  34.447  34.442  14.956
17777W        W90202  22.703  23.016  12.417
17778W        W90203  16.682  26.049   0.108
17779W        W90204  11.146   4.687  11.549
17780W        W90205  17.601  26.170  12.846
17781W        W90206  31.226   3.912   2.900
17782W        W90207  27.865  29.748   2.678
17783W        W90208   1.313  12.850   0.353
17784W        W90209  37.897   7.073  11.544
17785W        W90210  18.827  22.521  11.677
17786W        W90211  25.986  16.781  10.952
17787W        W90212  18.090   8.247   4.654
17788W        W90213  35.862   3.326  13.482
17789W        W90214  32.828  16.714  13.920
17790W        W90215  34.171   8.558   9.868
17791W        W90216  41.107  30.904  12.140
17792W        W90217  30.202   0.456   2.917
17793W        W90218   9.808   4.897  13.317
17794W        W90219  24.978   7.593  12.533
17795W        W90220  13.228  15.391  13.346
17796W        W90221   2.026  14.255   3.052
17797W        W90222  16.169  36.831  12.971
17798W        W90223  26.637  34.456  14.342
17799W        W90224  18.213  35.529  12.514
17800W        W90225   6.260   6.280  13.452
17801W        W90226   2.855  37.325  12.163
17802W        W90227   2.323   9.169   2.004
17803W        W90228  12.651  43.003   1.221
17804W        W90229   7.799  24.680   1.307
17805W        W90230  11.370   2.531   1.661
17806W        W90231  25.914  27.983  12.809
17807W        W90232  13.258  29.891   2.350
17808W        W90233  35.969  42.394  12.029
17809W        W90234  38.991   5.712  14.886
17810W        W90235   5.213  29.255   2.172
17811W        W90236  27.778  26.797   4.981
17812W        W90237  24.622  10.634  14.038
17813W        W90238   5.897   4.626   3.945
17814W        W90239  38.449  37.404   4.590
17815W        W90240   5.238  43.547  11.673
17816W        W90241   0.625   3.716   0.753
17817W        W90242   7.150  16.628   3.871
17818W        W90243   3.948  42.533  12.517
17819W        W90244   8.055  20.200  10.580
17820W        W90245  11.072  41.403   1.857
17821W        W90246   2.679   6.356  13.985
17822W        W90247  39.883  21.541   2.289
17823W        W90248  44.934   2.719  14.673
17824W        W90249  18.633  24.868   3.606
17825W        W90250   6.727  44.011   3.862
17826W        W90251   1.630  39.043   2.679
17827W        W90252  38.805  19.140  13.019
17828W        W90253  37.559  10.478  14.268
17829W        W90254  36.511  24.449  13.965
17830W        W90255  34.968  22.007   3.826
17831W        W90256   9.592  38.093  11.588
17832W        W90257   6.918   3.279   0.344
17833W        W90258  38.286   3.630  14.482
17834W        W90259  24.021  13.940   3.091
17835W        W90260  44.004   5.971  12.350
17836W        W90261  26.517  33.720   1.309
17837W        W90262  28.456  25.653  10.615
17838W        W90263  43.928   6.129  11.404
17839W        W90264  17.234   3.307   2.273
17840W        W90265  44.987  35.615   3.330
17841W        W90266  15.762  31.574   1.153
17842W        W90267  38.974  38.106  13.097
17843W        W90268   7.806   9.563  14.321
17844W        W90269   6.504  34.047   1.905
17845W        W90270  19.051  40.894  12.405
17846W        W90271  12.949  22.216  13.851
17847W        W90272  12.482  41.298  13.916
17848W        W90273  26.848  23.140  13.335
17849W        W90274  40.340  35.932  12.589
17850W        W90275   0.302   9.670   1.295
17851W        W90276  10.567   4.001   3.821
17852W        W90277  14.192   6.625   2.086
17853W        W90278  11.202  13.179  11.183
17854W        W90279   4.243  25.745  11.435
17855W        W90280  36.542  40.313   0.793
17856W        W90281  10.291   5.761  14.866
17857W        W90282  37.458   1.397  14.001
17858W        W90283  42.862  20.287   4.248
17859W        W90284  17.452  28.829   2.961
17860W        W90285  43.276  40.946   3.198
17861W        W90286  39.266  39.959  12.905
17862W        W90287  35.901  10.432   1.716
17863W        W90288   9.955   9.858   4.712
17864W        W90289   5.020  17.609  14.463
17865W        W90290  25.239  30.922  10.991
17866W        W90291  38.502  13.614   3.909
17867W        W90292  19.443   8.751  12.751
17868W        W90293  10.297  27.059  11.660
17869W        W90294  22.021  16.831   2.761
17870W        W90295  35.525  35.323  14.997
17871W        W90296  42.112   0.231   0.290
17872W        W90297  10.309   2.385   0.663
17873W        W90298  41.035  22.545   3.073
17874W        W90299  28.349  14.444  12.470
17875W        W90300   1.332  10.936   2.778
17876W        W90301  19.170  24.800   3.386
17877W        W90302  42.130  24.680  12.659
17878W        W90303  42.188  22.116   2.731
17879W        W90304  13.809  34.136   1.408
17880W        W90305  13.703  37.020  11.506
17881W        W90306  24.190  36.296   0.817
17882W        W90307  14.002  28.021   3.729
17883W        W90308  22.207  44.447   2.897
17884W        W90309  30.364   7.527   3.728
17885W        W90310   7.653  35.096  11.164
17886W        W90311  21.730   8.013   2.305
17887W        W90312  20.378   5.645  14.500
17888W        W90313  19.204  16.980   3.148
17889W        W90314  25.929  10.864   1.483
17890W        W90315  26.735  17.767   1.162
17891W        W90316  33.186  30.400  10.627
17892W        W90317  42.145  14.627   0.898
17893W        W90318   3.241  22.111  12.022
17894W        W90319  41.837  19.609  13.501
17895W        W90320  36.976  44.375  13.267
17896W        W90321  24.137  35.604   4.306
17897W        W90322  41.412  41.499   2.327
17898W        W90323   8.797   8.628   3.088
17899W        W90324  24.977  32.526   0.882
17900W        W90325  36.893   2.674  14.375
17901W        W90326  35.862  37.931  13.161
17902W        W90327  35.632  29.050   1.825
17903W        W90328  13.826  23.119  10.386
17904W        W90329  37.300  44.657   0.153
17905W        W90330  31.044  37.090   2.566
17906W        W90331  30.425   4.112   0.352
17907W        W90332  22.748  31.040  13.376
17908W        W90333  29.741  36.356   0.030
17909W        W90334   1.696  39.715   1.300
17910W        W90335  10.482   1.249   3.302
17911W        W90336  15.648  40.540  14.308
17912W        W90337  30.575  27.767   2.724
17913W        W90338   2.280  40.281   3.228
17914W        W90339  17.615   6.321  14.454
17915W        W90340  33.096   9.943   3.128
17916W        W90341  31.497  17.156  13.282
17917W        W90342   2.291  11.129   0.474
17918W        W90343   9.606   6.491   0.237
17919W        W90344  41.951  36.618   1.537
17920W        W90345   2.422  13.348   2.295
17921W        W90346  33.518  35.101  10.726
17922W        W90347  30.815  34.606   4.451
17923W        W90348  33.086  25.823   4.702
17924W        W90349   3.026  20.626  11.324
17925W        W90350  21.540  18.344   2.676
17926W        W90351  13.306  31.468  11.881
17927W        W90352  10.890  44.284  14.904
17928W        W90353   1.705  38.967  14.924
17929W        W90354  33.614   0.315   0.461
17930W        W90355  34.996  27.931  10.680
17931W        W90356   8.115  36.574  13.231
17932W        W90357  22.459   2.945  13.067
17933W        W90358  44.293  18.082  14.890
17934W        W90359  35.155  33.830  10.963
17935W        W90360  42.958   5.646  13.443
17936W        W90361  34.411  43.755   4.370
17937W        W90362   7.381   9.661  13.927
17938W        W90363  15.627  27.212  11.915
17939W        W90364  27.506  32.880   2.199
17940W        W90365  13.545  23.444   4.104
17941W        W90366  21.139   2.411   0.726
17942W        W90367   6.415  13.771  11.999
17943W        W90368  21.616  11.757  13.612
17944W        W90369  13.914  32.450   1.988
17945W        W90370   8.588   0.296   3.669
17946W        W90371   1.031   7.724   3.747
17947W        W90372  29.026  23.532  13.976
17948W        W90373  40.910   4.351   2.068
17949W        W90374  26.090   9.744   3.165
17950W        W90375  44.466  25.115   2.671
17951W        W90376  15.214  42.042  13.882
17952W        W90377  32.860  11.765  12.035
17953W        W90378   7.404  26.788  11.055
17954W        W90379  21.853  42.497  14.789
17955W        W90380   0.946  37.588  11.939
17956W        W90381  40.544  31.301  14.373
17957W        W90382  43.546  28.139  12.443
17958W        W90383  37.349  38.443  11.840
17959W        W90384  27.458  32.022   2.010
17960W        W90385  10.297   9.358   3.093
17961W        W90386  23.747  15.762  13.582
17962W        W90387  12.284   6.197  12.160
17963W        W90388  32.126  15.559  13.926
17964W        W90389   1.601  38.824   1.225
17965W        W90390   4.421  11.101   1.894
17966W        W90391  16.987  21.238  14.381
17967W        W90392  38.307  19.206  12.980
17968W        W90393   5.406  33.427   1.147
17969W        W90394  31.523  32.514  13.011
17970W        W90395  23.147  13.105  10.657
17971W        W90396  13.566  32.538   2.916
17972W        W90397   0.641  33.852   5.376
17973W        W90398  43.258  40.018  14.486
17974W        W90399  33.995   5.004   4.049
17975W        W90400  23.553  31.595  11.385
17976W        W90401   6.902   0.287  11.895
17977W        W90402  15.156  22.947  14.986
17978W        W90403  40.450  27.573  12.264
17979W        W90404  36.655   6.741  10.798
17980W        W90405  28.775  37.812   0.171
17981W        W90406  14.531  33.071   4.435
17982W        W90407   4.335  44.806  14.961
17983W        W90408   6.978   5.974  13.925
17984W        W90409  37.568  17.370   0.209
17985W        W90410  24.037  17.873  12.103
17986W        W90411  30.678   0.824  13.351
17987W        W90412   9.801   3.308   1.981
17988W        W90413  13.727  39.947   2.351
17989W        W90414   9.172  29.119   3.469
17990W        W90415   5.922  39.763  13.420
17991W        W90416  20.262   3.014   2.814
17992W        W90417  22.828  44.057  11.988
17993W        W90418  11.284  20.226  12.004
17994W        W90419  42.001  14.839  13.318
17995W        W90420   4.177  33.419   3.731
17996W        W90421   4.919  37.923   3.381
17997W        W90422   1.746  43.053   3.183
17998W        W90423  12.210  10.815  10.658
17999W        W90424  39.585  18.031   4.139
18000W        W90425  35.118  17.750   0.677
18001W        W90426  18.445   8.854  14.779
18002W        W90427  33.077  36.835   0.499
18003W        W90428  10.710   9.335  10.992
18004W        W90429   0.998  21.548   1.435
18005W        W90430   6.480  33.513   4.071
18006W        W90431  17.865  37.828  14.543
18007W        W90432  11.908  13.781   2.528
18008W        W90433   5.161  13.326   3.591
18009W        W90434  38.786  26.960   3.951
18010W        W90435  43.482  19.181  14.476
18011W        W90436   5.730  21.548  11.402
18012W        W90437  23.692  23.761   0.261
18013W        W90438  19.270  44.762   0.319
18014W        W90439  12.623   6.805   4.461
18015W        W90440   2.169  29.892  11.463
18016W        W90441   2.148  44.635   9.885
18017W        W90442  21.776  41.787  13.984
18018W        W90443   5.816  12.449   3.043
18019W        W90444  19.125  27.219  11.117
18020W        W90445  42.398  16.076   2.390
18021W        W90446  38.378  15.811  14.956
18022W        W90447   8.021  12.868   1.166
18023W        W90448  39.614  17.050  12.896
18024W        W90449  27.514   6.269   1.185
18025W        W90450   3.724  44.399   4.885
18026W        W90451   3.305  19.064  13.303
18027W        W90452  23.921  43.187   3.878
18028W        W90453  29.218   5.996   3.754
18029W        W90454  37.332  44.485   1.490
18030W        W90455  26.588  35.588   2.765
18031W        W90456  24.107   4.850   4.119
18032W        W90457  19.201  26.026  12.694
18033W        W90458  22.627   0.820  12.929
18034W        W90459   8.397  37.440  11.286
18035W        W90460   6.153  19.220   1.989
18036W        W90461  15.890  41.479   2.675
18037W        W90462  36.169  31.798  13.459
18038W        W90463  23.686   2.402  13.396
18039W        W90464  28.961   9.296  14.927
18040W        W90465  26.274  39.258  14.992
18041W        W90466  11.704  21.148   2.185
18042W        W90467   6.872  39.915   2.282
18043W        W90468   0.380  25.910   0.960
18044W        W90469   4.681  16.091  14.889
18045W        W90470  22.812   4.006   3.330
18046W        W90471   9.325   8.028  14.713
18047W        W90472   1.496  17.090   1.841
18048W        W90473  20.462  34.450  13.486
18049W        W90474  19.046  23.333   4.722
18050W        W90475  13.645  13.377   0.413
18051W        W90476  40.392  21.569  14.792
18052W        W90477  38.798  43.894  11.677
18053W        W90478  18.471  29.921   3.138
18054W        W90479  42.886  35.732   1.831
18055W        W90480  23.403  18.714  12.821
18056W        W90481  17.686  11.686  13.792
18057W        W90482   5.378   6.797  12.376
18058W        W90483  21.171  18.098   3.842
18059W        W90484   9.617  38.517   4.181
18060W        W90485  26.659  19.998  11.456
18061W        W90486   6.910  19.831   4.085
18062W        W90487  38.719   6.640  11.064
18063W        W90488  16.735   0.388   2.721
18064W        W90489  32.910  43.730  11.828
18065W        W90490   6.166  10.565  12.213
18066W        W90491  24.217  30.653  13.325
18067W        W90492  32.967  26.121  14.942
18068W        W90493   0.483   6.227   2.893
18069W        W90494  26.201  26.527   2.440
18070W        W90495  16.174  22.592   2.397
18071W        W90496   1.363   6.756   1.504
18072W        W90497  35.608   1.029   0.464
18073W        W90498  16.358  29.067   4.633
18074W        W90499  27.144  34.988   0.805
18075W        W90500  10.762  14.147   1.134
18076W        W90501  22.624  25.951   1.847
18077W        W90502  31.336  38.878   2.834
18078W        W90503  32.870   3.480  13.031
18079W        W90504  14.320  31.589   0.043
18080W        W90505  34.902  29.448  14.698
18081W        W90506   3.934   9.464  13.013
18082W        W90507  29.643   5.181  11.721
18083W        W90508  43.007  16.022   1.275
18084W        W90509  19.301  25.564  13.892
18085W        W90510   3.223  21.364   3.766
18086W        W90511  36.410  28.790   2.202
18087W        W90512  39.607   5.587   1.077
18088W        W90513   7.214  21.423  10.431
18089W        W90514  39.405  44.533   3.253
18090W        W90515  24.682   9.153  14.846
18091W        W90516  31.737   9.737   3.766
18092W        W90517   6.656  24.985  12.987
18093W        W90518   7.771   4.919  11.570
18094W        W90519  13.645  23.276   4.572
18095W        W90520   2.984   3.503   0.642
18096W        W90521   5.397  28.955   4.144
18097W        W90522   9.424  23.302   3.134
18098W        W90523  25.135  18.454  11.320
18099W        W90524   3.303  22.143   0.246
18100W        W90525   2.845   2.180  13.984
18101W        W90526   9.601  17.719  12.911
18102W        W90527  21.404  14.251   1.206
18103W        W90528  14.789  44.285  10.021
18104W        W90529  28.734  16.369  13.229
18105W        W90530  27.246  39.455   4.195
18106W        W90531  30.427  15.176  13.744
18107W        W90532  14.292  11.363  14.434
18108W        W90533  14.385  39.189  14.965
18109W        W90534  13.307   4.892   2.856
18110W        W90535   5.409  36.323  12.467
18111W        W90536   0.566   2.851   2.263
18112W        W90537  26.109  31.511  13.029
18113W        W90538  40.420  34.562   3.046
18114W        W90539  36.208  35.738  14.241
18115W        W90540  18.747  32.569   4.167
18116W        W90541  43.778  20.185   3.691
18117W        W90542  42.520  27.225  13.594
18118W        W90543  20.536  21.961  11.929
18119W        W90544  34.018   8.684  12.376
18120W        W90545  23.717  40.403   4.557
18121W        W90546   4.790  18.282   2.637
18122W        W90547  41.464  36.513   4.759
18123W        W90548  38.657  11.625  13.177
18124W        W90549  24.693  34.649   2.266
18125W        W90550  26.629   5.231  14.394
18126W        W90551  10.116  14.972  11.596
18127W        W90552  25.582   9.318   3.686
18128W        W90553   8.204  40.123  14.367
18129W        W90554   8.632  35.509   1.327
18130W        W90555  20.335  32.641  13.053
18131W        W90556  42.660   4.412   4.070
18132W        W90557  40.281  27.922   3.641
18133W        W90558  40.500  25.210   1.868
18134W        W90559  23.514  32.194  11.081
18135W        W90560  14.253  41.332   3.425
18136W        W90561  17.211  16.823   0.570
18137W        W90562   7.953  15.136  12.507
18138W        W90563  27.316  29.094  13.908
18139W        W90564  16.777  13.288  14.393
18140W        W90565  11.468  30.836  14.252
18141W        W90566  43.341   7.706  10.058
18142W        W90567  21.125   0.055   4.926
18143W        W90568  30.947  43.929   4.729
18144W        W90569  40.897  36.600   2.399
18145W        W90570   3.859  14.812  14.880
18146W        W90571  19.781  11.814   4.192
18147W        W90572  33.611   4.006   1.362
18148W        W90573  33.617  35.619   2.748
18149W        W90574   5.154  11.875  13.580
18150W        W90575   8.439  18.711  11.668
18151W        W90576  18.568  35.068  12.030
18152W        W90577  40.801  16.891  11.537
18153W        W90578  41.917  21.606  14.533
18154W        W90579  14.086  40.442  10.791
18155W        W90580  18.190  34.252  12.587
18156W        W90581  26.068   0.249   4.077
18157W        W90582  17.153   7.911   1.730
18158W        W90583  36.072  13.616   1.793
18159W        W90584  17.152  33.628   4.380
18160W        W90585  12.172  18.821  12.144
18161W        W90586  43.690  17.015  14.001
18162W        W90587  34.985  39.820   1.287
18163W        W90588  42.583   8.408   4.611
18164W        W90589  36.023  14.829  12.504
18165W        W90590  31.201  13.885  14.818
18166W        W90591  22.064   7.312  13.865
18167W        W90592  33.151  42.280  14.416
18168W        W90593  16.263  13.261  14.525
18169W        W90594  30.544  36.606  12.442
18170W        W90595   4.504  28.133   5.005
18171W        W90596   0.204   6.378   3.373
18172W        W90597   1.678  16.078   1.022
18173W        W90598  36.359  17.978  11.927
18174W        W90599   7.928  16.733  10.617
18175W        W90600   6.168  21.023   4.840
18176W        W90601  17.133   1.428   2.387
18177W        W90602  10.474  16.092  13.069
18178W        W90603  18.269  24.011   0.303
18179W        W90604  33.866  22.103  14.881
18180W        W90605  13.706  32.874  13.823
18181W        W90606  16.386  29.453  13.972
18182W        W90607  40.112  32.081  12.401
18183W        W90608   7.222  31.996  11.462
18184W        W90609  37.073  31.869   4.980
18185W        W90610   2.813   9.572  14.831
18186W        W90611  11.273  23.473  10.924
18187W        W90612  29.053  11.395   2.158
18188W        W90613  27.058  23.039   3.307
18189W        W90614  41.042  17.713  13.865
18190W        W90615  18.621  15.725   0.745
18191W        W90616  30.684  36.313   2.229
18192W        W90617  29.069  21.697  11.892
18193W        W90618  31.223  32.360  12.408
18194W        W90619  17.867   7.455   2.244
18195W        W90620   8.366   2.439   3.240
18196W        W90621   7.190  28.293  13.543
18197W        W90622   6.578   3.105  12.481
18198W        W90623  36.107   1.781  12.037
18199W        W90624  12.901  17.329  13.939
18200W        W90625  41.785   0.385  12.869
18201W        W90626  33.150   3.756   1.324
18202W        W90627  35.395  44.892  13.928
18203W        W90628  41.834  44.881  14.598
18204W        W90629  11.376  35.369   4.331
18205W        W90630  19.706  19.853  11.395
18206W        W90631  30.807  32.662  13.719
18207W        W90632  30.001   6.894   4.217
18208W        W90633   5.874  44.827   2.765
18209W        W90634  23.581   1.974   3.835
18210W        W90635  39.680  13.784  11.145
18211W        W90636  26.903  18.692  10.631
18212W        W90637   5.847   7.310   4.133
18213W        W90638  30.851   9.055   1.795
18214W        W90639  34.899  35.373  11.154
18215W        W90640  40.901  40.020   4.644
18216W        W90641  25.179  28.006   4.192
18217W        W90642  34.341  42.261   4.360
18218W        W90643  19.680  27.545   0.898
18219W        W90644   9.030  40.273   3.705
18220W        W90645  16.575  21.147  11.161
18221W        W90646  39.384   1.797   0.835
18222W        W90647   6.273  11.793  10.081
18223W        W90648   0.213  43.697   2.159
18224W        W90649  22.174  38.954  14.005
18225W        W90650  23.272  25.681   2.792
18226W        W90651   5.698  27.992  11.571
18227W        W90652  10.377  18.615   4.432
18228W        W90653  29.340  39.428  11.801
18229W        W90654  18.190   8.822  14.293
18230W        W90655  25.812  37.660   3.581
18231W        W90656  22.519  34.036   4.177
18232W        W90657  26.270  20.616   2.399
18233W        W90658  32.222  19.992   4.327
18234W        W90659  31.915  16.862   3.748
18235W        W90660  14.630  34.863   1.976
18236W        W90661  44.842  28.737  11.560
18237W        W90662  22.081  37.648   3.056
18238W        W90663  38.865  21.848   1.832
18239W        W90664  44.784  17.122  12.326
18240W        W90665   7.726  34.151   3.634
18241W        W90666  27.938  38.434   3.816
18242W        W90667  39.325  32.855   3.739
18243W        W90668  30.090  27.760   1.062
18244W        W90669  15.887  32.191   0.643
18245W        W90670  20.992  16.304   3.357
18246W        W90671   3.757  18.979  12.944
18247W        W90672  28.273  23.729   3.775
18248W        W90673  33.650  32.521   3.691
18249W        W90674   7.906  29.502  12.524
18250W        W90675  21.054  44.057   1.260
18251W        W90676  32.093   3.930  13.096
18252W        W90677   6.950  24.377  10.944
18253W        W90678   2.675  12.460   0.310
18254W        W90679  42.770  10.931   1.619
18255W        W90680  17.489  27.871  12.098
18256W        W90681  19.235   5.702  14.417
18257W        W90682  10.326  29.153   1.057
18258W        W90683  29.331  18.062  12.560
18259W        W90684  12.870  14.094   0.272
18260W        W90685  40.518  10.566   3.708
18261W        W90686  17.208   0.188   1.641
18262W        W90687   9.861  32.889  14.548
18263W        W90688  43.861  16.072  12.202
18264W        W90689  21.312  27.425   2.448
18265W        W90690  43.183  27.630   4.039
18266W        W90691  35.312  15.208   0.081
18267W        W90692  30.600  37.863   1.937
18268W        W90693  21.144  12.314  11.162
18269W        W90694   9.263  26.948  11.453
18270W        W90695  16.726  19.611  14.224
18271W        W90696  41.829  34.071  10.523
18272W        W90697  30.443  21.110  10.968
18273W        W90698   4.834  35.671   4.123
18274W        W90699  29.426  11.312  10.818
18275W        W90700  35.481  17.290   3.325
18276W        W90701  31.427  31.925   1.899
18277W        W90702  26.723  36.374  13.791
18278W        W90703  38.834   7.384  10.126
18279W        W90704  20.552  18.056  12.144
18280W        W90705  26.689  23.686   3.764
18281W        W90706  40.605  33.791  13.640
18282W        W90707   0.725  20.194  10.960
18283W        W90708  36.719  17.290  11.439
18284W        W90709  25.220  34.688   1.146
18285W        W90710  13.311  36.325   3.660
18286W        W90711   4.166  35.919  14.034
18287W        W90712   4.702  22.124   0.193
18288W        W90713   1.280   6.253  11.953
18289W        W90714  44.417   7.206   4.082
18290W        W90715  13.086  13.094   4.829
18291W        W90716  44.982  12.863  12.074
18292W        W90717  24.879  20.907  12.497
18293W        W90718  29.613  26.284  12.843
18294W        W90719   9.631   2.404  14.250
18295W        W90720   8.766  37.951   2.302
18296W        W90721  19.749  40.035  14.372
18297W        W90722  16.080  36.909  12.413
18298W        W90723   9.205   3.421   4.989
18299W        W90724  39.290  32.249   4.586
18300W        W90725  21.794  40.080  12.016
18301W        W90726  24.721  32.065  10.228
18302W        W90727  22.719  10.009  14.970
18303W        W90728  24.261  22.547  12.128
18304W        W90729  36.464  30.645   2.925
18305W        W90730  30.925  28.035  14.108
18306W        W90731  36.131  40.188  13.126
18307W        W90732  25.729   4.051  11.601
18308W        W90733  31.562  40.363  12.811
18309W        W90734  38.799  40.345  13.406
18310W        W90735  12.877  16.349  12.091
18311W        W90736   2.906   9.802   1.662
18312W        W90737  12.577  27.488   1.742
18313W        W90738  22.950   5.701  14.864
18314W        W90739  28.219   1.897  11.287
18315W        W90740  13.281  25.526   0.912
18316W        W90741  15.209  21.595  10.875
18317W        W90742  12.294  23.148   1.026
18318W        W90743  16.147  30.488  11.204
18319W        W90744   8.170   9.164   3.730
18320W        W90745  27.528  22.191   3.069
18321W        W90746   7.120  39.129   3.381
18322W        W90747  15.192  37.352  10.874
18323W        W90748   7.859  11.667  13.150
18324W        W90749  37.651  13.418   4.059
18325W        W90750  17.814  37.944  13.056
18326W        W90751  43.408   8.324   0.790
18327W        W90752  31.444  37.427   2.135
18328W        W90753   2.534  38.977   3.763
18329W        W90754   3.385  24.923   0.721
18330W        W90755   1.005   9.759   3.231
18331W        W90756  28.649  11.346   1.358
18332W        W90757  15.170  40.770   2.761
18333W        W90758  23.746  42.289   4.328
18334W        W90759  34.397  40.786  10.752
18335W        W90760   2.391  28.194   2.400
18336W        W90761  20.759  22.224   3.860
18337W        W90762  21.484  34.502   3.826
18338W        W90763  11.722  26.841   4.629
18339W        W90764  35.196  31.579  12.600
18340W        W90765   4.951  32.481   3.834
18341W        W90766  32.568  34.839  10.339
18342W        W90767  16.655  32.978  10.665
18343W        W90768  23.051  32.615  13.989
18344W        W90769  37.175   0.380  14.946
18345W        W90770  44.540  11.202  11.539
18346W        W90771  41.929  15.856  12.447
18347W        W90772   6.945  15.867   2.748
18348W        W90773  31.151  39.423   1.232
18349W        W90774  14.160  26.019  13.049
18350W        W90775   7.707   4.218   4.909
18351W        W90776  19.022   5.820   1.125
18352W        W90777  11.292  23.917  12.212
18353W        W90778  21.205  19.260  11.178
18354W        W90779   0.980  28.380   3.995
18355W        W90780  44.361  40.189   0.890
18356W        W90781   6.282   7.481  13.909
18357W        W90782   1.932  32.156   0.885
18358W        W90783  28.402  27.905   4.147
18359W        W90784   8.015   7.724  12.402
18360W        W90785  18.522  35.628   0.350
18361W        W90786  23.096   1.896  14.003
18362W        W90787  25.081  19.698  10.703
18363W        W90788  23.855  12.145  12.542
18364W        W90789   0.207  39.841  13.928
18365W        W90790   8.963  10.914   0.374
18366W        W90791  19.206   5.594   0.061
18367W        W90792   5.045  44.604  14.436
18368W        W90793  36.049  26.941   4.172
18369W        W90794   4.859  18.683   4.254
18370W        W90795   7.217  44.248  13.926
18371W        W90796  29.723  32.531  12.749
18372W        W90797  21.805  30.669   3.148
18373W        W90798   2.639  24.598  12.897
18374W        W90799   8.690  38.349   1.244
18375W        W90800  24.091   0.692  12.148
18376W        W90801  26.684   5.208  11.939
18377W        W90802  38.524  42.808  13.109
18378W        W90803  36.536  39.781  11.481
18379W        W90804  44.606  16.652   4.202
18380W        W90805  16.746  32.460   2.664
18381W        W90806  40.782  18.854  12.377
18382W        W90807  35.106  19.737  13.852
18383W        W90808   9.644  30.692  12.450
18384W        W90809  37.290  14.539   0.392
18385W        W90810  39.513  44.909  11.048
18386W        W90811  42.060  11.245   2.368
18387W        W90812  13.902   5.667  11.276
18388W        W90813  40.013  24.527  12.433
18389W        W90814  31.097  20.258   3.840
18390W        W90815  13.640  33.454  12.969
18391W        W90816   3.004   5.787   0.025
18392W        W90817  44.010  12.623  14.416
18393W        W90818  17.051  43.678   4.082
18394W        W90819   5.429  35.006  12.509
18395W        W90820  23.287  12.119  13.889
18396W        W90821  25.569  25.554  12.044
18397W        W90822  14.046   9.496   4.995
18398W        W90823  24.614  26.981  14.283
18399W        W90824  23.166  11.652  14.688
18400W        W90825   7.063   6.413   4.466
18401W        W90826  15.701  23.108  13.815
18402W        W90827  33.646  29.562   0.318
18403W        W90828  31.766  14.592  13.390
18404W        W90829  25.640   0.610  13.946
18405W        W90830  13.990  21.847   2.335
18406W        W90831  25.454  31.743  11.133
18407W        W90832   5.617   6.214  10.762
18408W        W90833   6.307   5.531   2.804
18409W        W90834  38.270   0.985   1.732
18410W        W90835  12.395  19.270   3.892
18411W        W90836  24.993  33.104  11.364
18412W        W90837  15.364  30.443   4.652
18413W        W90838  27.567  34.524   3.974
18414W        W90839  25.227  13.608   0.889
18415W        W90840  33.973  28.164  11.079
18416W        W90841  37.952  40.607   0.811
18417W        W90842  10.574  19.124  14.589
18418W        W90843  42.216   9.684   1.729
18419W        W90844  18.543  19.580   1.251
18420W        W90845  42.948  41.733  14.412
18421W        W90846  25.185  40.636  11.220
18422W        W90847   0.886  16.914   3.909
18423W        W90848   4.876  19.216   4.130
18424W        W90849   5.893   6.442   1.424
18425W        W90850  42.930   3.875   3.336
18426W        W90851  19.320  40.416  13.445
18427W        W90852  43.756  40.303   4.798
18428W        W90853  40.896  36.984   0.321
18429W        W90854   1.558  12.677  13.516
18430W        W90855  43.417   1.565   0.443
18431W        W90856  42.553  42.031  12.183
18432W        W90857  14.091  10.361  11.978
18433W        W90858  11.171   1.920   3.614
18434W        W90859  19.048  20.586   2.761
18435W        W90860  29.713  36.961   3.550
18436W        W90861   6.682  14.195  12.123
18437W        W90862  22.050  42.326  11.975
18438W        W90863  43.367   7.329   1.622
18439W        W90864   0.201  37.629   0.297
18440W        W90865  28.441  25.638   2.197
18441W        W90866  10.842   4.662   3.352
18442W        W90867  28.075  32.866  12.241
18443W        W90868  11.305  43.011   5.010
18444W        W90869  11.316  14.762   0.874
18445W        W90870  10.397   6.444   4.854
18446W        W90871  30.436   2.096  14.362
18447W        W90872   6.310  33.377   1.306
18448W        W90873   7.246  37.128   1.084
18449W        W90874   1.444  43.474   3.261
18450W        W90875  40.906  20.274   0.376
18451W        W90876   9.374  20.635   0.921
18452W        W90877   2.206  41.284  11.304
18453W        W90878  31.358   4.368  13.517
18454W        W90879  35.524  20.248  12.513
18455W        W90880  44.346  38.875   4.045
18456W        W90881  12.825  43.238  13.402
18457W        W90882  37.655   7.647   4.999
18458W        W90883  23.091  38.253  11.700
18459W        W90884  34.304   7.686   2.350
18460W        W90885  23.212  18.310  12.557
18461W        W90886  41.010  27.167  13.775
18462W        W90887  37.493   0.461  13.527
18463W        W90888  23.252  15.893  13.813
18464W        W90889  26.718  10.198  12.121
18465W        W90890   9.277  41.908  10.353
18466W        W90891  12.789   8.349   0.434
18467W        W90892  23.087  16.502   2.150
18468W        W90893  17.576  29.975   3.344
18469W        W90894  22.214  19.530   4.889
18470W        W90895  39.260  29.974  12.373
18471W        W90896   5.945  36.988   2.671
18472W        W90897  11.804  38.326   2.721
18473W        W90898  13.261  18.087   0.884
18474W        W90899   6.873  30.404  10.569
18475W        W90900  22.657  21.804   4.440
18476W        W90901  28.694   4.900  12.319
18477W        W90902  35.566  43.804   0.459
18478W        W90903  33.559  17.795   4.083
18479W        W90904   6.194  13.492  12.901
18480W        W90905  42.398  34.539  12.513
18481W        W90906  25.073  14.148   4.074
18482W        W90907  17.268  17.588   2.835
18483W        W90908  32.190  23.749  10.743
18484W        W90909  13.054  36.076  11.955
18485W        W90910   9.460  12.802  14.841
18486W        W90911  39.827  32.401   1.255
18487W        W90912  13.551  44.760   2.330
18488W        W90913  35.156  41.068  13.960
18489W        W90914  27.448  12.637  11.540
18490W        W90915   8.657  14.920  11.879
18491W        W90916  18.702  36.468   4.637
18492W        W90917  42.390  44.005  14.014
18493W        W90918  44.900  27.877  14.970
18494W        W90919  36.871  15.846  14.481
18495W        W90920   2.418  31.877   0.846
18496W        W90921  16.705  22.348   4.653
18497W        W90922  10.734  12.101   3.266
18498W        W90923  40.748  41.922   1.819
18499W        W90924  30.548  21.493  14.610
18500W        W90925  21.688  40.190  10.718
18501W        W90926  20.418  35.951  10.202
18502W        W90927  18.691   7.786   2.822
18503W        W90928  11.099   7.717  14.833
18504W        W90929  19.510   6.227  13.497
18505W        W90930  44.293  12.372  12.127
18506W        W90931  17.650  20.832   4.843
18507W        W90932   4.723  18.048   4.883
18508W        W90933  44.418   3.821   0.492
18509W        W90934  33.969  34.915  10.953
18510W        W90935  18.041  25.992  12.639
18511W        W90936  33.803  43.030  14.434
18512W        W90937  29.752  28.235   4.451
18513W        W90938  41.841  38.517   0.419
18514W        W90939  37.856   1.901  14.677
18515W        W90940   0.496   4.471  12.383
18516W        W90941  42.060  17.727   1.827
18517W        W90942  27.520   6.319   3.051
18518W        W90943  40.812  41.524  11.975
18519W        W90944  37.944  34.938  11.510
18520W        W90945  39.983  24.665  14.161
18521W        W90946   1.289  24.921   1.475
18522W        W90947  10.637  43.269   2.303
18523W        W90948   7.464  21.507  13.440
18524W        W90949  18.707  19.821  11.197
18525W        W90950  22.688   3.344  14.892
18526W        W90951   2.978  30.140  11.555
18527W        W90952  40.219   9.333   3.687
18528W        W90953  43.796  30.621  10.733
18529W        W90954  38.458   1.847   1.375
18530W        W90955  24.612  25.675   2.680
18531W        W90956  18.979  35.095  14.832
18532W        W90957  37.958  35.024  11.009
18533W        W90958  12.294   1.213   1.701
18534W        W90959  12.261   6.629   4.134
18535W        W90960  36.146  27.820  14.922
18536W        W90961  18.069   6.189  10.419
18537W        W90962  13.848  25.603   1.199
18538W        W90963  22.650  22.142   3.242
18539W        W90964   7.935  40.902   3.997
18540W        W90965  28.158  44.136   3.361
18541W        W90966  23.647   1.757  11.614
18542W        W90967  13.721  20.557  10.976
18543W        W90968  35.079  26.109  11.957
18544W        W90969   0.997  10.896   0.756
18545W        W90970  22.801   1.393  11.717
18546W        W90971   1.445  32.713   1.131
18547W        W90972  25.581  43.415   2.704
18548W        W90973  26.637  15.058  11.737
18549W        W90974   0.736  33.619   0.264
18550W        W90975  12.446  28.147  11.579
18551W        W90976   9.426  36.152  13.047
18552W        W90977  33.321   1.474   3.453
18553W        W90978  35.562  28.536  11.110
18554W        W90979   3.911  22.997   1.273
18555W        W90980  14.521  25.040   4.503
18556W        W90981  39.513  12.254  11.694
18557W        W90982  29.867  40.503  14.793
18558W        W90983  12.176   1.015   2.750
18559W        W90984  22.752  27.161  14.482
18560W        W90985  30.920  37.145   0.644
18561W        W90986  14.872  14.685   1.738
18562W        W90987  13.276  21.310  14.341
18563W        W90988   9.731  42.035  14.813
18564W        W90989  13.672   9.735  12.803
18565W        W90990  39.525  12.393  11.188
18566W        W90991  27.568  11.082  14.853
18567W        W90992  25.514  42.611   1.422
18568W        W90993  40.543  16.341  10.652
18569W        W90994  39.111   3.814   2.820
18570W        W90995   2.647   8.273  14.022
18571W        W90996  15.149  43.085  13.015
18572W        W90997  44.220  22.473  11.665
18573W        W90998  43.106  34.498  13.147
18574W        W90999  40.372  44.393  12.784
18575W        W91000  30.620  35.283  11.177
18576W        W91001   0.789  17.804  14.126
18577W        W91002  11.623  25.738  13.233
18578W        W91003   1.668  17.772  11.163
18579W        W91004  15.893  24.248  14.417
18580W        W91005  33.284   1.214  14.511
18581W        W91006   0.772  25.970  14.505
18582W        W91007  14.250   6.701   2.605
18583W        W91008  20.899  26.648  14.001
18584W        W91009  35.917  29.895  12.330
18585W        W91010   6.251  25.685   0.660
18586W        W91011   4.833  26.734  12.689
18587W        W91012  19.567  23.126   3.445
18588W        W91013  26.585  31.922   0.924
18589W        W91014  34.769  17.603   3.302
18590W        W91015  37.012  33.886   1.878
18591W        W91016  20.948  23.123   1.307
18592W        W91017  42.060  29.580  11.978
18593W        W91018  19.227  10.246  14.431
18594W        W91019   9.309   0.503   3.351
18595W        W91020  10.756  33.968  13.046
18596W        W91021  15.855  25.251  14.269
18597W        W91022  22.475  21.132  12.366
18598W        W91023   8.669  14.086  13.840
18599W        W91024  17.183  34.663  11.035
18600W        W91025  35.653   3.918   0.174
18601W        W91026   5.292  27.408   1.795
18602W        W91027  31.169  44.729   3.753
18603W        W91028  20.406  37.272   2.743
18604W        W91029  21.276  14.813   3.100
18605W        W91030  11.196   4.904   2.758
18606W        W91031  26.498  32.454   0.878
18607W        W91032  28.956  18.289   0.299
18608W        W91033   6.609   9.386  14.756
18609W        W91034  44.376  11.646  13.371
18610W        W91035  31.119  13.783   2.432
18611W        W91036  28.663  31.188  12.006
18612W        W91037   2.035  31.144  12.010
18613W        W91038   9.322  31.519  11.383
18614W        W91039  44.989  35.119   3.681
18615W        W91040  26.690  38.472   3.188
18616W        W91041  29.089  20.123  10.494
18617W        W91042  40.507  42.367  12.856
18618W        W91043   0.870  24.531  14.793
18619W        W91044  19.637   9.525  11.505
18620W        W91045  25.654   8.024   0.377
18621W        W91046  18.157   2.505  13.334
18622W        W91047  35.875  39.655   2.252
18623W        W91048   5.192   3.201   1.251
18624W        W91049  27.366  41.486  12.582
18625W        W91050  28.524  21.118  11.968
18626W        W91051  20.218  11.576   2.538
18627W        W91052  15.713  18.467  13.440
18628W        W91053  36.499   2.316   1.342
18629W        W91054  40.162  35.835   4.588
18630W        W91055  31.727  35.025  11.986
18631W        W91056  15.118  36.497  14.581
18632W        W91057  13.643   1.306   0.934
18633W        W91058  38.836  25.703  14.141
18634W        W91059  35.423  21.901   3.569
18635W        W91060  42.318  24.049  12.160
18636W        W91061  34.037  11.724  14.005
18637W        W91062  33.663   0.512  13.514
18638W        W91063  11.957  43.725  12.913
18639W        W91064   4.454  17.079  12.531
18640W        W91065   5.004  24.547  14.417
18641W        W91066  32.854  29.243   0.694
18642W        W91067  21.266  17.873   4.355
18643W        W91068  17.325  22.270  10.710
18644W        W91069   9.979  26.565   2.214
18645W        W91070  39.164   2.796  14.781
18646W        W91071  39.840   6.435  10.262
18647W        W91072  10.556  33.606   4.039
18648W        W91073  10.395  39.934  13.100
18649W        W91074  18.435  42.669   1.700
18650W        W91075  28.386  39.009   1.518
18651W        W91076  16.174  24.104  12.991
18652W        W91077  21.174  31.019   0.826
18653W        W91078  24.143  35.802  11.508
18654W        W91079  26.076  22.478   0.228
18655W        W91080   8.184  39.886  13.385
18656W        W91081  23.703  28.120   3.379
18657W        W91082  18.761   0.086  13.392
18658W        W91083  24.169  35.705   4.825
18659W        W91084  25.241  17.692   0.464
18660W        W91085  32.828  14.810   3.881
18661W        W91086  32.436  29.222  12.031
18662W        W91087  21.247   6.393  12.128
18663W        W91088  31.548  26.892   3.886
18664W        W91089  20.123  11.313   4.760
18665W        W91090  36.293  42.809   1.857
18666W        W91091  14.134   5.384   3.302
18667W        W91092   3.888  30.687  14.363
18668W        W91093   4.989  19.254  14.838
18669W        W91094  41.618  30.616   2.992
18670W        W91095  33.012  26.924   0.654
18671W        W91096  34.525  14.888   0.916
18672W        W91097  25.533  33.451  13.336
18673W        W91098   2.331  29.571   4.375
18674W        W91099  25.683   1.761  12.244
18675W        W91100   2.940  25.966  10.774
18676W        W91101   3.381   5.937  11.018
18677W        W91102  32.682  39.353   4.511
18678W        W91103  11.781  21.949   2.606
18679W        W91104  22.317   1.818   4.502
18680W        W91105  39.127  36.341   0.303
18681W        W91106  22.727   7.660  13.643
18682W        W91107  17.583  35.409  12.991
18683W        W91108   7.260  19.913   2.879
18684W        W91109  35.150   7.041  11.614
18685W        W91110  33.282  43.707   0.743
18686W        W91111   9.087  26.437  11.218
18687W        W91112  40.672  39.656   3.852
18688W        W91113  10.096  26.098  14.821
18689W        W91114  11.429  35.900   0.263
18690W        W91115  35.777  39.773   0.566
18691W        W91116  43.988  20.219   0.572
18692W        W91117  15.143  26.028  14.142
18693W        W91118  44.814  39.790  11.870
18694W        W91119  22.615  13.041  14.482
18695W        W91120   8.908  26.450  14.714
18696W        W91121   9.826   5.294   4.486
18697W        W91122  13.518  30.591   1.412
18698W        W91123  24.137  27.115  11.371
18699W        W91124  33.910  31.382   4.603
18700W        W91125  13.776  37.816  11.140
18701W        W91126  44.451  30.735  14.481
18702W        W91127  32.062  10.970   0.603
18703W        W91128   3.999   4.516  12.940
18704W        W91129   0.807  21.066   1.465
18705W        W91130  41.890  33.228  14.258
18706W        W91131   4.915  19.829   4.161
18707W        W91132  37.264  24.229   1.839
18708W        W91133  38.045  36.840  11.444
18709W        W91134  24.981   1.948  11.010
18710W        W91135  12.131   7.720   1.304
18711W        W91136  21.826  22.105   3.858
18712W        W91137  20.360   2.656  12.100
18713W        W91138  10.947  39.354  12.500
18714W        W91139  15.618  33.863  11.425
18715W        W91140  39.377   3.634  13.824
18716W        W91141   6.457  27.536   0.071
18717W        W91142  37.214   5.373  11.308
18718W        W91143  41.831  43.777   4.355
18719W        W91144  19.593  40.460  11.129
18720W        W91145   7.437  24.906   3.316
18721W        W91146  26.761  16.744   2.957
18722W        W91147  11.611   1.896  10.710
18723W        W91148  38.508  13.396   0.870
18724W        W91149  16.802  16.546  13.385
18725W        W91150   5.513  16.038  11.622
18726W        W91151  31.148   8.593   4.411
18727W        W91152   9.386  20.624   4.156
18728W        W91153   4.918  28.201   3.755
18729W        W91154  31.391  14.703  14.325
18730W        W91155  36.353   3.125   3.630
18731W        W91156  41.457   4.731   4.578
18732W        W91157  23.596  38.969   1.899
18733W        W91158  13.534  36.918  11.028
18734W        W91159   3.740  11.660   0.303
18735W        W91160  36.949   8.459  10.618
18736W        W91161  29.519  29.742   3.605
18737W        W91162  30.028  39.882   0.288
18738W        W91163  39.248   7.381  11.166
18739W        W91164   3.185   1.464  11.623
18740W        W91165  26.186   2.457   4.233
18741W        W91166  41.899   9.541  12.841
18742W        W91167  42.068  31.359  12.910
18743W        W91168   9.764  44.747  13.854
18744W        W91169  34.499  24.466   4.869
18745W        W91170  27.540  19.204   3.161
18746W        W91171  36.357  22.566   3.649
18747W        W91172   5.510  20.599   4.257
18748W        W91173   3.936  35.632  14.750
18749W        W91174  44.539  30.083  12.661
18750W        W91175  16.584   7.562  11.629
18751W        W91176  19.259  38.813  12.392
18752W        W91177  20.127  25.161   4.546
18753W        W91178  10.493  14.747   0.410
18754W        W91179  19.291   2.797   0.717
18755W        W91180  19.349   1.101  12.136
18756W        W91181  38.809  17.148   0.375
18757W        W91182  14.027   1.337  14.234
18758W        W91183  32.061  29.611  12.060
18759W        W91184  28.698   2.743  13.161
18760W        W91185  10.574   3.416   4.573
18761W        W91186  29.686  29.923   2.718
18762W        W91187  21.920  22.179   2.651
18763W        W91188  22.599  17.640  10.914
18764W        W91189   1.805  28.479   0.778
18765W        W91190  23.789  38.353   3.761
18766W        W91191  37.384  10.827   0.024
18767W        W91192  41.053  19.665  13.832
18768W        W91193   3.952  14.225   3.706
18769W        W91194  42.821   8.960  14.351
18770W        W91195   9.362  13.749   4.834
18771W        W91196   0.911  18.487  12.944
18772W        W91197  42.363   8.420  13.001
18773W        W91198  21.985  28.623  14.033
18774W        W91199  28.274  21.065   4.105
18775W        W91200  28.092  41.401  12.127
18776W        W91201  36.015  23.808   1.410
18777W        W91202  41.530  37.353   5.317
18778W        W91203   6.852  19.700  12.027
18779W        W91204  43.192  23.699   0.732
18780W        W91205   0.927  31.872  11.554
18781W        W91206  11.625  36.147   1.093
18782W        W91207  25.078   5.960   4.513
18783W        W91208  38.835  26.074  10.745
18784W        W91209  32.948  40.552  11.100
18785W        W91210  22.887  11.803  13.731
18786W        W91211  36.401  11.138   0.683
18787W        W91212   9.602  21.750  14.172
18788W        W91213  18.973   2.947  13.270
18789W        W91214   2.743  18.802  14.758
18790W        W91215   3.203   7.684  11.393
18791W        W91216  34.325  31.815   2.928
18792W        W91217   8.258   4.802  11.391
18793W        W91218  40.496  15.668   4.123
18794W        W91219  17.275  28.498  13.290
18795W        W91220  24.592  38.962   4.371
18796W        W91221   8.475  41.969   0.338
18797W        W91222  40.495   7.490  12.073
18798W        W91223  38.335  28.787   2.221
18799W        W91224  14.987  12.274   2.774
18800W        W91225  38.339  41.986  14.146
18801W        W91226   6.343  40.812  13.861
18802W        W91227  36.051  34.375   0.957
18803W        W91228  39.553  43.271   2.172
18804W        W91229   8.444  20.479  13.939
18805W        W91230  20.616  10.659   5.375
18806W        W91231   6.236   5.299   3.257
18807W        W91232   0.177  35.470  10.705
18808W        W91233  24.461  30.520   1.715
18809W        W91234  24.817  18.266   2.859
18810W        W91235  43.445  24.038  14.981
18811W        W91236  25.000  23.812   2.008
18812W        W91237  31.023  41.508   5.142
18813W        W91238  31.936  16.459  13.624
18814W        W91239   3.247  30.401   2.715
18815W        W91240  30.477  43.106   1.294
18816W        W91241  21.684  37.708   3.511
18817W        W91242   2.755  17.312  11.975
18818W        W91243   8.780   9.355   2.200
18819W        W91244  28.185  33.509   1.740
18820W        W91245   8.895  36.552   0.039
18821W        W91246  22.544  18.298   4.680
18822W        W91247  19.140  33.928  12.961
18823W        W91248   3.670   1.803  13.012
18824W        W91249  14.158   6.355   4.191
18825W        W91250  43.986  12.233  14.791
18826W        W91251  29.929   3.970   2.563
18827W        W91252  20.216   0.809   2.612
18828W        W91253   6.206  28.056   5.026
18829W        W91254   0.435  38.285  11.626
18830W        W91255  24.387  12.215   3.598
18831W        W91256  43.516   1.510   4.011
18832W        W91257   7.835  10.597   2.768
18833W        W91258  12.181  10.627  13.865
18834W        W91259  30.519  40.503   2.121
18835W        W91260  29.824   2.611   5.089
18836W        W91261   1.146   5.369   0.321
18837W        W91262  28.533  36.840   0.284
18838W        W91263  13.415  28.439   3.342
18839W        W91264   7.773  24.380   4.524
18840W        W91265  11.343  34.837   1.902
18841W        W91266  27.641  33.825  14.427
18842W        W91267   3.454  30.500  14.096
18843W        W91268   7.240  20.128   1.898
18844W        W91269  43.965  11.179   2.119
18845W        W91270  20.225  12.376   0.405
18846W        W91271   5.187  32.989   1.383
18847W        W91272  11.185  27.222  13.424
18848W        W91273  33.543  38.235   0.161
18849W        W91274  42.638  44.273   2.335
18850W        W91275  22.666  44.015  13.257
18851W        W91276  26.183  11.250   1.226
18852W        W91277   8.750  10.597   1.560
18853W        W91278  20.166  31.465   4.760
18854W        W91279   8.498  30.103  10.991
18855W        W91280  37.504  40.607  14.248
18856W        W91281  24.000  28.491   3.599
18857W        W91282  31.556   1.344  11.210
18858W        W91283  29.166  37.015   0.456
18859W        W91284   7.371  36.646   0.938
18860W        W91285  13.867  34.503  11.154
18861W        W91286  31.424  26.417   1.286
18862W        W91287  26.480   5.751  14.426
18863W        W91288  40.534   1.234  13.795
18864W        W91289  41.424  16.203   1.660
18865W        W91290   1.378   9.819  12.502
18866W        W91291  17.251  32.359   2.483
18867W        W91292  43.163   3.384   4.184
18868W        W91293  38.590  29.594   0.194
18869W        W91294   1.295  32.314  12.005
18870W        W91295  34.570  30.147  14.622
18871W        W91296  17.115   5.413   3.953
18872W        W91297   1.045  21.810   0.312
18873W        W91298  17.162  29.829  13.220
18874W        W91299  15.335  22.041   0.266
18875W        W91300   5.937  28.915  12.092
18876W        W91301  22.990  21.693  10.604
18877W        W91302  26.147  20.647  13.948
18878W        W91303   6.580  42.334  13.800
18879W        W91304  30.145  42.358  13.334
18880W        W91305   4.829  32.273   0.911
18881W        W91306   2.371  24.315  13.283
18882W        W91307  12.876  21.627  12.196
18883W        W91308  14.098   1.546   4.273
18884W        W91309   6.473   6.773   1.959
18885W        W91310  12.367  21.677   4.196
18886W        W91311  32.999  19.642  13.348
18887W        W91312  25.191  10.970   4.192
18888W        W91313   4.935   9.324   1.886
18889W        W91314  30.835  31.144   0.953
18890W        W91315  30.037  20.227   4.761
18891W        W91316  13.230  18.245   2.259
18892W        W91317  14.689  13.814   4.089
18893W        W91318  31.031  35.616   0.864
18894W        W91319  43.961  38.531   3.829
18895W        W91320  34.481  27.944  14.777
18896W        W91321  26.472  44.011  14.019
18897W        W91322   0.946  40.861  10.671
18898W        W91323  40.584  30.432   4.086
18899W        W91324  34.143  30.018   0.657
18900W        W91325  26.933  32.313  12.040
18901W        W91326  24.289  26.919   4.169
18902W        W91327   9.425  24.618  12.981
18903W        W91328  34.774  26.606   3.672
18904W        W91329  15.884   5.793  10.573
18905W        W91330   0.705  25.642  12.417
18906W        W91331   0.469  12.795  12.124
18907W        W91332  32.676  18.464   0.871
18908W        W91333  26.173  31.958  14.353
18909W        W91334  33.721  33.401   3.228
18910W        W91335  20.552  15.425  14.503
18911W        W91336   5.293  21.995  14.383
18912W        W91337  13.598  21.687   4.690
18913W        W91338   8.361  44.467   3.383
18914W        W91339  35.152   7.643  13.574
18915W        W91340  35.111  29.956  13.857
18916W        W91341   3.260  18.191  12.856
18917W        W91342  31.080   3.516   4.060
18918W        W91343  11.702  19.319  12.577
18919W        W91344  22.575  20.534  14.599
18920W        W91345  29.314  28.746  13.530
18921W        W91346  43.253  38.540  13.953
18922W        W91347  39.017  29.905   4.389
18923W        W91348  11.849  23.519   1.820
18924W        W91349   1.994  21.596   4.623
18925W        W91350  24.977  25.096   0.266
18926W        W91351  19.668  18.296   1.318
18927W        W91352   6.164   7.008   0.818
18928W        W91353  20.541   3.734  12.165
18929W        W91354   0.562  36.763   4.549
18930W        W91355  23.749  38.653  14.172
18931W        W91356  23.117   8.785  11.971
18932W        W91357  29.335  41.517   4.559
18933W        W91358  34.830  10.646  14.945
18934W        W91359  12.527  40.383  13.821
18935W        W91360  19.520  41.852   3.772
18936W        W91361  27.934  30.677  12.424
18937W        W91362  23.434  20.379  11.109
18938W        W91363  33.949   7.413   1.370
18939W        W91364  31.119  16.827   0.846
18940W        W91365  40.470  43.319   1.724
18941W        W91366  30.726   3.454   3.639
18942W        W91367   0.489  33.643  13.911
18943W        W91368  11.314  24.191   2.117
18944W        W91369  28.642  43.384   2.351
18945W        W91370  44.543   7.745  13.354
18946W        W91371  40.084   5.468   2.260
18947W        W91372   5.381  29.672  14.957
18948W        W91373  28.714  20.784   0.901
18949W        W91374   4.013  28.935  12.538
18950W        W91375  34.339  24.307   1.614
18951W        W91376  32.443  29.226   2.212
18952W        W91377  35.891  17.710  12.918
18953W        W91378  19.089  40.225   4.720
18954W        W91379  11.036  42.356  12.657
18955W        W91380  18.286  41.105  11.626
18956W        W91381  18.798  43.936   3.332
18957W        W91382  44.741  15.837   4.221
18958W        W91383  25.092  26.281   2.302
18959W        W91384   0.014  23.069   4.077
18960W        W91385  42.787  22.492   0.325
18961W        W91386  31.668  37.926   4.538
18962W        W91387  38.094  42.433   2.717
18963W        W91388  22.931  31.194  12.920
18964W        W91389  40.104   4.347   4.101
18965W        W91390   3.440  32.781  13.962
18966W        W91391  19.087  27.811  14.755
18967W        W91392   0.550  11.024  11.746
18968W        W91393  14.620  41.949   3.329
18969W        W91394  27.707  18.016  13.790
18970W        W91395  28.420   6.931   4.134
18971W        W91396  34.497   5.340   0.544
18972W        W91397  18.187  36.454   2.423
18973W        W91398  35.811  43.973   1.871
18974W        W91399   5.088  36.344  11.087
18975W        W91400  28.688  30.542   3.554
18976W        W91401  19.195  27.512   0.719
18977W        W91402   8.455  30.458   4.185
18978W        W91403  25.369  41.147   1.368
18979W        W91404  12.329  14.559   2.871
18980W        W91405  21.982  27.651   3.167
18981W        W91406  40.512   7.076  14.318
18982W        W91407  36.889   8.092   0.928
18983W        W91408  19.565   7.425   3.725
18984W        W91409  22.899  40.806  13.866
18985W        W91410  11.657  43.903  10.591
18986W        W91411  36.668  31.974   2.628
18987W        W91412  36.731   9.638   4.711
18988W        W91413  21.195  17.001  14.772
18989W        W91414  36.680  13.361  11.172
18990W        W91415  33.194  42.720   3.683
18991W        W91416  19.679  44.838   1.514
18992W        W91417  18.324   3.659  13.914
18993W        W91418   2.932  20.736   3.892
18994W        W91419  27.004  30.788   3.938
18995W        W91420  37.508  27.171  14.801
18996W        W91421  43.059  40.083   4.102
18997W        W91422  10.562  26.580  10.638
18998W        W91423   6.986   3.260  14.384
18999W        W91424  41.891  27.773   0.214
19000W        W91425  14.798  20.085  12.553
19001W        W91426  23.704  32.695   2.786
19002W        W91427  40.527  40.520  12.478
19003W        W91428  10.559  35.566   4.196
19004W        W91429  29.188   3.429  14.899
19005W        W91430  28.159  21.696  12.510
19006W        W91431   4.156  10.107   3.445
19007W        W91432  34.619  21.257  11.550
19008W        W91433  27.448  42.224   1.346
19009W        W91434   8.255  44.579   0.401
19010W        W91435  40.532   5.932  12.068
19011W        W91436  41.261   3.127   3.979
19012W        W91437  39.358  41.278  14.336
19013W        W91438  34.767  35.856  13.568
19014W        W91439   8.887  28.853  11.135
19015W        W91440  34.243  33.492   3.309
19016W        W91441  36.984   0.708  12.741
19017W        W91442  24.098  21.052   4.461
19018W        W91443   6.712   1.368  10.678
19019W        W91444   4.374  31.211  11.145
19020W        W91445  35.918  19.010   2.335
19021W        W91446  25.620  38.911  13.284
19022W        W91447  40.373   9.350  14.919
19023W        W91448  36.484   0.817   3.319
19024W        W91449  22.073  33.732   1.837
19025W        W91450   6.515  13.177  10.277
19026W        W91451   9.040   3.300  14.418
19027W        W91452  26.000  27.101  11.779
19028W        W91453  40.093  36.930   1.367
19029W        W91454  10.426   6.265   3.867
19030W        W91455  10.775  36.509   3.174
19031W        W91456  43.814   7.356  12.411
19032W        W91457   0.265  27.844   0.341
19033W        W91458  22.817  41.556   3.517
19034W        W91459  42.610  24.313   2.724
19035W        W91460  30.514   4.953   5.174
19036W        W91461  26.214   6.754   0.269
19037W        W91462   0.127  39.941   0.231
19038W        W91463  44.516  20.275   1.827
19039W        W91464  38.043   5.332  10.756
19040W        W91465  41.581  14.871  11.546
19041W        W91466  11.699  18.642  10.390
19042W        W91467  42.855  41.459  12.499
19043W        W91468  22.136  43.021  13.323
19044W        W91469  33.190  23.208   2.222
19045W        W91470  44.347  19.783   3.668
19046W        W91471  36.551   1.853   2.391
19047W        W91472  10.581  10.243  10.461
19048W        W91473  17.243   9.963   1.887
19049W        W91474   7.928  44.240  11.261
19050W        W91475   9.686  42.204   2.227
19051W        W91476  19.077   2.343  13.423
19052W        W91477  14.172  26.581  10.058
19053W        W91478  40.375  17.021   3.624
19054W        W91479  18.569  13.673  13.484
19055W        W91480  37.041  18.168  11.124
19056W        W91481  20.728  23.450   2.562
19057W        W91482  17.137  12.646   0.895
19058W        W91483  40.961  18.594   3.311
19059W        W91484  43.339  19.108  10.584
19060W        W91485  11.366  24.876  12.012
19061W        W91486  28.469  30.622  11.064
19062W        W91487   2.749  39.430  13.304
19063W        W91488  44.450  32.083   4.994
19064W        W91489  37.593   4.901  11.357
19065W        W91490  16.265   3.738   2.691
19066W        W91491   0.474  32.495   0.028
19067W        W91492  16.552  32.574  12.158
19068W        W91493  22.929  14.877  11.196
19069W        W91494   9.461  29.543  13.412
19070W        W91495   0.221  43.331  11.178
19071W        W91496  43.839  38.879   4.231
19072W        W91497  11.282   6.095  11.693
19073W        W91498  10.565  30.814   0.368
19074W        W91499  36.123  36.867   3.343
19075W        W91500   6.276  14.147   0.909
19076W        W91501  27.926  29.929   4.928
19077W        W91502  25.080  31.971   0.236
19078W        W91503   7.960  44.109   4.181
19079W        W91504  10.414  17.607  14.326
19080W        W91505  33.119  17.556  13.456
19081W        W91506  31.128  42.072   0.953
19082W        W91507   4.426   8.313  12.213
19083W        W91508  27.660  41.021  13.883
19084W        W91509  34.012  25.533   3.783
19085W        W91510  24.103  11.124  14.169
19086W        W91511  33.618   6.325   0.907
19087W        W91512  32.016  38.499  14.842
19088W        W91513  38.003  40.815   0.314
19089W        W91514  44.373  25.985   1.729
19090W        W91515  23.134  34.499  12.147
19091W        W91516  30.989  44.150  14.026
19092W        W91517  28.889  25.324  13.420
19093W        W91518   6.769   5.740  11.109
19094W        W91519   6.195  29.670  12.553
19095W        W91520  17.103  37.348   0.502
19096W        W91521  24.682   4.753  13.879
19097W        W91522  35.430   5.327   1.263
19098W        W91523  37.081  34.070  14.049
19099W        W91524  44.396   8.904  12.549
19100W        W91525  11.637  17.168  11.268
19101W        W91526   2.724  28.643   2.551
19102W        W91527  44.627   2.870  12.570
19103W        W91528   3.804  29.429   1.728
19104W        W91529  36.088  25.462  12.506
19105W        W91530  16.074  20.505   4.514
19106W        W91531   1.234  34.652   0.900
19107W        W91532  35.390   2.481  11.010
19108W        W91533  26.692  15.130  11.190
19109W        W91534  33.016   7.347   2.937
19110W        W91535  29.887  21.534  11.481
19111W        W91536  20.279  12.690   3.221
19112W        W91537  17.124  11.766   0.424
19113W        W91538  11.701  40.710   3.396
19114W        W91539  38.465   7.182  14.385
19115W        W91540  39.286  32.386  12.434
19116W        W91541  35.160  20.634   1.785
19117W        W91542  38.368  12.853  10.779
19118W        W91543   4.158   8.040  14.797
19119W        W91544   7.077  25.362  14.167
19120W        W91545  27.067  34.475   4.152
19121W        W91546  23.239  42.835  14.058
19122W        W91547   6.333  30.735   2.269
19123W        W91548  43.617  44.233  11.593
19124W        W91549  24.047  31.695  11.360
19125W        W91550  38.869  12.630  13.922
19126W        W91551  43.944  39.873   0.889
19127W        W91552   5.651  27.090   4.440
19128W        W91553  31.404  24.613  12.294
19129W        W91554  25.219  13.322   0.306
19130W        W91555   1.676  10.276   1.778
19131W        W91556  29.354  37.013   0.944
19132W        W91557  32.632  23.530   4.710
19133W        W91558  39.299  25.629  13.862
19134W        W91559   3.282  15.577  11.494
19135W        W91560  28.229  17.769  11.961
19136W        W91561  11.679   8.405  13.863
19137W        W91562  25.387  29.205  11.130
19138W        W91563  12.767  10.119  10.706
19139W        W91564  16.669  12.594  11.977
19140W        W91565  39.476  24.690   0.473
19141W        W91566  12.827  27.019   1.864
19142W        W91567  30.523  25.588   4.137
19143W        W91568  16.810  32.004   0.984
19144W        W91569  17.380  26.434  10.299
19145W        W91570   9.345  25.322   4.762
19146W        W91571   9.307  25.914  10.576
19147W        W91572  33.492   1.411  12.878
19148W        W91573  15.779  26.393  14.808
19149W        W91574  27.831  32.123  14.938
19150W        W91575  21.185   4.888  10.687
19151W        W91576   1.347  12.607  14.012
19152W        W91577   6.510  40.303  11.971
19153W        W91578  20.603   9.681  10.931
19154W        W91579  19.596  29.764  11.446
19155W        W91580  28.166  28.562  12.990
19156W        W91581   4.019  16.729   4.535
19157W        W91582  13.700   3.871  10.810
19158W        W91583   8.225  38.978   2.264
19159W        W91584   5.636  31.469   4.538
19160W        W91585  27.673  21.124  11.631
19161W        W91586  29.426  21.792  13.300
19162W        W91587   7.769   3.538  14.778
19163W        W91588  34.361  34.035   2.651
19164W        W91589  15.166  37.430  11.384
19165W        W91590  36.940  38.332   0.643
19166W        W91591  21.981  19.612  13.980
19167W        W91592  39.544   1.452   1.275
19168W        W91593  18.298  34.408   2.251
19169W        W91594  33.536   2.237  13.846
19170W        W91595  38.858  21.603   3.813
19171W        W91596  25.530  13.629  12.577
19172W        W91597  38.976  22.024   0.720
19173W        W91598   1.409  31.889   3.610
19174W        W91599  38.880  19.566   4.558
19175W        W91600   6.843   6.193   3.182
19176W        W91601  32.817  33.017   1.684
19177W        W91602  38.739  25.113   1.711
19178W        W91603  13.208  31.664   1.309
19179W        W91604  40.414  24.030  14.283
19180W        W91605  42.904   4.105  13.406
19181W        W91606  12.623  30.912   1.238
19182W        W91607  44.404   9.424  12.586
19183W        W91608  36.413  32.075   2.193
19184W        W91609  33.919  28.891  13.039
19185W        W91610   3.232  39.951   3.297
19186W        W91611  10.334  11.429  13.441
19187W        W91612   9.196  31.543  12.557
19188W        W91613  21.673   6.808   0.108
19189W        W91614  29.631   8.353   1.218
19190W        W91615  24.190  12.320  14.391
19191W        W91616  43.176  17.189  10.553
19192W        W91617  25.100  30.785  13.262
19193W        W91618  44.372  22.548   4.590
19194W        W91619  42.955  30.096  14.397
19195W        W91620  17.856  44.363  11.070
19196W        W91621  23.408  35.678  12.219
19197W        W91622   3.524  21.997  10.739
19198W        W91623  34.112  15.117  10.326
19199W        W91624  15.669  23.942   4.539
19200W        W91625  11.006  23.990  14.905
19201W        W91626  42.978  40.385  14.720
19202W        W91627   1.572  17.752   1.442
19203W        W91628  30.615  42.867   3.623
19204W        W91629  29.007  35.977   2.865
19205W        W91630  34.322   8.737   3.436
19206W        W91631  13.259  35.083  14.663
19207W        W91632   2.546  43.026   2.691
19208W        W91633  25.050  37.521   4.928
19209W        W91634  40.352   1.503   3.767
19210W        W91635  11.831  21.572  10.513
19211W        W91636  32.820  11.896   2.184
19212W        W91637  34.268  21.727  13.667
19213W        W91638  40.049  41.396  12.650
19214W        W91639  26.008  43.957   0.307
19215W        W91640   8.325   3.781   0.912
19216W        W91641  39.029  29.933   2.348
19217W        W91642  42.437  15.477   1.863
19218W        W91643  39.526  40.297  14.526
19219W        W91644  42.959  22.756  14.358
19220W        W91645   3.637  22.192   0.852
19221W        W91646  40.928  23.788   0.028
19222W        W91647  11.388  26.928   1.686
19223W        W91648  26.946  33.659  10.064
19224W        W91649   9.722   1.985   2.288
19225W        W91650  10.729  19.376   4.250
19226W        W91651  42.027  21.500   1.370
19227W        W91652  19.583   5.703   2.886
19228W        W91653  43.490  20.675  14.771
19229W        W91654  13.872   2.022   4.125
19230W        W91655   7.158   9.360   3.667
19231W        W91656  25.470  31.179   3.488
19232W        W91657  32.472   2.548  14.957
19233W        W91658  34.133   7.391   0.286
19234W        W91659  44.476  32.465   1.913
19235W        W91660  15.251  12.596  14.357
19236W        W91661  15.710  19.467   3.689
19237W        W91662  31.704  28.527  11.030
19238W        W91663  13.847  17.560   2.177
19239W        W91664  33.687  37.354   0.931
19240W        W91665  33.001  10.317   4.420
19241W        W91666  39.935  29.185   3.315
19242W        W91667  38.757   0.845  11.159
19243W        W91668  31.658  23.997   0.613
19244W        W91669   7.609  15.296   3.318
19245W        W91670  24.659  41.782   4.565
19246W        W91671  21.287  10.092  13.921
19247W        W91672  12.177  32.518   4.250
19248W        W91673   6.122   8.772   0.179
19249W        W91674  29.079  37.810   3.302
19250W        W91675  41.984  34.797   3.789
19251W        W91676   7.877  33.100   0.317
19252W        W91677  33.401  11.971  11.534
19253W        W91678  23.034  24.276  12.117
19254W        W91679   6.044  39.862   0.775
19255W        W91680  31.605   8.075   2.195
19256W        W91681  21.094   4.584  11.690
19257W        W91682  14.584   2.970  14.079
19258W        W91683  31.986   3.713  13.990
19259W        W91684  16.750  28.127  11.221
19260W        W91685  29.656  11.762  10.700
19261W        W91686  29.007  30.698   2.696
19262W        W91687   6.331  15.675  12.943
19263W        W91688  18.217  39.276   3.083
19264W        W91689  38.611  20.175   1.122
19265W        W91690  26.212  44.406  13.560
19266W        W91691  14.838   1.382  11.962
19267W        W91692  20.913   6.542   2.808
19268W        W91693   6.354  40.904   4.530
19269W        W91694  18.596  13.856   0.340
19270W        W91695  17.212  34.593   0.889
19271W        W91696  23.095  14.729  11.682
19272W        W91697  19.618  42.448   2.614
19273W        W91698  14.599  22.485  10.722
19274W        W91699  44.834  26.640  10.919
19275W        W91700  44.499  19.630  12.959
19276W        W91701  18.540   3.391   0.324
19277W        W91702  30.596  19.950  11.687
19278W        W91703  34.332  33.197  11.858
19279W        W91704  12.440  31.386   0.378
19280W        W91705  12.164  44.532   1.148
19281W        W91706  42.100  28.984   3.129
19282W        W91707   5.970  23.730   4.979
19283W        W91708   4.225  19.813   3.762
19284W        W91709  24.624   2.058  14.883
19285W        W91710   0.382   7.786  10.944
19286W        W91711  13.735  44.430  11.915
19287W        W91712  13.553  19.803   4.274
19288W        W91713  18.572  32.788   4.598
19289W        W91714  14.612   6.264   0.431
19290W        W91715  21.278  12.570   3.198
19291W        W91716  33.665  16.560   0.520
19292W        W91717  14.101   3.453   2.788
19293W        W91718  22.542  38.661   0.572
19294W        W91719  34.330  38.568   4.438
19295W        W91720  41.783  24.753  14.320
19296W        W91721   7.048  17.770  14.245
19297W        W91722  35.383   6.152   3.541
19298W        W91723  22.722   5.768  10.738
19299W        W91724  21.656   9.355   3.648
19300W        W91725  33.891  19.614   0.661
19301W        W91726   5.215  31.179   1.418
19302W        W91727   3.792  22.064   0.340
19303W        W91728  34.936  40.832  10.741
19304W        W91729   7.688  18.671  12.347
19305W        W91730  22.729  17.714   4.235
19306W        W91731  16.543  25.534  11.597
19307W        W91732  38.020  42.992  12.950
19308W        W91733  20.617  33.596  11.465
19309W        W91734   0.540  41.045  14.337
19310W        W91735  27.083  36.020  12.949
19311W        W91736  38.283  29.067  12.852
19312W        W91737  37.550  42.167  13.942
19313W        W91738  18.275   6.389   4.574
19314W        W91739  12.171  10.699   2.515
19315W        W91740  39.268  44.426   1.864
19316W        W91741   0.562  23.428  12.392
19317W        W91742  35.358  39.093   3.163
19318W        W91743  40.015  22.066   4.483
19319W        W91744   4.183  24.599  13.078
19320W        W91745  17.020  37.810   2.386
19321W        W91746  38.915  32.895   1.752
19322W        W91747  34.625  11.722   0.451
19323W        W91748  37.561  30.716   4.125
19324W        W91749  13.797  24.631  13.692
19325W        W91750  32.462   4.733  11.894
19326W        W91751   3.045   1.328  13.836
19327W        W91752   7.636  33.906  11.578
19328W        W91753   4.874  23.300  14.750
19329W        W91754   0.943  23.045   3.811
19330W        W91755  28.713  40.853   3.927
19331W        W91756  35.413  27.853   2.680
19332W        W91757  15.575  22.235   3.718
19333W        W91758  17.648  34.924  13.466
19334W        W91759  31.910  41.378  13.259
19335W        W91760  11.434  23.502   3.609
19336W        W91761  11.805  33.943  10.504
19337W        W91762   2.875  10.185  11.462
19338W        W91763   3.168  14.889   2.707
19339W        W91764  31.394  10.968   1.937
19340W        W91765  27.713  22.586  12.533
19341W        W91766  14.665  41.071  12.441
19342W        W91767  41.504  17.980  13.890
19343W        W91768  37.568  17.548  13.308
19344W        W91769  18.568  40.425  11.181
19345W        W91770  38.458  40.754   1.325
19346W        W91771  30.458  12.171  14.265
19347W        W91772  29.576  37.908   1.205
19348W        W91773   7.773  29.953   4.329
19349W        W91774   2.393  33.742  12.695
19350W        W91775   8.194  22.674  11.164
19351W        W91776  22.126  34.126  12.780
19352W        W91777  27.749  10.283   2.822
19353W        W91778   1.245   1.418   3.201
19354W        W91779   7.725  44.161  13.957
19355W        W91780  23.939  15.563   4.216
19356W        W91781  32.039  20.084   0.643
19357W        W91782  31.064  35.071  14.794
19358W        W91783  34.317  27.147   4.701
19359W        W91784  34.418  43.820  12.968
19360W        W91785   5.966  31.060   4.459
19361W        W91786  22.244  16.184  14.995
19362W        W91787  30.191   1.284   4.189
19363W        W91788   1.224  14.386   1.695
19364W        W91789  14.337  29.468   4.410
19365W        W91790   5.735  30.655  12.129
19366W        W91791  29.008   7.124  14.382
19367W        W91792  34.466  29.584   3.022
19368W        W91793  34.782  16.490   1.784
19369W        W91794  28.925  40.997  12.517
19370W        W91795   4.087   3.750   0.520
19371W        W91796  10.687  36.427  12.152
19372W        W91797  12.955  43.807   3.294
19373W        W91798  21.728  42.483   0.830
19374W        W91799  20.988  18.216  10.391
19375W        W91800  17.006  10.144   0.873
19376W        W91801   6.155  13.868   4.228
19377W        W91802  37.182  22.707  12.989
19378W        W91803  36.842   8.754   2.068
19379W        W91804   5.190  39.348  13.170
19380W        W91805  19.609  20.661  10.748
19381W        W91806   6.890  16.692  10.649
19382W        W91807  27.777   9.493  12.056
19383W        W91808  18.371   2.301   4.197
19384W        W91809  27.034  19.304   3.662
19385W        W91810   4.301  41.252  13.952
19386W        W91811   3.998  21.498   1.188
19387W        W91812  29.972  18.115  13.170
19388W        W91813  19.792   1.461  13.971
19389W        W91814   5.477   9.673  11.038
19390W        W91815   8.717  42.941  11.968
19391W        W91816  16.163  44.535  12.071
19392W        W91817  33.429   1.477   3.976
19393W        W91818   9.924  22.249   3.887
19394W        W91819  12.310  29.022   0.286
19395W        W91820  26.919  23.125   0.248
19396W        W91821  27.150  20.162   4.786
19397W        W91822  36.389  32.965  12.830
19398W        W91823   5.391  44.843  12.649
19399W        W91824  26.022  22.551   3.787
19400W        W91825  36.408  11.603   3.308
19401W        W91826   2.555  31.403   3.455
19402W        W91827  39.814   6.434  14.208
19403W        W91828   5.911  32.575   1.746
19404W        W91829  13.604  13.767  10.802
19405W        W91830   5.271  12.243   4.326
19406W        W91831  14.804  27.615  12.857
19407W        W91832  17.335   6.178  12.900
19408W        W91833  14.857  40.962   4.112
19409W        W91834  12.076  27.016  14.892
19410W        W91835   4.827   8.867   2.381
19411W        W91836  34.982   0.726  13.825
19412W        W91837  26.520   8.410   0.386
19413W        W91838  10.336  31.160  12.156
19414W        W91839  15.703  33.205   0.774
19415W        W91840  22.473   7.133  13.573
19416W        W91841  36.495   0.423   1.489
19417W        W91842   7.325  23.202  13.908
19418W        W91843  27.035  30.060  12.290
19419W        W91844  23.511  41.266   2.418
19420W        W91845  42.823  17.679  13.021
19421W        W91846   7.806  26.230  14.411
19422W        W91847  22.946  19.857   0.459
19423W        W91848   2.817  37.407  11.626
19424W        W91849  36.302  16.389   3.821
19425W        W91850  37.258  13.678  13.644
19426W        W91851  29.782  35.608   4.263
19427W        W91852  38.447   6.685  14.341
19428W        W91853  18.436  32.887  10.676
19429W        W91854  27.777  42.543  13.692
19430W        W91855  17.223  39.972  10.530
19431W        W91856  44.123  36.925  12.986
19432W        W91857  39.163  23.307  13.533
19433W        W91858  40.044  26.360   0.894
19434W        W91859  10.615   6.277  12.118
19435W        W91860  26.059  36.109  10.813
19436W        W91861  18.162  42.874  14.830
19437W        W91862  42.627  39.221  14.480
19438W        W91863  42.568  44.321  13.641
19439W        W91864  31.459  28.925   2.288
19440W        W91865  17.593  19.697   2.752
19441W        W91866   7.108  13.613  10.766
19442W        W91867  40.595  33.088   3.241
19443W        W91868   4.095  25.602   4.668
19444W        W91869  18.777  39.360   1.986
19445W        W91870   5.415   5.555   3.743
19446W        W91871  42.819  30.391   3.689
19447W        W91872  34.073  11.605  12.616
19448W        W91873  37.011  16.171  12.682
19449W        W91874  12.400   8.543   0.704
19450W        W91875  27.958  25.440   3.653
19451W        W91876  13.586  33.668  10.202
19452W        W91877  34.295   7.795   5.034
19453W        W91878  20.112  38.941  10.670
19454W        W91879  17.791  30.701  12.500
19455W        W91880  41.443   4.449  13.835
19456W        W91881  43.358  44.791   2.413
19457W        W91882   4.661  20.259   2.797
19458W        W91883   3.902  44.850  13.028
19459W        W91884   6.296  17.045   4.993
19460W        W91885   8.527  26.049   1.729
19461W        W91886  15.442  27.427  13.920
19462W        W91887  24.177  15.571   0.191
19463W        W91888   0.362  16.413  11.035
19464W        W91889   4.256  17.236   3.154
19465W        W91890  36.689  18.106   2.759
19466W        W91891  32.243  28.980   1.784
19467W        W91892  17.227  37.794  10.711
19468W        W91893  42.596  34.098  14.849
19469W        W91894  18.810  37.047   3.454
19470W        W91895   0.642  21.570  10.609
19471W        W91896  29.220  26.602   3.737
19472W        W91897  37.439  18.904  11.435
19473W        W91898   6.675  20.052   4.496
19474W        W91899  25.094  42.445   3.561
19475W        W91900  20.344  33.856  11.138
19476W        W91901  11.056  25.642   4.176
19477W        W91902  20.587  20.815  10.406
19478W        W91903  15.524  11.659  13.768
19479W        W91904  42.117  43.593  11.498
19480W        W91905  43.596  40.404  11.053
19481W        W91906   0.820  15.867  13.124
19482W        W91907   1.777  34.613   3.110
19483W        W91908  34.966   5.176  11.091
19484W        W91909  15.201  31.395  12.938
19485W        W91910  10.814  32.367   1.746
19486W        W91911  44.686  18.076   2.376
19487W        W91912  41.427   9.859   1.266
19488W        W91913  43.760   8.928   4.245
19489W        W91914  33.831  35.479   2.291
19490W        W91915  32.164   4.895   5.000
19491W        W91916  14.265  18.580   0.555
19492W        W91917   6.377   1.311   4.558
19493W        W91918  10.386   2.176  10.059
19494W        W91919  21.538  36.537  13.336
19495W        W91920  18.293  12.171  12.329
19496W        W91921  28.723  17.876  11.820
19497W        W91922  44.965  28.184   2.782
19498W        W91923   4.917   7.210  14.838
19499W        W91924  22.606  16.543  13.958
19500W        W91925  21.212  34.497  12.676
19501W        W91926   3.023   9.383   4.281
19502W        W91927  39.760  40.537   2.626
19503W        W91928  20.158   6.299  14.916
19504W        W91929  11.341   8.664  11.485
19505W        W91930   8.717  41.896   3.341
19506W        W91931  32.173  17.312   4.631
19507W        W91932  33.959  34.656  12.044
19508W        W91933   3.423  18.388   2.326
19509W        W91934   7.924  27.464  13.785
19510W        W91935  16.391  35.961  10.662
19511W        W91936  34.395  44.211   1.946
19512W        W91937  18.168  41.256   1.275
19513W        W91938  14.798   7.620  12.124
19514W        W91939  11.747  42.394  11.459
19515W        W91940  18.662  13.172   1.537
19516W        W91941  41.042   8.641  14.009
19517W        W91942   1.350  12.719   3.357
19518W        W91943  13.116  14.671  11.670
19519W        W91944  18.107  15.707   2.455
19520W        W91945  10.226  14.127   3.825
19521W        W91946  29.468  39.011   5.035
19522W        W91947  38.827  10.573  10.190
19523W        W91948   6.775  21.206  14.840
19524W        W91949   0.014  10.214  12.558
19525W        W91950  29.555  41.841   4.176
19526W        W91951  19.492  44.036  14.785
19527W        W91952  11.241  34.745  10.760
19528W        W91953  26.167   7.103   4.759
19529W        W91954  44.450  11.882  12.089
19530W        W91955  30.790  13.374   2.135
19531W        W91956  11.220  40.600  14.452
19532W        W91957  19.785  43.266  13.483
19533W        W91958  26.149  40.775   2.578
19534W        W91959  30.330  27.539   2.306
19535W        W91960  43.918  32.907  12.807
19536W        W91961  41.801  39.889   1.298
19537W        W91962  28.268  16.986   3.599
19538W        W91963  24.047  21.522   2.759
19539W        W91964  13.284  20.193  12.354
19540W        W91965  24.114  29.503   2.753
19541W        W91966  14.314   6.972   3.583
19542W        W91967  42.165   7.314  14.402
19543W        W91968  18.265  42.399  14.645
19544W        W91969  31.541  25.460  11.440
19545W        W91970   5.799  29.384  14.214
19546W        W91971  35.400   0.431  11.143
19547W        W91972  38.128  36.257   3.325
19548W        W91973  23.993   1.877  14.158
19549W        W91974  44.008  27.561  11.845
19550W        W91975   1.326   3.935   1.735
19551W        W91976   9.152  16.774  14.892
19552W        W91977   5.666  40.043   4.099
19553W        W91978  25.493  12.858  11.115
19554W        W91979  23.842  11.642  13.334
19555W        W91980  29.163  24.137  10.151
19556W        W91981   5.801  10.905  13.085
19557W        W91982  30.077  16.849  12.312
19558W        W91983   2.620  18.660  11.577
19559W        W91984  42.355  23.794   4.884
19560W        W91985  42.000  22.319  11.670
19561W        W91986  33.846  21.739   1.354
19562W        W91987  38.579  21.635   2.792
19563W        W91988  38.106  29.606   3.344
19564W        W91989  19.670  23.994   2.211
19565W        W91990   6.146   0.663  11.099
19566W        W91991  29.622  42.307   4.666
19567W        W91992  32.247  22.146  11.254
19568W        W91993  37.452  32.416   3.591
19569W        W91994  21.913  11.400   1.418
19570W        W91995  28.471  26.634   0.698
19571W        W91996  23.996  22.654   2.184
19572W        W91997  41.987  17.541   0.503
19573W        W91998  29.118  25.156  14.235
19574W        W91999  39.702   4.305   3.152
19575W        W92000  26.178  43.423   0.450
19576W        W92001   5.983   2.981  11.838
19577W        W92002  42.006   1.527  13.569
19578W        W92003   6.364  34.825   5.015
19579W        W92004  19.997  20.780  13.571
19580W        W92005   7.899  28.246  12.005
19581W        W92006  19.162   6.646   3.115
19582W        W92007  31.336  44.346   0.809
19583W        W92008  15.849  21.611   4.330
19584W        W92009  37.042   0.060   2.917
19585W        W92010  15.771  36.118  14.734
19586W        W92011  37.935  26.435   1.449
19587W        W92012  23.034  19.999  11.110
19588W        W92013  25.737  16.843  13.592
19589W        W92014  16.303  42.281   2.750
19590W        W92015  36.110  18.830  10.887
19591W        W92016   9.895  33.224  13.595
19592W        W92017   0.771   8.927  10.116
19593W        W92018  36.915  27.521  13.456
19594W        W92019  10.147  36.601   1.239
19595W        W92020   1.749   0.294  13.417
19596W        W92021  15.330  18.690   1.731
19597W        W92022  19.635  41.461   2.889
19598W        W92023  33.770  12.114  10.567
19599W        W92024   7.888  23.202   3.235
19600W        W92025  34.292  20.052  11.656
19601W        W92026  32.134  14.111  11.191
19602W        W92027   6.703  19.568   3.678
19603W        W92028  31.189  34.580  14.546
19604W        W92029  12.758  20.253  12.491
19605W        W92030  28.912  17.916  11.359
19606W        W92031  34.336  17.096  12.404
19607W        W92032  20.982  19.133   0.252
19608W        W92033  30.426  43.662   3.106
19609W        W92034  26.951   8.250  12.175
19610W        W92035   3.175  13.328  14.812
19611W        W92036  28.484  12.130   3.787
19612W        W92037  33.544  42.949  14.869
19613W        W92038   7.269  30.181  14.768
19614W        W92039  25.987  14.809  14.904
19615W        W92040   2.166  40.811  12.065
19616W        W92041  13.107  28.268  12.016
19617W        W92042  17.484  11.656  13.321
19618W        W92043  39.452  42.392   2.426
19619W        W92044  12.101  36.418  13.945
19620W        W92045  12.658  11.919  11.616
19621W        W92046  23.488   9.221   4.600
19622W        W92047   3.502  41.731  11.978
19623W        W92048  15.255  11.556   2.019
19624W        W92049  28.242  35.338   1.334
19625W        W92050  44.526   9.746  14.457
19626W        W92051  29.546  24.564   4.157
19627W        W92052  25.641  16.299  11.494
19628W        W92053  10.311  21.585   3.289
19629W        W92054   1.746  33.045  13.998
19630W        W92055  11.680  17.174   2.695
19631W        W92056   8.146  14.799   2.118
19632W        W92057  11.617   3.527  11.525
19633W        W92058   7.497  42.391  13.380
19634W        W92059  30.867  14.760  14.371
19635W        W92060  21.243   8.181  12.135
19636W        W92061  18.256  32.317  13.287
19637W        W92062  27.389  33.301  11.686
19638W        W92063  12.341  32.029  14.365
19639W        W92064  27.047   6.427  13.044
19640W        W92065  20.183  26.718   2.822
19641W        W92066  25.239  13.924   2.715
19642W        W92067  16.303  20.607  11.750
19643W        W92068  13.815  23.939  14.445
19644W        W92069  35.840  31.680   4.952
19645W        W92070  40.446  38.311   3.701
19646W        W92071   6.917   4.210  13.017
19647W        W92072  37.414  42.464  11.560
19648W        W92073  38.732  15.714  14.037
19649W        W92074  44.448  12.180  11.641
19650W        W92075  44.215  44.276   2.990
19651W        W92076  39.898  17.792  11.175
19652W        W92077   8.711  27.963  12.872
19653W        W92078  32.011  23.309   4.275
19654W        W92079  22.559  15.647   0.787
19655W        W92080  29.531   0.785  10.778
19656W        W92081  25.408  32.958  12.676
19657W        W92082   0.857  37.571   2.828
19658W        W92083   8.684  40.871  11.552
19659W        W92084  43.438   6.202   2.121
19660W        W92085  32.809  39.053  10.619
19661W        W92086  22.907  15.805  12.334
19662W        W92087  43.723  37.572  11.952
19663W        W92088  29.798  38.471   1.944
19664W        W92089  29.397  15.704   0.990
19665W        W92090  10.296  38.091  14.936
19666W        W92091  40.824  23.602   0.500
19667W        W92092   2.897  27.081  13.108
19668W        W92093  30.497   4.423  10.796
19669W        W92094  30.459  19.778   1.636
19670W        W92095  16.864   9.750   0.547
19671W        W92096  32.444  22.969   0.820
19672W        W92097   6.898   3.349   2.337
19673W        W92098  16.445  16.608  10.926
19674W        W92099  41.504  41.815   1.327
19675W        W92100  14.340  39.067   1.289
19676W        W92101  23.558  11.963   0.398
19677W        W92102  36.125  25.146   0.900
19678W        W92103  14.195  10.490   5.217
19679W        W92104  16.274  36.499   2.082
19680W        W92105  41.107  37.186  14.899
19681W        W92106  39.488  27.163   2.414
19682W        W92107  23.594   8.327  11.732
19683W        W92108  31.009  19.350   2.354
19684W        W92109  44.893  20.748  11.552
19685W        W92110  22.176  15.874   2.940
19686W        W92111  22.559  26.496   1.915
19687W        W92112   1.664  35.635  11.684
19688W        W92113  10.210  31.307  10.987
19689W        W92114  12.317  12.841  13.064
19690W        W92115  10.767   9.774  12.632
19691W        W92116   6.123  44.789   0.309
19692W        W92117  43.346  15.334   1.823
19693W        W92118  32.726  41.735   3.293
19694W        W92119  41.772  19.180   1.871
19695W        W92120   7.825  12.501   1.783
19696W        W92121  32.705  33.532  12.518
19697W        W92122  17.347  15.648  10.587
19698W        W92123  33.543  28.458   3.169
19699W        W92124   5.981  15.273   0.380
19700W        W92125   8.859  19.538   3.291
19701W        W92126  44.457  18.397  14.517
19702W        W92127  22.745  25.544   4.069
19703W        W92128  32.429   3.459   0.409
19704W        W92129  42.729  35.936  14.384
19705W        W92130  10.244   5.624   1.390
19706W        W92131  34.893   0.766   4.676
19707W        W92132  30.609   4.847   0.315
19708W        W92133   8.810  18.784  10.726
19709W        W92134  29.139  23.182  14.583
19710W        W92135   6.475  31.717   0.790
19711W        W92136   0.831  20.458  12.984
19712W        W92137  29.943  41.923   9.946
19713W        W92138  36.051   2.938  13.197
19714W        W92139   8.464   5.418   0.888
19715W        W92140  37.393  33.195  13.824
19716W        W92141  12.224  44.459  14.783
19717W        W92142  22.809   6.711   1.843
19718W        W92143   4.813  28.900  12.086
19719W        W92144   8.420   7.739  12.075
19720W        W92145  32.376   8.259   1.649
19721W        W92146  18.894  44.725  13.805
19722W        W92147  43.502  23.585   3.220
19723W        W92148  36.859   5.818   1.873
19724W        W92149   9.131  34.533   0.641
19725W        W92150  37.261  22.589  11.103
19726W        W92151  38.574  33.818  13.588
19727W        W92152  39.295  23.175   4.252
19728W        W92153  34.209  38.983  12.610
19729W        W92154   2.951  35.428   4.201
19730W        W92155  37.521  14.620  13.146
19731W        W92156  43.869  37.668   0.538
19732W        W92157  36.558  42.288  13.263
19733W        W92158   2.766  12.799   2.818
19734W        W92159  20.278   5.369   3.397
19735W        W92160  27.216  36.079   4.539
19736W        W92161  15.333  40.901   4.343
19737W        W92162  25.221  24.806   2.102
19738W        W92163   8.820   8.901   0.763
19739W        W92164  18.063  15.358   3.746
19740W        W92165  23.536  30.152  11.724
19741W        W92166   4.380  44.351   2.259
19742W        W92167  17.160  15.207  14.045
19743W        W92168  34.372  31.229  12.085
19744W        W92169  10.827  41.453  11.605
19745W        W92170  17.549  13.703  10.501
19746W        W92171  27.283  34.656   2.329
19747W        W92172  33.970   1.502  13.022
19748W        W92173  31.860  23.693  11.149
19749W        W92174  20.646  25.904   2.724
19750W        W92175   2.621  39.849   4.170
19751W        W92176  12.534  36.764  14.028
19752W        W92177  36.793  22.692   4.541
19753W        W92178   8.276  35.830  11.272
19754W        W92179  16.334  42.801   2.851
19755W        W92180  22.980   2.708   1.659
19756W        W92181  41.937  12.796  10.433
19757W        W92182  22.452   0.838   1.209
19758W        W92183   1.650  16.309  14.000
19759W        W92184  18.487  42.041  11.994
19760W        W92185  33.900  13.943  11.684
19761W        W92186   8.352  42.830  14.842
19762W        W92187  19.263  15.666   2.808
19763W        W92188  32.163  31.544  11.444
19764W        W92189   9.892  21.098   1.875
19765W        W92190   4.360  40.851  11.671
19766W        W92191   9.190  18.096   1.421
19767W        W92192  36.064   2.528  12.411
19768W        W92193  27.382  44.501   2.775
19769W        W92194  18.050  32.088   1.829
19770W        W92195  28.998   1.116   4.593
19771W        W92196  41.938   3.487   0.243
19772W        W92197  13.579  39.621  11.679
19773W        W92198  32.501  20.146   1.687
19774W        W92199  43.326  10.328   0.529
19775W        W92200  11.080  12.357   1.199
19776W        W92201  32.492  17.729   1.095
19777W        W92202  31.861  37.855  14.251
19778W        W92203   4.830   6.728  12.524
19779W        W92204   0.291   6.213  13.117
19780W        W92205  22.843  31.364   4.680
19781W        W92206  20.797  11.175  13.415
19782W        W92207  28.734  42.360   2.326
19783W        W92208   1.827   1.136   2.479
19784W        W92209  36.653  44.450   3.673
19785W        W92210   8.856   4.725  12.340
19786W        W92211   1.643  40.551  11.189
19787W        W92212  39.911  23.346  13.714
19788W        W92213  32.875   8.137   1.758
19789W        W92214  29.585  33.778   2.718
19790W        W92215  44.858  39.281  13.523
19791W        W92216  30.211  10.416   3.829
19792W        W92217   9.569  23.998  12.481
19793W        W92218  17.778  23.169   4.351
19794W        W92219  23.929   4.345  10.843
19795W        W92220  27.681  27.590  11.364
19796W        W92221   2.692  29.239   3.670
19797W        W92222   0.945  33.078  12.838
19798W        W92223  43.806  24.231   4.182
19799W        W92224  31.112  34.967   3.196
19800W        W92225  44.358   1.703   2.599
19801W        W92226  37.538  26.413  11.050
19802W        W92227  41.745  16.669   3.367
19803W        W92228  40.076  21.355   9.491
19804W        W92229  18.441  28.943  13.950
19805W        W92230  34.313  12.937   2.621
19806W        W92231   6.784  29.592   3.871
19807W        W92232  40.784  35.403   0.426
19808W        W92233  39.901  37.616  11.171
19809W        W92234   7.427  41.529  13.012
19810W        W92235  13.794  34.656   0.492
19811W        W92236  43.598  14.153  12.517
19812W        W92237   3.627   1.722   4.708
19813W        W92238  18.311  13.662   0.768
19814W        W92239  10.227  13.124   3.663
19815W        W92240  20.132  28.298  12.812
19816W        W92241  41.402  24.606  11.162
19817W        W92242  33.890  23.685  11.844
19818W        W92243   2.347  44.995  12.483
19819W        W92244  35.380  25.150   3.777
19820W        W92245   2.765   0.873   2.310
19821W        W92246   1.785  14.853  12.897
19822W        W92247   4.365  15.951   2.445
19823W        W92248  29.592  36.594   3.917
19824W        W92249   7.359  14.605  12.880
19825W        W92250  12.627   5.622  11.611
19826W        W92251  27.341  44.237   3.208
19827W        W92252  35.949  27.758   2.941
19828W        W92253  26.773  12.194   4.691
19829W        W92254  14.037  37.075   4.532
19830W        W92255  22.162  23.810   3.696
19831W        W92256  44.003  14.305  13.846
19832W        W92257  29.202  35.863  10.267
19833W        W92258   1.795  33.862  11.838
19834W        W92259  12.722  35.495  14.575
19835W        W92260  29.899  40.805   0.390
19836W        W92261  10.787   8.695   4.469
19837W        W92262  34.048  20.971   3.631
19838W        W92263  26.213  22.006  13.945
19839W        W92264  44.113  41.538   2.624
19840W        W92265  30.847   9.921  11.454
19841W        W92266  22.962  39.878   0.948
19842W        W92267   8.123  35.154   1.817
19843W        W92268   5.835  40.918  11.600
19844W        W92269  19.219   0.747   0.374
19845W        W92270  41.814  27.905  14.490
19846W        W92271   4.347  16.868   4.140
19847W        W92272  19.173  41.867   4.155
19848W        W92273  14.171  18.327   2.364
19849W        W92274  21.193   9.043   2.772
19850W        W92275  35.898  34.443   3.642
19851W        W92276  39.458  29.395   1.754
19852W        W92277  27.068  39.265  13.837
19853W        W92278  43.044  43.558   0.361
19854W        W92279   3.375  34.180  11.555
19855W        W92280  24.495  39.875  11.056
19856W        W92281  20.255   7.908  12.516
19857W        W92282  41.041  37.495   2.927
19858W        W92283   3.382  10.434  13.453
19859W        W92284  28.493  12.072  12.147
19860W        W92285   0.682  24.149  14.370
19861W        W92286  18.628   4.607  12.352
19862W        W92287  15.875  33.862   0.238
19863W        W92288  38.468  22.773  12.554
19864W        W92289  37.255  10.720   4.895
19865W        W92290  23.419  44.038  14.767
19866W        W92291  25.678  40.723   4.735
19867W        W92292  10.171  37.451   5.037
19868W        W92293  35.991  41.770   1.842
19869W        W92294  24.008   7.430   5.193
19870W        W92295  43.787  23.225   0.205
19871W        W92296  24.016  33.914  10.873
19872W        W92297   0.362   7.729  12.372
19873W        W92298  33.472   6.089  10.460
19874W        W92299  32.616  44.917   4.689
19875W        W92300  41.365   7.270   3.150
19876W        W92301   3.835  23.136   4.195
19877W        W92302  19.747  26.240   0.769
19878W        W92303  19.012  34.848  12.802
19879W        W92304   3.522   4.790  14.300
19880W        W92305  16.536   8.720  10.869
19881W        W92306  44.868  31.863   1.680
19882W        W92307  30.612  17.283  11.170
19883W        W92308  44.740  28.061  12.102
19884W        W92309  22.511  15.597  13.981
19885W        W92310  21.614  22.872  14.891
19886W        W92311  37.118  40.317   3.356
19887W        W92312  35.541  13.321  12.507
19888W        W92313  18.266  17.468  12.859
19889W        W92314  37.097  21.106  11.183
19890W        W92315  22.463  40.799  11.926
19891W        W92316  14.592  39.460   2.275
19892W        W92317  39.579  20.654   4.817
19893W        W92318  42.752  10.538   4.632
19894W        W92319  23.019  23.069   3.119
19895W        W92320  33.371   8.620   4.147
19896W        W92321  17.731  21.307   1.631
19897W        W92322  28.114  39.523   2.379
19898W        W92323  44.923  36.232  13.598
19899W        W92324   3.773  39.404  12.030
19900W        W92325   8.699  31.460   1.725
19901W        W92326  25.224   7.162  11.641
19902W        W92327  34.376  20.281  12.543
19903W        W92328  38.519  17.854  12.996
19904W        W92329  35.662  41.332  14.826
19905W        W92330  41.050  12.630   4.197
19906W        W92331  28.307  28.223  10.378
19907W        W92332  18.505  12.584  12.139
19908W        W92333  18.654   2.711   3.847
19909W        W92334   4.587   4.651   3.180
19910W        W92335  25.523   7.830   4.461
19911W        W92336  18.179  22.295   3.087
19912W        W92337  22.988  42.852   4.073
19913W        W92338  37.514  41.040  14.547
19914W        W92339  24.982  33.188  10.861
19915W        W92340  29.610  23.111  13.804
19916W        W92341  23.753   4.895   2.854
19917W        W92342  36.618  40.101  11.081
19918W        W92343   8.354  34.085   0.921
19919W        W92344  20.702  14.057  10.455
19920W        W92345  37.127  38.548  12.617
19921W        W92346  22.551  25.629  11.934
19922W        W92347  28.038  33.654   2.222
19923W        W92348   7.569  34.906  13.351
19924W        W92349  10.468  43.876  13.120
19925W        W92350  30.416  29.994  11.608
19926W        W92351  44.496   5.453  11.615
19927W        W92352  42.457  22.511  11.495
19928W        W92353  11.836   0.080   2.840
19929W        W92354  20.333  21.128   0.934
19930W        W92355  29.035  22.589   2.153
19931W        W92356  16.970  44.041  11.043
19932W        W92357   3.720  26.891  13.588
19933W        W92358   9.114  10.301   1.751
19934W        W92359   5.147  39.907   4.047
19935W        W92360  29.102  27.385   1.549
19936W        W92361  35.359   6.355  11.445
19937W        W92362  38.929  42.496   2.291
19938W        W92363  38.471   0.316  13.392
19939W        W92364  19.695  13.249  12.001
19940W        W92365  14.053  28.654   2.806
19941W        W92366  39.992  28.588   2.649
19942W        W92367   5.849  40.839  10.698
19943W        W92368  42.066  14.159   4.877
19944W        W92369   8.713  33.392  13.741
19945W        W92370  15.137  39.334   3.153
19946W        W92371  27.639   2.490   2.257
19947W        W92372  26.025   5.462   0.115
19948W        W92373  19.251  15.353   2.396
19949W        W92374  38.901  35.329   2.414
19950W        W92375  40.198   6.692   4.311
19951W        W92376   0.726  15.318   3.277
19952W        W92377  18.964  25.583  14.328
19953W        W92378  25.642  26.272  13.314
19954W        W92379   0.728   8.661  13.437
19955W        W92380  25.865  18.352  10.544
19956W        W92381  14.112  27.372  13.473
19957W        W92382  27.623  29.541  13.934
19958W        W92383  33.641  34.187  12.400
19959W        W92384  36.044   3.841  12.714
19960W        W92385  20.614  17.565   2.416
19961W        W92386  42.370  40.852  11.326
19962W        W92387  30.039  40.808   4.700
19963W        W92388  24.990   8.481   4.194
19964W        W92389  20.020   8.186  14.452
19965W        W92390  39.473   8.603  14.313
19966W        W92391  13.103  17.210  14.448
19967W        W92392  13.250  22.915  13.158
19968W        W92393   5.221  12.876  11.714
19969W        W92394  24.251  42.746  13.939
19970W        W92395  26.461  41.076  14.765
19971W        W92396  16.817  15.118  14.578
19972W        W92397  18.651  21.055   5.040
19973W        W92398   3.319  27.684  14.007
19974W        W92399  31.983  31.167  13.858
19975W        W92400   9.081  41.352   1.901
19976W        W92401   9.970  25.469  10.967
19977W        W92402   6.276   0.142  14.859
19978W        W92403  21.172  10.617  13.917
19979W        W92404  17.195  44.608   2.779
19980W        W92405  12.859  25.652   2.202
19981W        W92406  34.558  35.039   2.758
19982W        W92407  29.922  32.588   1.221
19983W        W92408  38.731  15.749  14.559
19984W        W92409  41.450  15.411  11.688
19985W        W92410  30.246  12.331   2.573
19986W        W92411  37.865  18.194   4.614
19987W        W92412  34.051   5.799   3.285
19988W        W92413  21.542  18.240   4.612
19989W        W92414  28.470  13.297  10.636
19990W        W92415  42.244  15.743   5.001
19991W        W92416  40.855  33.436  12.406
19992W        W92417   8.871  22.090  13.047
19993W        W92418  33.705  20.294  11.298
19994W        W92419   7.823  26.043   1.734
19995W        W92420  13.400  30.619   2.741
19996W        W92421   0.714  24.903  13.491
19997W        W92422  28.056  43.900   2.908
19998W        W92423  26.116   9.603   1.741
19999W        W92424   2.987   6.233  11.096
20000W        W92425   9.081  17.355   2.709
20001W        W92426  21.103  19.763  14.689
20002W        W92427  39.480  35.963  12.005
20003W        W92428  41.876  22.177  14.776
20004W        W92429   5.191  30.624   0.064
20005W        W92430  26.503  29.479  10.649
20006W        W92431  37.828   3.554  13.845
20007W        W92432  25.110   9.928  12.015
20008W        W92433  40.795  18.608  11.478
20009W        W92434   6.958  11.646   3.224
20010W        W92435  37.463   2.746   4.604
20011W        W92436  19.315   2.679   1.350
20012W        W92437  30.376   9.454   0.823
20013W        W92438  41.916  32.170   0.542
20014W        W92439   9.729  25.775   0.369
20015W        W92440  28.777  15.943   4.463
20016W        W92441  28.055  14.124  13.445
20017W        W92442  41.019  41.757   0.019
20018W        W92443  37.263   8.601   3.372
20019W        W92444  23.674  18.742  11.951
20020W        W92445  38.617  19.670   4.136
20021W        W92446  37.626   0.940  12.402
20022W        W92447  39.931  28.595  12.808
20023W        W92448   6.831  24.695  11.677
20024W        W92449   6.663   8.646   0.287
20025W        W92450  22.392   7.446  13.195
20026W        W92451  42.927  13.624   2.757
20027W        W92452  12.348  17.330   0.014
20028W        W92453  31.615  40.837  14.859
20029W        W92454  35.161  18.791   3.148
20030W        W92455  44.625  13.595   2.377
20031W        W92456  12.807  40.434  13.374
20032W        W92457  16.735  12.172  13.396
20033W        W92458  27.890  39.629   0.318
20034W        W92459  42.403   5.600  14.079
20035W        W92460  22.641   4.505   0.351
20036W        W92461  10.398  22.596  11.553
20037W        W92462  42.961  21.681  12.741
20038W        W92463  35.412  31.476   1.801
20039W        W92464  17.390  41.751   2.999
20040W        W92465  35.790   8.868  11.979
20041W        W92466  20.151  21.286   1.402
20042W        W92467  15.140  29.001  14.558
20043W        W92468   3.346  32.811  12.994
20044W        W92469  33.028  39.245  12.552
20045W        W92470  29.862  27.464   3.831
20046W        W92471   3.149  31.759   5.103
20047W        W92472  28.711  40.427   4.244
20048W        W92473   5.457  17.251  11.076
20049W        W92474  34.517  44.245   2.616
20050W        W92475  40.087   0.053  10.362
20051W        W92476  15.135  37.466   3.595
20052W        W92477  23.538  35.577   0.461
20053W        W92478  16.699  43.245   2.747
20054W        W92479  23.390   9.613   3.285
20055W        W92480   2.194  20.289   0.289
20056W        W92481   1.252  27.486  10.629
20057W        W92482  10.877  19.082  11.019
20058W        W92483  18.148  42.676   3.570
20059W        W92484  44.750  32.089  14.816
20060W        W92485   2.415  20.554  10.457
20061W        W92486   4.447  26.586   3.796
20062W        W92487  44.872  40.046   2.743
20063W        W92488  31.555  35.229   3.285
20064W        W92489   2.660  10.566   2.731
20065W        W92490  20.256  10.663  14.379
20066W        W92491   7.215  14.306  11.058
20067W        W92492  44.924  32.418  14.115
20068W        W92493  34.014   7.862  12.411
20069W        W92494  13.176  44.087   0.853
20070W        W92495  18.280   8.829   0.887
20071W        W92496  15.119  41.154  12.672
20072W        W92497  22.529  38.105   3.330
20073W        W92498  28.479  11.630   1.886
20074W        W92499  39.015   4.245   3.694
20075W        W92500  34.652  39.968   0.879
20076W        W92501  15.286  22.580  12.081
20077W        W92502  25.200  41.409  10.608
20078W        W92503  31.899  39.809  14.034
20079W        W92504  19.963  40.046  11.101
20080W        W92505  32.962  18.300  12.948
20081W        W92506   2.696   6.791  13.549
20082W        W92507  39.855  28.501  11.002
20083W        W92508   7.128  26.558  10.696
20084W        W92509  41.956  44.485   2.744
20085W        W92510   1.823  33.349   3.267
20086W        W92511  12.383  23.524   3.712
20087W        W92512  14.522  43.459   4.148
20088W        W92513  31.375  11.379  10.906
20089W        W92514  17.243  31.158  13.119
20090W        W92515  10.840  17.956   0.852
20091W        W92516   5.888   8.321   4.619
20092W        W92517   3.527  28.999   1.772
20093W        W92518  23.329   0.791   3.805
20094W        W92519  19.390  32.961   4.878
20095W        W92520  16.058  34.010   0.710
20096W        W92521  10.913  26.866   2.464
20097W        W92522  20.538  23.564   4.614
20098W        W92523  17.748  14.482   1.384
20099W        W92524  44.846   9.755  14.877
20100W        W92525  43.464  37.863   3.674
20101W        W92526  41.352  26.955  11.559
20102W        W92527  20.519  24.877   3.646
20103W        W92528  14.568  14.314  13.367
20104W        W92529   1.067   4.226  13.451
20105W        W92530  13.347  13.677   3.910
20106W        W92531  16.338   2.016  11.333
20107W        W92532  11.750  20.035  10.858
20108W        W92533   8.707  17.052  14.901
20109W        W92534  21.690  32.161   3.481
20110W        W92535   0.403   8.161  11.314
20111W        W92536  38.118  16.724   0.823
20112W        W92537  14.361  10.656   0.434
20113W        W92538  15.600   3.285   2.459
20114W        W92539  32.549   5.843  12.179
20115W        W92540   9.829  35.162   3.878
20116W        W92541  21.036   5.672   1.444
20117W        W92542   1.459  42.626   3.088
20118W        W92543  33.661  20.927  13.546
20119W        W92544  39.062  44.743  10.613
20120W        W92545  43.144  23.313  13.324
20121W        W92546  41.134  41.730  11.555
20122W        W92547  43.365  26.119  13.533
20123W        W92548   9.483   9.168  14.370
20124W        W92549  27.704  10.596  14.754
20125W        W92550   8.317  21.280  13.503
20126W        W92551  15.713  12.904  13.013
20127W        W92552  37.971  23.493   3.600
20128W        W92553   5.156  13.311  12.125
20129W        W92554   8.321  32.674   4.102
20130W        W92555  36.942  34.528  12.989
20131W        W92556  15.623  34.150   2.209
20132W        W92557  43.272  18.233  12.591
20133W        W92558  31.501  41.011  14.361
20134W        W92559  39.326  22.568  12.593
20135W        W92560   0.937   4.952   4.674
20136W        W92561  12.074  20.222  13.533
20137W        W92562  12.791  20.665  14.956
20138W        W92563  33.079   2.972  14.547
20139W        W92564  17.049  15.673  12.395
20140W        W92565  41.087   2.835   3.592
20141W        W92566  30.457  42.280   3.398
20142W        W92567  14.630  43.502   0.512
20143W        W92568  18.723  40.989  10.693
20144W        W92569  43.272  32.565   3.841
20145W        W92570  24.640  42.786   0.884
20146W        W92571   3.987  41.584  11.967
20147W        W92572  28.203   1.823   3.618
20148W        W92573   3.682   4.881  14.829
20149W        W92574  22.467   7.073  14.079
20150W        W92575  33.883  12.080   3.551
20151W        W92576  39.891  42.850  12.142
20152W        W92577  20.958  36.604  13.313
20153W        W92578  10.799  19.980  11.884
20154W        W92579  28.040   9.880   3.973
20155W        W92580  11.223  13.644   4.460
20156W        W92581   0.030  20.655   1.229
20157W        W92582  39.390  19.476  12.472
20158W        W92583  37.940  28.011  10.641
20159W        W92584  27.065  29.637   9.602
20160W        W92585  41.684  31.192  13.403
20161W        W92586  10.920   0.470  11.655
20162W        W92587  34.878  41.264   0.337
20163W        W92588  36.789   9.920  14.831
20164W        W92589  41.817  30.210  13.835
20165W        W92590  23.012  36.521  13.428
20166W        W92591   5.330  41.149   2.885
20167W        W92592  18.217  22.721  11.064
20168W        W92593   1.746   1.052   0.969
20169W        W92594  35.551  21.433   1.987
20170W        W92595  13.641  43.844  14.968
20171W        W92596  42.375  33.280  14.445
20172W        W92597  14.335  41.712   5.092
20173W        W92598  12.662  14.340  11.612
20174W        W92599  17.561  43.791  14.349
20175W        W92600  22.664   0.348   1.128
20176W        W92601  28.180  31.399  11.979
20177W        W92602  31.936   5.351   0.432
20178W        W92603  30.923   5.710  14.860
20179W        W92604  23.652   9.589  11.027
20180W        W92605  29.186  13.273  13.832
20181W        W92606  34.167  18.699   1.125
20182W        W92607  44.427  40.372  13.510
20183W        W92608   9.508  44.683  12.737
20184W        W92609  15.291  25.486  11.970
20185W        W92610  38.854  22.546   3.704
20186W        W92611  12.061  28.669   0.007
20187W        W92612  12.083  16.749   4.668
20188W        W92613  39.578  37.125   1.873
20189W        W92614  10.173   5.875   0.364
20190W        W92615   8.781  16.837   1.800
20191W        W92616  11.873  33.523   3.654
20192W        W92617  15.273  23.216  11.548
20193W        W92618  43.443   6.931   0.417
20194W        W92619   1.366   5.752   3.784
20195W        W92620  17.223  34.162   2.758
20196W        W92621  34.294  32.358  13.530
20197W        W92622  36.886  40.506   1.592
20198W        W92623  15.526  14.697   3.136
20199W        W92624   8.289  22.004   2.808
20200W        W92625  18.113  28.523   2.068
20201W        W92626  41.690  41.234   2.677
20202W        W92627  31.009  11.883  14.902
20203W        W92628  27.155  15.701   2.231
20204W        W92629  34.128  41.851  13.741
20205W        W92630  36.044  32.182  12.555
20206W        W92631   3.396   8.907   0.896
20207W        W92632  10.188  41.272   4.897
20208W        W92633  19.959  28.420  10.463
20209W        W92634  30.249  34.483  14.736
20210W        W92635  21.685   9.646  14.987
20211W        W92636   9.643  43.923   4.529
20212W        W92637  27.702  34.304  14.252
20213W        W92638  10.682  39.719   4.569
20214W        W92639  37.328  33.035   1.744
20215W        W92640  14.164   9.024  14.296
20216W        W92641  16.822  40.955  13.254
20217W        W92642  26.019   9.055  11.121
20218W        W92643  13.333   5.884   0.379
20219W        W92644  14.748  35.875   1.819
20220W        W92645  25.465  38.914   4.444
20221W        W92646  42.572  24.560  12.343
20222W        W92647  16.746  35.153   1.924
20223W        W92648   6.332  19.162   1.500
20224W        W92649  37.208   8.230  14.393
20225W        W92650  29.198  37.701   1.482
20226W        W92651  42.760  20.956   0.279
20227W        W92652  30.061  32.287  11.825
20228W        W92653  37.505  42.569   1.383
20229W        W92654  35.489  15.047  10.820
20230W        W92655  21.508   1.252  14.831
20231W        W92656  12.708   2.940   5.023
20232W        W92657   0.435  38.497   1.900
20233W        W92658   6.487   2.291   3.756
20234W        W92659   4.975   2.419  13.836
20235W        W92660  19.904  31.513  12.931
20236W        W92661  12.140  15.072  14.624
20237W        W92662  11.325  40.954   3.649
20238W        W92663  12.321  34.641   4.339
20239W        W92664  28.752  38.016   1.427
20240W        W92665   1.248  25.777  13.863
20241W        W92666   6.507  21.313   3.644
20242W        W92667  12.587  33.541  10.619
20243W        W92668   2.427  43.819   3.162
20244W        W92669   7.573   1.902   3.148
20245W        W92670  36.599  44.725   3.224
20246W        W92671  33.251  24.745   3.204
20247W        W92672  27.012  39.819   1.245
20248W        W92673  14.546   1.471  10.140
20249W        W92674  13.273  14.601   3.871
20250W        W92675  26.592  39.555   1.404
20251W        W92676   8.689  21.753   0.321
20252W        W92677   9.651   2.722  12.335
20253W        W92678  29.120  23.744  14.864
20254W        W92679  15.827   8.160  11.761
20255W        W92680  26.638  39.617   2.878
20256W        W92681  25.801  24.160   1.746
20257W        W92682   2.956  20.292   4.131
20258W        W92683  13.621  22.361   9.703
20259W        W92684   6.424  30.609   1.759
20260W        W92685   4.948  28.417  13.894
20261W        W92686  31.820  20.136   0.172
20262W        W92687  12.231  35.689   2.983
20263W        W92688   3.641  18.620  14.809
20264W        W92689   9.543  43.889  12.889
20265W        W92690  18.505  30.906  12.411
20266W        W92691  11.302   4.704   0.868
20267W        W92692  13.906  44.999   1.254
20268W        W92693  17.906  20.188   1.473
20269W        W92694  11.783  36.790   4.743
20270W        W92695  42.869  24.739   0.018
20271W        W92696  27.279  36.960  10.598
20272W        W92697  23.711  41.061  12.584
20273W        W92698   6.235   9.707   1.985
20274W        W92699  32.091  18.809   3.180
20275W        W92700  29.395  29.933  12.907
20276W        W92701  32.143  43.184   0.083
20277W        W92702  39.759   2.651  11.222
20278W        W92703  23.669   4.749  10.574
20279W        W92704  40.233   6.729  12.569
20280W        W92705  22.969   6.451   2.309
20281W        W92706  17.746  33.474   0.315
20282W        W92707  34.827  17.050  12.588
20283W        W92708  33.546  44.178   0.548
20284W        W92709  28.709  12.562  14.453
20285W        W92710   7.727  38.471   4.164
20286W        W92711  23.172  21.129   2.392
20287W        W92712  23.791  26.513  13.443
20288W        W92713  13.101  23.188  10.936
20289W        W92714   2.889  23.700  14.318
20290W        W92715   1.935  19.816  12.002
20291W        W92716  19.184  14.653   0.686
20292W        W92717   0.870   4.186  12.634
20293W        W92718  30.013  36.337  14.497
20294W        W92719  41.856   6.396   4.703
20295W        W92720   6.069  44.473  11.395
20296W        W92721   6.716  39.538  11.949
20297W        W92722  31.639  41.045  12.971
20298W        W92723  28.042  17.509  13.570
20299W        W92724  30.625  10.658   4.812
20300W        W92725  41.568  16.366  14.871
20301W        W92726  35.103  13.090   4.149
20302W        W92727  42.043  18.139   1.300
20303W        W92728  29.616  39.061  12.032
20304W        W92729  14.577  35.040   2.479
20305W        W92730  12.687  37.030  11.380
20306W        W92731  25.986  30.474   4.755
20307W        W92732  25.688  18.745   2.047
20308W        W92733  30.206  35.302   4.227
20309W        W92734  43.146  44.898   4.860
20310W        W92735  39.406   8.756   1.244
20311W        W92736  38.284  22.656  13.027
20312W        W92737  38.604  41.983   3.924
20313W        W92738  31.960  15.623  11.566
20314W        W92739  32.497  37.297  12.154
20315W        W92740   3.217  33.036  12.514
20316W        W92741   5.750  21.762   4.896
20317W        W92742  28.960  38.021   2.829
20318W        W92743   3.202   1.813  13.930
20319W        W92744  33.318  16.833   0.898
20320W        W92745  27.441   1.188  14.789
20321W        W92746  19.809  20.677  11.232
20322W        W92747  21.479  19.685  12.413
20323W        W92748  23.275  15.151   4.126
20324W        W92749  32.730   5.909  14.502
20325W        W92750   8.372  36.709   0.758
20326W        W92751   9.220  34.626  14.863
20327W        W92752  10.115   5.043   4.997
20328W        W92753  26.942   3.831  12.142
20329W        W92754  35.069  26.803  13.021
20330W        W92755  24.072  42.470  12.014
20331W        W92756  27.087   3.949   0.407
20332W        W92757  19.292  34.906  11.477
20333W        W92758  41.765   9.366   1.649
20334W        W92759  36.169  21.518   2.832
20335W        W92760  42.492   8.640  10.674
20336W        W92761   7.306  14.145   0.757
20337W        W92762  43.291  37.317   1.325
20338W        W92763  37.836  11.940   4.558
20339W        W92764  14.116  33.431  13.726
20340W        W92765   4.733   1.547   0.572
20341W        W92766  20.330  19.203  14.901
20342W        W92767   3.201  24.195   4.596
20343W        W92768  36.118  35.193   4.071
20344W        W92769  14.704  18.761  11.077
20345W        W92770  17.063   8.118  12.151
20346W        W92771  22.039  40.936   4.172
20347W        W92772  16.818   6.108   3.340
20348W        W92773  25.623  41.585   3.647
20349W        W92774   5.092  13.763  11.530
20350W        W92775   9.230  33.500  14.412
20351W        W92776  29.862   4.394  11.196
20352W        W92777  19.312  40.853   3.257
20353W        W92778  38.865  21.114  12.487
20354W        W92779  28.444   5.578  14.807
20355W        W92780  30.183  21.171   3.219
20356W        W92781  44.286  14.520   2.183
20357W        W92782  14.424  10.925  11.118
20358W        W92783  17.161  15.177  12.535
20359W        W92784  12.832  19.095   3.675
20360W        W92785  11.796  16.546   2.406
20361W        W92786   9.727  44.348  13.090
20362W        W92787   2.909  41.832  12.773
20363W        W92788  33.027  22.745  13.362
20364W        W92789  28.034  26.975   3.298
20365W        W92790   3.165  23.685  13.870
20366W        W92791  29.169  18.891  11.186
20367W        W92792  14.253  35.469  12.364
20368W        W92793  29.901   5.698   0.957
20369W        W92794  19.373   3.233   1.350
20370W        W92795  14.049  15.725   1.690
20371W        W92796   9.509  41.711  13.471
20372W        W92797  37.825  28.937   0.459
20373W        W92798  42.978  32.438   3.245
20374W        W92799  17.656   2.386  11.247
20375W        W92800  39.875  16.298   3.734
20376W        W92801  16.538  19.724   1.448
20377W        W92802  22.943  31.632   1.754
20378W        W92803   6.737  44.933  13.599
20379W        W92804   7.083  21.367   1.351
20380W        W92805  26.588   7.093  12.041
20381W        W92806   6.849  34.891  11.540
20382W        W92807  34.165  11.366   3.199
20383W        W92808  27.253  37.134  12.552
20384W        W92809  28.216  32.860  10.938
20385W        W92810  32.636  32.705  13.430
20386W        W92811   5.030  42.848   3.896
20387W        W92812  19.064  32.171  12.917
20388W        W92813  19.620  31.408  12.522
20389W        W92814  42.520  18.804   4.170
20390W        W92815  37.503  41.119   1.517
20391W        W92816  23.590  11.374   3.101
20392W        W92817  21.796  13.815  14.328
20393W        W92818  21.934  31.036  12.380
20394W        W92819  12.080  38.904  13.487
20395W        W92820  43.423   5.446  13.527
20396W        W92821  14.781  37.013   2.727
20397W        W92822  18.876  29.770  14.799
20398W        W92823  16.331   2.770  14.766
20399W        W92824   3.579  18.041  12.450
20400W        W92825  15.627   0.574   1.459
20401W        W92826  26.591  29.991   5.432
20402W        W92827  43.946  20.279   4.687
20403W        W92828  43.421  25.095   4.578
20404W        W92829  40.369  40.629   0.522
20405W        W92830  32.882   5.580  12.966
20406W        W92831   3.282  37.197   0.727
20407W        W92832  26.153  43.891  11.373
20408W        W92833  41.995  16.645  13.762
20409W        W92834   5.551  26.102   4.468
20410W        W92835  38.416  18.728  10.889
20411W        W92836  28.957  38.968   4.301
20412W        W92837  34.159  15.704   0.054
20413W        W92838  13.632  13.748   4.354
20414W        W92839   0.914  12.671  12.312
20415W        W92840  18.087  10.548  14.955
20416W        W92841  21.097  29.354  11.548
20417W        W92842  22.685  18.781   0.023
20418W        W92843  16.356  16.203   1.388
20419W        W92844  30.980  40.804  14.293
20420W        W92845  41.478  36.817   1.586
20421W        W92846   9.727  28.630  13.748
20422W        W92847  27.637  12.978   0.279
20423W        W92848  18.264   3.712  11.015
20424W        W92849  26.769  32.554   5.436
20425W        W92850  32.057  31.594   1.469
20426W        W92851   5.705  31.034  11.086
20427W        W92852  10.246  41.602  12.458
20428W        W92853  23.089   9.447  14.485
20429W        W92854  25.262  28.392  11.428
20430W        W92855  39.832   4.437  12.542
20431W        W92856  24.132   3.219   3.066
20432W        W92857  14.213  24.928   3.228
20433W        W92858  36.404   7.296  13.976
20434W        W92859  34.499  37.374   4.056
20435W        W92860   9.281   6.681   1.431
20436W        W92861   2.944  39.305   1.176
20437W        W92862   2.403  33.465   5.091
20438W        W92863  23.909   7.424   4.244
20439W        W92864  22.044  43.998  12.482
20440W        W92865  22.466  18.205   3.086
20441W        W92866  44.900  19.365   3.136
20442W        W92867  14.496  23.422   1.234
20443W        W92868  36.095  29.394   3.497
20444W        W92869  34.995  20.547  14.459
20445W        W92870   4.469  23.118  14.221
20446W        W92871  20.026  19.017   4.744
20447W        W92872  22.817  30.566   1.474
20448W        W92873  43.817  34.002   9.603
20449W        W92874   4.254  24.226   1.750
20450W        W92875  34.442  35.569  12.453
20451W        W92876  18.533  18.409  12.918
20452W        W92877  25.240  40.506   2.776
20453W        W92878  36.509  10.628  11.621
20454W        W92879  39.784  10.883  14.062
20455W        W92880   5.289  43.070  10.764
20456W        W92881  43.794  31.167  11.608
20457W        W92882  25.538   8.107   3.260
20458W        W92883  27.144  14.891  13.001
20459W        W92884  13.253  39.919   2.121
20460W        W92885  29.936  38.183  11.991
20461W        W92886  27.952   2.359  10.520
20462W        W92887  13.715   2.125  14.714
20463W        W92888   9.173   8.577   2.321
20464W        W92889  23.190  41.962  10.764
20465W        W92890  32.001  26.232  13.007
20466W        W92891   0.266   0.273   1.327
20467W        W92892  20.241   4.770  12.778
20468W        W92893  30.013  26.590  14.797
20469W        W92894  28.582  29.032  11.914
20470W        W92895  35.942  39.857  11.175
20471W        W92896  34.022   6.000  11.496
20472W        W92897  44.392  16.831  12.506
20473W        W92898  42.522  33.368  10.712
20474W        W92899   9.585   2.907  11.315
20475W        W92900  27.039  31.685  11.630
20476W        W92901  43.871  21.185  11.423
20477W        W92902  44.698  26.696  14.311
20478W        W92903  27.131   2.745   1.187
20479W        W92904   2.090   1.776   2.873
20480W        W92905  25.447  35.106  13.541
20481W        W92906  11.384  25.473   4.566
20482W        W92907  44.968  31.045   4.121
20483W        W92908  38.966  20.235   3.651
20484W        W92909   1.950  44.385  13.074
20485W        W92910  37.937  35.134  13.512
20486W        W92911  16.468  40.142  13.372
20487W        W92912  28.002  39.872   4.085
20488W        W92913  22.513  17.679  14.959
20489W        W92914   3.466  39.310   2.881
20490W        W92915  30.155  32.381   1.722
20491W        W92916  38.585  43.889   3.660
20492W        W92917   5.595  34.871   3.133
20493W        W92918  44.384   8.478  11.635
20494W        W92919   4.760  43.349   0.505
20495W        W92920  36.931   1.260  13.971
20496W        W92921  25.995   8.744  14.974
20497W        W92922   0.933  20.969  14.986
20498W        W92923  43.192  32.013  14.908
20499W        W92924  30.019  44.224  10.721
20500W        W92925  16.748  35.412  10.001
20501W        W92926  34.747  16.907  10.394
20502W        W92927   9.895  37.855   0.865
20503W        W92928  14.843  12.546  11.112
20504W        W92929   5.346  33.002   2.467
20505W        W92930  18.129  20.545  13.480
20506W        W92931  26.777  14.743   2.357
20507W        W92932  36.864  36.840   3.631
20508W        W92933   8.102  34.821  11.099
20509W        W92934  16.875  16.806   2.659
20510W        W92935   2.947  12.152  12.421
20511W        W92936  29.202  24.042  13.868
20512W        W92937  12.329  16.208  10.923
20513W        W92938   8.231  14.475  11.981
20514W        W92939   4.436  40.241   2.824
20515W        W92940   8.922   6.459   4.090
20516W        W92941   8.627  27.585   0.999
20517W        W92942  20.859  41.773   1.111
20518W        W92943  40.928  23.877   3.872
20519W        W92944  15.198   4.321  14.013
20520W        W92945  20.505  23.425   1.249
20521W        W92946  33.517   2.371   3.137
20522W        W92947  39.751  22.983   1.822
20523W        W92948  33.995  22.413  12.869
20524W        W92949   8.707  22.182   4.311
20525W        W92950  41.493   1.313  14.805
20526W        W92951  16.755  14.545   3.793
20527W        W92952  31.381  24.121  10.597
20528W        W92953  13.315  25.567   3.922
20529W        W92954  23.447  13.246   0.720
20530W        W92955   1.871  38.622   2.498
20531W        W92956  43.402  35.654  14.878
20532W        W92957  16.511   0.411  14.873
20533W        W92958  42.439  26.682  11.047
20534W        W92959   6.698  36.638  10.960
20535W        W92960  13.907  27.200  13.014
20536W        W92961  20.572  15.028  13.978
20537W        W92962  26.235  28.551  14.462
20538W        W92963  21.286   9.977  12.580
20539W        W92964  41.915  18.559  11.499
20540W        W92965   9.864  33.593   0.227
20541W        W92966   9.768   9.615   2.007
20542W        W92967  33.141  15.430  10.658
20543W        W92968  14.226  31.713  10.759
20544W        W92969   7.211  14.152  13.063
20545W        W92970  18.627  18.101  11.097
20546W        W92971  25.075   2.996  11.119
20547W        W92972   3.410  36.813  10.742
20548W        W92973  12.773  11.083   4.765
20549W        W92974  22.063  24.715   1.052
20550W        W92975  37.541   7.847  11.418
20551W        W92976   1.226   2.783  11.199
20552W        W92977  18.165  15.475   0.559
20553W        W92978  40.539  27.492  11.769
20554W        W92979  28.012  37.605   3.067
20555W        W92980   9.915   3.740  10.959
20556W        W92981  39.419  37.502  10.974
20557W        W92982  40.504  10.436  13.441
20558W        W92983  38.991  29.747  11.077
20559W        W92984  12.912  28.115   4.236
20560W        W92985  12.481  36.186  11.106
20561W        W92986  39.022   6.720  13.832
20562W        W92987  35.466  26.617  10.664
20563W        W92988  21.548  19.638   2.940
20564W        W92989  19.039   2.530   1.835
20565W        W92990   9.869  13.776  13.285
20566W        W92991  37.881  28.456   0.238
20567W        W92992   8.775  27.091   4.386
20568W        W92993  39.299  37.568   4.359
20569W        W92994  27.607  21.531   5.067
20570W        W92995   8.340  35.364  14.375
20571W        W92996  19.664  23.928  14.400
20572W        W92997  14.505  16.556  13.448
20573W        W92998  13.805   1.246   5.587
20574W        W92999   5.391  21.446   2.231
20575W        W93000  10.621  30.539   4.590
20576W        W93001   8.745   2.763   1.482
20577W        W93002  21.544  43.947   0.485
20578W        W93003   5.922  10.667  11.040
20579W        W93004  36.948  40.506   2.864
20580W        W93005  26.379   1.774   1.451
20581W        W93006   9.117  42.289   4.618
20582W        W93007  17.906  24.028   3.694
20583W        W93008  16.572  35.158   3.720
20584W        W93009  28.828  41.394   5.431
20585W        W93010  24.676  30.056  11.004
20586W        W93011  40.349  29.356  12.041
20587W        W93012  34.975   2.423   0.708
20588W        W93013   5.284  12.818   3.650
20589W        W93014  15.127  23.968  11.123
20590W        W93015   3.183   7.088  12.593
20591W        W93016  16.525  13.361   4.498
20592W        W93017  39.456  21.335  12.005
20593W        W93018   8.411  11.084  11.006
20594W        W93019  24.722  43.992  11.572
20595W        W93020  43.869  35.001   3.174
20596W        W93021  25.055  35.903  11.542
20597W        W93022   6.247  34.405   1.230
20598W        W93023  15.807  12.868  12.113
20599W        W93024  31.363  43.769   0.858
20600W        W93025  35.006  29.469  10.848
20601W        W93026  25.416  26.498   1.077
20602W        W93027  31.632   2.727   2.658
20603W        W93028  31.580  25.151  14.335
20604W        W93029  37.980   7.495  10.640
20605W        W93030  32.489   2.326   2.839
20606W        W93031  25.976  28.653  10.759
20607W        W93032  11.266   5.273   3.812
20608W        W93033  39.847   0.951   3.203
20609W        W93034  14.922   3.713  14.588
20610W        W93035  34.121   5.237  11.087
20611W        W93036   7.161  25.253  10.824
20612W        W93037   7.005  25.125   2.307
20613W        W93038  24.296  19.992  12.033
20614W        W93039  38.024  26.562   1.961
20615W        W93040  32.433   5.770   0.832
20616W        W93041  28.582  40.977  13.721
20617W        W93042  32.796   2.937   4.195
20618W        W93043  23.130  36.951  10.555
20619W        W93044  38.438  14.825   3.000
20620W        W93045  21.049  10.868  10.499
20621W        W93046  41.244   0.381   0.233
20622W        W93047  42.739   2.005   3.758
20623W        W93048  26.132  18.633   2.315
20624W        W93049  29.621  22.494   1.331
20625W        W93050  23.500  10.340  12.752
20626W        W93051   4.239  16.353  14.906
20627W        W93052  37.361  36.418   1.257
20628W        W93053  32.374  40.583   3.688
20629W        W93054  15.880  30.303  14.684
20630W        W93055  36.153   6.814   9.561
20631W        W93056  38.625  25.729   0.418
20632W        W93057  21.677   1.515   0.285
20633W        W93058  13.657   8.298   4.068
20634W        W93059   8.659  35.368  12.011
20635W        W93060  34.330  15.579   3.762
20636W        W93061   1.924   1.450  11.477
20637W        W93062  44.378   6.961  10.674
20638W        W93063   1.235   5.379   4.547
20639W        W93064  27.858  15.556   3.674
20640W        W93065   4.765  19.170   1.927
20641W        W93066   5.774  13.175   0.314
20642W        W93067   9.901  23.457   2.911
20643W        W93068  36.934   3.286   1.822
20644W        W93069  21.201  19.187   1.292
20645W        W93070  32.505   3.797  13.882
20646W        W93071  41.877  28.814   2.691
20647W        W93072   8.647   6.454   1.127
20648W        W93073   9.893   4.127   1.786
20649W        W93074  25.077   3.266  11.562
20650W        W93075  13.667  42.838   3.653
20651W        W93076   9.730  18.749  14.056
20652W        W93077  39.290   3.436  11.270
20653W        W93078  34.161  22.145   1.226
20654W        W93079   8.166  40.888   0.496
20655W        W93080  26.618  15.331  12.166
20656W        W93081   1.965  37.456   1.632
20657W        W93082   9.304   2.531   3.067
20658W        W93083  17.030  41.395   3.124
20659W        W93084  34.895  39.890  10.755
20660W        W93085  17.355  13.089  13.458
20661W        W93086  29.566  18.083   0.890
20662W        W93087  21.206   9.476   5.044
20663W        W93088   4.230  44.785   0.488
20664W        W93089  43.232  17.587  12.089
20665W        W93090  36.862  30.958   2.522
20666W        W93091  23.517  19.154  11.520
20667W        W93092  28.338   8.393  13.907
20668W        W93093  11.820  28.411  12.453
20669W        W93094  17.071   0.726  12.463
20670W        W93095  11.140  36.354   4.174
20671W        W93096  26.280  36.144  13.585
20672W        W93097  36.112   6.117  12.618
20673W        W93098  27.577  11.536  11.120
20674W        W93099  38.868  29.925   9.905
20675W        W93100  23.605  33.502   1.652
20676W        W93101  37.987  34.434  11.391
20677W        W93102  43.716  31.907   2.190
20678W        W93103  12.702  10.894   0.866
20679W        W93104  36.966  29.951   0.403
20680W        W93105  42.294  16.127  11.308
20681W        W93106  18.810  23.277  13.442
20682W        W93107  23.177  19.184   3.607
20683W        W93108  43.012  12.368   1.400
20684W        W93109  20.094  26.897  10.888
20685W        W93110  35.644  28.667   3.714
20686W        W93111  22.603  27.545  10.199
20687W        W93112  44.790   7.128  12.396
20688W        W93113  40.572   3.693   3.733
20689W        W93114  34.130  38.953   1.703
20690W        W93115  16.884  15.103   1.423
20691W        W93116  21.476  22.796   3.366
20692W        W93117  32.887  22.265  13.135
20693W        W93118  21.936  13.455   2.785
20694W        W93119  42.098  11.622  12.509
20695W        W93120  29.823  13.527  12.307
20696W        W93121  14.660  33.942   0.830
20697W        W93122  37.882  11.218   1.187
20698W        W93123  14.309   9.306  12.396
20699W        W93124  13.878  27.977  12.002
20700W        W93125  16.679  33.944  13.397
20701W        W93126   1.440  42.850  13.884
20702W        W93127   3.246   0.877  10.921
20703W        W93128  43.400   7.853  14.368
20704W        W93129   1.700  24.259  11.550
20705W        W93130   1.188  38.814  11.396
20706W        W93131  44.207  32.572   2.857
20707W        W93132  32.055  43.880  13.909
20708W        W93133  17.154  14.109   1.858
20709W        W93134   6.779   1.168  11.526
20710W        W93135   2.396  26.265  12.113
20711W        W93136  42.953   8.441  13.395
20712W        W93137  22.012  29.740   2.143
20713W        W93138   1.275   9.127  14.337
20714W        W93139  21.739  28.478  11.994
20715W        W93140  12.808   5.717   0.462
20716W        W93141   8.611   0.999   3.319
20717W        W93142   9.805   0.202  12.975
20718W        W93143  24.544  24.261   0.396
20719W        W93144  41.405  34.554  12.937
20720W        W93145  43.783  27.515  12.463
20721W        W93146  36.897  12.159   1.676
20722W        W93147   4.019  34.367  14.973
20723W        W93148   8.934  42.254  14.693
20724W        W93149  23.748  14.519   1.194
20725W        W93150  34.846  28.140  13.359
20726W        W93151  25.126  32.452  14.538
20727W        W93152  37.799  36.009  13.492
20728W        W93153  35.135  10.791  10.692
20729W        W93154  22.976  25.486   1.153
20730W        W93155  42.267   4.460  12.409
20731W        W93156  23.455   0.927   1.254
20732W        W93157   8.279  25.770  13.527
20733W        W93158  25.692  12.205  12.639
20734W        W93159  23.452   1.994  10.755
20735W        W93160  43.530   2.943  13.468
20736W        W93161  36.746  15.655  13.983
20737W        W93162  22.124  10.654  10.227
20738W        W93163  13.672  32.071   2.300
20739W        W93164  15.585  27.004  11.049
20740W        W93165  25.555  27.687   1.571
20741W        W93166  44.304  39.952   4.745
20742W        W93167  25.962  24.655   4.871
20743W        W93168  14.220  11.654   0.476
20744W        W93169  11.661  40.333   4.188
20745W        W93170  25.135  34.808   2.932
20746W        W93171  24.074  33.621  12.905
20747W        W93172  28.573  10.470  11.410
20748W        W93173  32.057   4.861  11.584
20749W        W93174  20.935  24.014  11.221
20750W        W93175  25.905  25.063  13.349
20751W        W93176  35.618   4.798   3.284
20752W        W93177  23.933  24.012   5.028
20753W        W93178  34.488  37.253   4.553
20754W        W93179  19.530   9.807   1.453
20755W        W93180  44.320   4.362  12.400
20756W        W93181  16.336  29.364   0.322
20757W        W93182   7.334  15.721  12.053
20758W        W93183   1.619  29.159   1.625
20759W        W93184  26.150  22.034   2.359
20760W        W93185  15.277  29.076  13.612
20761W        W93186  38.875  36.248   4.396
20762W        W93187  34.956  17.538  11.635
20763W        W93188  42.960   9.525   1.480
20764W        W93189  21.121   6.674   2.271
20765W        W93190   1.015  40.083   0.044
20766W        W93191  43.039  20.063   0.306
20767W        W93192  10.556  29.596   1.041
20768W        W93193  21.487  33.405   2.047
20769W        W93194   7.526  15.635  13.826
20770W        W93195  27.979  21.009   3.695
20771W        W93196  22.461  18.173  14.882
20772W        W93197  30.532  37.602  10.629
20773W        W93198  38.804   8.169  11.401
20774W        W93199  27.714  13.314   2.363
20775W        W93200  25.684  24.281  11.554
20776W        W93201  34.597  18.040  12.488
20777W        W93202  25.935  10.374  14.775
20778W        W93203  15.820   9.309  10.900
20779W        W93204   8.816  32.791  12.604
20780W        W93205  20.216  11.604  13.952
20781W        W93206  31.580  29.152   4.982
20782W        W93207  32.424  11.739   0.020
20783W        W93208  18.250  15.638   1.505
20784W        W93209   2.542  41.562   3.745
20785W        W93210  19.501   1.886  14.113
20786W        W93211  19.211  39.341   0.368
20787W        W93212   4.301   6.452   3.174
20788W        W93213  17.181   9.121   3.638
20789W        W93214   8.294  25.224   0.746
20790W        W93215  29.120   4.136   4.064
20791W        W93216   1.414  19.065  12.058
20792W        W93217  13.303  32.072  14.051
20793W        W93218   8.839  24.844  14.708
20794W        W93219   4.793   4.958   4.555
20795W        W93220  42.626  35.552   2.774
20796W        W93221  37.496   8.581   4.974
20797W        W93222   7.873  11.673  13.651
20798W        W93223  18.849  36.679  13.697
20799W        W93224  17.340  28.106   1.862
20800W        W93225  29.567  31.037   4.168
20801W        W93226   7.430   3.333   3.430
20802W        W93227   7.360  29.480  10.687
20803W        W93228   1.303   1.037   1.803
20804W        W93229  43.886  44.219   1.328
20805W        W93230   5.268  34.194  10.717
20806W        W93231  18.524  43.961   3.784
20807W        W93232  23.480  14.618   4.368
20808W        W93233   2.953  16.056   0.330
20809W        W93234   9.005   0.875   4.996
20810W        W93235  21.585  27.420   3.437
20811W        W93236  43.953  28.332  13.365
20812W        W93237   4.241  23.173   4.601
20813W        W93238  20.175  28.176  13.308
20814W        W93239   1.398  18.516  14.464
20815W        W93240   7.616  34.847  14.597
20816W        W93241  40.235   0.959  12.458
20817W        W93242  36.982  33.527  14.030
20818W        W93243  36.374  37.005  14.288
20819W        W93244  24.952  11.504  12.085
20820W        W93245  31.436  21.273   0.623
20821W        W93246   2.931  42.355  12.718
20822W        W93247   9.302   1.897   4.159
20823W        W93248  34.107   5.275  12.599
20824W        W93249  17.118  13.713  10.197
20825W        W93250  35.960  22.033  11.316
20826W        W93251  32.896  41.813   4.005
20827W        W93252  36.421  28.280   2.242
20828W        W93253  30.332  26.410  13.973
20829W        W93254  29.122  13.294  14.918
20830W        W93255  26.758  28.040  13.028
20831W        W93256  10.353   7.605   3.995
20832W        W93257  34.322  39.459  12.753
20833W        W93258  30.474  30.273   1.179
20834W        W93259  23.734  18.019   1.431
20835W        W93260  33.346  22.644  11.262
20836W        W93261  14.796  32.339   1.867
20837W        W93262  36.617  18.662   3.353
20838W        W93263   9.780  25.647  14.839
20839W        W93264  43.403  24.013   1.903
20840W        W93265  43.004  34.929   2.868
20841W        W93266  24.703  39.306  13.085
20842W        W93267  42.225   8.893   2.593
20843W        W93268  36.841  32.100  12.574
20844W        W93269  21.017  21.087  12.174
20845W        W93270  20.583   3.327  13.919
20846W        W93271  44.566  16.675   3.660
20847W        W93272  11.717  14.786   3.724
20848W        W93273   6.176  13.306  12.023
20849W        W93274  26.462  24.089   2.735
20850W        W93275  38.095   8.828   3.733
20851W        W93276  42.392  39.351   0.287
20852W        W93277  39.008  13.833  12.384
20853W        W93278  26.457  33.097   2.785
20854W        W93279  19.010   8.186  13.327
20855W        W93280   9.406  42.462   2.770
20856W        W93281   4.056   1.000   4.187
20857W        W93282   9.711  40.710  14.498
20858W        W93283  30.669  18.164  12.265
20859W        W93284  23.530  30.443  14.331
20860W        W93285  33.066  13.466  14.392
20861W        W93286  37.965   5.450  14.958
20862W        W93287   9.634  43.525  14.844
20863W        W93288   2.653   4.408  13.265
20864W        W93289  32.097  21.877   4.236
20865W        W93290  18.587  23.457  10.496
20866W        W93291   5.686  27.609   1.117
20867W        W93292  25.507  44.409  10.705
20868W        W93293  18.840  29.566  11.005
20869W        W93294  23.013  38.649   4.152
20870W        W93295  38.158   6.737   3.220
20871W        W93296  17.982   0.210  10.989
20872W        W93297  28.550   7.174   4.570
20873W        W93298  18.315   4.942  14.261
20874W        W93299  44.911  16.278   4.436
20875W        W93300  35.077   7.862   0.739
20876W        W93301  22.295  39.015   2.888
20877W        W93302  31.037  32.241   1.740
20878W        W93303  41.914  31.440  11.053
20879W        W93304  12.735  12.691   1.383
20880W        W93305   3.806   7.744   4.427
20881W        W93306   6.873  38.496   4.594
20882W        W93307   3.997  43.850  13.959
20883W        W93308  40.744  16.977  13.710
20884W        W93309   3.044  29.895  11.120
20885W        W93310   0.994   9.351   4.626
20886W        W93311  25.998  18.752   0.351
20887W        W93312  15.801  44.413   0.631
20888W        W93313  18.242   3.041  13.411
20889W        W93314   0.090  31.371   3.734
20890W        W93315  16.706  31.484  14.729
20891W        W93316  40.426  23.207  11.564
20892W        W93317   6.614   8.717  13.494
20893W        W93318  33.562  10.488   5.188
20894W        W93319   5.835  44.901  14.865
20895W        W93320  35.516  23.931  13.128
20896W        W93321  25.787  30.515  10.577
20897W        W93322  20.646  31.204  13.921
20898W        W93323  18.137  20.948   0.753
20899W        W93324  27.490  20.853  12.040
20900W        W93325  31.482  27.737  11.455
20901W        W93326  40.576  22.284   1.821
20902W        W93327  36.505   7.786   4.566
20903W        W93328   8.219  13.778   4.320
20904W        W93329  13.879  18.828  14.393
20905W        W93330   3.167   8.266  14.070
20906W        W93331   1.877  44.302  12.132
20907W        W93332  15.031  10.961   0.956
20908W        W93333  34.760  39.468   4.875
20909W        W93334  11.884   8.473   0.676
20910W        W93335   3.298  41.354  11.666
20911W        W93336   0.067  26.237   1.237
20912W        W93337   6.715  26.015  14.584
20913W        W93338  20.664  35.302  11.886
20914W        W93339  37.797  27.888   1.515
20915W        W93340  29.544  13.361  12.935
20916W        W93341  22.604   0.625   5.244
20917W        W93342  25.027  44.274   0.986
20918W        W93343   7.855  42.289   4.364
20919W        W93344  42.999  12.741   4.774
20920W        W93345  36.069  25.483   0.417
20921W        W93346  21.778  28.573  12.845
20922W        W93347  34.613  10.899  12.284
20923W        W93348   6.642  10.339  11.079
20924W        W93349  37.145  41.230  14.869
20925W        W93350   9.298  38.076  14.813
20926W        W93351  24.115  16.083   0.287
20927W        W93352   0.196   8.732  13.453
20928W        W93353  22.597  21.430  14.677
20929W        W93354  16.166  39.955   1.508
20930W        W93355  24.769  43.914  10.750
20931W        W93356  13.050  27.672   4.486
20932W        W93357  24.684   7.196  14.823
20933W        W93358  28.056  42.712   0.723
20934W        W93359  11.328  17.331  12.578
20935W        W93360  27.388  25.005   4.261
20936W        W93361   6.451  16.423   4.589
20937W        W93362   7.748  21.750  11.224
20938W        W93363   0.556  39.332   3.736
20939W        W93364   0.511   6.579   0.551
20940W        W93365   0.035  17.461   4.261
20941W        W93366  42.052  36.480   0.872
20942W        W93367  23.203  33.137   0.423
20943W        W93368  21.721  19.277   4.879
20944W        W93369   6.243  29.588  13.502
20945W        W93370  31.561   4.134   4.520
20946W        W93371  42.302   9.364   3.292
20947W        W93372   2.882  24.184   1.806
20948W        W93373   7.464   9.595   4.005
20949W        W93374   4.594   2.872  12.998
20950W        W93375   7.171  26.586  14.944
20951W        W93376   8.539  22.230   2.373
20952W        W93377  12.089  32.014   4.625
20953W        W93378  36.423  39.514  14.669
20954W        W93379  30.141  26.452   1.338
20955W        W93380  38.544   8.923  12.507
20956W        W93381  15.842  43.011   2.666
20957W        W93382  26.725  36.881  14.427
20958W        W93383  18.340  10.080  14.934
20959W        W93384  29.538  39.499  12.275
20960W        W93385  12.878  13.244   2.279
20961W        W93386  37.863  29.612   2.486
20962W        W93387   0.676  11.346  12.168
20963W        W93388  44.005  29.355   4.156
20964W        W93389  44.969  14.579  13.587
20965W        W93390  36.551  15.226  13.715
20966W        W93391  31.952  29.898   0.792
20967W        W93392  44.116  26.513   1.686
20968W        W93393  22.149   3.749   1.203
20969W        W93394   6.957  14.747   0.757
20970W        W93395  23.158  43.240  13.583
20971W        W93396   4.197  42.441   1.429
20972W        W93397  42.907  12.196  11.560
20973W        W93398   8.863  31.921   1.937
20974W        W93399  16.774   0.313  12.564
20975W        W93400  18.806  17.870   1.741
20976W        W93401  35.775  13.240   2.876
20977W        W93402  39.424  27.190  10.637
20978W        W93403  21.572   1.779  14.853
20979W        W93404  12.997  26.987   3.259
20980W        W93405   6.866   2.501  13.978
20981W        W93406  36.920   6.612   5.675
20982W        W93407  13.691  19.486   1.966
20983W        W93408  34.062  42.512   3.134
20984W        W93409  20.715  23.273   4.045
20985W        W93410  31.067  17.058  11.092
20986W        W93411  41.235  34.121   4.203
20987W        W93412   8.436  21.917  11.257
20988W        W93413  39.945  23.923   1.554
20989W        W93414  17.168  40.108   0.359
20990W        W93415  18.274  28.487   3.569
20991W        W93416  14.377  30.595   3.721
20992W        W93417  30.996   9.343  12.159
20993W        W93418  29.344  36.072  11.487
20994W        W93419   8.129  16.752  13.746
20995W        W93420  26.027   0.842  11.187
20996W        W93421  25.158  18.024  11.681
20997W        W93422  36.527  32.878  11.004
20998W        W93423  22.315   3.966  10.759
20999W        W93424  14.279  22.926  11.596
21000W        W93425  21.545  21.743   3.363
21001W        W93426  13.030  17.113  12.560
21002W        W93427  10.606  44.489   0.319
21003W        W93428   9.273   8.866   1.843
21004W        W93429   7.428  25.201  11.254
21005W        W93430  32.044  12.812  12.460
21006W        W93431  19.659  14.585   2.368
21007W        W93432  16.097   5.436   2.800
21008W        W93433   1.237  31.808  12.062
21009W        W93434   5.450  37.719  12.520
21010W        W93435  14.019  22.648  14.462
21011W        W93436  21.991  15.595   0.845
21012W        W93437  33.752  12.797  11.166
21013W        W93438  27.658  36.627  10.444
21014W        W93439  33.514  37.997  10.525
21015W        W93440  21.730  28.431   4.778
21016W        W93441  36.570  37.378  12.982
21017W        W93442   1.330   6.172  14.527
21018W        W93443  31.973  18.123   0.277
21019W        W93444   9.405  25.892   2.139
21020W        W93445  31.684  44.797   3.746
21021W        W93446  10.576  29.741   4.347
21022W        W93447   0.842  44.743   1.964
21023W        W93448  32.267  13.692  11.963
21024W        W93449  23.987  37.424  12.964
21025W        W93450  26.444  19.015  10.627
21026W        W93451  18.001  38.503  12.800
21027W        W93452   8.282  42.505   3.573
21028W        W93453  37.060  32.327  13.511
21029W        W93454  35.918   4.499   3.579
21030W        W93455  33.695   8.271  10.600
21031W        W93456  41.480  30.374   2.020
21032W        W93457  33.874  26.434   3.999
21033W        W93458  10.553   3.731   2.907
21034W        W93459  16.712  33.646   3.656
21035W        W93460   1.787   4.412  12.600
21036W        W93461  39.872   2.904  11.656
21037W        W93462   9.116   3.226  11.051
21038W        W93463   0.751  12.250  12.008
21039W        W93464  27.462  32.544  13.445
21040W        W93465  40.911  12.069  11.105
21041W        W93466  38.836  29.451   2.636
21042W        W93467   8.409  26.542   2.326
21043W        W93468  25.639  34.117  10.745
21044W        W93469   3.780  29.489   3.891
21045W        W93470  37.552  33.607  12.586
21046W        W93471  27.693  31.539  12.932
21047W        W93472  36.414  16.319   3.248
21048W        W93473  33.533  39.030  13.349
21049W        W93474   2.269  12.773  13.791
21050W        W93475   0.245  30.716   2.331
21051W        W93476  36.611  39.243  10.762
21052W        W93477  10.328  37.301  13.373
21053W        W93478  41.490  12.667  11.059
21054W        W93479   5.867  11.394   0.864
21055W        W93480  24.164  25.438  14.022
21056W        W93481  24.540  40.880   2.572
21057W        W93482   4.956  41.435   3.126
21058W        W93483  39.408  32.640   3.212
21059W        W93484   0.967   5.209  13.908
21060W        W93485  14.084  44.285   4.136
21061W        W93486   1.297  28.144  12.329
21062W        W93487  30.570   7.345   0.891
21063W        W93488  19.573   1.037   4.552
21064W        W93489  29.159  40.975   3.678
21065W        W93490  25.217   0.887   3.284
21066W        W93491  21.684   8.291   2.767
21067W        W93492   6.062  26.194   4.543
21068W        W93493  26.061  34.953   4.255
21069W        W93494  17.737  36.298   2.182
21070W        W93495  16.653  27.179   1.740
21071W        W93496   1.160  23.584  11.435
21072W        W93497  11.546  22.030   4.206
21073W        W93498  35.750  18.062   1.328
21074W        W93499  43.962  28.442  14.422
21075W        W93500  42.319  40.700  12.846
21076W        W93501  32.366  15.050   2.125
21077W        W93502  28.641  23.926  14.806
21078W        W93503   7.167  40.470  14.004
21079W        W93504   6.934   1.428  11.949
21080W        W93505  33.451  22.179  13.949
21081W        W93506  20.477  20.590  13.334
21082W        W93507  18.595  39.572   3.313
21083W        W93508  21.733  19.230   1.766
21084W        W93509   6.780  23.475   2.127
21085W        W93510   1.170  39.875  13.772
21086W        W93511   1.234  17.184   1.398
21087W        W93512  37.407  32.760   3.998
21088W        W93513   9.733  10.673  11.936
21089W        W93514  27.653  18.620   4.554
21090W        W93515   8.618  37.467   1.253
21091W        W93516  19.304  26.158   2.534
21092W        W93517  30.416  11.116  10.574
21093W        W93518  11.694  13.313  14.736
21094W        W93519   4.657  27.031  11.838
21095W        W93520  37.417  22.266   3.448
21096W        W93521  33.164  33.555  11.630
21097W        W93522  24.634   9.760   2.226
21098W        W93523  41.089   5.139  11.480
21099W        W93524  42.430  31.193  12.454
21100W        W93525  39.916  13.366   4.572
21101W        W93526  16.525  37.323   4.555
21102W        W93527   4.956   3.613  13.742
21103W        W93528  39.474  38.840  13.331
21104W        W93529  37.744  15.670  14.332
21105W        W93530   2.578  44.808  12.048
21106W        W93531  42.850   4.324  10.291
21107W        W93532   2.942   2.287   2.808
21108W        W93533  26.924  35.363   3.913
21109W        W93534   9.374  21.133   4.165
21110W        W93535  38.021  22.959   3.535
21111W        W93536  26.876  20.513  13.274
21112W        W93537   6.635  13.093   4.660
21113W        W93538  18.060  36.395   0.340
21114W        W93539   0.054   5.330  12.569
21115W        W93540  23.193  13.672  12.091
21116W        W93541  14.751   5.807  13.931
21117W        W93542  16.326  24.455   0.834
21118W        W93543  10.612  21.458  12.033
21119W        W93544  16.708  19.726   2.843
21120W        W93545  31.516  30.633  13.884
21121W        W93546  15.576  22.127   4.616
21122W        W93547   4.955  41.575   4.710
21123W        W93548  13.788  24.930   2.908
21124W        W93549  32.946  26.745   2.476
21125W        W93550  10.222  36.432  11.854
21126W        W93551   7.445  13.248   4.190
21127W        W93552  20.684  14.201  13.488
21128W        W93553  30.886   6.908   3.653
21129W        W93554   0.477   6.039   4.594
21130W        W93555   0.956  23.481  10.428
21131W        W93556  23.849  18.226   3.543
21132W        W93557  32.118  32.529  10.679
21133W        W93558  24.611  11.230   1.869
21134W        W93559  37.836  19.282   3.211
21135W        W93560  33.527  26.418  12.511
21136W        W93561  24.582  29.193   0.966
21137W        W93562  32.117   8.788   3.655
21138W        W93563  14.402  39.579   4.677
21139W        W93564   3.094  29.079   0.525
21140W        W93565   2.525  40.813  12.925
21141W        W93566   7.633  31.485  12.591
21142W        W93567  42.525   9.261  11.757
21143W        W93568  31.156  33.108   2.360
21144W        W93569  17.917   6.722   2.593
21145W        W93570  12.137  15.424  12.548
21146W        W93571  26.679   3.408  12.168
21147W        W93572  28.584  40.095  12.057
21148W        W93573  42.253  43.770   4.653
21149W        W93574  10.657  22.581  10.680
21150W        W93575  43.689  29.662  13.378
21151W        W93576  22.179  37.133   4.670
21152W        W93577  20.735   7.311  14.302
21153W        W93578   6.217   8.732  14.302
21154W        W93579   8.924  21.322   0.477
21155W        W93580  26.052  24.942   4.423
21156W        W93581  29.383  24.709  10.145
21157W        W93582  22.613  34.382  13.404
21158W        W93583   0.689  38.354   2.355
21159W        W93584  27.149   1.157  13.296
21160W        W93585  17.085  19.984  13.777
21161W        W93586  31.475  17.900   2.166
21162W        W93587  16.286  35.059  10.664
21163W        W93588   0.089  19.873   1.838
21164W        W93589  23.206  24.308   1.709
21165W        W93590   6.895   4.898   1.669
21166W        W93591  44.924  38.853  10.855
21167W        W93592  14.677  43.227   4.858
21168W        W93593  36.125   8.571   1.435
21169W        W93594  24.201   4.577  13.982
21170W        W93595  41.407  12.260   4.128
21171W        W93596  31.514  18.835  14.079
21172W        W93597   0.841  41.853  12.866
21173W        W93598  21.626   7.084   4.629
21174W        W93599  16.914  30.991   4.367
21175W        W93600  20.729  25.142   3.154
21176W        W93601  38.550  28.653  11.646
21177W        W93602   8.729  36.221  14.199
21178W        W93603  38.856  16.554  13.634
21179W        W93604  31.520  32.136  14.469
21180W        W93605  36.561  24.703   2.194
21181W        W93606  33.887  13.783   0.882
21182W        W93607  34.814  44.915  13.053
21183W        W93608  20.151  36.523   0.839
21184W        W93609   9.132  13.083  12.933
21185W        W93610  29.088  34.548   1.737
21186W        W93611  12.964  32.558   1.437
21187W        W93612  23.130   9.335   0.893
21188W        W93613  20.234  24.971   3.229
21189W        W93614  15.525  25.206  13.889
21190W        W93615   4.830  36.932  11.208
21191W        W93616  44.998  39.092   0.584
21192W        W93617  20.943   1.336   1.910
21193W        W93618   5.757  35.098  12.107
21194W        W93619   1.747  28.387   2.222
21195W        W93620  26.137   5.838  12.836
21196W        W93621  29.881  17.320  13.985
21197W        W93622   2.413  42.958   1.901
21198W        W93623   3.189  25.641   4.277
21199W        W93624  20.567  38.808  12.397
21200W        W93625   7.488  40.051  13.991
21201W        W93626  28.474  18.505  10.701
21202W        W93627   5.888   9.074  12.443
21203W        W93628  20.218   9.595  12.201
21204W        W93629  22.944  36.414  14.568
21205W        W93630   7.841  15.764  14.695
21206W        W93631   9.277  41.544  11.595
21207W        W93632  21.287  43.793   2.672
21208W        W93633  43.488  30.412   3.973
21209W        W93634  34.899  35.619   1.476
21210W        W93635  14.115  42.371   1.059
21211W        W93636  27.218  40.510  12.486
21212W        W93637  32.697  25.069  10.647
21213W        W93638  10.816  31.708  12.830
21214W        W93639  30.865  15.987   3.083
21215W        W93640  22.024  32.079   0.883
21216W        W93641  13.125  15.753   0.276
21217W        W93642  30.885  39.616   3.169
21218W        W93643   4.676  15.630  10.605
21219W        W93644   3.727   8.055   3.300
21220W        W93645  27.591  26.283  12.995
21221W        W93646  31.614   9.163  12.965
21222W        W93647  26.768   1.466  13.491
21223W        W93648   8.946  25.212   1.759
21224W        W93649  10.900  30.133  12.497
21225W        W93650   1.299  42.860  11.764
21226W        W93651  10.142  11.178  13.017
21227W        W93652  28.077  28.066  12.944
21228W        W93653  33.999  13.877  10.629
21229W        W93654  25.527  32.047   3.281
21230W        W93655   8.865   3.286   4.208
21231W        W93656   0.688  42.291  13.982
21232W        W93657   7.904  19.362  12.011
21233W        W93658   0.707  10.457   1.840
21234W        W93659   8.473  22.376  11.508
21235W        W93660  27.803  12.302   0.953
21236W        W93661  10.650   0.057   1.739
21237W        W93662  16.814  33.988   5.042
21238W        W93663  33.294  43.430   2.406
21239W        W93664  33.591  32.574  12.518
21240W        W93665   3.219  23.057  13.312
21241W        W93666  35.025   0.768  11.006
21242W        W93667  30.111  41.674   5.210
21243W        W93668  32.455  16.006   0.240
21244W        W93669   5.715  42.218   2.208
21245W        W93670   5.808  43.828  14.459
21246W        W93671   9.677  30.969  14.968
21247W        W93672  34.321  19.568   3.225
21248W        W93673  37.125   1.363  11.575
21249W        W93674  27.160   9.295   4.343
21250W        W93675  39.992   0.423  11.641
21251W        W93676  36.407  37.506  14.434
21252W        W93677  42.876   2.299   3.360
21253W        W93678  13.165  15.609   1.258
21254W        W93679   5.006  21.315  11.542
21255W        W93680  38.757  32.794   3.239
21256W        W93681  31.758  38.451   0.838
21257W        W93682  38.459  35.416  12.432
21258W        W93683   5.255  24.017  12.445
21259W        W93684   2.209  29.974   4.070
21260W        W93685  44.315  22.764   3.103
21261W        W93686  35.907   3.333  14.472
21262W        W93687  15.238  38.621   2.236
21263W        W93688  19.358  37.811   0.182
21264W        W93689   7.376  42.925  14.715
21265W        W93690  40.094   2.312  13.349
21266W        W93691   9.204  32.505  13.512
21267W        W93692   3.802  23.752  14.451
21268W        W93693   3.447  10.231  12.650
21269W        W93694  41.259  31.479   0.987
21270W        W93695  26.937   9.148  14.027
21271W        W93696   4.488  13.886   2.768
21272W        W93697   6.185  43.261  13.784
21273W        W93698   9.781  40.988   4.995
21274W        W93699   4.544  36.019  10.840
21275W        W93700  24.507  39.463   3.712
21276W        W93701  15.709  32.125  12.046
21277W        W93702   3.919  27.673   0.309
21278W        W93703  28.978  29.009   2.623
21279W        W93704  35.978  15.511   1.191
21280W        W93705   0.343  40.255   2.770
21281W        W93706  30.552   1.015   3.532
21282W        W93707  12.265  33.019   2.767
21283W        W93708   8.966  36.055  11.515
21284W        W93709  21.898  38.540  13.825
21285W        W93710  20.142  14.721  13.062
21286W        W93711  29.509  40.337   0.892
21287W        W93712   8.321  29.346   1.827
21288W        W93713   6.378  24.691   4.917
21289W        W93714  15.066  22.042   3.682
21290W        W93715  13.227  36.929   3.328
21291W        W93716  29.281  38.700   4.619
21292W        W93717  38.504  11.211  12.517
21293W        W93718   6.826  11.905  14.904
21294W        W93719   2.883  43.368  12.467
21295W        W93720   8.135  21.601   1.799
21296W        W93721  36.610  17.193   1.242
21297W        W93722  36.034  19.210  11.730
21298W        W93723  18.986  31.998   3.042
21299W        W93724  44.986  17.098   3.440
21300W        W93725   4.582   0.361  13.029
21301W        W93726  38.777  38.840  11.088
21302W        W93727   4.447  24.680  13.510
21303W        W93728  12.398   5.316   4.434
21304W        W93729   8.660  16.597  12.563
21305W        W93730  12.588  13.515  10.534
21306W        W93731  17.583  13.702   2.282
21307W        W93732  32.901  23.958   1.791
21308W        W93733   2.774   4.752  14.901
21309W        W93734  23.105  37.963  14.866
21310W        W93735  18.629   2.174  11.510
21311W        W93736   8.229  42.164  11.410
21312W        W93737  43.322  42.940   2.026
21313W        W93738  35.869   7.776   0.717
21314W        W93739  37.036  18.188  14.778
21315W        W93740   9.312  32.207   4.743
21316W        W93741   8.645  37.045  14.795
21317W        W93742  35.629   5.700  14.528
21318W        W93743  44.315  21.616   0.004
21319W        W93744  18.548  38.021  12.449
21320W        W93745  40.886  37.267  11.279
21321W        W93746   5.224  12.370  11.528
21322W        W93747  13.789  28.175  13.793
21323W        W93748   8.456   5.871  13.626
21324W        W93749   6.937  14.548  10.693
21325W        W93750  14.752  44.340   1.894
21326W        W93751   6.034   8.434  13.070
21327W        W93752  44.139  33.917  12.678
21328W        W93753  21.605  18.532  14.234
21329W        W93754  21.108  12.821  12.788
21330W        W93755  22.007  15.746  14.075
21331W        W93756  34.902  29.124  12.665
21332W        W93757   8.991   5.366  12.440
21333W        W93758  41.350   8.134   3.736
21334W        W93759  37.923  34.289   2.260
21335W        W93760  41.574  27.940  14.035
21336W        W93761  17.431  21.211   1.186
21337W        W93762  30.401  43.403   4.238
21338W        W93763  18.969   8.475  10.245
21339W        W93764   3.742  23.046   3.249
21340W        W93765  23.695  42.480  13.446
21341W        W93766   6.192   0.287   4.126
21342W        W93767  41.374   4.433  10.712
21343W        W93768   7.849  20.569  12.608
21344W        W93769  19.634  18.042  11.922
21345W        W93770  19.059  15.202  11.543
21346W        W93771  27.496  12.798   3.571
21347W        W93772  41.790  19.428  12.992
21348W        W93773  39.112  13.579   1.176
21349W        W93774  26.760  20.614  14.603
21350W        W93775  10.324  30.526   1.825
21351W        W93776  14.149   7.566   1.863
21352W        W93777  18.341  34.626   2.752
21353W        W93778   3.307  11.725  12.570
21354W        W93779  22.035  32.175   0.004
21355W        W93780   2.119   2.810   1.338
21356W        W93781  28.716  10.144   4.537
21357W        W93782  36.568  42.432  10.570
21358W        W93783   4.169  37.594   2.167
21359W        W93784  32.322  25.891   4.390
21360W        W93785  35.492  36.197  11.844
21361W        W93786  21.552  31.506   0.428
21362W        W93787  35.640  28.189  14.292
21363W        W93788  31.028  39.970   0.003
21364W        W93789   4.857  36.982  11.715
21365W        W93790   5.463   1.048   4.063
21366W        W93791   1.717  11.245  10.665
21367W        W93792  30.347  12.663   0.910
21368W        W93793  39.943  37.978   1.146
21369W        W93794  27.956  29.903   3.330
21370W        W93795  38.903  30.794  11.299
21371W        W93796   6.685  32.996   1.225
21372W        W93797  44.915   0.565  10.659
21373W        W93798  39.538  19.942   4.127
21374W        W93799   0.406  22.058   1.806
21375W        W93800  21.162  32.067   3.290
21376W        W93801  33.369   0.830   1.979
21377W        W93802  22.875  33.493   5.232
21378W        W93803  36.091   7.780  14.813
21379W        W93804  40.189  38.388  13.249
21380W        W93805  38.873  28.660   4.658
21381W        W93806  34.150  40.018   1.826
21382W        W93807  18.203  11.860  14.594
21383W        W93808  20.129  33.871   1.342
21384W        W93809  27.660   2.336  11.216
21385W        W93810  36.047   5.445  13.877
21386W        W93811  16.976   0.321   3.220
21387W        W93812  44.992  32.532   0.970
21388W        W93813  14.418  40.884  13.847
21389W        W93814  14.350  21.121   0.473
21390W        W93815  32.104   7.926   0.027
21391W        W93816  16.658  23.209  14.055
21392W        W93817  26.956  40.586  11.968
21393W        W93818  34.695  22.798  11.153
21394W        W93819  13.216  33.641  10.594
21395W        W93820  31.315   6.785   0.480
21396W        W93821  35.442   0.994   3.559
21397W        W93822  28.531  17.481  13.862
21398W        W93823  27.728  26.435   3.625
21399W        W93824   9.381  42.880  14.825
21400W        W93825   8.191  11.320  12.877
21401W        W93826  10.282   1.761   1.700
21402W        W93827  13.324  37.335   4.104
21403W        W93828   0.540  43.139   2.864
21404W        W93829  32.035   6.789  10.730
21405W        W93830   0.975  42.796   2.902
21406W        W93831  27.549  36.069  11.187
21407W        W93832  12.069   0.021  12.922
21408W        W93833  44.943  17.000   2.414
21409W        W93834  44.221  13.864   0.841
21410W        W93835  43.044  26.943   3.853
21411W        W93836   7.535  10.842   4.188
21412W        W93837  19.235  17.563   1.732
21413W        W93838  22.739  20.061  11.570
21414W        W93839   0.586  13.749  13.440
21415W        W93840  12.337  27.064  10.618
21416W        W93841  31.158   8.205  11.525
21417W        W93842  22.599  24.231   0.780
21418W        W93843  35.314  14.346  12.697
21419W        W93844   0.748  24.630   2.313
21420W        W93845  22.026  44.693   4.459
21421W        W93846  16.553  32.468  10.593
21422W        W93847  23.658  36.673   4.032
21423W        W93848  40.925   4.272   1.558
21424W        W93849  14.775  40.600   0.773
21425W        W93850  20.274  32.222   4.066
21426W        W93851  36.730  24.464   2.618
21427W        W93852   6.312  33.897   1.428
21428W        W93853  41.491   8.226   2.306
21429W        W93854  33.376   9.859  13.981
21430W        W93855  26.280  29.663   5.155
21431W        W93856   9.398  21.804   3.314
21432W        W93857  35.600  14.577   2.902
21433W        W93858   5.774  30.207   4.928
21434W        W93859   4.813  21.665   4.514
21435W        W93860  41.050  22.059  10.694
21436W        W93861  12.093  28.180   3.638
21437W        W93862  24.088  37.042   3.658
21438W        W93863   7.349  13.171   0.833
21439W        W93864   6.357   6.609   2.448
21440W        W93865  10.781  11.070   0.255
21441W        W93866   4.363  18.601   3.315
21442W        W93867  36.481  16.041  11.431
21443W        W93868  40.757  44.399  11.846
21444W        W93869  18.159  18.063  11.967
21445W        W93870   7.826  30.582   1.812
21446W        W93871  25.918   3.034  11.103
21447W        W93872  23.753  27.020   4.169
21448W        W93873   8.870  25.425  13.992
21449W        W93874  22.924  39.995  11.221
21450W        W93875   4.836  28.124   2.777
21451W        W93876  37.786  10.380   0.963
21452W        W93877  26.219  34.113  13.253
21453W        W93878   1.711  42.038  11.310
21454W        W93879   9.196  40.435   4.718
21455W        W93880  18.909  11.027   1.964
21456W        W93881  38.826  14.851   4.699
21457W        W93882  15.333  39.153   1.339
21458W        W93883   7.257   3.927   3.667
21459W        W93884  34.885   2.289   3.437
21460W        W93885  28.645  36.586   3.585
21461W        W93886  32.959   5.816  11.864
21462W        W93887  12.073  10.282   2.799
21463W        W93888  39.244  15.649   3.631
21464W        W93889  39.795   2.806  12.520
21465W        W93890  42.115  25.117  14.538
21466W        W93891  41.000   6.698  13.079
21467W        W93892  30.530  24.490   0.702
21468W        W93893   2.530   7.812   3.624
21469W        W93894  32.283   0.265  11.381
21470W        W93895  39.491  10.355   2.199
21471W        W93896  32.657   7.748  13.740
21472W        W93897  26.024  27.408   0.472
21473W        W93898   5.131  41.288  10.710
21474W        W93899  18.072  35.182  13.017
21475W        W93900  39.544  27.079  13.908
21476W        W93901  35.909  13.345   2.408
21477W        W93902   3.318   5.233   2.921
21478W        W93903   7.444  16.108  13.540
21479W        W93904  27.941  32.642   2.395
21480W        W93905  37.006  36.852   4.205
21481W        W93906  14.643  41.392  14.374
21482W        W93907  21.283  36.956  13.137
21483W        W93908  37.520  37.311  13.556
21484W        W93909  11.259  13.589  13.188
21485W        W93910  25.433  11.829  13.896
21486W        W93911  35.975   2.367   1.364
21487W        W93912  40.938  32.055  10.954
21488W        W93913   9.608   4.227  14.462
21489W        W93914  41.857  30.695   3.823
21490W        W93915   1.353  24.718  14.565
21491W        W93916  21.814  30.487   1.163
21492W        W93917  14.325  26.426   2.419
21493W        W93918  24.432   5.903  13.335
21494W        W93919  44.218  27.568  12.747
21495W        W93920  22.092  41.384   4.394
21496W        W93921  36.010  22.844  10.738
21497W        W93922  30.857  22.600  10.095
21498W        W93923  17.121  11.639   4.567
21499W        W93924  19.713  15.832  11.706
21500W        W93925  13.667  14.925   1.226
21501W        W93926  23.959   6.650   1.362
21502W        W93927  21.252   2.292   3.210
21503W        W93928   5.815  32.362  12.394
21504W        W93929  35.418  38.278   3.706
21505W        W93930  33.399  36.998   3.865
21506W        W93931  18.275  30.968   0.855
21507W        W93932  25.411   3.737   0.979
21508W        W93933  14.040   9.171  11.579
21509W        W93934   1.723  44.088  12.612
21510W        W93935  42.584   8.761  13.919
21511W        W93936  13.544  28.591  11.188
21512W        W93937  43.965  34.088  14.441
21513W        W93938  35.641  30.566   3.006
21514W        W93939   6.406  44.333  11.028
21515W        W93940   3.279  39.172  14.015
21516W        W93941  36.567  15.026   2.674
21517W        W93942   5.461   8.863   4.214
21518W        W93943  20.608  30.962   4.164
21519W        W93944  23.136  32.154  14.258
21520W        W93945  30.934   0.363  13.495
21521W        W93946  44.513  27.140  13.485
21522W        W93947  44.501  17.003  11.081
21523W        W93948   2.171  14.030   1.783
21524W        W93949  12.716  40.877  13.063
21525W        W93950  10.606   1.025  12.481
21526W        W93951  22.081  14.400   0.353
21527W        W93952   1.022  31.600   3.393
21528W        W93953  26.959  41.094  12.811
21529W        W93954  30.594  22.152   2.356
21530W        W93955   1.261   8.406  14.962
21531W        W93956  20.988   1.856  13.527
21532W        W93957  12.307  10.595   0.746
21533W        W93958  25.936  30.878  12.540
21534W        W93959  18.240  28.179   1.673
21535W        W93960   5.401  19.504  12.993
21536W        W93961  23.228  10.821  13.368
21537W        W93962  34.586  22.285   3.582
21538W        W93963  14.897  39.507  13.570
21539W        W93964  16.190   4.858   1.179
21540W        W93965  33.009  43.058  13.084
21541W        W93966  33.464  25.922  12.555
21542W        W93967  11.718  21.186  11.983
21543W        W93968  40.961  20.184  10.283
21544W        W93969  22.065   1.715  11.704
21545W        W93970  20.998  18.629   0.433
21546W        W93971  35.849  34.518  11.083
21547W        W93972  13.563  12.860   2.764
21548W        W93973  14.002  15.204   3.451
21549W        W93974  11.672   1.311  14.809
21550W        W93975  37.966  20.557   3.307
21551W        W93976  39.368  35.359  11.574
21552W        W93977  10.356  22.127   1.126
21553W        W93978  33.476  24.472   2.401
21554W        W93979  11.253  42.331  11.304
21555W        W93980   3.308   5.427  11.055
21556W        W93981  13.892   8.242  11.531
21557W        W93982   6.930  40.541   0.280
21558W        W93983  22.617   7.654   2.210
21559W        W93984  36.105  40.297  10.933
21560W        W93985  16.405  33.513  13.303
21561W        W93986   5.893  30.888  12.576
21562W        W93987  28.884  18.519   4.190
21563W        W93988  32.134  11.039  13.073
21564W        W93989  15.060  34.575  11.534
21565W        W93990  43.961  43.191  13.461
21566W        W93991  13.809  43.149  12.578
21567W        W93992  35.354  40.491  12.407
21568W        W93993   3.001  42.857   0.422
21569W        W93994  32.175   0.919  14.748
21570W        W93995  11.910  42.555   1.772
21571W        W93996   7.490  25.107  14.892
21572W        W93997   3.753   7.376  14.515
21573W        W93998  20.245  37.079  12.853
21574W        W93999  20.860  39.823  12.029
21575W        W94000   8.833   4.509  12.863
21576W        W94001   0.181  18.022   3.619
21577W        W94002  37.317  28.239  11.408
21578W        W94003  13.750  42.950  14.415
21579W        W94004   0.455  20.494   0.975
21580W        W94005  11.527   5.287   2.357
21581W        W94006   9.739  43.370   4.486
21582W        W94007  42.375  16.422  14.036
21583W        W94008  23.718  40.992   3.797
21584W        W94009   0.315  24.070  11.590
21585W        W94010  16.403  12.874  10.709
21586W        W94011   1.786  26.620   0.785
21587W        W94012  12.782  42.695  14.908
21588W        W94013  44.961  13.015   3.299
21589W        W94014   0.337  29.655  13.031
21590W        W94015  40.895  12.827  13.582
21591W        W94016   4.153   2.751  13.893
21592W        W94017  10.245   7.911   1.481
21593W        W94018  27.942   8.613   3.164
21594W        W94019  28.494  42.409  10.890
21595W        W94020  37.685  14.260   4.200
21596W        W94021   8.182  44.217  13.019
21597W        W94022  19.315  36.957   0.029
21598W        W94023  36.964  16.828  10.710
21599W        W94024  37.886  35.262   3.390
21600W        W94025  40.710  14.193  14.921
21601W        W94026   0.530  41.541   3.324
21602W        W94027  21.951  43.704   1.566
21603W        W94028  17.556  16.641   1.453
21604W        W94029  42.419  24.637   4.705
21605W        W94030  19.985  17.220  13.261
21606W        W94031  29.157  27.209  14.630
21607W        W94032  24.553  38.157  13.980
21608W        W94033  44.812  42.903  14.767
21609W        W94034  40.742  24.167  14.720
21610W        W94035  38.826  40.818  13.952
21611W        W94036  34.694  15.321  12.951
21612W        W94037  39.251  14.615   0.051
21613W        W94038  27.543  10.201   2.005
21614W        W94039  20.593   9.487  11.505
21615W        W94040  42.264  12.859  12.539
21616W        W94041  32.534  27.932   2.641
21617W        W94042  15.823  22.220   3.277
21618W        W94043  28.634  14.385   0.721
21619W        W94044  15.670  29.853  14.782
21620W        W94045  26.468  35.150   1.451
21621W        W94046  13.409   2.386  10.639
21622W        W94047  23.476  31.678   1.792
21623W        W94048  11.622  17.426  12.152
21624W        W94049   8.371  17.800   3.869
21625W        W94050  21.934  22.870   0.402
21626W        W94051   5.168  32.561   0.596
21627W        W94052   3.309  19.277   2.330
21628W        W94053  14.881  22.771   2.282
21629W        W94054  15.292  23.924   0.335
21630W        W94055  37.088  23.120  14.768
21631W        W94056  23.095  28.931  10.763
21632W        W94057  20.330  25.062  13.333
21633W        W94058   1.893  40.068  13.146
21634W        W94059  43.422  10.708   1.830
21635W        W94060  32.034  29.328  10.433
21636W        W94061   9.439  29.034  13.923
21637W        W94062  25.153  25.071  14.470
21638W        W94063  29.478   6.920  14.391
21639W        W94064  18.146   3.652   2.834
21640W        W94065  27.666  23.328  12.941
21641W        W94066  44.207  43.377  11.239
21642W        W94067  37.247   2.754   1.158
21643W        W94068   2.439  34.774   1.191
21644W        W94069  20.184  13.198  14.925
21645W        W94070  41.045  14.570   3.123
21646W        W94071  12.200  35.679  14.448
21647W        W94072   9.615  40.344  12.776
21648W        W94073  37.041  39.464  14.499
21649W        W94074  36.969  19.246   4.328
21650W        W94075   6.395  38.038  11.968
21651W        W94076  27.135   4.408   3.838
21652W        W94077  30.061  40.417  13.751
21653W        W94078  20.968  21.241   3.513
21654W        W94079   5.452  35.832   4.463
21655W        W94080  37.367  13.284  14.992
21656W        W94081   6.827  15.093   2.414
21657W        W94082  36.831  15.238  12.304
21658W        W94083  20.090  31.080   2.317
21659W        W94084  12.077  28.541  14.097
21660W        W94085  27.012   1.327   3.860
21661W        W94086  12.861  23.694   3.849
21662W        W94087  20.016   7.459  12.450
21663W        W94088  42.482  34.383   3.532
21664W        W94089  34.076  29.025  12.044
21665W        W94090  22.226   9.799  12.484
21666W        W94091  30.643   4.695   3.111
21667W        W94092  14.591  25.621   4.670
21668W        W94093  19.539  11.227  12.480
21669W        W94094  22.584  44.883  14.462
21670W        W94095  16.657  20.794  12.071
21671W        W94096   7.308  11.195  11.182
21672W        W94097  13.868  29.712  12.489
21673W        W94098  36.894  13.766  13.302
21674W        W94099  18.249   5.204   1.427
21675W        W94100  44.369  10.961  11.030
21676W        W94101  12.244   6.110  14.831
21677W        W94102  40.372   2.900  11.526
21678W        W94103  43.840  15.408   3.925
21679W        W94104   2.831  34.076  12.814
21680W        W94105  31.180   7.468  13.991
21681W        W94106  22.243  27.266  14.324
21682W        W94107  10.693   2.427  14.610
21683W        W94108  33.117  23.278   0.232
21684W        W94109   5.194  25.221  12.101
21685W        W94110  33.851  16.843  13.657
21686W        W94111  26.757  34.896   3.780
21687W        W94112  36.588  22.487   0.337
21688W        W94113   8.873   0.871  13.471
21689W        W94114  31.740  22.807  13.855
21690W        W94115  17.095  19.939  10.424
21691W        W94116  30.718  19.544  14.597
21692W        W94117   3.936   3.978  12.824
21693W        W94118   3.933  10.156  12.379
21694W        W94119  29.285  16.093   1.408
21695W        W94120  42.354  14.451   1.761
21696W        W94121  29.130  41.272   3.245
21697W        W94122  34.288  23.950  12.101
21698W        W94123  30.149  23.289  11.531
21699W        W94124  37.361  10.291   3.669
21700W        W94125  33.480   0.332   1.777
21701W        W94126  27.695   5.165   3.768
21702W        W94127  39.017   3.018   0.214
21703W        W94128  18.621  29.727   1.700
21704W        W94129  29.954  18.558  10.784
21705W        W94130  26.047  11.744   1.374
21706W        W94131   4.223  44.443  10.473
21707W        W94132  40.520  21.242  11.043
21708W        W94133   8.483   2.366   1.745
21709W        W94134  14.571  11.204   0.796
21710W        W94135   1.792  42.442   1.864
21711W        W94136  29.907  19.182   1.817
21712W        W94137   1.780  26.335  11.082
21713W        W94138  35.396  43.815   4.309
21714W        W94139   1.579  24.058   3.133
21715W        W94140   0.544  17.994  11.995
21716W        W94141  35.677  21.073  10.630
21717W        W94142   4.937  31.705  10.688
21718W        W94143  25.138  35.052   1.958
21719W        W94144   8.825  14.033   4.702
21720W        W94145  17.213  14.325  12.073
21721W        W94146  29.121  41.039   2.205
21722W        W94147   4.277  15.144  12.610
21723W        W94148  35.095  16.602  12.543
21724W        W94149  36.283  41.492   0.406
21725W        W94150  40.962  18.164   4.060
21726W        W94151  38.596   6.858   4.717
21727W        W94152  10.239  31.617  13.921
21728W        W94153   9.925  23.716   1.812
21729W        W94154  43.784  44.425  13.029
21730W        W94155  14.039  42.865  11.907
21731W        W94156   3.171  23.646  13.063
21732W        W94157  22.563   2.764  10.602
21733W        W94158   4.522  19.621   1.967
21734W        W94159  37.461  20.690   3.347
21735W        W94160  41.500  28.012   4.354
21736W        W94161  34.850  15.273   2.595
21737W        W94162  10.143  27.413   4.150
21738W        W94163  34.901  34.069   4.093
21739W        W94164  35.580  13.795   1.822
21740W        W94165  32.468   6.597   2.877
21741W        W94166   4.652  38.583   0.048
21742W        W94167   6.405  28.933  11.174
21743W        W94168  21.102   8.649   2.437
21744W        W94169  18.003  33.464   2.750
21745W        W94170   9.267  25.383   5.324
21746W        W94171   4.315  14.682  10.774
21747W        W94172  27.699  11.835   2.692
21748W        W94173  23.876  31.199  13.990
21749W        W94174   8.312  11.811  14.565
21750W        W94175   6.641  11.233  12.594
21751W        W94176   6.938  34.142   4.961
21752W        W94177  25.729  27.496  11.998
21753W        W94178  19.985   3.347   4.992
21754W        W94179  18.415  29.789   0.042
21755W        W94180  39.964  18.191  11.510
21756W        W94181  33.763  26.120   3.102
21757W        W94182   0.972  35.245  11.278
21758W        W94183  29.018  44.653   1.945
21759W        W94184  33.494  31.862  12.033
21760W        W94185  16.069   4.501  13.588
21761W        W94186   4.426  33.057   0.833
21762W        W94187  21.247  27.345  13.464
21763W        W94188   8.875   5.124  14.075
21764W        W94189  35.459   4.692   2.409
21765W        W94190   4.364  12.384   1.452
21766W        W94191  14.670  29.048   2.334
21767W        W94192  15.739  12.113  13.583
21768W        W94193  12.580  39.963   4.733
21769W        W94194  12.701  14.870   2.645
21770W        W94195  33.112  20.534  13.006
21771W        W94196  33.359  28.084  10.539
21772W        W94197  10.239   6.725  13.402
21773W        W94198  30.846   5.178   3.124
21774W        W94199  24.140  43.329  11.804
21775W        W94200  37.879  29.955   1.285
21776W        W94201  34.282  17.840  12.037
21777W        W94202  17.163  26.806   1.234
21778W        W94203  24.518  33.110  13.854
21779W        W94204  25.351  18.001  13.831
21780W        W94205  29.408  41.237  13.447
21781W        W94206  39.161  23.647   0.917
21782W        W94207  21.829  25.697  14.518
21783W        W94208  41.620  19.099  14.464
21784W        W94209  24.194  39.802   1.904
21785W        W94210  29.919   4.675  14.819
21786W        W94211  34.906   2.235   2.916
21787W        W94212  43.954  44.080  12.697
21788W        W94213  12.231  21.084   0.792
21789W        W94214   4.406  21.750   0.863
21790W        W94215   2.981  29.396  11.167
21791W        W94216  17.510  42.333   0.850
21792W        W94217  10.827   3.149   0.709
21793W        W94218   6.954   2.302   2.280
21794W        W94219  39.511  40.784   3.062
21795W        W94220  25.171  42.512  11.320
21796W        W94221  17.167   7.414   1.793
21797W        W94222  32.623   6.293  13.836
21798W        W94223   1.291  25.528   2.227
21799W        W94224   7.648  17.713  12.844
21800W        W94225  42.288   0.300  12.053
21801W        W94226   6.981   3.482   4.333
21802W        W94227  36.907  10.087   4.118
21803W        W94228  27.905  24.989   4.276
21804W        W94229  40.290  29.210   1.353
21805W        W94230  44.114  36.753   0.348
21806W        W94231  32.880  35.917  10.610
21807W        W94232  28.539  32.889   3.861
21808W        W94233  20.140  40.883   4.345
21809W        W94234   3.474  39.252  14.846
21810W        W94235  14.830  11.994   4.338
21811W        W94236  39.390  10.750   4.112
21812W        W94237  36.557  10.738  13.539
21813W        W94238   8.432   3.788  11.145
21814W        W94239  22.260  34.481  12.427
21815W        W94240  32.612   0.283  12.525
21816W        W94241   2.614   9.782  11.688
21817W        W94242  10.270  21.495   3.810
21818W        W94243  24.141  27.519   1.292
21819W        W94244  22.494  41.573  14.385
21820W        W94245  23.229  30.833   3.299
21821W        W94246  10.239  11.285  11.855
21822W        W94247   2.319  17.339   1.202
21823W        W94248   2.475  12.353   0.799
21824W        W94249  25.776  36.089  13.456
21825W        W94250   9.896  38.284   2.732
21826W        W94251  30.164  37.406   2.738
21827W        W94252  22.295  22.661  14.560
21828W        W94253  30.582  16.745  12.170
21829W        W94254   4.394  36.523  13.330
21830W        W94255  31.501  23.750   1.831
21831W        W94256  35.714  29.056   4.455
21832W        W94257   1.414   9.285  12.537
21833W        W94258  17.583  40.904  14.425
21834W        W94259  22.129  10.801   0.939
21835W        W94260  34.422  12.853  14.389
21836W        W94261  22.120  42.698  11.083
21837W        W94262  41.442   6.333   3.686
21838W        W94263  13.249  41.562   3.033
21839W        W94264  23.489   1.800  13.002
21840W        W94265  34.573  37.829  14.276
21841W        W94266   4.689   3.490   2.019
21842W        W94267  15.622   3.989   2.291
21843W        W94268  23.585  11.858   2.876
21844W        W94269  22.665   6.782   3.846
21845W        W94270  22.745  14.654   1.450
21846W        W94271   8.889  33.118   0.289
21847W        W94272  32.378  32.958  10.760
21848W        W94273  35.895  11.748  13.594
21849W        W94274  14.674  12.782   3.708
21850W        W94275   6.890  11.883   2.780
21851W        W94276  28.490   8.332  11.217
21852W        W94277  36.875   5.604   5.535
21853W        W94278  41.433  26.650  13.714
21854W        W94279  39.793  21.005   2.940
21855W        W94280  21.351  18.106   1.249
21856W        W94281  12.776   2.020  11.071
21857W        W94282  14.370  22.013  13.090
21858W        W94283  26.781  43.029  13.069
21859W        W94284  11.649   2.837   4.902
21860W        W94285  43.151  15.585   3.311
21861W        W94286  12.936   7.887   0.238
21862W        W94287   8.095  38.003   2.649
21863W        W94288  44.394  34.641   4.137
21864W        W94289  21.548  18.043  12.998
21865W        W94290   9.676  16.146  11.289
21866W        W94291  31.636  43.106  10.720
21867W        W94292  25.463  29.570  10.639
21868W        W94293   9.824  40.480   3.367
21869W        W94294  42.088   6.498  13.931
21870W        W94295  38.455  36.624   3.142
21871W        W94296  31.829   8.949   1.305
21872W        W94297  42.167  16.500   3.119
21873W        W94298   9.538  35.537   4.124
21874W        W94299  21.667  39.004  14.079
21875W        W94300  34.884  40.942   4.874
21876W        W94301  10.767   5.442   0.773
21877W        W94302  36.157  27.249   3.744
21878W        W94303  18.597  19.389  12.929
21879W        W94304  15.326   6.665   3.658
21880W        W94305   9.132   3.954  10.628
21881W        W94306  30.501  41.494   2.706
21882W        W94307  13.659  44.513   0.496
21883W        W94308  35.609  43.284   1.267
21884W        W94309  40.073  17.087  13.114
21885W        W94310  27.487  36.595  13.359
21886W        W94311  37.879  43.301  14.873
21887W        W94312   8.851  15.030  14.022
21888W        W94313  24.459  27.415   4.174
21889W        W94314  37.842  10.663   1.395
21890W        W94315   6.806  35.504   1.801
21891W        W94316  34.611  21.240   4.880
21892W        W94317   2.817  41.622  10.776
21893W        W94318  39.240  15.299  11.184
21894W        W94319   2.197  11.288  13.123
21895W        W94320  29.434  33.600  10.761
21896W        W94321   1.770  28.609  12.629
21897W        W94322   1.468  23.115  14.939
21898W        W94323  26.890   3.110  14.346
21899W        W94324  31.311  41.915   5.035
21900W        W94325   8.425  19.775   4.315
21901W        W94326   6.850  29.120   2.009
21902W        W94327  26.451   9.887  12.504
21903W        W94328  24.618  23.829   0.076
21904W        W94329  18.050  15.074  14.590
21905W        W94330  43.827  34.832  13.978
21906W        W94331  34.341  10.630   3.290
21907W        W94332  18.460  13.634   4.098
21908W        W94333  17.303  39.314   1.329
21909W        W94334  39.405  30.884   1.007
21910W        W94335  29.539  28.408  15.000
21911W        W94336  10.496  23.284  13.620
21912W        W94337  40.901  32.890   4.819
21913W        W94338  44.628  33.577  13.043
21914W        W94339  26.759  34.500  10.632
21915W        W94340   9.855  17.275   2.208
21916W        W94341  27.008   5.663  12.197
21917W        W94342  16.628   8.377  12.304
21918W        W94343   9.078   4.932   1.245
21919W        W94344  37.078  19.719  13.951
21920W        W94345  32.996  32.429  14.450
21921W        W94346  32.724  30.564  11.481
21922W        W94347   8.007  31.974   2.861
21923W        W94348  33.293  17.235   1.240
21924W        W94349  19.252  20.282   2.180
21925W        W94350   8.212   8.680   2.356
21926W        W94351  35.863  19.512  14.360
21927W        W94352  15.532   4.941   2.946
21928W        W94353   6.812  43.481  12.516
21929W        W94354  18.733  13.734  12.991
21930W        W94355  43.988   8.090  11.207
21931W        W94356  28.074   7.148   4.835
21932W        W94357   8.959  21.458   0.989
21933W        W94358  18.130  39.312   4.348
21934W        W94359  44.045  31.592   9.789
21935W        W94360  16.857  42.398   0.005
21936W        W94361   5.985  21.115  11.587
21937W        W94362  26.957   5.766   0.783
21938W        W94363  29.753  41.011  13.086
21939W        W94364   3.419  34.491   0.881
21940W        W94365  13.595   3.525   2.696
21941W        W94366  25.141  38.474  10.832
21942W        W94367  14.636   0.891  10.660
21943W        W94368  13.409  35.097   3.639
21944W        W94369  43.854  27.131  12.128
21945W        W94370   9.323  29.762  12.570
21946W        W94371   7.158  23.167   2.681
21947W        W94372   6.332  10.695  14.120
21948W        W94373  38.485   3.176  11.562
21949W        W94374  43.965  41.504   3.928
21950W        W94375  19.316  38.811   4.396
21951W        W94376  25.555   2.247  12.012
21952W        W94377  26.772  33.949   3.373
21953W        W94378  33.124  37.013  11.836
21954W        W94379  27.726  16.607  13.355
21955W        W94380  19.186  13.164  11.206
21956W        W94381  10.333  20.056  11.671
21957W        W94382  42.147   0.454  14.830
21958W        W94383  14.733  31.366  13.518
21959W        W94384  32.503  26.109  13.104
21960W        W94385  40.605  44.476  10.428
21961W        W94386   2.807   7.629  14.836
21962W        W94387  44.312   8.030  13.731
21963W        W94388  28.247  29.613   1.714
21964W        W94389  39.578  43.334  13.487
21965W        W94390  16.173  14.779   4.397
21966W        W94391  36.701  29.298  13.816
21967W        W94392  44.686  15.116  12.042
21968W        W94393  19.131  41.091   3.690
21969W        W94394   2.367  29.654   0.372
21970W        W94395   9.729  22.316   0.435
21971W        W94396  41.234  41.713  12.223
21972W        W94397  21.759  37.694  14.754
21973W        W94398   8.083  26.262   0.952
21974W        W94399   1.225  24.638   4.204
21975W        W94400  34.412  25.047  14.795
21976W        W94401  20.808   2.531   4.086
21977W        W94402   0.209  41.108  10.997
21978W        W94403   1.440   3.821  14.355
21979W        W94404  39.528  42.491   1.894
21980W        W94405  39.521  10.551  12.273
21981W        W94406  33.413  15.343   1.260
21982W        W94407  27.297  16.119   1.502
21983W        W94408  31.994  34.177   3.834
21984W        W94409  38.832  34.828  11.844
21985W        W94410  28.830  24.225   5.761
21986W        W94411  14.010  32.481  13.765
21987W        W94412  39.128  20.238  11.527
21988W        W94413   9.014  22.774  10.967
21989W        W94414   1.725  18.577  11.593
21990W        W94415  24.187  21.384   3.620
21991W        W94416  20.386  14.662  12.596
21992W        W94417  13.333  32.925  11.689
21993W        W94418  41.987  42.532   3.611
21994W        W94419   7.319  29.128   2.232
21995W        W94420  33.837  42.398   1.079
21996W        W94421  43.104   4.883   3.100
21997W        W94422  31.943  10.880  14.083
21998W        W94423  21.045  10.198   0.429
21999W        W94424   6.005  22.208  14.814
22000W        W94425  35.830   2.421   4.270
22001W        W94426  24.145  36.825  14.781
22002W        W94427  27.581   9.454   4.078
22003W        W94428  37.469   8.951  14.579
22004W        W94429  36.151  30.563  12.021
22005W        W94430  30.520  15.655  12.928
22006W        W94431  11.726   5.077   3.677
22007W        W94432   7.452  32.898  10.453
22008W        W94433   2.396  44.749  14.757
22009W        W94434   5.497  33.355  12.078
22010W        W94435   8.140  41.305  12.509
22011W        W94436  36.684   2.311   2.644
22012W        W94437  39.850  39.329   3.225
22013W        W94438   2.359   2.347   1.431
22014W        W94439   3.730  30.572  11.595
22015W        W94440  38.457  39.009   1.297
22016W        W94441  32.927  30.655   1.121
22017W        W94442  24.542  43.525   2.271
22018W        W94443  11.220  15.595   2.253
22019W        W94444  27.760  37.036  13.398
22020W        W94445  44.037  19.479  11.527
22021W        W94446  28.090  25.963  13.889
22022W        W94447  15.141  17.996   1.207
22023W        W94448  26.429   9.023  11.480
22024W        W94449   0.567   3.404  11.669
22025W        W94450   0.055  29.133  14.261
22026W        W94451   0.168   2.544   3.598
22027W        W94452  13.196  29.501  11.575
22028W        W94453  24.530  31.240   0.745
22029W        W94454  35.051  12.942   2.161
22030W        W94455  13.847  34.333  13.871
22031W        W94456  28.997   8.721  13.507
22032W        W94457  14.731  14.372   3.695
22033W        W94458  16.263  43.417   0.913
22034W        W94459  25.797  38.699  12.781
22035W        W94460  44.546  24.723   0.461
22036W        W94461  39.786  10.130  11.562
22037W        W94462  44.800  38.747  14.380
22038W        W94463  31.946  15.508  12.915
22039W        W94464  24.431  40.227   1.764
22040W        W94465  39.810  30.508  14.350
22041W        W94466  30.668  12.810   1.884
22042W        W94467  10.805   4.909   0.779
22043W        W94468  43.046  13.363   3.209
22044W        W94469  21.579  22.898  13.991
22045W        W94470  29.475  19.344  13.197
22046W        W94471  15.879  43.400   3.809
22047W        W94472   6.651  22.302   3.161
22048W        W94473  43.374  19.575   1.415
22049W        W94474  43.002  21.127  14.801
22050W        W94475   4.975  41.836  13.982
22051W        W94476  41.747  32.591   1.803
22052W        W94477   2.926  23.196  12.905
22053W        W94478  11.339  12.769   4.353
22054W        W94479  18.754   6.737   2.764
22055W        W94480   3.187  10.364  14.428
22056W        W94481  23.248  35.996   0.381
22057W        W94482  13.669  25.723   3.111
22058W        W94483  13.995  30.705  14.881
22059W        W94484  11.367   4.277   1.205
22060W        W94485  44.950   4.939  12.901
22061W        W94486  19.908   1.026  14.907
22062W        W94487  17.771   4.394  10.877
22063W        W94488   0.977  21.493  10.990
22064W        W94489  31.545  38.502  13.121
22065W        W94490   1.257  13.889   2.629
22066W        W94491  30.178  24.404  13.041
22067W        W94492  33.590   5.350  14.392
22068W        W94493  38.139  14.348  13.327
22069W        W94494  32.169  15.155  12.611
22070W        W94495  25.748  29.412   0.411
22071W        W94496  39.508  18.536   0.111
22072W        W94497  39.210   8.445   4.790
22073W        W94498   0.300  14.206  13.365
22074W        W94499  31.869  43.215  13.458
22075W        W94500  22.965   7.012  14.293
22076W        W94501  16.287   5.382  11.065
22077W        W94502  12.903  27.101  11.434
22078W        W94503  31.911  41.589  11.975
22079W        W94504  20.127  42.255   1.740
22080W        W94505  22.351   8.968   5.092
22081W        W94506   0.389  37.465  12.751
22082W        W94507  40.415  35.998   3.149
22083W        W94508   5.251  32.119   5.017
22084W        W94509   1.271  43.847  12.615
22085W        W94510  33.967  29.393  13.017
22086W        W94511  43.079  44.926  13.121
22087W        W94512  34.879  24.565   0.979
22088W        W94513  33.107  40.062   2.168
22089W        W94514  29.661  25.407   3.214
22090W        W94515  39.509  11.586   3.682
22091W        W94516  15.135  19.781  10.773
22092W        W94517  13.772  10.926   1.862
22093W        W94518  23.533  38.606  11.797
22094W        W94519   1.302  13.704   3.127
22095W        W94520  41.107  24.988   2.672
22096W        W94521  22.042  37.924   0.870
22097W        W94522  40.848  25.227   1.479
22098W        W94523  26.535  34.684   4.212
22099W        W94524  18.265  26.997   4.206
22100W        W94525  13.555  43.041  13.355
22101W        W94526  17.331  18.218  11.549
22102W        W94527  22.777  16.708  11.042
22103W        W94528  19.637  34.418  14.964
22104W        W94529  19.188  18.656  10.685
22105W        W94530  20.767  33.957   0.346
22106W        W94531  43.715   0.271   3.739
22107W        W94532  15.039  43.775   0.724
22108W        W94533  27.463  19.212   1.886
22109W        W94534  32.514  41.493   3.703
22110W        W94535   9.437  44.302  14.967
22111W        W94536  33.562  39.441   4.026
22112W        W94537  41.067  10.966   3.596
22113W        W94538  40.338  32.053   3.129
22114W        W94539  37.528   0.277   2.801
22115W        W94540  25.512  22.601  10.715
22116W        W94541   1.000  16.606   4.681
22117W        W94542  31.383  19.185  12.803
22118W        W94543  25.659  43.679   4.125
22119W        W94544  23.318  36.414  11.116
22120W        W94545  23.564  42.231   3.857
22121W        W94546  20.007  19.803  13.920
22122W        W94547  13.691   9.226  13.027
22123W        W94548  27.773  38.696  11.640
22124W        W94549  24.287   5.411  13.458
22125W        W94550  35.306  27.205  12.557
22126W        W94551  44.757  19.656   4.428
22127W        W94552  37.286  27.563  13.072
22128W        W94553   9.903   8.398  10.463
22129W        W94554   8.299  32.103   0.498
22130W        W94555  38.956  12.206  14.904
22131W        W94556   8.432   5.797  14.667
22132W        W94557  15.536  13.566   4.745
22133W        W94558  10.038  29.775   2.814
22134W        W94559  38.216  25.148   1.834
22135W        W94560  14.370  14.531   1.814
22136W        W94561  42.321  39.952  10.855
22137W        W94562  35.918  17.211   3.585
22138W        W94563   7.344  44.783  12.618
22139W        W94564   6.869   6.598   2.259
22140W        W94565  36.877  34.632   4.120
22141W        W94566  33.641  12.457  12.104
22142W        W94567  10.829  18.988   3.322
22143W        W94568  30.664  19.183  12.542
22144W        W94569  21.262   2.132  12.999
22145W        W94570  23.038  35.406   2.904
22146W        W94571   2.308  27.872  14.405
22147W        W94572  15.032   0.738  14.892
22148W        W94573  25.055  32.318  10.702
22149W        W94574  39.053   7.921   2.822
22150W        W94575   4.861  22.005  11.160
22151W        W94576  42.494  32.672  12.633
22152W        W94577  27.399  34.755   0.410
22153W        W94578  17.173   6.934   0.016
22154W        W94579  24.325  31.210  11.993
22155W        W94580  31.559   1.903   2.736
22156W        W94581  12.716  22.561  10.821
22157W        W94582  10.168  29.558   1.397
22158W        W94583  40.372   2.995  14.331
22159W        W94584   0.967  34.057   0.414
22160W        W94585  23.136  39.746  11.611
22161W        W94586   8.686  40.158   2.775
22162W        W94587  22.933  39.505  12.055
22163W        W94588  14.670   3.943  12.642
22164W        W94589   7.947  33.108  12.266
22165W        W94590  21.222  31.991  13.030
22166W        W94591  21.418  10.459  11.198
22167W        W94592  19.599  36.830   3.729
22168W        W94593   9.901  21.460  14.470
22169W        W94594  41.153  27.954  12.915
22170W        W94595  12.232  28.871  12.914
22171W        W94596  24.295   0.809  10.734
22172W        W94597  25.354   8.122   1.192
22173W        W94598  44.492  30.810   3.303
22174W        W94599  32.294  36.188   5.028
22175W        W94600  24.531  14.762   4.545
22176W        W94601  38.863  43.930   1.192
22177W        W94602  39.310  39.546  12.557
22178W        W94603   5.065  34.917   4.420
22179W        W94604  43.912  43.478  14.965
22180W        W94605  40.148  22.369  12.723
22181W        W94606   6.764  33.473  10.747
22182W        W94607   6.927   7.348   2.904
22183W        W94608  13.346  12.802   3.237
22184W        W94609  14.232  26.358  11.579
22185W        W94610   0.921  14.538   3.776
22186W        W94611  34.888  25.365  11.622
22187W        W94612  32.437   7.754  11.240
22188W        W94613   3.827  11.665  12.444
22189W        W94614  16.047  39.878   2.505
22190W        W94615  16.937  40.783   1.452
22191W        W94616  17.280  22.361   4.141
22192W        W94617  22.717   5.398  11.988
22193W        W94618   7.429  22.058  12.075
22194W        W94619  14.551  41.433   2.583
22195W        W94620  30.588  28.753   2.777
22196W        W94621   2.026  17.020   0.917
22197W        W94622   3.140  16.108  13.743
22198W        W94623   2.279  29.577   4.894
22199W        W94624  14.102  22.386   4.471
22200W        W94625  17.549  36.502   3.076
22201W        W94626  40.538  23.221   4.554
22202W        W94627   8.586  11.235   4.772
22203W        W94628  21.904  41.254   0.246
22204W        W94629  34.775  38.020   4.484
22205W        W94630  23.236  21.298   0.297
22206W        W94631  12.903  18.573   1.956
22207W        W94632  27.503  18.135  10.999
22208W        W94633  24.026   1.686   4.510
22209W        W94634  12.254  30.690   3.634
22210W        W94635   1.684  33.695   3.875
22211W        W94636  31.592  43.463   2.674
22212W        W94637  44.640  26.058   0.369
22213W        W94638  20.415   8.170  12.082
22214W        W94639  17.544   9.177  12.320
22215W        W94640  10.109  28.080  12.847
22216W        W94641  33.009  43.380   3.675
22217W        W94642  13.122  16.818  12.045
22218W        W94643  38.721  34.966   3.712
22219W        W94644   8.618   4.416   0.360
22220W        W94645  40.393   4.334   0.869
22221W        W94646  20.726  34.009   4.407
22222W        W94647  41.936  33.940  12.914
22223W        W94648   1.923  29.903   4.507
22224W        W94649  41.012  16.603   2.357
22225W        W94650  16.821  24.626   4.852
22226W        W94651  19.062  23.652   1.839
22227W        W94652  28.039  17.471   3.678
22228W        W94653  13.004  11.352   2.726
22229W        W94654  35.091   2.573  11.839
22230W        W94655  41.554  29.389  13.772
22231W        W94656   1.374   5.457  13.611
22232W        W94657   7.388   2.925  13.093
22233W        W94658  36.310   9.291  10.466
22234W        W94659  32.416  14.975  13.965
22235W        W94660  22.684  38.892  13.939
22236W        W94661  11.344  28.285  12.199
22237W        W94662   1.908  41.610   3.216
22238W        W94663  40.802   4.317   0.094
22239W        W94664  27.184   4.761  10.380
22240W        W94665  25.246  41.944  10.693
22241W        W94666  34.357   1.791  14.872
22242W        W94667  38.012   0.909  12.878
22243W        W94668  37.504  21.733  14.874
22244W        W94669  42.050  30.587   4.318
22245W        W94670  38.936  22.928  11.432
22246W        W94671  42.699   1.030  14.266
22247W        W94672  33.575  25.161  11.996
22248W        W94673  31.926  40.248   1.775
22249W        W94674  31.965  33.781   3.379
22250W        W94675  37.415   8.651   0.569
22251W        W94676  12.571  34.049   1.454
22252W        W94677  18.192  31.849   2.819
22253W        W94678  11.859  17.151   0.179
22254W        W94679  36.802  15.662   1.054
22255W        W94680  34.758  41.043   3.141
22256W        W94681  37.970  13.653  14.498
22257W        W94682  23.028  32.049  11.982
22258W        W94683  16.749  11.907   3.196
22259W        W94684  38.913   0.877   2.194
22260W        W94685  18.686  10.090   2.322
22261W        W94686  36.504  38.811   4.211
22262W        W94687  43.947  29.083  12.181
22263W        W94688  24.034  32.898   0.643
22264W        W94689  30.938  13.813  10.578
22265W        W94690  29.662  18.169  12.169
22266W        W94691  28.312  39.033  13.497
22267W        W94692  15.580  20.732  11.048
22268W        W94693  19.560  40.005   4.599
22269W        W94694  36.938  20.428  13.480
22270W        W94695  21.775  42.282  12.788
22271W        W94696  42.260  22.341  12.984
22272W        W94697  38.392  42.015  12.158
22273W        W94698   3.725  20.980   4.590
22274W        W94699  23.981  28.212   4.605
22275W        W94700  15.038  36.679   0.538
22276W        W94701  44.054  17.199  10.801
22277W        W94702  33.639  40.734  12.127
22278W        W94703  21.340  25.640  13.262
22279W        W94704  13.326  43.599   0.851
22280W        W94705  17.145  33.031   0.840
22281W        W94706  39.248   3.860  12.505
22282W        W94707   8.256  16.712   2.663
22283W        W94708  36.116  44.455  10.306
22284W        W94709   3.832  18.851  11.981
22285W        W94710   9.465  32.022  12.544
22286W        W94711  37.070  35.917   4.083
22287W        W94712  24.216  30.573   0.835
22288W        W94713  30.254  10.980  11.046
22289W        W94714  42.309  14.015   4.081
22290W        W94715   1.542  12.634  14.525
22291W        W94716  10.490  14.040   0.055
22292W        W94717  23.643   0.609  11.013
22293W        W94718  27.536   5.755   4.870
22294W        W94719  19.896  40.030   3.201
22295W        W94720  36.761  18.267  12.829
22296W        W94721  35.925  12.808   0.544
22297W        W94722  21.691  39.948   0.443
22298W        W94723  25.674   6.234  14.514
22299W        W94724  42.905   1.937  14.488
22300W        W94725  41.030  29.244  12.611
22301W        W94726  27.596  26.794  12.980
22302W        W94727  40.807  31.294  12.017
22303W        W94728  12.139   4.469   5.354
22304W        W94729  17.105  41.451   2.215
22305W        W94730  32.160  29.788  11.166
22306W        W94731  20.066  26.013  11.459
22307W        W94732   8.276  12.788   2.987
22308W        W94733  10.072  30.654   1.376
22309W        W94734  28.618  13.581  11.051
22310W        W94735   7.171  41.778  11.171
22311W        W94736   4.882  28.065   0.065
22312W        W94737  13.818   4.294  14.080
22313W        W94738  37.200  21.700  12.970
22314W        W94739  32.638  32.185   2.528
22315W        W94740  35.824   1.221  11.445
22316W        W94741  13.071  22.270   9.806
22317W        W94742  30.487   4.559   2.628
22318W        W94743   9.902  27.500  11.241
22319W        W94744   7.814  11.796  11.681
22320W        W94745   2.842  43.728   3.887
22321W        W94746  13.728  27.536   4.884
22322W        W94747  41.639  17.346   4.886
22323W        W94748  11.980  25.079  14.839
22324W        W94749  34.451   4.157   2.024
22325W        W94750  24.844  21.183  11.409
22326W        W94751  22.463   5.809  12.137
22327W        W94752  27.157  40.361  10.624
22328W        W94753  14.704  34.239  12.882
22329W        W94754  11.320  27.656   3.390
22330W        W94755   8.061   5.647  13.362
22331W        W94756  26.531  31.143  10.668
22332W        W94757   4.178  38.623   2.753
22333W        W94758   3.103  44.799  12.089
22334W        W94759  13.697   6.321  12.866
22335W        W94760   8.237   0.671  13.070
22336W        W94761  38.444  42.486  14.018
22337W        W94762   0.390  43.203  12.942
22338W        W94763  44.039  10.685  14.299
22339W        W94764  44.826  15.200   3.008
22340W        W94765  10.871  12.790   5.279
22341W        W94766   7.107   7.724  10.666
22342W        W94767  23.875  39.324  12.243
22343W        W94768  13.697  39.403  13.064
22344W        W94769  42.341   3.263  14.434
22345W        W94770  33.375  14.480   0.505
22346W        W94771  39.866  40.377  12.343
22347W        W94772  18.798  12.855   2.693
22348W        W94773  24.938   9.349   2.088
22349W        W94774   6.692  25.053   2.737
22350W        W94775   2.489  13.294   0.543
22351W        W94776  18.487  35.494  12.951
22352W        W94777  36.998  18.377  10.647
22353W        W94778  44.002  10.291   1.361
22354W        W94779  28.426  12.600   2.181
22355W        W94780   5.439  33.481   1.668
22356W        W94781  33.985  27.135  12.329
22357W        W94782  29.502  15.718  11.676
22358W        W94783  27.894  19.280   0.545
22359W        W94784  24.533  20.317  11.129
22360W        W94785  10.418   4.354  10.593
22361W        W94786  25.603  13.689  11.526
22362W        W94787   2.133   8.306  13.955
22363W        W94788  32.434   9.282  13.584
22364W        W94789   4.885  39.331   3.418
22365W        W94790  37.116  31.922  14.037
22366W        W94791  20.097  17.402  14.294
22367W        W94792  28.484   3.833  13.252
22368W        W94793  25.949  21.059   0.424
22369W        W94794  34.107  11.775   4.780
22370W        W94795  32.416  15.652  11.022
22371W        W94796  44.778   7.734  11.569
22372W        W94797  26.619   7.250  10.611
22373W        W94798  18.608   0.935  12.818
22374W        W94799  41.098  17.920  12.500
22375W        W94800  12.843  16.626   3.412
22376W        W94801  23.913   0.856  12.611
22377W        W94802  31.664  19.392  12.412
22378W        W94803  44.475  26.843   3.429
22379W        W94804  28.012   8.644  13.583
22380W        W94805  43.333  38.962  11.726
22381W        W94806   4.211  21.616   1.824
22382W        W94807  32.147  25.626  14.881
22383W        W94808  27.187  32.074  14.407
22384W        W94809  24.456   3.290   0.219
22385W        W94810  38.974  39.406  10.372
22386W        W94811  23.617  12.788   0.002
22387W        W94812   6.685  18.470  10.798
22388W        W94813  29.386  25.608   2.809
22389W        W94814  24.644   6.656   2.172
22390W        W94815  29.866  15.237   2.143
22391W        W94816   0.306  43.370   4.831
22392W        W94817  23.499  18.740  14.363
22393W        W94818   7.069  19.595  13.439
22394W        W94819  11.784  44.985  11.576
22395W        W94820  30.106  17.360   0.405
22396W        W94821   1.353  12.818   3.862
22397W        W94822  16.281  38.575  11.215
22398W        W94823   5.775  37.399  12.195
22399W        W94824  38.707  16.700  12.111
22400W        W94825  22.696  40.445  12.997
22401W        W94826   8.372  13.604  14.987
22402W        W94827  17.703  19.005  14.333
22403W        W94828   6.148  21.583  12.940
22404W        W94829   4.459   6.310   2.180
22405W        W94830  23.469   7.407   1.220
22406W        W94831  15.153   8.288  12.354
22407W        W94832   7.649   1.454   4.404
22408W        W94833  27.076   3.412  11.017
22409W        W94834  14.379   0.895   4.963
22410W        W94835  36.878  26.152   4.470
22411W        W94836   0.855  17.715  13.084
22412W        W94837  24.754  14.651  14.406
22413W        W94838  36.878  10.416  14.763
22414W        W94839   8.372  42.317   2.146
22415W        W94840  37.335  34.515  14.116
22416W        W94841  16.074   6.279   0.916
22417W        W94842   5.965  18.122  11.188
22418W        W94843  43.036   0.377  11.611
22419W        W94844  37.913  26.238   2.364
22420W        W94845  19.111  15.207  14.745
22421W        W94846   1.426  27.355   0.091
22422W        W94847   2.357  24.725   3.595
22423W        W94848  21.995  24.726  11.845
22424W        W94849  20.801  37.523   0.233
22425W        W94850  17.851  39.355  12.642
22426W        W94851  29.999  16.543  14.816
22427W        W94852   7.196  31.574   0.952
22428W        W94853  43.021  20.767   0.787
22429W        W94854  16.070  18.582  11.613
22430W        W94855   7.832  35.299  14.495
22431W        W94856   4.449  20.745   2.912
22432W        W94857  36.064  21.167   1.543
22433W        W94858  19.539  24.942  12.692
22434W        W94859  37.750  41.604  11.493
22435W        W94860  32.366  24.170  14.456
22436W        W94861   1.343  28.178  11.073
22437W        W94862  37.446  30.033  13.412
22438W        W94863  15.863   0.887  12.395
22439W        W94864  30.617  30.867   1.330
22440W        W94865  32.062   3.648   1.081
22441W        W94866   5.884  44.287   3.509
22442W        W94867  38.558  18.974  12.588
22443W        W94868   8.458  41.618   4.085
22444W        W94869  28.093  23.043  12.936
22445W        W94870  18.573  26.497   2.600
22446W        W94871   9.946   7.361  14.234
22447W        W94872  20.063  13.594  14.490
22448W        W94873  31.633  38.823  10.533
22449W        W94874  36.220  13.181   5.151
22450W        W94875  15.139  40.340  13.049
22451W        W94876  31.092  27.206  14.576
22452W        W94877   8.438  28.872   2.736
22453W        W94878  38.157  35.533  11.034
22454W        W94879  21.377  37.834   3.935
22455W        W94880  16.687  17.698  13.065
22456W        W94881  10.654   2.647   1.373
22457W        W94882  10.102   8.106  12.480
22458W        W94883  35.885   1.241   2.794
22459W        W94884  34.528  41.530  13.534
22460W        W94885  22.645   3.084  13.512
22461W        W94886  27.089  33.910   1.889
22462W        W94887  43.238   9.613  13.867
22463W        W94888   9.898   2.744   3.678
22464W        W94889   8.957  27.509  13.052
22465W        W94890  30.042  31.815   0.863
22466W        W94891  12.599  26.553   1.737
22467W        W94892   6.780  10.790  13.340
22468W        W94893  10.255  28.199   4.640
22469W        W94894   9.193  29.922  11.556
22470W        W94895   1.069  30.157   4.643
22471W        W94896  37.928  39.604   4.177
22472W        W94897  13.064  26.253  10.516
22473W        W94898  13.680  28.940  12.930
22474W        W94899   3.265  43.270   3.269
22475W        W94900  24.104  44.271  13.284
22476W        W94901  16.531  33.610  14.054
22477W        W94902  17.061  36.845   3.619
22478W        W94903  29.978  18.764   2.155
22479W        W94904  16.039  26.737  11.051
22480W        W94905   2.368  35.494  11.983
22481W        W94906  32.101  37.380   2.811
22482W        W94907   2.026  17.874   0.813
22483W        W94908   4.664   7.862  12.019
22484W        W94909   8.372  24.245  11.276
22485W        W94910  27.515   5.588  14.431
22486W        W94911  25.966  15.519   1.349
22487W        W94912  18.079  31.973  11.928
22488W        W94913   1.782  14.814  11.664
22489W        W94914  32.159   3.827   1.553
22490W        W94915  23.220  23.347   4.255
22491W        W94916  15.792   9.628  14.917
22492W        W94917  44.871  40.059  11.421
22493W        W94918  14.463  31.476   1.430
22494W        W94919   6.993  14.900   3.640
22495W        W94920  39.530   1.814   2.735
22496W        W94921  32.337   2.604   3.644
22497W        W94922  10.433  27.150   2.937
22498W        W94923  19.643   1.940   3.336
22499W        W94924  41.939  22.625  14.436
22500W        W94925   9.396  44.337   4.747
22501W        W94926  14.126  36.895   1.159
22502W        W94927  42.365  44.751  13.454
22503W        W94928  12.821  16.187  11.133
22504W        W94929   2.475  27.687   4.465
22505W        W94930  39.305  16.217   0.406
22506W        W94931   0.886  15.640   9.824
22507W        W94932  44.473  28.584  14.712
22508W        W94933  36.794   0.775  14.836
22509W        W94934  21.087  40.993   4.541
22510W        W94935  27.080  41.518   4.399
22511W        W94936  38.048  28.984  10.966
22512W        W94937  19.260   8.892   0.495
22513W        W94938  40.351   2.565  11.129
22514W        W94939  10.171  38.872   5.055
22515W        W94940  11.821   9.161   4.522
22516W        W94941  30.898  21.891   0.557
22517W        W94942  26.429  29.077   2.180
22518W        W94943  28.369   4.788   4.223
22519W        W94944  31.405  11.591   2.241
22520W        W94945  36.913  38.608  14.661
22521W        W94946  39.618  24.166   2.174
22522W        W94947  32.983  35.743   0.675
22523W        W94948   9.745  35.621  14.259
22524W        W94949   9.245   1.240  14.807
22525W        W94950  17.372  24.797  12.129
22526W        W94951   5.810   3.472  12.997
22527W        W94952  13.151  18.369  10.438
22528W        W94953  12.942  30.508  14.557
22529W        W94954   8.455  17.390   4.730
22530W        W94955   7.717  31.830   3.255
22531W        W94956  31.109  31.132  11.102
22532W        W94957   1.916  33.422  11.596
22533W        W94958  27.315  32.015  14.932
22534W        W94959  27.439  27.281   4.713
22535W        W94960  16.164  23.885  14.917
22536W        W94961  43.966  19.598  14.145
22537W        W94962  31.670  21.782   3.592
22538W        W94963   6.842  13.580   4.818
22539W        W94964  43.072   5.344   2.127
22540W        W94965   6.639  27.571   1.790
22541W        W94966  23.556  11.939  14.468
22542W        W94967  35.333  15.436   2.721
22543W        W94968  28.397  25.302  10.098
22544W        W94969  15.758   2.407  14.054
22545W        W94970  34.475  23.671  11.195
22546W        W94971  25.177  40.149  13.018
22547W        W94972  11.671  22.677  11.000
22548W        W94973  33.007  44.127  13.321
22549W        W94974  31.118  35.468  14.413
22550W        W94975  22.778  32.100   3.275
22551W        W94976  35.422  19.465  12.134
22552W        W94977  33.446   7.151   3.809
22553W        W94978  31.562  25.904  13.069
22554W        W94979  35.340  37.451   1.289
22555W        W94980   1.788  15.419   3.868
22556W        W94981  19.512  25.442  11.245
22557W        W94982   6.467   3.832  11.921
22558W        W94983  26.227  23.453  11.333
22559W        W94984  29.521  42.427  12.971
22560W        W94985  42.753  21.633   2.173
22561W        W94986  26.146  23.288  14.416
22562W        W94987   8.940  15.640   5.092
22563W        W94988  17.669  42.810  14.635
22564W        W94989  30.774  24.612   4.954
22565W        W94990  25.895  15.603   3.668
22566W        W94991  33.582  13.145  11.531
22567W        W94992  31.584  40.331  11.310
22568W        W94993  41.753   1.491   2.433
22569W        W94994  11.194   2.243  12.316
22570W        W94995  31.562  32.631   0.365
22571W        W94996  21.401  10.116  14.899
22572W        W94997   9.182   6.908   4.104
22573W        W94998  31.319  44.726   4.377
22574W        W94999  22.983  26.105  13.454
22575W        W95000  26.522  24.978   1.663
22576W        W95001  38.346  36.556   1.270
22577W        W95002  18.729   9.007  11.613
22578W        W95003   8.773  44.560   4.149
22579W        W95004   2.501   2.233  12.761
22580W        W95005  16.650  28.422  13.968
22581W        W95006  12.827   3.747   3.399
22582W        W95007   7.904  21.299  13.037
22583W        W95008   4.355  17.085   1.232
22584W        W95009  26.041  31.885   1.279
22585W        W95010  38.049  32.561  13.466
22586W        W95011  29.222  21.256   3.099
22587W        W95012  34.462  44.253   0.983
22588W        W95013  10.871   7.288   1.349
22589W        W95014  18.146  20.645  11.120
22590W        W95015  39.383  39.004   3.110
22591W        W95016   9.238   2.904   4.893
22592W        W95017  19.717  44.699   2.423
22593W        W95018  26.401  18.500  10.613
22594W        W95019  29.879  16.755   4.505
22595W        W95020  11.762   6.768   1.340
22596W        W95021  36.980  11.536  11.537
22597W        W95022  22.171   7.482  14.349
22598W        W95023  34.771  42.905  13.589
22599W        W95024   0.762  24.141   2.468
22600W        W95025  25.714  16.591  13.149
22601W        W95026  23.748  40.055  14.543
22602W        W95027  15.706   7.298  14.254
22603W        W95028  25.145  13.363  10.688
22604W        W95029  28.518  29.922   4.306
22605W        W95030  29.311  29.629   2.292
22606W        W95031   3.699  22.630   3.577
22607W        W95032  29.387  10.310   0.322
22608W        W95033  14.832  24.622   1.006
22609W        W95034  16.224   0.416  13.604
22610W        W95035   3.622  29.001  13.490
22611W        W95036  18.556   2.938  12.994
22612W        W95037  11.777   0.318  13.840
22613W        W95038  15.759  16.073  12.617
22614W        W95039   4.276  17.833  14.905
22615W        W95040  37.635  12.321  12.487
22616W        W95041  20.594  22.716   3.625
22617W        W95042   2.408  19.183  13.305
22618W        W95043   4.197   8.117   4.379
22619W        W95044   2.089  37.449   3.400
22620W        W95045  20.378   8.335   2.318
22621W        W95046   2.519  42.983  10.724
22622W        W95047   0.398   3.248   2.872
22623W        W95048  23.258   5.966  14.368
22624W        W95049  41.578  29.147   3.888
22625W        W95050  11.797  21.611   5.110
22626W        W95051  10.557  14.840  13.580
22627W        W95052  13.243  14.567   2.815
22628W        W95053  29.084  38.453  12.151
22629W        W95054  18.482  25.952  14.043
22630W        W95055  14.223  22.175   4.941
22631W        W95056  29.147   8.904   0.549
22632W        W95057  22.632   9.501   3.711
22633W        W95058  43.032  38.340   2.912
22634W        W95059  43.337  30.738  12.444
22635W        W95060  41.048  21.231  11.072
22636W        W95061  35.836  38.302  12.050
22637W        W95062  14.123  12.893  11.569
22638W        W95063  13.243   1.863   2.652
22639W        W95064  18.713  44.323   2.430
22640W        W95065  18.610  22.665   1.795
22641W        W95066  24.201   0.525   4.882
22642W        W95067   4.733  32.454  11.401
22643W        W95068  36.568   2.298  14.088
22644W        W95069  28.661  27.878   3.263
22645W        W95070  17.434  12.243   3.628
22646W        W95071   9.675  31.988   9.993
22647W        W95072   5.136  22.367  14.061
22648W        W95073  28.593  41.368  13.386
22649W        W95074  29.603  41.870   0.812
22650W        W95075   8.102   3.975  10.755
22651W        W95076  11.307  44.337  13.923
22652W        W95077  11.867  26.447  10.001
22653W        W95078  26.987  26.284  11.595
22654W        W95079  21.462  25.153  12.596
22655W        W95080  16.151   6.756   0.724
22656W        W95081  10.369  17.846  11.033
22657W        W95082  37.130   8.206   1.380
22658W        W95083  22.573  14.233   0.227
22659W        W95084  23.720  16.984   0.657
22660W        W95085   5.700   8.410   2.782
22661W        W95086   4.985  21.948   4.913
22662W        W95087  21.210  32.504  11.639
22663W        W95088  16.095   3.166  12.099
22664W        W95089  22.052  36.273   0.114
22665W        W95090  10.577  44.687  14.035
22666W        W95091   9.442   8.880  14.843
22667W        W95092  20.625  42.967  12.013
22668W        W95093   1.878  34.168  14.842
22669W        W95094  15.039   2.500   4.684
22670W        W95095  24.746   5.188   0.937
22671W        W95096  43.537  23.677   0.336
22672W        W95097  25.652  27.062   4.543
22673W        W95098  15.252  24.090  12.582
22674W        W95099  44.359  44.331   2.434
22675W        W95100  12.633   7.720   1.177
22676W        W95101  34.382  27.208  12.871
22677W        W95102  43.363  19.967   3.474
22678W        W95103   4.668  28.389  12.122
22679W        W95104  12.309  12.637  13.948
22680W        W95105  17.634  42.522   3.560
22681W        W95106  36.085   8.169  10.997
22682W        W95107  38.537  21.440   1.904
22683W        W95108  11.160   8.150   2.992
22684W        W95109  10.697  36.072   3.552
22685W        W95110  27.619  40.233   4.649
22686W        W95111  14.845  21.721   4.356
22687W        W95112  41.731  31.374   2.769
22688W        W95113  18.169  25.664   0.746
22689W        W95114  19.177  39.735   4.845
22690W        W95115  31.634  26.886   1.998
22691W        W95116  21.526  30.984   4.103
22692W        W95117  11.620   6.370   0.427
22693W        W95118  14.828  14.897   3.640
22694W        W95119  30.544  42.826  12.175
22695W        W95120  30.214  36.396  12.905
22696W        W95121  12.535   3.350  13.383
22697W        W95122  35.028  43.303  13.386
22698W        W95123   9.814   6.255   1.830
22699W        W95124  23.707  25.461  12.892
22700W        W95125  35.657  10.167   0.405
22701W        W95126  12.395  22.653   4.119
22702W        W95127  40.501  44.481  10.928
22703W        W95128   3.570  10.106   2.764
22704W        W95129  29.989  27.662  13.872
22705W        W95130   7.412  30.548  11.629
22706W        W95131  28.359  42.939   2.230
22707W        W95132  23.566   6.150  13.540
22708W        W95133  43.861  31.414   2.295
22709W        W95134  18.520  39.773   2.167
22710W        W95135  37.531  15.792  13.027
22711W        W95136  43.949  16.187  13.111
22712W        W95137   6.372  18.248   5.090
22713W        W95138  11.168  25.299  14.475
22714W        W95139   9.670  37.267   1.317
22715W        W95140  38.912  23.455   0.470
22716W        W95141   5.418   6.321  13.889
22717W        W95142  16.293  36.849   0.733
22718W        W95143  20.712  39.284   4.192
22719W        W95144  37.879   9.829  11.431
22720W        W95145  25.644   4.188   3.197
22721W        W95146  38.025  17.014  13.810
22722W        W95147  10.538   5.258   2.321
22723W        W95148  20.546   9.198  11.090
22724W        W95149  11.620  16.575   1.386
22725W        W95150  19.167   9.886   2.371
22726W        W95151  22.159  28.046  13.402
22727W        W95152  11.568  44.733  11.964
22728W        W95153  27.931  36.369  14.809
22729W        W95154  17.487  40.804  11.738
22730W        W95155   7.116   9.866   2.482
22731W        W95156  23.111  44.202   3.353
22732W        W95157  19.936  42.799   0.159
22733W        W95158  26.655   2.175  14.045
22734W        W95159   8.677  42.829   3.503
22735W        W95160  14.584   8.594   4.612
22736W        W95161  41.553   8.623   3.700
22737W        W95162  21.091  16.141   0.051
22738W        W95163   2.584  34.243  14.855
22739W        W95164   5.450   0.212  14.982
22740W        W95165  41.553   7.445   0.724
22741W        W95166   4.825  21.012   1.289
22742W        W95167  30.481  10.769  14.913
22743W        W95168  38.505   6.753   3.826
22744W        W95169  30.343  25.440   2.611
22745W        W95170  10.122  30.707   3.683
22746W        W95171  31.625  20.900  13.508
22747W        W95172  38.877   9.146   4.978
22748W        W95173  44.293  34.000   9.825
22749W        W95174  35.087  30.070  12.354
22750W        W95175  38.373  37.462  14.011
22751W        W95176  17.969  29.557  13.373
22752W        W95177  40.080  42.707  12.968
22753W        W95178  29.896  31.320   0.940
22754W        W95179   8.548  19.999  11.283
22755W        W95180  10.971  15.861   3.820
22756W        W95181  24.344  32.006  14.558
22757W        W95182   5.346  34.050   4.413
22758W        W95183  43.492  36.415  13.516
22759W        W95184   2.886  19.078   2.600
22760W        W95185  40.347  22.985  14.364
22761W        W95186  43.347  17.513  11.206
22762W        W95187  11.411   5.841   4.084
22763W        W95188  19.236   4.205  11.745
22764W        W95189  16.716  25.717   3.984
22765W        W95190  40.738  21.257  13.714
22766W        W95191  42.514  23.540  12.132
22767W        W95192  16.246   6.549   3.752
22768W        W95193   1.975  26.008   2.632
22769W        W95194  28.657  34.957  13.009
22770W        W95195   3.265  40.941  13.372
22771W        W95196   3.348  31.424  13.072
22772W        W95197  35.293  43.939   3.785
22773W        W95198  39.875   7.510   2.306
22774W        W95199  35.825  24.496  14.849
22775W        W95200  28.590   2.305  12.447
22776W        W95201  39.054  10.733  13.002
22777W        W95202  25.439  17.182   3.246
22778W        W95203   0.035  40.960  11.456
22779W        W95204  32.955  36.496  11.942
22780W        W95205  25.154  31.639  14.853
22781W        W95206  29.230  39.568  14.350
22782W        W95207  22.363  23.217   0.324
22783W        W95208  36.866  27.307  12.947
22784W        W95209   1.784  29.898   2.226
22785W        W95210  18.729  33.651  10.948
22786W        W95211  22.850  37.146   1.762
22787W        W95212  43.522  34.894   2.803
22788W        W95213  42.815  26.860   4.550
22789W        W95214  31.309   4.158  14.028
22790W        W95215  37.411   4.249  13.646
22791W        W95216  17.766  32.634  12.934
22792W        W95217   6.497  26.029  11.877
22793W        W95218  31.163  40.074  13.562
22794W        W95219  18.777  34.903  11.525
22795W        W95220  34.315   5.034  13.123
22796W        W95221  26.577  33.653   4.206
22797W        W95222  35.815  21.978  13.046
22798W        W95223  20.643  15.602   4.099
22799W        W95224  38.510  29.592   3.669
22800W        W95225  32.617  21.271  11.089
22801W        W95226   3.349  44.237  10.911
22802W        W95227  36.999  35.039   0.570
22803W        W95228   1.349  29.598   1.471
22804W        W95229  16.999  15.188   3.614
22805W        W95230  32.941   8.710  13.482
22806W        W95231  32.952  42.549  13.043
22807W        W95232  41.561  28.495   0.924
22808W        W95233  34.211  12.779   3.404
22809W        W95234  16.382  33.207   0.164
22810W        W95235  23.171   1.629   2.777
22811W        W95236  22.234  25.203  11.980
22812W        W95237  22.635  42.818   5.080
22813W        W95238  39.916  21.616  13.922
22814W        W95239  37.413  24.600   4.803
22815W        W95240   5.267   2.279   3.273
22816W        W95241   3.884   5.392   0.070
22817W        W95242  29.880   8.888   4.084
22818W        W95243  31.228   6.874  11.194
22819W        W95244  15.675  31.632   0.259
22820W        W95245   6.667  40.893  11.083
22821W        W95246  11.898  30.586  11.104
22822W        W95247  10.204  29.128   0.056
22823W        W95248  12.954  28.629   1.924
22824W        W95249  39.357  43.818   1.341
22825W        W95250  20.333   4.835  10.907
22826W        W95251  28.336  41.452   4.533
22827W        W95252   2.332  39.023  12.846
22828W        W95253   9.326  41.993   4.181
22829W        W95254  23.132  18.074  14.114
22830W        W95255   7.886  17.117   1.417
22831W        W95256  35.145  36.093   0.754
22832W        W95257   3.579  22.299  14.832
22833W        W95258   4.746  37.835  13.445
22834W        W95259  11.579   4.677   4.524
22835W        W95260  32.141  16.985   2.893
22836W        W95261   2.973  15.232   3.681
22837W        W95262  17.395  26.915   0.796
22838W        W95263  35.337  10.877  12.842
22839W        W95264  23.966  32.615   3.906
22840W        W95265  31.446  26.697  11.549
22841W        W95266  24.196   7.669  14.427
22842W        W95267  43.416   4.218  13.916
22843W        W95268   8.365   5.198  13.425
22844W        W95269  23.731  30.101   4.632
22845W        W95270  30.389   8.848  13.147
22846W        W95271  38.395  10.082   4.171
22847W        W95272  27.156  23.308   2.895
22848W        W95273  37.884   3.213   2.839
22849W        W95274  14.442  38.018   0.059
22850W        W95275   6.184  26.263  11.497
22851W        W95276  33.786  44.308   5.018
22852W        W95277  16.561   9.253  11.645
22853W        W95278  35.504   1.238   1.795
22854W        W95279   0.372  20.455   3.836
22855W        W95280  12.789  35.993  11.487
22856W        W95281  41.199   3.247   4.901
22857W        W95282  22.459  34.495   4.472
22858W        W95283   0.907   5.233  12.173
22859W        W95284  18.564  37.419  14.896
22860W        W95285  20.750  10.268  11.703
22861W        W95286  11.362  31.999   0.663
22862W        W95287  16.589  26.539   2.343
22863W        W95288  30.616  31.404  14.345
22864W        W95289  43.221  30.012   3.089
22865W        W95290   1.228  22.419   0.447
22866W        W95291  15.704  21.632  14.449
22867W        W95292  41.315  24.195  13.351
22868W        W95293   8.461   2.749   0.155
22869W        W95294  32.037  12.586   4.524
22870W        W95295  13.674  20.806  12.893
22871W        W95296  26.690  24.038   5.003
22872W        W95297  44.225  18.591  14.938
22873W        W95298   8.648   2.472  13.995
22874W        W95299   8.131  13.018  11.063
22875W        W95300   2.862  20.489   2.400
22876W        W95301  21.274  30.350  11.619
22877W        W95302   1.867  19.197   3.501
22878W        W95303   1.632   1.985   2.732
22879W        W95304  27.618   1.972  14.236
22880W        W95305  27.987  34.533  11.551
22881W        W95306  40.790  28.920  12.946
22882W        W95307  35.640  19.152  11.384
22883W        W95308   6.450  26.711  11.477
22884W        W95309   4.980  25.994   2.918
22885W        W95310  41.821  11.687   0.256
22886W        W95311  11.891  12.157  11.147
22887W        W95312  41.952  17.242  14.484
22888W        W95313  21.941   7.221   2.668
22889W        W95314  41.965  10.011   3.581
22890W        W95315  44.459   1.224   3.011
22891W        W95316   7.634   2.250   0.942
22892W        W95317  27.532  39.351   3.780
22893W        W95318  15.941   5.098  12.062
22894W        W95319  10.058  32.278   0.281
22895W        W95320  18.575  20.807   1.902
22896W        W95321  41.540  37.416  11.569
22897W        W95322  22.000  16.030  12.038
22898W        W95323  27.608  43.873  10.511
22899W        W95324  27.681  43.241   0.457
22900W        W95325  11.081  38.491  11.216
22901W        W95326  32.418  40.284   1.958
22902W        W95327  44.253   4.975  10.714
22903W        W95328   2.921  18.818  11.183
22904W        W95329   8.872  23.953   4.737
22905W        W95330  18.782   2.816   0.903
22906W        W95331  43.583  17.517   0.433
22907W        W95332  31.725  32.290  12.453
22908W        W95333  40.328  40.994   0.879
22909W        W95334  37.847  17.648   4.764
22910W        W95335  33.529  39.457   4.540
22911W        W95336  22.790  12.393   1.883
22912W        W95337  34.860  42.700   4.650
22913W        W95338  22.071   2.432   2.823
22914W        W95339  10.570  11.564  11.240
22915W        W95340  37.633  43.417  10.670
22916W        W95341  10.158  12.265   1.650
22917W        W95342  15.521  13.573   2.298
22918W        W95343  19.080  18.704   0.303
22919W        W95344  37.892  43.296   3.213
22920W        W95345  29.548  21.033  13.558
22921W        W95346  17.438  43.082   0.252
22922W        W95347  25.643  28.710   4.682
22923W        W95348  42.531  42.620  12.583
22924W        W95349   9.468   8.242   0.499
22925W        W95350  39.944  12.813   4.560
22926W        W95351  41.406   1.911  13.392
22927W        W95352  22.655   8.634   3.371
22928W        W95353  24.791  13.706  14.566
22929W        W95354  35.861   0.272   3.112
22930W        W95355   1.217  26.124  11.681
22931W        W95356   9.674  13.537   3.175
22932W        W95357  44.877  43.275  14.406
22933W        W95358  26.942  11.801   4.997
22934W        W95359   2.898   6.248  12.880
22935W        W95360  27.232  19.600   2.208
22936W        W95361  18.822  27.933  10.409
22937W        W95362  22.472  25.603   0.977
22938W        W95363  17.546  16.201  11.666
22939W        W95364  28.612  24.190   1.957
22940W        W95365  34.593   4.810  11.443
22941W        W95366  11.300  23.083  12.175
22942W        W95367   0.911  44.909   0.288
22943W        W95368  21.752   4.434  11.407
22944W        W95369  41.530  11.378  11.463
22945W        W95370  14.561  12.687  14.899
22946W        W95371  24.607  23.456   3.724
22947W        W95372  28.845  11.630  11.587
22948W        W95373   2.206  16.339   3.169
22949W        W95374  12.155  28.916   0.794
22950W        W95375  12.242   7.063  10.504
22951W        W95376  31.251  26.075  13.446
22952W        W95377   9.674  43.148  14.474
22953W        W95378  27.879   4.675   2.835
22954W        W95379  13.609  43.477   0.442
22955W        W95380  35.562  29.804  14.083
22956W        W95381   8.023  29.873  11.857
22957W        W95382  10.049  35.551   4.185
22958W        W95383  41.881  43.563   3.358
22959W        W95384  19.081  39.890   4.311
22960W        W95385  11.651   2.209   2.466
22961W        W95386  37.882  16.737  10.632
22962W        W95387  12.553  17.724  13.796
22963W        W95388   6.387  14.778  13.826
22964W        W95389  26.237  25.166  12.110
22965W        W95390  24.967  13.061   2.635
22966W        W95391   8.675  39.394  10.601
22967W        W95392   8.221  34.536  12.942
22968W        W95393  11.001  29.492   3.026
22969W        W95394  42.542  21.061   4.821
22970W        W95395  19.358  44.972  13.853
22971W        W95396  38.907  34.363  11.632
22972W        W95397  23.569  43.837  11.177
22973W        W95398  30.260  30.907  10.844
22974W        W95399  16.870  27.211  12.688
22975W        W95400  44.785  38.517  14.856
22976W        W95401   9.983  40.348  10.823
22977W        W95402   2.934  42.067  12.290
22978W        W95403   2.326  26.802  10.107
22979W        W95404  10.457  19.144  10.700
22980W        W95405   2.626  31.635  14.737
22981W        W95406   4.332  11.673  12.622
22982W        W95407  10.274  14.790  13.000
22983W        W95408  41.101  29.938   2.770
22984W        W95409   5.327  21.350  11.113
22985W        W95410  31.416  43.295   1.756
22986W        W95411  19.709  42.620   1.510
22987W        W95412  25.583  28.991  13.419
22988W        W95413   0.681  23.203  13.029
22989W        W95414   7.881  40.445   0.977
22990W        W95415  19.576  37.401  11.618
22991W        W95416   7.705  11.692  14.136
22992W        W95417  29.821   0.896  11.639
22993W        W95418  31.387  25.944   3.390
22994W        W95419  44.444   9.511  10.738
22995W        W95420   1.793  40.872   0.992
22996W        W95421   3.539  12.852   4.092
22997W        W95422  15.921  27.448   4.140
22998W        W95423  16.296  26.640  14.491
22999W        W95424  28.944  17.641  12.620
23000W        W95425  21.013  14.253  12.877
23001W        W95426   8.630  44.749  10.856
23002W        W95427   0.282  31.909   0.659
23003W        W95428  43.119   5.638   1.704
23004W        W95429  43.756  37.056   3.685
23005W        W95430  44.521  23.737   2.902
23006W        W95431   0.925   4.951  14.407
23007W        W95432  28.140  19.933   4.609
23008W        W95433  15.360  22.049   1.176
23009W        W95434  13.564  34.077   4.103
23010W        W95435  37.735  25.408  13.367
23011W        W95436   3.827  40.592   3.330
23012W        W95437  18.132  40.725  12.901
23013W        W95438  34.679  20.682   3.694
23014W        W95439  41.564  36.622   4.229
23015W        W95440   9.308   2.549   0.283
23016W        W95441  32.534  33.932   4.021
23017W        W95442  27.089  18.221   3.152
23018W        W95443  36.385  16.634  12.154
23019W        W95444  20.164  40.186   2.751
23020W        W95445  43.940  38.350   0.679
23021W        W95446   3.239  41.916  10.655
23022W        W95447  12.924  36.564   0.217
23023W        W95448  23.717  38.975  14.587
23024W        W95449  43.043  40.198   1.195
23025W        W95450   1.342   9.354  13.445
23026W        W95451  15.923  21.304  12.397
23027W        W95452  17.827  30.982   3.705
23028W        W95453   6.861   4.401   4.887
23029W        W95454  15.806  21.672  12.058
23030W        W95455  43.493  38.512  14.413
23031W        W95456  22.637  37.351   3.031
23032W        W95457  12.091  20.275   4.002
23033W        W95458  27.168  14.914  11.139
23034W        W95459   4.212  19.556  11.514
23035W        W95460  17.240  30.991   2.502
23036W        W95461  33.119  31.592  10.644
23037W        W95462  30.359  11.867   3.165
23038W        W95463  41.393  24.686  12.017
23039W        W95464  37.790  16.615  14.027
23040W        W95465  39.755  39.153  11.124
23041W        W95466  31.976  33.409  14.207
23042W        W95467  28.355  38.183  10.140
23043W        W95468  25.618  37.792   5.104
23044W        W95469   8.494  24.204  10.763
23045W        W95470  23.276  16.877   4.652
23046W        W95471  44.772  19.901   1.441
23047W        W95472  17.197  29.353  10.296
23048W        W95473  40.038  43.064  13.510
23049W        W95474   1.177  32.747  12.460
23050W        W95475   0.371  33.809  14.403
23051W        W95476  23.547  32.798  11.919
23052W        W95477  44.932  26.830   2.010
23053W        W95478  10.094  35.072  12.593
23054W        W95479  43.438   4.566  14.338
23055W        W95480  13.323  44.990   3.843
23056W        W95481   6.801  16.514  11.123
23057W        W95482   5.403  41.320   4.580
23058W        W95483  19.764  26.772   4.595
23059W        W95484   0.262  31.813   5.380
23060W        W95485  17.788  44.752  10.715
23061W        W95486  30.384   6.386   1.305
23062W        W95487   7.291  21.336  14.289
23063W        W95488   8.959  29.598   0.312
23064W        W95489  29.735  29.128  10.839
23065W        W95490   4.410  32.441   3.743
23066W        W95491  27.423  40.032   2.296
23067W        W95492  38.466  34.456  10.691
23068W        W95493  41.269  43.818   2.760
23069W        W95494  23.013   7.183   1.760
23070W        W95495  22.953  34.856  12.474
23071W        W95496  13.094  31.912  11.598
23072W        W95497   5.369  42.575  10.657
23073W        W95498  36.200  41.898  11.114
23074W        W95499  27.178  31.533  11.120
23075W        W95500  19.123   1.354  13.450
23076W        W95501  39.901   1.510   0.428
23077W        W95502   3.364  25.187  14.762
23078W        W95503   3.697  36.060  11.233
23079W        W95504  23.693  28.355   0.860
23080W        W95505   7.345   5.686  14.532
23081W        W95506   1.017  44.015   0.315
23082W        W95507   7.886  40.028   3.262
23083W        W95508   2.672  20.774  12.821
23084W        W95509  27.396  40.368   5.486
23085W        W95510  24.142  16.128  12.480
23086W        W95511   4.121   7.780  13.385
23087W        W95512  37.978  19.631  11.145
23088W        W95513  38.394  20.445  13.479
23089W        W95514  25.454   5.359   0.310
23090W        W95515  42.385  20.786  12.367
23091W        W95516  28.927  18.203  12.277
23092W        W95517  28.862  42.734  11.092
23093W        W95518  14.317  36.142   4.653
23094W        W95519  30.044  16.788  12.817
23095W        W95520  32.160  23.584  13.310
23096W        W95521   5.846   8.399   1.385
23097W        W95522  17.108   8.307   2.508
23098W        W95523  31.220  22.740  10.502
23099W        W95524   8.986  18.128  10.869
23100W        W95525  22.277   9.717  14.920
23101W        W95526  28.085  18.827  12.726
23102W        W95527  32.835  22.180  14.722
23103W        W95528  12.781  34.176  13.222
23104W        W95529  44.819   2.214  14.524
23105W        W95530   5.476  39.893   2.842
23106W        W95531  10.056  14.694  13.583
23107W        W95532   2.868  11.716   1.757
23108W        W95533  25.132  12.550  14.897
23109W        W95534  34.361  22.493  13.239
23110W        W95535  32.245  19.128   0.462
23111W        W95536   1.895   7.645  12.010
23112W        W95537   5.254  10.749   1.189
23113W        W95538   4.852  40.949   1.825
23114W        W95539  12.820  20.183   3.142
23115W        W95540  42.368  15.618  12.584
23116W        W95541  37.939  32.325   3.426
23117W        W95542  40.491   0.260   0.877
23118W        W95543  31.350  14.844  12.833
23119W        W95544  19.126  34.802   2.373
23120W        W95545  18.359  21.382  13.567
23121W        W95546   2.025  39.377  14.899
23122W        W95547  19.990  37.411   4.215
23123W        W95548  20.057  18.225  14.819
23124W        W95549  11.203  43.352   0.888
23125W        W95550   6.216  18.193  14.407
23126W        W95551  10.780  27.873   2.457
23127W        W95552  17.073  30.573  11.648
23128W        W95553  36.058  43.144   5.059
23129W        W95554   0.252  23.144   3.072
23130W        W95555  32.700  12.139  12.549
23131W        W95556  11.325  12.582   2.317
23132W        W95557   2.303  12.435  12.649
23133W        W95558  11.255  18.090  10.451
23134W        W95559  35.621  44.854   2.330
23135W        W95560  15.283  16.578   1.780
23136W        W95561  15.142  44.892  13.055
23137W        W95562  23.828  22.200   2.338
23138W        W95563  17.227  40.354   4.579
23139W        W95564  29.023   1.608  13.341
23140W        W95565  32.408  32.151   4.609
23141W        W95566  29.915  20.687  12.907
23142W        W95567  40.688   6.511   5.089
23143W        W95568  26.031  14.726  12.377
23144W        W95569  36.946  33.390   2.674
23145W        W95570  17.318  36.388   3.537
23146W        W95571  27.174  27.074   4.291
23147W        W95572  10.303   8.618   0.033
23148W        W95573  35.107  35.794  12.850
23149W        W95574  24.984  15.053  12.938
23150W        W95575   9.850  17.459  11.940
23151W        W95576  32.813  32.901  14.610
23152W        W95577  29.126  12.316   4.736
23153W        W95578  27.045  13.902  11.245
23154W        W95579  16.569  37.509  10.606
23155W        W95580  40.146  35.609  10.935
23156W        W95581  28.507  27.255  13.159
23157W        W95582  34.948  38.033   0.053
23158W        W95583  37.427   0.710   2.118
23159W        W95584  21.654  30.575  12.621
23160W        W95585  18.351  34.086  10.639
23161W        W95586   8.254  23.411   1.278
23162W        W95587   7.665  17.151  10.863
23163W        W95588  18.198  17.275   1.367
23164W        W95589  40.539   9.408  10.687
23165W        W95590  25.612  10.746   1.100
23166W        W95591   1.390  43.646  10.860
23167W        W95592  39.492  17.624  13.828
23168W        W95593  42.394  34.193   4.258
23169W        W95594   9.089  33.709   0.986
23170W        W95595   4.295  39.810  12.620
23171W        W95596  28.832  33.269   3.677
23172W        W95597  35.600   7.358  10.090
23173W        W95598   5.446  18.699   0.937
23174W        W95599  28.004   9.293   3.309
23175W        W95600  12.258  40.946   0.392
23176W        W95601  18.414  30.296   2.750
23177W        W95602  11.709  36.473   2.096
23178W        W95603   8.360   4.827  12.859
23179W        W95604  15.685  22.501  13.282
23180W        W95605   8.742  12.329  13.339
23181W        W95606  27.504  43.595  13.416
23182W        W95607  28.094  30.596   2.861
23183W        W95608  28.659   7.437   3.291
23184W        W95609  38.918  41.830   0.734
23185W        W95610  17.803  42.567  13.044
23186W        W95611   3.673  31.395  11.496
23187W        W95612  32.138  11.309   1.709
23188W        W95613  23.573  38.831  11.118
23189W        W95614  40.855   3.752  11.739
23190W        W95615  42.002  10.595   1.138
23191W        W95616  38.935   4.787  11.309
23192W        W95617  39.045  13.161  13.851
23193W        W95618  37.787  29.109  10.474
23194W        W95619  30.123   0.686   0.540
23195W        W95620  10.385  42.866   4.105
23196W        W95621  28.943  35.048  12.582
23197W        W95622  37.035  27.010   1.354
23198W        W95623  11.819   9.757   4.208
23199W        W95624  10.601  44.791   3.234
23200W        W95625  37.971  14.842  11.305
23201W        W95626  23.450  17.506  12.622
23202W        W95627  42.738  42.864  14.893
23203W        W95628  42.609  23.078   9.657
23204W        W95629  32.471  28.255  13.539
23205W        W95630  39.994  26.015  12.836
23206W        W95631  43.122   3.711   1.926
23207W        W95632  11.679  13.123   4.566
23208W        W95633   0.353  37.278  14.241
23209W        W95634  33.954  38.459   1.828
23210W        W95635   7.383  44.275  11.132
23211W        W95636  37.951   8.320   3.232
23212W        W95637  31.390   4.400   0.288
23213W        W95638  17.853  27.136  14.883
23214W        W95639  20.140   9.649   4.340
23215W        W95640  21.350  13.729  13.549
23216W        W95641   4.323  38.959  14.770
23217W        W95642  32.827  23.205  13.514
23218W        W95643  14.679  41.803  13.072
23219W        W95644  18.011  35.126   4.131
23220W        W95645  22.008   9.773   0.382
23221W        W95646  34.614  12.664   3.018
23222W        W95647   1.980  22.067  10.759
23223W        W95648  27.685   4.888  10.534
23224W        W95649   8.106   3.822   0.040
23225W        W95650  18.735  24.205   4.343
23226W        W95651  26.549  34.979  10.877
23227W        W95652  27.530  39.076   1.376
23228W        W95653  18.252  20.766   3.105
23229W        W95654   5.331  39.743  12.845
23230W        W95655  44.974  33.460  11.826
23231W        W95656   1.898   5.181   4.637
23232W        W95657  33.128  34.922   2.580
23233W        W95658   3.791  30.610   1.491
23234W        W95659  27.033  36.087   0.363
23235W        W95660  22.002  30.636  10.719
23236W        W95661  29.927  18.303   4.357
23237W        W95662  41.248  25.435   1.736
23238W        W95663  44.494  33.277   2.270
23239W        W95664  35.999  29.256   2.696
23240W        W95665  35.615   5.456  12.829
23241W        W95666  27.399  14.162   0.312
23242W        W95667  31.577  35.554  10.685
23243W        W95668   7.419  26.576  13.389
23244W        W95669  25.588  30.674  14.844
23245W        W95670  17.410  23.626   0.312
23246W        W95671  24.547  28.194  11.486
23247W        W95672  12.174  18.760   3.179
23248W        W95673  30.817  42.361  12.128
23249W        W95674  42.835  26.787  13.149
23250W        W95675  30.640   0.033   0.010
23251W        W95676  19.245  18.857   2.424
23252W        W95677  31.264  21.751   4.778
23253W        W95678  20.276  37.907  14.966
23254W        W95679  42.940   9.205   1.026
23255W        W95680  37.233  18.542   2.294
23256W        W95681  26.441  25.727   1.427
23257W        W95682   6.196  26.608   1.610
23258W        W95683  15.084   7.013   2.382
23259W        W95684  10.883  27.407  11.991
23260W        W95685  22.489  25.660   3.178
23261W        W95686  18.713  17.840  10.668
23262W        W95687  33.348  44.807  12.452
23263W        W95688  16.293  27.466  11.578
23264W        W95689   6.897  28.371   1.171
23265W        W95690  30.997  44.905   3.308
23266W        W95691  16.338  10.459  14.540
23267W        W95692  23.670  17.711   0.991
23268W        W95693  17.559  20.064  12.874
23269W        W95694  23.292   2.271  12.833
23270W        W95695  35.567  40.860   3.747
23271W        W95696  24.151  34.799  14.372
23272W        W95697  26.891  10.159   3.767
23273W        W95698  39.943  29.112   0.444
23274W        W95699  44.751  27.993   4.546
23275W        W95700   3.441  10.306   4.069
23276W        W95701   6.193  13.420   4.998
23277W        W95702  30.427  15.817   1.936
23278W        W95703  24.736  13.820   0.930
23279W        W95704   7.742  12.834  14.648
23280W        W95705  28.281  24.602   1.216
23281W        W95706   9.283  16.659  11.641
23282W        W95707   8.254  30.853   3.895
23283W        W95708   2.794  35.560   2.181
23284W        W95709  25.768   1.475   1.403
23285W        W95710  16.070   6.184   2.877
23286W        W95711  24.891  41.505   2.353
23287W        W95712  13.108  12.595  14.494
23288W        W95713  34.572  26.847   3.261
23289W        W95714  14.286  19.629  13.798
23290W        W95715  40.542  44.836  13.056
23291W        W95716  15.000  14.652  14.498
23292W        W95717  11.393  10.091   9.734
23293W        W95718   5.208  24.474   3.997
23294W        W95719  10.365   7.028  11.597
23295W        W95720  31.681  39.904  13.580
23296W        W95721  31.874  11.347   0.300
23297W        W95722   9.794  41.975  11.969
23298W        W95723  25.132  32.582  14.043
23299W        W95724  41.580   6.762  14.950
23300W        W95725   2.354  30.600  11.360
23301W        W95726  30.758   2.498  11.081
23302W        W95727  10.067  26.382  14.384
23303W        W95728  31.350  22.759   5.354
23304W        W95729  42.856  18.327  13.326
23305W        W95730  22.053  40.499  10.506
23306W        W95731  43.771   2.472  14.275
23307W        W95732   8.421  31.903   3.801
23308W        W95733  12.173  28.727  11.250
23309W        W95734  16.603  26.459   4.636
23310W        W95735  23.648  27.153  14.964
23311W        W95736  27.529  39.368   0.044
23312W        W95737  42.396   8.744   4.246
23313W        W95738  24.251  37.468   4.873
23314W        W95739  23.514  22.018   0.579
23315W        W95740  38.926   6.443  14.361
23316W        W95741  27.655  12.660  13.792
23317W        W95742   6.425   7.738   1.689
23318W        W95743   5.451  44.864  10.449
23319W        W95744  21.622  16.009   1.307
23320W        W95745  38.507  37.562   5.062
23321W        W95746   6.152  14.765  13.308
23322W        W95747  43.169  36.562  13.113
23323W        W95748  28.536  27.263  10.754
23324W        W95749  18.695  18.889  10.808
23325W        W95750  30.845  35.997   4.574
23326W        W95751   5.795  28.067   3.245
23327W        W95752  12.820  24.585   4.259
23328W        W95753  21.706   4.428   0.149
23329W        W95754  10.666  26.972   3.390
23330W        W95755  20.053  34.770   0.799
23331W        W95756  34.885  14.781   2.819
23332W        W95757   2.220  20.814   1.102
23333W        W95758   7.178  43.926   1.701
23334W        W95759  42.337  29.684  11.048
23335W        W95760  28.997  21.210  12.322
23336W        W95761  14.128  40.532  11.298
23337W        W95762  19.049  28.963  13.114
23338W        W95763  42.929   7.456  13.664
23339W        W95764  42.081  38.077  13.853
23340W        W95765  19.753  37.135  13.049
23341W        W95766  37.360  13.118   2.385
23342W        W95767  23.459  25.205   0.265
23343W        W95768  34.869  25.365  14.831
23344W        W95769  36.830  25.466  11.644
23345W        W95770  43.516  19.225   2.309
23346W        W95771  42.564  44.725   1.383
23347W        W95772   7.682  31.656   0.766
23348W        W95773  40.556  21.183   9.685
23349W        W95774   9.209   3.402  11.860
23350W        W95775  18.320  21.768   0.330
23351W        W95776  40.454  29.460   4.311
23352W        W95777  11.113  44.272   3.156
23353W        W95778  23.312   8.206  13.037
23354W        W95779   4.193  41.876  12.342
23355W        W95780  19.696  39.270  10.650
23356W        W95781  18.700   4.737  12.834
23357W        W95782  27.161   6.702  11.070
23358W        W95783  15.294  39.963   3.222
23359W        W95784  18.798  12.866  11.845
23360W        W95785  30.442  31.532  13.480
23361W        W95786   2.049  44.798   3.256
23362W        W95787  13.763  40.561   2.740
23363W        W95788  39.926   8.319  14.312
23364W        W95789   9.992  43.885  10.731
23365W        W95790  12.425   5.177  14.908
23366W        W95791   4.204  11.300  11.627
23367W        W95792  14.662  33.987  13.356
23368W        W95793  30.779  30.639  13.895
23369W        W95794  14.675   8.959  13.440
23370W        W95795  11.714  27.354   4.599
23371W        W95796  31.685   8.133  11.622
23372W        W95797  11.730  32.614   3.791
23373W        W95798  27.971   0.781  12.313
23374W        W95799  34.268  25.218   0.826
23375W        W95800  42.519  19.193  13.074
23376W        W95801  28.953  39.325  12.702
23377W        W95802   0.500  26.218  13.651
23378W        W95803  33.303  41.550   0.226
23379W        W95804  15.042  15.006  13.077
23380W        W95805  41.357  43.870   0.547
23381W        W95806   3.282  17.102   0.207
23382W        W95807  25.598  13.094  14.055
23383W        W95808   2.308  15.203   1.864
23384W        W95809  34.713   7.132  13.343
23385W        W95810  10.403  10.563  12.515
23386W        W95811  38.523  25.083   4.868
23387W        W95812  36.335   2.676   0.568
23388W        W95813  41.209  29.670   0.473
23389W        W95814  14.604  20.160   0.782
23390W        W95815  20.547  23.015   0.902
23391W        W95816  34.704  40.920   0.713
23392W        W95817   1.348   9.141   0.280
23393W        W95818  19.688  16.153   1.698
23394W        W95819  23.296  11.459  10.304
23395W        W95820  10.583  41.908  11.504
23396W        W95821  15.705  26.178  11.783
23397W        W95822  29.043  21.626  10.976
23398W        W95823  10.083   3.767   3.793
23399W        W95824  38.757  32.423  14.980
23400W        W95825  12.669  26.557  13.464
23401W        W95826  41.345   7.266  14.834
23402W        W95827   4.524  40.365   9.640
23403W        W95828   9.955  33.701  13.769
23404W        W95829  34.863  30.112   1.301
23405W        W95830  23.292  27.646  13.429
23406W        W95831  42.907   5.327  12.234
23407W        W95832  35.901  20.564  14.349
23408W        W95833  36.520  40.413  14.209
23409W        W95834  17.187  29.791   3.054
23410W        W95835  27.454  20.018   3.663
23411W        W95836  32.364  31.171   0.355
23412W        W95837  12.519  36.242  12.125
23413W        W95838  38.394  21.155   2.895
23414W        W95839   7.233  28.816   3.244
23415W        W95840   0.711  35.365  11.698
23416W        W95841  33.099   2.651   3.318
23417W        W95842  32.056   1.722   2.899
23418W        W95843  25.477  23.720  12.300
23419W        W95844   6.772   5.745   4.786
23420W        W95845   7.199  44.410   1.335
23421W        W95846  44.208  30.068  11.670
23422W        W95847  30.188  17.524   2.751
23423W        W95848  28.360  16.548   2.698
23424W        W95849  38.098  38.252   3.439
23425W        W95850  18.670  29.444   9.870
23426W        W95851  29.578  30.797   3.699
23427W        W95852  41.867  25.632   2.896
23428W        W95853  14.693  23.162   0.823
23429W        W95854  33.941  39.558   4.872
23430W        W95855  17.325  22.176   2.190
23431W        W95856  41.329  22.583  10.622
23432W        W95857  40.142   8.261   1.178
23433W        W95858  29.608  11.605  13.475
23434W        W95859  35.528  34.536  14.379
23435W        W95860  33.124  26.932  13.394
23436W        W95861  14.565   0.030   4.236
23437W        W95862   4.170   8.465  13.943
23438W        W95863  23.081  38.761  11.609
23439W        W95864  25.060  27.574  14.124
23440W        W95865  12.132  31.203  11.629
23441W        W95866   9.649   3.970  10.586
23442W        W95867  36.077  23.099  11.190
23443W        W95868  35.348  25.589  11.639
23444W        W95869  10.381  11.203  10.919
23445W        W95870   2.673  20.599   0.909
23446W        W95871  31.721  14.620  11.905
23447W        W95872   0.047  38.910  12.309
23448W        W95873  42.306  18.215   0.844
23449W        W95874  10.890   6.364   2.428
23450W        W95875  33.211   0.940  12.866
23451W        W95876   6.510  32.048   4.457
23452W        W95877  40.115   0.050   4.834
23453W        W95878  35.880  11.202   2.911
23454W        W95879   9.465  41.414  10.016
23455W        W95880   7.361   7.488   3.144
23456W        W95881   9.640   2.027  12.455
23457W        W95882  12.709  38.314  14.964
23458W        W95883  17.513  40.363   3.216
23459W        W95884  29.207  39.426   1.181
23460W        W95885  37.912  37.597  13.349
23461W        W95886  22.782  16.034  14.008
23462W        W95887  20.610  20.967   3.250
23463W        W95888  17.635   1.547   3.260
23464W        W95889  38.873   3.222  10.112
23465W        W95890  10.313  36.837  13.617
23466W        W95891  44.753  27.666   3.602
23467W        W95892  12.787  10.175  13.539
23468W        W95893  25.953  35.588  10.598
23469W        W95894   6.911  21.694   0.555
23470W        W95895  16.795  22.281   3.437
23471W        W95896  40.406  42.967  14.956
23472W        W95897  29.682   4.533  13.392
23473W        W95898  29.124  10.682   4.820
23474W        W95899  36.002  38.398  12.967
23475W        W95900   9.411   4.687  12.397
23476W        W95901  27.678  41.415  14.269
23477W        W95902   9.246   5.694   3.741
23478W        W95903  17.708  34.437   0.842
23479W        W95904   4.182  17.666   2.831
23480W        W95905  11.559  24.269  11.025
23481W        W95906  41.167  35.492   2.722
23482W        W95907   7.279  35.095   4.533
23483W        W95908   0.454  32.446  10.570
23484W        W95909  37.317  18.360   3.667
23485W        W95910   9.827   3.236  13.141
23486W        W95911   8.472   9.129  10.562
23487W        W95912  33.978  30.181  12.644
23488W        W95913   2.317  35.468  14.481
23489W        W95914  21.697  30.012  11.534
23490W        W95915  13.576  17.219   2.442
23491W        W95916  32.141  20.095  14.752
23492W        W95917   0.503  41.358  14.768
23493W        W95918  39.417  42.122   2.880
23494W        W95919   3.932  32.326   0.943
23495W        W95920   1.978  29.884   3.630
23496W        W95921   7.707  33.990  10.723
23497W        W95922   1.192  13.082  11.958
23498W        W95923  44.801  26.189  11.738
23499W        W95924   5.203  40.222   0.499
23500W        W95925  31.158  21.001   0.976
23501W        W95926  33.077  41.446   2.021
23502W        W95927  32.447  23.829  12.936
23503W        W95928  35.001   4.901   2.293
23504W        W95929  18.983  34.394  10.593
23505W        W95930  16.406  31.158   1.727
23506W        W95931   5.285   5.708   4.234
23507W        W95932   3.414   1.359  10.734
23508W        W95933  28.150  12.064   1.913
23509W        W95934   7.189  33.915  10.715
23510W        W95935  21.351   1.218  11.749
23511W        W95936  23.172   1.081   0.837
23512W        W95937  31.985  35.574   1.931
23513W        W95938  37.014  12.547  14.355
23514W        W95939  44.509  28.468   3.326
23515W        W95940  17.783  19.077  11.877
23516W        W95941  24.595  42.612  14.310
23517W        W95942  42.545  16.751   1.332
23518W        W95943   4.282  15.748  11.380
23519W        W95944  20.154  16.901   4.555
23520W        W95945  43.330  29.687  13.774
23521W        W95946  18.788  26.854  12.595
23522W        W95947  32.487  20.202   3.446
23523W        W95948  27.770  17.625  14.959
23524W        W95949  32.181  30.067  12.418
23525W        W95950   0.513  36.135  10.550
23526W        W95951  36.962   0.463   3.294
23527W        W95952  30.571  30.033   2.233
23528W        W95953   1.815   4.245   2.383
23529W        W95954  42.842  41.992  13.881
23530W        W95955  10.466   2.978   1.028
23531W        W95956   1.973  42.914   0.795
23532W        W95957  17.948  28.529   4.911
23533W        W95958  22.459  44.354  14.638
23534W        W95959   8.194  22.600  13.765
23535W        W95960   7.528  25.237   2.848
23536W        W95961  26.480  30.687   2.785
23537W        W95962  19.642  18.331  10.672
23538W        W95963   7.507  21.135   0.887
23539W        W95964  28.557  12.626   4.859
23540W        W95965  26.082  35.086   4.778
23541W        W95966  12.667  35.622  13.672
23542W        W95967  25.533  10.817  12.487
23543W        W95968  11.350  42.276  13.048
23544W        W95969  40.398   0.315  10.008
23545W        W95970  19.526  26.988  13.328
23546W        W95971  32.939  38.770  12.314
23547W        W95972   8.913  25.943  10.236
23548W        W95973  18.803  26.430  10.643
23549W        W95974  11.777  43.920  11.469
23550W        W95975  35.555  37.809   4.142
23551W        W95976  30.008   1.341   1.244
23552W        W95977  32.516  24.166  10.747
23553W        W95978  10.185  32.570  14.813
23554W        W95979  22.592  20.442   2.452
23555W        W95980  14.082  30.951   3.991
23556W        W95981  11.310  38.809  14.869
23557W        W95982  32.458  12.661   0.012
23558W        W95983  43.353   5.974  13.497
23559W        W95984  16.872  43.583   1.268
23560W        W95985  38.100  31.822   1.831
23561W        W95986  42.877   0.807   3.583
23562W        W95987  17.328   2.071   2.882
23563W        W95988   1.993  24.120   2.786
23564W        W95989   3.344  29.659   3.221
23565W        W95990  32.923  41.150  11.984
23566W        W95991  23.930   7.174   1.371
23567W        W95992   7.085  27.134  12.858
23568W        W95993   7.826  17.132  14.944
23569W        W95994  40.375  38.846   3.732
23570W        W95995  40.495  18.231  11.613
23571W        W95996  16.667  14.151  13.891
23572W        W95997  26.589  12.350  10.653
23573W        W95998  27.433  34.453   2.801
23574W        W95999  39.824  24.307  12.869
23575W        W96000  30.003   2.406   0.274
23576W        W96001  12.421  40.423   0.318
23577W        W96002  14.184  18.024   4.616
23578W        W96003  40.387   0.053  11.641
23579W        W96004   3.042  42.982  10.651
23580W        W96005  44.254   0.843  14.976
23581W        W96006  12.553   1.395  14.457
23582W        W96007   3.865  21.566   3.067
23583W        W96008  40.250  26.458   2.380
23584W        W96009  26.598  24.292   2.262
23585W        W96010  28.223  41.121   4.141
23586W        W96011  21.653  26.662   1.929
23587W        W96012  18.657   3.770   2.701
23588W        W96013   1.414  35.159  11.603
23589W        W96014  14.720  15.062  11.033
23590W        W96015   2.080   6.781  10.715
23591W        W96016  21.162  21.587   2.573
23592W        W96017   5.802  41.986  14.970
23593W        W96018   6.852  44.281  12.955
23594W        W96019  41.933  28.009   2.399
23595W        W96020  18.602   5.309  10.592
23596W        W96021  44.530  38.539  10.651
23597W        W96022  30.607  25.191  12.995
23598W        W96023  16.458   0.595  14.365
23599W        W96024   9.416   8.392   4.681
23600W        W96025  16.274   2.869   4.583
23601W        W96026   5.340   3.655  14.113
23602W        W96027   2.409  16.014  11.020
23603W        W96028  31.514  43.461  13.816
23604W        W96029   0.912  14.882   4.147
23605W        W96030  22.081  29.672  11.514
23606W        W96031  23.907  19.035  14.192
23607W        W96032  42.480  17.506   0.307
23608W        W96033  34.176  24.464  11.185
23609W        W96034  18.642  24.042  14.378
23610W        W96035  26.776  25.155   2.844
23611W        W96036  32.132  14.803   0.895
23612W        W96037  32.319  16.567   5.044
23613W        W96038  17.180  24.812  12.618
23614W        W96039  37.904  43.005   0.442
23615W        W96040  23.987   1.470  14.731
23616W        W96041   5.713  16.488  14.145
23617W        W96042  20.068  23.252  13.082
23618W        W96043   8.855   6.881  11.910
23619W        W96044  44.693   7.241  11.057
23620W        W96045   5.322  13.091   1.758
23621W        W96046  30.803  12.832  10.901
23622W        W96047  11.823  12.196   4.620
23623W        W96048   9.257  17.776  14.742
23624W        W96049   9.241  15.764   0.042
23625W        W96050  19.651   7.783  11.130
23626W        W96051   7.679   5.784  11.203
23627W        W96052  14.507  22.049   1.549
23628W        W96053  23.945   8.047   1.852
23629W        W96054  38.502  32.692  11.411
23630W        W96055  35.537  11.999  11.537
23631W        W96056  17.340  40.232  12.324
23632W        W96057   1.447  18.025  12.035
23633W        W96058  27.617  31.004   9.873
23634W        W96059  30.603   9.284  12.975
23635W        W96060  10.367  24.574   2.275
23636W        W96061  38.822  20.478   3.228
23637W        W96062  24.205  27.018   0.743
23638W        W96063  37.569  21.037   0.848
23639W        W96064  28.732  31.205  14.483
23640W        W96065  36.267  21.550  12.016
23641W        W96066  12.568  34.532   2.656
23642W        W96067  31.645  27.380   1.354
23643W        W96068  38.044  17.800   2.710
23644W        W96069   2.224  35.432   1.718
23645W        W96070  15.782  23.784   0.818
23646W        W96071  30.516   0.480  14.292
23647W        W96072  19.219  11.881   4.058
23648W        W96073  18.221  43.017   5.076
23649W        W96074  41.933  10.479  14.415
23650W        W96075  28.074  37.032   0.393
23651W        W96076   4.142  18.550   2.868
23652W        W96077  29.538  25.791   0.221
23653W        W96078  29.229  40.991   4.587
23654W        W96079  23.563  35.731   2.680
23655W        W96080  10.633  23.801   1.314
23656W        W96081  43.599  15.815  13.053
23657W        W96082  40.890  26.951  11.133
23658W        W96083  25.481   1.735  14.965
23659W        W96084  13.814  27.405  14.492
23660W        W96085  38.579  35.925  13.918
23661W        W96086  17.756  40.350  11.646
23662W        W96087  20.551  10.779   1.155
23663W        W96088  10.863  34.481  13.884
23664W        W96089  41.430   3.377  14.481
23665W        W96090   8.751   3.127   2.756
23666W        W96091   2.346  10.108  12.012
23667W        W96092  40.201   3.472   4.069
23668W        W96093  41.734  22.714   1.018
23669W        W96094   3.331  13.647  12.850
23670W        W96095  23.246  25.402   0.733
23671W        W96096  39.363  22.022   4.089
23672W        W96097   6.605  21.987  14.305
23673W        W96098   7.411  44.606   1.788
23674W        W96099   3.865  15.327  12.918
23675W        W96100  23.444  32.477  11.530
23676W        W96101  44.656  14.948  13.769
23677W        W96102  37.817  24.506  13.571
23678W        W96103  29.966  12.591  14.903
23679W        W96104  15.700  13.835  13.455
23680W        W96105  14.023  13.790  11.176
23681W        W96106  13.549   4.879   0.718
23682W        W96107  22.815  34.778   1.268
23683W        W96108  16.978   8.442  13.039
23684W        W96109  25.077  21.424   1.298
23685W        W96110  20.398   5.054  10.141
23686W        W96111   8.828  26.923   3.376
23687W        W96112  39.528  26.937   0.309
23688W        W96113  38.259  33.937  12.040
23689W        W96114   4.772  27.565  14.936
23690W        W96115   7.464  37.593   9.900
23691W        W96116  43.280  34.850   4.080
23692W        W96117   1.704  29.575   2.652
23693W        W96118   0.811  24.830  11.541
23694W        W96119  14.547   6.101  10.878
23695W        W96120   0.364  25.874  13.306
23696W        W96121  14.676  40.450   4.249
23697W        W96122  27.982  31.183   5.041
23698W        W96123  15.908  13.018  10.691
23699W        W96124  38.347  40.130   0.505
23700W        W96125  40.579  36.573  13.391
23701W        W96126  11.856   9.245   0.550
23702W        W96127  39.977  41.453   1.794
23703W        W96128   7.898  24.067  11.098
23704W        W96129   9.820  25.107  10.650
23705W        W96130  29.964  19.361  13.387
23706W        W96131  25.080  22.457   1.247
23707W        W96132  19.005  30.106  13.193
23708W        W96133   9.353  21.483   2.478
23709W        W96134  43.865  16.866  12.538
23710W        W96135  31.053  35.348   0.413
23711W        W96136  26.626  41.391  12.121
23712W        W96137   0.910   9.610  12.654
23713W        W96138  16.183  10.182   3.644
23714W        W96139  24.099  37.896   2.515
23715W        W96140  35.146  25.151  13.377
23716W        W96141  27.511   5.292  12.968
23717W        W96142  22.488  14.388   1.927
23718W        W96143  28.896  34.235   3.585
23719W        W96144  14.681  14.082  12.300
23720W        W96145  13.135  41.292  14.397
23721W        W96146  44.250  21.512  10.699
23722W        W96147  42.691  23.178   3.082
23723W        W96148  21.794   1.940   5.051
23724W        W96149  36.847  28.476   1.348
23725W        W96150  33.341  43.709  13.943
23726W        W96151  25.358  13.412   2.662
23727W        W96152  37.439  23.252  12.585
23728W        W96153  10.754  18.979   0.978
23729W        W96154  40.121  17.545  10.289
23730W        W96155   9.840  36.473  11.518
23731W        W96156  22.367  30.317  13.060
23732W        W96157  17.794  12.595   2.835
23733W        W96158  34.083  22.771   0.866
23734W        W96159   9.120  41.478  13.670
23735W        W96160  33.561  37.953   1.797
23736W        W96161   4.172  13.554  11.673
23737W        W96162  27.911  35.243  10.831
23738W        W96163  27.000  41.425  14.909
23739W        W96164  19.238  39.581   1.754
23740W        W96165  19.266  26.794  14.898
23741W        W96166  20.964  19.577  13.899
23742W        W96167  30.893  37.272  11.651
23743W        W96168  19.483  29.343   3.277
23744W        W96169  13.374   5.154  13.914
23745W        W96170  33.437  43.986  12.094
23746W        W96171  14.672  25.705   2.077
23747W        W96172  37.683   3.847   2.786
23748W        W96173  35.879   4.370  10.599
23749W        W96174  19.588  43.314  10.645
23750W        W96175  31.390   8.718  13.758
23751W        W96176  21.276  19.739   0.173
23752W        W96177  19.148  43.735  12.803
23753W        W96178  38.534  16.526  11.650
23754W        W96179   8.155  26.969   2.097
23755W        W96180  13.676   8.120   3.588
23756W        W96181  23.354   6.979   0.821
23757W        W96182  11.095  36.431  14.599
23758W        W96183  24.028   8.967   4.245
23759W        W96184  37.846   9.330  11.468
23760W        W96185  32.479   4.920  12.881
23761W        W96186  19.762  42.256  14.097
23762W        W96187  26.162  19.612   3.255
23763W        W96188  18.613  43.524   2.907
23764W        W96189  34.341  29.438  13.415
23765W        W96190  41.663  34.503   4.642
23766W        W96191  34.170  21.495   1.904
23767W        W96192  32.653  37.921   0.324
23768W        W96193  25.185  39.339  12.879
23769W        W96194  17.842  39.817  12.917
23770W        W96195  26.522   4.598  11.101
23771W        W96196  35.148  35.205   1.279
23772W        W96197   2.974  30.403  14.241
23773W        W96198  40.082   2.751   1.427
23774W        W96199  32.936  38.467   2.645
23775W        W96200  43.243  40.608  12.846
23776W        W96201   1.787   5.065  10.605
23777W        W96202   1.268  39.448   2.419
23778W        W96203  31.102  28.987   0.325
23779W        W96204  12.516  43.433  10.957
23780W        W96205  17.477  19.965  14.438
23781W        W96206   8.798   5.225   2.920
23782W        W96207   2.210  30.317   0.803
23783W        W96208   9.023  12.618  13.659
23784W        W96209   4.409   0.025  13.969
23785W        W96210   2.219   0.803  12.159
23786W        W96211  37.991  13.137  13.799
23787W        W96212  39.901  34.210  14.927
23788W        W96213  35.445  23.157   1.103
23789W        W96214  35.882  31.550   2.089
23790W        W96215   8.602  25.511   2.169
23791W        W96216  23.041  33.863  12.824
23792W        W96217  12.154  21.381  13.609
23793W        W96218  25.182   0.752  14.889
23794W        W96219   0.814  28.020  13.044
23795W        W96220  43.178  17.962   5.143
23796W        W96221  29.923   7.800  11.840
23797W        W96222   0.879   9.491   1.886
23798W        W96223   7.810  18.507   4.064
23799W        W96224   9.604  21.163  14.836
23800W        W96225   4.153   6.397   0.869
23801W        W96226   5.659  18.283  11.618
23802W        W96227  16.568  43.716  14.479
23803W        W96228  12.915  14.351  14.409
23804W        W96229   6.321  21.643   2.578
23805W        W96230  23.191  25.358  13.008
23806W        W96231   8.239  39.880   2.720
23807W        W96232  36.310  33.784   4.190
23808W        W96233  35.468  44.298   0.297
23809W        W96234  14.231  22.673   2.736
23810W        W96235   6.637   7.376   4.896
23811W        W96236  27.977   9.529   1.808
23812W        W96237  24.684   4.995  14.752
23813W        W96238   8.768  30.978   4.614
23814W        W96239  42.411   4.357   2.743
23815W        W96240  34.838  34.407  11.185
23816W        W96241  28.107  17.245  12.028
23817W        W96242  35.871  16.580   0.433
23818W        W96243   6.351  27.591   4.884
23819W        W96244   1.398  20.736  10.983
23820W        W96245  39.987  17.391   1.829
23821W        W96246  32.668   5.419  12.465
23822W        W96247   4.924  17.830  12.492
23823W        W96248  41.912   4.422  10.656
23824W        W96249   0.264  35.038   3.237
23825W        W96250  37.407   0.010  11.748
23826W        W96251  14.958   4.208  11.859
23827W        W96252  43.625  35.396   2.641
23828W        W96253  24.486  23.952   3.672
23829W        W96254  41.598  13.073  10.752
23830W        W96255   1.413  29.441  12.143
23831W        W96256  35.140  39.442  14.309
23832W        W96257  39.019  42.794   1.736
23833W        W96258  33.531  22.103   1.921
23834W        W96259   7.879   3.627   4.287
23835W        W96260  11.286  37.341   0.976
23836W        W96261   7.364  40.870   2.794
23837W        W96262  22.151  16.390   0.608
23838W        W96263  21.479  31.245   3.656
23839W        W96264   3.832  17.943   1.152
23840W        W96265  33.580  20.348   2.592
23841W        W96266  38.462   7.274   3.710
23842W        W96267  22.603  41.747  12.259
23843W        W96268  43.515  38.823  12.457
23844W        W96269  13.110  36.167   0.926
23845W        W96270   1.677   1.075  11.771
23846W        W96271  22.993  30.089   1.412
23847W        W96272  38.780  17.633  14.485
23848W        W96273  26.952  44.962   2.386
23849W        W96274  22.529  35.625   0.779
23850W        W96275  40.294  21.090   4.551
23851W        W96276  26.319   0.908  10.750
23852W        W96277  13.168  40.261  11.220
23853W        W96278  35.033  44.268  11.985
23854W        W96279  16.976  41.688   1.732
23855W        W96280  16.699  22.564  12.298
23856W        W96281  32.879  23.041   2.596
23857W        W96282  35.660  12.274  13.285
23858W        W96283  38.984   8.803  13.450
23859W        W96284   8.767  10.230  14.561
23860W        W96285  17.234  44.448   4.634
23861W        W96286  41.026  40.689   1.476
23862W        W96287  34.292  41.056  13.494
23863W        W96288  16.306  16.296   4.737
23864W        W96289  29.597  38.760   0.787
23865W        W96290  43.326  33.397   0.788
23866W        W96291   1.736  41.522  11.464
23867W        W96292   4.711  11.691  11.994
23868W        W96293  35.066  37.402  13.416
23869W        W96294  19.160  19.000   4.478
23870W        W96295  15.732  32.847  14.327
23871W        W96296   0.507  36.981   1.403
23872W        W96297  34.172  22.176  11.717
23873W        W96298  34.992   9.087   4.643
23874W        W96299  26.993  34.950  10.570
23875W        W96300   7.521  33.047  13.839
23876W        W96301  17.527  20.484   4.042
23877W        W96302  33.470  27.683   4.512
23878W        W96303  30.373  39.567   2.200
23879W        W96304  23.068  23.548  13.319
23880W        W96305  14.396  27.066  13.160
23881W        W96306  37.465  32.650   0.771
23882W        W96307  35.862  39.805   1.382
23883W        W96308  37.335  44.552  13.635
23884W        W96309   5.964   7.652  12.581
23885W        W96310   0.962  13.995   1.253
23886W        W96311  19.273   2.268  12.849
23887W        W96312  42.862   3.287   0.834
23888W        W96313  34.655   0.383  11.539
23889W        W96314  42.516  28.263   0.056
23890W        W96315  41.887  39.347   0.420
23891W        W96316  36.499  40.792  13.842
23892W        W96317  41.560  44.793   2.920
23893W        W96318   2.801   4.283  10.889
23894W        W96319   6.488  43.840  11.139
23895W        W96320  24.774  33.637  10.730
23896W        W96321  11.083   2.421   2.711
23897W        W96322   3.701  24.105   4.666
23898W        W96323  34.098   0.769  11.100
23899W        W96324  12.374  20.181  11.986
23900W        W96325  24.829  31.162   4.285
23901W        W96326  14.640  20.162  12.079
23902W        W96327  29.505   5.879  12.929
23903W        W96328   3.375  35.490   3.343
23904W        W96329  23.593  41.330  13.047
23905W        W96330  29.683   9.641   1.072
23906W        W96331  26.915   8.064   3.715
23907W        W96332   1.306  41.817  11.110
23908W        W96333  28.157  11.293   1.158
23909W        W96334  40.324  22.233   4.102
23910W        W96335  36.075  11.262   4.807
23911W        W96336  34.005  35.381  11.284
23912W        W96337  30.918  37.906  13.482
23913W        W96338  31.472   5.847  11.695
23914W        W96339  17.308  43.591  14.790
23915W        W96340   6.987  44.346  14.397
23916W        W96341  16.572  28.371   3.840
23917W        W96342  28.995   2.902   2.174
23918W        W96343  24.715  27.039  10.755
23919W        W96344  35.320  34.380   2.862
23920W        W96345  33.981  38.608  10.425
23921W        W96346  31.380   9.197   1.019
23922W        W96347  42.787  38.841   1.277
23923W        W96348  35.919  15.625   4.647
23924W        W96349   6.220  17.022   2.841
23925W        W96350  35.022  13.173  12.438
23926W        W96351  30.886  18.687  10.715
23927W        W96352  37.728  22.639   1.380
23928W        W96353   6.526  36.957   4.007
23929W        W96354   2.249   8.894   0.805
23930W        W96355   4.858  37.529   0.554
23931W        W96356   3.773   4.996  12.966
23932W        W96357  11.766  26.562  14.321
23933W        W96358  25.692  31.992   2.601
23934W        W96359  36.604  10.321  12.879
23935W        W96360  20.608  32.603   4.360
23936W        W96361  27.974  36.951  12.041
23937W        W96362  38.433  30.842  10.556
23938W        W96363  35.410  10.569  11.902
23939W        W96364  15.091  34.357   0.543
23940W        W96365  35.503  37.591   5.048
23941W        W96366  27.524  32.362   9.755
23942W        W96367  42.712  26.624   3.112
23943W        W96368  27.486   4.707  11.362
23944W        W96369  13.017  42.849  11.206
23945W        W96370  11.760  42.798  10.050
23946W        W96371   2.430   8.618   5.036
23947W        W96372   9.086  43.780  10.567
23948W        W96373  41.494  39.848   1.904
23949W        W96374  19.527  28.203  11.683
23950W        W96375   2.322  31.373   0.937
23951W        W96376   3.772  15.711  13.636
23952W        W96377  23.234  30.398   4.552
23953W        W96378   7.079  43.298  14.989
23954W        W96379  23.407   2.186  11.484
23955W        W96380  21.187  26.045  12.979
23956W        W96381  35.573  40.635   1.139
23957W        W96382  35.170   4.347  11.903
23958W        W96383  11.624  26.501   3.352
23959W        W96384  19.854  32.195   4.836
23960W        W96385  10.444  34.820   1.005
23961W        W96386  12.226  35.911  14.918
23962W        W96387  26.859  43.286   4.174
23963W        W96388  21.544   2.230   4.589
23964W        W96389  38.627   5.700   0.275
23965W        W96390  30.130  32.807  12.937
23966W        W96391   6.140  17.128   0.926
23967W        W96392   6.278  10.085   0.639
23968W        W96393   6.103  17.194   3.315
23969W        W96394  43.065  38.335   4.245
23970W        W96395  25.151   4.370   3.105
23971W        W96396  19.208  33.120   1.529
23972W        W96397  33.337  17.265   0.015
23973W        W96398  28.820  39.099   3.826
23974W        W96399  11.231   4.805  14.421
23975W        W96400  26.569  28.609   4.763
23976W        W96401  43.962  13.430  12.628
23977W        W96402  40.657  12.679  10.775
23978W        W96403  28.367  24.679   4.790
23979W        W96404   4.049  22.590  10.262
23980W        W96405  18.755  39.942  13.832
23981W        W96406  15.807   4.247  11.422
23982W        W96407  13.844  31.647  13.540
23983W        W96408  12.596  40.569  11.717
23984W        W96409  34.781  21.542  11.958
23985W        W96410   5.249  31.863   4.548
23986W        W96411  34.084  21.503   3.760
23987W        W96412  20.101  25.582   0.532
23988W        W96413  18.861  25.264  11.453
23989W        W96414  14.083  33.536   3.799
23990W        W96415  19.044  18.201   2.685
23991W        W96416  13.832   5.865   2.174
23992W        W96417  40.881  24.579  12.587
23993W        W96418  38.342   1.873  14.907
23994W        W96419  34.324  13.722  12.438
23995W        W96420   1.995  18.645  11.150
23996W        W96421  24.579  27.525  14.353
23997W        W96422  29.457  23.459   9.827
23998W        W96423  36.386  15.776   1.386
23999W        W96424  14.197  35.553  14.804
24000W        W96425  21.249  15.304   3.281
24001W        W96426  22.571  40.738   0.651
24002W        W96427  14.248  16.114  11.905
24003W        W96428  43.947  10.724   2.378
24004W        W96429  24.598  21.489   2.331
24005W        W96430  22.552  33.722   4.884
24006W        W96431   0.027  22.941   2.641
24007W        W96432  38.066  34.007  14.078
24008W        W96433  11.623  26.914  11.154
24009W        W96434  39.078  22.189  12.905
24010W        W96435  16.700  28.177  11.727
24011W        W96436  30.477  22.049  12.579
24012W        W96437  28.415  38.598  13.246
24013W        W96438   2.006  44.415   1.728
24014W        W96439  14.695   8.787   0.333
24015W        W96440  12.785  21.961   5.038
24016W        W96441  12.607  36.844  14.930
24017W        W96442  21.826  16.351   2.730
24018W        W96443  31.219  17.943  10.764
24019W        W96444  27.103   2.694   0.268
24020W        W96445  21.976  38.531   1.316
24021W        W96446  43.923  43.997   1.804
24022W        W96447  31.087  36.901   4.031
24023W        W96448  17.766  43.417   0.770
24024W        W96449   0.319  40.592  13.445
24025W        W96450   2.756  42.419   0.589
24026W        W96451  11.918  23.613   3.479
24027W        W96452  43.286   0.567   3.839
24028W        W96453   6.208  27.481  12.887
24029W        W96454  20.276  22.609   1.077
24030W        W96455  42.737  25.027  10.207
24031W        W96456   6.174   7.936  12.222
24032W        W96457  16.747  34.536   4.515
24033W        W96458  32.411  24.499  13.778
24034W        W96459  26.295  33.463   1.948
24035W        W96460  41.846  28.693   3.806
24036W        W96461  22.243  43.426   4.295
24037W        W96462  30.046  10.197   1.713
24038W        W96463  14.141  12.264  11.016
24039W        W96464  12.839   4.202  12.989
24040W        W96465  32.394  13.775   0.998
24041W        W96466  37.644  11.674   0.444
24042W        W96467   4.218  33.161   2.839
24043W        W96468  39.846  35.419   4.399
24044W        W96469  30.886  27.010  13.615
24045W        W96470  40.865  30.965  13.156
24046W        W96471  17.078  14.058  11.600
24047W        W96472   9.014  12.166  10.419
24048W        W96473  29.986  42.988  14.489
24049W        W96474  44.370  19.264   1.881
24050W        W96475  34.523  30.016   2.709
24051W        W96476  22.756  22.808  14.412
24052W        W96477  14.729  29.534   2.159
24053W        W96478  10.211  24.121   1.318
24054W        W96479  19.799  36.184  12.553
24055W        W96480  21.499   8.803  12.565
24056W        W96481  36.248   8.772   4.851
24057W        W96482   8.671   4.889   1.590
24058W        W96483  38.938  32.965   5.037
24059W        W96484   7.711  32.004   1.729
24060W        W96485   7.803  24.931   3.707
24061W        W96486  10.375  28.664   4.463
24062W        W96487  36.363  11.521  13.693
24063W        W96488  42.765  32.517  13.308
24064W        W96489  13.096  17.791   0.019
24065W        W96490   4.161  16.069  12.131
24066W        W96491  39.034   9.164  12.598
24067W        W96492  12.225   1.018  12.786
24068W        W96493  12.536  22.330  13.566
24069W        W96494   5.090  23.152  10.867
24070W        W96495   6.468  21.963  12.418
24071W        W96496  28.221   3.966   3.305
24072W        W96497  41.077  23.962  13.759
24073W        W96498  13.056  38.797  13.068
24074W        W96499  31.959  10.092   4.809
24075W        W96500   2.195  15.664   0.258
24076W        W96501   3.903  14.310  12.617
24077W        W96502  29.412  43.229   2.795
24078W        W96503  12.279  26.061  11.270
24079W        W96504   7.646   8.739  13.390
24080W        W96505  43.574  22.185   5.001
24081W        W96506  37.009  37.011  12.358
24082W        W96507   2.470  23.616   3.385
24083W        W96508  44.867  22.441   0.376
24084W        W96509   3.577  28.330   5.051
24085W        W96510   1.279  16.589  13.743
24086W        W96511  34.795  31.998  11.126
24087W        W96512  10.121  27.014  13.159
24088W        W96513   0.283   5.233   0.287
24089W        W96514   3.510  24.768   3.353
24090W        W96515  30.547   5.490  11.368
24091W        W96516  23.454  29.045   0.320
24092W        W96517  44.823  33.074  14.796
24093W        W96518  28.433  18.309  12.578
24094W        W96519  22.005  35.041  11.169
24095W        W96520  37.014  25.212   4.578
24096W        W96521   6.852  34.965   4.829
24097W        W96522  11.551  43.813   2.101
24098W        W96523  18.648  16.815  11.685
24099W        W96524   5.650  41.319  10.706
24100W        W96525  11.765  18.041  11.619
24101W        W96526  33.369  20.666   2.246
24102W        W96527   7.633   6.287   2.654
24103W        W96528  25.097  30.568   0.529
24104W        W96529  10.787  43.777  12.210
24105W        W96530   8.679  43.829  10.900
24106W        W96531  13.053  35.544  11.909
24107W        W96532  13.351  23.725  14.942
24108W        W96533  38.052  11.261  10.991
24109W        W96534   9.255  30.015  13.485
24110W        W96535  17.333  33.541  13.051
24111W        W96536  20.025  30.006   4.374
24112W        W96537  41.917  18.135   3.174
24113W        W96538  21.844  14.354  13.725
24114W        W96539  13.229   4.992  10.637
24115W        W96540  34.094  39.529   0.919
24116W        W96541  25.987  31.677   1.757
24117W        W96542  20.201  18.648  10.679
24118W        W96543  34.791  27.562   0.913
24119W        W96544  37.519  28.645  14.881
24120W        W96545  39.173  26.538   0.358
24121W        W96546   6.442  16.095  13.284
24122W        W96547  24.517  28.641  14.756
24123W        W96548  14.015  36.808  11.155
24124W        W96549  31.679  34.613   0.339
24125W        W96550  13.610   9.415  13.940
24126W        W96551  13.183   0.118   2.489
24127W        W96552  14.142  30.168   3.488
24128W        W96553   4.688  33.345   4.499
24129W        W96554   4.336  14.627  12.715
24130W        W96555  37.099  16.343  13.570
24131W        W96556  35.763  15.776  13.753
24132W        W96557  37.174  28.529   3.177
24133W        W96558  21.524  42.651   5.016
24134W        W96559  28.042  33.660  14.731
24135W        W96560  18.641  15.357   1.700
24136W        W96561  11.368   0.780   3.849
24137W        W96562  27.488  25.596   2.736
24138W        W96563  41.464  18.276  12.546
24139W        W96564   1.862   4.965  13.464
24140W        W96565   3.935  14.128   0.500
24141W        W96566  40.134  11.029   0.285
24142W        W96567  11.847  39.314   4.841
24143W        W96568   3.279  21.213  12.097
24144W        W96569  41.531  13.321   3.081
24145W        W96570  28.627  21.833  11.210
24146W        W96571  37.430  38.373   1.955
24147W        W96572   5.434  22.231  12.395
24148W        W96573  14.021  44.240  14.995
24149W        W96574  19.467   4.960  14.925
24150W        W96575  35.116  33.340  14.050
24151W        W96576  12.416  25.384  14.786
24152W        W96577  10.304  35.335  13.445
24153W        W96578  34.905  22.109   2.745
24154W        W96579  16.119  37.235  10.506
24155W        W96580  32.053  20.441   1.781
24156W        W96581  25.672  27.183  12.908
24157W        W96582  36.909  33.664   3.122
24158W        W96583  16.548  31.168  12.514
24159W        W96584  33.309  10.249  12.755
24160W        W96585   9.263  37.320  11.183
24161W        W96586   6.617  34.723  11.972
24162W        W96587  27.908  26.721  11.073
24163W        W96588  25.009  41.606   3.246
24164W        W96589   7.565   6.542  12.501
24165W        W96590  35.314  41.102  14.491
24166W        W96591  15.251  35.797  10.888
24167W        W96592   7.589   4.406  13.857
24168W        W96593   2.778  27.558   3.398
24169W        W96594   1.605  26.493  13.354
24170W        W96595   7.094  36.953   3.915
24171W        W96596  18.829  26.522   0.796
24172W        W96597  26.952  27.570   0.179
24173W        W96598  44.337  32.360  11.544
24174W        W96599  22.052  12.026  13.722
24175W        W96600  11.596  44.218  12.063
24176W        W96601  35.520  20.352   4.117
24177W        W96602  17.802  29.491   1.682
24178W        W96603  15.080  25.684  11.545
24179W        W96604  41.292  22.725   2.277
24180W        W96605  29.460   3.335  13.069
24181W        W96606   1.403   9.062   4.400
24182W        W96607  11.618  25.097  12.456
24183W        W96608   0.905  28.193   1.747
24184W        W96609  35.547  28.696  12.946
24185W        W96610  13.372  41.005  13.970
24186W        W96611   3.416  35.941   2.783
24187W        W96612   6.446  29.476   2.651
24188W        W96613  38.981  31.113  10.889
24189W        W96614   9.370  16.758  13.577
24190W        W96615  41.878  14.794   4.201
24191W        W96616  38.039  30.677  10.842
24192W        W96617  43.977  44.512   1.747
24193W        W96618  40.391  27.773  10.139
24194W        W96619  21.524  11.776  12.552
24195W        W96620   8.366  10.160  13.388
24196W        W96621  32.047  15.713   0.463
24197W        W96622   0.122  40.851   0.113
24198W        W96623  13.092   9.694  12.075
24199W        W96624  43.301   7.966   3.608
24200W        W96625  27.191   1.824   4.769
24201W        W96626  24.079  21.075  13.346
24202W        W96627  20.780   5.451  14.806
24203W        W96628   2.186  20.044   3.662
24204W        W96629  34.981  29.838  12.816
24205W        W96630  23.073   1.223  10.789
24206W        W96631  10.928  18.157  14.420
24207W        W96632  44.931  44.218  11.572
24208W        W96633  42.759  40.354   4.436
24209W        W96634  24.410  26.527   0.897
24210W        W96635   7.381  36.021   4.423
24211W        W96636  33.141  30.621   4.138
24212W        W96637  35.572  11.077   4.846
24213W        W96638  34.425  43.320   3.132
24214W        W96639  43.457  27.027  10.846
24215W        W96640  24.174   1.172  12.300
24216W        W96641  40.143  10.519   1.039
24217W        W96642   5.450   8.031   4.555
24218W        W96643  15.314  44.494   0.799
24219W        W96644   4.164  43.343  14.895
24220W        W96645   2.816  27.897  11.202
24221W        W96646  16.745  44.051   3.882
24222W        W96647  29.010  31.399  11.426
24223W        W96648   2.047  16.592   2.738
24224W        W96649  21.157  36.896  14.552
24225W        W96650  18.774  13.791  12.147
24226W        W96651   6.611   2.307   3.217
24227W        W96652  14.078  24.028   0.768
24228W        W96653  43.737  37.435  10.194
24229W        W96654   4.299  10.155  14.951
24230W        W96655  29.132  38.396  11.617
24231W        W96656   7.167  35.359   2.366
24232W        W96657   9.107  26.453   0.868
24233W        W96658  14.391  28.582  10.707
24234W        W96659   7.243   0.941  14.414
24235W        W96660  34.006  12.164   1.749
24236W        W96661  16.565   8.659   1.790
24237W        W96662   2.373  11.693  11.277
24238W        W96663  18.772  39.794   1.698
24239W        W96664   7.378  32.796  14.550
24240W        W96665  32.918  18.437   4.133
24241W        W96666  15.544   4.642   4.181
24242W        W96667  44.214  34.350   3.192
24243W        W96668   4.383   0.839  12.837
24244W        W96669  34.422  42.944  11.994
24245W        W96670  37.339  10.803   1.319
24246W        W96671  14.295   2.400   4.395
24247W        W96672  35.404  16.577   1.894
24248W        W96673  32.637  27.528   1.215
24249W        W96674  14.594  15.967   0.024
24250W        W96675  31.548  12.777  13.146
24251W        W96676  27.907  39.942   2.163
24252W        W96677  22.627  18.558   1.510
24253W        W96678   7.554  28.640  12.072
24254W        W96679  28.136  36.601  10.653
24255W        W96680  28.868  13.581  13.523
24256W        W96681  16.344  33.577   1.885
24257W        W96682   8.668   0.705  14.361
24258W        W96683  44.058  21.702  11.942
24259W        W96684  34.522  43.516  13.399
24260W        W96685  20.704  39.550   1.185
24261W        W96686   6.544  22.095  10.600
24262W        W96687   3.638  18.037  11.698
24263W        W96688  40.392  20.220  12.013
24264W        W96689  26.972  20.038  11.895
24265W        W96690  40.993  35.023   1.875
24266W        W96691  27.565   5.661  14.956
24267W        W96692  42.189  14.948  10.942
24268W        W96693   0.490  37.815   3.634
24269W        W96694  26.603   1.046   1.787
24270W        W96695  42.144   9.503  11.438
24271W        W96696  21.339  42.592  14.923
24272W        W96697   7.729  26.343  12.961
24273W        W96698  13.599  10.303  14.987
24274W        W96699  27.928  16.560   3.552
24275W        W96700  12.867  43.082  12.503
24276W        W96701   5.274  13.654   3.173
24277W        W96702   5.706  23.237  12.559
24278W        W96703  16.233  36.004   2.254
24279W        W96704  15.795  43.413  10.453
24280W        W96705  27.403   8.215   3.640
24281W        W96706   2.015  20.229  10.608
24282W        W96707   0.091  23.668  12.437
24283W        W96708  31.255  38.732   1.993
24284W        W96709  20.322  40.505  12.256
24285W        W96710  14.714   0.783  11.784
24286W        W96711  32.436  29.152  13.069
24287W        W96712  30.572   0.802   4.508
24288W        W96713  12.106   7.895  11.066
24289W        W96714  15.257  30.170   0.182
24290W        W96715   8.204  24.308  13.988
24291W        W96716  27.023  33.633   1.226
24292W        W96717   0.552  18.529   0.687
24293W        W96718  36.502  36.079   4.967
24294W        W96719   7.886  11.778   5.032
24295W        W96720   8.169  32.962   1.921
24296W        W96721  28.196  31.467  11.031
24297W        W96722  37.401   3.514  14.443
24298W        W96723  11.675   7.150   2.538
24299W        W96724  15.662  40.816   3.130
24300W        W96725  43.851   1.339   1.252
24301W        W96726  36.104  40.841   2.755
24302W        W96727   2.995   6.030  11.571
24303W        W96728  30.552  11.854  12.329
24304W        W96729  19.158   7.609   2.707
24305W        W96730  37.125   6.815   3.374
24306W        W96731   4.390  26.579  13.302
24307W        W96732  27.065  11.884  14.374
24308W        W96733  41.797   0.368  14.382
24309W        W96734  28.689  29.832   2.950
24310W        W96735  32.366  30.939  10.636
24311W        W96736  39.040   9.124  14.820
24312W        W96737  27.223  25.134  14.751
24313W        W96738   6.203  20.928  13.466
24314W        W96739   3.488  10.922   3.316
24315W        W96740  29.536  34.446  13.016
24316W        W96741   3.757  16.285  11.190
24317W        W96742  22.259  23.891  11.490
24318W        W96743  14.218  12.745  10.272
24319W        W96744  40.619  34.336  12.076
24320W        W96745  25.586  42.880   1.943
24321W        W96746  23.502  25.905   0.021
24322W        W96747  42.246   4.875  10.732
24323W        W96748  16.633  44.551   3.908
24324W        W96749  16.107  31.543  10.746
24325W        W96750   7.133  22.724  12.590
24326W        W96751  16.138   8.004   0.217
24327W        W96752  14.575  39.894  13.430
24328W        W96753  20.227  36.804  11.858
24329W        W96754  16.060  39.573  11.177
24330W        W96755  41.419  25.320   3.554
24331W        W96756  14.540  34.149  14.985
24332W        W96757  17.214  39.945  14.043
24333W        W96758  14.187  32.884  12.503
24334W        W96759  27.569  23.805   2.349
24335W        W96760  29.009  26.123  11.124
24336W        W96761  14.085  42.064  11.789
24337W        W96762  13.417  37.677  13.408
24338W        W96763   5.843  22.382   1.345
24339W        W96764  36.926   4.481  12.335
24340W        W96765   2.453  35.244  11.030
24341W        W96766  25.104  44.922   2.597
24342W        W96767  26.125  19.838  10.553
24343W        W96768  18.075  32.628   4.557
24344W        W96769  13.718  11.685  14.491
24345W        W96770  13.296  43.003  10.808
24346W        W96771  30.707  23.640   4.752
24347W        W96772  40.404   4.199   3.700
24348W        W96773  32.498  13.084   4.300
24349W        W96774  21.516   4.382  12.774
24350W        W96775  18.587  22.267  13.460
24351W        W96776  37.438  42.429   0.278
24352W        W96777   4.873  33.891   3.611
24353W        W96778  37.877  43.812  14.225
24354W        W96779  30.947   9.160  12.615
24355W        W96780  34.006  36.406   0.191
24356W        W96781  23.411  30.433  10.674
24357W        W96782  12.575  22.045   1.138
24358W        W96783  36.819  32.615   3.172
24359W        W96784  38.141  43.817   2.250
24360W        W96785  32.551  25.071  14.562
24361W        W96786  18.569  43.049   4.292
24362W        W96787  15.089   2.710  10.711
24363W        W96788  18.098  43.694   3.882
24364W        W96789  38.543  14.390  10.744
24365W        W96790  41.337   3.976   0.929
24366W        W96791  29.465   2.919   0.927
24367W        W96792  23.056   1.035  12.026
24368W        W96793  24.151  37.727  14.771
24369W        W96794  23.811  35.178   0.271
24370W        W96795  36.512   8.365   4.155
24371W        W96796  17.232   7.718  13.430
24372W        W96797  27.152  12.843   0.385
24373W        W96798   5.462  20.922   2.281
24374W        W96799  13.407   3.454  12.469
24375W        W96800  26.023  18.456   1.327
24376W        W96801   5.544  10.319  12.697
24377W        W96802  37.654  13.095   3.652
24378W        W96803   4.962   6.381   3.616
24379W        W96804  37.237   6.498  10.237
24380W        W96805   8.067   8.303   1.123
24381W        W96806  13.053   6.398  11.474
24382W        W96807   5.091   2.748   0.342
24383W        W96808   2.983  36.411  14.450
24384W        W96809   9.610  31.348   2.611
24385W        W96810  34.573  17.288  13.982
24386W        W96811  44.358  30.039   0.079
24387W        W96812  17.084   3.956  14.969
24388W        W96813  21.728  26.960   4.158
24389W        W96814  38.967  14.539  12.947
24390W        W96815  28.038  30.928   0.422
24391W        W96816  34.661  20.140   4.348
24392W        W96817  33.010   9.176  11.153
24393W        W96818  25.348  38.906  11.573
24394W        W96819  43.682   7.168  11.519
24395W        W96820  41.960   1.032   2.650
24396W        W96821  10.834  14.333  14.743
24397W        W96822  20.425  33.333  11.058
24398W        W96823   3.707  36.035  10.346
24399W        W96824  25.258   1.785   2.263
24400W        W96825  29.225  12.626  14.367
24401W        W96826  31.383  21.576  14.350
24402W        W96827   1.352  44.337   3.817
24403W        W96828   0.555  43.890  11.832
24404W        W96829   7.404  41.393  13.931
24405W        W96830  21.233  34.859   3.560
24406W        W96831   4.297   1.919   3.365
24407W        W96832  30.716  26.890  10.527
24408W        W96833  44.832  30.417  12.929
24409W        W96834  42.537  13.176   3.210
24410W        W96835  31.846  21.579   0.774
24411W        W96836  13.897  27.421  10.723
24412W        W96837  25.157   4.011   0.297
24413W        W96838  38.097  15.276   4.187
24414W        W96839  39.515  39.071   1.686
24415W        W96840   2.440   4.893  13.389
24416W        W96841  38.356  32.065  11.149
24417W        W96842   7.385   0.762  11.703
24418W        W96843  31.431  19.898  13.370
24419W        W96844  32.026  43.230   2.311
24420W        W96845   2.517   9.359  10.799
24421W        W96846   3.476  32.567   0.913
24422W        W96847  13.002  21.431   1.145
24423W        W96848   0.208  18.703  13.989
24424W        W96849  24.510  38.041  12.473
24425W        W96850  38.385  36.755  14.482
24426W        W96851  31.753   0.427   3.798
24427W        W96852  26.932  15.719  11.507
24428W        W96853  39.813  39.431  10.647
24429W        W96854  33.042  32.662   3.178
24430W        W96855  24.542   3.673  11.146
24431W        W96856  43.311  37.174  14.777
24432W        W96857   4.819  15.906  12.721
24433W        W96858  34.041  41.925  12.407
24434W        W96859  42.460  41.975   2.427
24435W        W96860   8.301   6.310  13.880
24436W        W96861  25.365  14.132  12.722
24437W        W96862   3.191   7.611  13.534
24438W        W96863   3.781  40.596  10.372
24439W        W96864  44.390   8.219   4.119
24440W        W96865   5.505  17.740  14.510
24441W        W96866   3.001  41.725  11.920
24442W        W96867  34.590  16.263  12.944
24443W        W96868  36.434  40.756   4.478
24444W        W96869  38.849  20.226  11.988
24445W        W96870   4.441  28.375  12.946
24446W        W96871  25.909  21.801   2.742
24447W        W96872   1.944  35.024   1.859
24448W        W96873  24.499  24.021  12.099
24449W        W96874  37.653  26.433  14.294
24450W        W96875   8.724  43.338   3.358
24451W        W96876  24.295  14.578  12.180
24452W        W96877  32.635  41.329   4.174
24453W        W96878  33.927  10.362  10.165
24454W        W96879   4.349  13.659  13.040
24455W        W96880  29.447   1.869   0.800
24456W        W96881  39.039  29.971   3.809
24457W        W96882   9.387   9.975  12.568
24458W        W96883  20.203  34.701   0.303
24459W        W96884  10.734  32.721   3.166
24460W        W96885   9.287   8.359   3.319
24461W        W96886  18.330  14.537  11.598
24462W        W96887  35.639  17.355   2.840
24463W        W96888  27.935  22.468  11.573
24464W        W96889  39.671  31.245  12.587
24465W        W96890  20.208  41.087   0.371
24466W        W96891   6.818   1.765  14.386
24467W        W96892   6.352  27.196  13.378
24468W        W96893  41.450   1.060   2.583
24469W        W96894  21.564  10.878   2.146
24470W        W96895  20.640  12.116  11.133
24471W        W96896   8.460  36.702   4.314
24472W        W96897   2.016  16.575   0.640
24473W        W96898  32.664  12.625  14.537
24474W        W96899  38.062  25.857   2.891
24475W        W96900  32.131   4.131  14.793
24476W        W96901  14.617   4.803  12.325
24477W        W96902  27.224  40.468   3.754
24478W        W96903   7.302  20.893   1.359
24479W        W96904  38.983   5.019  14.100
24480W        W96905  44.665  16.641   4.738
24481W        W96906   4.243  34.699   1.249
24482W        W96907  20.325  39.484   3.941
24483W        W96908  16.137  29.866  12.136
24484W        W96909  17.748  34.801  14.443
24485W        W96910  30.584  39.958   4.948
24486W        W96911  24.061  14.833   2.597
24487W        W96912  16.990  40.533  14.001
24488W        W96913  18.204  19.678  13.923
24489W        W96914   5.077   4.429  11.137
24490W        W96915  44.929  26.673   2.797
24491W        W96916   2.868  21.235  13.880
24492W        W96917  33.053  25.445  10.586
24493W        W96918  41.309  14.160   2.667
24494W        W96919  30.401  30.558  12.571
24495W        W96920  12.371  18.518   4.471
24496W        W96921  25.086  38.738   3.687
24497W        W96922  35.502   5.399  12.311
24498W        W96923  25.668  14.372  12.060
24499W        W96924   5.700  10.184  11.051
24500W        W96925  34.603  16.569   3.752
24501W        W96926  28.700  42.740   1.863
24502W        W96927  26.041   5.851  13.362
24503W        W96928  18.610  21.217   0.831
24504W        W96929  15.127  26.928  12.946
24505W        W96930  29.497   3.313  11.593
24506W        W96931  31.837  12.629   2.282
24507W        W96932  24.658  11.211  10.206
24508W        W96933  27.533  39.047  13.978
24509W        W96934   9.677  35.037   1.812
24510W        W96935  28.107  28.157   1.882
24511W        W96936  11.555   0.546  13.438
24512W        W96937  18.995   0.331   3.266
24513W        W96938  32.353  11.094   4.498
24514W        W96939  42.531   1.604  11.090
24515W        W96940   9.117  28.650  10.661
24516W        W96941  17.057  38.410   4.674
24517W        W96942  44.066  25.104  14.198
24518W        W96943  10.814  33.997  11.511
24519W        W96944  24.607  27.109   2.432
24520W        W96945   3.214  40.596   1.552
24521W        W96946  13.189   9.402  14.251
24522W        W96947  25.179  32.868   2.245
24523W        W96948   5.796  37.884   2.214
24524W        W96949  44.865  29.450   4.885
24525W        W96950   1.279  28.208   4.663
24526W        W96951  36.182  15.662   4.214
24527W        W96952  32.177   6.339   2.132
24528W        W96953  21.763  21.598   0.220
24529W        W96954   1.062  12.329   1.877
24530W        W96955  40.066  16.138   4.613
24531W        W96956  20.114   1.946   4.485
24532W        W96957  26.231   5.020   0.554
24533W        W96958  33.536  33.903  14.181
24534W        W96959  37.052  24.555   2.189
24535W        W96960  21.687  37.772  12.683
24536W        W96961   1.817  20.585   3.631
24537W        W96962  36.608  25.090  10.632
24538W        W96963   1.479  34.454   1.308
24539W        W96964  18.315  29.560  10.963
24540W        W96965  25.618  41.020   3.698
24541W        W96966   4.509  12.790  10.632
24542W        W96967   6.943  12.908  14.990
24543W        W96968  42.032  39.415   4.483
24544W        W96969  35.474  24.564  11.694
24545W        W96970  14.988  38.376   0.946
24546W        W96971  13.567  23.973   2.970
24547W        W96972  27.686  37.070  14.819
24548W        W96973  16.762  32.573   0.679
24549W        W96974  18.068  37.364   2.933
24550W        W96975  41.271  15.201   4.692
24551W        W96976  28.003  31.974  11.108
24552W        W96977   3.565  29.379  14.516
24553W        W96978  10.195  41.701   4.652
24554W        W96979  24.010   8.534  11.479
24555W        W96980  23.844  25.439   9.811
24556W        W96981  42.552  14.346   3.104
24557W        W96982  17.341  30.437   4.581
24558W        W96983   9.912  39.107  12.962
24559W        W96984   8.859  10.649   4.186
24560W        W96985  43.991   5.102   1.784
24561W        W96986  15.265   8.271  10.412
24562W        W96987  43.645   9.278   0.211
24563W        W96988  43.232   7.335   1.125
24564W        W96989  11.028  11.795  11.173
24565W        W96990  22.774  44.653  11.220
24566W        W96991  36.631   6.361  14.797
24567W        W96992  16.629   5.788  11.063
24568W        W96993  26.872   8.862   9.937
24569W        W96994  42.642  21.696  12.345
24570W        W96995  26.367  33.404   3.805
24571W        W96996  16.128   4.031   3.161
24572W        W96997   8.703  32.825   4.611
24573W        W96998  11.465  22.848   0.884
24574W        W96999  31.401   4.247  12.018
24575W        W97000  41.329  37.570  12.560
24576W        W97001  44.408  40.089  11.629
24577W        W97002  40.854  25.199   4.670
24578W        W97003   8.134  24.424  11.782
24579W        W97004  23.029  41.451   0.762
24580W        W97005  30.001  27.736   3.431
24581W        W97006  20.233   9.416   1.350
24582W        W97007   6.253  37.903  14.335
24583W        W97008  38.999  16.212   4.833
24584W        W97009  20.877  21.602  13.003
24585W        W97010  16.878   7.645   4.130
24586W        W97011  10.331  19.748   0.881
24587W        W97012   0.925  33.062   5.516
24588W        W97013   8.196  20.757   3.307
24589W        W97014  23.108  37.469  12.449
24590W        W97015   1.519  24.659   3.804
24591W        W97016  33.546   7.458   1.798
24592W        W97017   8.126  36.711   2.517
24593W        W97018   6.529  30.829  10.575
24594W        W97019   6.317  33.580  12.607
24595W        W97020  37.065  27.552   1.967
24596W        W97021  29.583  13.936  12.087
24597W        W97022  13.597  34.002  14.785
24598W        W97023   5.690   3.970   1.318
24599W        W97024  32.933  10.944  13.701
24600W        W97025  17.042  11.605   2.321
24601W        W97026  30.889  36.019   3.008
24602W        W97027   9.945  22.147   2.398
24603W        W97028  43.126  23.637   1.717
24604W        W97029   2.275   0.956   0.871
24605W        W97030  32.884  10.917   0.277
24606W        W97031  24.612   2.904   2.275
24607W        W97032   7.425   7.242  14.457
24608W        W97033  12.625  37.442   3.155
24609W        W97034  18.813  43.404  10.867
24610W        W97035   7.211   5.715  13.541
24611W        W97036  32.203  39.426   1.253
24612W        W97037  33.115  10.140  12.257
24613W        W97038   8.306  43.635  14.318
24614W        W97039   0.625  33.579   9.928
24615W        W97040   4.160  31.437  12.703
24616W        W97041   1.898  10.744  13.348
24617W        W97042  24.974  40.861  11.891
24618W        W97043  44.559  44.550  11.550
24619W        W97044   5.822  33.476   0.766
24620W        W97045  37.598  39.006   0.144
24621W        W97046  41.870   3.371  12.022
24622W        W97047  23.615  33.931   4.882
24623W        W97048  33.472  32.293  10.776
24624W        W97049   2.094  27.414   4.699
24625W        W97050   4.078  10.719  14.213
24626W        W97051  23.310  14.530   2.288
24627W        W97052  22.759  11.817   5.425
24628W        W97053   1.785   4.686   3.385
24629W        W97054  16.174  33.474  14.417
24630W        W97055   6.361  38.046  10.406
24631W        W97056  25.963  38.837  10.461
24632W        W97057   5.015  19.166   3.630
24633W        W97058  22.970  25.539  11.613
24634W        W97059  12.203  10.338  12.864
24635W        W97060  16.024  31.639  13.645
24636W        W97061  39.618  19.665  12.002
24637W        W97062   4.210   7.827   3.324
24638W        W97063  15.725  32.849  11.591
24639W        W97064  25.603  30.233   4.498
24640W        W97065  17.409  32.482   5.047
24641W        W97066  44.080  34.556   1.330
24642W        W97067   6.169  38.536   4.244
24643W        W97068  11.753   0.065  10.736
24644W        W97069   3.031  28.948   3.423
24645W        W97070  41.226  42.562   2.275
24646W        W97071  37.229  19.453   2.239
24647W        W97072  43.978  41.774   2.184
24648W        W97073  33.618  43.497  12.853
24649W        W97074  40.552  31.332  11.567
24650W        W97075  17.981  16.960  12.193
24651W        W97076  17.918  15.056  10.854
24652W        W97077   6.729  20.661  12.912
24653W        W97078   2.493  39.401  10.629
24654W        W97079  40.799  10.293  13.034
24655W        W97080  37.367  34.713   4.854
24656W        W97081  14.404  15.199   2.804
24657W        W97082  42.784  31.172   4.110
24658W        W97083  22.417  43.288   3.412
24659W        W97084  12.568  19.781   4.592
24660W        W97085   2.459  38.577  11.078
24661W        W97086  19.411  28.979   4.164
24662W        W97087  23.287   4.244   1.271
24663W        W97088   2.297  31.380   3.915
24664W        W97089  43.915  23.577  12.468
24665W        W97090  28.374   2.904  14.942
24666W        W97091   5.807  27.111   0.949
24667W        W97092  16.160  11.348   0.264
24668W        W97093   0.850  21.970  10.887
24669W        W97094   4.285  20.791   4.458
24670W        W97095  24.102   9.631   0.469
24671W        W97096  41.119  30.585   3.151
24672W        W97097   7.797  44.474   1.209
24673W        W97098  27.009  31.283   4.958
24674W        W97099  36.572   5.424   2.074
24675W        W97100   9.380  22.347  11.567
24676W        W97101  11.409  11.235   2.106
24677W        W97102   3.016   1.224  12.930
24678W        W97103  32.840  22.528   2.472
24679W        W97104  15.526  41.121   2.685
24680W        W97105  19.366   5.361  13.025
24681W        W97106  31.953  19.314   3.302
24682W        W97107   1.484  25.147   0.848
24683W        W97108  11.934  44.001   3.284
24684W        W97109  32.968  25.579  11.450
24685W        W97110  34.836  43.745   3.648
24686W        W97111   1.289   2.438  14.794
24687W        W97112  18.526   4.278  10.651
24688W        W97113  37.967   0.373   0.375
24689W        W97114  11.173  30.583  13.898
24690W        W97115  26.461  38.469  12.010
24691W        W97116   9.645  17.399  10.571
24692W        W97117  35.944   1.876   1.202
24693W        W97118  25.516  14.776   1.457
24694W        W97119  14.880  27.641   2.981
24695W        W97120  14.562   0.508   4.610
24696W        W97121  34.551  28.987   4.111
24697W        W97122  35.986  36.011   4.786
24698W        W97123  30.381  38.271   1.187
24699W        W97124   9.080  22.479   1.685
24700W        W97125  25.390  40.297   3.215
24701W        W97126  20.850   9.628   2.218
24702W        W97127   0.249   9.021  11.578
24703W        W97128  29.599  35.480  14.294
24704W        W97129  39.505   5.990   0.330
24705W        W97130  30.614  11.425  11.901
24706W        W97131  27.999  17.744  14.505
24707W        W97132  24.478   2.962  12.913
24708W        W97133  17.802  12.627  11.595
24709W        W97134   0.374  43.429   0.842
24710W        W97135   8.934  11.092  11.961
24711W        W97136  11.156  38.832  13.014
24712W        W97137  13.212  24.407   5.054
24713W        W97138   9.206  41.390   0.344
24714W        W97139  32.573   5.005  11.476
24715W        W97140  15.254  27.905  14.037
24716W        W97141  39.581  20.789  12.902
24717W        W97142  43.460  36.581   0.785
24718W        W97143  42.557  15.880   3.751
24719W        W97144  32.899  20.594  11.288
24720W        W97145  35.456  29.960   4.100
24721W        W97146  42.258  36.389  13.403
24722W        W97147  42.146  27.905   2.871
24723W        W97148   6.830  39.513  13.310
24724W        W97149  10.374  13.880  13.056
24725W        W97150  25.167  29.755   4.236
24726W        W97151   0.338   2.349   4.047
24727W        W97152  20.688  34.144  14.254
24728W        W97153   2.856  21.633   3.510
24729W        W97154  40.499  33.041  12.418
24730W        W97155  37.867  23.661  10.706
24731W        W97156  25.441  35.209  14.355
24732W        W97157  17.616  22.628  14.456
24733W        W97158  19.125  23.498   3.760
24734W        W97159   7.821  17.615  10.678
24735W        W97160  19.177  19.749   2.860
24736W        W97161   1.677  15.625   0.327
24737W        W97162  14.804  22.286  12.950
24738W        W97163   9.352  32.346  13.032
24739W        W97164  29.121  25.153   2.673
24740W        W97165  39.974  27.544  13.517
24741W        W97166  32.733  12.639  11.117
24742W        W97167   0.051  39.552   2.727
24743W        W97168  32.928  11.356  10.576
24744W        W97169   3.950  18.003  11.287
24745W        W97170  42.302  39.414   2.849
24746W        W97171  35.951  12.897  10.754
24747W        W97172  21.017   9.014  11.057
24748W        W97173  20.010  21.205  13.945
24749W        W97174  25.561  40.996  14.862
24750W        W97175  33.674   1.757   2.723
24751W        W97176  20.006   7.383   1.360
24752W        W97177  33.483  12.948   3.605
24753W        W97178  38.992  39.531   0.781
24754W        W97179  23.542  16.789   1.392
24755W        W97180  30.166  25.640  12.635
24756W        W97181  26.011  29.944   4.671
24757W        W97182  43.400  34.403  11.868
24758W        W97183  23.087   6.425  13.568
24759W        W97184  40.286   7.643   4.136
24760W        W97185  40.111   3.689   2.708
24761W        W97186  14.591  10.662  14.976
24762W        W97187  35.001  11.761   4.496
24763W        W97188  19.503  25.937   1.234
24764W        W97189   5.697  44.029   0.787
24765W        W97190  15.179   8.218   2.694
24766W        W97191  25.862  41.892  11.715
24767W        W97192  11.622  43.430  12.342
24768W        W97193  31.615  36.521   3.185
24769W        W97194  19.613  31.633   2.913
24770W        W97195  36.976  26.799  12.069
24771W        W97196  44.516  14.122   1.200
24772W        W97197  16.911  43.011   0.374
24773W        W97198  31.494  25.935   2.469
24774W        W97199  38.191   0.514  14.917
24775W        W97200   6.838   1.793  10.967
24776W        W97201  14.633   6.001   9.950
24777W        W97202   4.624  38.859  13.743
24778W        W97203   1.616  25.720  13.071
24779W        W97204  31.077  34.240  10.521
24780W        W97205  25.312   2.289   0.899
24781W        W97206   3.353  27.024   2.789
24782W        W97207   1.976  42.316   2.382
24783W        W97208   5.075  43.786  11.209
24784W        W97209  34.329   4.778  12.051
24785W        W97210  42.414  30.962  12.913
24786W        W97211  36.939  11.188   2.418
24787W        W97212  32.106   2.973  11.098
24788W        W97213  26.751  31.433  10.276
24789W        W97214  22.160  18.259  12.864
24790W        W97215  18.116  44.665   4.128
24791W        W97216  32.557  29.724  13.860
24792W        W97217  35.200  17.344   0.327
24793W        W97218  22.055  24.359   0.688
24794W        W97219   9.740  18.348  10.516
24795W        W97220  41.314   5.389  12.956
24796W        W97221  22.334  20.540  13.736
24797W        W97222   4.480  38.584  11.167
24798W        W97223  13.924  21.524  13.994
24799W        W97224  28.735  32.456   4.622
24800W        W97225   8.173   3.601  13.553
24801W        W97226  44.219  26.752   2.141
24802W        W97227  17.766  31.986  12.339
24803W        W97228  24.999   1.342   2.333
24804W        W97229  40.992  14.143   3.432
24805W        W97230  18.626  25.187  11.928
24806W        W97231  32.166  11.716  14.516
24807W        W97232  31.979  23.595  12.825
24808W        W97233  39.686  20.313  14.523
24809W        W97234  26.220  24.555   2.899
24810W        W97235   5.674  17.025   3.604
24811W        W97236  14.261   7.362   1.393
24812W        W97237  31.977  28.447  14.845
24813W        W97238  32.655  41.902   0.930
24814W        W97239  27.248  27.732  12.942
24815W        W97240   1.350  39.977   3.616
24816W        W97241   5.875  28.320   4.756
24817W        W97242  16.669  43.868   2.841
24818W        W97243  21.503  21.029   4.643
24819W        W97244  11.451   1.981  11.956
24820W        W97245  13.860  20.031   3.486
24821W        W97246  36.771   4.187   1.748
24822W        W97247  26.172  33.915  14.733
24823W        W97248  25.241   0.111   1.345
24824W        W97249   0.745   7.287   3.350
24825W        W97250  23.134  33.598   3.630
24826W        W97251  25.314  43.573  13.834
24827W        W97252  12.388  29.531   0.090
24828W        W97253  14.382  12.268   4.391
24829W        W97254  38.980  37.992  14.458
24830W        W97255  23.149   4.321   0.430
24831W        W97256  36.818  15.330  14.372
24832W        W97257   5.198  33.651  11.602
24833W        W97258   4.922  19.985   2.022
24834W        W97259  14.626  37.400  14.280
24835W        W97260  19.332  26.556  10.551
24836W        W97261  27.358  33.397  12.340
24837W        W97262  33.601  12.357   2.290
24838W        W97263  22.487   6.188  10.518
24839W        W97264  10.606   5.130  11.175
24840W        W97265  27.198  29.466   1.931
24841W        W97266  17.299  10.260   2.725
24842W        W97267  33.117  40.850  13.356
24843W        W97268   0.500  31.065   9.660
24844W        W97269  11.652  22.096  13.741
24845W        W97270  44.191  36.706  14.058
24846W        W97271   0.599  40.381   0.702
24847W        W97272  11.328  19.821  13.667
24848W        W97273  33.398   4.100  12.729
24849W        W97274  41.019  11.364  11.485
24850W        W97275  20.991  43.739  11.071
24851W        W97276  14.127   8.149  12.435
24852W        W97277  12.332  38.462  13.459
24853W        W97278  23.681  37.511  11.984
24854W        W97279  34.820  44.433   1.308
24855W        W97280  25.638  15.404  12.079
24856W        W97281  11.829   7.414  11.621
24857W        W97282   4.275  35.802   2.715
24858W        W97283  25.008  44.191  10.375
24859W        W97284  39.920  25.751  10.688
24860W        W97285  41.862  21.086  14.415
24861W        W97286  29.013  28.490  10.731
24862W        W97287  18.544  18.262   2.572
24863W        W97288  20.518  34.472   4.610
24864W        W97289   9.399   9.390  12.569
24865W        W97290  38.550  39.553  13.830
24866W        W97291  12.384  19.129   1.910
24867W        W97292  11.878  31.577  10.370
24868W        W97293  28.418  41.339   0.490
24869W        W97294  24.884  17.976  12.662
24870W        W97295  31.396  13.637  13.304
24871W        W97296   5.783  15.696  10.528
24872W        W97297  28.121   3.725   2.853
24873W        W97298   5.281   5.706   0.983
24874W        W97299  27.570   1.931   0.497
24875W        W97300  12.758   6.413  14.795
24876W        W97301   0.396  35.303   1.330
24877W        W97302   4.720  23.947  12.472
24878W        W97303  27.557  37.544   0.001
24879W        W97304  21.634  21.600   2.795
24880W        W97305  10.159  28.385  10.753
24881W        W97306  12.323  41.789   1.392
24882W        W97307  10.850   9.511   3.164
24883W        W97308  33.834  39.132   0.704
24884W        W97309   3.249  35.844  12.879
24885W        W97310  34.086  23.220  11.711
24886W        W97311  36.668  12.449  12.576
24887W        W97312   3.590  39.913   2.164
24888W        W97313  40.903   3.487  10.455
24889W        W97314  28.114  39.779  11.093
24890W        W97315  29.489  36.330   1.421
24891W        W97316  12.552  43.512  13.773
24892W        W97317  31.114  29.854   3.287
24893W        W97318  34.311  12.156  10.541
24894W        W97319  40.383  24.554  10.311
24895W        W97320  42.538  26.142   2.450
24896W        W97321  31.633   1.813  11.901
24897W        W97322  21.083  20.432  13.542
24898W        W97323  17.198  17.683  13.268
24899W        W97324  42.604  35.894  12.791
24900W        W97325  17.233  15.101  11.490
24901W        W97326  28.560  43.838  11.925
24902W        W97327  19.107  32.134  13.792
24903W        W97328  25.322  43.279   4.236
24904W        W97329  41.331   6.323   3.119
24905W        W97330  30.009  44.392  13.552
24906W        W97331  23.677   0.202   1.931
24907W        W97332  11.299  26.982   1.181
24908W        W97333  30.516  33.396   4.511
24909W        W97334  28.239  27.121  12.381
24910W        W97335  44.741  21.577   4.301
24911W        W97336  12.826   5.431  14.714
24912W        W97337   0.555  23.618   4.576
24913W        W97338   8.901   4.411  10.611
24914W        W97339  17.899  27.027   0.845
24915W        W97340  10.850   2.770   2.254
24916W        W97341  14.805  16.325   3.774
24917W        W97342  12.471  28.436   1.909
24918W        W97343  27.904  15.678  14.091
24919W        W97344  43.301  39.641   1.175
24920W        W97345  26.600  18.325  13.798
24921W        W97346  19.797   6.736  13.924
24922W        W97347   3.079  28.344   1.255
24923W        W97348  15.646   0.812   1.917
24924W        W97349  35.417   7.407   4.208
24925W        W97350  11.244  31.731  12.533
24926W        W97351  36.817  44.231  12.480
24927W        W97352  43.792  34.876   4.201
24928W        W97353   2.713  39.840   2.653
24929W        W97354  23.495  24.963  12.916
24930W        W97355  18.574  27.174  11.766
24931W        W97356  38.746  32.119   0.411
24932W        W97357  32.805  26.028   2.746
24933W        W97358  19.797  21.107   0.795
24934W        W97359   6.264  36.074  14.959
24935W        W97360  39.527   2.853  12.966
24936W        W97361  26.124   8.628  13.562
24937W        W97362  20.277   6.899   4.685
24938W        W97363  44.510   4.852  14.411
24939W        W97364  42.223  30.493  12.951
24940W        W97365  38.994   3.987  13.874
24941W        W97366   7.986  27.036  14.053
24942W        W97367   2.110   4.488  13.384
24943W        W97368  14.678  19.055   4.304
24944W        W97369  19.659  33.047   1.833
24945W        W97370   0.787  32.583  10.159
24946W        W97371   3.929  11.170   1.407
24947W        W97372  17.329  18.246  14.080
24948W        W97373  39.512  26.421  12.141
24949W        W97374  31.748  25.773  11.809
24950W        W97375  17.843   4.692  12.005
24951W        W97376  35.944  17.352  13.300
24952W        W97377  22.563  32.861  13.938
24953W        W97378  17.018  13.159  13.918
24954W        W97379  22.783  10.316  11.484
24955W        W97380  15.360   6.269  11.225
24956W        W97381  19.161   9.359   2.249
24957W        W97382   0.734   3.443  14.481
24958W        W97383  29.287  15.124   4.884
24959W        W97384  28.422  22.874   0.878
24960W        W97385  21.564   3.384  12.017
24961W        W97386  40.294   8.283  11.105
24962W        W97387  38.076  32.246  10.730
24963W        W97388  13.998   3.429  11.538
24964W        W97389  40.128   5.233  11.149
24965W        W97390  20.231   0.453  11.285
24966W        W97391   0.315  12.270   3.620
24967W        W97392  26.544  38.488   2.276
24968W        W97393  40.504  24.970  13.491
24969W        W97394   1.354  13.169  10.597
24970W        W97395  33.744  38.880  12.883
24971W        W97396  28.023   0.760   2.836
24972W        W97397  39.807  22.431   2.692
24973W        W97398  31.580  39.582   4.379
24974W        W97399   3.854   7.934   2.029
24975W        W97400  40.228   4.916   9.863
24976W        W97401   2.331  37.473  13.894
24977W        W97402  15.768  44.090  12.448
24978W        W97403  20.538  21.205   1.764
24979W        W97404  26.396   0.397  13.554
24980W        W97405  18.858  17.631  14.572
24981W        W97406  38.872  39.142  14.682
24982W        W97407   6.571  24.066  13.763
24983W        W97408   7.479  25.764  11.991
24984W        W97409  24.541  23.706   1.422
24985W        W97410  14.368  39.744  11.592
24986W        W97411  44.539  31.549   1.980
24987W        W97412  42.085  44.209  12.591
24988W        W97413  38.358   7.421  12.399
24989W        W97414  39.005  29.134  14.282
24990W        W97415  42.431  13.919   1.744
24991W        W97416  35.591  21.776   4.611
24992W        W97417  15.190   3.037   0.674
24993W        W97418   8.378  43.106  13.850
24994W        W97419  11.205  11.188  10.573
24995W        W97420  12.909  33.361   3.187
24996W        W97421   3.940  31.703   2.588
24997W        W97422  14.930  35.133  13.978
24998W        W97423  11.586  21.045  13.982
24999W        W97424  21.111  18.544  10.801
25000W        W97425  27.420  43.523   2.840
25001W        W97426   9.244   5.951   0.739
25002W        W97427  21.681  14.805  11.868
25003W        W97428  42.879   8.684   0.195
25004W        W97429  36.854   1.684   1.685
25005W        W97430   8.258  28.938   0.395
25006W        W97431   1.349  23.500  11.905
25007W        W97432  18.170  29.506   0.854
25008W        W97433  20.717   8.377   2.693
25009W        W97434  34.163  27.684   2.260
25010W        W97435   5.032  12.789  13.357
25011W        W97436  32.285  25.830   3.452
25012W        W97437  21.054  25.072   0.039
25013W        W97438  14.845  36.495  11.207
25014W        W97439  38.946  38.386   3.124
25015W        W97440  42.911  31.223   0.436
25016W        W97441  17.867  40.772  14.844
25017W        W97442  43.879  26.525   4.095
25018W        W97443  21.138  36.008   3.901
25019W        W97444  43.428  22.661   3.124
25020W        W97445  32.760  14.545   1.342
25021W        W97446   6.642  19.735   0.386
25022W        W97447  20.620  28.863   1.755
25023W        W97448   2.214  12.124  13.405
25024W        W97449  26.566   9.482   0.686
25025W        W97450   4.614   3.887  11.868
25026W        W97451  24.985  25.693   3.748
25027W        W97452  18.289   1.762  11.423
25028W        W97453  33.245  36.832   3.217
25029W        W97454   3.274  12.559  13.630
25030W        W97455   6.136  27.473  11.175
25031W        W97456  24.258  12.649   2.800
25032W        W97457  11.266  40.980   3.137
25033W        W97458  36.346  39.030  10.325
25034W        W97459  14.254  29.160  14.748
25035W        W97460   2.213  36.581  14.937
25036W        W97461  29.948  32.144  14.570
25037W        W97462  33.578   2.531   0.257
25038W        W97463   7.769  18.001  14.960
25039W        W97464  43.358  29.902   4.400
25040W        W97465  17.545  15.413   3.615
25041W        W97466  32.674  11.795  14.519
25042W        W97467  44.993  14.208   0.981
25043W        W97468  40.311   7.197   2.717
25044W        W97469   4.018   4.728  13.414
25045W        W97470  40.625  20.678  12.949
25046W        W97471  33.814  27.119   2.874
25047W        W97472  38.529  14.084  14.033
25048W        W97473  19.710  43.169  14.002
25049W        W97474   3.171  44.997  13.717
25050W        W97475  14.196  21.057  13.952
25051W        W97476  25.047   5.806   3.016
25052W        W97477   1.951  42.938  14.400
25053W        W97478  44.313  21.196   9.856
25054W        W97479   0.023  23.817   1.693
25055W        W97480  16.211  44.750   3.587
25056W        W97481  41.533  18.626  11.124
25057W        W97482   1.475  16.365  14.829
25058W        W97483   1.257  42.542   1.787
25059W        W97484   5.476  31.482  14.979
25060W        W97485  41.608   2.484  11.842
25061W        W97486  18.809  41.721   1.762
25062W        W97487  28.736  37.092   3.730
25063W        W97488   3.280  37.206   5.074
25064W        W97489   2.339  30.137  12.230
25065W        W97490  35.665   6.361   2.578
25066W        W97491  27.460  30.982  11.742
25067W        W97492  31.730   8.239   3.221
25068W        W97493   1.684  12.273   0.813
25069W        W97494  33.155  19.129  11.062
25070W        W97495  43.022  19.704   0.835
25071W        W97496  23.007  16.387   3.090
25072W        W97497  33.672  31.172  13.099
25073W        W97498   7.947  27.337  13.245
25074W        W97499  35.491  40.455   1.742
25075W        W97500   3.273  29.229  10.727
25076W        W97501  29.657  11.988   0.890
25077W        W97502  35.417   8.239   3.704
25078W        W97503  40.927  12.755   2.878
25079W        W97504   6.383   6.780  10.677
25080W        W97505   2.388  44.266  11.967
25081W        W97506  16.460  10.368  12.016
25082W        W97507  31.431   7.824   3.342
25083W        W97508  14.524  22.758  13.589
25084W        W97509   3.201  26.525   1.950
25085W        W97510  19.648   4.251   4.779
25086W        W97511  44.789  30.166  14.397
25087W        W97512  24.112   6.825  13.760
25088W        W97513  32.122  40.745   1.058
25089W        W97514  32.155  37.328   4.078
25090W        W97515  44.964  17.167  13.293
25091W        W97516  33.394  40.504  14.120
25092W        W97517  32.327   8.655  11.401
25093W        W97518  18.299  23.691  12.669
25094W        W97519  12.589   0.294   3.177
25095W        W97520   4.347  28.880  12.965
25096W        W97521  27.187  15.040   0.357
25097W        W97522  31.231  40.375   0.257
25098W        W97523  13.684   0.477   4.571
25099W        W97524   3.642   1.548   1.717
25100W        W97525  16.744  15.381  12.711
25101W        W97526  23.003   1.689  10.554
25102W        W97527   0.450  30.488  11.180
25103W        W97528   6.446  28.567  13.454
25104W        W97529  23.774  10.445  13.959
25105W        W97530  21.754  16.227  14.807
25106W        W97531  26.085  28.483  13.952
25107W        W97532  25.423   1.919   1.377
25108W        W97533  35.339  19.364   1.125
25109W        W97534  23.919  36.382  12.469
25110W        W97535  40.815  20.516  12.003
25111W        W97536   7.887  33.686  13.871
25112W        W97537  12.563  40.182  12.983
25113W        W97538  30.358   1.865  13.895
25114W        W97539  20.703   3.687   3.783
25115W        W97540  42.660  14.029  11.753
25116W        W97541   2.061   6.891   3.136
25117W        W97542  39.433  15.910   2.327
25118W        W97543  15.946  35.525  13.898
25119W        W97544  34.018  28.696   3.259
25120W        W97545  39.093   0.253   4.082
25121W        W97546  19.840  10.646   0.922
25122W        W97547  26.138  20.612   1.900
25123W        W97548   4.806   2.405   5.069
25124W        W97549  27.050  18.802   3.815
25125W        W97550  37.645  14.698   3.796
25126W        W97551  39.524  16.477  11.151
25127W        W97552  37.300  16.057   4.807
25128W        W97553   4.742  27.956  14.032
25129W        W97554  10.035  30.887   0.386
25130W        W97555  26.673  19.738  10.252
25131W        W97556  43.943  39.359  12.558
25132W        W97557  10.433  28.228   2.716
25133W        W97558  40.038   3.555   0.218
25134W        W97559  13.225  34.410  13.373
25135W        W97560  22.921  33.371  12.475
25136W        W97561  10.764  35.848   4.576
25137W        W97562  15.559  19.088  11.066
25138W        W97563  14.696  12.382   1.188
25139W        W97564  19.213   3.555   1.748
25140W        W97565   6.661   9.393  12.834
25141W        W97566  27.401  19.288   0.840
25142W        W97567  38.581  15.293  12.820
25143W        W97568  25.197  34.039   1.811
25144W        W97569  43.901  42.253  12.969
25145W        W97570  17.618  16.554   0.784
25146W        W97571  12.386   3.491   4.074
25147W        W97572  13.542  40.304  11.604
25148W        W97573   1.255  35.340   1.429
25149W        W97574  21.214  20.112   0.869
25150W        W97575  44.293  31.178  11.066
25151W        W97576  38.041  42.618  11.584
25152W        W97577   4.262  15.605  12.359
25153W        W97578  23.405  33.972  14.313
25154W        W97579  39.359  35.537  10.625
25155W        W97580  37.333   0.747  10.897
25156W        W97581  28.338  42.264  13.647
25157W        W97582  14.760   3.365  11.202
25158W        W97583  43.553  17.511  11.665
25159W        W97584  23.636  12.092   0.918
25160W        W97585  44.052  40.633  13.248
25161W        W97586  30.227   3.214  11.242
25162W        W97587  32.596  14.269   0.941
25163W        W97588   9.538  35.807  14.704
25164W        W97589   5.836  37.361  14.706
25165W        W97590  28.465  20.970  12.974
25166W        W97591  20.650  29.553  11.670
25167W        W97592   0.662  39.333   5.002
25168W        W97593  39.915   6.605   4.768
25169W        W97594  39.645  33.124   2.981
25170W        W97595   5.403  44.358  12.095
25171W        W97596  44.898  24.937   2.386
25172W        W97597  12.202  39.696  13.941
25173W        W97598  34.690  41.675  11.138
25174W        W97599  35.912  19.891   5.115
25175W        W97600  33.604  10.706  10.625
25176W        W97601  29.106   8.142  10.463
25177W        W97602  16.291   2.840   1.239
25178W        W97603   6.872   7.834   0.879
25179W        W97604  12.901  18.562  14.312
25180W        W97605  29.125  14.006  13.378
25181W        W97606  42.968  34.552   4.942
25182W        W97607   3.934  23.659   4.785
25183W        W97608   3.819  24.746   0.951
25184W        W97609  40.303  30.482   4.555
25185W        W97610  17.707  33.109  11.601
25186W        W97611  37.588  23.995   4.732
25187W        W97612  14.740  37.364  11.124
25188W        W97613   9.147  27.207   0.336
25189W        W97614  18.468  31.594  14.554
25190W        W97615   3.991   2.822  10.774
25191W        W97616  11.416   9.112  12.420
25192W        W97617   9.269  44.987  14.463
25193W        W97618  17.655   6.128   1.813
25194W        W97619  13.739  38.453  12.423
25195W        W97620  34.639  12.622  14.825
25196W        W97621  38.433  35.807   0.528
25197W        W97622  35.082   8.681  10.707
25198W        W97623  31.011  38.871   4.202
25199W        W97624  34.577  26.695  12.807
25200W        W97625  18.209  16.667   3.108
25201W        W97626  33.530  41.668  11.043
25202W        W97627   1.778  18.503  12.426
25203W        W97628  29.535  42.785  12.607
25204W        W97629  34.796  13.759  11.688
25205W        W97630   2.967  21.019   1.085
25206W        W97631  36.880  20.253   4.292
25207W        W97632  40.088  18.160  12.449
25208W        W97633  33.008  11.682  10.970
25209W        W97634  43.731  31.660   4.636
25210W        W97635  40.126  26.652   3.346
25211W        W97636  26.925  31.580   9.814
25212W        W97637  13.171  43.855  11.488
25213W        W97638   7.289  37.127   0.575
25214W        W97639   8.181  26.595  12.788
25215W        W97640  40.924  28.729  12.494
25216W        W97641  30.069  32.673  14.386
25217W        W97642   8.574  40.991   0.798
25218W        W97643  11.798  24.093  10.546
25219W        W97644  43.615  42.132   2.251
25220W        W97645  13.397  18.590   4.227
25221W        W97646  20.882  30.047  14.364
25222W        W97647   2.684  41.331  13.530
25223W        W97648  28.742  30.592   1.723
25224W        W97649  12.333  29.941   4.118
25225W        W97650  40.004  13.194   1.928
25226W        W97651  26.042  10.643   4.700
25227W        W97652  43.218  18.259  14.808
25228W        W97653   1.843   3.891  11.350
25229W        W97654  15.249   9.670  14.405
25230W        W97655  43.420   5.693  13.055
25231W        W97656  21.021  19.723  11.155
25232W        W97657   0.778  32.863  11.493
25233W        W97658   5.789   1.375  14.445
25234W        W97659  17.977   5.013   9.979
25235W        W97660  11.819  19.563  10.628
25236W        W97661  42.332   0.776   2.322
25237W        W97662   3.512  31.474   1.329
25238W        W97663  21.862  10.221   0.640
25239W        W97664  31.466  39.108   4.129
25240W        W97665  36.354  30.592  14.925
25241W        W97666  44.168  11.301   3.132
25242W        W97667   7.745  22.854   1.657
25243W        W97668  20.026  33.826  14.902
25244W        W97669  38.895  41.331  13.079
25245W        W97670  38.873  21.586   4.751
25246W        W97671  34.587  36.445   1.253
25247W        W97672   8.736   5.379   1.408
25248W        W97673  34.377   4.988   3.106
25249W        W97674   3.780  34.692  10.558
25250W        W97675  29.109   2.126  12.449
25251W        W97676   3.744  21.246  11.849
25252W        W97677  44.316  21.415  11.560
25253W        W97678  17.806   2.971   4.376
25254W        W97679  42.476  42.376  11.175
25255W        W97680  38.922  15.605  13.064
25256W        W97681  32.184  13.250  11.619
25257W        W97682  14.717  28.976  12.924
25258W        W97683  11.375   8.931   4.692
25259W        W97684  33.181  29.146   1.855
25260W        W97685  14.852  15.871  11.816
25261W        W97686  35.884  25.885  10.823
25262W        W97687  30.979   7.603   2.529
25263W        W97688   3.816  44.716   0.027
25264W        W97689  19.305  43.468  13.578
25265W        W97690   5.435  38.269   2.299
25266W        W97691  30.463   2.237   2.994
25267W        W97692  23.616  13.982  13.817
25268W        W97693   0.076  34.840  14.310
25269W        W97694  44.947   6.451  13.439
25270W        W97695  22.043   2.839   0.960
25271W        W97696   7.344  16.387  10.740
25272W        W97697  32.640  15.687  12.338
25273W        W97698  40.088  28.246   0.374
25274W        W97699   7.687  38.689   2.291
25275W        W97700  13.552  11.170  11.618
25276W        W97701  14.488  33.030  14.384
25277W        W97702  28.740  44.600  12.239
25278W        W97703  22.545  32.468  13.605
25279W        W97704  27.082  40.871  11.418
25280W        W97705  31.620  15.546   0.736
25281W        W97706  15.166  10.070  13.033
25282W        W97707  29.337  15.219  12.574
25283W        W97708  12.693  35.695  11.060
25284W        W97709  33.721  11.187  11.281
25285W        W97710   3.884  22.528   3.097
25286W        W97711  41.073  32.583   0.185
25287W        W97712  15.143   2.761  12.947
25288W        W97713  37.097  31.065   1.483
25289W        W97714  18.131  22.033  14.833
25290W        W97715  33.882  35.105   3.728
25291W        W97716  39.526  10.877   2.214
25292W        W97717  44.369  20.666   0.438
25293W        W97718  32.027  30.920  11.873
25294W        W97719  16.178  43.351   2.865
25295W        W97720  14.999  44.758   0.472
25296W        W97721   7.901  34.954   0.903
25297W        W97722  42.955  37.827  11.313
25298W        W97723   7.989  42.424  14.841
25299W        W97724  43.504  13.239  12.878
25300W        W97725  43.314   8.913  14.877
25301W        W97726  32.204  16.445   3.693
25302W        W97727  39.490  44.361  11.177
25303W        W97728  26.929   2.332  12.775
25304W        W97729  11.255  34.196   1.199
25305W        W97730  12.662  12.192  10.516
25306W        W97731  30.251  19.543   2.056
25307W        W97732  22.106  19.513  13.487
25308W        W97733   1.007  36.502   4.333
25309W        W97734  33.868   1.305   0.747
25310W        W97735   0.458  13.760   1.914
25311W        W97736  25.259  13.225   4.673
25312W        W97737  21.635   4.431   2.684
25313W        W97738  44.490  15.834  13.411
25314W        W97739  44.776   6.347  11.192
25315W        W97740  33.712  40.421  14.890
25316W        W97741  17.331   4.804  13.923
25317W        W97742   2.136  14.121   3.604
25318W        W97743  18.238  18.600   2.803
25319W        W97744  14.854  12.440   2.246
25320W        W97745  13.559  29.898  12.902
25321W        W97746  33.566  34.334   1.912
25322W        W97747   7.484  33.353  10.802
25323W        W97748  19.625  33.635  14.378
25324W        W97749  44.931  39.420  14.005
25325W        W97750  11.891  16.222  14.736
25326W        W97751  42.877   3.129  12.505
25327W        W97752  18.127  34.263   9.857
25328W        W97753  29.331  43.337   0.975
25329W        W97754  28.162  32.534   3.698
25330W        W97755  44.784  44.070  14.011
25331W        W97756  31.713  11.873   2.875
25332W        W97757  28.995   3.964  12.048
25333W        W97758  32.956  11.709  11.508
25334W        W97759  17.983  34.984   0.070
25335W        W97760   1.338  25.980   1.912
25336W        W97761  38.851   6.698   1.374
25337W        W97762  24.044  20.885   3.589
25338W        W97763  42.596   0.499  13.822
25339W        W97764  42.328   1.438   1.763
25340W        W97765  37.275  16.574   3.185
25341W        W97766  23.132  11.728   0.211
25342W        W97767  35.062  33.897   0.530
25343W        W97768  21.733  23.344   0.431
25344W        W97769  36.225   8.685   2.002
25345W        W97770  41.058  30.131   1.422
25346W        W97771  20.787  36.237  12.991
25347W        W97772  33.036  37.196  10.526
25348W        W97773   5.658  23.162   0.254
25349W        W97774  41.067  23.731  14.509
25350W        W97775  28.030  31.517  10.554
25351W        W97776  38.834   7.294  10.701
25352W        W97777  33.443  14.836  12.902
25353W        W97778  41.456  43.771  13.608
25354W        W97779  10.706  40.520  14.335
25355W        W97780   6.838  21.640   3.438
25356W        W97781  28.989  34.236   4.993
25357W        W97782  37.648  15.686   4.062
25358W        W97783  43.223  28.708   2.518
25359W        W97784  15.400   8.714   2.026
25360W        W97785  23.435  19.652  14.208
25361W        W97786  38.425   0.686   2.170
25362W        W97787  17.297   7.939   3.324
25363W        W97788  23.619   2.978   3.123
25364W        W97789  27.172   2.249   2.324
25365W        W97790  26.488  12.614   2.342
25366W        W97791  19.121   5.492   0.738
25367W        W97792   9.915   2.056   0.811
25368W        W97793   6.671  24.586  13.781
25369W        W97794   6.166  36.599  11.097
25370W        W97795  35.563  32.800   0.365
25371W        W97796   0.038  20.083   4.079
25372W        W97797  20.012  22.246  13.889
25373W        W97798  36.428   1.420  13.173
25374W        W97799  19.303  36.591  11.161
25375W        W97800  25.241  34.920  10.534
25376W        W97801  44.990  10.669  14.704
25377W        W97802  40.751  20.251  12.655
25378W        W97803   5.101   6.068   2.839
25379W        W97804   4.360   8.358  11.047
25380W        W97805   9.393  40.408   0.613
25381W        W97806  30.546   8.160   4.429
25382W        W97807  41.441   6.942   0.797
25383W        W97808   4.729   4.395   2.111
25384W        W97809  17.446  17.643   1.365
25385W        W97810  34.421  32.691  11.662
25386W        W97811  32.994   1.559   4.270
25387W        W97812  22.558   7.245   3.025
25388W        W97813   5.569  19.095  14.865
25389W        W97814  31.466  16.493   1.052
25390W        W97815  20.509  26.006  11.168
25391W        W97816   0.858  40.014  11.174
25392W        W97817   6.268  36.879  12.992
25393W        W97818  13.125  11.314  11.938
25394W        W97819  12.239  24.253  14.430
25395W        W97820  10.171  13.092  12.061
25396W        W97821  39.640  11.303  11.549
25397W        W97822  10.891  34.111   2.472
25398W        W97823  35.641  18.203   4.721
25399W        W97824  33.422  30.038  14.047
25400W        W97825  27.625  40.504  11.538
25401W        W97826  19.310  32.635  12.875
25402W        W97827  41.946  23.711   3.146
25403W        W97828  27.064  44.467   3.587
25404W        W97829  35.197  41.784  11.186
25405W        W97830  42.240  15.243   2.835
25406W        W97831  16.013  29.799  10.679
25407W        W97832  10.295   7.115   2.666
25408W        W97833   4.888  44.374  11.992
25409W        W97834  27.453  13.380  14.911
25410W        W97835  43.923  37.461  12.559
25411W        W97836  39.654   6.974   1.309
25412W        W97837  44.104  23.891   2.630
25413W        W97838   3.772  10.405   3.663
25414W        W97839  37.504  40.769   1.066
25415W        W97840   8.718  33.779   2.207
25416W        W97841  21.035  34.276   5.006
25417W        W97842   4.273  36.995   4.684
25418W        W97843  15.624  17.749  11.280
25419W        W97844  27.249  28.853  13.080
25420W        W97845  34.947  33.758  14.410
25421W        W97846   0.901  16.961   0.335
25422W        W97847  30.427   9.627   2.766
25423W        W97848  31.330   5.367   3.074
25424W        W97849  33.464   6.305   2.313
25425W        W97850  43.170  41.999   1.485
25426W        W97851  28.877  39.032   1.301
25427W        W97852   7.263  32.408   0.460
25428W        W97853   3.302  17.715  13.594
25429W        W97854  14.646  29.925   4.217
25430W        W97855  16.513   3.729   2.208
25431W        W97856  30.159   6.794  11.131
25432W        W97857  44.504  42.363  10.464
25433W        W97858   3.502  37.977  10.667
25434W        W97859  23.226  11.151   0.836
25435W        W97860  40.494  41.117  11.969
25436W        W97861  29.078  14.087  12.874
25437W        W97862  15.114  11.968  13.814
25438W        W97863  19.895  42.539   0.759
25439W        W97864  21.476  35.013  14.958
25440W        W97865  22.793  38.823  10.489
25441W        W97866   9.789  19.050   2.616
25442W        W97867  24.128  37.967  14.290
25443W        W97868  27.300  30.519   5.472
25444W        W97869  42.083  10.204   2.777
25445W        W97870  14.226  24.954  13.097
25446W        W97871  18.316  38.054   1.807
25447W        W97872  30.691  27.460  10.507
25448W        W97873  24.214  31.092  13.598
25449W        W97874  35.249  44.552  12.335
25450W        W97875  44.787  36.893  12.489
25451W        W97876  30.308  14.408   0.624
25452W        W97877  34.144  18.647   0.603
25453W        W97878  37.080  26.101   0.966
25454W        W97879  25.697  27.347   1.198
25455W        W97880  31.677   2.825   0.162
25456W        W97881  41.980   2.454   0.294
25457W        W97882  42.190   9.704  14.041
25458W        W97883  17.228  30.973   0.365
25459W        W97884   6.251   8.637   0.647
25460W        W97885  12.349   6.067   1.374
25461W        W97886   1.354  19.545   0.660
25462W        W97887  30.205  21.279  12.931
25463W        W97888  29.522   1.899  11.565
25464W        W97889  24.666  39.991   0.504
25465W        W97890  14.469   5.302  12.580
25466W        W97891   7.269  21.605   0.929
25467W        W97892  24.335  21.837   1.045
25468W        W97893  23.767  24.911   4.787
25469W        W97894   2.233   6.786  13.790
25470W        W97895  40.967  24.483   2.784
25471W        W97896  35.624  43.099   0.327
25472W        W97897  13.104  20.986   5.268
25473W        W97898   9.740  24.449  14.844
25474W        W97899  34.946   2.471  13.307
25475W        W97900  31.898   4.252   2.864
25476W        W97901  22.185  28.192   4.678
25477W        W97902  30.554  32.429  13.062
25478W        W97903  39.583  29.587  13.102
25479W        W97904  27.461  20.535   4.614
25480W        W97905  44.081   6.749   1.375
25481W        W97906  24.563  39.829   1.413
25482W        W97907  42.460  41.467   2.284
25483W        W97908   0.306  16.344  13.585
25484W        W97909  37.014  10.941   4.389
25485W        W97910  27.907  19.095   2.820
25486W        W97911  41.937  15.300   1.901
25487W        W97912  13.522  13.944  12.050
25488W        W97913   2.892  38.881  10.734
25489W        W97914   3.610  23.556   0.453
25490W        W97915  24.151  43.243   2.464
25491W        W97916  26.637   1.370   0.768
25492W        W97917  37.369   2.346   3.354
25493W        W97918  10.731  39.096  12.891
25494W        W97919   4.186  34.177   1.275
25495W        W97920  23.859  37.273   5.182
25496W        W97921  38.836  43.223   1.973
25497W        W97922  36.315  27.403   3.132
25498W        W97923   1.721  43.002  12.946
25499W        W97924   8.811  24.019  13.140
25500W        W97925  34.126  41.595  14.832
25501W        W97926  24.767  11.593  10.532
25502W        W97927  14.696  13.061  12.404
25503W        W97928  15.241  39.036  14.894
25504W        W97929  29.549  21.294  14.552
25505W        W97930  32.656   8.326   3.172
25506W        W97931  10.726   8.295  12.978
25507W        W97932   8.365   8.167  12.879
25508W        W97933  37.550  16.043  13.464
25509W        W97934  27.073   9.851  14.591
25510W        W97935   2.656   9.124   4.593
25511W        W97936  22.995  12.715  12.198
25512W        W97937  23.693  44.751   3.262
25513W        W97938  24.951  13.579   4.903
25514W        W97939   3.215   2.441   1.757
25515W        W97940   9.911  38.124   4.668
25516W        W97941  41.257  11.398  12.430
25517W        W97942   0.552  13.381  13.075
25518W        W97943  23.280  43.843  12.460
25519W        W97944   3.750  27.181  13.136
25520W        W97945   2.821   7.394  14.326
25521W        W97946  26.771   7.906   4.188
25522W        W97947  10.478   2.291  11.421
25523W        W97948   7.988  10.660   0.638
25524W        W97949   3.405   1.928  11.652
25525W        W97950   1.290  23.770   3.886
25526W        W97951   2.589  31.658   1.319
25527W        W97952  22.976  30.720   1.940
25528W        W97953  37.384  24.179   3.842
25529W        W97954  32.203  10.658  11.608
25530W        W97955  20.172  35.872  12.370
25531W        W97956  14.550   4.935   1.253
25532W        W97957  36.716  20.070   1.509
25533W        W97958  27.508  25.415   4.530
25534W        W97959  44.456  15.535   1.405
25535W        W97960   9.280   2.361   2.179
25536W        W97961  36.917  15.978   4.466
25537W        W97962  17.100  36.166  12.073
25538W        W97963  19.679   4.035   0.819
25539W        W97964  25.477  37.504   4.099
25540W        W97965  13.164  27.439   0.260
25541W        W97966  18.049  30.060  11.731
25542W        W97967  35.630  19.872   1.203
25543W        W97968  38.501  44.494  11.187
25544W        W97969  17.359  30.791  12.783
25545W        W97970  29.962  17.805  13.717
25546W        W97971   7.772  29.101   1.965
25547W        W97972  11.244  19.795  10.761
25548W        W97973  13.538  39.068   3.729
25549W        W97974  43.892  13.894   0.422
25550W        W97975  27.638  14.854  10.945
25551W        W97976  18.806  33.887  10.505
25552W        W97977  10.837  42.893   0.069
25553W        W97978  32.905  41.006   2.259
25554W        W97979  34.633  34.955  13.558
25555W        W97980  36.659   3.188   3.209
25556W        W97981  29.915  26.686  13.772
25557W        W97982   4.675   0.249   0.842
25558W        W97983  42.794  28.485   0.465
25559W        W97984  11.092  13.128  12.987
25560W        W97985  25.423  33.496   0.269
25561W        W97986   4.764  18.656   3.653
25562W        W97987  23.037  23.797   3.607
25563W        W97988  34.071  22.645   1.380
25564W        W97989  38.571  10.179   1.840
25565W        W97990  23.922  28.099   2.866
25566W        W97991  13.848  33.614   0.539
25567W        W97992  16.114   8.625  13.106
25568W        W97993   5.422   9.129   3.254
25569W        W97994  20.461  32.163  14.814
25570W        W97995  38.102   1.736   4.115
25571W        W97996  10.312  20.743   0.849
25572W        W97997  28.134  39.854  11.982
25573W        W97998  42.328  13.068   1.441
25574W        W97999   2.304  41.913   2.437
25575W        W98000  34.474  39.068   1.334
25576W        W98001  20.092  18.782  12.115
25577W        W98002  21.607  28.691  14.390
25578W        W98003  29.059  29.194  12.058
25579W        W98004  30.907  11.883   1.778
25580W        W98005  12.496  31.362  11.950
25581W        W98006  43.921  32.380   2.253
25582W        W98007   4.448  44.020   3.682
25583W        W98008  44.914  17.736   0.570
25584W        W98009  40.938   9.073   2.215
25585W        W98010  35.454   9.612   2.838
25586W        W98011  37.696  24.758   4.034
25587W        W98012   9.106  29.640   4.070
25588W        W98013  27.164  11.243   0.995
25589W        W98014   8.771  11.878   0.800
25590W        W98015  30.108  44.250   4.784
25591W        W98016  26.381  27.541  13.434
25592W        W98017  19.748   2.980   2.896
25593W        W98018   7.122   8.747  13.430
25594W        W98019  10.247  17.094  13.633
25595W        W98020  42.995  26.737   2.709
25596W        W98021  12.981   9.685   0.337
25597W        W98022   4.119  27.564   3.743
25598W        W98023  29.972  19.087  13.826
25599W        W98024  13.353  43.382  12.729
25600W        W98025  39.393  35.519   4.646
25601W        W98026  18.791  27.091  14.576
25602W        W98027  24.662  23.885  12.556
25603W        W98028  33.111  18.966  14.613
25604W        W98029  21.588  21.632  12.475
25605W        W98030  40.455  21.514   2.332
25606W        W98031  37.995  28.668  13.042
25607W        W98032  41.083   1.478  13.436
25608W        W98033   7.364   2.726   0.062
25609W        W98034  13.380  36.254  14.577
25610W        W98035   3.328  41.970   0.021
25611W        W98036  36.370  12.601  11.633
25612W        W98037  37.489  34.082  14.374
25613W        W98038  43.972   3.312  10.596
25614W        W98039  33.400  17.600   4.543
25615W        W98040  29.130  34.387   2.212
25616W        W98041   6.416  10.805  11.181
25617W        W98042  14.912   5.507  14.852
25618W        W98043  16.821  44.518   0.431
25619W        W98044  21.864  33.132   3.664
25620W        W98045  39.250   5.988  10.457
25621W        W98046  28.378  20.546  10.159
25622W        W98047   3.726  35.351   2.172
25623W        W98048  38.233  34.066   0.063
25624W        W98049  24.569  32.509  10.549
25625W        W98050   2.558  19.545  10.584
25626W        W98051  38.026   2.514  11.644
25627W        W98052  37.791   5.951   4.695
25628W        W98053   6.138  25.784   9.902
25629W        W98054   8.754  19.665  12.019
25630W        W98055  43.317  30.207  12.512
25631W        W98056  24.768   2.490  10.443
25632W        W98057  19.166  37.132   2.692
25633W        W98058  33.837  10.496  14.338
25634W        W98059  12.453  31.430   2.904
25635W        W98060   1.004  30.842  14.841
25636W        W98061   4.705  19.888  12.482
25637W        W98062  16.497   8.380  12.821
25638W        W98063  44.438   1.506  12.171
25639W        W98064  22.251  12.783   0.192
25640W        W98065  37.300  40.423  13.271
25641W        W98066  34.022  20.628   0.918
25642W        W98067  10.362  35.771  11.580
25643W        W98068  42.206  38.029  12.480
25644W        W98069  43.781  43.695  13.803
25645W        W98070  24.985  40.449  13.387
25646W        W98071   3.803   1.194   0.895
25647W        W98072  23.015   6.194  10.579
25648W        W98073   2.584  22.190   1.197
25649W        W98074  10.410  27.615  11.907
25650W        W98075  34.048  36.255   2.925
25651W        W98076  16.120   9.947   0.216
25652W        W98077  23.529  24.093   3.738
25653W        W98078  32.186  10.583  10.728
25654W        W98079  29.544  11.537   1.420
25655W        W98080  37.556  34.191   0.710
25656W        W98081  27.649   7.232   2.614
25657W        W98082   3.743  37.549  14.877
25658W        W98083  29.361   6.294  13.266
25659W        W98084  39.845  33.196  14.908
25660W        W98085   1.859  25.580  11.441
25661W        W98086  40.410  22.100  13.402
25662W        W98087  26.169  34.418   1.981
25663W        W98088  40.797  34.957  10.658
25664W        W98089  14.708  16.721  13.938
25665W        W98090  40.960  24.269   0.190
25666W        W98091  18.965  34.506  13.622
25667W        W98092  37.824  34.511   0.437
25668W        W98093  11.022   0.761   2.296
25669W        W98094  27.169  31.496  12.978
25670W        W98095  16.738  23.692   1.084
25671W        W98096  25.030   3.265  10.665
25672W        W98097   6.133  33.692  13.060
25673W        W98098   4.660  38.471   0.989
25674W        W98099  33.992  35.460  13.395
25675W        W98100  35.862  15.577   2.721
25676W        W98101  25.104  40.473   1.010
25677W        W98102  18.809  13.514   0.664
25678W        W98103  15.031  24.569  13.437
25679W        W98104  39.459  22.126  14.796
25680W        W98105  27.125  34.546   3.643
25681W        W98106   9.246  33.077  12.591
25682W        W98107  17.222  18.712   3.637
25683W        W98108  40.541   1.449  12.441
25684W        W98109  17.225  34.549  12.844
25685W        W98110   4.269  41.350  11.602
25686W        W98111  40.476  14.186   0.391
25687W        W98112  22.048  29.952   0.192
25688W        W98113  15.843  10.424   4.334
25689W        W98114  14.251  35.865   3.279
25690W        W98115  44.583  11.076  10.566
25691W        W98116  13.759  24.840   0.524
25692W        W98117  25.876  29.713   1.923
25693W        W98118  11.392   8.341   0.960
25694W        W98119  16.783  37.487  13.292
25695W        W98120  36.503   9.132  14.425
25696W        W98121  26.664   6.483   0.350
25697W        W98122   8.712  43.507   4.619
25698W        W98123  17.152  27.221   1.563
25699W        W98124  28.874  35.614   0.568
25700W        W98125  21.730  29.032   2.699
25701W        W98126  19.806  39.076  11.125
25702W        W98127  20.125  11.826   1.818
25703W        W98128  44.829  34.703   3.417
25704W        W98129  34.435   9.763  14.075
25705W        W98130  29.738  12.844   4.091
25706W        W98131   8.392   7.725   0.966
25707W        W98132  37.852  12.096   0.228
25708W        W98133   2.816   6.610   0.817
25709W        W98134   9.124  25.430   2.219
25710W        W98135  10.125  33.937   2.799
25711W        W98136  20.028  29.109   2.809
25712W        W98137   2.872  36.925  13.550
25713W        W98138  28.590  29.699   3.840
25714W        W98139  15.307  41.371   1.740
25715W        W98140   6.098  12.273   0.945
25716W        W98141  34.475  40.747  14.716
25717W        W98142  27.699  36.859   4.083
25718W        W98143   5.706  22.157   4.086
25719W        W98144  27.752   6.002  14.210
25720W        W98145  29.151  30.292   1.832
25721W        W98146  14.176  43.088  14.700
25722W        W98147  14.110  22.240   1.843
25723W        W98148  42.218  36.415  12.876
25724W        W98149  36.564  33.656  13.067
25725W        W98150  41.747  20.522   2.411
25726W        W98151  18.512  37.149  10.738
25727W        W98152  29.522   6.858   3.888
25728W        W98153  35.424  35.578  14.561
25729W        W98154  24.129  43.647   3.967
25730W        W98155  33.175  29.076   4.595
25731W        W98156  19.338  11.162  14.004
25732W        W98157  23.069   6.985   4.150
25733W        W98158  21.520  29.974   0.289
25734W        W98159  42.222  24.335  10.811
25735W        W98160   1.447  40.422  11.638
25736W        W98161  40.524  15.266  12.573
25737W        W98162  36.330  24.466  14.896
25738W        W98163  17.035  30.384  12.927
25739W        W98164  31.520  18.369  13.116
25740W        W98165  17.268  29.011   0.571
25741W        W98166  26.482  28.870  13.674
25742W        W98167  23.364   3.384   0.038
25743W        W98168  43.348   1.330   1.940
25744W        W98169  13.822  31.686   3.197
25745W        W98170  17.624  30.519   0.738
25746W        W98171  24.985  18.789   3.715
25747W        W98172  40.997  22.615  12.534
25748W        W98173  29.910  20.246   3.729
25749W        W98174   4.632  39.336   0.918
25750W        W98175  33.122  44.694   0.886
25751W        W98176  40.858  35.644   1.756
25752W        W98177   4.790  43.770  11.642
25753W        W98178  21.481  28.981  10.665
25754W        W98179   5.663   4.520   3.237
25755W        W98180  37.384  36.808  13.574
25756W        W98181  15.174  38.922   2.738
25757W        W98182  33.996  40.888  12.550
25758W        W98183  18.321  13.612  13.955
25759W        W98184  33.123  33.856   1.893
25760W        W98185  29.140   9.881  14.118
25761W        W98186  14.218  42.187   0.590
25762W        W98187  24.404   6.770  12.432
25763W        W98188   8.459   8.229  10.694
25764W        W98189  35.412   8.447  13.810
25765W        W98190  21.445  21.277  10.065
25766W        W98191   1.656  43.564  12.422
25767W        W98192  31.874  34.964   0.753
25768W        W98193  43.071  18.514   0.889
25769W        W98194  41.759  23.175  10.062
25770W        W98195  38.501  20.476   1.718
25771W        W98196  25.971  33.499   2.385
25772W        W98197  17.117  43.488   0.273
25773W        W98198  33.333   0.984   3.188
25774W        W98199  27.742   2.266   2.723
25775W        W98200  34.615   9.287  13.111
25776W        W98201   2.388  20.646   2.955
25777W        W98202   0.419  18.606  12.960
25778W        W98203  36.911  43.456  13.929
25779W        W98204  32.590  12.874  13.820
25780W        W98205  31.451  10.345   0.462
25781W        W98206  12.075   3.287   0.513
25782W        W98207  26.062  36.787   0.891
25783W        W98208  18.690   8.088  14.270
25784W        W98209  28.166  10.717   2.406
25785W        W98210  35.999  25.707  14.029
25786W        W98211  31.629  22.132   2.198
25787W        W98212  10.609  20.902  12.795
25788W        W98213  18.757  20.868   3.124
25789W        W98214  11.287   9.081   3.727
25790W        W98215  12.601  17.536   2.804
25791W        W98216  36.526  31.114  14.923
25792W        W98217  41.433  27.630   1.229
25793W        W98218  14.076  15.162   1.004
25794W        W98219  28.051  42.179   0.516
25795W        W98220  34.135  25.798  10.797
25796W        W98221  23.932  33.116   1.866
25797W        W98222  11.811  42.024  13.118
25798W        W98223   4.764  37.042  12.971
25799W        W98224  41.267  16.980  12.131
25800W        W98225  10.885  14.545  11.201
25801W        W98226  30.250   2.589  11.155
25802W        W98227   8.289   2.928  11.610
25803W        W98228   9.668   8.677   2.131
25804W        W98229   1.521   1.428  10.739
25805W        W98230  16.528   1.524   3.618
25806W        W98231  35.025  37.800  13.088
25807W        W98232  13.147  24.901  10.073
25808W        W98233  30.990  41.849   9.882
25809W        W98234  27.171  12.826  13.036
25810W        W98235  17.271  34.070  13.040
25811W        W98236  40.597  29.474   5.305
25812W        W98237  34.932  11.996  11.099
25813W        W98238  42.970  22.451   2.599
25814W        W98239   9.790  33.168   0.507
25815W        W98240  26.692  24.502   0.741
25816W        W98241  10.884   7.919  13.339
25817W        W98242  41.443  34.632   4.185
25818W        W98243  30.428  44.998   1.004
25819W        W98244  31.364   6.593   3.796
25820W        W98245  12.610   4.739   0.854
25821W        W98246  10.622  14.575   3.130
25822W        W98247   9.752  31.822   4.650
25823W        W98248  34.633   6.966  14.514
25824W        W98249  15.027  10.279   4.997
25825W        W98250  27.169  20.333   1.470
25826W        W98251  36.631  17.566  12.622
25827W        W98252   0.772  37.352   4.255
25828W        W98253   1.219  22.313  10.898
25829W        W98254  33.841  35.401   3.169
25830W        W98255  30.131  11.579  14.744
25831W        W98256   7.387  17.464   3.586
25832W        W98257   5.354  37.923   0.009
25833W        W98258  25.070   8.323   1.575
25834W        W98259  40.038  34.442   2.223
25835W        W98260  37.971   5.619   1.266
25836W        W98261  26.196  12.682   0.061
25837W        W98262   9.410   0.370  11.560
25838W        W98263  29.827   2.922  11.401
25839W        W98264  30.679  38.119   0.223
25840W        W98265  34.308  33.041  14.867
25841W        W98266  38.534  12.720   0.293
25842W        W98267  20.635   4.298  11.869
25843W        W98268  30.893   5.260  11.669
25844W        W98269  33.991  15.847  11.631
25845W        W98270   8.649   7.197   4.543
25846W        W98271  23.934   3.191  10.204
25847W        W98272  39.650  19.745   0.694
25848W        W98273  33.121  11.175   1.640
25849W        W98274  39.993   7.347   0.649
25850W        W98275  41.722  15.720   3.546
25851W        W98276  27.299  36.863   2.836
25852W        W98277  35.105  26.150   3.749
25853W        W98278  24.711  10.216   3.409
25854W        W98279  19.606  40.851   3.690
25855W        W98280  25.526  32.884  12.100
25856W        W98281   4.472  44.741   0.954
25857W        W98282   0.001  13.676  11.136
25858W        W98283   3.449   2.237   2.687
25859W        W98284  33.942  24.237  14.350
25860W        W98285  44.518  37.831  10.284
25861W        W98286  18.202   6.322  11.428
25862W        W98287  36.053  44.402  12.917
25863W        W98288  19.973  31.203   4.222
25864W        W98289  18.587  14.101   5.094
25865W        W98290   2.925  35.528  13.297
25866W        W98291  23.215  18.076   1.319
25867W        W98292  11.607  36.379   3.213
25868W        W98293   9.716  16.089  14.168
25869W        W98294  31.346   9.161   2.754
25870W        W98295  15.852  14.604  11.052
25871W        W98296  31.502  37.481  13.360
25872W        W98297  15.892   6.905  14.567
25873W        W98298  26.602  30.924  11.683
25874W        W98299   4.568   7.633  14.832
25875W        W98300   2.434  37.841  13.382
25876W        W98301  18.024  44.293  10.567
25877W        W98302   6.868  34.585  13.061
25878W        W98303  28.335   9.958   1.238
25879W        W98304   5.857  40.044   2.506
25880W        W98305   1.869  17.015  11.573
25881W        W98306  35.409  16.803  14.433
25882W        W98307  24.993  22.107  14.280
25883W        W98308  30.017   0.276   3.933
25884W        W98309  23.632  29.060  10.644
25885W        W98310  18.858  23.547   3.108
25886W        W98311  25.678   3.261   0.779
25887W        W98312   3.482  19.759   1.630
25888W        W98313  32.683  23.864   3.231
25889W        W98314  42.417  17.095  14.337
25890W        W98315  34.475  37.966   2.213
25891W        W98316  18.270  25.937   1.171
25892W        W98317   2.803   9.628   1.186
25893W        W98318  10.516  13.994   5.063
25894W        W98319  43.744  17.936  13.134
25895W        W98320  39.251  42.463  10.882
25896W        W98321   4.777  20.024   1.499
25897W        W98322  12.084  19.108  14.565
25898W        W98323   0.567  24.428  13.396
25899W        W98324  39.274  38.516  10.673
25900W        W98325  42.907   1.280   1.649
25901W        W98326  16.794  16.581   3.487
25902W        W98327  42.164  13.155  12.147
25903W        W98328  26.580   4.064   0.280
25904W        W98329  44.575   4.587   0.764
25905W        W98330  43.355  38.487   3.312
25906W        W98331   5.828  17.327   4.927
25907W        W98332  41.349   2.655   1.281
25908W        W98333  13.468  43.848   3.167
25909W        W98334   9.128  44.297   2.891
25910W        W98335  21.775  35.093   1.343
25911W        W98336  40.517  44.454   2.617
25912W        W98337  16.680  24.040  13.034
25913W        W98338  24.588  26.082  13.861
25914W        W98339  10.380  30.011  11.266
25915W        W98340   9.932  19.092   3.607
25916W        W98341  26.099  29.184  13.485
25917W        W98342  14.061  43.360   1.402
25918W        W98343  23.766  14.266   4.012
25919W        W98344  41.350  21.457  11.452
25920W        W98345  38.874  30.843   3.328
25921W        W98346  36.407  39.745   2.357
25922W        W98347  26.906  19.030   0.767
25923W        W98348  22.511   6.249  13.586
25924W        W98349  29.102   5.577   1.811
25925W        W98350  20.656  31.105   4.697
25926W        W98351   5.692  29.153  13.165
25927W        W98352   2.990  24.737  12.062
25928W        W98353  32.163  14.241   3.742
25929W        W98354  22.597   4.398  12.018
25930W        W98355   1.740  32.452  11.829
25931W        W98356  32.643  43.273   4.305
25932W        W98357  16.745  22.834  12.758
25933W        W98358  34.994  21.204  14.329
25934W        W98359   5.780   7.708   3.319
25935W        W98360  26.185  18.312   4.567
25936W        W98361  43.394   0.600   1.353
25937W        W98362  38.130  31.735  14.572
25938W        W98363  23.651  28.969  13.428
25939W        W98364   1.675  11.316  14.311
25940W        W98365  32.082  32.846   2.348
25941W        W98366   6.206  33.503  14.471
25942W        W98367  33.355  28.602   0.796
25943W        W98368  15.873  39.056  13.430
25944W        W98369  20.194   7.642  13.819
25945W        W98370  34.458  33.566  10.622
25946W        W98371  28.645  25.248  12.947
25947W        W98372  36.897   3.929   0.309
25948W        W98373   8.979  24.201   4.022
25949W        W98374  43.305  19.610  10.308
25950W        W98375  31.533  32.875  11.243
25951W        W98376  11.307  40.506   0.440
25952W        W98377  38.904  39.645  14.788
25953W        W98378   9.502  10.517  12.422
25954W        W98379  23.653  14.403  11.586
25955W        W98380  29.128  19.347   2.168
25956W        W98381  28.435  42.537   0.408
25957W        W98382   9.625  31.286   4.807
25958W        W98383  44.343  40.071  13.096
25959W        W98384  34.665   9.193   1.313
25960W        W98385  17.188  16.849  14.562
25961W        W98386   7.387  28.696  11.048
25962W        W98387  43.850  26.455   2.345
25963W        W98388  12.330  20.568   2.826
25964W        W98389  39.114  34.483   2.356
25965W        W98390  28.511  44.132   4.121
25966W        W98391  38.434  35.374   3.593
25967W        W98392   9.714   9.367   0.812
25968W        W98393  10.511  32.654  13.842
25969W        W98394  22.179  23.566   3.230
25970W        W98395  21.701  25.732  10.449
25971W        W98396  16.296  29.098  12.574
25972W        W98397  29.460   0.872   4.695
25973W        W98398  42.049  21.045   0.531
25974W        W98399  40.833   9.850  10.749
25975W        W98400  10.554  26.745  12.921
25976W        W98401  11.722  31.934  13.082
25977W        W98402  43.507  31.588   3.805
25978W        W98403  27.688   1.886   4.900
25979W        W98404  18.854   0.474   4.631
25980W        W98405  22.982  38.975  14.345
25981W        W98406  18.254   9.089   3.117
25982W        W98407  22.754  37.562  14.798
25983W        W98408  36.395  19.649  11.043
25984W        W98409  19.114  15.181   3.735
25985W        W98410  20.010  36.653  13.431
25986W        W98411  15.287  23.518   4.476
25987W        W98412  13.311  11.250  12.838
25988W        W98413  20.294  21.891   0.691
25989W        W98414   2.795  24.418   4.836
25990W        W98415  24.281  30.174   3.870
25991W        W98416  11.890   5.197  10.730
25992W        W98417  40.959   9.687  13.619
25993W        W98418   1.229  29.676   0.980
25994W        W98419   9.723  32.891  12.430
25995W        W98420  28.743  31.222   0.802
25996W        W98421   1.259  37.953  12.799
25997W        W98422  11.015  16.699  14.874
25998W        W98423  44.390  10.837  13.686
25999W        W98424  24.607   0.910  12.182
26000W        W98425   4.047  25.563  13.026
26001W        W98426  11.705  13.388   2.789
26002W        W98427  13.637  42.947   0.463
26003W        W98428  16.540  35.579   3.413
26004W        W98429  38.440  14.812   1.439
26005W        W98430   0.926  30.084  11.980
26006W        W98431  43.102  14.896  13.519
26007W        W98432  18.773   9.659  10.662
26008W        W98433  15.801  40.946   0.225
26009W        W98434   4.258  28.078  10.579
26010W        W98435   2.322  14.271  10.687
26011W        W98436  25.225   0.512  12.618
26012W        W98437   8.157   9.919  11.527
26013W        W98438  29.106   8.931   1.374
26014W        W98439  39.693  39.897   4.041
26015W        W98440  36.035  40.545  13.963
26016W        W98441  10.854  39.458  13.853
26017W        W98442  43.714   4.816   2.339
26018W        W98443  12.073   1.212   5.028
26019W        W98444  40.454  23.806   0.799
26020W        W98445  28.205  40.088  12.427
26021W        W98446  29.646  38.903  13.890
26022W        W98447  30.090  32.179   2.203
26023W        W98448  15.042  29.423   0.464
26024W        W98449  23.071   3.432  12.010
26025W        W98450  23.230  18.570  13.923
26026W        W98451   5.796  39.111  13.998
26027W        W98452  38.170  26.348   2.829
26028W        W98453  17.322  12.728  13.873
26029W        W98454  40.948  24.093  12.332
26030W        W98455  24.146   7.875   4.938
26031W        W98456  22.616  43.289   1.931
26032W        W98457  27.727  22.528  10.603
26033W        W98458  27.759  12.232  11.604
26034W        W98459  30.128   9.780  14.442
26035W        W98460  24.795  15.374   2.776
26036W        W98461   2.101  35.324   0.420
26037W        W98462   9.363   4.196  14.001
26038W        W98463   5.969  32.060   1.644
26039W        W98464  23.271  11.148  10.732
26040W        W98465   1.635  31.608  12.371
26041W        W98466  13.672  23.355   0.236
26042W        W98467  19.564   0.006   4.609
26043W        W98468   6.696   5.298   0.678
26044W        W98469   5.674   8.840  11.974
26045W        W98470   4.315   9.196  13.343
26046W        W98471   6.898  43.852  13.783
26047W        W98472  10.201   1.272   0.247
26048W        W98473  13.678  15.093   1.779
26049W        W98474  11.799   4.217   4.571
26050W        W98475  17.341  23.221  11.341
26051W        W98476  18.555  29.015  13.012
26052W        W98477  29.443  28.539  11.066
26053W        W98478   7.121  28.487  11.867
26054W        W98479  18.332   3.606  10.519
26055W        W98480  25.984   4.555   0.698
26056W        W98481  31.585   6.171  13.969
26057W        W98482   0.806  27.033  13.840
26058W        W98483  19.148  34.144   3.224
26059W        W98484  44.367  16.368   1.823
26060W        W98485  30.213   3.724  11.426
26061W        W98486  43.782  36.193  12.058
26062W        W98487  19.243  16.362   2.301
26063W        W98488  21.987  18.561  14.580
26064W        W98489   5.260  29.833  10.867
26065W        W98490   7.189   2.521   3.950
26066W        W98491  12.546  33.068  11.416
26067W        W98492   1.710  22.535   2.265
26068W        W98493   6.664  44.897   3.697
26069W        W98494  41.976  20.408  13.612
26070W        W98495   7.706  34.423   4.076
26071W        W98496  22.545  35.386   0.327
26072W        W98497  19.215  42.447   0.990
26073W        W98498  13.854   2.782   1.307
26074W        W98499  24.587  39.052  10.385
26075W        W98500  41.301  15.538   2.663
26076W        W98501   3.200  37.867   0.357
26077W        W98502   3.246  42.396  14.785
26078W        W98503   3.943  31.914   1.735
26079W        W98504  34.589  40.864   0.205
26080W        W98505   1.443  42.823  14.428
26081W        W98506  24.963  38.045  11.059
26082W        W98507  37.489  10.421   3.193
26083W        W98508  27.799  20.760   4.941
26084W        W98509  14.237  42.070   4.704
26085W        W98510  27.776  16.194  12.508
26086W        W98511  33.186  20.636  14.517
26087W        W98512  42.864   6.866  11.203
26088W        W98513  36.817   8.734  11.918
26089W        W98514  42.264  30.037   3.363
26090W        W98515  20.085  34.801  12.018
26091W        W98516  33.613  44.284   1.998
26092W        W98517   9.867  28.435  14.368
26093W        W98518  24.971   0.310  11.743
26094W        W98519   2.225  35.013  13.388
26095W        W98520  30.529  26.938   3.886
26096W        W98521   3.585  16.250  12.885
26097W        W98522  24.978  23.715  13.022
26098W        W98523  28.569  22.055   4.942
26099W        W98524  20.727  13.375  12.973
26100W        W98525  44.630  17.358  10.078
26101W        W98526   0.471  24.279  12.051
26102W        W98527  10.879  28.686  10.723
26103W        W98528  24.508  19.994   0.406
26104W        W98529  32.159  21.981   0.896
26105W        W98530   7.881   9.821  13.872
26106W        W98531  35.678  31.907   1.752
26107W        W98532  16.739   0.892   1.374
26108W        W98533  42.505  27.561   0.793
26109W        W98534  39.870  20.727   1.676
26110W        W98535  31.240  21.557   3.747
26111W        W98536  29.848   3.428   1.384
26112W        W98537  21.505  35.188  12.549
26113W        W98538  24.591  42.224   2.774
26114W        W98539  13.206  21.085  12.942
26115W        W98540  29.053  43.012  11.508
26116W        W98541   0.376  40.268  10.688
26117W        W98542  41.971   6.644  12.831
26118W        W98543  42.364  31.990  10.934
26119W        W98544  34.827   1.460   4.008
26120W        W98545   4.441  42.281  12.542
26121W        W98546  28.543  18.202   4.407
26122W        W98547  28.993  31.904  13.969
26123W        W98548  25.651  44.884   1.098
26124W        W98549  42.378  28.551  14.097
26125W        W98550  13.765  27.786   2.013
26126W        W98551  20.219   2.314  12.458
26127W        W98552  34.324   9.212  14.813
26128W        W98553   0.405  30.183  14.933
26129W        W98554   9.771  42.676  14.303
26130W        W98555   9.286  43.779  11.488
26131W        W98556  22.684  22.445   1.392
26132W        W98557  10.465  23.736   3.730
26133W        W98558  11.617   5.741   1.414
26134W        W98559  16.777  33.905   4.141
26135W        W98560  38.912  12.834   3.764
26136W        W98561   5.540   3.460   2.196
26137W        W98562  29.527  22.076   2.256
26138W        W98563  21.610  12.185   3.070
26139W        W98564  13.117  14.190  11.851
26140W        W98565  31.538  23.574   3.891
26141W        W98566  12.256  31.002  11.171
26142W        W98567  32.392  23.809   3.667
26143W        W98568  29.853   4.639  11.680
26144W        W98569  22.897   2.224  11.404
26145W        W98570  35.420  37.821   1.656
26146W        W98571  21.109  17.591   4.783
26147W        W98572  13.653  28.083   2.456
26148W        W98573  28.453  34.644  13.819
26149W        W98574  36.013  31.580  11.069
26150W        W98575  20.389  21.385  14.368
26151W        W98576  15.691  42.942  11.678
26152W        W98577   4.020  28.911   0.117
26153W        W98578  22.136   6.454  14.541
26154W        W98579   2.153  30.164   0.303
26155W        W98580  37.466  18.496   3.153
26156W        W98581  42.395  31.478   2.065
26157W        W98582   8.783  26.496   3.111
26158W        W98583  36.904   6.608   2.938
26159W        W98584  34.470  15.652   0.452
26160W        W98585  29.576   7.787  13.798
26161W        W98586  11.730  19.064  10.698
26162W        W98587  23.001   1.845   1.217
26163W        W98588   7.471  38.562   0.454
26164W        W98589  44.967  42.562  10.662
26165W        W98590  12.725  33.053  10.920
26166W        W98591  12.645  34.378   4.008
26167W        W98592  18.547   1.321  11.547
26168W        W98593  33.893   6.517  11.495
26169W        W98594   6.314   2.120   0.181
26170W        W98595  21.556  37.618   3.030
26171W        W98596  23.576   7.451  12.722
26172W        W98597  16.228  10.387   0.469
26173W        W98598  18.342  38.763  10.270
26174W        W98599   1.985   5.129   3.585
26175W        W98600  12.165  33.015   1.406
26176W        W98601   1.382  34.644  11.612
26177W        W98602  16.765  41.527  11.499
26178W        W98603  21.234  41.056   3.625
26179W        W98604   3.500  32.647   3.093
26180W        W98605   9.607  44.934  14.873
26181W        W98606  43.694  40.655   2.924
26182W        W98607  27.506  21.066   0.864
26183W        W98608  10.058  42.675   3.172
26184W        W98609   1.012  30.416  14.542
26185W        W98610  35.768  24.911  14.265
26186W        W98611  29.996  35.913  14.760
26187W        W98612  40.655  29.779   1.852
26188W        W98613  22.684  35.971  14.493
26189W        W98614  14.135  25.595  10.624
26190W        W98615  16.505  15.054   3.660
26191W        W98616  34.480  18.624  13.852
26192W        W98617  37.320   9.446  10.682
26193W        W98618   4.306  24.483   0.781
26194W        W98619  29.136  16.706  11.188
26195W        W98620  19.625  16.320  13.656
26196W        W98621   6.255  31.336   3.309
26197W        W98622  44.800   0.306   0.410
26198W        W98623   2.120  35.884   4.676
26199W        W98624  44.239   1.164   2.529
26200W        W98625  41.832   4.308   1.664
26201W        W98626   8.004  22.112   3.694
26202W        W98627   7.207  40.327  12.327
26203W        W98628  26.950   6.964   4.037
26204W        W98629  44.440  42.784   5.014
26205W        W98630  16.764   4.167   4.626
26206W        W98631  25.333  40.272   2.327
26207W        W98632  21.021  37.345  12.005
26208W        W98633  44.260  15.316  11.601
26209W        W98634  26.261  20.580  14.453
26210W        W98635  31.733   2.670  10.978
26211W        W98636  12.425  36.593  14.502
26212W        W98637  10.791   9.203  11.927
26213W        W98638  23.823   7.200   4.726
26214W        W98639  22.424  10.455   4.107
26215W        W98640  24.156  41.212   3.606
26216W        W98641  30.426  39.399   0.708
26217W        W98642  19.536   8.918  13.783
26218W        W98643  32.935  43.408  14.021
26219W        W98644  29.397  33.211  14.990
26220W        W98645  30.717  15.125  10.799
26221W        W98646   4.220  31.389   0.801
26222W        W98647  41.973  22.419  13.415
26223W        W98648   0.654  43.473  13.850
26224W        W98649  27.092  44.301   0.349
26225W        W98650  40.533   8.815   5.011
26226W        W98651  29.463  24.562  13.745
26227W        W98652   3.164   5.782   4.785
26228W        W98653  16.510   6.540   3.286
26229W        W98654  29.028   6.660  13.416
26230W        W98655  44.729  39.552   1.386
26231W        W98656  17.430  22.736  11.135
26232W        W98657   3.172   1.398   4.250
26233W        W98658  32.730   2.556  12.583
26234W        W98659   8.931   3.034  13.008
26235W        W98660  17.100  42.843  11.384
26236W        W98661  19.118   0.419  14.970
26237W        W98662  36.919  29.530  13.404
26238W        W98663  25.737   6.373   1.935
26239W        W98664  23.224  40.388  14.054
26240W        W98665  12.561   5.318   2.482
26241W        W98666  41.796  23.206  11.928
26242W        W98667  26.698   7.815  13.389
26243W        W98668  41.847  33.151  11.579
26244W        W98669  25.485  26.438   1.564
26245W        W98670   4.341  31.002   0.391
26246W        W98671  18.210  33.188  14.025
26247W        W98672  20.636  19.604   1.898
26248W        W98673  39.477  23.536  10.525
26249W        W98674  28.226  30.985  14.446
26250W        W98675  11.310  38.039  11.096
26251W        W98676  44.304  24.606  14.842
26252W        W98677  15.620  15.588  11.286
26253W        W98678  16.773   5.272  14.895
26254W        W98679   9.073  38.011  12.826
26255W        W98680  16.731  37.657   3.030
26256W        W98681  16.208   6.130  14.295
26257W        W98682  24.710  33.323  12.054
26258W        W98683  33.494  32.588   0.573
26259W        W98684  31.034  19.613   0.004
26260W        W98685   5.639   3.227  12.128
26261W        W98686  37.432  30.174   1.133
26262W        W98687   8.082  17.214   3.786
26263W        W98688  41.726  16.603   2.836
26264W        W98689   7.223  37.357  13.920
26265W        W98690  40.433  25.766  10.930
26266W        W98691  29.685   5.413   4.154
26267W        W98692  17.282  18.761   0.341
26268W        W98693   3.728  35.087   4.464
26269W        W98694  13.101  14.156   0.828
26270W        W98695  34.542  19.690  14.972
26271W        W98696  29.655  37.404   3.793
26272W        W98697  30.513  11.887   4.179
26273W        W98698  21.867   7.671  12.518
26274W        W98699  40.279   4.739  11.336
26275W        W98700  31.986  24.202  10.634
26276W        W98701  31.006  35.616  11.968
26277W        W98702  16.005  42.239   4.088
26278W        W98703  35.701  31.729   3.495
26279W        W98704  19.115  35.518   2.849
26280W        W98705  21.185  40.046  10.691
26281W        W98706  31.404  14.387  11.577
26282W        W98707  25.760  11.169   0.835
26283W        W98708  44.817   6.119   1.929
26284W        W98709  37.903  29.101   2.204
26285W        W98710  36.838  20.598  14.335
26286W        W98711  17.517   8.750   3.570
26287W        W98712  40.889  28.591  14.384
26288W        W98713  30.987  20.513   4.266
26289W        W98714  28.752  29.428   1.656
26290W        W98715  44.090   9.611   4.515
26291W        W98716   5.563  18.295   3.718
26292W        W98717  11.658  19.159   2.444
26293W        W98718  31.830  17.346   1.316
26294W        W98719  24.677   1.033   0.761
26295W        W98720   2.810  12.669   1.319
26296W        W98721  25.444  19.267  13.467
26297W        W98722  34.299   1.614  14.394
26298W        W98723  26.617  15.056   1.960
26299W        W98724   9.152  16.522  12.641
26300W        W98725  24.025  22.990  12.107
26301W        W98726  30.410  29.366  14.585
26302W        W98727  40.497  44.307   4.497
26303W        W98728  10.650  30.206   3.334
26304W        W98729  12.950  18.253   1.264
26305W        W98730  20.812  36.409   1.209
26306W        W98731  20.705  43.018   1.800
26307W        W98732  33.629   4.250   2.224
26308W        W98733  30.121  32.966  11.063
26309W        W98734  10.416  11.924  13.343
26310W        W98735  29.746   7.225   2.873
26311W        W98736  23.868  13.354  11.496
26312W        W98737  39.282  32.408   2.747
26313W        W98738  31.186  27.716  10.574
26314W        W98739  44.726  26.206   2.854
26315W        W98740  18.300  35.050  11.584
26316W        W98741  20.723  42.710   2.233
26317W        W98742  43.975   1.967  13.496
26318W        W98743   2.252  26.116  14.496
26319W        W98744  36.487  34.701  12.806
26320W        W98745  32.039  39.265  11.616
26321W        W98746  21.357  12.968   2.279
26322W        W98747  30.640  18.134  11.239
26323W        W98748  32.968  28.906   2.814
26324W        W98749  22.185  15.307  11.325
26325W        W98750  39.385  13.316  11.109
26326W        W98751   1.813  38.771   0.750
26327W        W98752  11.259  40.907   0.089
26328W        W98753  34.563  31.955   0.759
26329W        W98754   5.616  25.171  14.421
26330W        W98755  30.396   3.787  13.727
26331W        W98756  21.560  36.081  11.985
26332W        W98757  10.776  13.470   3.719
26333W        W98758  42.043  14.261  12.682
26334W        W98759  39.836   2.453  12.928
26335W        W98760   6.218  14.021   3.037
26336W        W98761  37.283  40.153   1.861
26337W        W98762   6.425  14.222  11.651
26338W        W98763   9.210  44.278  12.920
26339W        W98764  21.235  18.509  13.865
26340W        W98765  20.053   8.320   1.471
26341W        W98766  37.119  29.009   4.465
26342W        W98767   7.176  36.105   2.860
26343W        W98768  21.821  19.274  14.947
26344W        W98769  38.840  27.373  14.496
26345W        W98770  36.306  40.444   3.703
26346W        W98771  12.411  24.668   2.834
26347W        W98772   5.715   9.333   2.584
26348W        W98773   3.286  13.861   1.428
26349W        W98774  18.610   9.493  13.424
26350W        W98775  18.571  27.683   4.188
26351W        W98776  35.419   6.378  12.376
26352W        W98777   9.371  19.488  14.662
26353W        W98778  44.272  31.600   1.415
26354W        W98779  42.420  44.773   2.432
26355W        W98780  36.032  42.111   3.975
26356W        W98781  43.258   9.808   4.087
26357W        W98782  40.273   6.547   1.457
26358W        W98783  38.781  10.171   5.026
26359W        W98784  38.284   6.692  12.893
26360W        W98785  38.950  15.282   1.908
26361W        W98786  14.801  36.989  10.751
26362W        W98787  42.483  19.745  14.891
26363W        W98788   0.667   9.687   2.337
26364W        W98789  12.715  40.520  14.311
26365W        W98790   0.542  26.696  13.010
26366W        W98791  39.422  11.307   1.934
26367W        W98792  43.196  12.232  13.633
26368W        W98793  23.819  13.689  14.321
26369W        W98794   2.207  13.776   3.205
26370W        W98795  10.558   2.875   1.828
26371W        W98796  39.468  31.348   2.714
26372W        W98797  21.325   4.749   1.844
26373W        W98798  25.448   1.001   0.249
26374W        W98799  29.390   5.159   3.200
26375W        W98800   7.755   6.258   3.151
26376W        W98801   3.867   9.324  12.025
26377W        W98802  40.388  37.417  11.232
26378W        W98803  25.499  23.934   2.156
26379W        W98804  19.208  39.631   0.795
26380W        W98805  31.821  41.844   2.928
26381W        W98806  17.096  28.536   1.712
26382W        W98807  11.303  18.779   3.235
26383W        W98808   3.368  10.632   4.457
26384W        W98809  12.095  28.146  14.992
26385W        W98810  23.683   1.281   4.560
26386W        W98811   2.719   5.724   3.973
26387W        W98812   9.443  11.780   3.616
26388W        W98813   1.439   8.060  11.102
26389W        W98814  18.615  20.053  14.015
26390W        W98815  18.881   3.668  12.426
26391W        W98816  19.443  18.682   4.187
26392W        W98817   2.267  41.528   1.764
26393W        W98818  11.621  17.225   5.118
26394W        W98819  34.411  34.986  13.096
26395W        W98820  37.620   5.401   0.350
26396W        W98821  38.841   6.634   0.226
26397W        W98822   1.500   5.200  14.035
26398W        W98823   7.993  44.979   1.331
26399W        W98824  41.134  16.408   3.709
26400W        W98825  27.696  32.942  10.900
26401W        W98826  31.669  22.019   2.724
26402W        W98827  40.761  29.120  11.651
26403W        W98828  32.221  17.323   3.299
26404W        W98829  20.565  22.960  13.042
26405W        W98830   7.443  39.996   0.763
26406W        W98831  18.234  24.273  12.856
26407W        W98832   8.389  43.468  12.587
26408W        W98833  38.090  29.601   2.033
26409W        W98834  14.109   0.445   2.602
26410W        W98835  19.184  39.893  12.499
26411W        W98836  16.979   0.047   3.655
26412W        W98837  38.449  38.001  10.568
26413W        W98838   2.034  16.802  12.427
26414W        W98839  31.560  35.111   4.770
26415W        W98840  44.279  18.238  12.551
26416W        W98841  38.796  20.980   3.174
26417W        W98842   4.927  43.436   4.025
26418W        W98843  34.141   1.528  12.538
26419W        W98844  26.091  30.158  14.500
26420W        W98845  14.174  40.144   1.102
26421W        W98846  30.037  37.314  14.450
26422W        W98847  34.983  32.411  14.094
26423W        W98848  19.867  36.962  10.559
26424W        W98849  44.805  35.836   4.396
26425W        W98850   8.429  34.477  14.479
26426W        W98851  17.235  24.156  11.351
26427W        W98852  30.727   2.337   4.545
26428W        W98853   0.705  38.584   3.105
26429W        W98854  44.297  29.397   3.690
26430W        W98855  33.856   5.278  13.065
26431W        W98856  18.303  19.158  13.515
26432W        W98857   8.268  28.492  14.004
26433W        W98858   9.146   9.861  11.694
26434W        W98859   6.753   9.622  14.323
26435W        W98860  19.775  32.338   0.460
26436W        W98861  42.095   8.777  12.120
26437W        W98862  14.767   5.813  10.499
26438W        W98863   0.345   6.678   0.060
26439W        W98864  11.772  29.997   3.335
26440W        W98865  41.988  38.038  11.111
26441W        W98866   3.800  27.955  12.643
26442W        W98867  21.563  38.863   0.989
26443W        W98868   0.146  10.209  14.927
26444W        W98869  26.139   8.824   1.256
26445W        W98870  23.739   3.381  14.646
26446W        W98871  43.356  27.317   3.645
26447W        W98872  17.576  32.516   3.758
26448W        W98873  18.322  36.765  12.944
26449W        W98874  32.964   4.654   4.104
26450W        W98875  40.613  10.301  12.085
26451W        W98876  17.818   7.898  13.922
26452W        W98877  40.403  19.534  14.494
26453W        W98878  25.643  29.118   3.673
26454W        W98879  37.983  16.835  13.325
26455W        W98880   3.459  27.006  14.373
26456W        W98881  41.995  24.039   1.305
26457W        W98882  36.639  37.818   4.134
26458W        W98883  36.827   2.377   4.167
26459W        W98884  16.452  31.137  10.711
26460W        W98885   3.253   8.137  11.652
26461W        W98886  35.829  22.136   2.397
26462W        W98887   8.947  10.258  12.407
26463W        W98888  25.448  16.260  11.968
26464W        W98889  11.153  16.728  10.287
26465W        W98890   5.063  12.174  14.043
26466W        W98891  11.322  40.486  12.052
26467W        W98892  34.376  41.734  12.728
26468W        W98893   0.602   7.426  14.029
26469W        W98894  35.004  13.864   2.303
26470W        W98895   6.640   2.773  13.586
26471W        W98896  11.907  10.230   3.291
26472W        W98897   4.426  32.995   0.321
26473W        W98898  12.917  44.979   1.713
26474W        W98899  18.551  13.463  12.560
26475W        W98900  24.043  18.242  13.122
26476W        W98901  40.821   7.338   1.850
26477W        W98902  41.620  33.229   0.146
26478W        W98903  25.065   1.735  11.456
26479W        W98904  18.500  14.169   4.101
26480W        W98905  30.131  13.081   1.234
26481W        W98906  23.676  34.699   0.404
26482W        W98907  36.909  18.751   4.212
26483W        W98908  38.001   4.900  12.678
26484W        W98909  10.243  14.064  11.777
26485W        W98910  41.570  25.633   2.439
26486W        W98911   5.255   0.075  14.520
26487W        W98912  23.629  18.844   3.194
26488W        W98913  21.265  20.802  14.367
26489W        W98914  29.414  30.635   2.285
26490W        W98915  24.251   5.095  13.864
26491W        W98916   1.699   0.723  13.052
26492W        W98917  29.561  19.712  12.842
26493W        W98918  42.894  16.048   3.369
26494W        W98919   1.962  21.253  14.470
26495W        W98920  41.639   6.799  13.947
26496W        W98921  13.341  17.838  13.396
26497W        W98922  12.163  24.382   2.157
26498W        W98923  33.030   5.979  14.979
26499W        W98924  21.126  23.979  11.707
26500W        W98925  44.467  22.714   1.584
26501W        W98926   1.417  19.351   1.144
26502W        W98927  19.751  41.107   4.111
26503W        W98928  36.858  38.630   3.892
26504W        W98929  39.610   1.714  11.225
26505W        W98930  24.615  20.006  14.747
26506W        W98931  16.336  24.370  14.965
26507W        W98932  12.245   0.342  11.920
26508W        W98933  19.208  15.020   1.079
26509W        W98934  11.705   9.326   2.711
26510W        W98935  20.436  39.507  14.180
26511W        W98936  35.844  14.737   2.431
26512W        W98937  24.682   5.779  12.907
26513W        W98938  33.425  29.142   0.053
26514W        W98939  11.268  33.957   3.722
26515W        W98940  38.859   3.272   3.663
26516W        W98941  24.928   7.132  13.903
26517W        W98942   1.919  16.260   0.055
26518W        W98943   8.687   5.731   4.555
26519W        W98944  11.126   1.429   2.723
26520W        W98945  37.341  44.975   1.658
26521W        W98946  12.249  22.383   1.336
26522W        W98947  34.295   1.937  13.757
26523W        W98948   8.244  21.301  14.223
26524W        W98949  36.075  16.752  10.514
26525W        W98950   9.844   1.585  12.596
26526W        W98951  15.677  34.559   5.425
26527W        W98952  12.315   4.282   4.540
26528W        W98953  22.007  40.932  13.832
26529W        W98954  39.830  27.642   1.615
26530W        W98955  10.702  15.767  13.910
26531W        W98956   2.491  34.984  14.415
26532W        W98957  31.503  17.964   0.772
26533W        W98958  22.006   8.684   0.313
26534W        W98959  15.863  19.068  14.446
26535W        W98960  31.980  31.434  11.921
26536W        W98961  30.629   1.073  12.577
26537W        W98962  20.956  42.054  12.952
26538W        W98963  43.766  37.926  14.735
26539W        W98964  42.344   1.260   0.321
26540W        W98965  41.874  23.155   3.988
26541W        W98966  37.965   5.853   3.282
26542W        W98967  42.552  28.164   3.402
26543W        W98968  18.702   4.372  13.579
26544W        W98969  10.071  37.659  14.263
26545W        W98970  44.220  30.235  12.297
26546W        W98971  34.418  41.374   3.354
26547W        W98972   4.841  41.894   1.385
26548W        W98973  44.562  34.910  14.349
26549W        W98974  44.175  23.310  11.421
26550W        W98975  16.588  14.690   3.237
26551W        W98976  39.508  20.226  13.554
26552W        W98977  33.083  32.012  13.877
26553W        W98978  21.205  35.460   3.079
26554W        W98979  31.988  20.845   3.343
26555W        W98980  15.050  22.598  14.631
26556W        W98981  26.568  28.547  11.946
26557W        W98982   1.351  10.119   4.605
26558W        W98983  40.941  36.208  13.406
26559W        W98984  23.430  35.455   0.971
26560W        W98985  29.965  33.320   4.515
26561W        W98986  23.735  12.271  14.115
26562W        W98987   1.407  14.552  11.334
26563W        W98988  16.016  44.732  12.562
26564W        W98989   2.748  25.517  12.553
26565W        W98990   2.510  43.950  14.540
26566W        W98991  29.908   2.255  14.423
26567W        W98992  37.495  27.505  12.507
26568W        W98993  43.498  20.202  12.171
26569W        W98994  44.750   2.522   2.725
26570W        W98995  13.444  20.724  12.370
26571W        W98996  14.141  16.951  12.320
26572W        W98997  24.452   1.926   3.741
26573W        W98998  34.951  35.001  13.138
26574W        W98999  30.977   5.727   3.813
26575W        W99000  30.031  30.956  12.842
26576W        W99001  20.730  20.107  14.416
26577W        W99002   3.865   0.888   1.486
26578W        W99003  12.253  12.630  12.579
26579W        W99004   1.225   4.478   4.126
26580W        W99005  40.563  11.688  11.372
26581W        W99006  11.893  39.855   3.410
26582W        W99007  44.551   0.892   4.662
26583W        W99008   5.934   1.149   2.835
26584W        W99009  38.366  35.156  11.343
26585W        W99010  35.186  16.328   2.767
26586W        W99011   9.178   9.918   2.704
26587W        W99012  43.537  42.581   2.822
26588W        W99013  33.968  24.003  11.089
26589W        W99014   5.224  24.655  13.110
26590W        W99015  23.599  11.373  11.517
26591W        W99016  40.363   8.592   0.232
26592W        W99017  16.908   2.922   3.775
26593W        W99018  15.740   5.239  14.494
26594W        W99019  42.428  43.531  14.306
26595W        W99020  24.965  34.541   1.601
26596W        W99021  43.917  30.139  10.575
26597W        W99022  22.676   0.372  13.745
26598W        W99023  30.562   5.825  10.745
26599W        W99024  26.674  25.276   1.269
26600W        W99025  37.810   7.733   3.213
26601W        W99026  29.143  13.688  12.158
26602W        W99027  35.522  38.212  11.005
26603W        W99028  25.954  26.210  11.999
26604W        W99029  33.354  27.130  12.973
26605W        W99030  14.688  38.557  12.023
26606W        W99031  37.825  13.937  11.668
26607W        W99032  36.611   7.177  14.489
26608W        W99033  24.465  14.922  11.176
26609W        W99034  19.620  20.282   3.578
26610W        W99035  12.892  34.402  12.370
26611W        W99036   8.666  38.534   3.627
26612W        W99037  30.634  13.380  11.565
26613W        W99038  16.699  35.027  10.360
26614W        W99039  38.870   0.231  10.733
26615W        W99040  14.026  36.840  13.262
26616W        W99041  33.316   5.530   0.004
26617W        W99042   6.821  29.958  12.944
26618W        W99043  44.941  36.625   1.256
26619W        W99044   5.732  19.517   2.838
26620W        W99045  41.235  17.521  12.075
26621W        W99046  23.169  15.341   3.232
26622W        W99047  24.466  21.308   3.177
26623W        W99048   8.221  36.506   3.895
26624W        W99049  26.192  43.987   1.129
26625W        W99050  39.483   4.424  13.024
26626W        W99051   2.205  25.375   3.359
26627W        W99052  30.922  27.003   4.710
26628W        W99053  17.341  42.444  14.437
26629W        W99054   5.653  14.631  11.508
26630W        W99055   8.427  41.572   4.600
26631W        W99056   9.753  38.028   1.842
26632W        W99057  41.327  40.748   1.884
26633W        W99058  30.909  34.594   0.863
26634W        W99059  34.541  24.932   1.186
26635W        W99060  41.965  40.112  14.995
26636W        W99061   8.735  26.567  10.862
26637W        W99062  44.439  15.782   0.928
26638W        W99063  32.295  17.310  11.141
26639W        W99064  12.116  24.002  13.556
26640W        W99065  17.742  35.220   3.234
26641W        W99066  35.408   1.423   2.791
26642W        W99067   3.757  17.245   0.362
26643W        W99068  35.094  22.097  13.390
26644W        W99069  35.261  21.729   0.489
26645W        W99070  28.879  30.438  12.388
26646W        W99071  43.709   6.432  13.372
26647W        W99072  44.169  39.382   4.108
26648W        W99073  21.512  43.963  14.575
26649W        W99074  22.139  35.454   1.555
26650W        W99075   2.909   3.011  12.684
26651W        W99076  11.073  15.109   2.213
26652W        W99077  34.670  33.198   3.161
26653W        W99078  32.351  44.414  11.435
26654W        W99079  17.995  19.406  11.540
26655W        W99080  33.392  16.678  11.655
26656W        W99081   1.938  29.455  12.081
26657W        W99082  27.901  38.872   0.715
26658W        W99083   7.815  42.744   0.531
26659W        W99084  40.602   4.441   4.119
26660W        W99085  28.228  12.930  11.380
26661W        W99086  34.120  40.513  12.930
26662W        W99087   4.783  36.995   1.616
26663W        W99088  18.648  29.484   2.872
26664W        W99089  21.077  17.311  11.781
26665W        W99090  34.638  26.449  11.080
26666W        W99091  35.377   6.640   2.229
26667W        W99092  38.419   0.419  10.601
26668W        W99093  19.164   8.222   0.124
26669W        W99094  37.409   6.374   0.309
26670W        W99095  11.073  23.611  12.610
26671W        W99096  42.963  30.968   5.054
26672W        W99097  32.137  42.383  12.526
26673W        W99098  20.563  43.808   1.439
26674W        W99099  13.636  44.018  11.630
26675W        W99100  39.072  19.117  14.416
26676W        W99101   5.094  35.435   2.425
26677W        W99102   3.859  21.540   0.284
26678W        W99103  20.894  26.549  10.721
26679W        W99104  18.015   6.775   3.950
26680W        W99105   9.197  41.496  13.147
26681W        W99106  28.739   4.185  12.959
26682W        W99107  28.498   4.365   0.866
26683W        W99108  29.534  20.236  14.010
26684W        W99109  44.225  43.250   4.143
26685W        W99110   5.755  21.076   4.058
26686W        W99111  29.599  41.470  12.902
26687W        W99112  11.645   9.498  10.707
26688W        W99113  40.459   4.327   2.323
26689W        W99114  25.475   6.112   4.196
26690W        W99115  25.097   4.391   0.638
26691W        W99116   6.150  32.476  14.803
26692W        W99117  40.904  21.895   1.671
26693W        W99118  37.394   4.786   2.755
26694W        W99119  17.190  21.313  10.369
26695W        W99120  24.572  22.079  14.595
26696W        W99121   3.770  32.813  11.520
26697W        W99122   5.388  40.511  14.519
26698W        W99123  35.454  21.553  13.106
26699W        W99124  21.795  31.990   0.426
26700W        W99125  11.674  16.670   0.428
26701W        W99126  15.694  42.844  13.805
26702W        W99127  36.119  38.619   3.178
26703W        W99128  12.289   7.922   2.743
26704W        W99129  25.384  37.327  12.456
26705W        W99130  31.533   3.632  11.249
26706W        W99131  21.562  38.966  11.284
26707W        W99132   5.177   0.806   3.136
26708W        W99133   6.275  32.528  12.577
26709W        W99134  10.634  16.653   4.257
26710W        W99135   2.306  38.556  13.758
26711W        W99136  35.790  34.003   4.569
26712W        W99137   5.785  22.647  12.453
26713W        W99138  33.105   6.974   4.188
26714W        W99139  37.001  23.847   3.877
26715W        W99140  10.924  43.784   3.203
26716W        W99141  25.371  20.938   3.199
26717W        W99142  24.945  41.688  13.123
26718W        W99143  17.853   3.009   1.298
26719W        W99144   0.234   0.167   3.815
26720W        W99145  38.925  39.252   0.179
26721W        W99146  41.662  13.812  11.538
26722W        W99147  14.502  13.987   5.078
26723W        W99148  36.114  18.090   3.927
26724W        W99149  40.251   3.507  14.337
26725W        W99150  42.989   4.444   0.810
26726W        W99151  44.942  40.851   4.020
26727W        W99152  30.607   8.420   3.993
26728W        W99153   8.641  37.899  12.036
26729W        W99154  17.520  43.666  11.627
26730W        W99155  39.485  15.765   4.069
26731W        W99156  19.586   3.690   5.100
26732W        W99157  15.218  31.413   3.838
26733W        W99158  32.504  16.164   1.842
26734W        W99159  18.828  41.903   2.265
26735W        W99160  42.685   3.879  12.952
26736W        W99161  14.855  19.692  11.196
26737W        W99162  24.049  13.802   3.598
26738W        W99163  12.375   3.696   0.464
26739W        W99164  40.812   6.724  10.492
26740W        W99165  24.710  18.258   4.565
26741W        W99166  33.911   7.624   2.709
26742W        W99167   0.950  23.753   1.624
26743W        W99168  35.614  30.792   4.821
26744W        W99169  29.741  33.348  14.519
26745W        W99170  30.712  16.215   3.729
26746W        W99171  34.265   5.493   2.424
26747W        W99172  30.161  19.224  11.548
26748W        W99173  20.269  30.153  12.453
26749W        W99174  32.719  42.066  14.610
26750W        W99175  31.667  25.259  11.897
26751W        W99176  12.596  26.384   3.359
26752W        W99177  28.530  40.088  11.127
26753W        W99178  29.971  20.662   4.494
26754W        W99179  14.786  18.558  11.944
26755W        W99180  39.097  10.769  13.503
26756W        W99181   6.736  19.554  14.489
26757W        W99182   0.702  14.523  13.494
26758W        W99183  27.020  37.864   0.740
26759W        W99184  31.668  29.199  13.622
26760W        W99185  39.120  24.433   3.873
26761W        W99186  38.503   8.987  13.445
26762W        W99187  23.548  38.903   2.981
26763W        W99188  22.246  19.793  13.048
26764W        W99189   8.411  29.507  14.522
26765W        W99190  31.924   2.022  14.772
26766W        W99191  38.322  34.496   0.325
26767W        W99192  44.021  38.155   0.198
26768W        W99193  10.879  21.977  14.321
26769W        W99194  29.190  26.560   1.821
26770W        W99195  33.358  38.969  10.640
26771W        W99196  40.069  36.435   4.208
26772W        W99197  34.913   3.888   3.605
26773W        W99198  13.219  43.364   4.222
26774W        W99199  42.874  30.134  11.942
26775W        W99200  15.360  34.396   2.759
26776W        W99201  39.695  18.730  14.683
26777W        W99202  41.984   4.797   1.777
26778W        W99203   9.051  14.016   3.245
26779W        W99204   3.836   1.905   2.744
26780W        W99205  29.117  10.914   1.946
26781W        W99206   4.999   5.273  12.447
26782W        W99207  13.276   4.015  10.565
26783W        W99208  40.819   9.319  11.899
26784W        W99209  37.860  37.017   3.767
26785W        W99210  38.967  40.597  11.656
26786W        W99211  32.841  25.160   4.524
26787W        W99212  28.568  22.848   5.063
26788W        W99213  37.118   2.405   2.905
26789W        W99214  28.015  14.253  14.971
26790W        W99215  24.725  19.030   0.782
26791W        W99216  27.917  43.269  14.449
26792W        W99217  32.442  13.319   4.773
26793W        W99218   5.486  15.200  13.098
26794W        W99219   3.239  41.814   3.476
26795W        W99220   0.198  42.424   1.845
26796W        W99221  26.200  14.184   3.560
26797W        W99222  35.674  12.346  11.149
26798W        W99223  38.859  14.639  11.572
26799W        W99224  44.093  20.393   2.263
26800W        W99225  42.232  17.783  11.726
26801W        W99226  15.153  15.589  13.412
26802W        W99227   8.397  26.416   1.362
26803W        W99228  21.051   1.585  11.523
26804W        W99229  31.869  13.999   4.945
26805W        W99230  15.758  31.286   2.213
26806W        W99231  26.398  20.215   2.704
26807W        W99232   5.843  18.782  13.775
26808W        W99233  24.023  42.694  14.730
26809W        W99234  26.785  16.424  14.403
26810W        W99235  26.494  28.230   4.394
26811W        W99236  41.433   6.189   2.628
26812W        W99237  12.184   2.917  14.824
26813W        W99238   1.689   0.222   4.207
26814W        W99239  44.984   8.381   0.267
26815W        W99240  25.235  16.695   2.581
26816W        W99241  34.415  42.255  14.858
26817W        W99242   5.061   5.949  14.868
26818W        W99243  27.457   4.930   4.193
26819W        W99244  40.003  25.495   3.325
26820W        W99245   4.925   8.753  10.587
26821W        W99246  40.285  13.908   0.793
26822W        W99247   4.884  20.139   5.142
26823W        W99248   4.453  29.240  12.625
26824W        W99249  40.075  17.205  14.478
26825W        W99250  19.175  24.240   0.404
26826W        W99251  21.693  21.041  11.586
26827W        W99252  38.945  37.815  10.095
26828W        W99253  11.715   1.281  12.088
26829W        W99254  39.403  37.675   2.705
26830W        W99255  19.710  10.194  14.229
26831W        W99256   1.750  12.708  11.497
26832W        W99257  38.530  44.002  14.844
26833W        W99258  32.810   3.815   0.368
26834W        W99259  42.023  27.731   0.702
26835W        W99260  36.435  33.883  11.332
26836W        W99261  38.177  18.399   1.905
26837W        W99262  22.166  22.742  11.087
26838W        W99263  41.301   1.960   0.770
26839W        W99264  18.027   8.561  14.909
26840W        W99265  24.038  38.839   5.132
26841W        W99266  35.554  14.596   4.681
26842W        W99267  34.490  41.903   3.082
26843W        W99268  12.284   2.429  12.848
26844W        W99269  11.305  20.197  11.087
26845W        W99270  24.057   1.866   3.185
26846W        W99271  12.730  26.630  11.444
26847W        W99272   8.232   6.700   2.367
26848W        W99273  11.928  23.914   4.815
26849W        W99274  25.046  30.977   1.901
26850W        W99275   8.981  28.891   1.089
26851W        W99276  27.714   4.397  12.250
26852W        W99277  21.553   2.009  12.583
26853W        W99278  10.194  16.526  11.728
26854W        W99279  16.020  35.014  13.412
26855W        W99280  11.794   0.853   1.097
26856W        W99281  38.253  22.213   2.266
26857W        W99282  39.097  44.416  14.126
26858W        W99283  21.583  37.314   3.820
26859W        W99284  10.830  28.459   0.599
26860W        W99285  15.252  16.590  13.415
26861W        W99286  43.844  19.950   5.120
26862W        W99287  32.406  23.366  10.468
26863W        W99288  34.646   5.288  12.829
26864W        W99289  41.909  44.003  14.866
26865W        W99290  11.361   4.325  13.280
26866W        W99291   4.823  22.724   4.361
26867W        W99292  28.569  39.582  11.989
26868W        W99293  42.946  36.802   1.762
26869W        W99294  10.268  18.087   2.498
26870W        W99295  39.302  25.973   1.718
26871W        W99296  17.529  16.111  10.757
26872W        W99297  27.371  21.399   9.872
26873W        W99298  41.868  44.701  11.199
26874W        W99299  41.808  43.748   0.313
26875W        W99300   2.954  32.378  11.220
26876W        W99301   7.402   0.576  10.758
26877W        W99302  38.031  26.427  13.409
26878W        W99303  19.079  37.881   2.249
26879W        W99304  32.563  24.228  11.642
26880W        W99305  35.082   9.955   3.192
26881W        W99306   8.356   0.739  12.175
26882W        W99307  17.268  32.626  12.795
26883W        W99308   0.350  41.816  13.019
26884W        W99309  34.663  28.717  12.887
26885W        W99310   3.407  27.126  11.039
26886W        W99311   7.457  42.751  12.418
26887W        W99312  34.131  33.853  12.402
26888W        W99313  39.267  36.940  14.509
26889W        W99314   6.991  37.394  14.824
26890W        W99315  22.235  27.673   4.526
26891W        W99316  40.732  14.878   0.262
26892W        W99317   5.826   0.964   2.320
26893W        W99318  31.562   4.797   4.211
26894W        W99319   4.701   7.062  11.567
26895W        W99320  26.755  22.674  14.510
26896W        W99321  24.504  14.146  14.428
26897W        W99322  13.694  19.655   1.373
26898W        W99323  32.071  34.979   0.279
26899W        W99324  11.143   7.689   4.103
26900W        W99325  13.845  36.109  14.008
26901W        W99326   1.733   8.079   3.612
26902W        W99327   8.193  36.052   4.959
26903W        W99328  41.363  15.511   3.862
26904W        W99329  43.050   0.880  11.122
26905W        W99330  22.775  23.754   4.050
26906W        W99331  42.031  30.602   0.160
26907W        W99332  20.236   8.718  13.843
26908W        W99333  35.382  15.083   1.890
26909W        W99334  33.153  17.679   3.784
26910W        W99335  35.098  22.214  10.803
26911W        W99336  13.293  16.266   3.607
26912W        W99337  43.034  20.239   0.810
26913W        W99338  40.537   0.528  11.624
26914W        W99339   6.283  30.887   2.781
26915W        W99340  34.837  17.223  10.807
26916W        W99341  12.615  33.958   4.327
26917W        W99342   0.039  11.283   2.694
26918W        W99343  28.145  15.537   1.916
26919W        W99344   7.229  39.624   3.386
26920W        W99345  40.424  40.624  14.562
26921W        W99346  29.891  23.727   0.902
26922W        W99347   8.178  22.102  13.585
26923W        W99348  29.689  16.553  13.424
26924W        W99349  27.003   3.304  12.822
26925W        W99350  35.075  12.170  14.195
26926W        W99351   9.170  24.730   1.722
26927W        W99352  27.786   7.605   4.819
26928W        W99353   7.994  10.097  12.456
26929W        W99354  16.152  13.256  12.140
26930W        W99355  34.996  38.533   2.316
26931W        W99356  19.078  19.796   0.873
26932W        W99357  20.838  25.601  12.951
26933W        W99358  19.739  13.703  11.210
26934W        W99359   5.168  37.401  12.832
26935W        W99360  33.609   3.730  13.440
26936W        W99361  11.756  24.394  13.141
26937W        W99362  20.281   6.157  14.432
26938W        W99363  21.587   2.157   0.798
26939W        W99364  12.771   7.461   1.641
26940W        W99365  15.050  36.664   1.070
26941W        W99366  44.410  23.417   1.389
26942W        W99367  26.691  31.990  14.299
26943W        W99368   5.233  30.156  14.775
26944W        W99369  22.061   6.500   1.306
26945W        W99370  15.407  41.653   2.742
26946W        W99371   8.243  32.713  13.928
26947W        W99372  24.605  40.950   0.017
26948W        W99373  12.188   5.703   3.132
26949W        W99374  14.413  15.370  12.365
26950W        W99375  39.952  11.822   3.850
26951W        W99376   3.414  17.389   2.461
26952W        W99377   0.894  33.275   4.662
26953W        W99378  24.988   4.891  11.022
26954W        W99379  23.139   3.407   2.370
26955W        W99380  43.900   6.261   0.900
26956W        W99381  33.102  10.706  12.894
26957W        W99382  39.566  26.624  13.490
26958W        W99383   5.349  25.512   0.844
26959W        W99384  29.925  10.395   0.312
26960W        W99385  26.177  22.299   2.833
26961W        W99386  39.425  26.034  14.770
26962W        W99387  12.800  41.019   1.464
26963W        W99388  14.220  39.828  10.682
26964W        W99389  38.565  34.828  14.472
26965W        W99390  32.516   4.966   4.147
26966W        W99391  14.569  44.447   4.167
26967W        W99392   5.835   5.118  13.965
26968W        W99393   1.713  22.141   3.643
26969W        W99394  28.457  21.971   4.040
26970W        W99395   4.193  15.574  13.371
26971W        W99396  26.848  25.707   2.243
26972W        W99397   5.911  14.197  11.645
26973W        W99398   3.513  19.238  10.601
26974W        W99399  15.129   3.168  10.457
26975W        W99400   5.360  38.785  12.392
26976W        W99401  32.666   1.827   2.794
26977W        W99402   6.773  20.201  14.676
26978W        W99403  43.439  20.741  12.460
26979W        W99404   7.139   5.187   0.423
26980W        W99405   2.246   4.177  12.462
26981W        W99406  27.268  26.558   2.630
26982W        W99407  19.043   3.588   0.468
26983W        W99408  27.348   3.536  11.454
26984W        W99409   0.970   0.822   0.474
26985W        W99410  35.293  12.127   1.843
26986W        W99411   7.298  21.579   2.278
26987W        W99412  10.229   7.595  12.429
26988W        W99413   4.913  37.831  14.695
26989W        W99414  26.735  44.591   1.830
26990W        W99415  22.555  13.759   1.144
26991W        W99416  35.088  14.828   3.783
26992W        W99417   2.439  21.682  14.972
26993W        W99418  18.860  25.805  14.828
26994W        W99419  17.866   1.417   1.198
26995W        W99420  22.046  22.094   0.045
26996W        W99421  24.807  18.744  14.021
26997W        W99422  16.223  25.002   3.210
26998W        W99423   5.433  43.371   4.178
26999W        W99424  41.364  22.237   0.991
27000W        W99425  41.077  16.985  14.535
27001W        W99426  44.978  10.299  10.664
27002W        W99427   7.675  28.240  12.817
27003W        W99428  27.625  26.114   1.013
27004W        W99429  33.164   2.739   0.516
27005W        W99430  38.642   8.257  11.923
27006W        W99431  10.123   3.625  13.997
27007W        W99432  23.727  28.603   0.412
27008W        W99433   4.455  36.310  14.985
27009W        W99434  22.102  40.796   2.929
27010W        W99435   3.541  32.254   1.751
27011W        W99436   2.235  11.781   2.401
27012W        W99437  11.677   2.680   9.974
27013W        W99438   6.801  36.973   4.825
27014W        W99439  27.068  14.507  14.329
27015W        W99440  35.842   2.638  11.183
27016W        W99441  38.450  29.986  14.399
27017W        W99442  28.403   2.272   3.369
27018W        W99443  33.679  19.412   2.811
27019W        W99444  40.523  36.025  10.812
27020W        W99445  14.155   8.671  11.578
27021W        W99446  33.722   7.303   3.332
27022W        W99447  39.884  19.845   1.272
27023W        W99448  11.015   6.823  10.500
27024W        W99449  34.868  41.969  12.028
27025W        W99450  15.045  36.588   1.579
27026W        W99451  44.698  39.093   4.772
27027W        W99452  29.966   4.066   4.240
27028W        W99453  22.274  36.539  12.988
27029W        W99454  41.526  29.632   2.733
27030W        W99455  35.882  29.921   3.665
27031W        W99456  27.941  13.608  12.595
27032W        W99457   3.771  39.383  13.880
27033W        W99458  12.484  15.259  14.222
27034W        W99459   3.975  23.623  10.593
27035W        W99460  19.058  39.350  13.243
27036W        W99461  38.811  23.445  12.645
27037W        W99462  16.082  24.427   2.540
27038W        W99463  44.934  33.661   3.674
27039W        W99464  18.875  40.986  14.067
27040W        W99465   4.895  36.971  10.707
27041W        W99466  13.304   9.642   1.731
27042W        W99467  15.074  30.901  13.006
27043W        W99468  39.665  12.362  14.858
27044W        W99469  14.775   9.249   1.351
27045W        W99470  36.600  14.009   0.433
27046W        W99471  26.678  44.081   1.778
27047W        W99472  29.010  41.580  11.701
27048W        W99473  25.710  25.072  10.773
27049W        W99474   8.198  31.563   1.715
27050W        W99475  20.660  14.858  13.045
27051W        W99476  21.352  33.066   3.688
27052W        W99477  13.850  25.891  13.438
27053W        W99478  24.018  33.890  10.344
27054W        W99479   9.719  25.509   0.829
27055W        W99480   3.784   2.111   3.238
27056W        W99481  40.504  11.898   5.094
27057W        W99482   8.308  42.497  10.998
27058W        W99483  24.087  30.514  11.533
27059W        W99484  36.888  36.951  13.726
27060W        W99485  15.825  41.910   0.235
27061W        W99486   1.890  15.930   3.680
27062W        W99487  15.100  19.583   1.177
27063W        W99488  17.119  17.038  10.480
27064W        W99489  12.593  10.358   3.846
27065W        W99490  32.019  40.374  12.562
27066W        W99491   1.104   2.275  11.862
27067W        W99492   6.753  38.495   2.225
27068W        W99493   7.357  34.148   1.937
27069W        W99494  19.856  43.762   2.329
27070W        W99495   3.703  44.942   4.118
27071W        W99496   8.024  39.463   1.941
27072W        W99497  11.884  18.198   0.301
27073W        W99498   9.672  18.080  14.702
27074W        W99499  37.654  32.923  12.019
27075W        W99500  12.062   2.501   2.825
27076W        W99501   9.886  34.982   2.903
27077W        W99502  13.099  34.857   1.497
27078W        W99503  16.220  32.642   4.208
27079W        W99504  44.780  34.021   1.357
27080W        W99505  32.526  15.844  13.775
27081W        W99506  42.828  44.056   3.703
27082W        W99507  34.395  22.154  13.947
27083W        W99508  31.101  24.700  14.941
27084W        W99509  18.572   3.940   2.201
27085W        W99510   5.687  19.794   4.677
27086W        W99511  21.262  31.524   0.862
27087W        W99512  14.137  43.494   3.770
27088W        W99513  31.107  23.756   0.870
27089W        W99514  42.968   8.302   3.148
27090W        W99515  14.193  33.393   0.223
27091W        W99516   4.039  14.395  12.010
27092W        W99517  36.538  41.443   1.798
27093W        W99518  25.508  10.841   3.328
27094W        W99519  26.748   7.099  14.419
27095W        W99520  33.056  44.889  11.014
27096W        W99521  15.637  43.051   3.522
27097W        W99522  39.076  24.391  12.394
27098W        W99523  44.094   3.138   0.055
27099W        W99524  21.746  36.548  11.116
27100W        W99525  24.504  15.564   3.150
27101W        W99526  24.079   1.905  14.981
27102W        W99527  39.388   9.758   3.323
27103W        W99528  25.135   9.382   1.619
27104W        W99529  33.678  36.449   0.891
27105W        W99530  21.848  44.474   0.991
27106W        W99531  17.665  20.627  10.581
27107W        W99532   1.726  13.195   0.298
27108W        W99533  10.875  11.514  11.665
27109W        W99534   8.242  43.362   3.576
27110W        W99535  42.527  19.076   5.613
27111W        W99536  17.347  25.264  10.697
27112W        W99537  24.645  36.388   1.669
27113W        W99538   1.437  17.233  13.940
27114W        W99539  24.230  39.546  13.162
27115W        W99540  35.580  20.005  12.973
27116W        W99541   4.833   7.122   2.715
27117W        W99542  22.681  21.163   3.240
27118W        W99543  37.114  31.928  14.559
27119W        W99544  14.178  26.483   0.281
27120W        W99545  20.461  38.611   0.281
27121W        W99546  39.253  32.494  11.122
27122W        W99547  11.919  25.488  10.727
27123W        W99548  17.309  29.908   0.372
27124W        W99549   1.794  30.267   4.121
27125W        W99550   4.154  20.259   2.674
27126W        W99551  13.907  43.799   4.103
27127W        W99552   7.824  28.425  13.780
27128W        W99553  17.725  41.361  12.554
27129W        W99554  24.236   4.552  13.060
27130W        W99555   5.565   7.706  13.379
27131W        W99556  40.876  14.091  11.345
27132W        W99557  33.523  34.123  11.094
27133W        W99558  28.577  43.274   1.839
27134W        W99559   5.857  34.168  10.985
27135W        W99560  31.656  40.282  10.437
27136W        W99561   0.034  21.569  13.978
27137W        W99562  33.207   0.360  14.508
27138W        W99563  12.638  22.523  13.056
27139W        W99564  34.051  24.106  12.564
27140W        W99565  12.890   3.912   9.748
27141W        W99566  30.081  22.738   1.754
27142W        W99567  26.804   9.106   0.975
27143W        W99568   7.275   5.234   1.845
27144W        W99569  14.094  18.086  14.049
27145W        W99570  39.134  19.618   4.100
27146W        W99571  27.713  18.936  13.538
27147W        W99572  43.000  39.814  11.967
27148W        W99573  25.497  29.972  11.737
27149W        W99574  28.490  27.786  10.763
27150W        W99575   4.690   2.484   2.724
27151W        W99576  23.682  42.057   0.269
27152W        W99577  28.464  36.943   1.264
27153W        W99578  32.919  32.678  11.982
27154W        W99579  24.509   1.495   1.508
27155W        W99580  31.145  10.395   2.795
27156W        W99581   7.112   5.992   0.849
27157W        W99582  44.694   4.975  11.412
27158W        W99583  44.781  25.977  14.873
27159W        W99584  10.736  19.321   2.952
27160W        W99585  34.835  13.200   1.385
27161W        W99586  23.617  33.611  14.655
27162W        W99587   9.599  34.362  14.533
27163W        W99588   6.351  40.926   3.597
27164W        W99589  20.228   1.325   5.043
27165W        W99590  44.634  36.827   2.759
27166W        W99591  35.118  10.593  14.472
27167W        W99592  22.783   5.288   0.638
27168W        W99593  43.382   6.715  12.911
27169W        W99594  29.968   6.129  14.393
27170W        W99595  40.250  14.665   0.246
27171W        W99596  38.529   3.398  12.543
27172W        W99597  20.287  21.787   4.341
27173W        W99598  32.952   6.323  13.343
27174W        W99599  41.897  15.234   0.062
27175W        W99600  29.448  17.298  11.988
27176W        W99601   2.838  18.002   4.200
27177W        W99602  41.478  24.439   2.641
27178W        W99603   7.169  10.338  10.842
27179W        W99604  19.758  19.313   1.299
27180W        W99605  25.123  27.714   3.604
27181W        W99606  26.687  36.350  14.325
27182W        W99607   7.350  33.388  11.997
27183W        W99608  28.612  12.817   2.611
27184W        W99609   8.956  14.312   2.521
27185W        W99610  44.799   2.076   1.264
27186W        W99611  32.058  37.773   2.031
27187W        W99612  20.245  44.261   0.911
27188W        W99613   5.628  31.168  13.663
27189W        W99614  44.917  37.688   1.033
27190W        W99615  29.075  29.422  14.834
27191W        W99616  28.234  26.631  11.488
27192W        W99617  21.730  43.028   1.071
27193W        W99618   6.479  43.782  12.827
27194W        W99619  35.129   9.996   2.676
27195W        W99620  28.967  44.328   3.951
27196W        W99621  39.900  35.966  14.979
27197W        W99622  27.004  41.807   3.597
27198W        W99623  44.999  32.096  11.545
27199W        W99624  38.708  27.006   0.788
27200W        W99625  31.380  44.811  13.352
27201W        W99626  43.955  20.580  14.006
27202W        W99627  14.313  39.487   3.557
27203W        W99628  41.283  16.994   1.290
27204W        W99629  44.839  25.497  12.483
27205W        W99630  42.761  28.622   4.351
27206W        W99631   0.818  28.717   1.752
27207W        W99632   0.970  12.902  10.811
27208W        W99633  33.460  40.776  12.602
27209W        W99634  40.893  43.416  14.970
27210W        W99635   3.382   1.765  11.151
27211W        W99636  14.212  44.348   2.759
27212W        W99637  30.030  28.629   2.618
27213W        W99638  19.049  35.394  13.581
27214W        W99639  19.781   3.355  12.399
27215W        W99640  14.711  42.316   4.570
27216W        W99641   8.370   0.073   0.957
27217W        W99642   5.420  39.323   2.241
27218W        W99643   0.456  30.917  12.467
27219W        W99644  15.878  43.734   2.172
27220W        W99645  14.690   6.621  10.851
27221W        W99646  19.114   2.921   3.590
27222W        W99647  16.645  21.801   2.691
27223W        W99648  18.298  23.585  14.391
27224W        W99649  14.423  14.278   4.310
27225W        W99650   3.758  10.826   2.357
27226W        W99651   6.667  32.862   2.268
27227W        W99652   1.704  32.142  13.076
27228W        W99653  19.537  28.794  11.713
27229W        W99654  10.194  25.046  14.340
27230W        W99655  11.447  16.641   3.743
27231W        W99656  12.645  24.291   2.369
27232W        W99657  37.030  40.019   0.842
27233W        W99658  13.046  22.994  11.926
27234W        W99659  32.071  26.684   0.706
27235W        W99660  21.478  18.799  11.192
27236W        W99661   3.575  40.996  14.852
27237W        W99662  32.193  15.226  14.349
27238W        W99663   2.289   3.489   4.671
27239W        W99664  19.163  40.466  11.479
27240W        W99665   5.234  32.468  12.992
27241W        W99666  44.310  21.604  10.190
27242W        W99667  20.577  22.003  12.781
27243W        W99668  39.598  28.044   0.437
27244W        W99669   5.096  39.568  12.429
27245W        W99670  44.590  23.608  12.625
27246W        W99671  27.751  23.422   0.173
27247W        W99672  13.061  12.726  12.110
27248W        W99673  15.622  21.256   0.981
27249W        W99674  19.640  13.241  10.971
27250W        W99675  25.649  39.634  14.413
27251W        W99676  10.628  15.145  13.182
27252W        W99677   6.400  28.497   3.210
27253W        W99678  18.373  19.633  13.313
27254W        W99679  13.238  18.276  13.685
27255W        W99680  21.486  39.222  10.583
27256W        W99681   1.388  11.775  12.499
27257W        W99682  24.499  18.053   4.088
27258W        W99683   0.269  17.774   0.981
27259W        W99684  17.646  37.853  11.612
27260W        W99685  18.097  35.523  13.898
27261W        W99686   9.728  39.345   2.717
27262W        W99687  39.581  18.170   3.343
27263W        W99688  43.924  20.559  12.639
27264W        W99689  43.543  21.531  11.100
27265W        W99690  44.242  37.235  14.929
27266W        W99691  29.416   7.441  14.452
27267W        W99692  11.295  28.129   4.600
27268W        W99693  11.371  15.757   4.128
27269W        W99694  31.340  29.378  14.919
27270W        W99695  23.710  29.261  14.904
27271W        W99696  15.132   0.533  11.656
27272W        W99697  37.511  44.818   3.084
27273W        W99698  38.271  38.895   3.633
27274W        W99699  37.539   9.718   4.303
27275W        W99700  24.117  44.977   0.611
27276W        W99701   7.213  15.659   4.932
27277W        W99702  43.173  23.076   3.341
27278W        W99703  15.584  33.130   2.216
27279W        W99704   7.909   0.230  11.953
27280W        W99705  38.143  19.115  11.134
27281W        W99706  10.883   2.742  11.144
27282W        W99707   7.095  20.572   3.696
27283W        W99708  31.661  25.612  12.284
27284W        W99709  30.191  34.024   2.362
27285W        W99710  36.145  26.173  11.167
27286W        W99711   3.206  13.158  13.766
27287W        W99712  33.244  12.650  11.195
27288W        W99713  16.208  33.400   4.675
27289W        W99714  42.422  11.194  12.596
27290W        W99715  16.344  17.690   2.719
27291W        W99716  19.688  14.685   0.525
27292W        W99717   3.953   5.955   3.778
27293W        W99718  13.162  41.417  11.931
27294W        W99719  41.772  29.714   4.967
27295W        W99720  15.968   2.154   5.278
27296W        W99721  17.579   1.734   3.759
27297W        W99722  34.613  24.719   3.594
27298W        W99723  40.157   3.738   1.147
27299W        W99724  43.503  33.943   4.490
27300W        W99725   1.194  32.270   2.769
27301W        W99726  22.527  35.937  13.080
27302W        W99727  13.467   7.438   1.255
27303W        W99728   8.239  44.076  13.990
27304W        W99729  20.778  37.781  13.335
27305W        W99730  32.857  33.008   0.107
27306W        W99731  18.185  19.855  14.389
27307W        W99732  18.549  38.845   2.207
27308W        W99733  11.427  33.336  13.001
27309W        W99734  40.953  25.490  11.147
27310W        W99735  40.032  32.860  13.857
27311W        W99736   0.372   9.312   3.533
27312W        W99737   0.434   9.232  14.822
27313W        W99738  43.797  33.532   2.834
27314W        W99739  43.876   4.322  14.120
27315W        W99740  10.793   1.930   1.875
27316W        W99741  11.774   2.385  10.788
27317W        W99742  13.080  20.584  14.495
27318W        W99743  15.659   9.217   0.825
27319W        W99744  13.010  42.631  10.554
27320W        W99745  12.828  35.202  11.118
27321W        W99746  29.127  10.297   3.288
27322W        W99747  20.244  30.460  11.630
27323W        W99748  30.389  34.998  13.432
27324W        W99749  43.077   5.770   4.670
27325W        W99750  20.544  18.148   0.897
27326W        W99751  25.748   5.707  11.467
27327W        W99752  31.981   5.705  13.126
27328W        W99753  44.795  42.417   0.530
27329W        W99754  42.462  12.055   3.186
27330W        W99755  44.060  37.326   3.158
27331W        W99756  28.448  39.553  13.941
27332W        W99757  40.518   1.491  11.527
27333W        W99758   7.875  43.648   2.873
27334W        W99759   3.221  43.376   1.260
27335W        W99760   2.272  22.762  12.573
27336W        W99761   3.495  17.145  10.742
27337W        W99762  34.892  36.656   3.120
27338W        W99763  27.691  42.493  11.494
27339W        W99764  22.234  18.300   1.287
27340W        W99765  21.523  44.052   0.982
27341W        W99766   4.461  23.619   4.822
27342W        W99767  28.938  12.410  12.138
27343W        W99768   0.147   9.593   2.183
27344W        W99769  18.032  30.004   1.792
27345W        W99770   6.942  16.737   1.243
27346W        W99771  41.540  22.220   4.677
27347W        W99772   1.591  37.382   3.319
27348W        W99773  32.183   5.296   0.884
27349W        W99774  25.323  29.475   5.506
27350W        W99775  19.275  24.988   1.202
27351W        W99776   3.907  30.814   4.755
27352W        W99777  35.943  23.643  13.013
27353W        W99778  36.057  24.008  14.853
27354W        W99779  10.137   5.867   1.868
27355W        W99780  18.736  14.931   1.359
27356W        W99781  27.603  16.821   1.839
27357W        W99782   3.178  42.861   1.375
27358W        W99783  28.179   0.011   0.265
27359W        W99784  34.513   3.741  14.974
27360W        W99785   2.388  23.736  14.709
27361W        W99786  22.311  19.424  12.061
27362W        W99787  28.012  14.502   2.823
27363W        W99788  38.486  22.859   3.333
27364W        W99789  39.762  26.721  11.550
27365W        W99790  20.052  34.799  11.087
27366W        W99791   0.478   5.803  13.362
27367W        W99792   7.637  31.017  10.941
27368W        W99793  26.726  38.447  10.706
27369W        W99794  31.762  36.987   3.378
27370W        W99795   0.511   9.114  13.280
27371W        W99796   0.615  16.028  11.926
27372W        W99797  29.447  10.297   5.044
27373W        W99798  23.645  39.541   0.434
27374W        W99799  18.303  29.785   2.632
27375W        W99800  32.640  31.383  11.283
27376W        W99801  18.826  17.570   2.168
27377W        W99802   4.764  37.584   2.309
27378W        W99803  25.678  21.724   1.932
27379W        W99804  40.976  28.254  11.533
27380W        W99805   5.462  30.139   2.679
27381W        W99806   8.616  12.139   4.649
27382W        W99807  30.490  17.712  12.470
27383W        W99808  12.593   5.792   4.611
27384W        W99809  31.025  23.845   5.712
27385W        W99810  41.449   7.859  10.656
27386W        W99811  31.465  29.496   0.777
27387W        W99812  29.735  21.240  12.084
27388W        W99813  25.506  38.422   4.597
27389W        W99814  24.311   7.377   4.603
27390W        W99815  24.586  10.587  12.968
27391W        W99816  30.458  30.584   0.406
27392W        W99817  24.597  39.983   4.556
27393W        W99818  41.940  15.055   3.254
27394W        W99819   5.168   3.028  12.150
27395W        W99820   9.752  40.456  11.783
27396W        W99821  29.533  10.293   1.739
27397W        W99822   6.116  31.374   2.799
27398W        W99823  19.768   8.771   1.456
27399W        W99824  14.863  37.433   1.093
27400W        W99825  20.403  21.097   4.507
27401W        W99826  28.044   5.433  13.992
27402W        W99827  15.354  19.324   3.337
27403W        W99828  25.658  40.222  12.859
27404W        W99829  15.350   3.838  11.829
27405W        W99830  14.594  21.496  13.391
27406W        W99831  19.275   6.373   0.216
27407W        W99832  18.739  39.573   0.437
27408W        W99833  20.588  30.979   3.137
27409W        W99834  41.367  43.303  14.349
27410W        W99835  17.525   8.689   1.756
27411W        W99836  34.812  27.265  13.144
27412W        W99837   7.762  21.780   2.687
27413W        W99838  22.773   0.893  11.563
27414W        W99839  37.023  30.450  12.342
27415W        W99840  23.189  28.156  11.659
27416W        W99841  17.251  36.669   4.542
27417W        W99842  44.733  35.793  13.391
27418W        W99843  33.457  27.657  14.024
27419W        W99844  37.293  39.932  11.991
27420W        W99845  24.727  33.977   4.292
27421W        W99846  24.362  12.264  12.603
27422W        W99847  22.619   9.650  10.154
27423W        W99848  14.277  23.650   2.343
27424W        W99849   6.888  15.677   0.433
27425W        W99850  44.021   0.581   2.565
27426W        W99851  42.913  39.583  12.425
27427W        W99852  27.187  35.140  11.626
27428W        W99853  26.100   4.294   2.306
27429W        W99854  12.835  18.648  13.146
27430W        W99855   9.269  11.890   1.041
27431W        W99856   3.020  14.286  14.975
27432W        W99857  39.534  35.919   2.286
27433W        W99858  37.792  20.271  14.873
27434W        W99859  10.258   7.678   0.032
27435W        W99860  40.885  39.869   0.797
27436W        W99861  34.923   9.386  13.948
27437W        W99862  35.085  28.426  12.982
27438W        W99863  18.073  39.421  13.152
27439W        W99864  40.155  24.408   1.660
27440W        W99865  10.274  28.465   3.162
27441W        W99866  37.863  18.623  11.638
27442W        W99867  40.750  37.543  14.769
27443W        W99868  23.498  42.837   3.188
27444W        W99869  19.669  41.885  14.708
27445W        W99870  37.477  30.459  12.663
27446W        W99871  43.224  20.053   1.251
27447W        W99872   9.165  32.936   1.384
27448W        W99873  10.457   8.318  14.487
27449W        W99874  14.323  37.480  11.572
27450W        W99875  22.268  39.424   4.718
27451W        W99876  32.669  10.771   1.221
27452W        W99877  30.941   1.289   3.725
27453W        W99878  37.896   9.676   0.528
27454W        W99879  29.934  43.191   1.781
27455W        W99880  40.286   4.670   2.711
27456W        W99881  24.580   5.298  12.653
27457W        W99882  37.083   4.459  10.988
27458W        W99883  24.229  38.702   4.133
27459W        W99884  17.626  12.172  14.477
27460W        W99885  34.965  20.724   3.231
27461W        W99886  18.483  36.084   2.231
27462W        W99887  36.277  28.510   1.384
27463W        W99888  13.898  39.332  14.843
27464W        W99889  31.088  44.796   0.773
27465W        W99890  22.678  31.905  14.299
27466W        W99891  34.805  43.880  14.505
27467W        W99892  31.411  30.909   3.753
27468W        W99893  32.038  26.613   2.455
27469W        W99894  16.506  32.856   2.326
27470W        W99895  13.439   7.659   3.248
27471W        W99896  18.037  31.059  14.818
27472W        W99897  27.442  21.979  14.883
27473W        W99898   9.578  30.515  11.967
27474W        W99899  10.410  16.808  14.988
27475W        W99900   8.188   8.376  11.891
27476W        W99901  16.423  21.246  12.316
27477W        W99902  16.307  25.222   2.362
27478W        W99903   5.229  27.545  11.331
27479W        W99904  26.194   0.729  11.652
27480W        W99905  15.193  24.833   3.120
27481W        W99906  35.953  41.671  13.366
27482W        W99907   2.672  34.380  11.379
27483W        W99908  26.295  12.387   2.761
27484W        W99909  28.471  30.919  13.994
27485W        W99910   4.674   6.959  12.068
27486W        W99911   5.415  33.922  14.366
27487W        W99912   8.111   4.983   0.908
27488W        W99913   5.416  22.648   0.368
27489W        W99914  41.511  21.388  12.485
27490W        W99915  34.167  11.688   2.659
27491W        W99916  44.983   3.479  10.444
27492W        W99917  24.748  21.231  10.097
27493W        W99918  10.253  31.963   2.164
27494W        W99919  23.723  10.175   2.957
27495W        W99920   1.897  27.063  13.904
27496W        W99921   9.805   2.863  14.373
27497W        W99922  24.603   1.316  13.973
27498W        W99923  26.730  31.951  10.340
27499W        W99924   4.920   7.335  10.752
27500W        W99925  44.878  25.924   0.819
27501W        W99926  13.896   0.422  12.086
27502W        W99927  21.222  17.193   3.973
27503W        W99928   9.991   3.107   0.860
27504W        W99929  11.080  34.860  12.823
27505W        W99930  40.786  21.672  11.168
27506W        W99931   0.686   3.826  13.473
27507W        W99932  36.642   3.351  10.309
27508W        W99933   7.218  38.040  14.468
27509W        W99934  40.464  13.417  12.011
27510W        W99935  17.139  12.929  10.755
27511W        W99936  28.734  18.674  12.062
27512W        W99937   1.945  19.221  11.195
27513W        W99938  44.278  25.126   0.739
27514W        W99939   4.068   4.308   4.189
27515W        W99940  12.586  16.214  13.852
27516W        W99941  19.036  43.362  11.996
27517W        W99942  24.797  24.699   2.385
27518W        W99943   0.923  39.348   0.759
27519W        W99944   2.427   2.495  13.760
27520W        W99945   9.307  40.750  11.058
27521W        W99946  39.138  33.128  12.745
27522W        W99947  38.965  14.842   3.725
27523W        W99948  38.067  43.843   4.487
27524W        W99949  26.586  25.789   4.521
27525W        W99950  35.626  21.811  12.578
27526W        W99951  36.677  41.410  14.686
27527W        W99952  27.585  38.745   0.300
27528W        W99953  37.119   3.401   4.038
27529W        W99954   1.918  16.542   1.171
27530W        W99955  40.827  40.755   0.713
27531W        W99956  42.817  14.079  13.851
27532W        W99957  11.764  19.329  12.065
27533W        W99958  40.112  26.052   1.406
27534W        W99959  29.419   8.721   2.269
27535W        W99960   6.958  35.973  13.763
27536W        W99961   9.660  28.566  10.684
27537W        W99962  28.219  19.292   0.134
27538W        W99963  44.751  35.491  14.953
27539W        W99964  41.016   1.199   2.832
27540W        W99965  15.391  44.869   4.541
27541W        W99966   2.839  14.686  14.705
27542W        W99967  10.322  19.672   4.092
27543W        W99968  37.076   8.425   4.700
27544W        W99969  14.754   3.364   1.878
27545W        W99970  17.356   0.414  14.494
27546W        W99971   8.194  35.922   2.898
27547W        W99972  10.679  44.243  12.050
27548W        W99973  11.599  37.778   4.475
27549W        W99974  42.484  34.649   3.961
27550W        W99975  44.123  43.738   1.382
27551W        W99976  41.798   3.797  11.063
27552W        W99977   3.792  36.445  11.595
27553W        W99978  11.366   1.027   1.844
27554W        W99979   8.853  13.515  14.804
27555W        W99980  35.940   7.831   3.677
27556W        W99981  37.069  26.190  11.151
27557W        W99982   2.658  28.553   2.050
27558W        W99983  38.475   0.010   3.643
27559W        W99984  37.524  30.964   2.205
27560W        W99985  43.784   5.450   2.759
27561W        W99986  16.230   3.636   4.215
27562W        W99987  16.404  11.812  11.667
27563W        W99988   6.347   5.320  12.316
27564W        W99989  35.050  30.950   2.207
27565W        W99990   8.703  12.880  13.353
27566W        W99991  18.761  17.537   3.751
27567W        W99992  34.977  26.161   4.593
27568W        W99993  16.595  21.970  13.963
27569W        W99994  28.492   4.738   1.802
27570W        W99995   5.553  12.888  10.838
27571W        W99996  42.457  42.216  11.688
27572W        W99997  39.944   9.277   0.672
27573W        W99998  21.011  38.084   1.897
27574W        W99999  41.540  30.872  11.881
27575W        W    0  16.060  16.855   2.177
27576W        W    1  23.157  36.738   4.625
27577W        W    2  37.100  31.491   0.454
27578W        W    3  23.302  14.321   0.995
27579W        W    4  20.365   7.109  13.324
27580W        W    5  23.062   7.471  14.509
27581W        W    6  20.867  12.617  14.901
27582W        W    7  15.519  27.918   1.306
27583W        W    8  44.977  28.047  12.556
27584W        W    9   1.124  16.698  10.496
27585W        W   10  44.240  12.140  13.509
27586W        W   11   2.379  13.251  14.170
27587W        W   12  22.115  40.002  12.796
27588W        W   13  34.903  17.073   1.197
27589W        W   14   1.984  23.655  14.339
27590W        W   15  23.476  44.857   0.029
27591W        W   16   7.109   4.718   4.448
27592W        W   17   7.612   2.753  12.633
27593W        W   18  30.072  24.590   4.721
27594W        W   19   3.739   3.099   3.888
27595W        W   20  25.982   0.010  12.807
27596W        W   21   9.316  36.201   0.020
27597W        W   22  28.099  40.592  12.482
27598W        W   23  11.827  15.397   0.627
27599W        W   24  17.485  32.812   1.172
27600W        W   25  21.685  25.187  10.579
27601W        W   26   4.394  26.068  13.421
27602W        W   27  16.655   4.997  13.100
27603W        W   28  21.164  38.192  14.157
27604W        W   29  40.340  36.452  11.098
27605W        W   30  41.946  18.328  10.978
27606W        W   31  43.202  22.991  10.689
27607W        W   32  38.540   1.547  12.454
27608W        W   33  35.504  28.820  14.046
27609W        W   34  40.143  28.446  12.365
27610W        W   35  34.071  40.463   4.571
27611W        W   36  24.465  18.084  11.916
27612W        W   37  17.858  33.947   3.320
27613W        W   38  25.173   2.804  14.775
27614W        W   39  39.461  33.588   4.214
27615W        W   40   6.724   7.140  11.542
27616W        W   41  41.695  26.725   0.375
27617W        W   42  30.130  20.660   3.976
27618W        W   43  19.137  41.193   4.543
27619W        W   44   5.150   8.771  11.990
27620W        W   45   0.415   9.867   2.800
27621W        W   46   3.225  43.084  13.161
27622W        W   47  29.859   9.601  14.861
27623W        W   48   4.767  41.997  12.975
27624W        W   49  15.171  19.205   2.482
27625W        W   50  19.714  16.094   2.209
27626W        W   51  11.088  12.339   4.156
27627W        W   52  33.236  18.284   1.607
27628W        W   53  11.237  12.042  11.572
27629W        W   54  33.813   2.822  12.516
27630W        W   55  15.300  36.998   4.443
27631W        W   56  34.924  23.445   3.317
27632W        W   57  24.043   9.295  10.923
27633W        W   58  21.277  22.205  11.054
27634W        W   59   0.297  21.082  10.010
27635W        W   60  40.045  16.059   2.780
27636W        W   61  31.896  13.044  12.897
27637W        W   62  20.254  24.931  12.018
27638W        W   63   3.689  13.637  11.579
27639W        W   64   0.295   4.968   1.359
27640W        W   65  22.424  37.308   4.238
27641W        W   66  27.993  32.579   0.742
27642W        W   67  20.664  17.641   1.870
27643W        W   68  18.189  37.820  13.802
27644W        W   69  20.132  20.731  10.704
27645W        W   70   4.792   5.933   4.166
27646W        W   71  39.057   8.135   2.365
27647W        W   72   9.858  10.323  11.083
27648W        W   73  40.992  21.791  11.619
27649W        W   74   6.456   7.901   4.179
27650W        W   75  16.804  44.300  14.023
27651W        W   76  14.854  23.390  12.287
27652W        W   77  20.114  42.003  12.812
27653W        W   78  32.527  31.414   1.454
27654W        W   79  11.659  33.489   3.174
27655W        W   80  36.474   0.091  12.536
27656W        W   81  36.619  22.376   3.154
27657W        W   82  41.289  30.258  13.856
27658W        W   83  30.729   2.942   1.543
27659W        W   84   1.266  24.145   0.376
27660W        W   85   1.674   7.170   1.361
27661W        W   86  17.660  25.139  13.826
27662W        W   87  36.896  41.036   4.652
27663W        W   88   9.353  32.080   1.785
27664W        W   89  25.934  38.766   3.718
27665W        W   90  15.797  30.389  11.588
27666W        W   91  17.937   4.292   3.184
27667W        W   92   0.311   6.909  14.338
27668W        W   93  37.370   4.260   2.777
27669W        W   94  13.949  43.861   1.651
27670W        W   95  10.404   5.793  10.402
27671W        W   96   4.225  27.561   2.231
27672W        W   97  19.405  13.316  13.407
27673W        W   98  20.561  27.206   4.115
27674W        W   99  28.476  33.032   3.352
27675W        W  100  10.018  38.949  10.639
27676W        W  101  22.498   3.303   2.833
27677W        W  102  24.711  21.709  11.232
27678W        W  103  10.682  28.413  11.130
27679W        W  104  12.171   3.483   5.469
27680W        W  105  20.040  33.479   3.499
27681W        W  106  22.117  10.646  12.817
27682W        W  107  36.310  15.715   0.818
27683W        W  108  10.134  12.587  12.950
27684W        W  109   6.810  11.099   1.305
27685W        W  110  35.835   6.236  14.347
27686W        W  111  21.065  38.894   3.223
27687W        W  112  20.760  18.401   3.905
27688W        W  113  42.272  18.525   0.409
27689W        W  114  39.871   0.939   2.325
27690W        W  115   0.270  13.820  14.429
27691W        W  116  43.027   1.308   3.256
27692W        W  117   7.599  15.579  11.629
27693W        W  118  26.422  18.533  11.530
27694W        W  119  44.729  12.593  12.408
27695W        W  120  43.494  16.641   0.581
27696W        W  121  20.634  16.524   2.343
27697W        W  122  23.226   2.371   3.822
27698W        W  123  17.463  40.499   1.067
27699W        W  124   0.510  27.597  13.106
27700W        W  125  15.885  18.634  11.128
27701W        W  126  28.404   2.922  11.247
27702W        W  127  41.392  21.764   3.823
27703W        W  128  31.612  26.519  12.560
27704W        W  129  24.774  28.527   2.930
27705W        W  130  36.094  32.004  10.695
27706W        W  131  16.596  29.904   1.970
27707W        W  132  10.798  12.658   3.226
27708W        W  133  35.419  41.831   4.673
27709W        W  134  21.101   2.002  14.873
27710W        W  135   5.861   2.985  10.550
27711W        W  136  37.040  41.343  10.541
27712W        W  137  22.704  10.711  14.740
27713W        W  138   5.496  14.331   4.205
27714W        W  139   8.157  23.713  13.010
27715W        W  140   1.601  31.504   3.316
27716W        W  141  14.681  29.689  12.586
27717W        W  142  33.999  43.022   3.229
27718W        W  143  16.295  29.937  11.139
27719W        W  144   7.008  32.179   2.677
27720W        W  145   8.861  20.033   3.132
27721W        W  146  13.988  22.418  10.082
27722W        W  147   3.815  41.127  11.641
27723W        W  148  18.090  17.880  13.757
27724W        W  149   9.843  36.797  10.799
27725W        W  150  40.561  43.515  13.249
27726W        W  151   1.508  25.296  12.812
27727W        W  152  33.414  11.303  13.512
27728W        W  153  12.238  39.438  10.302
27729W        W  154  41.411  17.751   0.595
27730W        W  155   6.814  23.502  10.614
27731W        W  156  23.968  12.637  12.521
27732W        W  157   5.781  35.993   0.169
27733W        W  158  20.628  21.121  13.116
27734W        W  159   2.133  44.304   1.232
27735W        W  160  35.593  10.830  11.490
27736W        W  161  36.494  25.459  12.108
27737W        W  162  41.404   1.869  12.530
27738W        W  163   0.160   8.353   1.556
27739W        W  164  16.344  23.710  13.307
27740W        W  165  37.200   5.888   2.344
27741W        W  166  20.787  43.739  11.575
27742W        W  167  21.760  35.021   0.426
27743W        W  168  32.857  35.346   1.547
27744W        W  169  42.507  37.425  13.339
27745W        W  170   6.832  32.661  11.059
27746W        W  171  33.394  41.741  11.856
27747W        W  172  22.098  16.524  11.911
27748W        W  173  21.036  34.877  11.885
27749W        W  174  29.689  34.047  10.770
27750W        W  175  21.504  39.403   3.998
27751W        W  176  39.213   3.167   2.401
27752W        W  177  42.885   6.775  14.478
27753W        W  178  44.407  22.947  14.842
27754W        W  179  24.307  26.211   0.465
27755W        W  180  26.085  28.926  11.636
27756W        W  181  16.802  14.636  11.928
27757W        W  182  20.452  22.619  10.555
27758W        W  183   5.355  38.628   1.451
27759W        W  184   6.575  19.370   0.003
27760W        W  185  10.883   4.073  10.646
27761W        W  186  28.092  10.413  12.906
27762W        W  187  21.773  12.722   9.654
27763W        W  188  42.740  21.701   5.550
27764W        W  189  19.749  30.984  13.466
27765W        W  190  13.758   0.273  11.598
27766W        W  191  25.708  19.294  14.740
27767W        W  192  19.687  21.576  10.757
27768W        W  193  16.327  32.284   3.869
27769W        W  194  32.676  30.153   4.904
27770W        W  195  24.552  42.723   2.716
27771W        W  196   0.655  11.256  14.474
27772W        W  197   5.946  44.969   1.209
27773W        W  198   7.958   5.948   4.346
27774W        W  199  18.028  38.852   2.238
27775W        W  200   1.724  26.513   2.929
27776W        W  201  39.446  24.476  13.502
27777W        W  202  26.971   6.255  10.743
27778W        W  203  12.935  18.188  10.865
27779W        W  204   6.591  12.504  12.166
27780W        W  205   5.610  20.286  11.680
27781W        W  206  16.097  25.341  12.465
27782W        W  207  15.468  35.139   5.519
27783W        W  208  24.568  43.551  13.077
27784W        W  209   3.372  16.784   4.380
27785W        W  210  20.092  21.976  13.451
27786W        W  211   1.810  43.241   1.272
27787W        W  212  15.349  12.343   2.383
27788W        W  213   7.216  17.609   0.762
27789W        W  214  14.452   7.786   2.402
27790W        W  215  29.547  14.410  12.957
27791W        W  216  26.653   6.998   0.421
27792W        W  217  16.179  18.540   1.699
27793W        W  218  10.600   2.304   4.632
27794W        W  219  17.314  41.911   3.938
27795W        W  220  34.908  28.445  10.719
27796W        W  221  44.401  23.907  13.032
27797W        W  222  44.848  11.358   4.410
27798W        W  223  31.932  40.641  14.370
27799W        W  224  29.130  34.112   0.020
27800W        W  225  30.300  15.726   1.002
27801W        W  226  38.544  42.659  11.801
27802W        W  227  10.261  32.408  13.441
27803W        W  228   8.322  24.678  10.565
27804W        W  229  25.852  40.525   1.640
27805W        W  230   6.528   9.036  10.222
27806W        W  231  22.242  36.655  13.926
27807W        W  232   0.270   7.026   1.372
27808W        W  233  15.371  17.117  11.999
27809W        W  234  13.711  26.621  13.390
27810W        W  235   3.368  44.059  12.762
27811W        W  236  40.105  40.506   1.748
27812W        W  237   0.880  20.338   0.693
27813W        W  238  29.017  42.870   0.252
27814W        W  239  19.187  39.393   4.440
27815W        W  240  23.770  43.843   3.621
27816W        W  241  29.676   0.697  12.468
27817W        W  242  11.148   0.021  12.991
27818W        W  243  38.370  11.096   4.174
27819W        W  244   0.977   3.226  10.640
27820W        W  245   9.670   9.478  11.239
27821W        W  246  14.609  28.591  12.030
27822W        W  247  17.309   2.006   4.614
27823W        W  248   4.207  33.123  13.100
27824W        W  249  21.156  10.643   3.801
27825W        W  250  15.636  26.872   0.140
27826W        W  251  32.379  41.915  11.572
27827W        W  252  23.175  43.572  14.841
27828W        W  253  39.970   8.966  13.012
27829W        W  254  33.063  38.836  11.470
27830W        W  255  33.121   0.253  13.999
27831W        W  256  13.549  34.167   3.194
27832W        W  257  30.126  29.900  11.068
27833W        W  258  22.242  27.726  12.579
27834W        W  259  21.442  18.986  14.056
27835W        W  260  33.621  15.557   4.495
27836W        W  261   4.718   6.467  11.231
27837W        W  262  16.291  43.512   1.891
27838W        W  263   2.521  41.999   1.935
27839W        W  264  32.152  34.378   4.635
27840W        W  265  24.656  18.009   3.285
27841W        W  266   8.973   0.481   4.371
27842W        W  267  27.438  41.013   3.753
27843W        W  268  15.490  18.961   3.699
27844W        W  269  32.979  27.436  13.132
27845W        W  270   7.779  11.407   0.328
27846W        W  271  14.296  36.446  13.063
27847W        W  272  33.327   5.422   4.233
27848W        W  273  28.654   8.838   4.480
27849W        W  274   5.983  20.763   4.409
27850W        W  275  29.539  44.670  12.268
27851W        W  276  42.935   4.271   3.660
27852W        W  277  16.837  42.478  11.077
27853W        W  278  42.902   4.180   1.978
27854W        W  279  27.966  28.507   3.233
27855W        W  280  25.193  43.191  12.599
27856W        W  281  10.079   4.718   9.898
27857W        W  282   0.681  32.665  12.605
27858W        W  283  24.674  25.303  13.392
27859W        W  284  33.032  14.635  13.608
27860W        W  285  21.185  14.129  14.856
27861W        W  286  25.516   5.648   4.382
27862W        W  287   2.244  32.161   2.125
27863W        W  288  38.272  17.275   9.996
27864W        W  289  18.715  25.066   2.566
27865W        W  290  12.008   1.587   0.803
27866W        W  291  32.116   2.905  14.911
27867W        W  292   7.852  26.965   2.871
27868W        W  293  33.149  42.321   4.877
27869W        W  294  35.257  11.006  11.144
27870W        W  295  16.523  16.580  12.435
27871W        W  296   4.495  22.445   4.050
27872W        W  297   2.990  27.108   3.174
27873W        W  298  26.110  42.950   1.791
27874W        W  299  30.844  11.120   1.265
27875W        W  300   9.997   8.389   3.877
27876W        W  301   2.462  37.920   3.793
27877W        W  302  24.849  18.180  10.998
27878W        W  303  21.263   4.394  10.666
27879W        W  304  21.021  27.147  13.914
27880W        W  305  33.595  31.970  14.489
27881W        W  306  43.297   4.487  12.542
27882W        W  307   7.798  11.965  14.561
27883W        W  308  39.477   9.377  14.941
27884W        W  309   9.783  19.529   4.735
27885W        W  310   4.208  34.604   2.524
27886W        W  311  41.447  28.444   4.050
27887W        W  312  41.391  33.064  12.921
27888W        W  313  30.673   0.680  13.840
27889W        W  314   1.736  32.944  11.602
27890W        W  315   6.916   3.962  12.541
27891W        W  316   6.485  24.297   1.343
27892W        W  317  15.077   9.858  12.550
27893W        W  318  28.718   8.262   0.942
27894W        W  319  37.063  34.364  10.381
27895W        W  320  44.039  41.438  10.662
27896W        W  321  23.783  13.737  13.386
27897W        W  322  27.718  34.041   3.710
27898W        W  323   6.501   3.370   0.656
27899W        W  324  29.111  30.006  12.493
27900W        W  325  40.360  16.582   4.798
27901W        W  326  41.343   6.376   4.645
27902W        W  327  38.371  30.106   0.956
27903W        W  328  28.529   8.518  13.422
27904W        W  329  27.688  40.943   3.180
27905W        W  330  41.788  23.798  13.283
27906W        W  331  17.999  23.952   2.783
27907W        W  332  11.700  20.523  11.116
27908W        W  333  41.604  27.391  12.391
27909W        W  334  43.393  29.135  11.458
27910W        W  335  15.310  21.247   1.891
27911W        W  336  28.081   6.873   0.058
27912W        W  337  40.390   1.100   3.237
27913W        W  338  40.784  35.028  11.493
27914W        W  339   8.402  41.237  12.975
27915W        W  340  40.984  19.987  14.939
27916W        W  341  30.765  17.207   4.748
27917W        W  342  12.881  13.194  10.822
27918W        W  343  12.945  43.606   1.778
27919W        W  344  40.002  27.206  12.851
27920W        W  345  39.132  28.572   3.328
27921W        W  346  19.286  34.080  14.352
27922W        W  347  35.796   5.453   3.295
27923W        W  348  28.943   0.465   0.211
27924W        W  349  25.938  16.754   1.843
27925W        W  350  22.719  27.687   1.592
27926W        W  351   6.418  34.990  12.411
27927W        W  352  43.096  33.437   9.951
27928W        W  353  16.768   3.852  11.066
27929W        W  354  38.851  30.379   3.535
27930W        W  355  33.427   9.722   2.158
27931W        W  356  35.999  17.587   4.600
27932W        W  357  27.446   2.816  12.083
27933W        W  358  36.358  28.011   3.178
27934W        W  359  40.543  33.604   3.275
27935W        W  360  37.346   5.741  10.800
27936W        W  361  17.739  28.515   2.448
27937W        W  362  28.905  44.822  14.022
27938W        W  363  36.110  12.683   1.925
27939W        W  364   1.849   1.165   4.241
27940W        W  365   1.991   0.276  12.978
27941W        W  366  16.287  41.599   1.700
27942W        W  367  10.212  26.212  13.911
27943W        W  368  19.510  22.339  14.539
27944W        W  369  36.263  29.136   0.090
27945W        W  370  44.960  10.386  12.039
27946W        W  371  34.866   5.415   3.640
27947W        W  372   3.438   8.183  11.154
27948W        W  373  25.876  21.106  12.410
27949W        W  374  32.560  43.854  12.644
27950W        W  375  10.293   9.312  12.004
27951W        W  376   4.812   4.435   1.582
27952W        W  377   6.275   9.631   0.988
27953W        W  378  44.802  10.201  14.488
27954W        W  379  33.298  30.585   0.756
27955W        W  380  12.053  44.875  11.138
27956W        W  381  10.741   7.918   3.892
27957W        W  382  42.087   1.740   0.296
27958W        W  383   6.325  24.981  10.691
27959W        W  384  16.293   1.443  14.490
27960W        W  385   4.470  21.564  13.493
27961W        W  386   7.744   6.682  11.075
27962W        W  387  43.803   0.912  11.512
27963W        W  388  31.368  25.533   1.780
27964W        W  389  29.424   7.825   3.496
27965W        W  390   6.982  42.975  14.378
27966W        W  391  18.923  26.824  10.334
27967W        W  392  34.898  18.778  10.583
27968W        W  393  36.487  38.587  11.073
27969W        W  394   2.180   4.943   3.134
27970W        W  395   4.454  26.379  12.813
27971W        W  396  18.583  10.008  13.368
27972W        W  397   4.437   9.267  10.869
27973W        W  398  38.039  10.677  11.965
27974W        W  399  26.891   9.991   3.233
27975W        W  400   8.632   1.439   0.858
27976W        W  401   6.018  36.995  12.444
27977W        W  402  31.279  27.990  12.596
27978W        W  403  24.085  23.441  11.182
27979W        W  404  25.490  40.145  11.957
27980W        W  405  14.117  14.092   1.488
27981W        W  406  31.527  14.225   3.175
27982W        W  407  15.714   7.686  12.115
27983W        W  408   5.415  24.118   0.734
27984W        W  409  11.084  22.545   3.641
27985W        W  410   2.941  24.540  10.655
27986W        W  411   1.440  28.672  14.518
27987W        W  412  14.589  34.610  13.442
27988W        W  413   2.839  41.019   4.678
27989W        W  414  30.859  39.579  11.097
27990W        W  415  34.372  38.587  11.220
27991W        W  416   8.920  12.798   1.005
27992W        W  417  22.624   6.410   5.113
27993W        W  418  33.312  41.140   4.722
27994W        W  419  28.708  34.017   4.624
27995W        W  420  16.642  35.359   1.026
27996W        W  421   3.910  35.964  11.700
27997W        W  422   1.344  44.388   4.332
27998W        W  423  44.339  27.580   1.246
27999W        W  424  10.908  20.948   3.313
28000W        W  425  36.996  40.435   0.539
28001W        W  426  28.399  29.601   4.735
28002W        W  427  10.317  35.259  11.582
28003W        W  428  32.646  44.873   0.767
28004W        W  429  12.495  44.802   1.452
28005W        W  430  17.505  17.636  11.891
28006W        W  431   6.315   2.323   1.426
28007W        W  432  11.665  42.843   0.449
28008W        W  433  29.097  18.680  14.142
28009W        W  434  41.963   1.821  12.514
28010W        W  435  29.165  37.200   1.391
28011W        W  436  10.178  28.380  12.438
28012W        W  437  25.199  11.909   1.779
28013W        W  438  13.681  24.298  11.999
28014W        W  439  39.468   2.251   0.494
28015W        W  440  44.645  27.118   0.499
28016W        W  441  11.354  44.750  14.291
28017W        W  442  22.028  21.232   3.759
28018W        W  443  40.785  30.050  10.584
28019W        W  444  30.480  42.976   1.785
28020W        W  445   9.668  15.046  13.693
28021W        W  446  30.611  36.139  11.649
28022W        W  447  36.643  20.627   3.977
28023W        W  448   8.231   4.724   2.678
28024W        W  449  18.711  12.816  11.351
28025W        W  450  39.836   1.955  11.613
28026W        W  451  26.965  16.396   1.227
28027W        W  452  33.858  39.349  12.530
28028W        W  453  13.221  26.404  13.032
28029W        W  454  18.575   7.749   2.041
28030W        W  455  44.930  31.577  10.702
28031W        W  456  26.565  44.236   0.437
28032W        W  457   2.304  23.292  13.456
28033W        W  458  19.156  27.249   1.757
28034W        W  459  17.952  33.465   1.731
28035W        W  460  35.022   1.253  13.881
28036W        W  461  36.949  16.518   1.843
28037W        W  462  40.414  17.530  12.874
28038W        W  463  22.786  29.513  13.731
28039W        W  464   0.168  18.256   2.265
28040W        W  465  11.202  35.960  14.788
28041W        W  466  37.028  14.123  14.037
28042W        W  467  27.919  28.063   4.173
28043W        W  468  38.051  28.096  11.137
28044W        W  469  35.414   3.234  12.787
28045W        W  470  10.389  30.283  11.991
28046W        W  471  37.516  30.581   0.795
28047W        W  472  21.198  28.050  10.114
28048W        W  473  21.492  15.273  14.329
28049W        W  474   8.295  27.188  13.586
28050W        W  475  11.597  10.675  14.994
28051W        W  476  24.520  29.654   3.690
28052W        W  477  14.197  37.841   3.775
28053W        W  478  14.278  40.775   4.333
28054W        W  479  18.240  29.424  12.974
28055W        W  480  22.357   2.208  13.582
28056W        W  481   9.365  20.556   2.896
28057W        W  482   5.967   5.793  10.701
28058W        W  483   6.163  27.034   2.211
28059W        W  484  10.332   5.230   4.558
28060W        W  485  44.314  34.230  10.275
28061W        W  486  20.063  18.559   3.348
28062W        W  487  42.401   3.636   1.350
28063W        W  488  21.450  16.295   3.618
28064W        W  489   0.700  39.123  14.870
28065W        W  490  43.569  12.689   0.367
28066W        W  491   3.784  10.345  10.881
28067W        W  492  36.059  33.530  14.975
28068W        W  493  30.649  40.539  10.228
28069W        W  494  24.993  14.365   2.637
28070W        W  495   8.121   7.439  12.991
28071W        W  496  31.636  26.555  14.810
28072W        W  497  36.589  27.243  13.768
28073W        W  498  21.644  19.512   1.336
28074W        W  499  13.578   2.728  12.001
28075W        W  500  29.576  29.931   1.190
28076W        W  501   1.431  26.222   0.953
28077W        W  502  38.442  32.508   2.226
28078W        W  503  44.765  28.035  10.253
28079W        W  504  28.706  16.658  11.661
28080W        W  505  15.433   1.734   4.403
28081W        W  506  36.269  31.559  12.995
28082W        W  507  38.331   9.141  12.938
28083W        W  508  37.815   1.310   4.111
28084W        W  509  12.785   9.117  13.408
28085W        W  510  21.289   9.436   0.843
28086W        W  511   7.857   1.433   1.358
28087W        W  512  12.733   4.401   9.907
28088W        W  513   4.029   3.055  11.532
28089W        W  514  40.428   7.467  13.380
28090W        W  515   7.294  34.013   4.067
28091W        W  516   1.477  37.931  13.764
28092W        W  517  23.220  13.091   1.416
28093W        W  518  41.310  40.928   3.232
28094W        W  519   4.631  20.024  11.513
28095W        W  520  19.657   9.750   0.499
28096W        W  521  37.003  34.963   4.520
28097W        W  522  41.299  36.005   0.471
28098W        W  523  11.146  12.665   2.788
28099W        W  524  21.441  40.783   4.139
28100W        W  525  21.933   0.873   1.158
28101W        W  526   5.142  10.215   1.396
28102W        W  527  10.703   8.194   4.459
28103W        W  528   5.874  41.013  14.564
28104W        W  529   9.347  20.176   1.711
28105W        W  530   2.115   8.618  13.521
28106W        W  531   5.893  20.254  11.101
28107W        W  532  34.855  35.160  11.671
28108W        W  533  31.589  31.611  13.815
28109W        W  534  26.692  43.148   1.882
28110W        W  535  27.949   0.850   0.766
28111W        W  536  33.129   9.328   1.267
28112W        W  537  15.300  11.876   0.937
28113W        W  538   0.931  33.596  12.161
28114W        W  539  26.864  29.677  14.526
28115W        W  540  36.488  18.687   0.717
28116W        W  541  32.325  15.483   1.246
28117W        W  542   5.846   6.408  11.170
28118W        W  543  31.156   8.845   3.601
28119W        W  544  37.908   1.131  14.194
28120W        W  545  20.501  19.712   4.563
28121W        W  546  32.983  24.229  12.095
28122W        W  547  22.331  41.062  12.684
28123W        W  548  15.762  39.032   1.884
28124W        W  549   0.867  19.687  12.459
28125W        W  550  33.071  19.571  13.873
28126W        W  551   2.479  11.848   1.020
28127W        W  552  30.228  15.624  13.520
28128W        W  553  43.410  36.581  12.592
28129W        W  554  27.994  15.842   3.259
28130W        W  555  15.221  35.469  14.757
28131W        W  556  42.442  24.158   1.023
28132W        W  557  43.557  22.081  10.583
28133W        W  558  23.622  11.446   0.358
28134W        W  559  32.217  34.698  11.525
28135W        W  560  12.296   4.880  12.631
28136W        W  561  18.787  21.513   2.249
28137W        W  562  42.110  16.600  11.209
28138W        W  563  26.453  15.680  13.878
28139W        W  564  13.381  40.259   0.358
28140W        W  565  40.004   1.444  11.597
28141W        W  566  15.584   4.974   2.406
28142W        W  567   5.327  39.472   3.155
28143W        W  568  15.450  24.178   3.585
28144W        W  569  41.814   4.106  11.490
28145W        W  570  31.074  12.528   2.665
28146W        W  571  14.328  16.524   3.096
28147W        W  572  40.984  32.034  10.445
28148W        W  573  15.031   1.575  10.970
28149W        W  574  13.349   9.895   1.275
28150W        W  575   8.062  23.509  11.914
28151W        W  576  40.484  25.647   3.458
28152W        W  577  34.125  40.185  13.363
28153W        W  578  36.655  39.640   4.705
28154W        W  579   6.462   6.461   1.348
28155W        W  580  33.067  29.459  13.037
28156W        W  581  15.831  13.578  10.643
28157W        W  582  30.841  28.606  10.579
28158W        W  583   4.348   2.303  14.932
28159W        W  584  20.223  10.494  12.516
28160W        W  585  11.524  20.044  13.078
28161W        W  586  19.162   9.027  12.424
28162W        W  587  36.520  29.673  12.050
28163W        W  588  32.057  37.439  11.210
28164W        W  589  15.831  41.283  14.783
28165W        W  590  40.309  25.459   2.310
28166W        W  591  31.495  17.773  13.956
28167W        W  592  18.151  22.171  11.042
28168W        W  593   0.686  18.240   2.375
28169W        W  594  32.361  29.912   1.135
28170W        W  595  42.083   7.404  13.465
28171W        W  596  40.222   7.566   4.982
28172W        W  597   4.350  35.096   2.435
28173W        W  598  41.556  37.153   4.071
28174W        W  599  16.146  18.986  13.879
28175W        W  600  18.729   9.323   1.283
28176W        W  601  11.432   0.996  10.588
28177W        W  602   2.342   7.532   1.766
28178W        W  603  18.635  33.416  11.914
28179W        W  604  27.876  39.722  11.556
28180W        W  605   0.423  11.296   3.786
28181W        W  606   3.771  44.337   9.951
28182W        W  607   9.693  21.545   2.086
28183W        W  608  31.260   5.986  11.233
28184W        W  609  13.876   1.060  14.629
28185W        W  610   3.044  23.572   1.739
28186W        W  611   2.451  11.575  11.740
28187W        W  612  41.990  42.943   3.925
28188W        W  613  16.628  32.515   9.731
28189W        W  614   4.440   1.683  11.156
28190W        W  615  13.786  38.799  14.899
28191W        W  616  39.494  39.442   2.873
28192W        W  617  27.159  43.605  14.628
28193W        W  618  44.461  19.759  13.979
28194W        W  619   3.321  11.380   0.011
28195W        W  620  32.980   3.407   4.450
28196W        W  621   6.313  44.284   2.627
28197W        W  622   6.149  39.256   1.952
28198W        W  623  42.407  36.073  14.837
28199W        W  624  15.708  22.228  10.926
28200W        W  625  15.353  29.976  11.011
28201W        W  626  44.343  14.537  12.910
28202W        W  627   6.235  17.758   4.216
28203W        W  628  16.057  44.457  14.725
28204W        W  629  12.284  17.774   2.267
28205W        W  630   1.985   3.473   2.913
28206W        W  631  39.972  30.085   4.828
28207W        W  632   9.337  13.477  10.661
28208W        W  633  43.955  31.124  10.679
28209W        W  634   9.779  35.813  12.870
28210W        W  635  20.642  38.295  12.260
28211W        W  636  25.140  26.672  12.345
28212W        W  637  44.983  42.370   3.426
28213W        W  638  39.438  27.594   4.867
28214W        W  639   0.814  33.790   4.572
28215W        W  640  34.943  34.043  14.861
28216W        W  641  11.694  21.183  13.475
28217W        W  642   3.318  36.638   4.363
28218W        W  643   0.235  20.732  11.173
28219W        W  644  12.536  42.912   3.105
28220W        W  645   6.349  18.520   0.369
28221W        W  646   9.305   7.579   0.780
28222W        W  647  28.422  22.026  12.127
28223W        W  648  35.139  34.488   5.030
28224W        W  649  33.035  11.299   0.685
28225W        W  650  17.815   1.883   4.774
28226W        W  651   7.083  19.506  11.129
28227W        W  652  26.464  27.427  12.423
28228W        W  653  15.702  35.600  11.054
28229W        W  654   5.163   6.332  13.398
28230W        W  655  31.667   6.919   1.946
28231W        W  656  15.787  14.173  14.423
28232W        W  657   2.031  30.424   4.564
28233W        W  658  34.870  11.256  10.853
28234W        W  659  34.895  26.667   4.600
28235W        W  660   5.591  42.053   1.735
28236W        W  661  19.984  11.741   3.370
28237W        W  662  22.967  15.576  10.020
28238W        W  663  12.753  30.375   1.870
28239W        W  664  44.420   1.658   0.275
28240W        W  665  32.209  40.940   4.008
28241W        W  666  36.032  27.165  13.038
28242W        W  667  23.127   1.897   4.084
28243W        W  668  22.343  30.559   1.231
28244W        W  669  19.468  13.360   1.843
28245W        W  670  33.480  15.260   4.053
28246W        W  671  12.823  17.261  12.117
28247W        W  672  23.189   6.908  13.352
28248W        W  673  20.525  30.100   0.663
28249W        W  674  23.435  11.167   4.313
28250W        W  675  19.660  38.246  12.170
28251W        W  676   9.646  42.899   4.230
28252W        W  677  37.669  10.175  11.129
28253W        W  678  38.628  23.198  14.829
28254W        W  679  22.658   1.208   0.861
28255W        W  680  37.542  43.238  13.056
28256W        W  681  29.812  32.924   0.195
28257W        W  682   4.241  18.634   4.633
28258W        W  683  41.617  44.779  10.385
28259W        W  684  36.401  12.121   3.298
28260W        W  685  11.266  43.174   4.525
28261W        W  686  39.380  14.072   3.544
28262W        W  687  44.777  28.908  13.788
28263W        W  688  34.529  17.863  14.258
28264W        W  689  11.260   5.980  10.474
28265W        W  690   8.831  22.244   0.453
28266W        W  691  43.971  24.696  14.474
28267W        W  692  38.098  14.450  10.969
28268W        W  693  22.966   6.134   3.297
28269W        W  694  40.277  27.928  14.326
28270W        W  695   8.759  43.345  13.086
28271W        W  696  35.477  28.872   0.353
28272W        W  697  31.339  42.172   2.809
28273W        W  698  14.047  31.134  12.304
28274W        W  699  37.897  21.650   4.066
28275W        W  700  18.616  26.749   1.196
28276W        W  701  40.842   6.204   3.244
28277W        W  702  28.045  21.530   2.814
28278W        W  703  27.669  44.204   1.479
28279W        W  704  27.176  17.870   4.991
28280W        W  705  23.576  21.636   3.183
28281W        W  706  10.326  17.357  11.195
28282W        W  707  21.578  33.239  11.039
28283W        W  708  13.604  30.264   3.398
28284W        W  709  12.388  32.617   0.585
28285W        W  710  40.098  32.377   4.189
28286W        W  711  15.455  35.291  13.952
28287W        W  712  15.288  23.066   2.244
28288W        W  713  13.899   3.008   3.598
28289W        W  714  20.834  31.598  11.726
28290W        W  715  22.653   0.333  12.547
28291W        W  716  24.199   9.885  13.617
28292W        W  717  35.699  16.987  11.242
28293W        W  718   3.260  23.547  11.129
28294W        W  719  11.266   4.449   4.156
28295W        W  720  43.422  25.536  14.867
28296W        W  721  14.359  30.977   0.207
28297W        W  722  12.310   2.949  12.873
28298W        W  723  32.833   8.918   1.353
28299W        W  724   5.150  17.899  14.897
28300W        W  725  39.332  24.666  11.726
28301W        W  726  12.310   5.664   2.136
28302W        W  727  37.555  27.992  13.340
28303W        W  728  35.544  31.131   4.117
28304W        W  729  26.601   5.394  12.429
28305W        W  730  20.323  23.224   0.414
28306W        W  731   9.346  24.609   2.232
28307W        W  732  20.500  35.149   2.311
28308W        W  733  32.106  21.468  14.081
28309W        W  734  15.421   7.578   4.102
28310W        W  735  34.314   2.945  11.653
28311W        W  736  23.690  11.982  12.076
28312W        W  737  28.561  14.778   5.003
28313W        W  738  41.174  20.676   4.537
28314W        W  739  41.017  37.056   1.628
28315W        W  740  16.694  13.839  14.785
28316W        W  741  32.909  13.100   4.658
28317W        W  742  21.164  43.548   3.565
28318W        W  743  33.950   7.586  14.071
28319W        W  744  31.609  15.081  11.072
28320W        W  745  22.692  29.574  14.242
28321W        W  746  31.476  24.390  13.786
28322W        W  747   8.962  15.249  12.601
28323W        W  748  17.185  36.448   5.007
28324W        W  749  14.090  12.797   2.758
28325W        W  750  32.795   8.700   4.373
28326W        W  751  13.698  44.505   2.797
28327W        W  752  11.717  13.605   4.290
28328W        W  753   7.523  21.012  11.642
28329W        W  754  26.554  17.117  13.082
28330W        W  755  31.904  28.064  13.865
28331W        W  756   7.367  10.084   3.838
28332W        W  757  22.924  25.073   4.529
28333W        W  758   6.819  37.746  11.905
28334W        W  759  42.493  11.740  10.746
28335W        W  760  24.195   5.603   2.621
28336W        W  761  30.888  43.530   0.892
28337W        W  762  23.538  35.115  10.969
28338W        W  763  40.027  23.215  14.740
28339W        W  764  38.799  44.022   2.800
28340W        W  765  18.134  10.808   2.530
28341W        W  766  16.962  33.038   3.220
28342W        W  767  36.961  43.995   0.681
28343W        W  768  29.698   1.286  10.810
28344W        W  769  14.135  34.630  12.946
28345W        W  770  26.611  27.564   2.099
28346W        W  771  39.891  21.120   1.292
28347W        W  772   9.768  33.912   3.240
28348W        W  773  28.945  15.099  14.865
28349W        W  774  17.630  33.518   3.133
28350W        W  775   9.288  24.009   4.410
28351W        W  776  32.151  28.679   0.316
28352W        W  777  35.062  18.595  11.026
28353W        W  778   3.220  40.977   0.636
28354W        W  779  44.925   6.128   4.372
28355W        W  780  44.431   8.259   2.214
28356W        W  781  11.256  16.619  13.131
28357W        W  782  37.462   1.230   2.173
28358W        W  783  41.162  19.049   4.018
28359W        W  784   9.878  36.141   4.653
28360W        W  785  17.771  30.115   0.462
28361W        W  786  44.491  12.738   5.106
28362W        W  787  27.403  10.828   0.304
28363W        W  788  26.484  26.238  12.046
28364W        W  789  28.917   8.709  11.952
28365W        W  790  35.390   0.477   2.871
28366W        W  791  42.964  14.171  14.792
28367W        W  792  17.038  14.240  12.609
28368W        W  793  16.620   5.191   4.896
28369W        W  794  42.847  18.347  10.573
28370W        W  795   3.728  17.033  10.290
28371W        W  796  36.904  11.356   0.949
28372W        W  797  18.745  21.732  13.576
28373W        W  798  12.898  25.089   0.283
28374W        W  799  42.972  23.482  10.708
28375W        W  800  36.625  17.092  12.359
28376W        W  801   3.971  28.568  10.593
28377W        W  802  20.656   5.393   1.177
28378W        W  803  14.104   0.334  10.660
28379W        W  804  20.428  14.834  14.952
28380W        W  805  18.688  39.354  11.364
28381W        W  806  28.565  42.687   0.898
28382W        W  807   2.007   1.781  11.073
28383W        W  808  42.565  44.925   0.883
28384W        W  809  23.698  35.407   4.568
28385W        W  810  24.717   0.262   2.770
28386W        W  811  29.614  17.107  11.077
28387W        W  812  12.186   4.715   1.240
28388W        W  813  12.591  36.612   2.256
28389W        W  814  22.441  22.724   4.515
28390W        W  815  43.919  35.960  12.817
28391W        W  816  34.957  19.252   4.010
28392W        W  817  40.323  44.779  14.586
28393W        W  818  33.876  44.770  14.402
28394W        W  819  42.726  43.105  13.051
28395W        W  820  10.560  11.128  14.392
28396W        W  821  23.708  13.085   3.160
28397W        W  822  27.768  20.788   3.281
28398W        W  823  37.877  44.862   0.475
28399W        W  824  38.884   2.434   4.073
28400W        W  825  21.986  12.437   2.316
28401W        W  826  30.921   3.218  10.360
28402W        W  827   5.250  24.564   0.495
28403W        W  828  24.275  30.453   5.371
28404W        W  829  44.929  33.319   1.702
28405W        W  830  22.665  32.506  11.002
28406W        W  831  23.460  29.656  11.579
28407W        W  832  14.032  24.073   3.127
28408W        W  833  16.249   1.747  10.610
28409W        W  834   2.022  22.340   3.117
28410W        W  835  22.837  38.911   3.723
28411W        W  836  28.512   6.601   0.189
28412W        W  837  19.109  20.254   3.600
28413W        W  838   3.633  29.359   5.221
28414W        W  839  28.729  13.792  11.495
28415W        W  840  12.288  34.493   2.215
28416W        W  841   1.951  26.057   3.122
28417W        W  842  12.357  34.922   0.896
28418W        W  843  19.866   1.572  12.907
28419W        W  844  22.697  26.265   3.820
28420W        W  845  29.746   3.772  11.629
28421W        W  846  19.728  43.057   4.577
28422W        W  847  32.634  39.562   3.561
28423W        W  848  24.631  13.204  12.295
28424W        W  849   9.813  19.606   0.172
28425W        W  850  31.535  14.132  13.400
28426W        W  851   8.587   5.205   3.683
28427W        W  852   4.861  12.561   1.328
28428W        W  853  20.673   0.949   2.385
28429W        W  854  31.347  42.431  11.895
28430W        W  855  33.357  43.866  14.428
28431W        W  856  40.798  15.908  11.611
28432W        W  857  28.418  44.512   1.222
28433W        W  858   0.319  25.575  11.553
28434W        W  859  28.508   4.211  11.575
28435W        W  860  42.418   2.176  11.712
28436W        W  861  36.115   8.403   2.858
28437W        W  862  38.408   7.227  10.404
28438W        W  863  32.938  15.582  11.112
28439W        W  864   2.802   5.923  12.035
28440W        W  865  19.649  27.560  13.964
28441W        W  866  28.083  24.622  10.982
28442W        W  867   6.017   8.004   2.924
28443W        W  868   0.874  42.871   1.974
28444W        W  869  25.032  23.534  11.560
28445W        W  870  32.636  41.498  11.332
28446W        W  871  38.490  26.585   0.559
28447W        W  872  13.800  43.370   1.850
28448W        W  873   5.882  15.084  11.741
28449W        W  874  36.344   1.934  13.812
28450W        W  875  20.436  19.043  13.105
28451W        W  876   3.955  34.064  13.829
28452W        W  877  27.012  34.026  10.682
28453W        W  878  10.371  33.602   1.317
28454W        W  879  44.470   5.887   3.709
28455W        W  880  28.546   5.299   4.174
28456W        W  881  32.000  21.093   0.779
28457W        W  882  36.938  36.455  14.440
28458W        W  883  14.761   7.146   1.225
28459W        W  884  38.401  16.103  10.734
28460W        W  885  35.931  30.591   0.226
28461W        W  886  37.114  23.135   0.943
28462W        W  887  16.597  18.743  13.041
28463W        W  888  25.083  24.752  14.880
28464W        W  889   4.309  27.709   4.205
28465W        W  890  16.031  18.005   4.472
28466W        W  891  32.389  44.951  13.510
28467W        W  892  24.816  39.327   1.402
28468W        W  893  12.465  15.100  10.620
28469W        W  894  30.008   8.824  13.813
28470W        W  895   4.153  24.122  11.680
28471W        W  896  22.103  12.676   4.052
28472W        W  897   5.774  38.488  10.982
28473W        W  898  12.549  10.809  11.571
28474W        W  899   9.857  11.915   1.349
28475W        W  900  31.139   0.684   2.888
28476W        W  901  18.274  20.066  13.605
28477W        W  902  21.745   2.665   4.065
28478W        W  903  10.779  27.737   3.511
28479W        W  904  43.327  33.533  12.164
28480W        W  905   7.850  17.190  10.361
28481W        W  906   2.607   6.292   1.738
28482W        W  907  38.578   8.066   0.174
28483W        W  908  15.502   8.601  10.739
28484W        W  909   7.089  37.609   1.187
28485W        W  910  12.437  15.983   2.743
28486W        W  911  17.945  25.017   3.769
28487W        W  912  24.018  38.078  11.298
28488W        W  913  19.937  32.473   1.448
28489W        W  914  17.890  16.968   3.911
28490W        W  915  38.588   3.197   2.303
28491W        W  916  33.213  37.441  14.407
28492W        W  917   4.372  38.883   4.070
28493W        W  918   8.808  35.475   0.303
28494W        W  919   7.415   6.621   1.678
28495W        W  920  14.927  23.752  14.988
28496W        W  921  28.797   7.805  14.029
28497W        W  922  17.947  15.212   4.584
28498W        W  923  16.533   2.777  13.821
28499W        W  924  34.142  10.418   1.621
28500W        W  925  36.417   3.151   0.362
28501W        W  926   5.376   8.986   0.188
28502W        W  927  42.813  44.048   0.391
28503W        W  928  39.782  38.499   0.961
28504W        W  929  42.061  22.828   1.967
28505W        W  930   6.523  10.706   2.331
28506W        W  931  12.390  41.431  12.512
28507W        W  932  16.309  22.067   3.210
28508W        W  933   1.050  22.832   4.778
28509W        W  934  10.236   9.408   4.551
28510W        W  935  10.185  30.066   2.413
28511W        W  936  43.415  19.045  11.098
28512W        W  937  17.506  41.471  13.934
28513W        W  938  21.807  33.667  12.083
28514W        W  939  10.224  40.553  13.382
28515W        W  940  42.845   1.221  10.786
28516W        W  941  20.277  37.073   2.145
28517W        W  942  34.202  20.441   3.692
28518W        W  943  37.410  26.167  11.533
28519W        W  944   9.854  21.019  13.910
28520W        W  945  17.552  41.686  12.145
28521W        W  946  21.778  20.195  12.512
28522W        W  947   7.374  40.536   0.993
28523W        W  948  30.036  26.876   4.684
28524W        W  949   5.735  21.213  13.509
28525W        W  950   9.189   9.947   4.340
28526W        W  951  25.057   4.239   2.184
28527W        W  952   0.799  25.654   1.318
28528W        W  953  20.851  26.106   2.263
28529W        W  954  14.202  34.068  14.149
28530W        W  955  29.153  11.746   3.853
28531W        W  956  40.813  15.367   2.893
28532W        W  957  44.348   7.447   1.730
28533W        W  958  43.521  27.093   3.201
28534W        W  959   1.934  40.641   0.452
28535W        W  960  29.747  18.534   2.990
28536W        W  961  30.477   5.921  11.619
28537W        W  962  15.139  16.792   2.217
28538W        W  963   1.809  30.934  14.335
28539W        W  964  40.466  33.088   0.932
28540W        W  965   6.739  37.703   3.405
28541W        W  966  36.688  44.988   3.655
28542W        W  967  15.063   5.701   0.341
28543W        W  968  27.034  42.790  11.111
28544W        W  969  11.601  13.389   0.789
28545W        W  970  39.361  24.208   1.627
28546W        W  971  24.588  28.675   2.166
28547W        W  972  44.226  15.231  14.513
28548W        W  973  28.328  42.559   3.452
28549W        W  974  10.624  30.992  11.026
28550W        W  975  34.024  21.164   4.140
28551W        W  976   9.852  29.514   3.658
28552W        W  977  40.571   4.190  13.845
28553W        W  978  31.491  28.369  12.862
28554W        W  979   5.795   1.412  12.554
28555W        W  980  22.605   5.711   4.598
28556W        W  981  35.013   2.932  13.079
28557W        W  982  29.121  17.148  10.946
28558W        W  983  20.057   6.350   4.186
28559W        W  984  19.487   6.627  11.212
28560W        W  985  13.468  32.429  13.698
28561W        W  986  17.434  31.295  12.084
28562W        W  987   0.239  39.597  14.397
28563W        W  988  18.700   6.389  13.942
28564W        W  989  17.575  13.570  14.910
28565W        W  990  34.322  11.223  10.645
28566W        W  991   8.459  43.380  12.069
28567W        W  992  12.224  16.274  11.603
28568W        W  993  13.155  39.288  14.321
28569W        W  994  17.992   9.625   1.268
28570W        W  995  22.483  31.475  13.380
28571W        W  996   7.785  39.513   0.599
28572W        W  997   3.700   3.676  10.636
28573W        W  998  39.113  18.668   1.373
28574W        W  999  36.355  42.252  12.410
28575W        W 1000  42.133  43.270   0.382
28576W        W 1001  14.183   9.174  13.307
28577W        W 1002  36.701  11.779  13.983
28578W        W 1003  15.526   8.655   4.573
28579W        W 1004  10.023  24.603   1.451
28580W        W 1005   6.949  21.792  11.225
28581W        W 1006  33.435  15.090   0.263
28582W        W 1007   9.790   8.903  13.360
28583W        W 1008  32.488  11.286  11.501
28584W        W 1009  41.743  13.215   3.582
28585W        W 1010  26.660  17.049  11.225
28586W        W 1011   3.146  35.364   0.393
28587W        W 1012  33.826  44.825  12.649
28588W        W 1013  18.824  24.732  14.895
28589W        W 1014   5.338  30.128   0.286
28590W        W 1015   5.730  22.192   1.814
28591W        W 1016  25.522  15.848   0.353
28592W        W 1017  35.107  21.639   4.366
28593W        W 1018  24.078   4.876  13.458
28594W        W 1019  39.809  27.662   2.119
28595W        W 1020   8.209  22.312  14.674
28596W        W 1021  18.523  11.125  12.914
28597W        W 1022   7.730  26.600   1.934
28598W        W 1023  12.656   8.968   3.707
28599W        W 1024  36.792   4.960  12.516
28600W        W 1025  30.138   9.082   0.457
28601W        W 1026  27.728  40.531  14.436
28602W        W 1027  16.275   1.260   2.951
28603W        W 1028  21.259  33.323   4.125
28604W        W 1029  31.700  14.592   0.705
28605W        W 1030  40.877  39.352   1.513
28606W        W 1031  10.913  10.872   2.715
28607W        W 1032  33.359  22.460   2.379
28608W        W 1033  11.874   1.938  14.859
28609W        W 1034  33.842  17.169  12.556
28610W        W 1035  27.949  39.105   3.589
28611W        W 1036  17.028  16.101  11.659
28612W        W 1037   9.059   6.841  11.416
28613W        W 1038  20.001   5.952   2.123
28614W        W 1039  12.095  19.954  14.907
28615W        W 1040  40.445  38.251  11.327
28616W        W 1041  12.159  31.530  14.430
28617W        W 1042   4.822  29.603  13.590
28618W        W 1043   8.969  22.648   5.070
28619W        W 1044  39.476  38.389  11.154
28620W        W 1045  25.491  43.758  11.956
28621W        W 1046  39.369   2.913  11.590
28622W        W 1047  34.023  23.112   4.185
28623W        W 1048  34.873   3.241   3.665
28624W        W 1049   5.022  26.714  11.106
28625W        W 1050   0.521  38.761  12.433
28626W        W 1051  34.141   0.483  11.533
28627W        W 1052  12.435  42.658   0.907
28628W        W 1053  10.174  23.494  10.617
28629W        W 1054  15.763  11.698   1.877
28630W        W 1055  13.109  17.768   3.755
28631W        W 1056  15.454  13.271  10.758
28632W        W 1057  34.085   8.328   1.186
28633W        W 1058   8.017  23.339  13.991
28634W        W 1059  24.202  30.863  11.157
28635W        W 1060   0.288  42.443   0.380
28636W        W 1061  11.180   1.597   4.570
28637W        W 1062  25.049  35.908  10.618
28638W        W 1063  23.191   2.489  13.339
28639W        W 1064  34.949  21.253  12.347
28640W        W 1065  35.116  34.338   0.266
28641W        W 1066  14.279   6.171  12.967
28642W        W 1067  20.257  40.402   3.226
28643W        W 1068  16.040  20.810   4.088
28644W        W 1069  41.458  44.107   4.538
28645W        W 1070  42.975  21.071   1.472
28646W        W 1071   4.428  43.262   4.131
28647W        W 1072  37.393  25.947  14.988
28648W        W 1073   2.353  38.870  13.328
28649W        W 1074  13.086  29.146   1.819
28650W        W 1075  34.660  24.498  13.321
28651W        W 1076   1.737  40.344  14.482
28652W        W 1077  20.122  37.581   1.927
28653W        W 1078  18.571  34.313   4.704
28654W        W 1079  19.725  11.594  10.472
28655W        W 1080   3.617  37.945  13.980
28656W        W 1081  44.077  24.581   0.313
28657W        W 1082  23.578   2.266  12.005
28658W        W 1083  31.154  21.192   1.971
28659W        W 1084   6.641  12.080   4.862
28660W        W 1085  31.963  17.755   0.936
28661W        W 1086  10.703  32.067  11.134
28662W        W 1087   3.437   7.409   1.688
28663W        W 1088  29.637  21.975  11.498
28664W        W 1089  12.850   7.155   2.714
28665W        W 1090  21.327  44.434  11.298
28666W        W 1091  41.074  35.945   1.128
28667W        W 1092   3.192  36.344  12.001
28668W        W 1093   6.309  10.733  13.075
28669W        W 1094  31.150  28.134   0.905
28670W        W 1095  44.800  28.438  10.701
28671W        W 1096  40.221  10.634  13.902
28672W        W 1097  23.057  39.552   2.817
28673W        W 1098  44.659   0.293   4.086
28674W        W 1099  30.133  18.790   4.177
28675W        W 1100   7.238  20.542  10.972
28676W        W 1101  19.244  44.295   3.696
28677W        W 1102  29.984   3.349   0.495
28678W        W 1103   7.594  30.638   4.583
28679W        W 1104  12.765  38.910   1.307
28680W        W 1105  11.282  17.164   2.269
28681W        W 1106  43.978  41.069   3.659
28682W        W 1107  29.475  36.156   3.664
28683W        W 1108  28.632   3.328   2.202
28684W        W 1109   6.795  23.356   0.347
28685W        W 1110  31.469  31.876   0.952
28686W        W 1111  40.773   4.844   2.518
28687W        W 1112   5.062  35.552  10.196
28688W        W 1113  21.582  43.721  14.118
28689W        W 1114   8.681  26.948   3.888
28690W        W 1115   9.781  38.583  13.732
28691W        W 1116   6.242  17.606   2.164
28692W        W 1117   8.913  12.270  11.328
28693W        W 1118  12.700  29.950  12.807
28694W        W 1119   2.656  18.280   2.600
28695W        W 1120  14.272  29.758   1.408
28696W        W 1121   6.360  37.956   1.177
28697W        W 1122   7.779  32.025  13.866
28698W        W 1123   8.509  31.588   3.410
28699W        W 1124  23.782  19.911   3.808
28700W        W 1125  34.221   2.841   4.624
28701W        W 1126  17.315  19.503   3.153
28702W        W 1127  21.929  21.788   2.291
28703W        W 1128  14.668  37.229   2.245
28704W        W 1129  41.979  14.187   3.627
28705W        W 1130   2.451  15.320   3.219
28706W        W 1131   2.965  37.998  10.606
28707W        W 1132   8.877   0.199   1.140
28708W        W 1133   2.416   2.978   3.246
28709W        W 1134   8.240  22.275   4.134
28710W        W 1135  23.259  28.670  12.520
28711W        W 1136  24.822  17.246   1.495
28712W        W 1137  35.314  11.030   2.218
28713W        W 1138   3.771  14.334   3.147
28714W        W 1139  40.579   5.440   4.840
28715W        W 1140   9.733  20.554  11.755
28716W        W 1141  44.642  23.671   0.684
28717W        W 1142  11.568  28.586  13.860
28718W        W 1143  12.182  17.915  12.426
28719W        W 1144  42.904  23.403   2.161
28720W        W 1145   6.306  28.947   0.465
28721W        W 1146  32.035  13.423  14.818
28722W        W 1147  37.622  15.185  11.929
28723W        W 1148  30.806  31.584  11.041
28724W        W 1149  44.647   2.608  13.007
28725W        W 1150  36.352  44.790  12.011
28726W        W 1151  25.840   7.764  10.742
28727W        W 1152  40.235  15.858  12.561
28728W        W 1153  20.894  25.815   3.279
28729W        W 1154   6.268  40.103  10.631
28730W        W 1155  28.470  30.967   2.870
28731W        W 1156  22.217   3.909  14.532
28732W        W 1157  18.709  34.698   0.794
28733W        W 1158  25.474  11.055  11.504
28734W        W 1159  15.448  43.582  13.787
28735W        W 1160   3.582   7.233   3.149
28736W        W 1161  33.965  31.600   1.969
28737W        W 1162  29.430  40.826   0.698
28738W        W 1163  24.545  40.910   3.079
28739W        W 1164  28.474  20.201   0.830
28740W        W 1165  25.061  16.218   2.285
28741W        W 1166  22.242  40.057   4.161
28742W        W 1167   7.345   1.357   1.421
28743W        W 1168  13.657  30.174   2.496
28744W        W 1169  41.815   1.533  10.679
28745W        W 1170  24.640  25.415   1.673
28746W        W 1171  29.895   7.221  14.526
28747W        W 1172  32.402  32.066   2.960
28748W        W 1173  32.350  23.698   2.873
28749W        W 1174  19.918  10.899  12.604
28750W        W 1175   1.075  29.174   4.534
28751W        W 1176  34.899  29.776   4.123
28752W        W 1177  23.069  32.604   3.684
28753W        W 1178  12.315  12.190   0.271
28754W        W 1179   9.583  32.940   4.561
28755W        W 1180  43.654   7.399  14.311
28756W        W 1181  35.922   2.314  10.748
28757W        W 1182  24.200   2.382  14.875
28758W        W 1183  36.853  16.860  14.278
28759W        W 1184   9.421  29.173   1.176
28760W        W 1185  35.619  13.109   4.105
28761W        W 1186   0.881  36.549  11.042
28762W        W 1187  43.896  41.849   4.774
28763W        W 1188  19.640   8.789  12.285
28764W        W 1189   6.938  39.637  12.397
28765W        W 1190   3.612  22.541   0.463
28766W        W 1191  12.890   5.864  14.110
28767W        W 1192   5.838  40.847   0.503
28768W        W 1193  41.360  21.972  14.097
28769W        W 1194   4.852  25.886   4.225
28770W        W 1195  14.494  26.640  14.407
28771W        W 1196   3.787  44.852   4.648
28772W        W 1197  23.158  10.758   0.016
28773W        W 1198  35.579  40.154  11.967
28774W        W 1199  38.566  44.345   1.360
28775W        W 1200  42.972  42.734  14.305
28776W        W 1201   5.842   2.486   4.641
28777W        W 1202  19.960  33.017  14.936
28778W        W 1203   1.757  16.149   1.984
28779W        W 1204  20.839  22.079  12.320
28780W        W 1205  23.263  37.512   3.736
28781W        W 1206  28.225  13.709   0.708
28782W        W 1207  10.413   9.142  13.803
28783W        W 1208  28.515   6.068   0.003
28784W        W 1209  30.449  16.403  13.527
28785W        W 1210   5.003  42.748  12.428
28786W        W 1211  13.838  40.792   3.208
28787W        W 1212   8.257  29.990   4.099
28788W        W 1213  30.681   8.112   3.133
28789W        W 1214  27.573  39.997   3.230
28790W        W 1215  35.446  24.272   2.850
28791W        W 1216  12.692  27.482   4.179
28792W        W 1217   7.888   0.977   0.629
28793W        W 1218   3.435   6.453  10.957
28794W        W 1219  36.581  10.745   0.421
28795W        W 1220  16.677  34.155  10.303
28796W        W 1221  18.151   6.202  14.453
28797W        W 1222  20.362  26.705   1.208
28798W        W 1223  40.924  42.999   2.757
28799W        W 1224  10.809  18.331   1.930
28800W        W 1225  21.663   5.406   1.673
28801W        W 1226  15.867  36.532  11.192
28802W        W 1227  33.912  16.960  10.445
28803W        W 1228  25.859   4.869   2.705
28804W        W 1229  31.619  39.338   2.897
28805W        W 1230  40.930  34.441   3.183
28806W        W 1231  31.448  33.632   3.244
28807W        W 1232  18.639  14.351   0.081
28808W        W 1233  44.663  13.328  14.307
28809W        W 1234  44.963  24.697   1.218
28810W        W 1235  34.611  20.980  11.983
28811W        W 1236   9.826  22.084  11.662
28812W        W 1237  28.020   1.408   1.895
28813W        W 1238  33.087  10.413  10.386
28814W        W 1239  14.876  26.249  12.164
28815W        W 1240   6.670   3.965  14.809
28816W        W 1241  33.851  11.560  13.521
28817W        W 1242  41.806   8.463   0.342
28818W        W 1243  21.379  36.562   2.722
28819W        W 1244  22.810  25.477   2.770
28820W        W 1245   4.847   2.752  10.401
28821W        W 1246  43.806  19.516  10.180
28822W        W 1247   5.227  21.513  10.084
28823W        W 1248   2.807  22.473  14.469
28824W        W 1249   9.187  34.591  12.919
28825W        W 1250  20.371  10.535   2.246
28826W        W 1251  41.477  20.758  13.801
28827W        W 1252  12.791  17.588   2.313
28828W        W 1253  35.368  11.627   0.042
28829W        W 1254  27.313   6.351  14.394
28830W        W 1255  29.802  44.587  14.978
28831W        W 1256   5.711   5.272   3.154
28832W        W 1257  20.860  13.585   1.647
28833W        W 1258   5.638  21.511  13.085
28834W        W 1259   4.721  26.462  13.674
28835W        W 1260  27.019  43.641  12.618
28836W        W 1261  42.298   4.943  11.649
28837W        W 1262  13.106  34.994   4.045
28838W        W 1263  40.388  11.766  10.878
28839W        W 1264  41.864  30.436   4.793
28840W        W 1265  24.125  40.213  10.808
28841W        W 1266  10.748  29.447   2.013
28842W        W 1267  21.180  36.869   2.300
28843W        W 1268  13.980  44.720  14.782
28844W        W 1269  19.115  12.178  10.795
28845W        W 1270  28.581  38.582   3.310
28846W        W 1271  29.918   9.599   4.588
28847W        W 1272  32.993  18.572   1.266
28848W        W 1273  17.367   2.318   4.189
28849W        W 1274  15.279   4.938   0.751
28850W        W 1275  27.880  21.600  11.574
28851W        W 1276   6.869  35.931   2.098
28852W        W 1277  14.215   4.289   4.242
28853W        W 1278  32.620   0.862   0.019
28854W        W 1279  31.959  30.687   0.228
28855W        W 1280   2.732  39.275  12.120
28856W        W 1281   6.739  24.533   4.154
28857W        W 1282  35.770  29.740  11.551
28858W        W 1283   4.296  23.679   2.566
28859W        W 1284  19.805  30.973  14.962
28860W        W 1285  30.005  20.928   0.179
28861W        W 1286  13.279  36.502  10.935
28862W        W 1287  28.063   7.710   3.458
28863W        W 1288  30.185  29.650   2.217
28864W        W 1289  31.864  41.867  11.500
28865W        W 1290   1.913   0.039   2.563
28866W        W 1291  18.278  19.135  11.983
28867W        W 1292  30.455   8.757  14.992
28868W        W 1293  12.855  19.977  14.283
28869W        W 1294   2.962  24.966  12.578
28870W        W 1295  31.906  10.184  12.291
28871W        W 1296   5.024  16.754   4.813
28872W        W 1297  39.797  44.877   2.355
28873W        W 1298  33.992  43.626   0.015
28874W        W 1299   9.057   6.746   0.961
28875W        W 1300   0.044  23.707   4.556
28876W        W 1301  21.795   9.300  10.119
28877W        W 1302  41.885   4.177   3.754
28878W        W 1303  36.475  28.025  10.888
28879W        W 1304   1.182  36.511  13.824
28880W        W 1305  15.094  23.582  13.366
28881W        W 1306  15.051  29.579   0.964
28882W        W 1307  26.177  38.959  12.084
28883W        W 1308   6.281  21.993   2.986
28884W        W 1309  35.084  42.045  14.140
28885W        W 1310  40.917  21.538  12.051
28886W        W 1311  24.736  39.992  13.305
28887W        W 1312  11.178   9.746   0.878
28888W        W 1313  14.574   9.770  10.744
28889W        W 1314  37.102   9.185  11.080
28890W        W 1315  41.007  44.016   3.661
28891W        W 1316  43.254  22.551  14.791
28892W        W 1317   1.000  36.666   0.424
28893W        W 1318   6.804  26.769   4.002
28894W        W 1319  22.781  38.609   1.738
28895W        W 1320   4.269  15.186   1.031
28896W        W 1321  13.232  42.456   4.355
28897W        W 1322   7.941  19.079  13.605
28898W        W 1323  20.609  28.030  11.531
28899W        W 1324   9.629   6.452  13.478
28900W        W 1325  36.625  25.186   1.724
28901W        W 1326  25.554  11.333  11.072
28902W        W 1327  23.091  10.156   1.306
28903W        W 1328  19.202   1.586  12.001
28904W        W 1329  37.820  16.745  14.529
28905W        W 1330  34.659   9.680   3.327
28906W        W 1331  20.260  44.497  11.918
28907W        W 1332   8.230  16.848   2.166
28908W        W 1333   8.956  14.713   3.651
28909W        W 1334  21.190  29.640   1.245
28910W        W 1335   2.683   1.246   3.246
28911W        W 1336  24.471  43.749   0.385
28912W        W 1337  40.642  31.552   4.908
28913W        W 1338  36.890   3.972  12.355
28914W        W 1339   7.308  18.735  14.809
28915W        W 1340   9.630   4.213  11.058
28916W        W 1341  25.070  23.599   0.316
28917W        W 1342   5.916   3.464   3.194
28918W        W 1343   3.614  14.555   3.966
28919W        W 1344  27.602  18.235   3.291
28920W        W 1345  25.171  23.381  13.440
28921W        W 1346  19.056  23.119   2.818
28922W        W 1347  18.172  40.287  11.946
28923W        W 1348  40.539   3.867  10.483
28924W        W 1349  36.500  33.348  13.969
28925W        W 1350  17.279  42.094  11.927
28926W        W 1351   4.231  13.123   0.992
28927W        W 1352  28.249  38.337  12.595
28928W        W 1353  37.396  20.090  10.595
28929W        W 1354  39.529   5.794  13.524
28930W        W 1355  15.742  21.758   0.958
28931W        W 1356  38.357  34.069  12.570
28932W        W 1357  13.651  15.135  14.824
28933W        W 1358  33.560  40.161  11.041
28934W        W 1359   2.011  35.008   1.364
28935W        W 1360  30.485  15.143   2.611
28936W        W 1361   4.161  43.095  11.144
28937W        W 1362  33.392   6.651  13.397
28938W        W 1363  28.653  11.839   2.864
28939W        W 1364  42.556  20.579   4.600
28940W        W 1365  23.832   8.829  10.964
28941W        W 1366  15.229   9.917  11.027
28942W        W 1367  11.012  29.474   3.550
28943W        W 1368  29.296  32.528   0.595
28944W        W 1369  35.125  33.609   0.088
28945W        W 1370  26.072  20.483  14.967
28946W        W 1371  40.318  28.355  14.010
28947W        W 1372  24.651  41.308   3.868
28948W        W 1373  12.758   9.155   1.511
28949W        W 1374   3.279  26.742  11.526
28950W        W 1375  33.156  18.662   3.156
28951W        W 1376  34.185  20.944  11.673
28952W        W 1377  11.762  35.489   1.746
28953W        W 1378  32.531  22.147   1.682
28954W        W 1379  37.837   0.406   4.251
28955W        W 1380  27.971  25.636  10.806
28956W        W 1381  36.340  23.245   3.144
28957W        W 1382  36.078  33.206   4.236
28958W        W 1383  12.841  27.247  13.915
28959W        W 1384  35.022  13.432   3.293
28960W        W 1385  41.459  35.877   4.798
28961W        W 1386  31.175  21.572   4.284
28962W        W 1387   3.398   0.516   4.784
28963W        W 1388  27.582  25.268   0.274
28964W        W 1389  23.493  12.115   1.420
28965W        W 1390  36.096  43.402   1.043
28966W        W 1391  15.843  15.188   4.457
28967W        W 1392   1.976   5.072   0.113
28968W        W 1393   8.005  31.639   3.650
28969W        W 1394  24.270  42.419   0.823
28970W        W 1395  36.071  27.494   1.979
28971W        W 1396  27.861  14.772  13.517
28972W        W 1397  31.451  16.271  10.771
28973W        W 1398  38.381  30.833  11.579
28974W        W 1399   9.060  36.286  11.066
28975W        W 1400  43.324   1.421  10.684
28976W        W 1401  14.990   8.769  11.630
28977W        W 1402  31.132  35.699   1.693
28978W        W 1403  10.139  40.890  13.004
28979W        W 1404  29.754   3.408  11.142
28980W        W 1405  35.097  27.963   3.842
28981W        W 1406  37.676  29.594   3.628
28982W        W 1407   0.006  44.521   4.121
28983W        W 1408  28.750  19.086   2.458
28984W        W 1409  24.583  16.811  11.283
28985W        W 1410  18.624  40.114  10.292
28986W        W 1411  30.453  34.074  14.537
28987W        W 1412  17.822   5.817  14.501
28988W        W 1413  35.111  17.637  13.362
28989W        W 1414  25.695  40.382   0.939
28990W        W 1415  21.207  37.717  14.381
28991W        W 1416   3.256  12.585   2.625
28992W        W 1417  17.221  11.191  13.253
28993W        W 1418   0.201  16.649   4.667
28994W        W 1419   0.157  43.022   4.152
28995W        W 1420   9.706  22.172   2.897
28996W        W 1421  15.235   7.318  14.480
28997W        W 1422  39.265   8.849  12.993
28998W        W 1423  16.136  31.517  13.027
28999W        W 1424  37.426  42.039  14.930
29000W        W 1425  35.480  26.054   3.366
29001W        W 1426   9.100  24.672   3.239
29002W        W 1427  44.769  38.923  11.870
29003W        W 1428  19.020  43.535  10.405
29004W        W 1429  31.134  34.037  11.669
29005W        W 1430   1.175  21.620  10.534
29006W        W 1431  35.010  36.166   4.019
29007W        W 1432  10.326  39.397  12.994
29008W        W 1433  36.911  37.349   2.726
29009W        W 1434   8.220  44.319  14.813
29010W        W 1435  41.543  31.414   1.451
29011W        W 1436  14.988  42.445   2.258
29012W        W 1437   5.704  19.090  11.119
29013W        W 1438   0.876  37.342  14.438
29014W        W 1439  30.764  33.382   4.045
29015W        W 1440   3.988  14.348   1.241
29016W        W 1441  15.420  29.681   0.217
29017W        W 1442  18.246  30.685   3.610
29018W        W 1443  23.459   6.226  11.708
29019W        W 1444   6.332  14.599   1.505
29020W        W 1445  21.766  17.756   4.342
29021W        W 1446  44.261  27.470  12.258
29022W        W 1447  38.138  33.621   0.304
29023W        W 1448  30.458  27.661   4.625
29024W        W 1449   2.745  38.989  12.543
29025W        W 1450  23.296  33.289  10.690
29026W        W 1451  41.781  32.968  14.716
29027W        W 1452  33.073  19.452   0.918
29028W        W 1453  30.069   1.627  10.978
29029W        W 1454  25.023  42.344  14.390
29030W        W 1455  41.462  39.860  10.780
29031W        W 1456  39.927  38.135  11.195
29032W        W 1457  12.816  13.179  12.202
29033W        W 1458   6.703  11.762   3.642
29034W        W 1459  43.283  17.187  12.464
29035W        W 1460   0.334  26.696   4.318
29036W        W 1461   4.176  40.386  13.807
29037W        W 1462  23.083   0.780  11.141
29038W        W 1463  34.104   0.432  13.275
29039W        W 1464   6.291   9.094   4.651
29040W        W 1465  33.893  27.628  11.128
29041W        W 1466   2.073   6.302   3.702
29042W        W 1467  16.495  44.492   0.011
29043W        W 1468  25.790   3.398   0.270
29044W        W 1469  25.551  31.700   0.752
29045W        W 1470  11.851   8.341   0.176
29046W        W 1471   0.415  33.485  12.619
29047W        W 1472  35.831  31.755  12.337
29048W        W 1473  29.907  39.813   2.315
29049W        W 1474   1.985  37.395  14.319
29050W        W 1475   1.433  26.530  11.440
29051W        W 1476  43.444   9.357  10.528
29052W        W 1477   2.921  15.308  13.525
29053W        W 1478  27.449  27.566  13.425
29054W        W 1479  11.624  30.066  14.894
29055W        W 1480   9.112  10.913  12.491
29056W        W 1481  38.405  31.561  12.139
29057W        W 1482   9.859  32.727  13.291
29058W        W 1483  20.796  33.113   1.332
29059W        W 1484   4.807   5.888   3.649
29060W        W 1485  33.031  35.383  11.224
29061W        W 1486  23.437  39.139  14.196
29062W        W 1487  21.741  14.636   1.136
29063W        W 1488   2.444  42.826  14.331
29064W        W 1489  23.315  30.799   4.162
29065W        W 1490  10.220   5.353   1.869
29066W        W 1491   4.072  40.461  12.997
29067W        W 1492  14.136  14.769   1.380
29068W        W 1493  28.786  40.319   1.258
29069W        W 1494  20.328   7.347   4.084
29070W        W 1495  33.522  24.958  14.511
29071W        W 1496   0.884  29.544   3.231
29072W        W 1497  25.534  22.066  14.749
29073W        W 1498   7.468  38.431  11.986
29074W        W 1499  37.486  10.253   4.740
29075W        W 1500  17.609  14.046   1.637
29076W        W 1501  35.398   6.355  13.022
29077W        W 1502   5.441  28.475  11.011
29078W        W 1503  28.284  42.031  11.165
29079W        W 1504  44.851   6.314   2.420
29080W        W 1505  38.563   0.423   3.325
29081W        W 1506  37.616  35.129   2.242
29082W        W 1507   7.603  11.596  12.117
29083W        W 1508  27.816  17.533   2.380
29084W        W 1509  12.816  33.582   4.603
29085W        W 1510  26.475  35.230  12.904
29086W        W 1511   2.521  36.996  12.409
29087W        W 1512  38.110  34.198   4.351
29088W        W 1513  39.513  42.985   1.733
29089W        W 1514  18.834  44.947   1.687
29090W        W 1515  20.101  39.333  13.821
29091W        W 1516  18.282  27.675  13.752
29092W        W 1517   8.889  34.949   0.109
29093W        W 1518   8.788  37.131  11.238
29094W        W 1519  25.970   7.182   3.753
29095W        W 1520  31.107  28.431   0.282
29096W        W 1521  21.509  27.091   4.787
29097W        W 1522   8.645  34.656   3.301
29098W        W 1523  23.485  27.673   3.605
29099W        W 1524   9.396  19.121   3.707
29100W        W 1525  22.973  33.879  12.324
29101W        W 1526  25.390  22.283   4.167
29102W        W 1527  32.042   0.794   2.022
29103W        W 1528  23.726  20.109  12.485
29104W        W 1529  13.333  14.351  13.691
29105W        W 1530  11.398   9.877   0.429
29106W        W 1531  15.122   3.276  12.949
29107W        W 1532  17.963  35.389   1.224
29108W        W 1533  13.880  25.530   4.139
29109W        W 1534  10.310  20.319  11.188
29110W        W 1535  17.353  31.580  11.495
29111W        W 1536  37.002  24.093   1.407
29112W        W 1537  34.254  43.881  11.868
29113W        W 1538   7.762  25.945   2.870
29114W        W 1539  18.155  23.546   1.677
29115W        W 1540  44.724  44.808   2.782
29116W        W 1541  40.113  37.014  12.949
29117W        W 1542  17.544  26.154  11.869
29118W        W 1543  23.129  23.778  12.864
29119W        W 1544  18.857  24.393   3.678
29120W        W 1545  30.957   9.691   3.083
29121W        W 1546   6.849  23.504   1.599
29122W        W 1547   3.704  34.446  14.549
29123W        W 1548  25.582  25.983  12.884
29124W        W 1549  24.950  30.946  14.139
29125W        W 1550  44.500  30.156   2.152
29126W        W 1551  13.343   6.801   4.073
29127W        W 1552  32.350  15.306  11.652
29128W        W 1553  31.956  40.277   1.249
29129W        W 1554  40.327   6.929  10.495
29130W        W 1555  34.802  10.374   3.338
29131W        W 1556  35.359  12.131  14.672
29132W        W 1557  21.804  13.396   0.760
29133W        W 1558  37.125   1.960   2.634
29134W        W 1559  42.912   9.180  13.884
29135W        W 1560  43.029  11.408   3.704
29136W        W 1561  23.630  14.066   1.407
29137W        W 1562  43.858   7.763   4.679
29138W        W 1563   9.264   9.771  10.638
29139W        W 1564  39.488  35.969   0.374
29140W        W 1565  22.958  24.567  12.543
29141W        W 1566  29.494  36.059  14.039
29142W        W 1567  41.759  36.539   2.760
29143W        W 1568  25.441  12.878  10.254
29144W        W 1569   8.544  40.654   2.252
29145W        W 1570  28.726   0.373   1.205
29146W        W 1571  21.140  29.723   3.662
29147W        W 1572  36.363  33.910   0.215
29148W        W 1573  33.252  39.010  11.962
29149W        W 1574  32.249  16.251  11.977
29150W        W 1575  28.698   1.269  10.757
29151W        W 1576  37.973  34.934   0.672
29152W        W 1577  31.328  37.783  14.294
29153W        W 1578  24.215  40.273  14.326
29154W        W 1579  35.058  39.464  10.970
29155W        W 1580  17.422  29.214  13.925
29156W        W 1581  22.174  34.865   2.821
29157W        W 1582  33.883  18.751  11.654
29158W        W 1583   6.947  35.141   2.804
29159W        W 1584   3.418  33.506   1.006
29160W        W 1585  15.906  43.010  10.752
29161W        W 1586  15.673  43.889  10.231
29162W        W 1587   4.389  42.989   2.417
29163W        W 1588  18.040  32.289   4.936
29164W        W 1589  37.844  20.987  12.452
29165W        W 1590  36.983  26.519   1.235
29166W        W 1591  33.085  27.138   4.145
29167W        W 1592  34.513  35.427  13.379
29168W        W 1593  44.785  34.658   0.025
29169W        W 1594  43.018  30.821   0.769
29170W        W 1595  13.515  16.190  12.618
29171W        W 1596   8.667  20.338   0.328
29172W        W 1597  24.732  16.242   4.137
29173W        W 1598  36.026   2.976  12.168
29174W        W 1599  14.542   7.605   1.060
29175W        W 1600   9.485  23.082  13.567
29176W        W 1601  23.213  37.306  11.959
29177W        W 1602  21.704   1.475   3.180
29178W        W 1603  38.537  28.898   1.701
29179W        W 1604  16.837  20.738   3.216
29180W        W 1605  26.959  27.390   3.617
29181W        W 1606  44.933   1.556  12.354
29182W        W 1607  28.178  25.210  10.590
29183W        W 1608  19.880   0.420  11.893
29184W        W 1609   5.235   9.112   4.617
29185W        W 1610   5.894  42.481   1.743
29186W        W 1611   4.032   7.862   1.533
29187W        W 1612   9.610  41.213  11.806
29188W        W 1613   2.201  28.677   2.410
29189W        W 1614  25.407  26.150   3.222
29190W        W 1615  24.547   9.980  10.746
29191W        W 1616  15.314  34.818  11.158
29192W        W 1617  36.554  18.206   4.613
29193W        W 1618  38.895  38.034  13.592
29194W        W 1619  39.556  24.780  10.868
29195W        W 1620  26.016  12.753  14.566
29196W        W 1621  43.991  30.676  13.431
29197W        W 1622  24.532  25.434   3.787
29198W        W 1623  18.523   0.518  13.132
29199W        W 1624  16.647  34.656  12.659
29200W        W 1625  16.484  21.336  14.493
29201W        W 1626  28.902  21.635   3.205
29202W        W 1627   4.970  36.903  12.204
29203W        W 1628  40.210   5.702   0.849
29204W        W 1629  43.485  37.522   4.356
29205W        W 1630  20.425  11.123  12.704
29206W        W 1631  28.982   6.870   4.563
29207W        W 1632  34.983  14.347   2.120
29208W        W 1633  35.193  30.493  12.057
29209W        W 1634  44.490  11.938  11.194
29210W        W 1635  21.651  30.899  10.434
29211W        W 1636  39.767  37.611   0.451
29212W        W 1637  12.113  11.167   2.765
29213W        W 1638  39.033  37.477   3.025
29214W        W 1639  30.395   5.869   2.277
29215W        W 1640  23.247  40.474  12.064
29216W        W 1641  36.519  19.645   3.239
29217W        W 1642  26.596  12.793  14.750
29218W        W 1643  14.353   8.279   0.601
29219W        W 1644  15.289  14.596  12.886
29220W        W 1645   5.334  10.301   0.910
29221W        W 1646   5.180  21.854   4.035
29222W        W 1647  14.598  25.665   2.588
29223W        W 1648  31.987  42.597  12.977
29224W        W 1649  11.806  39.973   1.826
29225W        W 1650   8.606  23.062  12.520
29226W        W 1651  43.356  32.213   2.413
29227W        W 1652  13.804  34.413   0.025
29228W        W 1653   2.992   7.797  13.115
29229W        W 1654  16.078  26.182  13.267
29230W        W 1655  38.986  10.772   1.456
29231W        W 1656  35.798   8.152  14.051
29232W        W 1657   9.335  10.203  13.800
29233W        W 1658  15.830  25.581  11.056
29234W        W 1659  41.410   9.919  11.578
29235W        W 1660  32.156  41.437  11.523
29236W        W 1661  31.025   5.140  10.309
29237W        W 1662  12.353  14.221  10.835
29238W        W 1663  22.920  19.745   1.094
29239W        W 1664  33.436  43.052  12.551
29240W        W 1665  35.204  31.544   4.349
29241W        W 1666   0.737  14.932  12.953
29242W        W 1667  25.813  14.061  12.464
29243W        W 1668  22.650   7.855   1.221
29244W        W 1669   9.242  43.396  14.329
29245W        W 1670  15.563  23.605   2.753
29246W        W 1671  16.646  43.685   2.355
29247W        W 1672  15.971  12.620   2.667
29248W        W 1673  41.836  15.290  10.870
29249W        W 1674  23.176  11.849   4.601
29250W        W 1675  20.128  42.566  10.909
29251W        W 1676   4.707  11.386  11.584
29252W        W 1677  37.504  31.444  11.079
29253W        W 1678  11.394  30.627   0.779
29254W        W 1679  30.176  14.837   2.235
29255W        W 1680  44.295  39.794  10.236
29256W        W 1681  11.259  44.747  12.378
29257W        W 1682  20.246  14.665   4.601
29258W        W 1683  33.505  13.335  12.339
29259W        W 1684  17.311  22.580   0.475
29260W        W 1685  43.262  15.169   0.885
29261W        W 1686  31.457  11.423   2.876
29262W        W 1687  20.969  28.471  10.325
29263W        W 1688  27.252   8.839   5.049
29264W        W 1689  14.843  22.530   0.102
29265W        W 1690  24.519  29.511   1.803
29266W        W 1691   6.961   4.400  10.643
29267W        W 1692  33.020  24.792   0.486
29268W        W 1693  13.541  30.761  13.995
29269W        W 1694  38.244  22.062  14.292
29270W        W 1695  11.353  20.659   1.789
29271W        W 1696  22.682  13.558   4.119
29272W        W 1697  16.884  26.190  10.602
29273W        W 1698  30.397  36.335   1.747
29274W        W 1699  12.278   3.887  11.656
29275W        W 1700  39.052   6.354  12.888
29276W        W 1701  40.964  38.923   4.406
29277W        W 1702  11.499  19.375  13.429
29278W        W 1703  15.145   5.167   2.634
29279W        W 1704  32.527  41.505  11.866
29280W        W 1705  18.933  14.290  12.456
29281W        W 1706  44.296  35.686  14.063
29282W        W 1707  33.125  19.850   2.242
29283W        W 1708   0.008   5.429   2.747
29284W        W 1709  11.135  36.077   1.318
29285W        W 1710  11.293  43.974  14.757
29286W        W 1711  29.871  39.727  13.021
29287W        W 1712  38.409  43.381   1.230
29288W        W 1713  17.626  18.244   2.713
29289W        W 1714  36.641  13.613  10.723
29290W        W 1715  22.671  29.829   2.878
29291W        W 1716  14.095  31.975  12.346
29292W        W 1717  19.295  41.895   3.285
29293W        W 1718   4.379   1.415  10.643
29294W        W 1719  27.868  11.784  13.813
29295W        W 1720  27.595  20.516   0.511
29296W        W 1721   1.166  40.747  11.907
29297W        W 1722   9.920   6.904  14.463
29298W        W 1723  37.917   1.069   3.352
29299W        W 1724  39.510  11.415   1.454
29300W        W 1725  20.313  27.076   2.414
29301W        W 1726   0.080   2.036   3.695
29302W        W 1727  26.870  35.555  12.865
29303W        W 1728  41.724  33.679  13.295
29304W        W 1729  12.175  28.582   2.838
29305W        W 1730  31.705  16.300  11.227
29306W        W 1731  31.735  32.579   2.728
29307W        W 1732  24.732  12.275   0.864
29308W        W 1733  28.142  21.000   9.987
29309W        W 1734  23.524   2.568  14.360
29310W        W 1735   2.342  11.625  12.224
29311W        W 1736   7.711   4.934  14.941
29312W        W 1737   9.717  22.698  10.411
29313W        W 1738  32.976  44.592   0.402
29314W        W 1739  36.199   4.103  10.905
29315W        W 1740  12.134  42.755   3.723
29316W        W 1741   5.148   1.184  14.721
29317W        W 1742  14.307  34.205  10.685
29318W        W 1743  21.181   7.165   2.387
29319W        W 1744   8.317  14.139  14.536
29320W        W 1745  39.607  37.302  11.421
29321W        W 1746  37.004  27.787   3.608
29322W        W 1747  14.867   5.317   1.323
29323W        W 1748  41.407  44.038  14.048
29324W        W 1749  43.392  16.285   1.002
29325W        W 1750   2.905  17.532  13.343
29326W        W 1751  19.814  21.151  11.466
29327W        W 1752  10.842   1.844  13.310
29328W        W 1753  30.782  25.895  11.837
29329W        W 1754   6.834  35.421   0.773
29330W        W 1755   4.987  22.378  11.508
29331W        W 1756  21.057  13.772  13.988
29332W        W 1757  39.318  41.414   3.749
29333W        W 1758  14.638  36.990   0.885
29334W        W 1759  30.458  17.752  11.971
29335W        W 1760  23.276  25.618  13.467
29336W        W 1761  13.160  35.508   4.610
29337W        W 1762   6.921  43.428  11.544
29338W        W 1763  10.914  24.222  10.003
29339W        W 1764  44.991   3.795   3.849
29340W        W 1765  21.049  41.370  11.156
29341W        W 1766  38.904  30.180   1.888
29342W        W 1767   8.415  41.483   3.169
29343W        W 1768   7.289  33.887  14.834
29344W        W 1769  41.461   1.289   0.767
29345W        W 1770  12.239  19.235   1.435
29346W        W 1771  23.388  18.256   1.795
29347W        W 1772  27.267  27.729  11.093
29348W        W 1773  24.032  34.358  10.643
29349W        W 1774   0.716  35.016  13.625
29350W        W 1775  34.472   2.239   0.725
29351W        W 1776  41.939   3.392   1.208
29352W        W 1777   6.194  14.349   0.059
29353W        W 1778  43.129  35.438   2.813
29354W        W 1779  16.575  17.307  11.675
29355W        W 1780  13.904  21.625  11.256
29356W        W 1781  38.081  38.032   3.977
29357W        W 1782  42.548  38.876   0.420
29358W        W 1783  31.379  41.304  11.067
29359W        W 1784  28.067  18.869  11.801
29360W        W 1785  12.382  24.696   3.347
29361W        W 1786  12.818   9.896   3.962
29362W        W 1787   4.867   8.091   1.131
29363W        W 1788  43.107  12.844  12.917
29364W        W 1789   0.064  34.435   1.186
29365W        W 1790  31.072  28.900   3.465
29366W        W 1791  21.381  31.382   2.777
29367W        W 1792  16.743  19.961   1.028
29368W        W 1793   3.850  36.947   1.373
29369W        W 1794  43.307   0.877   3.290
29370W        W 1795   9.635  42.535   1.772
29371W        W 1796  42.937  16.709   0.274
29372W        W 1797  16.108  29.446   3.856
29373W        W 1798  21.507   8.786   4.611
29374W        W 1799  25.273  38.339   0.260
29375W        W 1800  39.574  30.668   4.085
29376W        W 1801  40.481  19.219  12.167
29377W        W 1802  22.908   5.020   3.359
29378W        W 1803  19.162  12.749   0.839
29379W        W 1804  21.538  25.977  13.863
29380W        W 1805  16.133  32.932  10.612
29381W        W 1806  37.061   7.733  14.538
29382W        W 1807  12.360  44.367  13.888
29383W        W 1808  15.312  25.229  12.566
29384W        W 1809  31.832  44.526  11.579
29385W        W 1810   5.537  23.220   1.368
29386W        W 1811   3.522   7.281   4.404
29387W        W 1812  43.790  34.043  12.009
29388W        W 1813   2.743  30.335  11.085
29389W        W 1814  27.485  29.203   3.718
29390W        W 1815  39.505  32.471  10.680
29391W        W 1816   8.366  19.043   0.788
29392W        W 1817   1.783   0.615   2.493
29393W        W 1818  32.708  17.657   0.611
29394W        W 1819  15.689   6.297  10.687
29395W        W 1820  25.221  21.719  14.521
29396W        W 1821  39.261  33.115   3.315
29397W        W 1822  15.299  35.775   2.867
29398W        W 1823  41.486  28.036  14.964
29399W        W 1824  36.025   6.968   0.441
29400W        W 1825  31.694  41.865  13.262
29401W        W 1826  27.325  28.910   4.138
29402W        W 1827  15.745  12.667   0.267
29403W        W 1828  28.542  30.945   0.414
29404W        W 1829  15.902  36.922  10.865
29405W        W 1830  30.664  16.074  14.348
29406W        W 1831  41.322   1.274  12.015
29407W        W 1832  17.253   9.579  14.295
29408W        W 1833  17.629  20.132  14.940
29409W        W 1834   0.530  38.076  14.104
29410W        W 1835  32.078  14.272   0.907
29411W        W 1836  14.669  20.985  10.774
29412W        W 1837  29.933  25.452  11.435
29413W        W 1838  24.518   6.154   0.678
29414W        W 1839  33.392  25.251   1.944
29415W        W 1840  16.637  10.517  10.986
29416W        W 1841  44.804  35.881  12.791
29417W        W 1842  13.973   4.605   9.974
29418W        W 1843  13.177  30.221  12.164
29419W        W 1844  12.805  38.096  14.476
29420W        W 1845   1.248  17.588   5.034
29421W        W 1846  43.497  22.279   4.128
29422W        W 1847  44.343   2.820  13.975
29423W        W 1848   7.333  26.100  13.161
29424W        W 1849   5.002  23.706  10.726
29425W        W 1850  32.696  17.327  14.314
29426W        W 1851  33.146  13.067   1.095
29427W        W 1852  20.117  18.200  10.180
29428W        W 1853   9.733  42.849  13.817
29429W        W 1854  42.139  15.686  11.107
29430W        W 1855  27.366  17.261  11.695
29431W        W 1856  14.335   5.929  11.339
29432W        W 1857  21.625  11.045   1.643
29433W        W 1858  17.780   6.741   3.084
29434W        W 1859   9.561   8.184   1.448
29435W        W 1860  26.042  22.708  10.907
29436W        W 1861  31.495  43.982  13.998
29437W        W 1862  37.096  34.846  12.357
29438W        W 1863  26.706   5.043   1.376
29439W        W 1864  17.475  26.104   0.877
29440W        W 1865  23.482  15.604   3.950
29441W        W 1866   6.977  38.871  10.634
29442W        W 1867  32.463  12.790   4.742
29443W        W 1868  39.632   5.511   0.541
29444W        W 1869  27.966  36.266  12.449
29445W        W 1870  34.819   1.861  11.268
29446W        W 1871  36.470  27.370  13.257
29447W        W 1872  12.798  21.516  14.339
29448W        W 1873  38.600  23.742   3.050
29449W        W 1874   2.238  33.414   0.299
29450W        W 1875  29.235  33.827   2.141
29451W        W 1876  41.353  11.492   4.649
29452W        W 1877   2.787   5.583  11.647
29453W        W 1878  13.805  28.992   3.635
29454W        W 1879   7.848  37.368   1.614
29455W        W 1880  38.663  18.705   0.006
29456W        W 1881  18.270  13.538   3.623
29457W        W 1882   3.809  32.041   2.206
29458W        W 1883  32.974  23.977   4.150
29459W        W 1884  42.054  26.142  14.156
29460W        W 1885   4.291  28.172   4.508
29461W        W 1886   9.835  15.130   0.982
29462W        W 1887  11.572  34.569  12.907
29463W        W 1888   0.998  26.284  10.778
29464W        W 1889   0.870  31.890   4.550
29465W        W 1890   6.898  19.040  11.282
29466W        W 1891  40.182  11.533  11.705
29467W        W 1892  16.376  19.731   1.971
29468W        W 1893  35.657  29.383  12.366
29469W        W 1894  14.113  25.364   4.621
29470W        W 1895  32.085  12.219  13.905
29471W        W 1896  41.686  42.723  10.935
29472W        W 1897  26.453  25.634   2.747
29473W        W 1898  34.136   8.871   4.071
29474W        W 1899  42.908  33.078   1.449
29475W        W 1900   1.772  23.034  10.933
29476W        W 1901   3.882  41.494   0.558
29477W        W 1902   0.857  21.799   1.872
29478W        W 1903  31.993  10.704  12.101
29479W        W 1904  36.577   1.390   2.665
29480W        W 1905  21.959  44.425  14.787
29481W        W 1906  40.544   2.555   1.736
29482W        W 1907  33.038  41.501  14.786
29483W        W 1908  19.930  11.864  11.275
29484W        W 1909  17.580  40.625  11.243
29485W        W 1910  28.122  39.180  10.182
29486W        W 1911  26.542  38.075   0.744
29487W        W 1912  34.359  44.864   4.143
29488W        W 1913  43.667  11.311  10.674
29489W        W 1914  20.687  20.805   0.396
29490W        W 1915  12.673   0.713  11.630
29491W        W 1916  20.782  42.556  12.946
29492W        W 1917  33.226  24.173   4.569
29493W        W 1918  22.027  11.298   4.510
29494W        W 1919   3.326  29.927  14.902
29495W        W 1920   9.809  41.917   3.905
29496W        W 1921  38.465  24.212   4.300
29497W        W 1922  12.113   3.993   5.555
29498W        W 1923   8.366   3.827  11.658
29499W        W 1924  26.573  39.596  11.226
29500W        W 1925   3.343   6.844   3.357
29501W        W 1926  36.536  32.446   1.845
29502W        W 1927  20.085  18.720   4.253
29503W        W 1928   0.707   1.569   1.176
29504W        W 1929  43.273  27.779  10.308
29505W        W 1930   4.926  28.000  13.546
29506W        W 1931  11.142  19.772  12.231
29507W        W 1932  30.490  30.133  13.417
29508W        W 1933  12.973  23.631  14.596
29509W        W 1934  41.952  25.978   0.733
29510W        W 1935   5.722  30.545  11.251
29511W        W 1936  15.199   3.074   1.730
29512W        W 1937   2.827   5.242   4.166
29513W        W 1938  40.000  24.225   2.535
29514W        W 1939  16.620  40.370   1.553
29515W        W 1940  25.376  29.172  13.847
29516W        W 1941  19.498  16.160   2.737
29517W        W 1942  12.164  24.755  14.430
29518W        W 1943   1.793  10.818   4.393
29519W        W 1944  13.150  32.896   2.221
29520W        W 1945  35.365  27.922   1.928
29521W        W 1946  21.720  39.487  14.327
29522W        W 1947  28.083  43.245  13.928
29523W        W 1948  27.550  44.361  11.558
29524W        W 1949  27.449  24.882   5.179
29525W        W 1950  14.458  40.266  11.584
29526W        W 1951  34.980   0.512   1.929
29527W        W 1952  10.454  19.405  13.471
29528W        W 1953   4.847  10.140  12.146
29529W        W 1954  21.247  44.791  11.974
29530W        W 1955  36.894  35.452  13.358
29531W        W 1956   0.340  20.256   0.211
29532W        W 1957   2.732  33.145  12.385
29533W        W 1958   9.215  34.335   4.742
29534W        W 1959  37.515   6.780   4.538
29535W        W 1960  20.304  23.680   2.762
29536W        W 1961   6.488  15.167  14.822
29537W        W 1962  43.409  37.711  13.853
29538W        W 1963  44.557  25.468  13.794
29539W        W 1964   7.401  32.187   4.751
29540W        W 1965  38.610   2.761   3.090
29541W        W 1966   2.685  37.809   0.331
29542W        W 1967  20.740   4.770  12.050
29543W        W 1968  43.516  19.684  12.429
29544W        W 1969  23.077  12.192  12.103
29545W        W 1970  34.493  27.921   2.586
29546W        W 1971  25.527  15.225   3.155
29547W        W 1972  31.946  24.505  13.506
29548W        W 1973  24.307  17.326  13.075
29549W        W 1974   4.259   5.290   1.328
29550W        W 1975  44.283  29.667   2.261
29551W        W 1976  22.479  23.178   2.524
29552W        W 1977  27.960   7.712  14.970
29553W        W 1978   0.662   2.061  13.020
29554W        W 1979  26.631  16.846   0.304
29555W        W 1980  11.287   3.851   0.359
29556W        W 1981  15.686   4.518  10.991
29557W        W 1982   1.909   3.792   4.847
29558W        W 1983  28.355  34.529  10.677
29559W        W 1984  23.942  27.051  11.841
29560W        W 1985  33.104  33.501   4.774
29561W        W 1986  27.411  18.398  14.399
29562W        W 1987   8.200   2.930  11.099
29563W        W 1988  29.994  20.999  13.285
29564W        W 1989  12.607  11.188   1.310
29565W        W 1990   8.633  25.570   1.613
29566W        W 1991  16.211  22.503  12.103
29567W        W 1992  39.819  44.314   0.944
29568W        W 1993   4.693  18.966  13.409
29569W        W 1994   2.024  28.105   3.190
29570W        W 1995  12.217  38.476   0.690
29571W        W 1996  43.875  38.859  10.110
29572W        W 1997  11.631  38.059  10.691
29573W        W 1998  42.868  13.189   4.521
29574W        W 1999  20.170  20.799   2.328
29575W        W 2000  33.888  37.913  14.852
29576W        W 2001  18.595   8.179   4.805
29577W        W 2002   8.360  32.390  11.162
29578W        W 2003   0.448  22.217   4.330
29579W        W 2004  33.676  21.295  11.202
29580W        W 2005  21.994  13.326   4.507
29581W        W 2006   4.408  37.517   3.823
29582W        W 2007   8.352  26.512   3.371
29583W        W 2008  42.529  34.694   2.226
29584W        W 2009  39.473  35.723  14.008
29585W        W 2010   9.062  17.532  11.510
29586W        W 2011   9.628   6.984   0.288
29587W        W 2012   8.215   0.923  14.134
29588W        W 2013   4.023   1.294  11.950
29589W        W 2014  39.836  26.920  12.457
29590W        W 2015  22.524  31.481   1.466
29591W        W 2016  26.344  32.502   5.084
29592W        W 2017  20.494  39.314   3.144
29593W        W 2018  13.295  39.459   1.879
29594W        W 2019   4.121  14.695   3.898
29595W        W 2020  10.777  27.677  13.139
29596W        W 2021  28.442  16.043  13.532
29597W        W 2022   7.387  34.711  12.454
29598W        W 2023  44.477  26.666   0.152
29599W        W 2024  42.192  42.896   4.401
29600W        W 2025  15.479  34.321  11.096
29601W        W 2026  16.149  12.285   1.349
29602W        W 2027  10.791  30.060   4.711
29603W        W 2028  30.083  37.761   3.711
29604W        W 2029  16.526  26.324   0.832
29605W        W 2030   6.753  40.589  14.800
29606W        W 2031   5.491  26.142   0.232
29607W        W 2032  26.160  16.591  13.470
29608W        W 2033   9.700  16.364  11.751
29609W        W 2034  20.320  42.767   0.522
29610W        W 2035   2.971  37.637   0.765
29611W        W 2036  32.411   6.011   3.253
29612W        W 2037  27.941  40.941   9.752
29613W        W 2038  27.443  34.004   4.150
29614W        W 2039  27.422  40.371  12.013
29615W        W 2040  14.685  12.248  13.830
29616W        W 2041  21.705   2.791  14.087
29617W        W 2042  25.785  28.532   2.759
29618W        W 2043  34.446  16.020  10.700
29619W        W 2044  10.171  27.738   1.274
29620W        W 2045  23.804  16.908   4.628
29621W        W 2046  17.180  24.195   2.334
29622W        W 2047  30.717  18.002  13.613
29623W        W 2048   3.997  40.997   2.232
29624W        W 2049  22.385  32.381  11.456
29625W        W 2050   8.584   3.293  11.143
29626W        W 2051   4.927  33.025  14.857
29627W        W 2052  42.857  41.995   2.766
29628W        W 2053  14.081  21.821   4.562
29629W        W 2054  23.690  11.641   3.853
29630W        W 2055  18.137  11.185  12.550
29631W        W 2056   0.492  39.091   0.701
29632W        W 2057  33.864   7.949   2.270
29633W        W 2058  12.788  41.994   4.706
29634W        W 2059  34.102   2.728   0.974
29635W        W 2060  10.460  35.429  13.950
29636W        W 2061   1.316   6.744  11.688
29637W        W 2062  15.101  37.709   1.462
29638W        W 2063  40.300   0.049   1.331
29639W        W 2064  14.100  29.932  10.750
29640W        W 2065  16.676  14.253   1.804
29641W        W 2066  19.101  38.306   4.514
29642W        W 2067  36.861  11.266   0.428
29643W        W 2068  10.639   8.887   0.846
29644W        W 2069  31.399  35.994  14.793
29645W        W 2070  29.928  41.416  14.990
29646W        W 2071   3.425  39.929  13.149
29647W        W 2072  40.003  44.496  11.104
29648W        W 2073  24.694  33.062   0.952
29649W        W 2074  35.355  35.096  10.982
29650W        W 2075  17.141   5.305   4.469
29651W        W 2076  22.418  27.589   1.164
29652W        W 2077  36.640  34.667  12.271
29653W        W 2078  21.707  21.584  11.978
29654W        W 2079   9.232   2.436  14.716
29655W        W 2080  22.150  38.089   2.356
29656W        W 2081  15.947  35.305   5.589
29657W        W 2082  33.215  39.725   1.779
29658W        W 2083  12.620   6.431   1.106
29659W        W 2084   9.067  39.604  12.899
29660W        W 2085  36.241  35.267  14.009
29661W        W 2086  29.216  35.458   0.132
29662W        W 2087  32.503  17.790  11.878
29663W        W 2088  40.100  44.575  10.593
29664W        W 2089  22.627  32.762   3.975
29665W        W 2090  23.680  15.251   2.638
29666W        W 2091  21.956  10.836  10.671
29667W        W 2092   2.490  25.724  10.846
29668W        W 2093  43.010   3.010   3.838
29669W        W 2094  24.621  16.475  12.986
29670W        W 2095  40.692   2.119   1.959
29671W        W 2096  41.347  26.459  11.575
29672W        W 2097  39.804  13.916  14.878
29673W        W 2098  27.039  12.359  12.857
29674W        W 2099  27.113  40.362  11.514
29675W        W 2100  26.893   8.324   4.459
29676W        W 2101  13.685  17.156   3.343
29677W        W 2102  24.454   4.896   1.256
29678W        W 2103   6.037  42.003   3.408
29679W        W 2104  41.406  35.999  13.426
29680W        W 2105  42.348  44.002  11.945
29681W        W 2106  24.748  19.147   3.352
29682W        W 2107  41.806  31.117   4.202
29683W        W 2108  26.694  25.455   1.810
29684W        W 2109  17.787   3.763   0.655
29685W        W 2110  26.203  16.126   3.148
29686W        W 2111  30.330   7.598  12.569
29687W        W 2112  25.270   2.321   2.843
29688W        W 2113  26.076   5.356  13.145
29689W        W 2114  25.049  42.111   3.163
29690W        W 2115  16.615   9.777  11.664
29691W        W 2116  22.676  26.658   3.457
29692W        W 2117  31.812  26.213   0.692
29693W        W 2118  35.057  38.083  14.036
29694W        W 2119  35.814  25.586   4.231
29695W        W 2120   0.203  17.759   3.168
29696W        W 2121  19.714  17.306   3.393
29697W        W 2122  33.702  12.897   4.912
29698W        W 2123  21.755  32.037  14.601
29699W        W 2124  39.624  32.562   0.792
29700W        W 2125  33.070  36.764  12.685
29701W        W 2126  23.720  40.730   2.806
29702W        W 2127  18.167   0.808   0.420
29703W        W 2128  39.254  39.337  14.308
29704W        W 2129  27.465  26.531  13.415
29705W        W 2130  32.391  40.090  11.648
29706W        W 2131   5.724   7.200  12.476
29707W        W 2132   5.202  18.921   3.207
29708W        W 2133  26.121  34.888   3.311
29709W        W 2134   4.135  12.043   0.346
29710W        W 2135  11.844  40.014   2.364
29711W        W 2136  19.845  23.260  11.055
29712W        W 2137  21.513  16.368  10.810
29713W        W 2138  16.573  15.233  14.036
29714W        W 2139  20.552  42.202  12.654
29715W        W 2140  24.502  13.212   2.767
29716W        W 2141  33.048  41.967  10.794
29717W        W 2142  31.675  15.165  14.413
29718W        W 2143   9.846  27.685   3.265
29719W        W 2144  35.329  38.424  11.505
29720W        W 2145  34.405  16.166   0.082
29721W        W 2146  31.605  43.824   4.395
29722W        W 2147   9.748  10.374  10.119
29723W        W 2148   0.919  40.700   4.864
29724W        W 2149  11.795  12.422   2.473
29725W        W 2150  36.840   5.683   2.727
29726W        W 2151  39.419  19.000   0.375
29727W        W 2152  30.362  15.353   2.163
29728W        W 2153  38.622  30.686  12.561
29729W        W 2154  32.349  27.678  11.587
29730W        W 2155  41.552  30.443  14.244
29731W        W 2156  44.014  17.672  11.499
29732W        W 2157   4.197   8.843   3.723
29733W        W 2158   7.649  23.999   4.103
29734W        W 2159   9.795  25.228   2.692
29735W        W 2160  40.379  25.037   0.343
29736W        W 2161  20.044  42.977   4.191
29737W        W 2162  38.907  34.821   4.187
29738W        W 2163  32.162  36.791  14.808
29739W        W 2164  12.453  38.012   4.580
29740W        W 2165  38.479  19.962  14.373
29741W        W 2166  28.181  23.440   4.194
29742W        W 2167  17.403  17.831  12.351
29743W        W 2168  40.238   7.666  11.659
29744W        W 2169  23.593  13.036   3.933
29745W        W 2170  32.617  25.557   3.195
29746W        W 2171   8.544  15.115   2.347
29747W        W 2172  35.944  12.279   2.390
29748W        W 2173   2.314  13.666  11.416
29749W        W 2174  40.207  43.009   3.823
29750W        W 2175  37.441  26.939  11.017
29751W        W 2176  19.274  44.446  14.051
29752W        W 2177  24.520  19.537   3.019
29753W        W 2178   7.358  21.467   0.440
29754W        W 2179  30.064  23.047   2.180
29755W        W 2180  28.692  25.086   2.959
29756W        W 2181  32.441  38.800  12.056
29757W        W 2182  13.602   7.800   0.898
29758W        W 2183  12.275   6.425   2.818
29759W        W 2184  26.091  20.290   1.042
29760W        W 2185   9.850  19.874   3.082
29761W        W 2186   1.424  26.519   0.221
29762W        W 2187  18.703  44.664   5.153
29763W        W 2188  18.385  23.000  13.435
29764W        W 2189   5.648  25.084  12.985
29765W        W 2190  10.842  38.078  12.613
29766W        W 2191  28.961  31.515  13.554
29767W        W 2192  28.006  36.287  10.254
29768W        W 2193   3.666  44.475  13.680
29769W        W 2194  33.157  14.732  12.187
29770W        W 2195  29.785  13.826  13.806
29771W        W 2196  29.639  37.376  11.408
29772W        W 2197  12.961  34.226   2.681
29773W        W 2198  20.254  43.489   0.063
29774W        W 2199  22.169  33.654  13.887
29775W        W 2200   9.070  30.542   1.178
29776W        W 2201  30.469   4.711  13.803
29777W        W 2202  40.607   1.744  12.009
29778W        W 2203   4.491  14.329   1.384
29779W        W 2204  12.254  19.760   3.573
29780W        W 2205  41.929  21.094  12.582
29781W        W 2206   5.318  30.124  13.763
29782W        W 2207  43.817  28.444   4.066
29783W        W 2208  21.214  32.093   1.842
29784W        W 2209  42.307  17.584  13.102
29785W        W 2210  35.344  10.734  14.905
29786W        W 2211  33.152  18.665  13.761
29787W        W 2212  17.942   0.980   0.913
29788W        W 2213  27.580  29.281   2.376
29789W        W 2214  38.616  12.831  12.090
29790W        W 2215   4.829  36.565   0.279
29791W        W 2216   9.262  37.041   4.900
29792W        W 2217   2.261  18.731  13.034
29793W        W 2218  38.563  42.651  12.300
29794W        W 2219  28.868  13.292   1.722
29795W        W 2220  37.083  38.970   4.858
29796W        W 2221  20.677  32.460   4.982
29797W        W 2222   7.202  22.997  13.445
29798W        W 2223  31.737  42.311   2.010
29799W        W 2224  19.214   4.900  13.911
29800W        W 2225  27.192  25.364   1.034
29801W        W 2226  29.778  40.411   1.337
29802W        W 2227  27.016  16.833  12.032
29803W        W 2228  34.861  12.406  11.917
29804W        W 2229   3.442  30.768   0.521
29805W        W 2230  19.566  16.659   2.886
29806W        W 2231   4.594   7.314  11.144
29807W        W 2232  29.142  14.201  11.996
29808W        W 2233  23.329   8.840   1.741
29809W        W 2234  35.536  36.111  12.892
29810W        W 2235   5.329  37.101  14.953
29811W        W 2236  15.878  21.887   2.890
29812W        W 2237  11.608  31.667  12.003
29813W        W 2238   8.482   1.313   3.732
29814W        W 2239  39.797  28.537   4.644
29815W        W 2240  13.729  42.283  13.287
29816W        W 2241   2.715  20.320  11.605
29817W        W 2242   6.240  41.902   2.922
29818W        W 2243  40.018  22.535  10.387
29819W        W 2244  26.050  26.532  12.428
29820W        W 2245  21.557  37.024  11.261
29821W        W 2246  13.137  17.608  12.402
29822W        W 2247   1.336  13.628   4.116
29823W        W 2248  28.926  26.882  14.967
29824W        W 2249  26.016  40.398  12.524
29825W        W 2250  17.083  34.586   0.364
29826W        W 2251  11.574  15.180  13.846
29827W        W 2252  35.361  26.974   2.870
29828W        W 2253  14.337  40.754   0.247
29829W        W 2254   5.922  30.041   4.407
29830W        W 2255  23.058  36.262   3.261
29831W        W 2256  21.151  35.616   0.820
29832W        W 2257  15.024  25.179  11.633
29833W        W 2258  43.224   9.299   4.783
29834W        W 2259   2.453  11.205  11.025
29835W        W 2260  19.026  15.829  10.969
29836W        W 2261  19.603  21.778   4.626
29837W        W 2262  25.200  23.898  13.486
29838W        W 2263  13.961  38.912  11.161
29839W        W 2264  21.608  19.355  13.370
29840W        W 2265  31.974  14.700   2.769
29841W        W 2266  30.442  24.475  14.751
29842W        W 2267  21.566  39.502   2.705
29843W        W 2268  25.587  24.733   4.292
29844W        W 2269  42.117  30.002   4.718
29845W        W 2270  19.472  13.207   3.848
29846W        W 2271  42.281  18.599   1.274
29847W        W 2272   5.687  26.446   1.768
29848W        W 2273  22.057   3.888  12.565
29849W        W 2274  23.899  40.069  11.595
29850W        W 2275  35.157  42.265   4.577
29851W        W 2276  24.745  30.721   3.132
29852W        W 2277  42.705  22.072  12.970
29853W        W 2278  16.959  25.411  14.432
29854W        W 2279  13.167  12.777  13.444
29855W        W 2280   2.216  41.560  12.503
29856W        W 2281  39.452  23.946  14.353
29857W        W 2282  21.478  23.800   0.260
29858W        W 2283  33.267  35.470   4.493
29859W        W 2284   6.327   9.836   3.347
29860W        W 2285  32.632  30.888   1.904
29861W        W 2286  21.242  44.832   2.825
29862W        W 2287  12.759   9.281   0.077
29863W        W 2288   1.827  32.169  13.570
29864W        W 2289  20.246  15.746   1.146
29865W        W 2290  38.448  24.117  14.756
29866W        W 2291   5.374  20.819  11.086
29867W        W 2292  37.318  28.733   4.863
29868W        W 2293  30.161  16.731   3.193
29869W        W 2294  42.224  35.539   4.245
29870W        W 2295  33.367   8.499   1.775
29871W        W 2296  29.670   3.436   0.895
29872W        W 2297   3.378  21.450  12.946
29873W        W 2298  22.613  23.494  12.660
29874W        W 2299  20.377  40.908  11.388
29875W        W 2300  21.804  19.707   4.604
29876W        W 2301   6.505  25.206  13.460
29877W        W 2302  12.625   2.000   4.556
29878W        W 2303  25.072   5.905   3.509
29879W        W 2304   8.335   1.732  12.202
29880W        W 2305  10.768  14.239  14.243
29881W        W 2306  42.398  10.716   1.928
29882W        W 2307  15.916  18.145  14.870
29883W        W 2308  40.530  24.756   3.639
29884W        W 2309  33.077  31.991   2.317
29885W        W 2310  44.190   5.169   9.946
29886W        W 2311  37.081  22.989  13.432
29887W        W 2312  41.698  39.533   4.122
29888W        W 2313   8.742   8.801   2.609
29889W        W 2314  35.433   3.306   2.132
29890W        W 2315  37.975   9.230  13.319
29891W        W 2316   0.880  44.285   3.058
29892W        W 2317  32.148  25.068   4.033
29893W        W 2318  34.764  28.333  11.620
29894W        W 2319  34.623  31.903   3.709
29895W        W 2320  34.041  25.955   4.560
29896W        W 2321  28.207  30.402  13.105
29897W        W 2322  36.141  32.919  11.996
29898W        W 2323  13.286  25.133  14.913
29899W        W 2324  30.378  19.749   3.065
29900W        W 2325   8.264  13.316   1.253
29901W        W 2326  13.862  23.883   9.876
29902W        W 2327  35.147  26.615  11.080
29903W        W 2328   0.396  36.409  13.439
29904W        W 2329  23.707   4.871  11.473
29905W        W 2330  23.988  43.433   0.311
29906W        W 2331   7.792  43.504  12.683
29907W        W 2332  24.635  10.775  13.509
29908W        W 2333  22.131  16.948   1.419
29909W        W 2334  26.817   9.318  12.891
29910W        W 2335   0.112  34.483  10.178
29911W        W 2336  23.325  34.716  12.821
29912W        W 2337  12.817  12.112   4.577
29913W        W 2338  25.254  33.578   0.796
29914W        W 2339  19.621  21.777  11.245
29915W        W 2340  18.697  16.231  13.431
29916W        W 2341   6.450  18.131  12.167
29917W        W 2342  41.815  20.693  11.109
29918W        W 2343  41.787   3.610   1.667
29919W        W 2344  10.255  41.765   0.913
29920W        W 2345  26.249  19.107   4.143
29921W        W 2346  19.732  37.141   3.345
29922W        W 2347   4.747  13.022   3.874
29923W        W 2348  31.105  18.676   2.741
29924W        W 2349   0.849  20.396  14.211
29925W        W 2350  38.812  37.251  13.308
29926W        W 2351  30.507  31.092  14.759
29927W        W 2352  22.798  14.342   1.014
29928W        W 2353  11.669  17.745  11.181
29929W        W 2354  38.502  27.074  14.763
29930W        W 2355  43.950  37.463   4.541
29931W        W 2356   4.084  37.292  12.373
29932W        W 2357  26.310   7.584   4.632
29933W        W 2358   9.228  19.023   2.209
29934W        W 2359   2.885  32.505   0.398
29935W        W 2360  37.912  37.556  11.975
29936W        W 2361  33.015  40.987  14.796
29937W        W 2362   9.577  24.938  13.567
29938W        W 2363  33.415  19.216   1.461
29939W        W 2364  39.102  43.988   3.710
29940W        W 2365  44.203  10.206  13.127
29941W        W 2366  31.012   9.320   3.864
29942W        W 2367   6.275  43.809   3.991
29943W        W 2368   4.855  39.803  13.969
29944W        W 2369  35.064   1.707   0.632
29945W        W 2370  43.845   1.941  10.791
29946W        W 2371  41.432  23.928  12.432
29947W        W 2372   3.301  32.098  10.787
29948W        W 2373  11.899  29.244   4.497
29949W        W 2374  36.786  36.925   0.344
29950W        W 2375   8.901  41.837  14.368
29951W        W 2376  27.936  27.290  13.451
29952W        W 2377  36.925   8.349  14.828
29953W        W 2378  12.226  24.859   4.224
29954W        W 2379  18.133  41.044   2.234
29955W        W 2380  20.679  22.997  13.992
29956W        W 2381  26.270   2.381   2.725
29957W        W 2382   5.182   5.708  14.400
29958W        W 2383  38.960  44.823  12.130
29959W        W 2384  23.138  41.001   1.953
29960W        W 2385  21.552   0.493   3.303
29961W        W 2386  44.877  24.314  11.678
29962W        W 2387  30.497  36.268  13.876
29963W        W 2388   8.730  24.551   0.880
29964W        W 2389  36.936  43.325  12.525
29965W        W 2390  23.718  31.603   2.234
29966W        W 2391  37.874  38.540   0.927
29967W        W 2392   9.359  32.940   3.262
29968W        W 2393  23.629  25.680   0.479
29969W        W 2394  35.552  35.298   2.786
29970W        W 2395  38.472  43.107   0.364
29971W        W 2396   6.906   5.096   2.171
29972W        W 2397   9.339  14.039   2.303
29973W        W 2398  37.796  44.719  13.894
29974W        W 2399  27.084  17.709  11.629
29975W        W 2400  19.589  24.962   0.386
29976W        W 2401  31.554  31.451  14.864
29977W        W 2402   4.134  15.087  14.289
29978W        W 2403  40.277  39.049  10.085
29979W        W 2404   8.320  40.310  14.850
29980W        W 2405  21.214   3.250   4.697
29981W        W 2406  37.152   9.347   3.702
29982W        W 2407  12.859  11.149   2.258
29983W        W 2408  23.639  31.463   1.349
29984W        W 2409  32.661  20.574  10.494
29985W        W 2410  16.096  12.067  11.308
29986W        W 2411  16.620   7.293   3.836
29987W        W 2412  36.130  20.728   1.811
29988W        W 2413   1.147  38.452   4.568
29989W        W 2414  29.918  23.953  12.948
29990W        W 2415  34.345  35.132  11.709
29991W        W 2416  43.335  44.451  13.276
29992W        W 2417  37.136   4.827   1.939
29993W        W 2418   1.209  42.579  12.395
29994W        W 2419  11.167   6.739  12.905
29995W        W 2420   1.860  11.964   4.836
29996W        W 2421  25.231   8.474  13.816
29997W        W 2422   8.231  29.126  12.392
29998W        W 2423  32.089   6.943   2.839
29999W        W 2424  20.124   4.894  13.357
30000W        W 2425  17.206  21.800  10.172
30001W        W 2426  42.379   5.719  12.970
30002W        W 2427   2.137   7.025   4.094
30003W        W 2428  44.943  28.834  13.115
30004W        W 2429  40.707  28.551   2.056
30005W        W 2430  14.187   3.703  12.901
30006W        W 2431  39.535  18.251   2.456
30007W        W 2432  44.034  18.039  14.442
30008W        W 2433  43.351  39.630   4.398
30009W        W 2434  42.069  44.994  13.068
30010W        W 2435   2.377   7.811  13.956
30011W        W 2436  28.609  28.082  13.613
30012W        W 2437   2.841  25.118   2.405
30013W        W 2438  33.375  26.448  14.912
30014W        W 2439  35.353  34.813  12.854
30015W        W 2440  35.925   4.339   0.819
30016W        W 2441   4.892  28.921  12.587
30017W        W 2442  28.196  15.325   3.329
30018W        W 2443  17.538  20.727   3.595
30019W        W 2444  34.794  12.077   1.706
30020W        W 2445  29.420  20.127  13.349
30021W        W 2446  14.881  11.243   3.624
30022W        W 2447  39.094   4.736  14.820
30023W        W 2448   3.418  35.528   3.840
30024W        W 2449   4.257  12.588   0.996
30025W        W 2450  25.608  12.767  11.935
30026W        W 2451  25.605  19.049   1.186
30027W        W 2452   9.130  32.553  10.525
30028W        W 2453  42.900  27.158  14.446
30029W        W 2454  43.056  37.607   3.517
30030W        W 2455  31.958  34.921  13.362
30031W        W 2456   2.489   1.242  13.006
30032W        W 2457  13.704   2.211  12.136
30033W        W 2458  44.737  10.756  11.397
30034W        W 2459  26.267   7.053  10.246
30035W        W 2460   9.143   6.947  13.806
30036W        W 2461   8.349  24.071   2.867
30037W        W 2462   1.522   5.470   2.280
30038W        W 2463  44.287  38.035  12.374
30039W        W 2464  10.158  25.110  11.264
30040W        W 2465  32.231  29.962   2.817
30041W        W 2466  20.668  13.887   3.933
30042W        W 2467   3.981  21.034   4.121
30043W        W 2468  41.720  25.173   0.563
30044W        W 2469  22.705  15.801  10.938
30045W        W 2470  33.688  37.402  11.122
30046W        W 2471  26.575  37.095   0.752
30047W        W 2472  41.811  42.917   1.264
30048W        W 2473  39.965  29.405  10.744
30049W        W 2474   3.684  42.054   2.759
30050W        W 2475  32.861  35.665   2.117
30051W        W 2476  17.121  15.591   3.309
30052W        W 2477  40.013  33.682   0.892
30053W        W 2478  26.039  35.489  13.107
30054W        W 2479  17.098   1.564   3.657
30055W        W 2480  28.947  21.257   3.575
30056W        W 2481   3.469  29.488   1.288
30057W        W 2482  21.233  28.521  11.998
30058W        W 2483  44.144  42.235   2.279
30059W        W 2484  15.852  28.516   2.212
30060W        W 2485   5.264  18.714   3.696
30061W        W 2486  10.897  24.272   1.313
30062W        W 2487  37.948  13.132   1.823
30063W        W 2488  10.778   6.801   2.780
30064W        W 2489  32.717   4.718   1.243
30065W        W 2490  40.554   2.099  11.168
30066W        W 2491  33.289  29.030   1.062
30067W        W 2492  19.140  20.859   4.293
30068W        W 2493   0.773   4.454  14.355
30069W        W 2494  26.141  24.125  10.631
30070W        W 2495  17.571  43.313   2.182
30071W        W 2496  34.875  16.352   0.171
30072W        W 2497  30.632  40.112  13.551
30073W        W 2498  38.861  41.882  12.907
30074W        W 2499   1.468  12.731  11.002
30075W        W 2500   2.288  13.089   1.877
30076W        W 2501  31.098  13.430   0.075
30077W        W 2502  25.226  40.573   4.566
30078W        W 2503   2.000   4.543   0.086
30079W        W 2504  29.622  18.838   4.298
30080W        W 2505  28.410  28.252   2.845
30081W        W 2506  27.035  44.421  11.990
30082W        W 2507  24.401  12.112   2.646
30083W        W 2508  23.069  28.905   3.399
30084W        W 2509   2.199  17.672   2.841
30085W        W 2510  39.554  36.844  14.989
30086W        W 2511  15.032  19.763   3.306
30087W        W 2512  33.402  13.835  12.583
30088W        W 2513  32.936   8.992  13.897
30089W        W 2514  22.036   1.309  12.013
30090W        W 2515   1.461  30.205  11.090
30091W        W 2516  42.553  39.286   2.401
30092W        W 2517  40.698  27.461   3.424
30093W        W 2518  15.083  10.431  12.479
30094W        W 2519  14.822  19.582   1.878
30095W        W 2520  37.392   5.238  13.829
30096W        W 2521  44.884  29.474   1.164
30097W        W 2522  37.148  32.094  12.157
30098W        W 2523  29.345  26.066  11.501
30099W        W 2524  43.223  35.011   1.382
30100W        W 2525  16.651  20.220   1.912
30101W        W 2526  11.919  42.001   1.933
30102W        W 2527  26.163   1.228  14.250
30103W        W 2528   6.741   5.484  13.849
30104W        W 2529   9.841  41.214   2.615
30105W        W 2530  11.472   1.303   3.088
30106W        W 2531   9.352  41.090  12.322
30107W        W 2532   8.096  18.276  14.153
30108W        W 2533  30.564  14.743  13.966
30109W        W 2534  30.103  14.420  11.114
30110W        W 2535  28.084  23.441   0.965
30111W        W 2536  19.552  19.588  13.823
30112W        W 2537   6.440   4.385  13.105
30113W        W 2538   5.290   2.645  11.430
30114W        W 2539  22.980  41.458   4.006
30115W        W 2540   8.287  21.959   4.556
30116W        W 2541  20.456  33.895   0.934
30117W        W 2542  31.240  44.461  14.907
30118W        W 2543   6.863  15.699   0.959
30119W        W 2544  18.841  41.075  14.945
30120W        W 2545  15.481  24.647   4.533
30121W        W 2546  44.970  18.068  10.379
30122W        W 2547   3.777  19.309  11.703
30123W        W 2548   7.696   6.027  12.616
30124W        W 2549   7.350   2.838  11.710
30125W        W 2550   8.516  36.831   0.254
30126W        W 2551   3.924  22.363  10.725
30127W        W 2552   8.321   0.275  11.237
30128W        W 2553  30.040  27.184   4.252
30129W        W 2554  18.211  43.130  11.919
30130W        W 2555   1.002  24.910   0.755
30131W        W 2556   9.258   1.515   1.260
30132W        W 2557  35.640  28.115  11.672
30133W        W 2558  40.163  15.592  10.789
30134W        W 2559  23.088  43.023   4.550
30135W        W 2560  25.539  16.355   4.632
30136W        W 2561  40.482   3.836  10.979
30137W        W 2562  16.046  37.832   3.282
30138W        W 2563  41.071  30.001  12.446
30139W        W 2564  30.973  38.111   0.661
30140W        W 2565  36.220  19.762   0.378
30141W        W 2566  26.481   7.717   2.793
30142W        W 2567  35.934  11.349   0.073
30143W        W 2568   2.911  41.781   1.238
30144W        W 2569  40.916  38.364  14.418
30145W        W 2570  38.786   0.873   3.139
30146W        W 2571  22.183  37.195  10.570
30147W        W 2572  13.360  14.268   3.223
30148W        W 2573  22.500  27.889  13.842
30149W        W 2574  33.183   9.309   2.728
30150W        W 2575  16.561  13.779   3.128
30151W        W 2576  33.426  23.753   4.309
30152W        W 2577  14.690   3.504  10.679
30153W        W 2578  16.885  35.555   9.527
30154W        W 2579  29.317  19.835  14.502
30155W        W 2580   8.511  26.772  12.427
30156W        W 2581  19.319  42.558  14.068
30157W        W 2582  33.492  10.304   1.389
30158W        W 2583  24.684  40.941  14.311
30159W        W 2584  19.199  41.302   1.333
30160W        W 2585  32.154  25.358   1.888
30161W        W 2586  39.035  37.446   3.541
30162W        W 2587  43.990  33.129  10.558
30163W        W 2588  29.212   4.125   3.328
30164W        W 2589  19.028  11.136  13.096
30165W        W 2590   1.793  12.408   4.554
30166W        W 2591  26.888  32.829   4.561
30167W        W 2592   5.198  34.493  12.579
30168W        W 2593  16.581  42.701  14.297
30169W        W 2594  38.054  25.575  11.033
30170W        W 2595  31.899  12.230  11.115
30171W        W 2596   7.825  42.250   0.310
30172W        W 2597  26.886  38.865  11.634
30173W        W 2598  13.478  40.484   2.285
30174W        W 2599  28.151  11.515  13.435
30175W        W 2600  38.424  36.845  12.666
30176W        W 2601   1.219  37.616  12.409
30177W        W 2602   3.648   7.680   2.883
30178W        W 2603  23.713  32.379   4.828
30179W        W 2604  14.982  43.910  10.760
30180W        W 2605  32.586  12.845   1.970
30181W        W 2606  44.814  16.212   2.889
30182W        W 2607  33.110  35.734  11.592
30183W        W 2608  29.692   4.701  14.363
30184W        W 2609  42.370  43.056  13.579
30185W        W 2610  22.011  43.356   1.947
30186W        W 2611  41.812  41.731  12.468
30187W        W 2612  20.124  35.346  12.382
30188W        W 2613  21.292  29.593  11.146
30189W        W 2614   0.203  26.643  14.427
30190W        W 2615  41.866   5.754  10.766
30191W        W 2616  21.632  20.326  13.483
30192W        W 2617  37.904  32.221  14.527
30193W        W 2618  18.726   2.309   1.029
30194W        W 2619  38.757  40.904   0.894
30195W        W 2620  20.052   2.087  12.886
30196W        W 2621  11.814   1.336  13.944
30197W        W 2622   3.977   3.831   1.034
30198W        W 2623  17.662   0.846   2.680
30199W        W 2624  33.085  19.261  11.939
30200W        W 2625  25.720  26.639   5.185
30201W        W 2626  23.945  27.869  10.865
30202W        W 2627  32.697  30.546  10.705
30203W        W 2628  25.105   4.972  13.013
30204W        W 2629  26.946   0.724   0.473
30205W        W 2630  36.862  23.591  14.786
30206W        W 2631  35.106  21.283  13.826
30207W        W 2632   2.658   9.833   4.234
30208W        W 2633  24.590  35.052   2.976
30209W        W 2634  20.886   6.026   2.796
30210W        W 2635  10.212  19.342  14.938
30211W        W 2636  27.702  43.287  13.061
30212W        W 2637  14.701   4.521  14.818
30213W        W 2638  21.243  11.198  13.021
30214W        W 2639  42.979   3.373   2.502
30215W        W 2640   1.273  41.495  12.929
30216W        W 2641  19.076   4.456  12.581
30217W        W 2642  27.900   7.123  11.191
30218W        W 2643  26.058   6.674  11.977
30219W        W 2644  23.594  24.049  12.971
30220W        W 2645  35.933  11.321  10.666
30221W        W 2646   9.877  44.319  12.616
30222W        W 2647  36.392  11.439  14.241
30223W        W 2648   9.231  34.054  14.296
30224W        W 2649  37.544   9.508  13.436
30225W        W 2650   5.787   6.360   4.668
30226W        W 2651  28.448  39.814  10.707
30227W        W 2652  21.550  26.487   3.936
30228W        W 2653  13.136   9.446   3.724
30229W        W 2654  37.926  29.611  10.388
30230W        W 2655  13.205  23.626   2.239
30231W        W 2656  41.565   4.735   1.468
30232W        W 2657  32.717  10.529   4.982
30233W        W 2658  22.779  29.456  14.903
30234W        W 2659  30.015  36.793   0.109
30235W        W 2660  31.751  26.214  13.480
30236W        W 2661  36.108  16.429  13.316
30237W        W 2662  43.397   9.828   0.309
30238W        W 2663  32.040  33.989   2.915
30239W        W 2664  27.254  38.091  11.909
30240W        W 2665  32.937  26.229   2.280
30241W        W 2666  41.923  23.974  10.596
30242W        W 2667  12.357  32.035  10.490
30243W        W 2668  10.307  23.821  10.978
30244W        W 2669  44.239  25.494   2.961
30245W        W 2670   8.062   5.235  13.027
30246W        W 2671  16.872  42.329   4.625
30247W        W 2672  14.835  28.533  13.349
30248W        W 2673  29.182  44.292   2.284
30249W        W 2674  24.529   3.551   4.576
30250W        W 2675  39.890  20.092   2.442
30251W        W 2676  44.494  24.113  12.024
30252W        W 2677  27.219  16.736  14.961
30253W        W 2678  20.454  13.458  11.542
30254W        W 2679   8.411  32.119  10.729
30255W        W 2680  23.798  34.365  14.210
30256W        W 2681  12.807  31.464   3.747
30257W        W 2682  41.558   3.019  10.734
30258W        W 2683  28.597  28.118   3.729
30259W        W 2684  14.798   9.091  10.618
30260W        W 2685  28.052   2.211  11.695
30261W        W 2686   4.549  37.419   3.332
30262W        W 2687   3.171  32.515   3.995
30263W        W 2688  20.501  16.344   2.828
30264W        W 2689  25.153  18.578   4.514
30265W        W 2690  31.350  17.207   1.425
30266W        W 2691  33.945   3.765  12.094
30267W        W 2692  27.163   9.258   3.822
30268W        W 2693  24.710  34.402   4.614
30269W        W 2694  23.149  30.624  14.624
30270W        W 2695  25.561  12.659   4.204
30271W        W 2696  21.303   7.992  14.371
30272W        W 2697  31.966  17.271  14.731
30273W        W 2698  39.362   4.132   0.475
30274W        W 2699   9.861  22.019  12.207
30275W        W 2700   0.752  24.209  12.931
30276W        W 2701   4.456  40.981  14.379
30277W        W 2702   7.995  41.760   0.404
30278W        W 2703  38.348  19.997   0.701
30279W        W 2704   1.541  18.829   3.305
30280W        W 2705  20.183  41.404   1.241
30281W        W 2706  15.086   4.241   3.690
30282W        W 2707  29.894  30.351   2.958
30283W        W 2708  14.644   4.308  13.400
30284W        W 2709   8.371   9.613  10.770
30285W        W 2710  26.179   8.054  11.156
30286W        W 2711  19.015  36.149  12.373
30287W        W 2712  12.716  40.124  11.507
30288W        W 2713  40.533   8.838  14.788
30289W        W 2714  13.439  31.880   4.105
30290W        W 2715  27.898  37.621  14.573
30291W        W 2716  21.450   9.832  10.710
30292W        W 2717  20.001  12.844  12.161
30293W        W 2718   4.448   2.147   1.472
30294W        W 2719  11.744  22.684   0.316
30295W        W 2720  30.632  16.641   4.072
30296W        W 2721  35.185  24.958  14.823
30297W        W 2722  20.884   5.940   0.049
30298W        W 2723  39.342  40.504   0.435
30299W        W 2724  27.245  26.230  10.673
30300W        W 2725  30.002   1.889   3.134
30301W        W 2726  28.711  25.917  14.580
30302W        W 2727  35.166   6.130   4.011
30303W        W 2728   8.416  14.198   0.980
30304W        W 2729  34.615  40.389  12.020
30305W        W 2730  39.441   8.734   0.705
30306W        W 2731  23.786   8.581   0.454
30307W        W 2732  34.576  11.789  12.599
30308W        W 2733  22.189  12.604  14.672
30309W        W 2734  40.434   2.372   0.282
30310W        W 2735  35.610  23.717  14.412
30311W        W 2736  10.300  27.014  13.635
30312W        W 2737  19.586  38.630   1.654
30313W        W 2738  25.092  19.725   4.741
30314W        W 2739  40.129  30.520   3.198
30315W        W 2740  29.413  17.986  11.434
30316W        W 2741  37.903   4.335   2.881
30317W        W 2742  29.725  34.832  10.978
30318W        W 2743  19.739  17.108   2.406
30319W        W 2744   0.203  25.489   0.718
30320W        W 2745  39.058  38.943  11.524
30321W        W 2746  26.867  42.380   1.972
30322W        W 2747  30.109  23.092   4.626
30323W        W 2748  34.914  41.111   1.693
30324W        W 2749  27.166   6.228   4.641
30325W        W 2750   4.344  21.656  14.362
30326W        W 2751  39.769  39.376   2.388
30327W        W 2752   6.753  16.933   4.037
30328W        W 2753  22.769  28.458  12.603
30329W        W 2754  37.444  29.612  11.512
30330W        W 2755   2.813  16.142   4.595
30331W        W 2756  20.335  10.157   2.673
30332W        W 2757  22.015  11.469  13.824
30333W        W 2758  42.820  37.224  12.026
30334W        W 2759  30.087  43.968   1.330
30335W        W 2760  33.964  22.454  14.019
30336W        W 2761  10.602  42.444   4.922
30337W        W 2762   8.694  42.397  11.331
30338W        W 2763  35.571  39.031  13.872
30339W        W 2764   4.625  44.470   4.130
30340W        W 2765  32.991  15.140   4.273
30341W        W 2766  17.130  19.577   0.879
30342W        W 2767   8.389   6.638  11.931
30343W        W 2768  24.031   4.750   1.009
30344W        W 2769   3.697   5.393  11.928
30345W        W 2770  35.168   3.967  12.551
30346W        W 2771   4.294   9.567   4.911
30347W        W 2772  26.391  19.709  13.386
30348W        W 2773  14.197  22.089   4.061
30349W        W 2774   6.467   9.839  14.981
30350W        W 2775   8.490  42.369   0.687
30351W        W 2776  33.340   5.159   3.300
30352W        W 2777  41.867  16.461   0.750
30353W        W 2778  36.920  37.490   0.400
30354W        W 2779  30.842   4.761  11.525
30355W        W 2780   4.702   5.802   2.105
30356W        W 2781  43.505  40.096   1.369
30357W        W 2782  23.408   5.259   3.212
30358W        W 2783   5.441  17.090   3.110
30359W        W 2784  19.039  44.544  10.543
30360W        W 2785   2.849   3.006   0.285
30361W        W 2786  33.331  19.724   3.087
30362W        W 2787  27.976  27.653  12.417
30363W        W 2788  44.469  37.296   2.824
30364W        W 2789  35.187   7.895   5.512
30365W        W 2790  35.920   8.253   3.323
30366W        W 2791  12.560  20.095   2.696
30367W        W 2792  40.338  28.745  13.673
30368W        W 2793   5.366  38.292  14.089
30369W        W 2794  31.676   7.599  12.895
30370W        W 2795  39.841  22.707   4.676
30371W        W 2796  33.125  21.058  14.904
30372W        W 2797  40.329  31.107   3.557
30373W        W 2798  26.934  22.767   1.152
30374W        W 2799  19.276  28.547   0.417
30375W        W 2800  37.057  16.111  11.266
30376W        W 2801  18.516  31.923  10.834
30377W        W 2802  41.880  38.540  12.920
30378W        W 2803  44.798  19.014  13.918
30379W        W 2804   2.217  27.393   1.438
30380W        W 2805  10.039  35.040  13.103
30381W        W 2806  29.415  11.115  13.542
30382W        W 2807  19.542  18.694  14.065
30383W        W 2808   2.746   0.345   0.729
30384W        W 2809  35.602  12.217   0.691
30385W        W 2810   1.524  41.768   0.051
30386W        W 2811  40.369  30.548  12.013
30387W        W 2812  16.011   0.262  11.089
30388W        W 2813   4.495  25.463  12.757
30389W        W 2814  22.795  30.978   4.073
30390W        W 2815  26.622  37.064   3.674
30391W        W 2816   8.972  34.126   0.241
30392W        W 2817  11.201  37.914   1.408
30393W        W 2818  20.006  24.592   2.925
30394W        W 2819  35.028  41.374  10.694
30395W        W 2820  16.377   6.905  14.752
30396W        W 2821   0.140  21.703  10.767
30397W        W 2822   8.237   4.989  14.051
30398W        W 2823  20.076  41.196  10.470
30399W        W 2824   3.186  17.192   4.725
30400W        W 2825  29.278   6.773   2.382
30401W        W 2826  36.049   0.297   3.623
30402W        W 2827   7.954  11.156  13.374
30403W        W 2828  11.803  36.575  13.176
30404W        W 2829  11.327  18.804   4.665
30405W        W 2830  29.888  26.106   3.696
30406W        W 2831  17.187  23.950   1.058
30407W        W 2832   8.258  21.566  11.888
30408W        W 2833   9.908  10.798   4.701
30409W        W 2834  37.018  30.974   2.007
30410W        W 2835  44.324  22.798  12.595
30411W        W 2836   6.589   3.569   1.130
30412W        W 2837  19.595  12.857   1.646
30413W        W 2838  29.146  29.441   3.815
30414W        W 2839   2.860  24.015   3.396
30415W        W 2840  33.328  13.789  13.443
30416W        W 2841  29.094   6.751  13.994
30417W        W 2842  28.199  10.764  14.747
30418W        W 2843   8.255  29.011   3.201
30419W        W 2844  26.156  11.558   0.347
30420W        W 2845  20.731   2.478   3.269
30421W        W 2846  15.313   2.787   5.461
30422W        W 2847  41.614  38.847  14.464
30423W        W 2848   7.540  17.005  13.434
30424W        W 2849   1.854  28.149  11.062
30425W        W 2850  13.383  43.987  13.788
30426W        W 2851  34.890   5.916   3.618
30427W        W 2852  27.665  41.552  11.356
30428W        W 2853  37.660   9.877  12.644
30429W        W 2854  24.652  11.732   2.881
30430W        W 2855   5.735  24.496   3.623
30431W        W 2856  33.864  35.003  14.001
30432W        W 2857   1.070  32.704   3.311
30433W        W 2858   4.241   3.829   0.021
30434W        W 2859  42.370  41.001   3.065
30435W        W 2860  43.291  41.606   3.307
30436W        W 2861   2.812  21.249  12.497
30437W        W 2862  28.447  36.610   4.145
30438W        W 2863  18.013  36.912   0.483
30439W        W 2864  31.568  40.297   2.168
30440W        W 2865   8.489   7.753  13.158
30441W        W 2866  16.318  23.055   3.640
30442W        W 2867  42.361  27.949  12.529
30443W        W 2868  38.192  28.763  10.508
30444W        W 2869   5.156  27.441   2.716
30445W        W 2870  34.612  23.280  12.960
30446W        W 2871  34.648   2.530  11.588
30447W        W 2872  19.814   7.328   2.300
30448W        W 2873  36.645   9.213  12.104
30449W        W 2874   5.031   3.123  10.722
30450W        W 2875  38.937   0.059   4.529
30451W        W 2876  14.851  32.063   3.661
30452W        W 2877  27.549  36.670  12.484
30453W        W 2878  31.271  10.886  10.760
30454W        W 2879   1.800  31.732  13.885
30455W        W 2880  14.592  41.787  11.936
30456W        W 2881  42.761   7.803  11.632
30457W        W 2882   7.521  31.602   3.773
30458W        W 2883  20.287  35.043   1.182
30459W        W 2884   7.797  44.982  12.412
30460W        W 2885  11.477  34.137  14.385
30461W        W 2886  34.263  21.450  11.886
30462W        W 2887  42.370  31.923  13.014
30463W        W 2888  18.664   9.314  14.744
30464W        W 2889   3.787  29.712  14.203
30465W        W 2890  39.048   6.792  14.780
30466W        W 2891  15.116  20.865  12.198
30467W        W 2892  26.003  11.617  13.107
30468W        W 2893  25.543  24.608  10.969
30469W        W 2894  43.112  26.401   1.843
30470W        W 2895  27.322  19.694   4.949
30471W        W 2896  26.735  17.208  14.509
30472W        W 2897  20.642  10.749  11.855
30473W        W 2898  31.467  43.914   3.890
30474W        W 2899  16.245  13.353   3.160
30475W        W 2900   3.770  12.503  13.519
30476W        W 2901   6.696   9.778  11.994
30477W        W 2902   7.781   4.864  10.046
30478W        W 2903   3.268  26.509  10.646
30479W        W 2904  19.988  19.296  14.044
30480W        W 2905  33.403  25.697   0.632
30481W        W 2906   8.964   2.275  11.284
30482W        W 2907  33.290  34.415  14.215
30483W        W 2908  43.503  36.079  10.685
30484W        W 2909  32.345  37.483   3.295
30485W        W 2910  25.481  22.189   1.794
30486W        W 2911  18.135  39.027  14.559
30487W        W 2912  31.592  21.118  11.195
30488W        W 2913  10.145  18.785   4.003
30489W        W 2914  20.637  16.925  10.584
30490W        W 2915  19.312   8.769   3.732
30491W        W 2916  29.961  29.510  14.315
30492W        W 2917   9.866   2.979   2.413
30493W        W 2918  15.699   6.641  14.969
30494W        W 2919  44.491  33.953  10.689
30495W        W 2920   2.422  34.986  10.571
30496W        W 2921  13.577  30.837  11.146
30497W        W 2922  19.114  44.059  10.401
30498W        W 2923  23.892   2.348   3.130
30499W        W 2924  34.057  29.866   2.896
30500W        W 2925  38.213   9.179   1.372
30501W        W 2926   4.854  28.299   0.875
30502W        W 2927  14.724  20.784   2.719
30503W        W 2928   1.987  18.072  14.875
30504W        W 2929  34.644  34.562  12.443
30505W        W 2930  33.885  30.535   0.789
30506W        W 2931  33.446  41.678   1.242
30507W        W 2932  10.753  38.546  12.833
30508W        W 2933   7.251  41.349   3.916
30509W        W 2934  14.900  41.502  14.825
30510W        W 2935  29.082  10.773   0.844
30511W        W 2936  28.700  43.760  11.439
30512W        W 2937  23.832  18.525  11.519
30513W        W 2938  20.254   6.790  14.817
30514W        W 2939  11.141   3.065  13.960
30515W        W 2940   2.823  25.384  10.612
30516W        W 2941  39.378   8.794   3.346
30517W        W 2942   2.398  44.535   3.622
30518W        W 2943   9.381  15.262  14.718
30519W        W 2944  25.920  35.132  11.468
30520W        W 2945  35.075  21.012  12.795
30521W        W 2946   4.952   2.892  12.620
30522W        W 2947  39.970  11.800  14.066
30523W        W 2948  42.055  21.171  11.125
30524W        W 2949  28.995  11.818  14.234
30525W        W 2950  31.689   7.391   3.358
30526W        W 2951  25.399  34.375   3.106
30527W        W 2952   3.528  29.454  12.556
30528W        W 2953  35.607   3.467  11.103
30529W        W 2954  15.569  16.215  14.802
30530W        W 2955  19.559   2.459  11.007
30531W        W 2956  17.132  28.518  12.793
30532W        W 2957  37.551  19.211   1.697
30533W        W 2958   7.218  33.440   1.132
30534W        W 2959  34.644   1.448   1.466
30535W        W 2960  19.740  30.632   2.753
30536W        W 2961  43.335  37.568   4.921
30537W        W 2962  37.503  42.930   4.524
30538W        W 2963  30.620  26.642  11.554
30539W        W 2964  42.294  24.956  12.188
30540W        W 2965  13.099   3.066  10.684
30541W        W 2966   4.573  22.691  11.542
30542W        W 2967  42.030  26.495  13.007
30543W        W 2968  15.162   1.269  12.579
30544W        W 2969  41.825  11.668   3.811
30545W        W 2970  43.744  22.939  10.577
30546W        W 2971  25.187  35.611  10.998
30547W        W 2972  43.553  15.804   3.688
30548W        W 2973  11.465  20.349  14.759
30549W        W 2974  13.312   8.795  14.993
30550W        W 2975  31.937   7.677   4.631
30551W        W 2976  43.310  18.113   2.140
30552W        W 2977  24.395  17.043   4.110
30553W        W 2978  19.134   3.310  11.691
30554W        W 2979  35.672  32.455  12.890
30555W        W 2980  33.057   9.967  10.722
30556W        W 2981  18.973  35.326  13.041
30557W        W 2982   8.262  32.894  11.075
30558W        W 2983  13.633  41.409   2.364
30559W        W 2984  21.110  39.064  11.527
30560W        W 2985   4.950  21.652   2.706
30561W        W 2986  18.769  25.226   2.080
30562W        W 2987  43.027  35.900  13.973
30563W        W 2988  34.365   6.361   0.394
30564W        W 2989  24.851  15.880  14.628
30565W        W 2990  38.287  39.755   4.504
30566W        W 2991  38.848  27.533  12.624
30567W        W 2992  27.173  41.553   1.966
30568W        W 2993  43.710  33.945  12.966
30569W        W 2994  14.599  41.949   0.962
30570W        W 2995  37.263  35.927  13.522
30571W        W 2996  37.614  10.410  12.912
30572W        W 2997  33.066  28.076   1.854
30573W        W 2998  31.469  29.196  11.692
30574W        W 2999  32.905  13.947  11.481
30575W        W 3000  14.097  39.375   2.123
30576W        W 3001  28.128  33.937   0.470
30577W        W 3002  15.017   1.396  13.960
30578W        W 3003   3.012  38.128  12.776
30579W        W 3004  22.886  21.580  13.831
30580W        W 3005  43.423  37.428  13.413
30581W        W 3006   5.273  22.785   0.858
30582W        W 3007   3.748  23.165  14.887
30583W        W 3008  23.048  11.390   5.523
30584W        W 3009  22.302  38.833   1.782
30585W        W 3010  10.624  23.390  12.787
30586W        W 3011  35.883   5.129  11.180
30587W        W 3012  24.489  28.960   2.914
30588W        W 3013  30.164  44.327   0.944
30589W        W 3014   1.952  20.012   1.748
30590W        W 3015  21.049  10.514   5.044
30591W        W 3016   6.918  43.465  10.532
30592W        W 3017  44.203   8.903   0.734
30593W        W 3018  14.686  38.639   3.981
30594W        W 3019  30.545  39.444  14.729
30595W        W 3020   4.830  30.815   2.237
30596W        W 3021  36.134  44.293  12.037
30597W        W 3022   0.906   9.406  13.136
30598W        W 3023  35.839  24.534   1.775
30599W        W 3024  20.079  43.893   2.785
30600W        W 3025  24.052  28.877  10.905
30601W        W 3026   6.639   5.316   4.065
30602W        W 3027  22.692  29.881  12.843
30603W        W 3028   1.532  31.040   0.331
30604W        W 3029  27.432  18.994  14.019
30605W        W 3030  39.010  41.893   4.584
30606W        W 3031   2.689  32.051  12.086
30607W        W 3032  30.261  44.791  11.171
30608W        W 3033   9.407   6.274   2.144
30609W        W 3034  38.006  26.972  14.088
30610W        W 3035  24.606  36.895  14.316
30611W        W 3036  36.099  17.501   2.152
30612W        W 3037  28.027  44.084   0.291
30613W        W 3038  42.570  39.638   3.243
30614W        W 3039  36.775  42.704   0.908
30615W        W 3040  28.532  28.731   2.688
30616W        W 3041  10.336  41.784   1.843
30617W        W 3042   7.005  22.053   0.961
30618W        W 3043   6.904  29.531  11.496
30619W        W 3044  27.608  24.080   4.740
30620W        W 3045  38.927  22.386   2.818
30621W        W 3046   6.503  15.633  11.272
30622W        W 3047  35.026  35.138   4.176
30623W        W 3048  16.334  33.253  11.038
30624W        W 3049  27.042  12.928  14.499
30625W        W 3050  34.849   4.791  14.407
30626W        W 3051   9.486  16.347  13.290
30627W        W 3052  43.956  10.872  10.655
30628W        W 3053  35.532  41.060   1.451
30629W        W 3054  42.402  11.269  11.554
30630W        W 3055   3.219   9.000  11.417
30631W        W 3056  26.029  18.158   4.087
30632W        W 3057  43.946  18.283   1.466
30633W        W 3058   2.159  32.498  12.465
30634W        W 3059  24.457  40.553   2.186
30635W        W 3060  44.511  25.477   1.606
30636W        W 3061  33.058  27.653  14.382
30637W        W 3062  23.980   9.105  13.799
30638W        W 3063   6.695  21.998  11.647
30639W        W 3064   1.432  21.252   4.024
30640W        W 3065  42.127  13.559   1.449
30641W        W 3066  24.444   6.726  14.755
30642W        W 3067  40.544  11.189  11.564
30643W        W 3068   2.496   6.392  12.564
30644W        W 3069  18.248  30.489   4.714
30645W        W 3070  33.813   4.810  11.919
30646W        W 3071  12.907   0.710   3.923
30647W        W 3072   3.758  13.066   4.928
30648W        W 3073  36.805  13.951   0.929
30649W        W 3074   0.200  23.005  11.497
30650W        W 3075  35.225   1.891   2.686
30651W        W 3076   4.933  29.127  14.710
30652W        W 3077  20.513  33.132  13.076
30653W        W 3078  39.555   6.792  12.356
30654W        W 3079  32.489  30.144  14.740
30655W        W 3080  26.031  29.408   2.353
30656W        W 3081  29.203  25.551   0.502
30657W        W 3082  36.093  31.862  14.329
30658W        W 3083  13.990  14.087  11.909
30659W        W 3084   7.918  36.998   4.662
30660W        W 3085   1.217  25.617  12.431
30661W        W 3086  36.409  41.824   2.703
30662W        W 3087  23.152  36.628   4.126
30663W        W 3088  16.099  36.238   0.254
30664W        W 3089  41.559   5.227   2.346
30665W        W 3090  21.165  17.968  13.875
30666W        W 3091   9.869  35.841  10.384
30667W        W 3092  29.653  38.601   3.838
30668W        W 3093  33.180   5.386   0.838
30669W        W 3094   2.120   3.827  10.444
30670W        W 3095  42.745  29.524   1.246
30671W        W 3096  21.850  31.888  12.620
30672W        W 3097  29.028  27.049   1.946
30673W        W 3098  17.094  13.310  12.121
30674W        W 3099  44.203  44.101  10.691
30675W        W 3100  37.679  22.624  12.067
30676W        W 3101  14.744  24.667  11.966
30677W        W 3102   7.298   4.311   4.123
30678W        W 3103  29.006  33.904  10.775
30679W        W 3104  29.668  30.338   0.832
30680W        W 3105   3.170  33.637   3.655
30681W        W 3106   0.404  34.730   4.931
30682W        W 3107  10.161  36.049   1.733
30683W        W 3108  40.131  32.899   3.108
30684W        W 3109  22.700   7.526  14.142
30685W        W 3110   2.524  25.766  12.101
30686W        W 3111  15.830  17.100   5.089
30687W        W 3112  23.236  19.700  13.026
30688W        W 3113  29.969   1.346  11.391
30689W        W 3114  35.661   5.731   0.508
30690W        W 3115  43.246  38.993  13.737
30691W        W 3116   0.818  16.124  11.078
30692W        W 3117  31.044   5.823   4.314
30693W        W 3118  12.720  42.364   1.945
30694W        W 3119  28.052   1.669  11.704
30695W        W 3120   6.767  28.884   3.029
30696W        W 3121  40.070  31.665   3.835
30697W        W 3122  16.979  20.451   1.508
30698W        W 3123  35.804   6.877   3.632
30699W        W 3124  30.232  26.499   3.698
30700W        W 3125  25.226  26.379  10.709
30701W        W 3126   6.100  28.858   4.733
30702W        W 3127   0.020   8.201  14.346
30703W        W 3128  30.509  40.479   3.705
30704W        W 3129  10.908   4.590  13.405
30705W        W 3130   8.770  43.771  14.926
30706W        W 3131  26.617   0.448  11.599
30707W        W 3132   4.730  34.820  12.036
30708W        W 3133  38.961  35.990   3.537
30709W        W 3134   0.459  24.678   1.886
30710W        W 3135  21.009  33.575   4.584
30711W        W 3136  39.358  16.175   3.778
30712W        W 3137  14.866  11.039  12.495
30713W        W 3138  26.592  23.200   2.430
30714W        W 3139   7.776  19.854  13.902
30715W        W 3140  35.365  33.408   4.132
30716W        W 3141  18.623  18.232   1.382
30717W        W 3142  24.534  11.603  13.015
30718W        W 3143   2.320  23.674  12.449
30719W        W 3144  37.446  14.218  11.944
30720W        W 3145  29.127  22.615  12.225
30721W        W 3146  19.455  23.630   4.581
30722W        W 3147  36.721  19.168   0.668
30723W        W 3148  35.153  33.138   0.323
30724W        W 3149  29.645  21.131  14.060
30725W        W 3150  33.992  36.832   0.446
30726W        W 3151  33.387   0.825   1.395
30727W        W 3152   8.462  18.583   3.229
30728W        W 3153  43.682  23.313   4.173
30729W        W 3154  19.182  36.920  13.394
30730W        W 3155  21.976   3.715  13.378
30731W        W 3156  13.121  26.913  11.856
30732W        W 3157  27.228  37.839   4.936
30733W        W 3158  11.308  10.087  14.954
30734W        W 3159  42.426   0.325  10.685
30735W        W 3160  31.815  25.998  12.603
30736W        W 3161  34.449  22.989  11.986
30737W        W 3162  23.577   3.382   0.504
30738W        W 3163  41.174  40.460   3.541
30739W        W 3164   3.950  35.551   4.579
30740W        W 3165  41.559  32.563  14.961
30741W        W 3166  39.590  10.731   2.769
30742W        W 3167   1.929  42.497   2.891
30743W        W 3168  10.027  12.226  10.790
30744W        W 3169  36.568  44.323  12.925
30745W        W 3170   5.793  13.259  14.358
30746W        W 3171  39.759   3.728  14.243
30747W        W 3172  16.688   8.950  12.064
30748W        W 3173  25.920   6.722  13.320
30749W        W 3174  32.434   2.921  10.693
30750W        W 3175  15.470   4.857   0.273
30751W        W 3176  38.479   4.953  13.911
30752W        W 3177   5.417  27.509  14.306
30753W        W 3178   1.791   0.008   1.703
30754W        W 3179  11.302   3.920   3.226
30755W        W 3180   6.413  35.775   3.667
30756W        W 3181   5.346  33.848   2.435
30757W        W 3182  15.177  44.408  10.831
30758W        W 3183  37.870   6.302   3.030
30759W        W 3184   0.266   9.658   4.309
30760W        W 3185  16.507  19.215   1.293
30761W        W 3186  38.860   5.885  12.752
30762W        W 3187  34.668  36.308   0.737
30763W        W 3188  41.612  14.350  11.217
30764W        W 3189  24.718  27.957   3.305
30765W        W 3190  36.143   0.910   0.416
30766W        W 3191  22.508  17.134  11.156
30767W        W 3192  21.594   3.223  10.772
30768W        W 3193   4.589   4.819   1.285
30769W        W 3194  24.364   7.751   1.902
30770W        W 3195  22.184  41.994  12.599
30771W        W 3196  35.116  35.841  12.000
30772W        W 3197  20.723   9.066  12.952
30773W        W 3198  34.769  32.910   1.121
30774W        W 3199  25.442  44.412   1.326
30775W        W 3200  41.918  43.226   2.939
30776W        W 3201  38.765  39.450  13.382
30777W        W 3202   4.330   8.280  13.274
30778W        W 3203   9.678  21.865  13.664
30779W        W 3204  28.981  39.702  13.025
30780W        W 3205  35.894   0.814  11.109
30781W        W 3206  16.772  19.068  13.405
30782W        W 3207  25.076  23.016   1.134
30783W        W 3208  11.273  35.538  11.082
30784W        W 3209  29.706   8.031   2.671
30785W        W 3210   3.462  32.295  12.102
30786W        W 3211  18.871  39.493   2.464
30787W        W 3212  34.967  41.924   1.190
30788W        W 3213   4.778  16.876  11.394
30789W        W 3214  17.662  10.719   0.763
30790W        W 3215  36.887  23.225   2.938
30791W        W 3216   4.179  27.040  13.371
30792W        W 3217  34.404  28.676  10.663
30793W        W 3218  19.916  30.627  11.254
30794W        W 3219  26.720  24.653   2.962
30795W        W 3220  13.664  43.539  13.532
30796W        W 3221  10.249  10.532  14.704
30797W        W 3222  25.533   4.593  10.162
30798W        W 3223   6.641  10.730  12.071
30799W        W 3224  32.365  32.912  11.634
30800W        W 3225  39.169   8.344  13.043
30801W        W 3226   1.787   9.772   3.716
30802W        W 3227  41.653   0.697   2.892
30803W        W 3228  21.844   2.945  11.207
30804W        W 3229  14.205   0.915  10.942
30805W        W 3230  40.305  35.921   4.084
30806W        W 3231  28.647  19.576   3.119
30807W        W 3232  17.628  15.637   4.530
30808W        W 3233  39.925  12.283   0.952
30809W        W 3234  11.356  16.340  12.714
30810W        W 3235   6.554  29.478   4.315
30811W        W 3236  24.680  11.718   1.664
30812W        W 3237   9.289  11.885   4.089
30813W        W 3238  18.088   8.674   4.374
30814W        W 3239   9.331  11.788  13.103
30815W        W 3240  11.379  17.706   3.922
30816W        W 3241  42.019   7.516   4.819
30817W        W 3242  32.014  13.732  13.341
30818W        W 3243  28.329  23.298   1.876
30819W        W 3244   8.653   1.494  11.856
30820W        W 3245  29.125  20.911   9.796
30821W        W 3246  31.305  40.496   4.502
30822W        W 3247  40.775  30.528  12.892
30823W        W 3248  43.693  20.644   2.459
30824W        W 3249  24.609  32.710  14.208
30825W        W 3250  36.176  13.163  13.334
30826W        W 3251  13.314  41.737   0.369
30827W        W 3252  29.309  31.145   3.302
30828W        W 3253  11.659  23.335  11.413
30829W        W 3254   2.909  26.544   4.334
30830W        W 3255  13.771  43.302   3.430
30831W        W 3256  10.048  28.698   4.896
30832W        W 3257  37.677   3.792  11.613
30833W        W 3258  23.118  41.864   4.684
30834W        W 3259  32.517  19.452  13.396
30835W        W 3260  13.840   8.937   3.197
30836W        W 3261   6.291   3.998   2.895
30837W        W 3262   2.286  22.039   2.765
30838W        W 3263  40.881  42.747   3.209
30839W        W 3264   6.299  12.678   0.672
30840W        W 3265  31.195  43.306  12.942
30841W        W 3266   7.891  19.717  10.672
30842W        W 3267  13.628  21.072  14.743
30843W        W 3268  21.194  27.974  11.635
30844W        W 3269  32.670  14.628   3.368
30845W        W 3270  37.098  43.885   1.175
30846W        W 3271  23.073  27.178  11.477
30847W        W 3272   4.852  11.829  12.855
30848W        W 3273  28.716   0.749  10.872
30849W        W 3274  11.897   1.903   0.392
30850W        W 3275  10.339   7.086  12.397
30851W        W 3276  25.404  18.569   3.396
30852W        W 3277   6.699  28.154  13.678
30853W        W 3278  15.480   5.953  11.841
30854W        W 3279   7.208  42.409   1.272
30855W        W 3280   0.949  43.258   1.633
30856W        W 3281  20.642  38.005   4.507
30857W        W 3282  35.521   6.240   1.641
30858W        W 3283  21.518  35.036   4.154
30859W        W 3284  21.498  41.510   3.680
30860W        W 3285  19.771   5.282   2.655
30861W        W 3286  17.229  16.735   4.875
30862W        W 3287  24.596   6.213  11.681
30863W        W 3288  23.515  20.620   2.709
30864W        W 3289  32.139  22.684  14.340
30865W        W 3290  39.332  11.748   2.200
30866W        W 3291  20.602  29.857   0.218
30867W        W 3292  11.446   7.295   1.385
30868W        W 3293  27.574   8.686   0.877
30869W        W 3294  33.573  35.608  14.945
30870W        W 3295   9.276  42.170   1.841
30871W        W 3296  26.924  44.565   0.749
30872W        W 3297   0.392  25.800   3.842
30873W        W 3298   2.850  36.515   4.162
30874W        W 3299  15.730  31.630   3.734
30875W        W 3300  24.791  29.549  13.123
30876W        W 3301   8.214  11.880   0.933
30877W        W 3302  35.178   6.258   0.800
30878W        W 3303   9.486  26.159  11.508
30879W        W 3304  32.492  14.733   1.733
30880W        W 3305  43.194  32.927  14.378
30881W        W 3306  29.348  29.470  10.779
30882W        W 3307   0.288  27.143  13.880
30883W        W 3308  21.532  41.244  12.926
30884W        W 3309   9.157  17.775  12.550
30885W        W 3310  10.098   7.717  11.165
30886W        W 3311  15.578  34.201   0.794
30887W        W 3312  38.165   6.701  11.008
30888W        W 3313  43.545   0.450  11.555
30889W        W 3314  35.357  18.292  11.319
30890W        W 3315  26.654  13.981   3.683
30891W        W 3316  31.576   4.674  11.683
30892W        W 3317  13.799   0.431   0.463
30893W        W 3318   9.932  37.530  14.767
30894W        W 3319  34.712  15.947  11.129
30895W        W 3320  16.568  30.883   1.317
30896W        W 3321  39.438  10.914  11.908
30897W        W 3322   7.861  43.247  10.741
30898W        W 3323  40.281   6.216  14.262
30899W        W 3324   8.172   6.122  14.965
30900W        W 3325  39.830  22.043  12.457
30901W        W 3326  26.968  28.587  11.162
30902W        W 3327  39.462   5.256  14.165
30903W        W 3328   0.550  11.146  10.799
30904W        W 3329  21.347  30.116  11.153
30905W        W 3330  31.458   8.661   3.114
30906W        W 3331  18.140  24.196  11.935
30907W        W 3332  23.464  41.508   4.912
30908W        W 3333  40.398  41.482  14.508
30909W        W 3334  22.297  14.731   2.392
30910W        W 3335  35.377   4.322  14.902
30911W        W 3336   4.800  43.534   3.189
30912W        W 3337  32.625   7.228  11.481
30913W        W 3338  36.708  28.690   3.665
30914W        W 3339  13.635  42.422   3.969
30915W        W 3340  20.622  13.095  10.590
30916W        W 3341  21.668   3.183   0.811
30917W        W 3342  27.927  10.715  10.890
30918W        W 3343  43.831  21.561   3.848
30919W        W 3344  17.186   6.391   1.761
30920W        W 3345   1.775  36.606   1.187
30921W        W 3346  23.616  24.075   1.016
30922W        W 3347  41.984  24.248   1.800
30923W        W 3348   0.827   4.728  12.076
30924W        W 3349  27.829  34.204   1.755
30925W        W 3350  19.436  10.331  12.181
30926W        W 3351  13.204   2.050  12.084
30927W        W 3352   4.837   8.378   0.294
30928W        W 3353   4.822  42.030  13.517
30929W        W 3354  30.126  34.357   4.570
30930W        W 3355  43.517  40.139   4.317
30931W        W 3356   5.097  44.201  11.546
30932W        W 3357  26.119  26.766  13.897
30933W        W 3358  25.968  16.370  11.999
30934W        W 3359  30.474  12.184   0.725
30935W        W 3360  34.070  30.091   2.413
30936W        W 3361  14.374  36.941  12.898
30937W        W 3362  20.110  14.751   4.105
30938W        W 3363  26.461   6.361  10.676
30939W        W 3364  18.448   1.174   3.569
30940W        W 3365  29.139   3.138  13.397
30941W        W 3366  14.674  11.291  12.039
30942W        W 3367  24.101  39.498   3.215
30943W        W 3368   0.036   2.667  13.365
30944W        W 3369  13.815  24.233  14.027
30945W        W 3370   3.837   0.013  12.548
30946W        W 3371  36.922   3.925   4.822
30947W        W 3372  31.672   5.317   0.935
30948W        W 3373  31.163  36.595  13.096
30949W        W 3374  37.909  37.022  14.406
30950W        W 3375  28.558  42.835  11.513
30951W        W 3376  24.648  30.973   3.837
30952W        W 3377  33.441  32.336   3.227
30953W        W 3378  42.924  39.372  11.168
30954W        W 3379  44.355   7.464  12.465
30955W        W 3380   8.207   0.491   1.234
30956W        W 3381   3.704  20.630   3.354
30957W        W 3382  14.147  38.076  13.228
30958W        W 3383   2.376  33.388   2.728
30959W        W 3384   1.351  32.390   5.009
30960W        W 3385  19.851  30.421   4.113
30961W        W 3386  30.726   7.245   4.218
30962W        W 3387   7.423  41.507   3.451
30963W        W 3388  28.527  44.887   4.999
30964W        W 3389  41.038  42.268  12.869
30965W        W 3390  18.271  40.329  10.639
30966W        W 3391   9.804  20.169   0.023
30967W        W 3392  41.934  32.997  12.960
30968W        W 3393  34.518  30.727   0.279
30969W        W 3394  43.036  20.391  10.931
30970W        W 3395  15.138  33.115  13.571
30971W        W 3396   5.179  13.822   0.450
30972W        W 3397   7.435  43.422  10.501
30973W        W 3398  42.484  33.936   3.783
30974W        W 3399  33.653  16.109   2.775
30975W        W 3400  11.489   4.637  11.176
30976W        W 3401   1.970  26.831   2.412
30977W        W 3402  26.066  18.790  13.285
30978W        W 3403  25.404   3.933  11.193
30979W        W 3404   3.796  27.668   3.322
30980W        W 3405   7.326  38.977   0.732
30981W        W 3406  23.007  14.658  12.202
30982W        W 3407  17.161  42.766   1.533
30983W        W 3408  31.102  40.465  14.765
30984W        W 3409   2.986   9.233  10.482
30985W        W 3410  40.618  40.449   1.682
30986W        W 3411  13.345  15.634  10.089
30987W        W 3412  33.414  35.839   1.449
30988W        W 3413  37.612   6.706  14.041
30989W        W 3414  20.673  10.762  12.384
30990W        W 3415  43.513  36.577  10.906
30991W        W 3416  13.025  27.677  13.617
30992W        W 3417   2.075  12.221   1.684
30993W        W 3418  14.077  10.706   2.630
30994W        W 3419  44.441  18.994   2.318
30995W        W 3420  22.733  33.548  13.123
30996W        W 3421  25.543  16.464   2.197
30997W        W 3422  23.779  20.735   3.158
30998W        W 3423  20.825  25.115   4.014
30999W        W 3424  11.752  39.392  10.511
31000W        W 3425   7.716   1.372   3.265
31001W        W 3426  18.103  38.872   1.363
31002W        W 3427  41.454  16.497  11.948
31003W        W 3428  13.158  29.317   3.237
31004W        W 3429  16.330   6.817  10.501
31005W        W 3430  41.008  31.450   1.431
31006W        W 3431  36.602   7.289   4.687
31007W        W 3432  27.017  43.992   2.784
31008W        W 3433   0.382  24.168   2.823
31009W        W 3434  28.971  42.518   0.612
31010W        W 3435  14.287  13.119   2.362
31011W        W 3436   6.507   9.783  11.096
31012W        W 3437   3.507  37.130  11.150
31013W        W 3438   5.269  19.664  10.706
31014W        W 3439  21.597   0.491   2.803
31015W        W 3440   6.890   8.169   0.296
31016W        W 3441   9.947  28.591   0.429
31017W        W 3442  11.670   1.346  10.914
31018W        W 3443  33.881  10.257  11.546
31019W        W 3444   1.211   0.894  13.053
31020W        W 3445  34.108  27.205  14.750
31021W        W 3446   5.662  15.374   4.239
31022W        W 3447   3.532  10.809   1.200
31023W        W 3448  12.709  30.102  12.325
31024W        W 3449  27.405   1.893   3.901
31025W        W 3450   5.130   2.750   1.901
31026W        W 3451   0.754  18.199  13.350
31027W        W 3452  38.111   4.995  14.766
31028W        W 3453  42.353  40.725  13.800
31029W        W 3454  30.914   6.354   1.839
31030W        W 3455  26.545  14.859   4.978
31031W        W 3456   6.305  18.792   2.809
31032W        W 3457  15.393  22.669  13.691
31033W        W 3458  12.912  34.443   1.260
31034W        W 3459   5.387   4.291  11.534
31035W        W 3460  43.773  18.158  12.651
31036W        W 3461  24.437   0.316  13.907
31037W        W 3462  37.747  24.505   2.718
31038W        W 3463  38.352  18.316  14.855
31039W        W 3464  41.443  44.178  12.005
31040W        W 3465  40.950   3.557   3.139
31041W        W 3466   9.418   6.750   1.922
31042W        W 3467  37.309  17.328   2.716
31043W        W 3468  43.871  18.610  13.951
31044W        W 3469  18.481  29.644  13.591
31045W        W 3470   5.382  42.453   2.954
31046W        W 3471  22.759  44.639   3.346
31047W        W 3472  44.563   4.252  12.851
31048W        W 3473  42.026  23.041  14.908
31049W        W 3474  32.737  36.668   3.256
31050W        W 3475  43.024  22.215   3.506
31051W        W 3476  31.892  28.570   3.098
31052W        W 3477  26.019  26.658  11.373
31053W        W 3478  36.851   6.871  12.878
31054W        W 3479   6.823  34.003   3.161
31055W        W 3480  36.955  43.376  13.042
31056W        W 3481   6.824  31.375  13.085
31057W        W 3482  38.971  44.858  11.110
31058W        W 3483   8.072   8.246  11.025
31059W        W 3484   0.351   9.330   3.037
31060W        W 3485  32.691  40.799   3.332
31061W        W 3486  31.169   4.815  14.426
31062W        W 3487  28.980  34.474   4.520
31063W        W 3488  27.773  25.642  12.466
31064W        W 3489  13.855  11.227  14.676
31065W        W 3490  44.440  16.873   1.753
31066W        W 3491  18.503  38.839  14.221
31067W        W 3492   2.330  38.373   3.596
31068W        W 3493  19.830  38.559  11.201
31069W        W 3494   7.499  38.924   3.749
31070W        W 3495  38.478  23.078   3.780
31071W        W 3496   6.819  23.929   1.054
31072W        W 3497  23.971   0.857   1.336
31073W        W 3498  25.700   5.404   1.057
31074W        W 3499  43.695  32.291  12.445
31075W        W 3500  34.431  18.839  14.588
31076W        W 3501  20.285  41.599  10.732
31077W        W 3502  23.810  35.763  11.899
31078W        W 3503   9.227  43.694   0.199
31079W        W 3504  17.896  44.274   9.958
31080W        W 3505  18.248  30.157   3.552
31081W        W 3506  36.249  29.984   4.807
31082W        W 3507  20.993  22.920   5.530
31083W        W 3508  16.870  34.564   2.653
31084W        W 3509   0.953   1.975   3.315
31085W        W 3510  32.460  10.677  12.357
31086W        W 3511   0.010  42.007   0.259
31087W        W 3512  31.549  17.758  11.968
31088W        W 3513   6.352  12.556  14.240
31089W        W 3514  13.284   5.901  13.417
31090W        W 3515  24.905  33.974   0.989
31091W        W 3516   9.366  12.742   0.703
31092W        W 3517  25.609  44.607   2.621
31093W        W 3518  12.597  42.919  13.026
31094W        W 3519  23.024  14.549  13.709
31095W        W 3520  38.893  25.299   9.986
31096W        W 3521  43.189   6.474  13.465
31097W        W 3522   3.746   1.355   0.395
31098W        W 3523  22.298  43.867   1.210
31099W        W 3524  19.272   0.353   2.829
31100W        W 3525   8.368  23.786  14.850
31101W        W 3526   7.650  19.239  10.652
31102W        W 3527  24.662  24.538  10.509
31103W        W 3528  44.273  24.465  13.909
31104W        W 3529   8.958  39.002  10.835
31105W        W 3530  26.102   0.958  12.090
31106W        W 3531  29.566  35.066  13.934
31107W        W 3532   6.498  22.328  14.717
31108W        W 3533  12.790   1.891   0.779
31109W        W 3534  30.533   6.411  11.498
31110W        W 3535  14.348  14.016   2.995
31111W        W 3536   9.734  44.754  14.377
31112W        W 3537  19.838  30.454   1.228
31113W        W 3538  44.712  25.219   0.443
31114W        W 3539   3.739   3.431   0.285
31115W        W 3540  42.070  17.121  11.328
31116W        W 3541  19.707   2.442   3.200
31117W        W 3542  21.546  17.215  11.543
31118W        W 3543  39.936   4.896   4.571
31119W        W 3544  34.460   1.915   1.330
31120W        W 3545  43.558  32.803   4.225
31121W        W 3546  37.469  19.767  12.419
31122W        W 3547   7.466  11.642   3.233
31123W        W 3548  42.352  32.445   0.028
31124W        W 3549  30.196   8.142   2.872
31125W        W 3550  30.879  35.621   3.810
31126W        W 3551  42.580  35.056  14.831
31127W        W 3552  24.521  33.326   3.766
31128W        W 3553  44.317  12.357  10.680
31129W        W 3554  38.156  23.698   4.899
31130W        W 3555  43.378  12.349   3.724
31131W        W 3556  44.999  34.957   9.958
31132W        W 3557  40.797   9.403   0.229
31133W        W 3558  36.875  16.786  14.783
31134W        W 3559  22.214  16.743   3.678
31135W        W 3560  19.837   0.171   3.781
31136W        W 3561  30.380   9.202  14.448
31137W        W 3562  23.512  10.722   0.885
31138W        W 3563  14.784  30.673  14.315
31139W        W 3564  15.107  25.440   4.797
31140W        W 3565  12.894  32.487   4.864
31141W        W 3566  35.879  33.457   2.261
31142W        W 3567   4.975  42.375   2.169
31143W        W 3568  22.589   8.518   2.035
31144W        W 3569  35.126  11.788   2.640
31145W        W 3570  31.531  40.337  13.830
31146W        W 3571   6.440  24.360  12.891
31147W        W 3572  21.977  31.660   2.143
31148W        W 3573  11.080  17.358  12.138
31149W        W 3574  37.633  34.203   3.594
31150W        W 3575  15.118   0.175  12.605
31151W        W 3576  24.715   3.735   0.280
31152W        W 3577  10.141  10.046   1.117
31153W        W 3578   2.660   7.071   4.178
31154W        W 3579  17.284  23.329   1.677
31155W        W 3580   4.491  17.334   1.683
31156W        W 3581  20.199   4.111  12.128
31157W        W 3582  13.546  22.931   0.496
31158W        W 3583  39.777  43.061   1.171
31159W        W 3584  21.082  26.647   2.594
31160W        W 3585   5.219  30.361   1.021
31161W        W 3586  16.288  13.365  10.781
31162W        W 3587   6.482  19.705   3.235
31163W        W 3588   1.881  12.540  12.362
31164W        W 3589  13.173   8.884   1.330
31165W        W 3590  31.777   8.788  13.419
31166W        W 3591   4.962  16.564  14.049
31167W        W 3592  20.191   6.210  13.043
31168W        W 3593  26.099  42.797   0.784
31169W        W 3594   2.705   8.516  11.092
31170W        W 3595  13.075  40.006   4.504
31171W        W 3596  19.647  28.101   1.433
31172W        W 3597  33.231   9.570  13.567
31173W        W 3598  31.036  13.099   1.297
31174W        W 3599   3.808  44.729   3.635
31175W        W 3600  29.662   2.879  10.514
31176W        W 3601   9.885   7.431  13.742
31177W        W 3602  23.172  23.992  10.587
31178W        W 3603  12.165  43.197   1.162
31179W        W 3604  18.584  29.434  10.545
31180W        W 3605  15.439  35.487  12.328
31181W        W 3606  14.831  14.172   3.199
31182W        W 3607  18.461  36.243  14.508
31183W        W 3608  37.269   7.473  12.374
31184W        W 3609  35.216   2.723  14.877
31185W        W 3610  21.156  22.515   2.585
31186W        W 3611   5.721   9.884   1.810
31187W        W 3612  13.757  34.817  14.569
31188W        W 3613   0.701  35.381   0.764
31189W        W 3614  21.387  17.117  13.020
31190W        W 3615   8.695  21.069  14.396
31191W        W 3616  29.816   3.764   2.040
31192W        W 3617  23.295  25.941   1.171
31193W        W 3618   2.015  12.760  11.022
31194W        W 3619  33.627   8.163   4.043
31195W        W 3620  29.685   4.354   1.251
31196W        W 3621  39.321   2.003   1.876
31197W        W 3622  28.247   2.933   3.552
31198W        W 3623  40.054  12.310   3.218
31199W        W 3624   1.720  41.424   2.762
31200W        W 3625  26.431  26.922  11.547
31201W        W 3626   2.428  37.557   4.705
31202W        W 3627  31.502  16.750  13.583
31203W        W 3628  43.344  34.564  12.389
31204W        W 3629  19.972  22.604  10.331
31205W        W 3630  42.072  43.399   0.888
31206W        W 3631   4.470  11.277  10.401
31207W        W 3632  23.385  39.017  13.409
31208W        W 3633  13.069  39.334  10.451
31209W        W 3634  43.479  19.612   9.793
31210W        W 3635  20.510  39.388  14.905
31211W        W 3636  35.970   3.115  11.094
31212W        W 3637  37.271   4.312   1.855
31213W        W 3638   7.630  43.764   4.831
31214W        W 3639  32.943  21.040   4.091
31215W        W 3640   0.646  39.532  11.057
31216W        W 3641  33.483   1.707   1.156
31217W        W 3642  44.458   1.273   3.531
31218W        W 3643   4.854  31.919  14.539
31219W        W 3644   5.097   8.761  13.287
31220W        W 3645  21.572  17.822   0.855
31221W        W 3646   5.225  33.220  14.079
31222W        W 3647  43.537  25.244   1.329
31223W        W 3648  28.644  23.663   0.310
31224W        W 3649  35.005  13.377   2.417
31225W        W 3650  17.757  37.478   2.195
31226W        W 3651  43.766  15.608   1.683
31227W        W 3652  17.995  19.068   4.664
31228W        W 3653  20.415  36.579  12.920
31229W        W 3654   8.343   7.401  11.626
31230W        W 3655   4.552   1.341  12.882
31231W        W 3656   2.112  43.293   4.908
31232W        W 3657  23.434  35.853  13.993
31233W        W 3658  31.148   4.871  11.930
31234W        W 3659   0.407  42.381   3.709
31235W        W 3660  22.759  32.843   0.417
31236W        W 3661  17.677  32.364   0.279
31237W        W 3662  12.295  26.082   3.696
31238W        W 3663  31.426  13.663  10.686
31239W        W 3664   5.242  21.617  10.667
31240W        W 3665  26.359  21.498   2.649
31241W        W 3666  10.187  12.790   4.048
31242W        W 3667  21.765  35.059  11.624
31243W        W 3668  42.816  25.075  12.832
31244W        W 3669  13.168  18.283  12.642
31245W        W 3670  14.673  31.527  11.216
31246W        W 3671   6.867   7.188   3.414
31247W        W 3672  40.611  18.500  12.023
31248W        W 3673  40.681  39.904   3.281
31249W        W 3674  35.362  14.895  11.325
31250W        W 3675   2.387   6.632   1.317
31251W        W 3676  10.632  20.754   4.574
31252W        W 3677  15.112   7.359  13.953
31253W        W 3678   7.244   1.571  10.697
31254W        W 3679  35.667  31.549  11.895
31255W        W 3680  18.176  33.144   9.819
31256W        W 3681  34.135  44.507   4.468
31257W        W 3682   6.442  39.474  12.395
31258W        W 3683  34.265  23.422  14.432
31259W        W 3684  44.951   3.001   2.687
31260W        W 3685  20.992  35.514   2.114
31261W        W 3686  40.119  37.708  13.897
31262W        W 3687  17.371  20.244   1.274
31263W        W 3688   5.360  37.651  10.338
31264W        W 3689  16.640  12.305   2.000
31265W        W 3690  25.015  20.274  12.994
31266W        W 3691  19.950   8.821  12.675
31267W        W 3692  17.162   7.723   4.777
31268W        W 3693   7.350  26.734  12.363
31269W        W 3694  38.944  27.085  11.491
31270W        W 3695  14.100  34.884  11.397
31271W        W 3696  13.154  20.409   1.290
31272W        W 3697  18.179   2.721   2.812
31273W        W 3698   4.631  14.732   2.285
31274W        W 3699  30.608  43.856   4.058
31275W        W 3700   3.493  38.131   2.176
31276W        W 3701  23.009  27.683  11.602
31277W        W 3702  29.696  12.064   1.417
31278W        W 3703  11.066  22.551   9.924
31279W        W 3704  37.527  33.521  11.575
31280W        W 3705  23.591  44.859   4.547
31281W        W 3706  44.307   9.350   0.970
31282W        W 3707   8.418  35.022   2.607
31283W        W 3708  33.352  33.464   2.339
31284W        W 3709  41.478  27.754   2.272
31285W        W 3710  10.269  42.786  13.838
31286W        W 3711  11.428  36.444  12.789
31287W        W 3712  28.886  23.123   1.056
31288W        W 3713   2.476  14.305  11.595
31289W        W 3714  11.253   9.461  12.035
31290W        W 3715  23.531  37.179  12.350
31291W        W 3716  13.565  42.619  13.674
31292W        W 3717  25.136  44.391   2.777
31293W        W 3718  27.288   7.940   4.084
31294W        W 3719   1.021  18.777   3.342
31295W        W 3720   0.333  42.905  11.448
31296W        W 3721  28.547   3.504  10.397
31297W        W 3722  20.176  17.003  11.451
31298W        W 3723  13.404  38.823  12.353
31299W        W 3724   9.866  25.755  10.568
31300W        W 3725  33.353  19.689  14.932
31301W        W 3726  39.999   9.893  12.757
31302W        W 3727  31.477  13.888  11.610
31303W        W 3728  18.183   7.874   5.006
31304W        W 3729  31.539  39.805  12.090
31305W        W 3730  36.378  43.708  13.462
31306W        W 3731  13.834   8.203  13.300
31307W        W 3732   9.386  37.072  10.759
31308W        W 3733  27.929  42.288   1.855
31309W        W 3734  27.696   4.397  12.900
31310W        W 3735   6.270   2.703  12.420
31311W        W 3736  34.625  24.139  10.464
31312W        W 3737  25.789  25.355  11.206
31313W        W 3738  21.935   9.446  12.205
31314W        W 3739  36.027  30.550   2.655
31315W        W 3740  30.494  29.559  13.356
31316W        W 3741  13.258  42.767  14.559
31317W        W 3742  28.034  44.927   2.366
31318W        W 3743   5.903  24.041   3.829
31319W        W 3744  38.641  10.728   4.708
31320W        W 3745  35.367  33.238  11.108
31321W        W 3746   2.365  11.636  14.190
31322W        W 3747  37.819  39.571  11.200
31323W        W 3748  42.970  34.920   4.527
31324W        W 3749  17.767   9.607   0.421
31325W        W 3750  40.536  13.639  13.480
31326W        W 3751  24.050   5.298  12.501
31327W        W 3752  22.749  14.827  13.334
31328W        W 3753  24.978  12.148   2.247
31329W        W 3754   9.753  35.554   4.601
31330W        W 3755  39.602  24.194   1.177
31331W        W 3756  38.938   1.214  13.818
31332W        W 3757  22.153  43.533   2.438
31333W        W 3758  17.610  14.045   1.108
31334W        W 3759  20.996  35.519  11.560
31335W        W 3760  40.188  17.670  12.397
31336W        W 3761  16.384  11.290  13.929
31337W        W 3762   0.326  14.266  12.080
31338W        W 3763  22.480  17.581  10.402
31339W        W 3764  14.138  10.868  11.557
31340W        W 3765  41.923  19.662   3.114
31341W        W 3766  14.531  42.762  14.892
31342W        W 3767  43.004   9.723   2.061
31343W        W 3768  41.448  15.335   3.322
31344W        W 3769  17.488  17.207  14.326
31345W        W 3770  24.149   4.690   3.127
31346W        W 3771  12.636  21.197  11.406
31347W        W 3772   3.291  19.478  13.768
31348W        W 3773  18.088  42.938  14.304
31349W        W 3774   4.271  16.819   1.682
31350W        W 3775   9.746  36.029   4.155
31351W        W 3776  15.050  17.341  12.424
31352W        W 3777   0.904  21.464   4.667
31353W        W 3778  43.526   9.727  14.304
31354W        W 3779  21.581  28.429  13.780
31355W        W 3780  17.139  20.271   2.234
31356W        W 3781  41.335  13.197  14.446
31357W        W 3782  32.099  31.058  13.303
31358W        W 3783  11.343  38.546   2.642
31359W        W 3784   4.210  24.025   4.553
31360W        W 3785  44.656  30.296  11.963
31361W        W 3786  41.483  15.186  12.588
31362W        W 3787  10.106  21.547   1.764
31363W        W 3788  33.369   8.850   3.668
31364W        W 3789   3.315   0.699   2.155
31365W        W 3790  18.281  33.880   1.935
31366W        W 3791  22.499   6.721  12.109
31367W        W 3792  19.309  42.318  14.994
31368W        W 3793  30.637  17.118  14.861
31369W        W 3794  16.291  40.895  10.969
31370W        W 3795  39.317  20.634   3.980
31371W        W 3796   3.485  12.122   3.802
31372W        W 3797  24.625  44.504  11.604
31373W        W 3798   2.780  42.811  12.980
31374W        W 3799  34.149  13.875   2.420
31375W        W 3800  41.520  42.505  12.824
31376W        W 3801  17.299  39.040   3.169
31377W        W 3802   4.954  32.336   1.820
31378W        W 3803   4.835   3.962   4.551
31379W        W 3804  18.814  33.603   2.737
31380W        W 3805  15.579  29.845   2.592
31381W        W 3806  16.092  22.829  11.581
31382W        W 3807  28.101  12.865  13.969
31383W        W 3808  19.147  38.767   1.345
31384W        W 3809  35.517  39.922   4.550
31385W        W 3810   3.483  34.092   2.920
31386W        W 3811  20.798  24.679  10.761
31387W        W 3812   7.682  15.717  10.747
31388W        W 3813   4.743   7.489  10.276
31389W        W 3814  12.845  19.136  12.985
31390W        W 3815  22.093   0.267  11.569
31391W        W 3816   2.860  11.398  12.874
31392W        W 3817   7.198  14.296  12.155
31393W        W 3818   8.454   0.486  13.921
31394W        W 3819  39.536  36.503  14.549
31395W        W 3820   6.908  20.988  14.229
31396W        W 3821   0.939   6.607   1.212
31397W        W 3822  22.422  22.304   2.782
31398W        W 3823  24.329   4.374   2.322
31399W        W 3824  16.420   7.288  13.575
31400W        W 3825  44.984  12.937  14.421
31401W        W 3826   6.868  28.878   1.067
31402W        W 3827  26.218  29.479   0.664
31403W        W 3828   2.887  30.166  12.960
31404W        W 3829  24.511   9.564  12.852
31405W        W 3830  41.454  17.068   3.208
31406W        W 3831  32.097   2.764   2.896
31407W        W 3832  18.358  25.102  13.224
31408W        W 3833  28.483   7.866  11.738
31409W        W 3834  14.368  15.790   2.095
31410W        W 3835   7.435  36.457  14.834
31411W        W 3836  40.576   8.589   4.034
31412W        W 3837  39.093   8.618  14.813
31413W        W 3838  18.335  17.262   3.912
31414W        W 3839   4.785  42.691  11.675
31415W        W 3840  21.440   4.867   0.918
31416W        W 3841  12.119   1.259  11.187
31417W        W 3842  39.581  30.541  14.824
31418W        W 3843  15.085  14.833  14.961
31419W        W 3844  19.682  15.550  13.107
31420W        W 3845   9.139  20.085   0.280
31421W        W 3846  31.544  15.080   4.203
31422W        W 3847  22.084  13.143   4.976
31423W        W 3848  42.034  22.362   4.581
31424W        W 3849  23.224   7.829   4.477
31425W        W 3850   7.057  44.380  11.552
31426W        W 3851  20.259  18.186  13.544
31427W        W 3852  28.763  38.355  12.532
31428W        W 3853   2.190  16.767   3.882
31429W        W 3854  10.689  21.580  14.010
31430W        W 3855   6.182  30.604  14.092
31431W        W 3856  17.118  25.880  14.227
31432W        W 3857  30.496  41.439  11.918
31433W        W 3858  26.921   3.349  10.520
31434W        W 3859  21.548  26.945  11.105
31435W        W 3860  24.803  18.137   1.408
31436W        W 3861  32.031   3.208   1.915
31437W        W 3862  22.172  24.755   3.046
31438W        W 3863  11.825  25.996  11.490
31439W        W 3864  21.809  12.424   1.022
31440W        W 3865  23.524  19.230  14.527
31441W        W 3866  42.268  11.067  13.761
31442W        W 3867  34.077   8.173  11.397
31443W        W 3868   6.457   1.272  11.906
31444W        W 3869  30.952   2.792   4.379
31445W        W 3870  13.128   3.225   2.348
31446W        W 3871  43.500  43.397  13.298
31447W        W 3872  42.014   2.173  12.058
31448W        W 3873  32.559  20.013  11.977
31449W        W 3874   2.994  40.501  11.576
31450W        W 3875  31.950  14.842  10.751
31451W        W 3876  24.418  20.163   2.792
31452W        W 3877  28.888  22.598  14.153
31453W        W 3878  42.156  37.946  11.589
31454W        W 3879  42.946   2.368  12.795
31455W        W 3880  12.802  34.405   0.274
31456W        W 3881   1.481  20.298  14.564
31457W        W 3882  30.077   6.820  13.516
31458W        W 3883  13.847  18.062   4.180
31459W        W 3884  37.362  20.261  12.292
31460W        W 3885  13.894  33.697  13.336
31461W        W 3886  39.962  36.318  10.749
31462W        W 3887  11.671  38.864  13.828
31463W        W 3888  14.628  21.192  12.040
31464W        W 3889  13.914  29.805  11.223
31465W        W 3890   6.874  13.251   4.187
31466W        W 3891  36.541   8.342   4.664
31467W        W 3892  38.900   0.531   4.735
31468W        W 3893  27.621  28.005  12.720
31469W        W 3894   9.061  12.163  14.283
31470W        W 3895  32.321  16.109  12.464
31471W        W 3896  26.529   7.946  12.297
31472W        W 3897   4.706  11.398  14.988
31473W        W 3898  26.168   4.844  11.405
31474W        W 3899  17.953   0.834  11.145
31475W        W 3900  15.245  13.077   1.670
31476W        W 3901   9.310   5.951  14.781
31477W        W 3902  35.530  14.680  12.361
31478W        W 3903  32.485   8.268  14.429
31479W        W 3904  12.668  26.476   1.230
31480W        W 3905  16.150   8.121   0.710
31481W        W 3906   8.353  38.282  14.966
31482W        W 3907  23.233  22.718   3.635
31483W        W 3908  30.305  21.296  14.999
31484W        W 3909  44.019  24.918   2.824
31485W        W 3910  16.266   6.368   1.926
31486W        W 3911  18.106  43.919  12.469
31487W        W 3912  28.524   2.545   3.807
31488W        W 3913  19.121  15.251   1.536
31489W        W 3914  21.052  30.994   2.898
31490W        W 3915  26.542   7.594  11.913
31491W        W 3916  23.126  15.991   1.233
31492W        W 3917  42.521  42.763   4.779
31493W        W 3918  14.259  38.094  14.581
31494W        W 3919   0.565  27.146  11.078
31495W        W 3920  25.954  20.597   1.418
31496W        W 3921   3.929  37.997  11.638
31497W        W 3922  30.966  31.610   3.652
31498W        W 3923  32.450  27.070   3.628
31499W        W 3924  29.707  25.324  11.897
31500W        W 3925  22.560   7.731  14.592
31501W        W 3926  21.196  12.618   4.292
31502W        W 3927   8.821  22.175   2.795
31503W        W 3928   6.332  37.054  12.051
31504W        W 3929  11.535   8.218  12.338
31505W        W 3930   1.637  40.806   3.627
31506W        W 3931  12.193  35.147   4.540
31507W        W 3932  28.910   5.319  10.892
31508W        W 3933  32.555  12.315   2.339
31509W        W 3934  38.849   2.272  10.623
31510W        W 3935  39.888  25.537  12.074
31511W        W 3936  21.584  40.375   4.511
31512W        W 3937  38.581  12.223  11.541
31513W        W 3938  41.495  24.127  10.926
31514W        W 3939   3.627   9.903   0.719
31515W        W 3940  27.217  33.135  10.905
31516W        W 3941  16.838  39.906   0.734
31517W        W 3942  38.139  39.280  11.503
31518W        W 3943  23.554   7.719   0.596
31519W        W 3944  26.188  18.320  13.460
31520W        W 3945  30.977  15.964  12.198
31521W        W 3946  39.692   8.047  13.899
31522W        W 3947   7.340  30.050  12.893
31523W        W 3948  30.643  26.243   2.855
31524W        W 3949  20.233  21.223  12.419
31525W        W 3950   3.398  16.763  14.841
31526W        W 3951  25.088  26.779   1.382
31527W        W 3952  10.133  35.003  13.936
31528W        W 3953  20.779  27.498   1.702
31529W        W 3954  18.819  35.701   0.813
31530W        W 3955   3.986   5.748  13.833
31531W        W 3956  17.145  33.194   2.742
31532W        W 3957  32.508   2.889  11.617
31533W        W 3958  38.491   6.385  11.643
31534W        W 3959  19.707  44.057   4.484
31535W        W 3960  12.333  37.432   3.954
31536W        W 3961  30.272  13.963  13.930
31537W        W 3962  20.293  33.995   4.720
31538W        W 3963  29.425  28.965   0.830
31539W        W 3964  42.467  31.363   3.747
31540W        W 3965   6.462   5.666  14.253
31541W        W 3966  11.648  41.454   0.796
31542W        W 3967  43.856  15.847   0.227
31543W        W 3968  41.908  20.534   1.874
31544W        W 3969  15.109  31.669  11.493
31545W        W 3970  32.523  25.306   3.653
31546W        W 3971  17.702  15.851  12.946
31547W        W 3972  44.314  15.118   0.008
31548W        W 3973  35.380  24.986  13.911
31549W        W 3974  25.764  20.696   2.274
31550W        W 3975  37.162   6.177   1.612
31551W        W 3976   1.179  19.233   4.116
31552W        W 3977  10.072  12.797  12.477
31553W        W 3978  30.082  27.042  12.120
31554W        W 3979  21.243   6.235   2.471
31555W        W 3980  11.127  34.148  12.137
31556W        W 3981  13.103   7.259   4.110
31557W        W 3982  21.914  12.607  12.993
31558W        W 3983  40.045  29.087   2.809
31559W        W 3984  11.761  11.766   3.678
31560W        W 3985  42.954  39.407  13.753
31561W        W 3986  42.110  24.183  11.563
31562W        W 3987  42.615  20.174  13.095
31563W        W 3988  28.719   9.299  14.430
31564W        W 3989  10.756  22.677  12.877
31565W        W 3990  33.265   2.136   0.387
31566W        W 3991  18.075   8.346  13.081
31567W        W 3992  10.769  12.788  10.894
31568W        W 3993  43.982  25.320  12.346
31569W        W 3994   1.956  43.327  12.029
31570W        W 3995  31.606  28.697  11.705
31571W        W 3996  31.980   4.178   4.236
31572W        W 3997   1.466   2.763   2.960
31573W        W 3998   2.180  24.482  11.605
31574W        W 3999  44.422  41.449  14.842
31575W        W 4000   9.574  12.235  14.389
31576W        W 4001  35.620  35.731  12.009
31577W        W 4002  25.710  25.762   4.194
31578W        W 4003  41.857  16.873  12.087
31579W        W 4004  34.227  10.774   2.813
31580W        W 4005  29.455  43.001  13.065
31581W        W 4006  16.765   6.044   0.830
31582W        W 4007  26.021  15.198   2.202
31583W        W 4008   4.675  35.895  14.042
31584W        W 4009  17.595  12.098   1.203
31585W        W 4010  31.392  12.065  13.334
31586W        W 4011  44.285  18.748  13.294
31587W        W 4012  20.294  39.852   4.726
31588W        W 4013  34.893  28.976  10.762
31589W        W 4014  23.478  43.378   0.378
31590W        W 4015   1.721   3.720  14.807
31591W        W 4016  39.005   0.182  14.851
31592W        W 4017  19.885  44.096   4.982
31593W        W 4018  28.491  30.214   3.883
31594W        W 4019   7.314  38.728  13.767
31595W        W 4020  36.694  24.613  11.225
31596W        W 4021  34.341   2.823  13.938
31597W        W 4022  11.071  23.083   4.613
31598W        W 4023  39.932  37.560  12.103
31599W        W 4024  28.582  33.909   0.868
31600W        W 4025  16.042  17.697  10.501
31601W        W 4026  40.849  15.829  13.741
31602W        W 4027  28.370  28.957  13.892
31603W        W 4028   9.168   2.939  10.630
31604W        W 4029  36.863  21.542  14.223
31605W        W 4030  18.486  12.575  13.055
31606W        W 4031  26.429   7.762  14.784
31607W        W 4032  38.550  38.503   1.288
31608W        W 4033  31.164  39.071  12.011
31609W        W 4034  23.037  12.231   5.515
31610W        W 4035  43.727  34.923   0.263
31611W        W 4036  29.158  23.715   0.401
31612W        W 4037   2.213   7.077   2.000
31613W        W 4038  17.187  44.261   1.751
31614W        W 4039  39.965   4.295  14.786
31615W        W 4040  23.531  40.841  14.926
31616W        W 4041  19.022   9.774  13.702
31617W        W 4042  41.017  23.768  11.897
31618W        W 4043  32.785  13.336  10.757
31619W        W 4044   8.839  31.075  12.090
31620W        W 4045  19.256  25.815   0.152
31621W        W 4046  17.520  44.789  12.599
31622W        W 4047  11.139  18.016  12.931
31623W        W 4048  30.527  30.852   3.775
31624W        W 4049  34.864  11.602   4.022
31625W        W 4050  35.978   9.151   3.657
31626W        W 4051  22.665  32.404   0.153
31627W        W 4052   8.197  16.591  12.372
31628W        W 4053  40.572  24.076  11.966
31629W        W 4054  25.049   0.267  13.170
31630W        W 4055  10.067  43.774   3.635
31631W        W 4056  39.555  43.842  13.522
31632W        W 4057  29.948  24.253   9.668
31633W        W 4058   0.822  21.485  14.998
31634W        W 4059  16.200  10.806  14.176
31635W        W 4060  32.823   8.700  11.258
31636W        W 4061  11.329  35.907  12.839
31637W        W 4062   8.172  14.244  11.240
31638W        W 4063  25.568  35.811  11.488
31639W        W 4064  38.525  35.498  12.947
31640W        W 4065  38.314   3.425  13.991
31641W        W 4066  22.215   5.942   0.435
31642W        W 4067  25.365  32.931  14.539
31643W        W 4068  43.370  17.092   4.115
31644W        W 4069   4.792  10.195   0.145
31645W        W 4070   0.022  30.913   5.459
31646W        W 4071   5.759   1.892   3.756
31647W        W 4072  44.463   8.325  14.468
31648W        W 4073  44.342  34.981   0.797
31649W        W 4074  31.928  27.235  12.650
31650W        W 4075   8.382   6.439  13.022
31651W        W 4076  22.226  29.534   2.895
31652W        W 4077  39.622  32.137  11.068
31653W        W 4078   9.440   7.343  13.992
31654W        W 4079  27.302  44.858   0.044
31655W        W 4080  40.427  19.899  11.592
31656W        W 4081  44.990  18.986  10.958
31657W        W 4082  24.118  41.713  12.563
31658W        W 4083  30.991  27.898  12.191
31659W        W 4084  18.901  20.914   9.881
31660W        W 4085  11.908  14.346  13.481
31661W        W 4086   0.584  23.672  10.769
31662W        W 4087   2.460   9.956   1.007
31663W        W 4088  20.966  20.485  10.543
31664W        W 4089  28.162  23.040  14.280
31665W        W 4090  22.064  10.798  14.897
31666W        W 4091  41.740  25.566   1.534
31667W        W 4092  36.933  10.021   9.769
31668W        W 4093   6.467  40.185   0.841
31669W        W 4094  34.898   3.976   2.693
31670W        W 4095  25.724   0.514  11.539
31671W        W 4096   5.961  25.213   2.273
31672W        W 4097  27.638  34.656   1.918
31673W        W 4098  34.807  43.821   0.951
31674W        W 4099  40.900   1.087   1.901
31675W        W 4100  22.311  29.499  12.848
31676W        W 4101  20.669  10.855   2.530
31677W        W 4102  21.612  11.624  10.536
31678W        W 4103  12.191  21.692   9.491
31679W        W 4104   3.526  24.695  12.005
31680W        W 4105  28.473   2.330   1.896
31681W        W 4106  11.932  14.902   0.698
31682W        W 4107   3.802  30.410  11.124
31683W        W 4108  20.916  32.722   3.158
31684W        W 4109  15.411  32.073   0.411
31685W        W 4110  19.549  13.846   0.104
31686W        W 4111  41.531  40.045   3.449
31687W        W 4112   9.845  11.293  13.449
31688W        W 4113   0.344  20.619  14.052
31689W        W 4114   2.344   9.680   1.944
31690W        W 4115  14.215  12.216   1.037
31691W        W 4116  25.141  22.204   2.637
31692W        W 4117  34.124  21.314   4.637
31693W        W 4118   4.229   3.283   4.591
31694W        W 4119  27.392  13.305  13.462
31695W        W 4120   6.322   9.325   4.194
31696W        W 4121  42.784  21.255  12.979
31697W        W 4122  22.732  35.309   1.236
31698W        W 4123  34.559  25.712   1.488
31699W        W 4124   3.942  10.861   1.846
31700W        W 4125  18.745   1.399   0.861
31701W        W 4126   8.103   0.296  14.882
31702W        W 4127   0.534  14.623   2.347
31703W        W 4128  34.854   7.404  10.651
31704W        W 4129  43.336   2.694  14.509
31705W        W 4130  37.522  35.956   1.443
31706W        W 4131  34.550  29.707  11.665
31707W        W 4132   0.847  26.088   1.760
31708W        W 4133  39.544  26.009   2.802
31709W        W 4134   1.394  21.473   0.681
31710W        W 4135  22.569   1.852  11.573
31711W        W 4136  21.454   1.829   1.271
31712W        W 4137  22.279  21.616   1.901
31713W        W 4138  26.163  40.603   3.082
31714W        W 4139  22.528  15.314   3.680
31715W        W 4140  33.162  28.091  14.683
31716W        W 4141  18.960   7.393  11.705
31717W        W 4142   9.660  22.082  14.983
31718W        W 4143  26.442  44.604  10.444
31719W        W 4144   0.863  44.460   0.022
31720W        W 4145  22.936   0.890   4.268
31721W        W 4146  10.796  39.097   1.094
31722W        W 4147   1.781  43.888  11.446
31723W        W 4148  14.540  34.981   1.345
31724W        W 4149  14.250   7.361  11.106
31725W        W 4150  39.012   2.402  13.614
31726W        W 4151  16.320   8.859   3.238
31727W        W 4152  31.121  39.265   4.506
31728W        W 4153  13.791  15.272  13.831
31729W        W 4154  27.895  38.539   2.055
31730W        W 4155  41.274  18.479   4.696
31731W        W 4156  12.839  28.999   2.283
31732W        W 4157  43.341  28.443  11.093
31733W        W 4158  13.571  38.471   1.174
31734W        W 4159  27.209   0.893   4.098
31735W        W 4160  17.817  33.415  11.156
31736W        W 4161   3.235  42.721  11.954
31737W        W 4162   9.892  15.864   1.557
31738W        W 4163   7.980  36.071  13.344
31739W        W 4164  11.793  38.459   0.364
31740W        W 4165   9.575  41.434   0.968
31741W        W 4166  27.222  36.925  14.264
31742W        W 4167  33.412  11.231  10.828
31743W        W 4168  30.419   3.938   0.839
31744W        W 4169   4.795  19.976   3.237
31745W        W 4170   8.966  30.345  14.834
31746W        W 4171  36.040   9.419  14.364
31747W        W 4172  41.799  28.572   3.297
31748W        W 4173   3.496  34.430   0.023
31749W        W 4174  23.123  39.931  13.779
31750W        W 4175  43.388  27.127  13.991
31751W        W 4176  22.602  24.110   3.671
31752W        W 4177  10.823   8.240  13.962
31753W        W 4178  44.968  15.126  12.483
31754W        W 4179  24.734   5.291  12.130
31755W        W 4180  27.422  26.014  13.425
31756W        W 4181  11.823  13.000   3.097
31757W        W 4182  12.195  23.239  14.259
31758W        W 4183  12.129  22.472  12.907
31759W        W 4184  15.668  13.191   3.934
31760W        W 4185  11.335  20.719  13.316
31761W        W 4186  25.183  42.958  10.984
31762W        W 4187  31.093  23.080  11.388
31763W        W 4188  41.780  12.276   1.715
31764W        W 4189  18.796  10.677   4.623
31765W        W 4190  24.094   0.448   0.987
31766W        W 4191  37.552   0.662   0.228
31767W        W 4192   8.461  11.313  11.968
31768W        W 4193  15.656  19.196  13.948
31769W        W 4194   1.065  34.128   1.339
31770W        W 4195  34.789   0.077  14.336
31771W        W 4196   0.385  11.789  12.146
31772W        W 4197   0.234  13.915  10.726
31773W        W 4198  23.986  31.484   9.827
31774W        W 4199   8.813  31.100  14.354
31775W        W 4200  38.817  27.589   3.251
31776W        W 4201   8.716   7.365  14.780
31777W        W 4202   8.105   7.091  11.202
31778W        W 4203  23.918  40.421   2.418
31779W        W 4204  12.711  14.810  14.323
31780W        W 4205  39.239  31.740  10.409
31781W        W 4206   5.729   7.037   1.132
31782W        W 4207  23.962  34.618   4.157
31783W        W 4208   5.008   5.945  12.073
31784W        W 4209   1.773  44.447  10.736
31785W        W 4210  31.864  25.970   4.166
31786W        W 4211  42.494  39.154  12.962
31787W        W 4212   7.831  27.759  11.109
31788W        W 4213  10.276  44.533  11.039
31789W        W 4214  28.958  16.012  13.526
31790W        W 4215  13.022  44.025  10.459
31791W        W 4216  13.235  36.626  11.919
31792W        W 4217  36.365  41.849   0.866
31793W        W 4218  26.419  41.046  11.700
31794W        W 4219  36.485   1.385   5.050
31795W        W 4220  29.213   0.847   4.228
31796W        W 4221   8.324  33.377   1.554
31797W        W 4222  25.432   0.266  13.543
31798W        W 4223  15.089  43.397   2.265
31799W        W 4224  40.728  20.744  14.304
31800W        W 4225  38.727  13.678  11.575
31801W        W 4226   6.022  10.736   2.285
31802W        W 4227  43.308  34.867  10.585
31803W        W 4228  29.307  40.957   1.699
31804W        W 4229  15.224  38.789  12.507
31805W        W 4230  33.650   8.147   3.122
31806W        W 4231  33.667   8.849   0.349
31807W        W 4232  14.860  31.208  11.582
31808W        W 4233  25.515  29.564   0.860
31809W        W 4234   6.195  14.100  10.317
31810W        W 4235  31.018  13.877  14.309
31811W        W 4236  43.496  42.250   0.347
31812W        W 4237  10.719  30.329   0.474
31813W        W 4238  17.963  25.174   0.906
31814W        W 4239  23.032   3.988   0.866
31815W        W 4240   5.091  39.073   4.742
31816W        W 4241  14.688  26.659   2.131
31817W        W 4242  33.328  25.770  13.972
31818W        W 4243  19.544  16.694  12.098
31819W        W 4244  42.329  14.107  10.788
31820W        W 4245  23.583  11.543   2.465
31821W        W 4246  24.413   4.008  14.961
31822W        W 4247  41.479  26.081   4.314
31823W        W 4248  22.227  32.100   3.394
31824W        W 4249   7.543  22.806   4.078
31825W        W 4250  41.332   4.446  11.460
31826W        W 4251   0.868  18.009  11.585
31827W        W 4252  24.156  38.658   0.920
31828W        W 4253  12.764  29.402   0.466
31829W        W 4254   5.102  11.765   3.947
31830W        W 4255  16.633  21.165  13.640
31831W        W 4256  40.125  24.550   1.157
31832W        W 4257  40.563  29.432  14.750
31833W        W 4258  22.111   9.170   2.728
31834W        W 4259   3.354  29.648   4.169
31835W        W 4260  26.933  30.451   0.824
31836W        W 4261  29.851   4.618  10.697
31837W        W 4262  10.698  31.226  14.936
31838W        W 4263  34.723  25.495  12.522
31839W        W 4264  29.221  25.732  12.512
31840W        W 4265  28.669  41.293   2.359
31841W        W 4266  38.501  39.023  12.223
31842W        W 4267  24.091  21.308   2.280
31843W        W 4268   0.455  22.704   4.057
31844W        W 4269  12.039  34.606   4.750
31845W        W 4270  44.011   9.398  13.799
31846W        W 4271  43.464  22.698   2.602
31847W        W 4272  11.254   0.313   4.633
31848W        W 4273  44.046  28.397   0.877
31849W        W 4274  18.540   1.903  12.776
31850W        W 4275   3.234  36.669   0.782
31851W        W 4276  23.409  42.085   2.694
31852W        W 4277  42.900  29.901  12.499
31853W        W 4278  25.717   7.628   2.279
31854W        W 4279  11.818   8.012   1.956
31855W        W 4280   3.899  10.631  12.017
31856W        W 4281  32.554  25.564  10.509
31857W        W 4282  35.704   9.894   4.767
31858W        W 4283   3.844  43.551  12.485
31859W        W 4284  37.946  18.368  10.681
31860W        W 4285  22.345  42.227  11.257
31861W        W 4286   3.324   6.299  13.154
31862W        W 4287  31.601  35.486   1.606
31863W        W 4288  13.760   3.388  11.078
31864W        W 4289  36.607  28.711  12.031
31865W        W 4290  30.113  39.424  13.363
31866W        W 4291  42.244  29.624   1.272
31867W        W 4292   8.353  24.756  14.950
31868W        W 4293  14.601  38.616  11.495
31869W        W 4294  19.165  30.567   3.156
31870W        W 4295  41.464   9.868  12.470
31871W        W 4296  31.262   9.377   1.888
31872W        W 4297  10.653  20.155   3.295
31873W        W 4298  33.063  11.672   1.374
31874W        W 4299  36.802   2.769   1.440
31875W        W 4300  44.404  14.794  11.642
31876W        W 4301  39.273  16.267  12.489
31877W        W 4302  33.217  16.776  11.163
31878W        W 4303  15.695  11.107   1.163
31879W        W 4304   5.886   2.010  10.889
31880W        W 4305  42.962  35.327   1.030
31881W        W 4306  41.889  13.353  13.902
31882W        W 4307  29.745  23.748   2.656
31883W        W 4308   8.752  10.623  12.757
31884W        W 4309   3.021  17.747  11.160
31885W        W 4310  16.910  11.119   0.785
31886W        W 4311  18.771  21.016   2.320
31887W        W 4312   8.865  35.995   0.162
31888W        W 4313  17.804  38.886   4.496
31889W        W 4314  44.820   5.685   4.094
31890W        W 4315  24.101   0.336   3.365
31891W        W 4316   1.603  21.589  13.013
31892W        W 4317   9.300   8.567  13.897
31893W        W 4318  26.576   8.363   1.854
31894W        W 4319  35.407   6.462   4.364
31895W        W 4320  34.945  28.043   0.749
31896W        W 4321  25.959  41.596   3.253
31897W        W 4322   7.613  32.344  12.562
31898W        W 4323  27.837   9.043   1.842
31899W        W 4324  31.966  38.019  13.376
31900W        W 4325  16.222   0.795  12.006
31901W        W 4326  16.108  12.107   0.869
31902W        W 4327  41.467  27.088  13.999
31903W        W 4328  42.562  25.846  12.042
31904W        W 4329   9.142  21.158  12.147
31905W        W 4330  12.094   7.655  14.214
31906W        W 4331  31.140  30.293  13.959
31907W        W 4332  34.940  19.254   4.556
31908W        W 4333   3.439   0.243   1.856
31909W        W 4334  31.385  39.894  12.573
31910W        W 4335  42.429   8.195   4.157
31911W        W 4336  23.367  31.594  13.103
31912W        W 4337   1.159  42.284  12.840
31913W        W 4338  41.494  39.010   2.782
31914W        W 4339   1.963  26.128   0.895
31915W        W 4340  35.829  32.185  13.540
31916W        W 4341   4.417   4.625   4.412
31917W        W 4342  28.278   7.339   0.727
31918W        W 4343   2.935  24.667   2.146
31919W        W 4344  41.349   7.237  13.931
31920W        W 4345   4.132  25.199   1.658
31921W        W 4346  39.614  17.122   3.885
31922W        W 4347  37.400  11.215   0.396
31923W        W 4348  24.022  28.119   1.952
31924W        W 4349   0.190  23.489  14.802
31925W        W 4350  21.066  43.229  12.058
31926W        W 4351   2.146  40.830   3.711
31927W        W 4352   0.049  18.142  12.827
31928W        W 4353   5.656  15.098  12.624
31929W        W 4354   8.870  44.759   2.819
31930W        W 4355  23.440   1.622  11.163
31931W        W 4356  10.311  11.642  13.928
31932W        W 4357  19.703  34.433  12.028
31933W        W 4358  24.129  29.395  14.557
31934W        W 4359  21.935  21.271   1.039
31935W        W 4360  43.365  21.684   4.736
31936W        W 4361  34.017  41.477  11.149
31937W        W 4362  43.314  20.810   5.022
31938W        W 4363  30.059  21.742  12.442
31939W        W 4364  12.365  41.486   0.045
31940W        W 4365  30.840  14.383   0.563
31941W        W 4366  31.670  25.174   2.741
31942W        W 4367  29.748   5.900  10.940
31943W        W 4368   8.416  31.910  12.474
31944W        W 4369  32.459  43.090   2.743
31945W        W 4370   9.002  40.331  10.585
31946W        W 4371  36.853   8.408  12.535
31947W        W 4372  10.197  17.180   3.733
31948W        W 4373  25.446  21.242   2.734
31949W        W 4374  12.434  14.396   0.201
31950W        W 4375  22.075  35.315  12.522
31951W        W 4376  40.209  22.787   2.659
31952W        W 4377  36.444  21.459   4.650
31953W        W 4378  32.627   2.435  10.719
31954W        W 4379  35.561  23.073  14.898
31955W        W 4380  31.622   2.228  11.186
31956W        W 4381  33.153  41.986  12.434
31957W        W 4382  14.133  43.237  14.225
31958W        W 4383  26.160  33.033   2.310
31959W        W 4384  24.617  33.131   1.444
31960W        W 4385  28.179  25.183   2.399
31961W        W 4386  39.020  25.544   1.770
31962W        W 4387  39.469  10.628  14.470
31963W        W 4388   0.240  11.582   2.263
31964W        W 4389  18.548  30.622  11.130
31965W        W 4390  40.543  30.076  13.353
31966W        W 4391  43.965  27.533  14.395
31967W        W 4392  15.108  15.344  14.955
31968W        W 4393   1.521   3.339   3.687
31969W        W 4394  36.396  37.477   0.381
31970W        W 4395  36.999  13.493  12.851
31971W        W 4396  18.690  33.669  14.858
31972W        W 4397  22.700  39.041   2.042
31973W        W 4398  22.600  40.368   2.853
31974W        W 4399  26.476  23.812  13.105
31975W        W 4400  29.481   1.367   0.520
31976W        W 4401  44.607  44.332   0.330
31977W        W 4402  15.651  18.393   2.696
31978W        W 4403  28.592  14.296   3.673
31979W        W 4404  34.679   1.448   3.319
31980W        W 4405  12.130  38.566  14.820
31981W        W 4406  15.323  21.696  12.226
31982W        W 4407  35.327  25.737   2.043
31983W        W 4408  31.486  44.353   3.611
31984W        W 4409  21.973  17.691  12.144
31985W        W 4410  12.807  20.540  13.395
31986W        W 4411  34.648   1.259  13.451
31987W        W 4412  12.864   4.928  13.487
31988W        W 4413   3.655  17.230  14.848
31989W        W 4414  24.928  17.301  14.917
31990W        W 4415  20.131   4.635  14.333
31991W        W 4416  40.906  25.748   1.481
31992W        W 4417  38.245   0.471   3.901
31993W        W 4418  33.003  12.057   1.722
31994W        W 4419   2.742  14.754   3.460
31995W        W 4420  19.081  18.870  14.230
31996W        W 4421   8.164   5.338  12.235
31997W        W 4422  39.997  23.591   4.700
31998W        W 4423  39.231  13.233  13.364
31999W        W 4424  10.841  26.088   0.932
32000W        W 4425  11.829  21.090  12.511
32001W        W 4426  42.118  35.453  11.047
32002W        W 4427   0.500  16.257  13.126
32003W        W 4428  27.404  18.141   1.847
32004W        W 4429   1.080  18.314   3.915
32005W        W 4430  16.660   3.911  11.951
32006W        W 4431  34.034  19.156  14.426
32007W        W 4432  14.639   8.352   3.804
32008W        W 4433   1.741  20.615  13.066
32009W        W 4434  16.092  18.982  12.980
32010W        W 4435  22.225  25.704  13.135
32011W        W 4436  25.249  24.660  13.150
32012W        W 4437  18.253  44.744  13.118
32013W        W 4438   2.926  10.433  12.992
32014W        W 4439  18.348   8.737   0.338
32015W        W 4440  31.075  40.289  12.630
32016W        W 4441  21.098  16.085  12.005
32017W        W 4442  18.314   7.691   2.471
32018W        W 4443  15.620  31.183  11.137
32019W        W 4444  22.125   6.360   4.718
32020W        W 4445   1.579  34.150  10.593
32021W        W 4446  39.927   1.631   4.036
32022W        W 4447   9.973  15.720   3.666
32023W        W 4448   2.221  34.465  10.652
32024W        W 4449  25.454  29.466   5.024
32025W        W 4450  12.123  21.873   1.361
32026W        W 4451  26.715   8.803  12.770
32027W        W 4452  13.665  14.764  13.840
32028W        W 4453  35.914  20.334  12.182
32029W        W 4454   8.173  31.539  10.705
32030W        W 4455  36.773  30.069   1.855
32031W        W 4456  10.773   2.247   2.333
32032W        W 4457  32.114  30.438   4.131
32033W        W 4458  43.072  20.738   4.120
32034W        W 4459  15.543  12.348   3.386
32035W        W 4460  37.315  39.343   2.250
32036W        W 4461  27.430   7.152  10.952
32037W        W 4462  10.213  32.501   3.381
32038W        W 4463  27.026  15.296  14.939
32039W        W 4464  39.814  10.624   1.407
32040W        W 4465  17.650   4.566   0.253
32041W        W 4466  33.861  20.194  10.444
32042W        W 4467  21.131  32.550   3.655
32043W        W 4468  11.870  37.535  13.383
32044W        W 4469  17.671  11.152  14.490
32045W        W 4470  35.304   6.615   5.359
32046W        W 4471   0.233  23.345  11.020
32047W        W 4472  25.280   3.826   1.935
32048W        W 4473   2.673   7.698  13.511
32049W        W 4474   6.272  30.897  13.106
32050W        W 4475  43.684  18.187   3.801
32051W        W 4476  40.060  29.231   3.819
32052W        W 4477   3.223  11.220  12.490
32053W        W 4478  17.052  32.168   3.171
32054W        W 4479  15.987  19.133   1.256
32055W        W 4480   4.700   0.907  11.550
32056W        W 4481   9.894  23.900  13.989
32057W        W 4482   1.816  43.519  12.947
32058W        W 4483  33.844   9.779  13.015
32059W        W 4484  29.015  12.237   3.737
32060W        W 4485   1.667  27.475   0.546
32061W        W 4486   1.897  30.430  13.463
32062W        W 4487   9.751  43.140  10.611
32063W        W 4488  29.613  20.975   5.400
32064W        W 4489   5.922  14.602  11.954
32065W        W 4490  26.927  44.749   4.031
32066W        W 4491  35.632  18.996   1.388
32067W        W 4492   5.080  26.692   2.405
32068W        W 4493  19.555  20.211   0.398
32069W        W 4494  32.892  23.988  14.426
32070W        W 4495  29.135  43.496  11.401
32071W        W 4496  13.639   2.719   3.108
32072W        W 4497   6.931  32.654   4.119
32073W        W 4498  27.904  16.039  14.834
32074W        W 4499  34.891   0.997   0.674
32075W        W 4500  21.234  31.975  10.991
32076W        W 4501  19.352  37.989   1.817
32077W        W 4502  38.009  27.860   3.662
32078W        W 4503  39.397  19.678   4.552
32079W        W 4504  38.043  38.814   4.584
32080W        W 4505  18.184  18.305  14.026
32081W        W 4506  33.124  41.478   4.366
32082W        W 4507  13.578  17.275   0.484
32083W        W 4508  39.591   5.279   3.270
32084W        W 4509  26.891  31.033   1.864
32085W        W 4510  32.403   4.717   4.580
32086W        W 4511  20.123  12.816  14.376
32087W        W 4512   4.890  29.061  11.158
32088W        W 4513  35.201  33.374  14.615
32089W        W 4514  43.515  22.439  13.128
32090W        W 4515   0.708   4.341   1.367
32091W        W 4516  32.939  16.982  12.632
32092W        W 4517  19.540  35.593  14.513
32093W        W 4518   8.968  23.299   3.918
32094W        W 4519   0.141  24.286  13.628
32095W        W 4520  16.874  17.798   2.572
32096W        W 4521  32.964  44.490  10.651
32097W        W 4522  42.345  32.687   3.839
32098W        W 4523   9.802  20.659  10.773
32099W        W 4524  34.413  31.126   4.153
32100W        W 4525  33.984   4.188   4.863
32101W        W 4526  31.391  25.963   3.904
32102W        W 4527   3.164   5.305  12.901
32103W        W 4528   7.198  40.010  14.447
32104W        W 4529  11.159   3.330  12.971
32105W        W 4530  18.133  19.730   1.530
32106W        W 4531  42.087   5.452   0.347
32107W        W 4532  41.063   1.795   4.409
32108W        W 4533  11.133  24.517   4.704
32109W        W 4534  32.944  31.749  11.102
32110W        W 4535  32.134  13.072   2.083
32111W        W 4536   7.478  40.074   1.270
32112W        W 4537  35.086  29.902  13.334
32113W        W 4538  40.944  14.123  12.858
32114W        W 4539  11.349   7.173  14.061
32115W        W 4540  19.527  29.944  12.502
32116W        W 4541  11.257  27.888   1.923
32117W        W 4542  10.329  14.213  14.550
32118W        W 4543  20.324  17.184   0.767
32119W        W 4544  43.083  34.517   1.451
32120W        W 4545   5.318  19.644   0.983
32121W        W 4546  27.418  24.578   4.628
32122W        W 4547  27.202  39.767  13.227
32123W        W 4548  38.991  32.317   3.251
32124W        W 4549  15.677  20.635  14.414
32125W        W 4550  34.139  43.684   0.497
32126W        W 4551  37.787   1.450  12.963
32127W        W 4552  22.000  30.070   4.256
32128W        W 4553  16.281  12.593   1.761
32129W        W 4554  21.650   7.613   4.663
32130W        W 4555  40.451  24.635  13.921
32131W        W 4556  44.543  37.270  13.071
32132W        W 4557   9.178  34.359   3.809
32133W        W 4558   8.544   6.936  11.507
32134W        W 4559  25.573  23.729   3.143
32135W        W 4560  32.400  22.547  11.598
32136W        W 4561  10.783  39.195   4.543
32137W        W 4562   4.854  42.460  11.209
32138W        W 4563  17.812  34.152   4.207
32139W        W 4564   8.763  43.765   0.451
32140W        W 4565   8.853   7.941  10.487
32141W        W 4566  29.883  25.571   2.781
32142W        W 4567  37.505  20.755   3.871
32143W        W 4568  19.139   6.198   3.357
32144W        W 4569   6.325  10.275  11.838
32145W        W 4570  20.824   1.905   4.708
32146W        W 4571  37.964  27.425  11.784
32147W        W 4572  44.948  43.738   1.711
32148W        W 4573  25.667   7.973  11.190
32149W        W 4574  20.339  37.442  12.491
32150W        W 4575  43.225  44.313   3.349
32151W        W 4576  33.609  41.263  12.600
32152W        W 4577  26.121  10.294   0.314
32153W        W 4578  40.248  15.192  11.114
32154W        W 4579  30.744  31.377   2.270
32155W        W 4580   0.915  26.743  10.005
32156W        W 4581  13.595  39.427   2.334
32157W        W 4582  26.973  33.359  13.813
32158W        W 4583  43.982   6.940  12.031
32159W        W 4584  14.067   9.213   2.766
32160W        W 4585  18.651   0.350  12.147
32161W        W 4586  39.878  23.432   2.915
32162W        W 4587  10.811   7.228   1.866
32163W        W 4588  44.549  42.813  13.493
32164W        W 4589   6.242   0.801  12.595
32165W        W 4590  18.724   9.285   3.410
32166W        W 4591  18.172  21.549   1.788
32167W        W 4592  21.409   0.207  13.142
32168W        W 4593   0.908  43.504   0.274
32169W        W 4594  43.370   9.689   3.585
32170W        W 4595  14.447  18.931  12.008
32171W        W 4596  24.606  42.034  12.836
32172W        W 4597  35.851  15.661  13.009
32173W        W 4598  15.318   6.845  11.663
32174W        W 4599   0.849   4.700  13.524
32175W        W 4600  16.724   1.919   3.873
32176W        W 4601  15.681  10.850  14.105
32177W        W 4602  13.620  29.577   1.802
32178W        W 4603  27.248  27.008  12.619
32179W        W 4604  16.060  11.014  14.867
32180W        W 4605  11.814  10.734  14.451
32181W        W 4606  21.507  34.591  11.697
32182W        W 4607  32.181  28.196   2.900
32183W        W 4608   7.839  27.457  10.703
32184W        W 4609  24.628  12.753  14.952
32185W        W 4610  31.066  31.560  14.646
32186W        W 4611  14.250   6.074  14.223
32187W        W 4612  37.348  30.174  10.554
32188W        W 4613  12.603   0.391  10.662
32189W        W 4614   5.993  15.658   4.506
32190W        W 4615  23.539   2.883   0.623
32191W        W 4616  28.154  43.382  11.073
32192W        W 4617   3.707  33.338  11.510
32193W        W 4618  19.771  33.472   4.849
32194W        W 4619   7.690  29.691   2.898
32195W        W 4620  10.271  43.441  12.567
32196W        W 4621  13.857   7.499   0.009
32197W        W 4622  13.441  22.107  12.990
32198W        W 4623  13.758  34.149   0.511
32199W        W 4624  36.105   0.983  13.020
32200W        W 4625  27.451  23.008   3.636
32201W        W 4626   8.971  21.811   4.086
32202W        W 4627  21.948  27.596   0.326
32203W        W 4628   8.253  28.229  13.555
32204W        W 4629  23.421  11.386   1.253
32205W        W 4630  43.318  27.688  12.593
32206W        W 4631   7.952  13.345   4.228
32207W        W 4632   5.864   3.798  13.827
32208W        W 4633  24.645  31.684  14.289
32209W        W 4634  44.999   2.450   0.520
32210W        W 4635  21.240   8.119   3.839
32211W        W 4636   4.485  17.264   2.633
32212W        W 4637  37.498  34.061  13.354
32213W        W 4638  21.143  36.487   0.470
32214W        W 4639  26.209  43.582  14.097
32215W        W 4640   8.729  22.578  14.540
32216W        W 4641  24.376  39.327   2.796
32217W        W 4642   2.161  27.072  14.734
32218W        W 4643  26.205  26.658  11.927
32219W        W 4644  18.795  32.616  12.898
32220W        W 4645  23.212   4.744  11.528
32221W        W 4646  27.271  44.343  11.041
32222W        W 4647  26.632  43.965  11.544
32223W        W 4648  22.426  34.552  14.911
32224W        W 4649  23.977  24.915   2.307
32225W        W 4650  31.371  40.497  13.301
32226W        W 4651  10.923  34.551  12.400
32227W        W 4652  12.287   5.280   3.457
32228W        W 4653  32.946  20.184  13.334
32229W        W 4654  25.541  23.204   3.122
32230W        W 4655  28.528   3.524   3.222
32231W        W 4656  21.948  44.950  14.823
32232W        W 4657   5.853  26.146   2.780
32233W        W 4658   7.193  20.664  10.453
32234W        W 4659  12.317  32.996   1.900
32235W        W 4660  29.593  43.262   3.625
32236W        W 4661  36.053  14.617  12.978
32237W        W 4662  15.682  33.150  10.772
32238W        W 4663  14.419  18.518   3.212
32239W        W 4664  24.973  38.334   3.232
32240W        W 4665   5.996  23.012   0.943
32241W        W 4666  15.355  14.265  13.577
32242W        W 4667  22.700  10.180  13.973
32243W        W 4668  43.470  40.199  13.067
32244W        W 4669  22.025  38.070  11.512
32245W        W 4670  22.113  11.946   2.274
32246W        W 4671   3.345  11.590   0.836
32247W        W 4672  18.480  14.727  13.296
32248W        W 4673  44.438   9.084  13.798
32249W        W 4674  30.482  39.922  14.958
32250W        W 4675  30.172  17.007   0.816
32251W        W 4676  36.378  19.672  13.342
32252W        W 4677  23.700  31.080   9.637
32253W        W 4678  35.989  10.190   2.695
32254W        W 4679  40.542  41.442  12.808
32255W        W 4680   8.406   8.194   3.647
32256W        W 4681   4.592  27.165   9.833
32257W        W 4682   1.482   5.761   0.247
32258W        W 4683  29.713  16.945   4.951
32259W        W 4684   8.141   1.681  13.040
32260W        W 4685  14.705  11.700   3.379
32261W        W 4686   4.794   3.488   2.545
32262W        W 4687  36.219   3.464   3.219
32263W        W 4688   2.302  38.022  14.018
32264W        W 4689   5.043  21.064   0.412
32265W        W 4690   2.338  19.078  12.026
32266W        W 4691  40.248  37.386  14.823
32267W        W 4692  40.862  26.271  11.666
32268W        W 4693  23.451  39.835   0.814
32269W        W 4694  21.327  33.131   4.595
32270W        W 4695  17.031  38.985  12.348
32271W        W 4696  34.547   5.664   1.434
32272W        W 4697  31.441  19.373  10.470
32273W        W 4698  20.374  22.406  13.554
32274W        W 4699  24.506  16.304   2.792
32275W        W 4700  11.242   4.388  13.770
32276W        W 4701  41.916  27.097   4.585
32277W        W 4702  29.164  43.371   2.299
32278W        W 4703   6.233  35.030  11.173
32279W        W 4704  16.790  36.939  13.484
32280W        W 4705  17.587  28.639  14.857
32281W        W 4706  38.775  42.362  14.976
32282W        W 4707  15.901   7.210   0.884
32283W        W 4708  38.488  36.758  11.207
32284W        W 4709   7.737  20.120   0.453
32285W        W 4710  33.603  24.002   0.421
32286W        W 4711  14.309  24.195   0.311
32287W        W 4712  26.206  18.025  13.961
32288W        W 4713   6.743  31.921  14.713
32289W        W 4714  23.061   4.261  13.978
32290W        W 4715  44.046   3.888  11.365
32291W        W 4716  22.541  37.997  12.935
32292W        W 4717  18.547   8.891  11.133
32293W        W 4718  24.381  41.320   1.213
32294W        W 4719   1.048   9.702  11.681
32295W        W 4720  27.199  10.746   0.788
32296W        W 4721  22.535  44.926   4.644
32297W        W 4722  29.093  17.903   4.963
32298W        W 4723  14.639  18.316   3.760
32299W        W 4724   2.409  35.104   3.053
32300W        W 4725  20.101   6.741  12.970
32301W        W 4726   2.094  23.990   1.332
32302W        W 4727   3.622  22.196   2.197
32303W        W 4728   7.415  19.583   0.770
32304W        W 4729  34.837  27.064  12.629
32305W        W 4730  38.506  17.589  13.478
32306W        W 4731  13.143  37.437   3.130
32307W        W 4732  27.610  41.384  10.875
32308W        W 4733  11.245   7.307  11.025
32309W        W 4734   1.966  31.318   1.926
32310W        W 4735  15.723  28.594   3.170
32311W        W 4736  18.618  10.414   4.201
32312W        W 4737  31.693  43.980  13.173
32313W        W 4738   1.813  32.217  10.609
32314W        W 4739   1.277  39.468  13.108
32315W        W 4740  30.641  19.545   0.793
32316W        W 4741  30.788  41.948   4.958
32317W        W 4742  38.053  10.757   0.738
32318W        W 4743   0.122   1.306  11.049
32319W        W 4744   8.734  30.193  11.488
32320W        W 4745  10.597  43.197  14.033
32321W        W 4746  43.837  17.647  11.021
32322W        W 4747   4.004  23.039   3.716
32323W        W 4748   7.008  12.333  11.878
32324W        W 4749  16.779  31.484   4.172
32325W        W 4750  10.518  11.675  12.007
32326W        W 4751   7.357   1.039  13.128
32327W        W 4752  15.226  26.894  11.957
32328W        W 4753  38.412   8.178  14.262
32329W        W 4754  15.273  10.248  10.613
32330W        W 4755  19.714  30.220  10.522
32331W        W 4756  11.538  27.060  14.362
32332W        W 4757  19.316  36.966  11.502
32333W        W 4758  40.126  42.846  13.972
32334W        W 4759  32.397  43.605  10.338
32335W        W 4760  37.477   0.816  12.888
32336W        W 4761  42.344  39.936   0.872
32337W        W 4762  13.793   6.133   1.009
32338W        W 4763  36.143   1.771  11.197
32339W        W 4764  33.260  10.408  10.882
32340W        W 4765  29.458  34.512  11.620
32341W        W 4766   7.832  17.109   1.935
32342W        W 4767   4.262  17.795   4.386
32343W        W 4768  13.796   9.450   3.180
32344W        W 4769   1.935  10.180   1.342
32345W        W 4770   3.708  15.985  14.070
32346W        W 4771   9.588   1.828  10.567
32347W        W 4772  32.477  21.720   4.552
32348W        W 4773   4.749   2.601  13.395
32349W        W 4774  27.555   0.322   0.003
32350W        W 4775  44.779  15.993  10.461
32351W        W 4776  34.100  27.065   3.341
32352W        W 4777  22.401   0.759  12.449
32353W        W 4778  31.838  37.317  12.684
32354W        W 4779  26.764   8.748  11.778
32355W        W 4780  11.799   4.872  12.144
32356W        W 4781   7.254  32.040   4.253
32357W        W 4782   0.434  12.648   1.349
32358W        W 4783   1.967  35.085  14.565
32359W        W 4784  23.815   2.466   0.714
32360W        W 4785  34.895   0.232   3.416
32361W        W 4786   7.385  33.007   1.360
32362W        W 4787  19.586  18.558   0.867
32363W        W 4788  16.160  36.979   3.911
32364W        W 4789  35.373  40.951   1.921
32365W        W 4790  16.367   1.859  11.862
32366W        W 4791  30.576   6.374   3.189
32367W        W 4792   8.313   3.523   3.342
32368W        W 4793  21.941  26.703  13.015
32369W        W 4794  20.370  11.427   3.230
32370W        W 4795  24.223  36.891  13.358
32371W        W 4796   9.882  18.537   2.681
32372W        W 4797  34.936  35.658   4.077
32373W        W 4798  26.498  39.864  13.110
32374W        W 4799  32.480  12.485   2.852
32375W        W 4800  43.899  23.498   2.897
32376W        W 4801  19.890  32.576  14.217
32377W        W 4802  26.937  40.879   3.768
32378W        W 4803   2.893  32.538   0.945
32379W        W 4804  41.534  36.329   1.781
32380W        W 4805  22.556  35.821   1.250
32381W        W 4806  18.119   5.156  12.367
32382W        W 4807  26.922  27.087   4.739
32383W        W 4808   2.967   9.867   0.278
32384W        W 4809   4.606  43.790   2.796
32385W        W 4810  41.332  31.038   2.868
32386W        W 4811   3.722  20.259  13.536
32387W        W 4812   2.356   6.074   2.149
32388W        W 4813   7.882  22.703   1.128
32389W        W 4814  16.016  38.359   0.835
32390W        W 4815  18.983  18.023  13.854
32391W        W 4816  32.611   8.613  12.279
32392W        W 4817  13.305  17.004  13.999
32393W        W 4818   6.847  18.606  14.543
32394W        W 4819  32.489   3.181  13.366
32395W        W 4820  29.496  39.824   0.416
32396W        W 4821  36.599  39.999  14.860
32397W        W 4822  44.104  18.308  13.039
32398W        W 4823  44.263  16.278   3.571
32399W        W 4824  23.693  29.670  11.121
32400W        W 4825  19.802  40.500  13.296
32401W        W 4826  41.876  39.063  12.963
32402W        W 4827   8.361  17.341  12.122
32403W        W 4828  27.487  23.521   4.902
32404W        W 4829  29.845  33.599   1.217
32405W        W 4830  15.303  17.631   1.820
32406W        W 4831   0.075  10.702   0.195
32407W        W 4832  15.890  17.320  11.135
32408W        W 4833  27.598   0.654  11.978
32409W        W 4834  30.694   3.675   4.832
32410W        W 4835  22.747  18.640   3.850
32411W        W 4836  35.871  34.766   3.155
32412W        W 4837  31.963  22.601   0.688
32413W        W 4838   7.119  28.564   4.133
32414W        W 4839  12.020  32.577   2.910
32415W        W 4840  10.565  30.456  12.670
32416W        W 4841  10.171  26.432   4.113
32417W        W 4842  12.848  11.886   0.934
32418W        W 4843  43.188  26.507   5.258
32419W        W 4844  28.452  21.231   2.719
32420W        W 4845  21.950  34.578  13.023
32421W        W 4846   4.110  29.040  13.387
32422W        W 4847   0.408  24.943   1.368
32423W        W 4848  37.812  25.629   0.978
32424W        W 4849  38.907  32.131  10.291
32425W        W 4850   4.950  24.814  10.887
32426W        W 4851  41.867  17.224   0.048
32427W        W 4852  34.031  23.931   2.742
32428W        W 4853  14.888  38.856   3.201
32429W        W 4854  37.917  17.030  11.062
32430W        W 4855  24.412  38.067   4.276
32431W        W 4856  30.587   9.732  11.038
32432W        W 4857  33.728   1.923   4.642
32433W        W 4858  16.240   3.927   5.372
32434W        W 4859  30.198  18.705   1.697
32435W        W 4860  19.722  17.225   0.047
32436W        W 4861   6.913  35.830   3.805
32437W        W 4862  26.011  30.451  11.028
32438W        W 4863  14.351  16.117   1.504
32439W        W 4864  41.573  35.458  14.770
32440W        W 4865  24.767   3.757   1.831
32441W        W 4866   3.898  42.733  14.281
32442W        W 4867  29.050  11.147  14.903
32443W        W 4868  39.831  41.770  13.206
32444W        W 4869  40.810  27.546  13.043
32445W        W 4870  25.973   0.292   1.635
32446W        W 4871  22.474  35.575  11.412
32447W        W 4872   4.877  43.286  10.486
32448W        W 4873   7.251  44.485   3.418
32449W        W 4874  44.617  39.909   0.088
32450W        W 4875   2.483  42.881   0.976
32451W        W 4876   6.291  39.885  11.089
32452W        W 4877   1.648   3.668  10.307
32453W        W 4878   4.262  16.246   4.658
32454W        W 4879  29.986  18.748  11.576
32455W        W 4880  14.076  17.584  14.752
32456W        W 4881   7.266  25.537   0.123
32457W        W 4882  44.524  33.021   2.722
32458W        W 4883  29.112  26.694  10.361
32459W        W 4884  40.658  42.410  10.632
32460W        W 4885  16.525  31.565   5.486
32461W        W 4886  39.881  16.800  12.131
32462W        W 4887   7.193   5.970  13.025
32463W        W 4888  15.759  12.664   4.696
32464W        W 4889  42.351  14.644  12.932
32465W        W 4890  20.313  27.080  13.391
32466W        W 4891  42.361   9.139  10.764
32467W        W 4892  26.152  38.947   4.687
32468W        W 4893  28.327  41.580   3.715
32469W        W 4894  44.284  28.509  10.727
32470W        W 4895  29.174  38.140   3.686
32471W        W 4896  23.836   5.274  13.256
32472W        W 4897   3.098  31.598   2.254
32473W        W 4898  36.480  17.513  13.146
32474W        W 4899  32.411  29.337   1.240
32475W        W 4900  22.684  36.258   4.961
32476W        W 4901  38.647  44.394  13.202
32477W        W 4902  20.885  16.207  12.484
32478W        W 4903  22.638  34.635  12.094
32479W        W 4904  24.004  23.127   4.233
32480W        W 4905   2.721  11.096   4.110
32481W        W 4906  23.939   9.727   2.864
32482W        W 4907   6.435  43.488  10.751
32483W        W 4908  39.070  17.739  10.287
32484W        W 4909  29.141  24.256  14.711
32485W        W 4910  23.581   0.731  12.973
32486W        W 4911  43.486  15.051   0.414
32487W        W 4912  27.450  34.216   2.121
32488W        W 4913  18.058  13.888   3.266
32489W        W 4914  33.137   9.254  12.552
32490W        W 4915   0.761  10.266  14.622
32491W        W 4916  11.650   8.138   4.686
32492W        W 4917  21.263  42.866  10.855
32493W        W 4918   2.153  38.950   2.800
32494W        W 4919  30.357  27.484   3.737
32495W        W 4920  37.101   4.127   1.366
32496W        W 4921  36.042  20.019  12.567
32497W        W 4922  40.789  30.873   3.718
32498W        W 4923  22.010   9.184   4.020
32499W        W 4924  24.984  20.508   0.954
32500W        W 4925  21.112  36.541  14.945
32501W        W 4926  34.077  13.203  13.534
32502W        W 4927  43.343  14.521   5.112
32503W        W 4928  10.892  44.988  14.310
32504W        W 4929   5.635  14.091   4.659
32505W        W 4930  27.160  30.434  13.912
32506W        W 4931   4.213  27.207  13.857
32507W        W 4932  41.792   5.884   3.603
32508W        W 4933   2.484  14.441   9.989
32509W        W 4934  12.359  10.826   4.518
32510W        W 4935  10.789  43.009   2.736
32511W        W 4936  27.272   3.920   0.901
32512W        W 4937   6.820  42.997   4.193
32513W        W 4938  12.135   3.907   0.064
32514W        W 4939  23.674  27.912  12.523
32515W        W 4940  23.929   7.347  13.884
32516W        W 4941  35.100  19.992  11.243
32517W        W 4942  20.444  20.421   3.861
32518W        W 4943  43.024  20.695  14.506
32519W        W 4944  18.166  13.123  12.773
32520W        W 4945  32.618  22.662   1.816
32521W        W 4946  26.381  33.025  11.651
32522W        W 4947  44.325  25.746   1.189
32523W        W 4948  15.475  11.867   4.927
32524W        W 4949  21.072   1.036   0.139
32525W        W 4950  10.441  39.918  12.082
32526W        W 4951  15.194  12.900   0.891
32527W        W 4952  12.846  40.495  12.703
32528W        W 4953  34.077  20.574   0.018
32529W        W 4954   9.344  37.585  10.734
32530W        W 4955  31.585  13.883   2.780
32531W        W 4956  31.877  37.377  14.073
32532W        W 4957  20.110  39.891   4.212
32533W        W 4958  22.940   3.240   4.246
32534W        W 4959  27.465   0.809  12.475
32535W        W 4960   7.412   6.929  12.827
32536W        W 4961  27.241  44.990   2.825
32537W        W 4962   4.701  44.197  10.536
32538W        W 4963  37.963  27.592  12.876
32539W        W 4964  20.083   9.689  12.928
32540W        W 4965  21.964  25.534   0.020
32541W        W 4966  23.575  17.209  13.312
32542W        W 4967  23.598  39.338   3.254
32543W        W 4968  19.643  17.625   4.756
32544W        W 4969  42.122  27.253   4.135
32545W        W 4970  10.411  21.099   4.251
32546W        W 4971  10.183  20.148   4.221
32547W        W 4972   9.454   7.634   3.665
32548W        W 4973  42.006  31.762  10.145
32549W        W 4974  11.828  42.105  11.057
32550W        W 4975  17.360  34.926  12.503
32551W        W 4976  17.776   3.171   3.508
32552W        W 4977   9.312  13.049   2.391
32553W        W 4978  36.968  24.719  12.090
32554W        W 4979  28.940  16.619  12.128
32555W        W 4980   5.868  28.592   3.326
32556W        W 4981   4.901   0.375   3.691
32557W        W 4982   5.960  15.819  14.435
32558W        W 4983  31.723   5.641  14.432
32559W        W 4984   8.675   2.354  11.733
32560W        W 4985  37.951  14.542  12.857
32561W        W 4986  34.961  40.360   9.663
32562W        W 4987   5.180   1.157  11.663
32563W        W 4988  23.164  24.416   1.196
32564W        W 4989  42.198   2.940  13.826
32565W        W 4990  17.045  24.629  11.509
32566W        W 4991  33.463  38.867   2.805
32567W        W 4992  26.664  36.013  12.024
32568W        W 4993  15.822  25.715  13.925
32569W        W 4994  18.767  26.592  12.170
32570W        W 4995  19.559   6.948  13.017
32571W        W 4996  37.316   2.878   2.798
32572W        W 4997  31.055  38.331   4.918
32573W        W 4998  22.001  11.720  12.756
32574W        W 4999  25.267  27.678   0.485
32575W        W 5000  12.097  39.798   4.881
32576W        W 5001  31.384  22.199   3.669
32577W        W 5002  35.239  35.346  11.969
32578W        W 5003  11.513  14.792   0.371
32579W        W 5004   3.807  37.582  10.507
32580W        W 5005  23.272   4.572   3.909
32581W        W 5006   5.712  11.411  13.040
32582W        W 5007  21.831  27.510   1.890
32583W        W 5008  14.678  26.745   4.530
32584W        W 5009   7.287  15.925   1.217
32585W        W 5010  33.394  20.471  13.460
32586W        W 5011  28.399   4.719   2.764
32587W        W 5012  12.199  41.020   4.083
32588W        W 5013  41.399   9.373  12.489
32589W        W 5014   1.346  37.855  14.416
32590W        W 5015  24.597  38.591  11.556
32591W        W 5016  12.649   8.274  12.654
32592W        W 5017  38.902  29.702   1.713
32593W        W 5018  40.413  37.610  12.460
32594W        W 5019  20.615  38.883  14.876
32595W        W 5020  27.431  32.004   0.550
32596W        W 5021  20.421  38.090   3.631
32597W        W 5022  40.293   0.069   3.159
32598W        W 5023  17.557  38.980  12.373
32599W        W 5024  10.114  44.523   2.304
32600W        W 5025   7.495  15.198   1.603
32601W        W 5026  20.510  11.862  14.441
32602W        W 5027  27.485  26.344  11.759
32603W        W 5028  33.043  21.420   1.520
32604W        W 5029  14.364  32.375   3.984
32605W        W 5030  30.090  11.396   3.591
32606W        W 5031  31.124  25.041  13.573
32607W        W 5032  38.634  30.531   1.129
32608W        W 5033  13.380  10.737  14.330
32609W        W 5034  23.630  29.004   2.553
32610W        W 5035   7.602  19.139  14.012
32611W        W 5036  35.865  40.492  11.663
32612W        W 5037  14.438  29.544  10.621
32613W        W 5038  17.703   3.000  14.558
32614W        W 5039  44.466   0.025   1.005
32615W        W 5040  26.306  24.015   1.752
32616W        W 5041  16.199  44.913  10.696
32617W        W 5042  33.395  29.208   2.711
32618W        W 5043   0.378   9.127   0.332
32619W        W 5044  29.154  27.471  13.577
32620W        W 5045  42.676   0.880   0.718
32621W        W 5046  28.237  11.695  14.763
32622W        W 5047  44.045  25.955   4.296
32623W        W 5048  17.812   2.135  12.571
32624W        W 5049  33.549  16.325  12.891
32625W        W 5050  21.706  11.381  14.294
32626W        W 5051   5.802  21.548   0.955
32627W        W 5052  39.420  30.134  14.456
32628W        W 5053  41.894  26.513   0.855
32629W        W 5054  24.978  39.467   0.886
32630W        W 5055  14.266  21.781  14.949
32631W        W 5056  21.920  14.145   3.949
32632W        W 5057  24.515  21.272  13.538
32633W        W 5058  37.089   7.708   1.554
32634W        W 5059  36.540  17.223   2.271
32635W        W 5060  32.192   0.334   2.698
32636W        W 5061  39.302  18.345  13.352
32637W        W 5062  29.114  18.839   0.991
32638W        W 5063  17.166   7.181  10.600
32639W        W 5064  13.831  17.700  10.606
32640W        W 5065  43.957  33.514  13.632
32641W        W 5066  37.112  21.814   1.332
32642W        W 5067  38.796  14.786   0.395
32643W        W 5068  44.835  29.647  14.334
32644W        W 5069  30.104  25.140   3.005
32645W        W 5070  39.250  16.403   2.336
32646W        W 5071  32.924  28.667   2.353
32647W        W 5072  23.536  43.256  13.983
32648W        W 5073  40.753  36.398  13.861
32649W        W 5074  16.650   7.797   3.677
32650W        W 5075   1.040  32.382   4.586
32651W        W 5076  14.712   2.532   1.574
32652W        W 5077  14.144  35.307   4.218
32653W        W 5078  11.676   9.671   0.810
32654W        W 5079   7.391  29.316   3.342
32655W        W 5080  24.546   8.948   2.745
32656W        W 5081  21.299  40.443  12.530
32657W        W 5082  27.608  15.828  14.476
32658W        W 5083  42.966  42.177  11.948
32659W        W 5084  40.124  32.996  11.038
32660W        W 5085  37.358  37.079   0.554
32661W        W 5086  41.214  32.621  14.535
32662W        W 5087  12.370   9.881  14.707
32663W        W 5088   8.429  26.285  13.365
32664W        W 5089  27.892   8.349   1.365
32665W        W 5090  15.521  40.242  13.757
32666W        W 5091  43.939  23.105   3.235
32667W        W 5092  35.864  20.910   0.265
32668W        W 5093  15.650   1.001   3.652
32669W        W 5094  37.777   6.261   3.542
32670W        W 5095   8.330  42.304   2.713
32671W        W 5096  37.006  13.200   3.296
32672W        W 5097  41.217   4.379  12.362
32673W        W 5098  20.442  35.543  10.879
32674W        W 5099  17.378  39.037  10.995
32675W        W 5100  20.555   6.205  11.352
32676W        W 5101  14.116  44.254   0.492
32677W        W 5102  24.544   7.438   2.703
32678W        W 5103  39.364   7.354  10.656
32679W        W 5104  38.964  38.983  13.366
32680W        W 5105  19.432  25.158   3.755
32681W        W 5106  40.961   9.814  13.136
32682W        W 5107  42.816  28.061   2.393
32683W        W 5108  38.338  29.509  14.195
32684W        W 5109  13.217  41.547  12.973
32685W        W 5110  41.471  15.274  14.056
32686W        W 5111  25.263  29.529  12.883
32687W        W 5112   6.070  29.420   4.114
32688W        W 5113  27.343  27.113   0.269
32689W        W 5114  43.543  44.744   4.035
32690W        W 5115   8.756  41.624   2.191
32691W        W 5116   1.774  39.317  13.582
32692W        W 5117  28.233  25.041   5.172
32693W        W 5118  24.572  32.407  12.823
32694W        W 5119   9.206  28.005  12.603
32695W        W 5120  21.444  24.742   3.494
32696W        W 5121  25.882  30.611  14.364
32697W        W 5122  18.019  35.700  13.011
32698W        W 5123  33.654  19.223   4.117
32699W        W 5124  39.086  37.103  14.961
32700W        W 5125  26.412   3.475   4.681
32701W        W 5126   8.662   9.245  14.774
32702W        W 5127  37.964  17.776   1.267
32703W        W 5128  29.543  20.577  10.691
32704W        W 5129   4.775  17.032   0.876
32705W        W 5130  32.369  11.879  12.224
32706W        W 5131   9.331   6.190   1.642
32707W        W 5132  12.614  35.064   1.396
32708W        W 5133  19.324  42.493  12.111
32709W        W 5134  40.214  40.589   3.641
32710W        W 5135   7.765  18.290   0.543
32711W        W 5136   1.285  34.112  10.024
32712W        W 5137  43.586  31.644  11.498
32713W        W 5138  25.526   3.229  14.826
32714W        W 5139  14.447  17.392   3.660
32715W        W 5140  39.058  43.987   2.193
32716W        W 5141  15.573  42.311  13.068
32717W        W 5142  39.812  35.968   4.240
32718W        W 5143   3.810  42.485   3.103
32719W        W 5144  38.024   2.366   4.641
32720W        W 5145   8.430  38.990   3.718
32721W        W 5146   5.661  15.532  11.527
32722W        W 5147  13.360  15.510   2.707
32723W        W 5148  24.518  18.622  14.475
32724W        W 5149  12.740  18.083   2.234
32725W        W 5150  10.350  10.219  10.928
32726W        W 5151   2.799   5.798   2.951
32727W        W 5152  24.825  24.249  14.801
32728W        W 5153  23.421  33.133  12.379
32729W        W 5154  32.934   2.891  10.843
32730W        W 5155  32.915  36.893   3.688
32731W        W 5156   4.478  19.325   0.985
32732W        W 5157  23.064  26.813   3.048
32733W        W 5158  42.469   7.766   0.552
32734W        W 5159  41.307   6.839   4.325
32735W        W 5160   4.659  27.267   4.652
32736W        W 5161  24.999  22.891  13.289
32737W        W 5162  37.973  10.206   3.177
32738W        W 5163  12.811  18.735  11.586
32739W        W 5164  10.761  19.193   1.959
32740W        W 5165  18.617   3.837   3.569
32741W        W 5166  15.204  27.534   3.376
32742W        W 5167  31.414  11.918   1.833
32743W        W 5168  28.163   5.384   0.760
32744W        W 5169  40.833   0.946   0.273
32745W        W 5170  30.409  35.796   1.610
32746W        W 5171  38.262   8.081  12.950
32747W        W 5172   6.701   1.084  12.322
32748W        W 5173  27.993  30.434   0.242
32749W        W 5174   2.178   1.133  11.776
32750W        W 5175  10.426  42.958  12.404
32751W        W 5176  34.002  40.456   3.045
32752W        W 5177  24.813  40.028   4.092
32753W        W 5178  11.135  40.403  12.525
32754W        W 5179  30.030  35.156   2.325
32755W        W 5180  12.608  27.118  11.855
32756W        W 5181  13.633  16.871   2.827
32757W        W 5182   4.779  37.085  14.017
32758W        W 5183  20.681  33.465  13.448
32759W        W 5184  34.084   2.847   2.300
32760W        W 5185  24.761  31.381  12.422
32761W        W 5186  11.914  42.240  11.913
32762W        W 5187   6.902  40.458  13.268
32763W        W 5188  29.515  18.125  14.874
32764W        W 5189   1.896  30.399   2.348
32765W        W 5190   2.775  40.851  10.805
32766W        W 5191  25.895   3.941   1.141
32767W        W 5192  10.198  28.163   1.667
32768W        W 5193   9.965  15.045  12.074
32769W        W 5194  28.104  17.346  11.072
32770W        W 5195   1.905   5.329   0.928
32771W        W 5196  16.864   8.014   1.252
32772W        W 5197  29.613  22.558  12.098
32773W        W 5198   5.370  43.542   3.701
32774W        W 5199  39.517  23.924  12.780
32775W        W 5200  12.180  34.919  12.673
32776W        W 5201  31.122  34.848   2.703
32777W        W 5202  29.483  41.738  13.489
32778W        W 5203  41.936  38.027  14.357
32779W        W 5204   4.427  14.278  13.809
32780W        W 5205  34.606  36.521   1.806
32781W        W 5206  16.880  24.088   4.027
32782W        W 5207  23.517  29.634   3.318
32783W        W 5208  34.457  36.603   2.828
32784W        W 5209  20.114  24.153   4.130
32785W        W 5210   8.750  43.346  14.120
32786W        W 5211   5.919   6.642  13.838
32787W        W 5212  12.779  10.549   4.757
32788W        W 5213  41.408  13.087   4.466
32789W        W 5214   0.980  39.339   1.991
32790W        W 5215  12.742  30.611  10.895
32791W        W 5216  42.267  40.347   0.405
32792W        W 5217  38.785  32.830   4.150
32793W        W 5218  12.825  30.072  14.327
32794W        W 5219   5.107  16.186  11.925
32795W        W 5220  36.421  35.902   3.477
32796W        W 5221  14.593  27.240  13.744
32797W        W 5222  10.593  11.252   3.532
32798W        W 5223  43.227  22.672  13.497
32799W        W 5224  32.001  32.029  10.788
32800W        W 5225  28.617  32.919  13.324
32801W        W 5226  15.718  11.323   4.105
32802W        W 5227  32.608  32.571  12.451
32803W        W 5228  36.757  24.203   1.888
32804W        W 5229  15.819  21.998  13.457
32805W        W 5230  37.236  22.102   4.832
32806W        W 5231  13.158  10.374   1.253
32807W        W 5232  44.486  10.519  14.095
32808W        W 5233  39.547   0.862  10.933
32809W        W 5234  42.440  37.451   2.229
32810W        W 5235  17.282  13.621  13.927
32811W        W 5236   5.211  44.061  10.659
32812W        W 5237  28.165   2.730  10.826
32813W        W 5238  33.487  22.732  10.546
32814W        W 5239  31.982   5.572  14.947
32815W        W 5240  41.676  32.633  14.294
32816W        W 5241  13.853  12.865   4.215
32817W        W 5242  11.757  31.913   1.486
32818W        W 5243   5.199  42.234  11.996
32819W        W 5244  27.571  28.638  13.926
32820W        W 5245  16.531  21.328   3.607
32821W        W 5246   3.241  28.497   3.316
32822W        W 5247  44.428  12.560   0.470
32823W        W 5248  39.594  33.439  10.662
32824W        W 5249  31.643  25.681   0.798
32825W        W 5250  42.575  11.200   3.789
32826W        W 5251  27.631  42.527   2.686
32827W        W 5252  28.911   5.405   0.449
32828W        W 5253  19.108   7.292  13.052
32829W        W 5254   3.515   7.742   5.194
32830W        W 5255   7.706  13.222   1.507
32831W        W 5256  14.047  11.893  13.049
32832W        W 5257  44.027  18.581   2.726
32833W        W 5258  38.667  18.192   0.735
32834W        W 5259  36.765  35.980  13.380
32835W        W 5260  24.157  41.916  13.071
32836W        W 5261  22.736  37.378  12.107
32837W        W 5262  37.915  37.215  13.885
32838W        W 5263   9.747  10.431   3.786
32839W        W 5264  23.968  12.251   0.534
32840W        W 5265  37.305  10.847   2.958
32841W        W 5266  14.388  26.965   0.411
32842W        W 5267   2.374  19.871   0.987
32843W        W 5268  21.512  31.812  14.085
32844W        W 5269   5.353  20.969  14.255
32845W        W 5270  36.732  34.311   0.405
32846W        W 5271  14.613  39.306   3.181
32847W        W 5272  18.331  37.034   1.807
32848W        W 5273   1.915   2.653   2.276
32849W        W 5274  35.972  24.388  11.686
32850W        W 5275  34.159  13.831  13.893
32851W        W 5276  15.839  15.565   4.075
32852W        W 5277  20.796  26.558   1.815
32853W        W 5278   6.812   3.245  12.922
32854W        W 5279  28.677   6.376   9.957
32855W        W 5280  41.714  38.439   3.883
32856W        W 5281   1.694  12.136  12.642
32857W        W 5282  27.425  22.099   1.243
32858W        W 5283   4.262  36.030   1.502
32859W        W 5284  20.303  29.432  12.048
32860W        W 5285  18.305  44.734  10.650
32861W        W 5286   7.190  25.575  14.618
32862W        W 5287  41.162  14.480   1.678
32863W        W 5288  32.489   5.389  11.046
32864W        W 5289  27.213   8.748   3.699
32865W        W 5290   7.703  32.987   1.743
32866W        W 5291  38.252  17.068   3.647
32867W        W 5292  35.908   5.445  10.744
32868W        W 5293  38.941  15.816   9.651
32869W        W 5294   5.945   1.475   2.423
32870W        W 5295  44.484  20.505   3.231
32871W        W 5296  20.077   1.837  13.374
32872W        W 5297  39.095  14.206   3.972
32873W        W 5298  37.796  23.333  13.940
32874W        W 5299  35.432  36.868  12.702
32875W        W 5300  27.006  40.582   4.567
32876W        W 5301  36.078  40.267  14.981
32877W        W 5302  15.236  44.923  12.159
32878W        W 5303  14.795  29.063  13.432
32879W        W 5304   7.707  23.136  14.846
32880W        W 5305   8.847  11.001   3.763
32881W        W 5306   7.538  26.171  13.672
32882W        W 5307  34.357  26.301  13.015
32883W        W 5308  25.631  29.491  13.416
32884W        W 5309   2.840  27.022   2.585
32885W        W 5310  29.090   7.372   4.637
32886W        W 5311  36.089  17.316  12.033
32887W        W 5312  44.202  33.350  11.626
32888W        W 5313   9.301  14.061  14.416
32889W        W 5314  23.054  44.724   2.023
32890W        W 5315   5.442  41.354  11.966
32891W        W 5316   1.687  31.650  12.914
32892W        W 5317  13.936  34.122   2.857
32893W        W 5318   2.919  39.017   2.191
32894W        W 5319   6.774  24.529   2.776
32895W        W 5320  10.201   0.964  14.155
32896W        W 5321  24.055  39.721   3.700
32897W        W 5322  36.287   9.597   3.797
32898W        W 5323  29.987  41.958   3.904
32899W        W 5324   1.916  32.445   0.433
32900W        W 5325  36.964  42.225  11.511
32901W        W 5326  34.621  15.215   1.288
32902W        W 5327  41.987  28.806   4.982
32903W        W 5328   0.847  20.168   2.678
32904W        W 5329  18.601  18.529   3.648
32905W        W 5330  22.514  13.756   4.590
32906W        W 5331  11.693  27.001  13.515
32907W        W 5332   9.986  34.182  13.590
32908W        W 5333  17.757  32.825   9.894
32909W        W 5334  26.085  18.495  12.840
32910W        W 5335  26.071  25.351   3.566
32911W        W 5336  30.129  30.465   4.413
32912W        W 5337  10.114  26.040   3.138
32913W        W 5338  14.218  25.859  11.573
32914W        W 5339  30.991  39.809  12.947
32915W        W 5340   1.621   8.573  13.632
32916W        W 5341  10.120  28.629  14.910
32917W        W 5342  35.500  26.519   3.113
32918W        W 5343  38.560  34.397  12.045
32919W        W 5344  40.751   2.935  11.130
32920W        W 5345   2.533   3.274   0.574
32921W        W 5346  25.289  14.299   4.864
32922W        W 5347  34.859   0.363  10.260
32923W        W 5348  14.562   0.957  10.162
32924W        W 5349   3.181   9.941   2.459
32925W        W 5350   7.748   1.449  14.790
32926W        W 5351   9.394  16.600   1.064
32927W        W 5352   7.299   4.791  10.297
32928W        W 5353  18.078  17.146  10.442
32929W        W 5354  26.513  44.469   3.343
32930W        W 5355   1.954  38.594   0.233
32931W        W 5356  23.694  22.642   1.342
32932W        W 5357   6.669  33.847  13.469
32933W        W 5358   8.738  44.976  11.314
32934W        W 5359   0.938  37.865   2.404
32935W        W 5360  19.596   5.758  11.579
32936W        W 5361  32.876   2.171  14.426
32937W        W 5362  31.047  30.481   2.203
32938W        W 5363  39.637  39.825   4.557
32939W        W 5364  35.484  41.825  14.917
32940W        W 5365   3.209   5.685   3.812
32941W        W 5366  35.293   9.218  11.607
32942W        W 5367  36.064   8.621   4.134
32943W        W 5368   8.859  26.094  10.740
32944W        W 5369   0.156  37.401  14.807
32945W        W 5370  12.529  25.898  14.835
32946W        W 5371  42.741  39.421  14.930
32947W        W 5372  30.401  26.897  13.772
32948W        W 5373  17.130  18.086   2.940
32949W        W 5374  18.567  40.063   4.152
32950W        W 5375  30.718  22.605  12.906
32951W        W 5376   2.384  26.917  12.795
32952W        W 5377  16.828   9.080  10.644
32953W        W 5378  28.943  20.721   1.384
32954W        W 5379  28.651   1.988  13.202
32955W        W 5380  12.132  12.118   3.149
32956W        W 5381   4.777   7.783  14.021
32957W        W 5382  15.517  36.290  12.592
32958W        W 5383  10.455   5.204   1.164
32959W        W 5384  13.803  40.613  14.439
32960W        W 5385  28.456   0.585  11.836
32961W        W 5386  41.313   2.230  14.834
32962W        W 5387  11.038  19.759  14.081
32963W        W 5388  33.395  32.485  13.036
32964W        W 5389  35.389  10.321  11.445
32965W        W 5390  31.178  18.101   1.349
32966W        W 5391  28.458  16.746  12.969
32967W        W 5392  35.640  26.091   2.286
32968W        W 5393  36.542  12.802  14.910
32969W        W 5394  14.632   5.733   0.662
32970W        W 5395  25.554   3.443  11.147
32971W        W 5396  26.813  14.239   1.253
32972W        W 5397  35.136  17.501  11.143
32973W        W 5398  27.795  33.474   2.813
32974W        W 5399  10.797   1.234   3.693
32975W        W 5400  40.553  40.904   2.448
32976W        W 5401   3.284   1.145   0.223
32977W        W 5402   5.427  38.949  12.889
32978W        W 5403   3.204  44.733   2.381
32979W        W 5404  31.228  15.283  10.761
32980W        W 5405  36.206  32.943  13.293
32981W        W 5406  18.511  43.409  10.439
32982W        W 5407  10.900   7.887  12.271
32983W        W 5408  19.988  17.469  11.612
32984W        W 5409  39.381  35.903  14.834
32985W        W 5410   5.706  16.216   3.252
32986W        W 5411  13.848  32.385   4.789
32987W        W 5412  24.155   1.349  10.679
32988W        W 5413  12.292  32.662   0.024
32989W        W 5414  30.020  19.232   2.396
32990W        W 5415  11.858   6.237   1.387
32991W        W 5416  34.963  44.215   5.382
32992W        W 5417  23.978   2.311  14.418
32993W        W 5418  37.910  12.391  12.028
32994W        W 5419  34.473  34.484  12.919
32995W        W 5420  15.742  43.565  12.485
32996W        W 5421  38.239  34.784   3.794
32997W        W 5422  32.440  28.019   0.391
32998W        W 5423   5.332  34.334   2.238
32999W        W 5424   2.552  33.788   1.530
33000W        W 5425  13.651  43.320   3.948
33001W        W 5426  16.245   9.222  12.114
33002W        W 5427   6.842   7.322  14.717
33003W        W 5428  36.773  32.553  10.637
33004W        W 5429  33.918   9.002  11.014
33005W        W 5430  34.031  18.652   2.653
33006W        W 5431  40.941  10.021  12.454
33007W        W 5432  38.791  13.291   5.087
33008W        W 5433  14.812  32.710  11.622
33009W        W 5434  10.649  35.269   1.189
33010W        W 5435  12.220   2.762   4.151
33011W        W 5436  37.315  24.854   4.357
33012W        W 5437  25.269  12.942   1.729
33013W        W 5438  30.887  18.165   2.843
33014W        W 5439  41.863  11.559   1.461
33015W        W 5440  10.854  11.978   1.856
33016W        W 5441  24.952  33.868   0.464
33017W        W 5442  32.012  12.694   1.385
33018W        W 5443  19.089  16.323  11.108
33019W        W 5444  13.667  44.224   3.872
33020W        W 5445  31.485   1.283   4.857
33021W        W 5446  23.341   2.419   0.406
33022W        W 5447  15.192   5.195  14.350
33023W        W 5448   3.724  26.000   3.734
33024W        W 5449  29.443  44.804  12.755
33025W        W 5450  29.933  44.899  10.598
33026W        W 5451  30.541  31.987  12.403
33027W        W 5452  19.668  28.496   0.752
33028W        W 5453  25.269  28.261   2.458
33029W        W 5454   1.512  37.982   3.915
33030W        W 5455  26.098  42.667  11.425
33031W        W 5456  13.984   5.214   1.521
33032W        W 5457  40.923  41.064   1.131
33033W        W 5458  21.160  36.677   0.956
33034W        W 5459  26.073  18.134   2.141
33035W        W 5460   4.402  43.902  13.603
33036W        W 5461  20.728   2.405  13.938
33037W        W 5462  27.573  25.178   1.323
33038W        W 5463  37.250  14.842  14.987
33039W        W 5464  40.981   9.494   1.290
33040W        W 5465  25.558   9.573  10.602
33041W        W 5466  15.125  12.378   3.687
33042W        W 5467  29.515  27.158  13.811
33043W        W 5468  14.406  34.922   9.919
33044W        W 5469  21.914  23.127  11.997
33045W        W 5470   9.908   6.719  12.551
33046W        W 5471   0.636  16.500   2.632
33047W        W 5472  19.551   4.940   2.131
33048W        W 5473   4.801   0.525   0.392
33049W        W 5474  23.300  16.224   1.725
33050W        W 5475  34.459  12.303  13.528
33051W        W 5476  17.042  31.601  11.963
33052W        W 5477   1.485  32.409   0.718
33053W        W 5478   2.681  32.471   1.903
33054W        W 5479   0.821  32.186  12.846
33055W        W 5480  40.465  34.996  14.833
33056W        W 5481  38.364  14.893  10.829
33057W        W 5482  13.895  18.017  11.004
33058W        W 5483  41.754  16.186   0.315
33059W        W 5484  40.493  18.293   1.825
33060W        W 5485   3.730  40.223  11.998
33061W        W 5486  19.052   8.153  10.648
33062W        W 5487  14.573  28.552   2.851
33063W        W 5488   0.979  36.888   1.160
33064W        W 5489  27.428  42.134  13.805
33065W        W 5490  42.267  31.495  10.664
33066W        W 5491   4.017  28.751  13.800
33067W        W 5492  11.361  29.235   4.476
33068W        W 5493  35.134   9.123  13.061
33069W        W 5494  32.968  31.671   1.556
33070W        W 5495  15.273   1.028  14.526
33071W        W 5496   7.536  35.955  14.862
33072W        W 5497  31.419  31.545   2.732
33073W        W 5498   4.335  25.665   0.390
33074W        W 5499  40.542  23.268  12.468
33075W        W 5500  25.204  17.161   0.341
33076W        W 5501  42.353  12.362   2.758
33077W        W 5502  23.671  33.245  11.043
33078W        W 5503   8.618  36.950   2.647
33079W        W 5504   1.447  31.896   0.893
33080W        W 5505  21.341  10.441   0.863
33081W        W 5506   6.280  25.951  13.776
33082W        W 5507  12.093  41.978  11.520
33083W        W 5508  38.817  18.576  11.593
33084W        W 5509  29.946  11.293  10.771
33085W        W 5510  20.654  10.955  11.377
33086W        W 5511  17.899  21.171  10.638
33087W        W 5512   7.662  41.789   2.603
33088W        W 5513  13.013  39.941  13.477
33089W        W 5514  10.757  26.909  11.028
33090W        W 5515   0.869  40.820   0.860
33091W        W 5516  35.829  16.636  14.046
33092W        W 5517  33.021  28.650   1.351
33093W        W 5518   0.913  26.632  11.537
33094W        W 5519   6.718  36.963  11.708
33095W        W 5520   1.500  38.844   4.540
33096W        W 5521  43.914  35.793   0.735
33097W        W 5522  37.766   5.727   3.732
33098W        W 5523   6.240   4.794   2.440
33099W        W 5524  11.242  18.265   0.668
33100W        W 5525   6.803  32.137  11.928
33101W        W 5526  31.372  19.569  13.785
33102W        W 5527  37.475  28.174  12.385
33103W        W 5528  23.194  28.701  13.401
33104W        W 5529  36.831  29.199  13.004
33105W        W 5530   9.443   8.227  14.250
33106W        W 5531  42.612  44.509  14.623
33107W        W 5532  30.598   7.263  12.850
33108W        W 5533  40.773  43.125   4.048
33109W        W 5534  29.232  21.529  12.857
33110W        W 5535  30.363   2.591   1.514
33111W        W 5536   3.457  30.840  13.111
33112W        W 5537  32.452  17.163   1.952
33113W        W 5538  36.063  16.225  13.787
33114W        W 5539   1.190  12.282   3.156
33115W        W 5540  39.840  29.922  10.777
33116W        W 5541   9.936  34.913   0.915
33117W        W 5542  39.321   9.678   4.798
33118W        W 5543  20.951  13.084   3.862
33119W        W 5544  16.237  11.370  13.429
33120W        W 5545  33.432   5.837   1.010
33121W        W 5546  31.160  22.360  10.831
33122W        W 5547  17.878  37.755   4.093
33123W        W 5548  14.264  33.892  11.630
33124W        W 5549  35.399  40.951   4.763
33125W        W 5550  12.817   3.407   4.321
33126W        W 5551  12.568  18.142   4.141
33127W        W 5552   1.712  33.002   2.406
33128W        W 5553  17.332  42.996  12.969
33129W        W 5554   6.669  18.105   2.733
33130W        W 5555  39.633  33.086  11.919
33131W        W 5556  31.451  30.111  11.604
33132W        W 5557  34.634  19.739   1.531
33133W        W 5558   4.222  31.756  13.123
33134W        W 5559  39.146  19.515   3.245
33135W        W 5560   0.716  44.820  12.457
33136W        W 5561   9.844  17.252   3.343
33137W        W 5562  13.865  13.449  13.456
33138W        W 5563  31.887  35.965   3.715
33139W        W 5564  23.534  41.330   1.873
33140W        W 5565  16.786  34.574  13.835
33141W        W 5566  29.105   6.722  12.498
33142W        W 5567  31.899  15.112  13.901
33143W        W 5568  21.188  24.697   0.381
33144W        W 5569  35.073  13.669   0.639
33145W        W 5570  21.538  36.628   1.327
33146W        W 5571  20.973   8.494  13.460
33147W        W 5572  31.475  35.374  14.797
33148W        W 5573  30.011  24.216   3.284
33149W        W 5574  17.137   9.989  12.711
33150W        W 5575  12.154  26.491  13.967
33151W        W 5576  12.560  16.605  13.522
33152W        W 5577  33.769  28.408   3.623
33153W        W 5578  28.227  43.055   4.161
33154W        W 5579  27.535  44.551  14.580
33155W        W 5580   0.726  21.177   2.802
33156W        W 5581   7.008  34.922   0.800
33157W        W 5582  23.633  29.719  12.068
33158W        W 5583  30.155  33.681  14.391
33159W        W 5584  29.389  40.575  10.761
33160W        W 5585  14.015  21.047   0.091
33161W        W 5586  10.262  11.692   2.181
33162W        W 5587   2.322  21.618   0.494
33163W        W 5588  20.748   8.258  10.821
33164W        W 5589  22.291  28.228  12.462
33165W        W 5590   5.672  41.505  11.558
33166W        W 5591  35.607  44.594  13.419
33167W        W 5592  33.010  30.126  14.802
33168W        W 5593   2.202  15.988  12.141
33169W        W 5594  10.908   5.589  13.426
33170W        W 5595  41.829  14.330  12.233
33171W        W 5596  44.429  29.346   4.572
33172W        W 5597  18.463  15.388   4.508
33173W        W 5598  15.212  24.984  12.071
33174W        W 5599  32.704  23.632   1.182
33175W        W 5600  14.640   4.818  13.339
33176W        W 5601  41.496  37.800  14.514
33177W        W 5602  13.910   2.082  11.685
33178W        W 5603  44.613  27.083  11.434
33179W        W 5604  40.569  12.429  13.477
33180W        W 5605  20.680  33.346   1.768
33181W        W 5606  38.340  15.057   4.605
33182W        W 5607  16.882  26.212   3.794
33183W        W 5608  21.874   6.656  11.156
33184W        W 5609   0.702   5.609   0.001
33185W        W 5610  42.401  25.961   1.017
33186W        W 5611   8.735   2.261   1.289
33187W        W 5612  41.364  41.961   0.851
33188W        W 5613  15.741  36.062   2.102
33189W        W 5614   6.685  39.255   3.091
33190W        W 5615  15.282  15.222   2.255
33191W        W 5616  28.127  36.541   1.128
33192W        W 5617  11.504   8.286   3.355
33193W        W 5618  39.027  34.037  13.814
33194W        W 5619  22.248  19.115   2.619
33195W        W 5620  22.527  21.486  10.458
33196W        W 5621  37.730  16.536  11.164
33197W        W 5622  22.259  44.869  12.964
33198W        W 5623   8.765  28.094  12.366
33199W        W 5624  22.237  22.152  14.471
33200W        W 5625  14.948  29.669  10.766
33201W        W 5626  24.641  34.907   4.410
33202W        W 5627   5.999  23.373  10.796
33203W        W 5628   2.316   7.848  14.954
33204W        W 5629  13.229  21.155   4.404
33205W        W 5630   5.863  26.109  11.071
33206W        W 5631   1.723   9.816   2.399
33207W        W 5632  35.680   6.421   3.913
33208W        W 5633  32.149   5.846   1.984
33209W        W 5634  28.558  19.899  12.378
33210W        W 5635  11.855  14.346  14.441
33211W        W 5636  15.511   6.866   3.184
33212W        W 5637  18.120   2.225   2.623
33213W        W 5638   1.163  30.183   0.454
33214W        W 5639   0.565  20.052   4.104
33215W        W 5640  44.885  22.080  11.036
33216W        W 5641  41.642  28.528  14.863
33217W        W 5642  25.064   7.970   4.267
33218W        W 5643   6.463   5.255   2.382
33219W        W 5644  11.342   1.528  13.904
33220W        W 5645   0.377  28.050  14.810
33221W        W 5646  43.338  32.498   1.061
33222W        W 5647  26.124  11.251   2.233
33223W        W 5648  27.530  37.562  12.567
33224W        W 5649   4.417  43.505  13.935
33225W        W 5650  21.273  28.101   3.657
33226W        W 5651  14.648  17.764   4.602
33227W        W 5652  27.246   7.667  13.603
33228W        W 5653   3.845  43.985   1.761
33229W        W 5654  36.180  24.281   1.502
33230W        W 5655  12.367   3.746   5.061
33231W        W 5656  37.586  18.578   1.379
33232W        W 5657  38.460  21.022   4.266
33233W        W 5658  18.086  34.183  12.061
33234W        W 5659  16.178  30.364  12.063
33235W        W 5660  39.307  11.364  13.967
33236W        W 5661  10.366  14.460   1.346
33237W        W 5662   2.457   0.756   3.216
33238W        W 5663  20.248   5.113   1.904
33239W        W 5664  18.645  31.621   2.950
33240W        W 5665   7.518  12.890   2.580
33241W        W 5666  13.733  37.932   2.748
33242W        W 5667  22.022  25.072  10.979
33243W        W 5668  17.184  33.490  14.872
33244W        W 5669   9.798  16.751   0.070
33245W        W 5670   0.500  26.615  14.870
33246W        W 5671  24.977  35.379  10.597
33247W        W 5672   6.870  18.549   0.068
33248W        W 5673  17.219   0.454  13.359
33249W        W 5674  10.316   0.837   1.031
33250W        W 5675  32.620  21.718  11.964
33251W        W 5676   8.857   3.742   0.881
33252W        W 5677  24.682  15.771   0.187
33253W        W 5678  18.634  35.374   2.257
33254W        W 5679   6.217  44.424  13.956
33255W        W 5680  31.665  16.060   1.343
33256W        W 5681   8.414   6.745   4.564
33257W        W 5682  40.086  18.361  11.981
33258W        W 5683  24.593  29.742   3.187
33259W        W 5684  21.264  38.961   2.732
33260W        W 5685  40.471  10.028  14.435
33261W        W 5686  12.750  40.787   0.966
33262W        W 5687   1.978  42.097   3.340
33263W        W 5688  28.542  28.106  13.119
33264W        W 5689  27.510   2.849   1.903
33265W        W 5690   7.933  11.278  11.885
33266W        W 5691  38.497   4.427  13.945
33267W        W 5692   6.139   2.734   1.697
33268W        W 5693  33.907  27.506  13.729
33269W        W 5694  32.707  43.399   4.825
33270W        W 5695  42.914  16.986  11.576
33271W        W 5696  13.092  24.168  14.773
33272W        W 5697  21.060   5.650  13.953
33273W        W 5698  37.560  12.790  11.180
33274W        W 5699  23.174  39.351   0.163
33275W        W 5700  32.038   2.224   4.277
33276W        W 5701  15.979  30.094   0.688
33277W        W 5702  14.117   1.327   5.179
33278W        W 5703   7.178   0.299   1.288
33279W        W 5704  10.576  22.357   3.269
33280W        W 5705  17.777  21.621  11.081
33281W        W 5706   8.959  22.297  11.915
33282W        W 5707  23.902  27.288  12.992
33283W        W 5708  12.823   1.430   0.477
33284W        W 5709  16.760  17.349  10.744
33285W        W 5710  24.155  30.033   2.304
33286W        W 5711  41.818  10.717   3.632
33287W        W 5712  38.507  39.493  12.903
33288W        W 5713   7.626   4.537  11.869
33289W        W 5714  34.116  28.196   2.337
33290W        W 5715  10.897  37.628   1.735
33291W        W 5716  13.124  31.662  14.336
33292W        W 5717   7.172  41.412  13.460
33293W        W 5718  29.405  38.306  11.180
33294W        W 5719  16.394  41.413   0.871
33295W        W 5720  29.015  42.983  14.319
33296W        W 5721  29.264  23.499   1.816
33297W        W 5722  26.077   9.288   2.911
33298W        W 5723  14.689  17.220   0.421
33299W        W 5724  43.928  24.751  13.035
33300W        W 5725   1.472  15.134  13.730
33301W        W 5726   0.429  11.841   2.672
33302W        W 5727  27.245  22.460  12.284
33303W        W 5728  16.843   1.344   3.243
33304W        W 5729  25.026  27.489   0.916
33305W        W 5730  28.749  36.197  13.498
33306W        W 5731  10.368  40.477   0.287
33307W        W 5732   2.393  43.040  13.462
33308W        W 5733  44.052  42.476   2.811
33309W        W 5734  27.844  14.191   1.251
33310W        W 5735  39.810   5.724   4.222
33311W        W 5736  43.039  41.472   1.854
33312W        W 5737  44.701   8.004   0.036
33313W        W 5738  16.039  29.652   2.488
33314W        W 5739  18.012  12.755  12.094
33315W        W 5740   1.662  40.798  14.784
33316W        W 5741  30.701   8.673   0.452
33317W        W 5742   5.513  23.632  14.193
33318W        W 5743   2.825  19.770  13.787
33319W        W 5744   3.534  28.666  13.929
33320W        W 5745  21.956  25.128   3.710
33321W        W 5746  10.757  18.851  13.320
33322W        W 5747  17.763  10.433   4.424
33323W        W 5748  14.314  44.213   3.258
33324W        W 5749   7.252  38.208  11.058
33325W        W 5750   3.255   8.315   2.173
33326W        W 5751  17.195   2.035   1.476
33327W        W 5752  41.234  33.321  13.931
33328W        W 5753  21.586  39.033  12.590
33329W        W 5754  35.610  40.915  11.495
33330W        W 5755  44.515  38.079  14.759
33331W        W 5756  30.710  17.496  13.455
33332W        W 5757  23.486  30.703   2.567
33333W        W 5758   1.346  36.513  11.720
33334W        W 5759  38.920   4.441   3.207
33335W        W 5760  24.205  36.430  13.094
33336W        W 5761  30.679  24.034   0.883
33337W        W 5762   0.339   2.624   4.919
33338W        W 5763  18.712  23.543  12.993
33339W        W 5764  32.380  12.198  14.359
33340W        W 5765  26.522   1.836   2.701
33341W        W 5766  35.630  37.600  14.901
33342W        W 5767  32.596  16.808   1.267
33343W        W 5768   3.296  14.732  11.933
33344W        W 5769  13.689   2.681  13.013
33345W        W 5770  35.563  10.613  11.021
33346W        W 5771  44.270  28.429  13.762
33347W        W 5772   3.757  24.613   4.542
33348W        W 5773  17.861  35.961  13.446
33349W        W 5774  19.300  14.535  12.211
33350W        W 5775  12.850   1.638   1.262
33351W        W 5776  35.294  15.115  12.193
33352W        W 5777  38.521   0.849   4.071
33353W        W 5778  30.741  13.402  13.568
33354W        W 5779  25.591  35.511   0.351
33355W        W 5780  31.596  30.402   3.777
33356W        W 5781  19.966  36.423  11.623
33357W        W 5782  25.524  43.851  13.040
33358W        W 5783  13.310  12.288  11.983
33359W        W 5784  31.156  17.022  14.553
33360W        W 5785  31.702  10.736  11.675
33361W        W 5786   2.920   3.777   4.572
33362W        W 5787   7.476  42.550  12.889
33363W        W 5788  25.691  23.654  13.841
33364W        W 5789  30.208  40.376   0.167
33365W        W 5790   4.730   9.746  13.473
33366W        W 5791  29.228  44.806  11.084
33367W        W 5792  43.895   7.607   3.866
33368W        W 5793  26.265  16.294   1.754
33369W        W 5794  41.315  38.571   4.216
33370W        W 5795  33.945  37.360  13.832
33371W        W 5796  37.403  14.341  10.667
33372W        W 5797  25.569  44.532  11.592
33373W        W 5798  31.392  28.862  11.277
33374W        W 5799   5.578   5.387  14.344
33375W        W 5800   4.938   7.418  11.864
33376W        W 5801   5.992  39.336   4.646
33377W        W 5802  13.833  32.630   0.079
33378W        W 5803  18.591  40.749  12.563
33379W        W 5804  38.649  12.567  11.137
33380W        W 5805  21.123  39.979   4.365
33381W        W 5806   6.342  30.170  13.853
33382W        W 5807  26.998  11.730  12.622
33383W        W 5808  23.719  20.692  14.310
33384W        W 5809  40.589  11.181   0.592
33385W        W 5810  38.411  39.438   4.075
33386W        W 5811  20.262  19.544  12.253
33387W        W 5812  36.934  35.842   3.561
33388W        W 5813   0.823   0.860   1.748
33389W        W 5814  31.200   2.240  12.362
33390W        W 5815  24.285  10.313  11.130
33391W        W 5816  34.535   8.198  11.153
33392W        W 5817  30.209   8.933  11.087
33393W        W 5818  28.577   2.946  12.168
33394W        W 5819  12.271   5.159  11.083
33395W        W 5820  17.855   0.206  11.489
33396W        W 5821  24.465  25.091   2.370
33397W        W 5822  39.890  41.890   4.329
33398W        W 5823  21.659   2.497  11.373
33399W        W 5824  18.268  36.904   2.735
33400W        W 5825  36.979  28.674  13.006
33401W        W 5826  41.921  44.102   1.248
33402W        W 5827  20.545  41.710  12.908
33403W        W 5828  37.842   3.197  11.867
33404W        W 5829  11.265  27.605   2.902
33405W        W 5830  27.349  12.685   3.088
33406W        W 5831  14.021   4.723  12.045
33407W        W 5832   8.953   3.456  13.908
33408W        W 5833  26.123  43.970  14.429
33409W        W 5834   5.923  44.166  10.995
33410W        W 5835  39.117  19.785  11.288
33411W        W 5836   7.786  38.534  13.395
33412W        W 5837  30.454  25.677  10.779
33413W        W 5838   8.250   5.223   2.810
33414W        W 5839  12.765  12.903  11.716
33415W        W 5840  30.503  22.091   4.617
33416W        W 5841  32.092  26.617   1.938
33417W        W 5842  28.461  24.932   3.385
33418W        W 5843  12.917  42.610  12.695
33419W        W 5844  23.217   1.278  12.630
33420W        W 5845   7.359   5.261   1.339
33421W        W 5846   9.667  20.674   4.624
33422W        W 5847  37.256  24.189   3.321
33423W        W 5848  11.148  28.052  13.018
33424W        W 5849  13.134  15.065   2.873
33425W        W 5850  14.791  37.534   2.639
33426W        W 5851  44.734   5.416  11.133
33427W        W 5852   1.023  32.178   3.323
33428W        W 5853  33.563  33.925  12.879
33429W        W 5854  22.252  37.570  14.941
33430W        W 5855  38.537   0.912  13.887
33431W        W 5856  39.670   1.399   3.013
33432W        W 5857  20.992  40.126   3.698
33433W        W 5858   4.804  31.319   0.957
33434W        W 5859  33.033  10.234   2.691
33435W        W 5860  23.299  26.142   0.427
33436W        W 5861  34.477  14.173   2.115
33437W        W 5862  33.864  26.914   3.799
33438W        W 5863  15.098  25.737   2.401
33439W        W 5864  16.342  35.074  12.598
33440W        W 5865  10.685  13.296  12.086
33441W        W 5866   4.748   6.442   4.096
33442W        W 5867   4.015  22.596  13.482
33443W        W 5868  43.262   4.724   2.606
33444W        W 5869   4.013   0.725   1.003
33445W        W 5870   0.070  42.745  13.575
33446W        W 5871  12.748  27.495   1.246
33447W        W 5872  19.732  28.078   3.576
33448W        W 5873  39.088  13.204  12.823
33449W        W 5874  12.990  23.730   0.931
33450W        W 5875  17.180  12.424  10.904
33451W        W 5876  30.453  32.337  14.550
33452W        W 5877  27.413  42.339  12.798
33453W        W 5878  20.938  36.827   4.073
33454W        W 5879   7.787  39.017   1.923
33455W        W 5880  26.156  16.330   4.081
33456W        W 5881  39.211  20.679   2.951
33457W        W 5882  15.771  11.595   3.638
33458W        W 5883  27.464  23.311   2.080
33459W        W 5884   2.931  30.587  13.291
33460W        W 5885  39.470  18.404   0.595
33461W        W 5886  16.255  39.638   0.120
33462W        W 5887  34.292   4.392  11.495
33463W        W 5888  37.438  11.286  13.791
33464W        W 5889  23.790  37.272   4.658
33465W        W 5890  23.977  29.056   0.301
33466W        W 5891  23.153  37.019   0.962
33467W        W 5892   5.823   6.900  14.326
33468W        W 5893  27.527   9.781  13.289
33469W        W 5894  33.172   5.225  11.559
33470W        W 5895  41.616  41.558  11.478
33471W        W 5896  30.656  18.211   1.159
33472W        W 5897  22.714  21.826   0.676
33473W        W 5898  12.188   6.906  13.904
33474W        W 5899  26.599  19.668   1.518
33475W        W 5900   3.722  13.706  14.369
33476W        W 5901  15.667   1.727  11.465
33477W        W 5902  16.623   4.084   2.591
33478W        W 5903  23.812  30.697  12.989
33479W        W 5904   5.606   4.436   2.275
33480W        W 5905  35.824  41.187  13.159
33481W        W 5906   2.558  10.919   1.305
33482W        W 5907  43.869  30.857  11.194
33483W        W 5908  12.443  26.043  13.483
33484W        W 5909  31.527  18.855   4.491
33485W        W 5910  29.696  36.114   4.119
33486W        W 5911   8.404  44.425  13.443
33487W        W 5912   2.454  25.202  14.792
33488W        W 5913  12.420  42.300  12.014
33489W        W 5914  28.523  22.788  12.893
33490W        W 5915  11.251  22.286  13.469
33491W        W 5916  41.711  35.169   0.181
33492W        W 5917  19.311  36.523   1.277
33493W        W 5918  30.581  31.894   1.358
33494W        W 5919  25.934   7.548  14.944
33495W        W 5920   8.484  17.202  11.207
33496W        W 5921  14.106  30.793  11.115
33497W        W 5922   9.181  25.967  12.908
33498W        W 5923  23.038  34.419  10.625
33499W        W 5924  28.037  23.510   1.494
33500W        W 5925  17.687  26.668   2.030
33501W        W 5926  14.027  10.295   2.297
33502W        W 5927   4.994  24.172  14.780
33503W        W 5928  32.141  24.483   2.260
33504W        W 5929   7.601   7.955   3.685
33505W        W 5930  25.886  43.921   4.543
33506W        W 5931  36.154  31.320  11.567
33507W        W 5932  15.117  38.766  11.473
33508W        W 5933  34.066  31.854   0.533
33509W        W 5934   6.050   7.765   0.252
33510W        W 5935  16.794  37.374   1.155
33511W        W 5936  23.705  26.933  11.125
33512W        W 5937   4.388  34.008   3.763
33513W        W 5938  33.509   2.856  14.289
33514W        W 5939   1.762  37.706  11.133
33515W        W 5940  33.133  34.532   4.604
33516W        W 5941  42.248  17.763   3.181
33517W        W 5942  33.172  27.438  11.633
33518W        W 5943  41.247   9.492   0.849
33519W        W 5944  16.138  34.294   0.274
33520W        W 5945  37.282  10.800   3.510
33521W        W 5946  11.005  24.090   0.827
33522W        W 5947  19.647  15.768   3.131
33523W        W 5948  43.197  20.972  12.896
33524W        W 5949  23.212  19.323   2.573
33525W        W 5950  31.622  12.890  13.633
33526W        W 5951  25.077   8.434  12.961
33527W        W 5952  13.587  20.174  14.859
33528W        W 5953  15.629  12.902  14.805
33529W        W 5954   5.181  33.055  12.505
33530W        W 5955  36.380  43.945   4.627
33531W        W 5956  25.583  25.169   2.867
33532W        W 5957  41.707  22.621   0.013
33533W        W 5958   2.938  30.839  11.994
33534W        W 5959  35.582  24.043  10.520
33535W        W 5960   0.486   0.690  12.555
33536W        W 5961  15.061   7.778  14.251
33537W        W 5962  43.930   2.704  11.514
33538W        W 5963  11.425  39.463  11.159
33539W        W 5964  26.029   3.032  12.982
33540W        W 5965  14.288   3.682  14.533
33541W        W 5966  42.903   5.694  12.925
33542W        W 5967  12.272  28.273   1.460
33543W        W 5968  42.863  16.635  14.406
33544W        W 5969  32.167  19.557   2.306
33545W        W 5970   7.320   3.546   0.549
33546W        W 5971  10.204  38.576  14.763
33547W        W 5972   5.850  10.460   4.940
33548W        W 5973   0.744  44.037  11.202
33549W        W 5974  30.247  13.590   2.825
33550W        W 5975  14.040  38.406   3.564
33551W        W 5976  28.242  42.762  13.768
33552W        W 5977  20.490  16.862  12.988
33553W        W 5978   1.358  36.710  11.246
33554W        W 5979  31.593  24.552  11.383
33555W        W 5980   0.314  37.962   1.229
33556W        W 5981  44.412  36.455  13.465
33557W        W 5982  10.201   6.525  14.068
33558W        W 5983  24.624  37.190   0.692
33559W        W 5984  14.674  42.713  11.236
33560W        W 5985  19.736  40.336   0.949
33561W        W 5986  24.155  21.574  12.611
33562W        W 5987   2.488  22.518   2.936
33563W        W 5988  36.662   0.232   2.494
33564W        W 5989   6.384  36.658   4.866
33565W        W 5990  32.469   8.626  12.772
33566W        W 5991   8.459  38.562  12.106
33567W        W 5992   0.900   6.280  12.403
33568W        W 5993  16.603   3.146   0.699
33569W        W 5994  24.430  31.481  13.276
33570W        W 5995  40.604  21.580  12.490
33571W        W 5996   5.798  29.087  11.142
33572W        W 5997  37.313  25.735  11.802
33573W        W 5998  19.830  17.529  11.118
33574W        W 5999  12.082  41.512   1.743
33575W        W 6000  22.334  34.037   0.041
33576W        W 6001  34.722  40.495   3.770
33577W        W 6002  44.752  27.625   0.403
33578W        W 6003  37.491   7.820   1.263
33579W        W 6004  40.801   3.752  13.486
33580W        W 6005  31.431  30.102  14.360
33581W        W 6006  33.379  41.545  13.533
33582W        W 6007  13.749  30.135  11.610
33583W        W 6008   1.329   5.251  12.496
33584W        W 6009  26.661  20.355   5.152
33585W        W 6010  18.892  15.965  10.467
33586W        W 6011  19.440  30.585  11.494
33587W        W 6012  18.983   1.841  14.050
33588W        W 6013  41.956  44.292   1.751
33589W        W 6014  19.102   4.416   1.197
33590W        W 6015  29.406   0.511   1.844
33591W        W 6016  26.243  16.144  12.381
33592W        W 6017  22.134  41.769  11.130
33593W        W 6018  35.932  27.773  14.454
33594W        W 6019   8.795  31.625  14.316
33595W        W 6020  38.107  15.265  14.893
33596W        W 6021  34.702   3.877   1.354
33597W        W 6022  23.273  27.259  11.016
33598W        W 6023  27.524   7.506  10.599
33599W        W 6024  34.067  37.133  14.499
33600W        W 6025  32.495  44.358  11.931
33601W        W 6026  36.806  33.708   0.417
33602W        W 6027   7.628  32.241  13.414
33603W        W 6028  18.176  41.544  10.737
33604W        W 6029  29.705  29.607  11.115
33605W        W 6030  40.394   0.309   3.610
33606W        W 6031  43.566  11.741  14.903
33607W        W 6032  31.187   5.727  14.419
33608W        W 6033   4.439  11.356   1.433
33609W        W 6034  43.778  19.849   4.096
33610W        W 6035   1.716  37.411  13.858
33611W        W 6036  22.254  19.215   1.675
33612W        W 6037  17.099  32.064   5.065
33613W        W 6038  25.200  19.530  13.844
33614W        W 6039  43.457  40.570  14.567
33615W        W 6040  40.449   2.885   4.281
33616W        W 6041  43.448   8.702   3.272
33617W        W 6042  26.396   0.219  13.036
33618W        W 6043   9.239  31.040   1.455
33619W        W 6044  44.355   2.335  11.538
33620W        W 6045   0.761  31.037   1.494
33621W        W 6046  28.863   1.952  14.999
33622W        W 6047  25.499  40.508  13.260
33623W        W 6048  29.956   6.830   2.624
33624W        W 6049  38.192  33.585   0.804
33625W        W 6050  31.417  20.512   4.597
33626W        W 6051  43.308  39.991   4.779
33627W        W 6052  28.978  42.766  13.839
33628W        W 6053  20.646  27.479   4.908
33629W        W 6054  25.089  30.607  13.756
33630W        W 6055   3.295  27.533   3.326
33631W        W 6056  32.997  22.591  12.424
33632W        W 6057  26.798  13.496   1.642
33633W        W 6058  22.744  24.627   3.854
33634W        W 6059  34.596  22.923   0.800
33635W        W 6060  13.635  22.542   4.159
33636W        W 6061  15.052  25.963   4.663
33637W        W 6062   1.814  21.125  13.090
33638W        W 6063  34.913  26.566  12.418
33639W        W 6064  11.428  26.969  11.629
33640W        W 6065  43.529  39.257   4.043
33641W        W 6066   8.980   2.296  13.605
33642W        W 6067  42.812  13.412  11.141
33643W        W 6068   7.578  19.725   4.677
33644W        W 6069  28.622  21.922  12.588
33645W        W 6070  44.397  11.731   3.335
33646W        W 6071  17.166  32.556  13.782
33647W        W 6072  23.580  14.305  14.799
33648W        W 6073   1.081  18.219  11.163
33649W        W 6074  28.003  14.418  13.876
33650W        W 6075  18.753  39.751   3.790
33651W        W 6076  43.565  25.195   4.090
33652W        W 6077  15.530  33.975   4.629
33653W        W 6078  42.574  30.059   1.071
33654W        W 6079  30.992  22.091  14.915
33655W        W 6080  22.097  42.236   2.677
33656W        W 6081  38.080  32.715  12.964
33657W        W 6082   5.495   3.088   0.343
33658W        W 6083  25.834  40.927  11.694
33659W        W 6084   8.753  32.117   0.222
33660W        W 6085   5.061   1.461  13.909
33661W        W 6086  18.815  19.694   0.409
33662W        W 6087  29.449  23.796   2.214
33663W        W 6088  15.185  14.344  11.598
33664W        W 6089   3.833   6.449   3.911
33665W        W 6090  10.916  29.989   2.872
33666W        W 6091  20.989  25.599   2.359
33667W        W 6092  40.803  35.717  13.478
33668W        W 6093   1.534  25.991  12.617
33669W        W 6094  24.003  44.269   1.397
33670W        W 6095  35.896   8.436  12.826
33671W        W 6096  30.015  26.156  12.037
33672W        W 6097  31.296  19.630   4.083
33673W        W 6098   9.869  16.064  12.148
33674W        W 6099   0.446  14.691  11.853
33675W        W 6100  30.155  33.037  14.827
33676W        W 6101  19.763  13.543  13.091
33677W        W 6102   7.691  28.504  10.675
33678W        W 6103  39.522  42.926  14.712
33679W        W 6104   8.753  36.574   3.616
33680W        W 6105  31.284  38.620   3.381
33681W        W 6106  27.191   4.857   1.395
33682W        W 6107  33.578  42.726   3.285
33683W        W 6108  25.212   1.684  10.631
33684W        W 6109   4.504  33.176  11.205
33685W        W 6110   0.579  24.966  12.445
33686W        W 6111  19.575   4.733   3.177
33687W        W 6112  36.299  43.830   2.800
33688W        W 6113   1.799  42.236   1.380
33689W        W 6114  30.497  15.162  14.304
33690W        W 6115  30.938  41.042  12.536
33691W        W 6116  19.566  10.830   4.120
33692W        W 6117   9.226  39.856   1.906
33693W        W 6118  17.622   4.603   4.733
33694W        W 6119  26.693  31.803  11.262
33695W        W 6120  40.164  41.963   1.793
33696W        W 6121  39.746  26.238  10.633
33697W        W 6122   6.869  27.896   1.391
33698W        W 6123  20.898  26.630   1.257
33699W        W 6124  40.059   7.644   2.781
33700W        W 6125  15.832  25.078   0.271
33701W        W 6126  24.096  17.843   0.684
33702W        W 6127   0.915  31.709  14.989
33703W        W 6128   3.236  24.446   0.340
33704W        W 6129   6.787  24.436   0.932
33705W        W 6130   4.961  36.518   1.713
33706W        W 6131  23.993  20.660   1.904
33707W        W 6132  42.708   9.178   4.873
33708W        W 6133  21.488  20.667  10.591
33709W        W 6134  25.447   0.478   4.726
33710W        W 6135  30.091  43.446   1.347
33711W        W 6136  39.803  32.228   1.963
33712W        W 6137  12.311  29.114   2.223
33713W        W 6138   7.431   1.347  12.586
33714W        W 6139  31.933  42.708   3.210
33715W        W 6140   1.218   3.314  12.931
33716W        W 6141   9.629  28.904  14.387
33717W        W 6142  15.299  20.025   4.009
33718W        W 6143  23.655  43.457  13.505
33719W        W 6144   8.305  26.556   2.863
33720W        W 6145  12.961  33.510  14.386
33721W        W 6146  34.354  24.770  12.969
33722W        W 6147  11.427  18.261   1.136
33723W        W 6148   0.969  18.774   0.855
33724W        W 6149  14.274   8.902  14.769
33725W        W 6150  36.033   9.674   5.266
33726W        W 6151  31.186  28.109   3.141
33727W        W 6152   3.405   6.461   2.198
33728W        W 6153   0.392  25.360  13.400
33729W        W 6154  11.958   7.230   1.347
33730W        W 6155   6.099  20.222  13.917
33731W        W 6156  37.911  40.094   0.828
33732W        W 6157  16.681  30.951  14.789
33733W        W 6158  16.099  23.684  11.456
33734W        W 6159  27.480  13.579   4.726
33735W        W 6160  13.591  24.606  11.355
33736W        W 6161  21.487   9.619   3.207
33737W        W 6162  24.794   8.179  14.837
33738W        W 6163  39.235  23.542   4.624
33739W        W 6164  37.851  24.667   0.066
33740W        W 6165   5.229  35.034   0.947
33741W        W 6166  13.127   1.806   1.695
33742W        W 6167  22.167   7.528  11.596
33743W        W 6168  40.038  25.373  14.972
33744W        W 6169  38.014   9.762  13.326
33745W        W 6170   1.824  13.073  14.463
33746W        W 6171   6.897  12.432   1.789
33747W        W 6172  27.450  23.619   3.486
33748W        W 6173   5.233  41.275   1.693
33749W        W 6174  25.356  20.680  13.642
33750W        W 6175  14.206  11.245  10.713
33751W        W 6176  21.859   7.181   3.657
33752W        W 6177  16.222  35.513   0.774
33753W        W 6178   2.935  10.261   4.392
33754W        W 6179  25.202  39.377  11.410
33755W        W 6180   9.686   5.468   2.325
33756W        W 6181  35.372  44.384  13.828
33757W        W 6182  39.882  29.980   4.235
33758W        W 6183  43.999   2.927   0.515
33759W        W 6184  36.502  38.887  14.019
33760W        W 6185  40.036  31.402   2.327
33761W        W 6186  28.140  17.510   0.798
33762W        W 6187  24.414  15.673  12.493
33763W        W 6188   4.633  41.488  14.306
33764W        W 6189  25.337  44.103   3.731
33765W        W 6190   3.907  30.800  10.808
33766W        W 6191  15.060  39.631  11.079
33767W        W 6192  39.101  44.836  12.624
33768W        W 6193   5.873  27.426   3.618
33769W        W 6194  36.388  30.888   0.363
33770W        W 6195   9.414   9.775  14.074
33771W        W 6196  39.387  17.294  13.299
33772W        W 6197  13.316  34.880   0.548
33773W        W 6198   5.289  19.436  11.173
33774W        W 6199  27.341  15.308   1.929
33775W        W 6200  34.407  26.911  11.118
33776W        W 6201  24.576  11.148  13.917
33777W        W 6202  12.840  23.604  11.105
33778W        W 6203  21.733  32.535  11.460
33779W        W 6204  20.899   3.605  11.330
33780W        W 6205   2.354  18.606   4.526
33781W        W 6206  10.204  30.133  12.877
33782W        W 6207  19.392  27.802  14.352
33783W        W 6208  44.737   9.914  11.955
33784W        W 6209  42.507  21.596   2.631
33785W        W 6210  13.645  25.999  14.781
33786W        W 6211  30.082  38.764   2.296
33787W        W 6212  29.753  12.229   0.209
33788W        W 6213  19.946   5.147  10.599
33789W        W 6214  24.687   1.836   1.909
33790W        W 6215  11.296   4.746   3.711
33791W        W 6216  39.492  24.976  13.549
33792W        W 6217  20.155  13.801   0.892
33793W        W 6218   2.492   6.944   0.424
33794W        W 6219   9.723  40.295   1.493
33795W        W 6220  19.768  13.259   3.436
33796W        W 6221   7.470   8.953   3.357
33797W        W 6222  15.578  17.668   1.351
33798W        W 6223  24.556  13.366   4.141
33799W        W 6224  29.371  32.042   3.279
33800W        W 6225  43.272  18.651  13.489
33801W        W 6226  17.534  16.528  14.826
33802W        W 6227   5.082  14.210   1.383
33803W        W 6228  32.000  10.230   1.788
33804W        W 6229  32.391   2.957  12.446
33805W        W 6230   6.450   3.196  13.337
33806W        W 6231  36.675  30.286  11.150
33807W        W 6232   5.413  36.657   4.468
33808W        W 6233  42.245  43.203   1.352
33809W        W 6234  16.596  41.528   2.116
33810W        W 6235  19.237  24.562  12.400
33811W        W 6236   3.492   3.876  14.548
33812W        W 6237  14.079   2.906  14.918
33813W        W 6238  26.679  12.860   2.769
33814W        W 6239  43.918  23.835   0.010
33815W        W 6240  33.613  25.710   1.824
33816W        W 6241   6.902  26.480   2.629
33817W        W 6242  19.760  40.829  10.684
33818W        W 6243  44.746  30.934  11.352
33819W        W 6244  11.167   9.243  10.703
33820W        W 6245   3.220  15.699   4.019
33821W        W 6246  39.349  12.582   2.247
33822W        W 6247   5.217  43.099  12.826
33823W        W 6248   9.382  27.935   4.221
33824W        W 6249   1.049  34.247   4.531
33825W        W 6250   0.800  11.173  12.677
33826W        W 6251  42.979  38.967  14.175
33827W        W 6252   0.190  20.718   1.932
33828W        W 6253   3.151  10.604  12.414
33829W        W 6254  15.656   2.621  13.339
33830W        W 6255  16.615  39.847  14.725
33831W        W 6256  38.885  18.216   1.227
33832W        W 6257  41.328   6.743   1.313
33833W        W 6258   7.339  31.375   0.469
33834W        W 6259  39.697   8.415   3.683
33835W        W 6260  15.854  32.712   0.719
33836W        W 6261  14.242   2.327   3.901
33837W        W 6262  21.476   0.201  14.853
33838W        W 6263  44.876  12.178   3.871
33839W        W 6264  38.021  44.254  13.929
33840W        W 6265  33.564  34.372  11.894
33841W        W 6266  33.631  15.563  12.382
33842W        W 6267  28.852  29.709  13.492
33843W        W 6268   0.911   4.343  11.140
33844W        W 6269   7.736  29.910   2.431
33845W        W 6270  10.699  34.553   2.210
33846W        W 6271  43.399  16.266  11.480
33847W        W 6272  13.794  25.654   2.204
33848W        W 6273  17.564  34.401   3.127
33849W        W 6274  11.230  36.871  11.135
33850W        W 6275  16.594  16.105   2.156
33851W        W 6276  42.442  25.645  10.833
33852W        W 6277  34.428  26.218  10.620
33853W        W 6278  15.784  30.548   2.400
33854W        W 6279  13.587  42.926   3.139
33855W        W 6280  16.149  44.103  10.363
33856W        W 6281  39.870  34.453  13.843
33857W        W 6282   6.653  20.750   1.932
33858W        W 6283  33.885  32.381   4.728
33859W        W 6284  12.619  43.699   3.688
33860W        W 6285  43.507  34.639   2.338
33861W        W 6286  41.841  25.098   0.072
33862W        W 6287  34.426  33.686  11.114
33863W        W 6288  15.598   3.371   3.755
33864W        W 6289  41.340  21.103  10.615
33865W        W 6290  20.241  11.681  11.633
33866W        W 6291   1.040  23.507  10.932
33867W        W 6292  27.597  13.717   1.404
33868W        W 6293  17.375  12.997   4.613
33869W        W 6294  38.133  40.253  12.603
33870W        W 6295  21.173   0.809   2.762
33871W        W 6296  14.354  32.395  13.381
33872W        W 6297  28.855  41.986  12.630
33873W        W 6298   6.455  10.148   3.777
33874W        W 6299  20.568  22.769  11.488
33875W        W 6300   1.474  43.793  14.438
33876W        W 6301  25.563  40.451  14.951
33877W        W 6302  38.083  20.073   3.594
33878W        W 6303  34.634  25.250  12.088
33879W        W 6304  11.623  28.251  14.797
33880W        W 6305  30.863  15.591   2.159
33881W        W 6306  28.422   8.948   2.341
33882W        W 6307  42.764  26.767   1.819
33883W        W 6308  27.107  39.798  13.742
33884W        W 6309  27.739  23.027  10.746
33885W        W 6310   5.973  41.710   3.934
33886W        W 6311  44.322   4.711   1.683
33887W        W 6312  43.856  41.329   1.266
33888W        W 6313   1.985  37.035   3.844
33889W        W 6314  19.060  41.600   3.679
33890W        W 6315   1.875  17.892  14.085
33891W        W 6316  27.495  37.380   4.798
33892W        W 6317  21.090  22.011   3.304
33893W        W 6318   9.226   9.318   4.208
33894W        W 6319  32.082  24.609  11.184
33895W        W 6320  40.151  28.034  11.082
33896W        W 6321   6.216  26.965  13.864
33897W        W 6322   7.606  15.332   2.373
33898W        W 6323  17.701  14.287   3.670
33899W        W 6324  30.009  26.707  14.291
33900W        W 6325  24.628  20.363  11.948
33901W        W 6326  11.687  13.851  14.631
33902W        W 6327  36.135  17.328   2.643
33903W        W 6328  12.376  32.956  13.278
33904W        W 6329  18.443   4.650  11.510
33905W        W 6330   4.995  21.587  12.004
33906W        W 6331  37.064  41.355   2.434
33907W        W 6332  21.104  35.839  11.931
33908W        W 6333   1.859   8.954   1.943
33909W        W 6334  41.949  15.338  12.414
33910W        W 6335  36.027  18.611  12.390
33911W        W 6336  36.050  24.950  12.532
33912W        W 6337  28.222  35.782  12.423
33913W        W 6338  42.181  38.425  11.429
33914W        W 6339  36.190  31.532  12.022
33915W        W 6340  22.067  18.253   2.762
33916W        W 6341  38.346  13.028  13.444
33917W        W 6342  35.324  16.724  13.921
33918W        W 6343  32.114  25.574  12.577
33919W        W 6344   7.270  34.448   3.767
33920W        W 6345  35.262  20.020   2.200
33921W        W 6346  11.699  23.826  11.581
33922W        W 6347   8.344  29.321  10.679
33923W        W 6348  32.426  30.055   0.637
33924W        W 6349  38.804  33.854  10.838
33925W        W 6350  16.989   6.150   1.340
33926W        W 6351  22.417  27.635   3.685
33927W        W 6352  29.131   4.713   2.235
33928W        W 6353  27.043  30.161   5.203
33929W        W 6354   6.904  26.973  11.519
33930W        W 6355  31.713  28.188  12.394
33931W        W 6356  15.101  18.630  13.265
33932W        W 6357   4.155  40.861   1.386
33933W        W 6358  43.413   8.495   0.212
33934W        W 6359   2.642  18.144  11.561
33935W        W 6360  30.210  11.269  12.767
33936W        W 6361  17.082  40.639  11.428
33937W        W 6362  35.560   1.917  13.412
33938W        W 6363  34.977   9.470   9.612
33939W        W 6364  28.117   7.447   4.396
33940W        W 6365  33.390  27.152   4.597
33941W        W 6366  23.064  22.160   0.009
33942W        W 6367  15.229   4.017  10.123
33943W        W 6368  19.311  12.043   0.538
33944W        W 6369  36.750   3.697   3.170
33945W        W 6370   0.200  38.479  11.213
33946W        W 6371   3.679  33.594   0.203
33947W        W 6372  28.153  41.602  12.590
33948W        W 6373  13.775  33.809  13.841
33949W        W 6374  40.828  11.603  13.447
33950W        W 6375  29.156  22.149   1.869
33951W        W 6376  22.122  25.622  11.652
33952W        W 6377  37.990  17.524  12.518
33953W        W 6378   1.599  33.737   0.740
33954W        W 6379  15.942  29.475  11.884
33955W        W 6380  18.474  16.039   2.657
33956W        W 6381  22.234  43.960   3.654
33957W        W 6382  27.913  29.928  13.120
33958W        W 6383  22.776  28.131  14.231
33959W        W 6384   6.332  27.409  12.032
33960W        W 6385  19.325   4.545  12.127
33961W        W 6386  38.091  36.339   1.978
33962W        W 6387  24.960   4.357  11.492
33963W        W 6388  30.468  22.662  11.147
33964W        W 6389  28.131  14.529   0.716
33965W        W 6390   0.033  43.799   0.416
33966W        W 6391  43.254  34.010  10.876
33967W        W 6392   6.986  43.772  12.910
33968W        W 6393   5.382  39.785  12.029
33969W        W 6394  23.613  37.909  10.565
33970W        W 6395  44.726   8.505  12.428
33971W        W 6396   9.934  20.545  14.193
33972W        W 6397   9.379  44.270  12.406
33973W        W 6398   4.873  28.025   3.276
33974W        W 6399   1.952  30.853   2.116
33975W        W 6400  31.695  18.243   4.779
33976W        W 6401  42.018  43.857  14.367
33977W        W 6402   2.837   0.977  10.601
33978W        W 6403   0.831  30.398   4.243
33979W        W 6404   4.255   7.324   3.564
33980W        W 6405  37.323  21.063   2.418
33981W        W 6406   7.286   7.510  14.919
33982W        W 6407  30.038  39.026   0.633
33983W        W 6408  16.232  25.664   3.253
33984W        W 6409  27.866  16.708  10.645
33985W        W 6410  29.726  22.352  14.211
33986W        W 6411  15.633  25.643   0.912
33987W        W 6412   6.920  39.029  13.962
33988W        W 6413  33.936   4.693  12.400
33989W        W 6414   2.880   3.346   2.877
33990W        W 6415   8.833  12.912  12.522
33991W        W 6416  24.587  17.781   2.842
33992W        W 6417   2.914  24.118  12.901
33993W        W 6418  34.566  27.901   1.241
33994W        W 6419  43.629   5.597  14.491
33995W        W 6420   4.753  43.907  13.236
33996W        W 6421  18.834  11.206   2.723
33997W        W 6422   6.353  19.978  11.880
33998W        W 6423  15.029  38.384   1.812
33999W        W 6424  36.941  14.300  12.031
34000W        W 6425  41.026  10.364   4.825
34001W        W 6426   5.066  14.109  14.544
34002W        W 6427  13.051  17.599   0.934
34003W        W 6428  35.109  12.267  11.494
34004W        W 6429  14.844  30.549   1.862
34005W        W 6430  25.710  38.104   1.909
34006W        W 6431  26.519  27.725  14.355
34007W        W 6432  29.290  25.989  14.791
34008W        W 6433   3.277  39.052  11.060
34009W        W 6434  26.658  14.168  12.928
34010W        W 6435  24.682  42.500  11.479
34011W        W 6436   2.939  15.335  12.548
34012W        W 6437  42.875  21.165   5.228
34013W        W 6438   5.542  11.338   1.830
34014W        W 6439  40.316  39.556   4.270
34015W        W 6440  31.031  25.404   4.562
34016W        W 6441  27.527   2.194   0.942
34017W        W 6442  38.554  36.025  13.021
34018W        W 6443   2.850   7.348  11.818
34019W        W 6444  16.210  44.958  13.899
34020W        W 6445  14.383  40.424   3.743
34021W        W 6446   9.592   3.380   0.107
34022W        W 6447  28.747  22.227  10.278
34023W        W 6448  30.475  37.373  11.981
34024W        W 6449  28.785  26.358  14.855
34025W        W 6450   6.372  28.620  10.166
34026W        W 6451  12.532  16.593  11.307
34027W        W 6452  35.941   0.957   2.304
34028W        W 6453  27.998  31.064   2.590
34029W        W 6454   8.866  32.840   0.761
34030W        W 6455  15.849  26.081  11.286
34031W        W 6456  32.970  43.002   3.279
34032W        W 6457  40.087  26.068  12.012
34033W        W 6458  11.345  21.817  14.083
34034W        W 6459   9.417  38.099  13.966
34035W        W 6460  44.477  18.766   3.649
34036W        W 6461  42.734  20.459   0.438
34037W        W 6462  33.173  33.344   1.871
34038W        W 6463  44.068  33.939   4.502
34039W        W 6464  17.214  30.623  14.923
34040W        W 6465  38.647  32.867  11.896
34041W        W 6466   4.924  42.317   3.193
34042W        W 6467  11.342  34.909  13.276
34043W        W 6468  14.700  22.559   4.680
34044W        W 6469  32.739  21.288  12.974
34045W        W 6470  34.448  28.205   1.616
34046W        W 6471  19.129   7.235   0.513
34047W        W 6472  30.567  28.597   4.388
34048W        W 6473   3.897  42.374   4.167
34049W        W 6474  28.209  23.564  13.546
34050W        W 6475   0.796  31.272  14.542
34051W        W 6476  18.646  43.083  11.219
34052W        W 6477  32.567   3.824  14.809
34053W        W 6478  44.964   8.784   1.314
34054W        W 6479  33.628  19.848  14.515
34055W        W 6480  24.750  35.306  11.076
34056W        W 6481  20.485  13.383   0.323
34057W        W 6482  22.463  30.642   1.850
34058W        W 6483  13.774   9.109   1.406
34059W        W 6484  27.916  27.555   3.195
34060W        W 6485  32.856  39.467  13.946
34061W        W 6486   7.865   4.722   4.926
34062W        W 6487  38.146  12.672  11.210
34063W        W 6488  10.105  15.584  14.281
34064W        W 6489  11.409  13.414  12.522
34065W        W 6490   3.121  15.242  14.395
34066W        W 6491  16.392  33.800   0.377
34067W        W 6492  13.738  17.679   3.235
34068W        W 6493  17.362  13.631   1.808
34069W        W 6494  39.677  18.083  13.655
34070W        W 6495  28.218  21.552  11.184
34071W        W 6496  42.096  34.301   3.864
34072W        W 6497  21.114  31.133  13.042
34073W        W 6498  28.884   3.013   0.003
34074W        W 6499   6.337  13.404  11.191
34075W        W 6500  17.188  10.900  12.328
34076W        W 6501  34.691  22.665  14.957
34077W        W 6502  17.756  37.377  12.462
34078W        W 6503  15.644   8.220  12.233
34079W        W 6504  23.834   3.140   0.109
34080W        W 6505  12.301  13.513   1.439
34081W        W 6506  10.638  16.006   4.209
34082W        W 6507  30.633  21.054   0.879
34083W        W 6508  29.604  38.913   9.796
34084W        W 6509  21.553  24.419   0.115
34085W        W 6510   3.720  13.221   1.953
34086W        W 6511  14.333   2.951   1.262
34087W        W 6512  33.773  12.983  12.012
34088W        W 6513  43.657  34.872  12.017
34089W        W 6514  26.745  21.573  12.344
34090W        W 6515   2.003  26.715   4.200
34091W        W 6516  16.085  42.598  10.501
34092W        W 6517   9.713  19.676  11.938
34093W        W 6518  15.776  13.232   3.396
34094W        W 6519  13.335  22.602   4.715
34095W        W 6520  20.265  35.043  14.448
34096W        W 6521  34.583  10.337  13.297
34097W        W 6522  12.776  36.948   3.080
34098W        W 6523  41.982   8.161   2.453
34099W        W 6524  19.780  20.774   3.614
34100W        W 6525  26.688  29.996   0.797
34101W        W 6526  11.548   9.314   4.106
34102W        W 6527  20.507  11.056   0.718
34103W        W 6528  34.410  41.999   2.551
34104W        W 6529  33.126  34.971  11.988
34105W        W 6530  42.380  44.343   3.784
34106W        W 6531  41.331  10.954  11.664
34107W        W 6532  21.083   9.667   5.500
34108W        W 6533   6.701  10.166   1.518
34109W        W 6534  29.188  43.232   3.259
34110W        W 6535  19.242   6.402   4.626
34111W        W 6536   7.356  15.220  12.015
34112W        W 6537  20.627  34.416   4.098
34113W        W 6538  41.090  38.543  14.875
34114W        W 6539  26.357  43.212   4.190
34115W        W 6540  39.044  40.764   1.285
34116W        W 6541  26.156  24.586   0.431
34117W        W 6542  28.701  23.947   3.485
34118W        W 6543  40.846   7.591   2.297
34119W        W 6544   5.043  42.278   1.665
34120W        W 6545  20.195  26.270  13.014
34121W        W 6546   5.789   5.103  12.102
34122W        W 6547   9.131  15.193   0.730
34123W        W 6548  15.959  32.907  11.120
34124W        W 6549  16.494  11.856   2.218
34125W        W 6550  16.949   2.175  14.933
34126W        W 6551  41.954  41.910   1.573
34127W        W 6552   4.984  23.082  14.263
34128W        W 6553  18.336   7.966  12.201
34129W        W 6554  34.716   2.872   4.525
34130W        W 6555  42.038   0.873  13.058
34131W        W 6556  19.323  21.569  14.345
34132W        W 6557  40.041   3.273  12.550
34133W        W 6558  37.014  10.000  12.990
34134W        W 6559  30.392  24.318  13.517
34135W        W 6560  21.656  17.108   1.297
34136W        W 6561  14.576  25.267   1.831
34137W        W 6562   4.952  44.288   3.772
34138W        W 6563  43.081  20.147   2.080
34139W        W 6564  12.733  25.561  10.311
34140W        W 6565   1.301  31.532  10.920
34141W        W 6566  25.515  17.626  11.723
34142W        W 6567   7.724  20.535   3.181
34143W        W 6568  33.882  38.500   3.651
34144W        W 6569  23.093  20.609   2.351
34145W        W 6570  11.822   1.826  10.090
34146W        W 6571   0.838  10.223   2.302
34147W        W 6572  29.023  40.193  12.302
34148W        W 6573  28.913  29.092  12.835
34149W        W 6574  40.764  16.574  14.657
34150W        W 6575  24.475  28.077   2.866
34151W        W 6576   6.996  27.478   2.610
34152W        W 6577  26.623  17.422  13.517
34153W        W 6578  31.376  20.536   1.361
34154W        W 6579  41.493  24.924  11.556
34155W        W 6580  11.885  41.602  12.455
34156W        W 6581  25.647  12.184   3.970
34157W        W 6582  27.834   9.364   2.788
34158W        W 6583  44.514  38.136  11.573
34159W        W 6584  17.812  34.744   3.424
34160W        W 6585  13.749   6.339   1.961
34161W        W 6586  34.547  28.401  12.416
34162W        W 6587  43.864   6.964  14.112
34163W        W 6588  26.435  44.791  12.316
34164W        W 6589   6.461  36.992  13.465
34165W        W 6590   3.177  24.396  14.450
34166W        W 6591  32.434  11.259  13.476
34167W        W 6592   1.276  40.463   3.762
34168W        W 6593   2.676  16.627   3.829
34169W        W 6594  27.416  16.227  14.845
34170W        W 6595   8.366  27.409  11.857
34171W        W 6596   6.189  18.269   2.869
34172W        W 6597  23.314  43.208  14.453
34173W        W 6598   2.930  10.106   0.773
34174W        W 6599  42.831  10.325   3.442
34175W        W 6600  22.656  23.702   0.904
34176W        W 6601  17.098   4.996  11.368
34177W        W 6602   5.832   0.841   0.282
34178W        W 6603  12.161  13.211   0.767
34179W        W 6604   7.543  41.624   4.292
34180W        W 6605  20.935  20.644  13.064
34181W        W 6606  37.375   7.307   1.381
34182W        W 6607  27.146  28.133   3.177
34183W        W 6608   3.938  28.161   3.230
34184W        W 6609   5.027  10.562  12.534
34185W        W 6610   5.334  31.086   3.682
34186W        W 6611  43.503  10.460  11.186
34187W        W 6612   6.820  29.007   0.584
34188W        W 6613  15.471  33.082  11.219
34189W        W 6614  26.425  23.670   4.231
34190W        W 6615  21.566  25.884  14.949
34191W        W 6616  18.571  11.326   3.183
34192W        W 6617  24.759  36.880  11.114
34193W        W 6618  14.889  44.715   2.382
34194W        W 6619  41.401  12.222   0.424
34195W        W 6620  11.104  19.638   5.016
34196W        W 6621   2.872   3.753   3.179
34197W        W 6622  36.947  34.845  13.419
34198W        W 6623  11.616  33.007   0.769
34199W        W 6624  31.149  37.013   4.543
34200W        W 6625  41.762  40.396   0.383
34201W        W 6626   5.521  28.560  10.517
34202W        W 6627   9.452  36.452   2.698
34203W        W 6628  31.640  34.473  13.458
34204W        W 6629  25.733  30.603  11.499
34205W        W 6630  14.223  22.694  14.952
34206W        W 6631  36.327   2.744  12.794
34207W        W 6632  25.662   8.765   1.448
34208W        W 6633  38.457  22.208  13.290
34209W        W 6634  37.525  12.510  14.352
34210W        W 6635  39.499  13.154   3.317
34211W        W 6636   6.255  36.176  11.578
34212W        W 6637   1.124   7.499   4.211
34213W        W 6638   1.617  41.775   3.626
34214W        W 6639   0.374  39.540  14.922
34215W        W 6640  41.320   2.832   2.229
34216W        W 6641  42.902  31.545  13.802
34217W        W 6642  33.981  14.320  10.897
34218W        W 6643   6.359  19.077   4.475
34219W        W 6644  24.210  22.761   3.932
34220W        W 6645  38.925  19.678  12.561
34221W        W 6646  39.831  25.529  12.594
34222W        W 6647  44.526  25.943   9.929
34223W        W 6648   7.317  36.466   4.700
34224W        W 6649  11.957  16.101   2.617
34225W        W 6650  32.458  21.488  13.353
34226W        W 6651  35.023  27.229  14.903
34227W        W 6652  33.116  19.575  12.342
34228W        W 6653  29.425  31.566   0.230
34229W        W 6654  37.041  44.888   2.389
34230W        W 6655  14.762  33.840  12.400
34231W        W 6656  43.926  38.382  12.165
34232W        W 6657  43.282  21.227   0.860
34233W        W 6658  19.488  36.071   2.566
34234W        W 6659  16.339   8.910  13.560
34235W        W 6660  43.734  27.727  11.457
34236W        W 6661  27.238  44.769  11.671
34237W        W 6662  35.053  25.505   0.287
34238W        W 6663   7.915  16.634   1.154
34239W        W 6664   3.741  31.579  14.026
34240W        W 6665  29.180  36.330  14.889
34241W        W 6666  17.707   4.305   0.726
34242W        W 6667  38.305  35.269  11.848
34243W        W 6668   6.464   6.357   3.521
34244W        W 6669  29.777  30.841   0.789
34245W        W 6670  31.678   9.623   2.079
34246W        W 6671  23.930  21.687  10.512
34247W        W 6672   8.360   2.732  12.204
34248W        W 6673   5.345  42.720  14.711
34249W        W 6674  22.987  18.755   0.448
34250W        W 6675  42.352  20.627  13.279
34251W        W 6676  24.084  19.348   2.744
34252W        W 6677  13.430  34.633  13.963
34253W        W 6678   1.802  22.737   0.640
34254W        W 6679   7.644  41.067  13.395
34255W        W 6680  35.378  12.811  12.543
34256W        W 6681  38.479   7.678  14.339
34257W        W 6682  11.541  39.136   2.251
34258W        W 6683  24.966  44.274  12.055
34259W        W 6684  17.181   5.924   2.333
34260W        W 6685  40.368  39.812   0.828
34261W        W 6686  29.432  11.622  14.428
34262W        W 6687  26.944  11.768  11.634
34263W        W 6688  17.092  39.791  14.526
34264W        W 6689  15.331  38.574  11.019
34265W        W 6690   7.246  37.864  12.644
34266W        W 6691  15.397  26.124   1.887
34267W        W 6692  17.212  23.764   1.992
34268W        W 6693  10.514  31.968   4.085
34269W        W 6694  42.662  28.593   4.922
34270W        W 6695   5.785  43.873  10.571
34271W        W 6696  14.688  42.341  13.038
34272W        W 6697  37.113  33.049  10.351
34273W        W 6698  19.067  11.155   1.261
34274W        W 6699  43.751  43.588  11.154
34275W        W 6700  44.206   7.756   3.170
34276W        W 6701  10.421  23.901  10.396
34277W        W 6702  40.952  36.133   2.166
34278W        W 6703  41.335   5.290  13.867
34279W        W 6704   4.670  36.767  14.830
34280W        W 6705  38.546  26.143   3.369
34281W        W 6706   4.687   2.002  12.177
34282W        W 6707  34.028  44.546   1.824
34283W        W 6708  18.035  36.334  13.087
34284W        W 6709  31.167  16.694   4.157
34285W        W 6710  15.366  20.615  12.608
34286W        W 6711   7.660   1.828  12.895
34287W        W 6712  21.781  33.393   1.079
34288W        W 6713  23.989  10.797   0.737
34289W        W 6714   5.388  27.645   3.620
34290W        W 6715  34.895  31.481   3.736
34291W        W 6716  28.544  38.544  12.095
34292W        W 6717  28.675   7.008  12.390
34293W        W 6718  22.660  30.969   1.207
34294W        W 6719  42.127   4.463   4.135
34295W        W 6720   9.570  33.469   4.435
34296W        W 6721  38.308   1.272  11.825
34297W        W 6722   5.473   6.771  13.356
34298W        W 6723  17.919  28.402   1.079
34299W        W 6724  34.357  13.760  11.426
34300W        W 6725   2.108  16.750   0.079
34301W        W 6726  16.451  14.759   4.880
34302W        W 6727  19.575  15.262   2.828
34303W        W 6728  42.300   7.418  12.320
34304W        W 6729  27.217  23.694  11.192
34305W        W 6730  19.705  10.793  12.141
34306W        W 6731  20.268   7.844   0.215
34307W        W 6732  32.579  27.318   2.234
34308W        W 6733  25.797  24.957  14.990
34309W        W 6734  42.506  39.345  13.461
34310W        W 6735  41.966  10.427   0.582
34311W        W 6736   7.832  27.298  14.536
34312W        W 6737  16.570  34.551   9.537
34313W        W 6738   2.342   4.871   4.652
34314W        W 6739  38.313  26.147   4.761
34315W        W 6740   8.609  30.323  13.802
34316W        W 6741  29.217   0.655   1.385
34317W        W 6742  23.981  41.120  10.260
34318W        W 6743  33.986  19.167   3.190
34319W        W 6744  42.390   7.303   4.495
34320W        W 6745   2.468   4.358   0.019
34321W        W 6746  43.922  32.560   4.565
34322W        W 6747  11.543  35.904  14.375
34323W        W 6748  19.773  27.207  11.885
34324W        W 6749   1.347  16.488  11.920
34325W        W 6750   5.268  17.020   2.123
34326W        W 6751  15.587   3.948  14.936
34327W        W 6752  33.621  25.542   0.205
34328W        W 6753   5.288  17.446  14.057
34329W        W 6754  21.724   1.926  13.071
34330W        W 6755  38.728   0.310  12.927
34331W        W 6756  31.039   7.150   0.742
34332W        W 6757  32.388  28.772  11.743
34333W        W 6758  11.267  43.373   3.223
34334W        W 6759  43.958   7.606   2.495
34335W        W 6760  42.396  22.755  11.032
34336W        W 6761  26.143   1.543   1.056
34337W        W 6762  13.332  16.087  12.119
34338W        W 6763  32.652  16.728   3.861
34339W        W 6764  11.080  36.375  11.808
34340W        W 6765   3.411  13.536   0.641
34341W        W 6766  31.633  24.025  12.844
34342W        W 6767  22.702  31.349   3.707
34343W        W 6768  18.047  21.346  13.076
34344W        W 6769   4.930  36.883   4.311
34345W        W 6770  41.615  30.700  13.794
34346W        W 6771  11.822  10.089  13.639
34347W        W 6772  40.004  33.994  11.365
34348W        W 6773  29.086  20.079  11.451
34349W        W 6774  40.913  33.926   3.094
34350W        W 6775   1.651  29.402   0.867
34351W        W 6776  38.202  43.686   3.346
34352W        W 6777   7.627  22.246   3.356
34353W        W 6778   6.929  21.793  12.603
34354W        W 6779   5.138   4.299   2.448
34355W        W 6780  32.549  31.697   3.292
34356W        W 6781  34.585  26.129   3.812
34357W        W 6782  37.749  17.749   0.804
34358W        W 6783  31.966  37.778  12.506
34359W        W 6784  29.157   5.177  10.470
34360W        W 6785  34.606  20.288  13.003
34361W        W 6786  38.347  38.443  14.885
34362W        W 6787  37.414  26.874   3.429
34363W        W 6788  30.412  32.458  12.162
34364W        W 6789  37.616  21.481  12.474
34365W        W 6790   8.629  34.153  11.529
34366W        W 6791  11.642  21.649   1.266
34367W        W 6792  24.384  15.101   0.315
34368W        W 6793  18.804  25.425  10.708
34369W        W 6794  26.543  38.754   1.820
34370W        W 6795   4.246   3.788   4.292
34371W        W 6796   4.869   9.883   2.281
34372W        W 6797  11.732  44.939  12.524
34373W        W 6798  29.656  31.846   1.228
34374W        W 6799  29.510  17.675   1.203
34375W        W 6800  22.205   7.799   4.611
34376W        W 6801  19.197   3.417  11.195
34377W        W 6802  42.728   2.233  10.848
34378W        W 6803  19.560  33.522  11.474
34379W        W 6804   4.262  18.402   0.872
34380W        W 6805  20.351   6.122   3.819
34381W        W 6806  42.196   1.923  14.812
34382W        W 6807  13.306  39.759   2.621
34383W        W 6808  22.565  11.001   1.650
34384W        W 6809  33.037  12.612   1.920
34385W        W 6810  10.793   6.919  14.550
34386W        W 6811   1.161  18.326   3.141
34387W        W 6812  11.513  24.161  14.940
34388W        W 6813   0.076  27.058  11.694
34389W        W 6814  26.029  32.061   3.361
34390W        W 6815   1.308   0.847  11.485
34391W        W 6816  25.951  40.521  12.015
34392W        W 6817  25.590  30.679   0.788
34393W        W 6818  41.869   7.304   1.727
34394W        W 6819  31.009  33.175  12.610
34395W        W 6820  19.718  25.494   1.853
34396W        W 6821   5.443   6.534   2.687
34397W        W 6822  14.769  33.289   1.839
34398W        W 6823  20.487   1.257   2.773
34399W        W 6824  19.251  25.716   2.798
34400W        W 6825   8.569  18.617   1.756
34401W        W 6826  26.424  21.141   3.327
34402W        W 6827  15.613   7.723  11.616
34403W        W 6828  35.983  15.860  14.699
34404W        W 6829  19.772   2.499  11.516
34405W        W 6830  34.284  16.800  13.941
34406W        W 6831  33.349  37.354   0.532
34407W        W 6832  22.576   1.260   3.260
34408W        W 6833   9.983  29.522  13.441
34409W        W 6834   7.744  29.388   2.424
34410W        W 6835  17.287  23.716  14.382
34411W        W 6836  24.065  20.770  10.631
34412W        W 6837  36.440  23.995   4.801
34413W        W 6838  10.828  23.024   1.936
34414W        W 6839  43.999   0.668   0.428
34415W        W 6840  20.564   3.210   2.449
34416W        W 6841  33.394   7.006  12.076
34417W        W 6842  17.754  44.108   0.246
34418W        W 6843  14.635  43.895  13.342
34419W        W 6844  15.948   5.343   2.306
34420W        W 6845  25.628  25.436  13.075
34421W        W 6846   6.972  15.137  14.983
34422W        W 6847  17.193   6.850  11.518
34423W        W 6848  31.042  41.296   2.756
34424W        W 6849  18.865  20.304  11.064
34425W        W 6850  15.769  14.577   4.652
34426W        W 6851  19.741  15.716   2.622
34427W        W 6852   8.051  36.938   1.780
34428W        W 6853  13.734  16.766   3.748
34429W        W 6854  12.774   3.685  13.063
34430W        W 6855  33.195  17.749  14.846
34431W        W 6856  29.577  40.465  13.952
34432W        W 6857  44.860  42.529   2.960
34433W        W 6858  34.052  44.673  13.920
34434W        W 6859  20.855   1.235  11.180
34435W        W 6860  39.289  19.251   2.785
34436W        W 6861  39.960  19.330   1.374
34437W        W 6862  43.761   6.904   2.228
34438W        W 6863   7.843  40.414  10.041
34439W        W 6864   7.626  38.304  13.822
34440W        W 6865  30.215   4.429   1.364
34441W        W 6866  13.043  34.373  10.991
34442W        W 6867  19.771  32.307   3.259
34443W        W 6868   2.959  43.978  14.064
34444W        W 6869  16.796  29.843  13.995
34445W        W 6870   7.368  29.673   0.778
34446W        W 6871  19.866  43.068   3.253
34447W        W 6872  26.104  28.373   2.333
34448W        W 6873  13.397   0.875   4.157
34449W        W 6874  35.144   9.829  13.749
34450W        W 6875   3.465  32.102   0.261
34451W        W 6876   1.529  11.365  11.135
34452W        W 6877  17.176  40.412  11.882
34453W        W 6878  24.173  37.489   4.358
34454W        W 6879  16.050   0.787  10.520
34455W        W 6880  28.672  11.665   0.954
34456W        W 6881  10.434  18.353  11.030
34457W        W 6882  20.502  22.559   0.595
34458W        W 6883  32.117  23.954  12.477
34459W        W 6884   1.714  17.265  13.428
34460W        W 6885   5.812   1.674   2.875
34461W        W 6886  27.034  39.564   1.695
34462W        W 6887  25.466  30.676  12.395
34463W        W 6888  13.636  25.382   2.689
34464W        W 6889  30.896   6.395  13.593
34465W        W 6890  27.684   3.374   4.220
34466W        W 6891  18.535  15.817  11.656
34467W        W 6892  28.548   0.003  12.492
34468W        W 6893  35.170  31.353   0.356
34469W        W 6894  36.228  24.437   2.544
34470W        W 6895  44.866   7.695   4.344
34471W        W 6896  33.269  37.890   3.379
34472W        W 6897  38.867  43.281  12.813
34473W        W 6898  43.280  36.477  14.429
34474W        W 6899   1.914  35.056   2.867
34475W        W 6900  34.898  16.420  11.211
34476W        W 6901  23.265  31.665   4.586
34477W        W 6902  33.390  40.541  11.382
34478W        W 6903  23.121   4.884   4.885
34479W        W 6904   7.155  33.946   3.560
34480W        W 6905  11.209  10.676  11.081
34481W        W 6906  39.323  34.375  14.559
34482W        W 6907  44.377   5.291   2.234
34483W        W 6908  24.660  23.727  14.066
34484W        W 6909  23.896   0.804   2.635
34485W        W 6910   3.806  32.041  13.805
34486W        W 6911  24.139  29.352   1.167
34487W        W 6912  44.586  41.165  11.640
34488W        W 6913  27.287   3.413  14.227
34489W        W 6914  29.120  41.806  12.184
34490W        W 6915  19.591   7.919   0.533
34491W        W 6916  16.160  40.140   3.768
34492W        W 6917  23.079   8.185  10.598
34493W        W 6918  17.216   9.710  13.779
34494W        W 6919  14.815  42.953   4.013
34495W        W 6920   0.439   6.506   1.299
34496W        W 6921  41.889  30.902   2.623
34497W        W 6922  29.432  25.418   0.945
34498W        W 6923  29.671  35.432   4.728
34499W        W 6924  28.439  15.611  11.562
34500W        W 6925  20.535   3.921   4.322
34501W        W 6926   5.657  32.487   0.783
34502W        W 6927  44.004  44.751   4.292
34503W        W 6928  28.464  24.439  13.438
34504W        W 6929  32.298   2.930   4.050
34505W        W 6930  27.232   6.840  14.566
34506W        W 6931   9.335   5.448   0.668
34507W        W 6932  19.224   6.256  13.055
34508W        W 6933  13.414  29.512  12.609
34509W        W 6934  29.049  17.584   1.416
34510W        W 6935   7.705   7.732   4.574
34511W        W 6936  12.146  23.745  14.413
34512W        W 6937  34.311   7.830   1.421
34513W        W 6938  32.005  39.020  10.180
34514W        W 6939  38.541   2.628  13.533
34515W        W 6940   7.425  19.704  14.743
34516W        W 6941   4.457  39.101   0.510
34517W        W 6942  22.997  17.272   1.791
34518W        W 6943  10.867  14.419  12.095
34519W        W 6944  37.862  22.521   2.180
34520W        W 6945   1.317  16.851   3.264
34521W        W 6946   1.071  27.089  11.346
34522W        W 6947  33.184   3.400  12.558
34523W        W 6948  28.903   8.694  12.991
34524W        W 6949  19.186  10.985  11.415
34525W        W 6950  12.135  32.958   3.625
34526W        W 6951  37.965  19.374  10.693
34527W        W 6952   6.820  13.481  12.029
34528W        W 6953  37.809  29.435  10.863
34529W        W 6954  30.197  22.670  12.940
34530W        W 6955  37.103  38.754  12.143
34531W        W 6956  35.655  30.656  11.944
34532W        W 6957   7.707   3.499  13.806
34533W        W 6958   1.818  11.264  13.447
34534W        W 6959  24.747  19.737  11.978
34535W        W 6960   0.820   6.686  13.315
34536W        W 6961  13.106  39.508   4.213
34537W        W 6962  25.433   0.489   2.196
34538W        W 6963  28.065  34.837  11.156
34539W        W 6964  24.597  11.441   2.464
34540W        W 6965  44.355  43.757  14.931
34541W        W 6966  38.394   9.352  13.852
34542W        W 6967  25.473  23.371  11.125
34543W        W 6968  21.465  32.073   0.812
34544W        W 6969  14.401   6.716   0.288
34545W        W 6970  10.559  19.652   1.820
34546W        W 6971  23.493  25.776   3.236
34547W        W 6972  21.138  43.040   3.428
34548W        W 6973  15.580  27.677  13.502
34549W        W 6974   3.300  44.229   0.474
34550W        W 6975  25.264  24.543  12.657
34551W        W 6976  24.715  42.527   3.189
34552W        W 6977  10.134  19.616   3.598
34553W        W 6978  43.685   1.724  14.776
34554W        W 6979  40.373  37.957  12.864
34555W        W 6980  14.557  16.270   1.966
34556W        W 6981  33.124  21.087   2.373
34557W        W 6982  28.454  42.283   1.885
34558W        W 6983  34.893  33.758   1.411
34559W        W 6984  29.912  33.138  12.600
34560W        W 6985  38.998   5.654  10.792
34561W        W 6986   3.893  19.521   0.310
34562W        W 6987  29.110  37.617  10.366
34563W        W 6988  24.995  17.681   1.754
34564W        W 6989  43.470  33.036  13.038
34565W        W 6990  21.511   7.808   4.198
34566W        W 6991  36.621  31.562  13.399
34567W        W 6992  34.040  32.051   1.728
34568W        W 6993  31.438  22.638   3.384
34569W        W 6994  16.777   9.772   1.979
34570W        W 6995  10.933  27.953  13.874
34571W        W 6996  33.384  17.312   3.011
34572W        W 6997  39.845  12.805  13.772
34573W        W 6998   4.233  34.801   0.193
34574W        W 6999  14.849  12.551   3.251
34575W        W 7000   3.879  30.270  10.629
34576W        W 7001  43.227  26.642   3.178
34577W        W 7002  40.843   1.985  10.707
34578W        W 7003  21.864   8.837  11.263
34579W        W 7004  26.043  21.565  12.224
34580W        W 7005  20.966  16.588  12.081
34581W        W 7006  34.420   6.654   3.765
34582W        W 7007  36.707  22.805   1.656
34583W        W 7008   0.965   3.266  12.470
34584W        W 7009   6.703   9.423   1.860
34585W        W 7010  40.584  27.681   1.458
34586W        W 7011  32.990   1.318  14.112
34587W        W 7012  30.190   8.308  14.940
34588W        W 7013   7.971  41.918   2.187
34589W        W 7014   5.357  37.037  11.855
34590W        W 7015  37.347  19.072  11.928
34591W        W 7016  20.375   5.407  14.025
34592W        W 7017   6.753  26.603   1.673
34593W        W 7018  18.222  30.156   2.270
34594W        W 7019  21.664   6.446   3.282
34595W        W 7020  16.686  11.464   0.404
34596W        W 7021  21.239  29.503   2.707
34597W        W 7022  43.796  40.887   0.939
34598W        W 7023  22.580  31.420  14.413
34599W        W 7024  31.020  26.972  11.665
34600W        W 7025  29.084  30.829  12.704
34601W        W 7026   6.030   8.419   2.378
34602W        W 7027  38.897   2.910  13.808
34603W        W 7028  41.794  18.650  13.091
34604W        W 7029   6.411   0.342   3.658
34605W        W 7030  12.072  23.135   2.961
34606W        W 7031  11.617   2.881  13.929
34607W        W 7032  40.512  29.094  13.321
34608W        W 7033  32.382   3.344  10.259
34609W        W 7034  35.590  29.177  13.183
34610W        W 7035  26.183  38.312   2.849
34611W        W 7036  33.235   9.148   4.894
34612W        W 7037  23.457  18.107   0.007
34613W        W 7038   0.851  28.238  12.577
34614W        W 7039  30.460  29.814   3.715
34615W        W 7040  24.068  44.861   3.611
34616W        W 7041   9.604  34.196  11.401
34617W        W 7042  29.938  21.594   4.080
34618W        W 7043  30.482  27.975   3.592
34619W        W 7044  11.221  13.161  13.915
34620W        W 7045  25.505  41.523  14.758
34621W        W 7046  40.320  38.137  12.370
34622W        W 7047  28.567  17.435   3.662
34623W        W 7048  29.595   0.169  12.342
34624W        W 7049  38.867  43.205  13.332
34625W        W 7050  42.192  44.029  10.789
34626W        W 7051  35.512  38.574   4.667
34627W        W 7052  11.265  35.558  11.925
34628W        W 7053   1.390   7.960  12.042
34629W        W 7054  20.678  36.157   2.414
34630W        W 7055  18.242  29.470  14.034
34631W        W 7056  21.225  34.322  10.271
34632W        W 7057  25.261   9.432   4.366
34633W        W 7058   0.327  32.089   3.312
34634W        W 7059   1.082  24.074  14.031
34635W        W 7060  32.447  43.535  13.752
34636W        W 7061  10.977  40.000   2.739
34637W        W 7062  20.704  11.961  12.970
34638W        W 7063   8.833  36.632  11.636
34639W        W 7064  10.170   9.872   2.278
34640W        W 7065  33.379  35.318  11.626
34641W        W 7066  31.073   2.024   1.450
34642W        W 7067  17.771  38.390   2.289
34643W        W 7068  39.839   2.922   4.593
34644W        W 7069  27.027  10.689   2.294
34645W        W 7070  16.110  14.461   5.123
34646W        W 7071  12.263  31.667   3.842
34647W        W 7072  41.885  19.599   5.015
34648W        W 7073  21.094  37.507   0.710
34649W        W 7074  11.434  43.881   3.272
34650W        W 7075   7.820  25.735   4.185
34651W        W 7076  26.586  20.488  11.582
34652W        W 7077  25.056  20.575  12.107
34653W        W 7078  28.049  27.099  12.951
34654W        W 7079  29.167   2.093  13.238
34655W        W 7080   7.916   9.218  13.426
34656W        W 7081  35.907  10.157  12.391
34657W        W 7082  38.833  16.521   2.640
34658W        W 7083   7.111  17.318  11.566
34659W        W 7084  31.118  20.229  12.352
34660W        W 7085  25.948   8.982   3.808
34661W        W 7086  37.521  17.018   3.206
34662W        W 7087   8.797   1.995   4.308
34663W        W 7088  10.618   1.785  10.889
34664W        W 7089  13.071  29.386  13.940
34665W        W 7090  36.581   5.683  11.917
34666W        W 7091   9.874  39.034   3.825
34667W        W 7092  26.703  30.611   2.175
34668W        W 7093   3.754  39.347   4.584
34669W        W 7094  21.664  40.089  12.543
34670W        W 7095   2.528   1.325  14.869
34671W        W 7096   3.901  31.882   0.029
34672W        W 7097  40.034  15.693   3.157
34673W        W 7098  24.649  18.734  11.230
34674W        W 7099  20.235   0.288   1.850
34675W        W 7100  31.893  32.148   4.653
34676W        W 7101  26.154  29.836  13.085
34677W        W 7102  36.375  30.956  14.443
34678W        W 7103  19.295   8.899  11.935
34679W        W 7104  27.134   1.215   3.350
34680W        W 7105  13.099  24.080   3.143
34681W        W 7106  26.088  15.799   4.099
34682W        W 7107  28.193  17.266   5.044
34683W        W 7108   3.844  42.751   0.732
34684W        W 7109  16.387  37.369   0.746
34685W        W 7110  26.650  24.078  11.516
34686W        W 7111   2.158   8.263   4.320
34687W        W 7112  25.270  40.546   0.534
34688W        W 7113  32.142   6.160  12.902
34689W        W 7114  10.116   0.947  12.660
34690W        W 7115  28.113   0.088   4.632
34691W        W 7116  13.134  16.279   3.114
34692W        W 7117  25.075  11.132  14.084
34693W        W 7118  30.544  30.613   3.322
34694W        W 7119  44.690   6.439  12.998
34695W        W 7120  32.668   8.167  12.017
34696W        W 7121  25.981  17.776  11.644
34697W        W 7122  30.435  41.599   1.311
34698W        W 7123  32.635  27.394  12.378
34699W        W 7124   5.744  34.667  10.835
34700W        W 7125  37.063  32.491  13.998
34701W        W 7126  25.135  42.211   1.369
34702W        W 7127  18.994  41.521   0.880
34703W        W 7128  23.469  10.336   1.972
34704W        W 7129  17.225   3.921  13.509
34705W        W 7130   6.032  21.196  10.665
34706W        W 7131  36.184  11.616   2.823
34707W        W 7132  13.670  25.352  14.225
34708W        W 7133  38.977  15.017  14.937
34709W        W 7134  23.122   8.591   1.308
34710W        W 7135  27.403  22.856   0.943
34711W        W 7136  40.891  19.313   1.255
34712W        W 7137  24.974   3.842  13.459
34713W        W 7138   7.385  34.658   4.793
34714W        W 7139   3.896  43.901   3.032
34715W        W 7140  27.037  28.540  12.184
34716W        W 7141  14.879  28.537  14.453
34717W        W 7142  44.804  39.124   2.879
34718W        W 7143   0.622  11.887  13.904
34719W        W 7144   4.171  37.333   1.557
34720W        W 7145  41.767   8.856  13.556
34721W        W 7146   1.132  38.083   0.742
34722W        W 7147   5.557  38.545   2.744
34723W        W 7148   6.670   4.084   1.216
34724W        W 7149   9.308  11.301   4.139
34725W        W 7150  15.083  30.873   4.027
34726W        W 7151  16.181  41.127   0.506
34727W        W 7152   6.362  12.644   4.588
34728W        W 7153  16.523  12.643   0.057
34729W        W 7154  42.266  29.514  13.297
34730W        W 7155  26.438   7.712   0.807
34731W        W 7156   6.718  41.272   4.658
34732W        W 7157  30.326   6.837   2.269
34733W        W 7158   2.032  25.129  11.602
34734W        W 7159  12.571  37.067  12.674
34735W        W 7160  12.798  31.725  10.605
34736W        W 7161  32.178  41.790  13.447
34737W        W 7162  28.086  31.656  14.955
34738W        W 7163  18.818  28.506  13.060
34739W        W 7164  10.127  12.106   4.466
34740W        W 7165  25.877  23.479   1.244
34741W        W 7166  13.024   1.105   0.022
34742W        W 7167  35.060  43.812  14.029
34743W        W 7168   3.032  34.339  13.922
34744W        W 7169  37.111  40.262  11.124
34745W        W 7170   1.228  14.131   4.202
34746W        W 7171  44.431  37.047  10.693
34747W        W 7172  21.072  38.588  13.466
34748W        W 7173  33.875  42.537  13.044
34749W        W 7174  19.793  40.958   2.252
34750W        W 7175  23.618  15.946  11.355
34751W        W 7176  38.966   8.980   3.658
34752W        W 7177  28.163  44.348   0.745
34753W        W 7178  16.663  18.745   4.318
34754W        W 7179  17.276  43.231   0.714
34755W        W 7180  34.891  44.140  12.471
34756W        W 7181  23.419  14.269   1.850
34757W        W 7182  22.275  20.488   3.280
34758W        W 7183  31.207  24.253   0.766
34759W        W 7184  32.055  17.233   0.845
34760W        W 7185  23.009  30.686   2.861
34761W        W 7186   0.822  21.901  13.445
34762W        W 7187  19.707  23.989   4.929
34763W        W 7188  27.092  23.070  14.743
34764W        W 7189  14.317   7.309  14.794
34765W        W 7190  17.869  25.007  13.359
34766W        W 7191  38.050  33.534  13.308
34767W        W 7192  26.854  14.874   1.514
34768W        W 7193   1.793   9.046   0.021
34769W        W 7194  35.638  21.447  11.019
34770W        W 7195   4.931  17.552  10.693
34771W        W 7196  20.675  20.282   0.483
34772W        W 7197  23.624  18.250  12.850
34773W        W 7198   6.810  39.502   2.647
34774W        W 7199  30.139  13.449  13.665
34775W        W 7200   7.157  27.241  11.162
34776W        W 7201  37.438   2.257  10.623
34777W        W 7202   9.343  31.932  13.473
34778W        W 7203  28.665  25.819   3.332
34779W        W 7204  14.887   3.674   0.833
34780W        W 7205  26.237   5.438   3.850
34781W        W 7206  22.135   5.854  12.913
34782W        W 7207  30.426  23.365   3.837
34783W        W 7208  44.444  30.859   3.830
34784W        W 7209   2.418   3.393   1.059
34785W        W 7210   7.909   9.503  11.685
34786W        W 7211  10.617  28.110  12.890
34787W        W 7212   6.151   1.115  14.909
34788W        W 7213   2.385  19.649  13.524
34789W        W 7214  40.288  42.532  11.959
34790W        W 7215   0.721  21.961   2.729
34791W        W 7216  31.157  14.226  13.056
34792W        W 7217  42.828  40.724  14.370
34793W        W 7218  10.187  38.858   0.933
34794W        W 7219  42.258  24.532   4.214
34795W        W 7220  28.400  26.494   0.201
34796W        W 7221   7.911  17.995   4.109
34797W        W 7222  25.990  23.546  12.961
34798W        W 7223  13.846   0.448   3.128
34799W        W 7224   0.467  30.106   0.764
34800W        W 7225  23.637  30.741  13.913
34801W        W 7226  23.980  43.949   0.411
34802W        W 7227   3.747  28.554   3.529
34803W        W 7228  31.498  23.461   2.811
34804W        W 7229  19.187  31.015   2.868
34805W        W 7230  14.130  16.495   4.526
34806W        W 7231  31.945  32.048   1.256
34807W        W 7232   3.961   8.496   0.469
34808W        W 7233  33.198   7.756   4.577
34809W        W 7234  27.156  28.142  11.398
34810W        W 7235  17.088  41.139  11.587
34811W        W 7236  40.818   1.266  12.060
34812W        W 7237  16.182  40.450   4.166
34813W        W 7238  39.345  23.167  11.843
34814W        W 7239  23.783   2.945  12.590
34815W        W 7240  29.014  23.075   1.954
34816W        W 7241  37.514  36.592   0.772
34817W        W 7242  12.966  15.375  12.207
34818W        W 7243  10.118  24.992  11.745
34819W        W 7244  16.592  11.192   1.238
34820W        W 7245  27.374  13.826  13.418
34821W        W 7246   9.137  35.635   2.265
34822W        W 7247   3.743   1.170   3.353
34823W        W 7248  23.927  11.202   1.309
34824W        W 7249  32.595  11.918  10.738
34825W        W 7250  11.350   7.631  10.645
34826W        W 7251   7.023   9.045  11.422
34827W        W 7252   9.821   5.092   3.986
34828W        W 7253  24.241  17.615  11.670
34829W        W 7254  12.241  20.772  10.609
34830W        W 7255  22.972  36.341   2.129
34831W        W 7256  11.689  30.456  13.903
34832W        W 7257   5.472   8.376  12.136
34833W        W 7258  20.926  10.266  11.166
34834W        W 7259  32.991   5.062   4.441
34835W        W 7260   7.777   5.223   1.725
34836W        W 7261  41.939  39.986  14.049
34837W        W 7262  14.126  16.848  13.257
34838W        W 7263   9.805  36.956   0.483
34839W        W 7264   4.432   4.367  11.997
34840W        W 7265  35.433  17.737   1.605
34841W        W 7266  39.967   8.124  10.694
34842W        W 7267  12.353  27.695  14.344
34843W        W 7268  40.554   7.923   3.197
34844W        W 7269  31.100  42.786  12.173
34845W        W 7270  42.240  30.289   5.156
34846W        W 7271   7.948  12.632  13.787
34847W        W 7272  21.110  21.113  12.940
34848W        W 7273  30.132   5.902   1.379
34849W        W 7274  19.746  12.805   3.145
34850W        W 7275  33.965  31.303   2.902
34851W        W 7276  14.397  42.448  12.585
34852W        W 7277  17.314  15.853  14.468
34853W        W 7278  44.809  36.388  12.626
34854W        W 7279  13.291   0.387   0.627
34855W        W 7280  25.491  43.949   1.581
34856W        W 7281  30.548  13.758  12.916
34857W        W 7282  27.127  12.376  11.937
34858W        W 7283  32.959  31.846  13.396
34859W        W 7284  21.742  18.578   3.704
34860W        W 7285  21.730  36.562  13.841
34861W        W 7286   7.038  19.659   4.569
34862W        W 7287  29.389   6.435  10.692
34863W        W 7288   8.204  30.780   2.359
34864W        W 7289  28.227   1.864   2.121
34865W        W 7290   6.631  41.579   2.890
34866W        W 7291  17.653  14.691   0.442
34867W        W 7292  35.584  21.827  14.429
34868W        W 7293  12.386   5.806  13.340
34869W        W 7294  16.745  43.194  13.982
34870W        W 7295  30.092  34.547  12.278
34871W        W 7296  29.832  30.054   4.375
34872W        W 7297   2.855  19.702  14.811
34873W        W 7298  14.637   4.480   2.517
34874W        W 7299  43.884  18.788   2.247
34875W        W 7300  13.097  29.387   4.282
34876W        W 7301   6.707  30.547   3.642
34877W        W 7302  15.841  38.146   2.790
34878W        W 7303  35.710  38.892   0.458
34879W        W 7304  34.275  21.089   0.935
34880W        W 7305  38.029  22.489  13.443
34881W        W 7306  39.808  31.908  13.351
34882W        W 7307  42.132   8.102  14.774
34883W        W 7308  40.312  38.592   3.292
34884W        W 7309  44.450  34.605   5.445
34885W        W 7310   0.868   6.392   4.627
34886W        W 7311  13.327   9.867  14.965
34887W        W 7312  30.648  41.515  13.796
34888W        W 7313  16.647  43.365  10.461
34889W        W 7314  41.230   5.157  14.753
34890W        W 7315  14.922  18.508   0.006
34891W        W 7316  44.616  18.612  11.021
34892W        W 7317  11.575  19.837  11.800
34893W        W 7318  31.516  19.615   1.492
34894W        W 7319  23.347  12.165  14.942
34895W        W 7320  44.214  31.786   3.740
34896W        W 7321   1.805  12.727   4.135
34897W        W 7322  12.373  40.827  14.068
34898W        W 7323  34.162  37.604  11.056
34899W        W 7324   1.422  37.183   1.869
34900W        W 7325   8.178  12.893  13.018
34901W        W 7326  22.986  22.914  13.845
34902W        W 7327  25.967  36.573  13.408
34903W        W 7328  23.427   5.347   4.164
34904W        W 7329   9.435  12.349  11.347
34905W        W 7330  43.271  35.085  14.783
34906W        W 7331   4.026  41.199  11.171
34907W        W 7332  16.802  18.116  13.372
34908W        W 7333  12.402  40.852   2.219
34909W        W 7334  24.352  30.479   9.823
34910W        W 7335  33.118  22.098  12.676
34911W        W 7336  18.837  22.684   0.262
34912W        W 7337   6.759  40.630   1.785
34913W        W 7338  28.185   5.763   3.076
34914W        W 7339   5.136  15.527  11.500
34915W        W 7340  21.192  35.906  12.858
34916W        W 7341  18.403  28.484   1.238
34917W        W 7342  41.060  43.794   0.978
34918W        W 7343   2.414  34.098  12.030
34919W        W 7344  18.724  26.708  14.956
34920W        W 7345  20.761  38.816  11.929
34921W        W 7346   9.358  23.914   4.945
34922W        W 7347  29.676   9.452  12.972
34923W        W 7348  42.467   8.979   0.841
34924W        W 7349  37.956  36.527  11.907
34925W        W 7350  30.059  37.320   4.947
34926W        W 7351  30.182  35.887  10.790
34927W        W 7352  25.143   9.157  12.499
34928W        W 7353   1.433  18.547  12.048
34929W        W 7354   3.426  15.218   3.932
34930W        W 7355  29.856  20.666  13.859
34931W        W 7356  14.578   5.755  14.504
34932W        W 7357   8.104  43.162   2.718
34933W        W 7358  44.016  39.526  12.077
34934W        W 7359  39.482  19.216   4.817
34935W        W 7360  25.552  14.563  12.528
34936W        W 7361   2.991  41.259  13.066
34937W        W 7362  41.476  38.886   1.886
34938W        W 7363  37.907   9.017   9.709
34939W        W 7364  21.331  24.808  10.708
34940W        W 7365  19.566  37.274   0.847
34941W        W 7366  21.813  37.095   1.915
34942W        W 7367   3.530  33.385   2.344
34943W        W 7368  15.771  23.248   2.385
34944W        W 7369  23.575  33.840   3.952
34945W        W 7370  37.537  39.951   4.196
34946W        W 7371   4.189  20.773   0.695
34947W        W 7372  20.313  16.488  11.470
34948W        W 7373  44.557  19.111   4.086
34949W        W 7374  37.440  18.261  12.592
34950W        W 7375  37.900  15.863   2.274
34951W        W 7376  42.264  28.584  11.894
34952W        W 7377   1.740  30.497   2.828
34953W        W 7378  10.724  28.975   0.723
34954W        W 7379   2.107   6.278  11.531
34955W        W 7380  11.828  35.810   5.076
34956W        W 7381  43.052  32.656  12.890
34957W        W 7382  31.096  14.561   2.600
34958W        W 7383  19.678  34.929  13.326
34959W        W 7384  27.212  14.597  10.727
34960W        W 7385  13.434  25.566   4.406
34961W        W 7386  41.214  23.189  11.188
34962W        W 7387  12.399  24.606  12.452
34963W        W 7388  15.745  10.780   3.196
34964W        W 7389  17.258  41.126  12.600
34965W        W 7390  24.620  43.547   1.413
34966W        W 7391  30.442  41.969   4.102
34967W        W 7392  37.780  44.752   1.477
34968W        W 7393  33.140  14.413  11.371
34969W        W 7394  38.326  43.571  12.141
34970W        W 7395  24.624   5.263   3.619
34971W        W 7396  43.606  34.446  10.506
34972W        W 7397   8.638  15.441  11.606
34973W        W 7398  23.209  20.973  13.544
34974W        W 7399   5.457  39.494  11.605
34975W        W 7400   8.206  20.138  11.663
34976W        W 7401  19.846   0.137  13.826
34977W        W 7402  34.740  32.413   4.816
34978W        W 7403  28.551  40.248   0.794
34979W        W 7404  12.410  22.071  13.128
34980W        W 7405  21.533   2.962  11.602
34981W        W 7406   9.170   2.795  13.521
34982W        W 7407  21.838  21.178   0.534
34983W        W 7408  17.678   4.859  10.628
34984W        W 7409  43.208  24.912   0.385
34985W        W 7410  13.012  15.242  14.319
34986W        W 7411   1.488   2.559   2.000
34987W        W 7412  10.742  35.882  12.431
34988W        W 7413  39.040  31.972   2.846
34989W        W 7414   2.545  35.621  14.912
34990W        W 7415   3.192  27.715   2.278
34991W        W 7416  21.111  23.735  13.847
34992W        W 7417  17.567   3.872  12.508
34993W        W 7418  21.753  19.844  13.306
34994W        W 7419   2.252  16.921  13.773
34995W        W 7420   5.186  10.580  11.928
34996W        W 7421  18.960  35.083  11.076
34997W        W 7422  14.902   9.431  13.363
34998W        W 7423  26.891  15.166  12.598
34999W        W 7424  27.599   8.828  14.430
35000W        W 7425  41.977  16.159   2.710
35001W        W 7426  39.085  35.911   1.345
35002W        W 7427  33.969   0.836   0.968
35003W        W 7428   3.449  27.517  14.471
35004W        W 7429  29.435  36.068  13.519
35005W        W 7430  17.483  19.228   3.577
35006W        W 7431  33.041   9.690  11.162
35007W        W 7432  40.876   2.775  13.814
35008W        W 7433   8.640  41.305  12.403
35009W        W 7434  18.584  14.049  13.835
35010W        W 7435   7.949  21.655  13.418
35011W        W 7436   7.610   2.380   1.451
35012W        W 7437  12.400  16.573  14.317
35013W        W 7438  39.966  33.128   0.831
35014W        W 7439  26.970  14.261   2.170
35015W        W 7440  40.430  27.295  13.487
35016W        W 7441   6.160  11.382   4.418
35017W        W 7442  26.085  31.960   0.765
35018W        W 7443  29.690   7.300   4.250
35019W        W 7444  16.796  37.914   1.891
35020W        W 7445  20.724   0.911  10.795
35021W        W 7446   8.682  36.189   5.014
35022W        W 7447   6.413  18.358  14.872
35023W        W 7448  40.405  18.329   2.809
35024W        W 7449   8.109  27.074   0.362
35025W        W 7450   6.493  27.712  14.546
35026W        W 7451  34.021  41.333   2.221
35027W        W 7452  35.590   6.411  14.911
35028W        W 7453  32.151  20.585  14.968
35029W        W 7454  13.797   1.576  14.705
35030W        W 7455  21.721  40.034   1.830
35031W        W 7456   3.695   9.739  13.861
35032W        W 7457   7.848  35.777   4.465
35033W        W 7458  21.238  28.604  12.870
35034W        W 7459  13.632  26.941   0.859
35035W        W 7460  17.610  12.598  14.954
35036W        W 7461  10.830   2.834  14.321
35037W        W 7462  33.968   0.341   3.062
35038W        W 7463  24.644   3.023  11.684
35039W        W 7464   6.766  11.170   3.312
35040W        W 7465   4.698   1.365   4.610
35041W        W 7466  44.638  27.402   3.171
35042W        W 7467  25.913  22.432  14.211
35043W        W 7468   8.022  22.166   0.981
35044W        W 7469   5.799   3.382  13.507
35045W        W 7470  42.538   6.710  12.116
35046W        W 7471   9.786  17.717   2.439
35047W        W 7472  32.568  34.342   1.429
35048W        W 7473   2.453  41.880   0.007
35049W        W 7474  18.446  26.276   3.805
35050W        W 7475  23.799  24.546  12.975
35051W        W 7476  43.476  25.255   3.159
35052W        W 7477   7.428  20.240  13.901
35053W        W 7478  21.078  11.172   3.759
35054W        W 7479  28.559   9.059  10.548
35055W        W 7480   1.196  19.692   3.757
35056W        W 7481   8.023   6.436   4.525
35057W        W 7482   6.671  41.547  10.726
35058W        W 7483  33.719  25.911  11.064
35059W        W 7484  28.726  26.989  14.463
35060W        W 7485  36.066  31.458   3.792
35061W        W 7486  19.699  13.761   3.301
35062W        W 7487  18.885  18.070  11.534
35063W        W 7488  11.715  17.985  12.162
35064W        W 7489   2.686  16.266   0.731
35065W        W 7490  22.017  11.725   2.718
35066W        W 7491  16.253  38.302  13.559
35067W        W 7492  32.466   8.907  10.959
35068W        W 7493   9.670   9.845   0.989
35069W        W 7494  29.625  32.451   3.105
35070W        W 7495  11.292  10.205  11.299
35071W        W 7496  26.386  15.199  12.722
35072W        W 7497  41.967  12.570   4.787
35073W        W 7498  23.092  12.428  12.595
35074W        W 7499   0.002  21.532   0.365
35075W        W 7500  44.797  35.262   0.849
35076W        W 7501   1.859   6.218  14.395
35077W        W 7502  23.947  30.663  12.464
35078W        W 7503  37.304  33.409   1.327
35079W        W 7504  35.502  38.494  10.571
35080W        W 7505   1.278  43.406   4.286
35081W        W 7506  25.945   2.923  13.907
35082W        W 7507  31.462  24.704   2.821
35083W        W 7508  40.749  38.856   3.212
35084W        W 7509  32.919  10.518  13.340
35085W        W 7510  23.850  21.676  14.030
35086W        W 7511  44.367  40.955   3.326
35087W        W 7512  31.829   5.509   3.125
35088W        W 7513  10.285  35.801   0.791
35089W        W 7514  24.030  32.762   9.894
35090W        W 7515   0.912  15.305  11.444
35091W        W 7516  40.718  30.854  11.771
35092W        W 7517  36.387   6.195  14.323
35093W        W 7518  21.863  37.396  13.280
35094W        W 7519  36.824  21.207   2.442
35095W        W 7520  13.178  25.928  13.879
35096W        W 7521  19.725  43.568   4.666
35097W        W 7522  36.542  37.213   3.373
35098W        W 7523  21.239  18.984  13.588
35099W        W 7524  41.986   4.395   2.142
35100W        W 7525  25.684   6.720  13.991
35101W        W 7526  41.542  30.166   2.748
35102W        W 7527  13.337   3.250   0.733
35103W        W 7528   0.423  11.541  11.668
35104W        W 7529  41.732  30.486  11.581
35105W        W 7530  15.103  20.343  12.201
35106W        W 7531  27.117  11.042   1.935
35107W        W 7532  23.619  38.479  12.297
35108W        W 7533  39.380  19.725   3.660
35109W        W 7534  35.500  33.528   4.635
35110W        W 7535   1.728  28.682   2.642
35111W        W 7536  20.239  30.512   2.554
35112W        W 7537  18.820  34.405   2.226
35113W        W 7538  28.921  28.326  11.215
35114W        W 7539  20.923   4.424  13.401
35115W        W 7540   6.263  44.121  11.902
35116W        W 7541  15.705  23.621  13.986
35117W        W 7542   8.479  29.547   0.048
35118W        W 7543  28.213  36.772  12.476
35119W        W 7544   5.272  21.309  13.823
35120W        W 7545   3.900  12.745  12.189
35121W        W 7546   0.846  34.933  14.535
35122W        W 7547  28.626  26.504  13.720
35123W        W 7548  12.726   0.988   4.820
35124W        W 7549  36.399  39.317   4.179
35125W        W 7550  21.293  36.883   3.123
35126W        W 7551   2.887   6.631   2.519
35127W        W 7552  43.336  42.628   4.600
35128W        W 7553  16.421   4.915   4.496
35129W        W 7554  13.845  20.602  14.933
35130W        W 7555  20.700  15.123   2.313
35131W        W 7556  44.927  27.077  10.654
35132W        W 7557  39.496  14.241  12.569
35133W        W 7558  26.697   2.344   4.225
35134W        W 7559  24.342  19.781  10.372
35135W        W 7560  19.249  21.303   2.282
35136W        W 7561  41.906  19.296  11.118
35137W        W 7562   6.928  34.153  14.405
35138W        W 7563  24.446   9.754   2.750
35139W        W 7564  16.316  18.007  12.498
35140W        W 7565  22.981   5.523  14.330
35141W        W 7566  32.337  14.502   0.506
35142W        W 7567   0.945  40.477  12.279
35143W        W 7568   1.298  16.067   0.208
35144W        W 7569  32.332  20.808   2.393
35145W        W 7570  21.641  41.412   1.030
35146W        W 7571   2.229  23.089   1.870
35147W        W 7572   0.408  41.318  13.901
35148W        W 7573  18.509  16.808   0.008
35149W        W 7574  31.121  11.605   4.930
35150W        W 7575   8.283  43.444  10.939
35151W        W 7576  30.219  21.786  12.955
35152W        W 7577  32.509   1.065   2.255
35153W        W 7578  29.212  35.028  13.010
35154W        W 7579  19.473  24.991  13.197
35155W        W 7580  20.681  12.092  12.454
35156W        W 7581  12.153  23.686   1.405
35157W        W 7582  16.159  19.613   3.997
35158W        W 7583  16.634   4.922  10.575
35159W        W 7584   6.928  25.424   4.026
35160W        W 7585  38.159  39.907  13.966
35161W        W 7586  41.611  42.856  14.213
35162W        W 7587  42.317  13.672   3.403
35163W        W 7588  35.662  10.676   2.124
35164W        W 7589  11.643  44.551   1.204
35165W        W 7590  28.222   9.445  14.457
35166W        W 7591  28.290  34.815  13.362
35167W        W 7592  35.046  36.652  14.026
35168W        W 7593  37.971   7.811  10.188
35169W        W 7594  27.943  29.154   1.730
35170W        W 7595  43.811   2.907  12.001
35171W        W 7596   6.486  30.122  12.571
35172W        W 7597  20.616  43.620  13.776
35173W        W 7598  25.628   6.970  12.279
35174W        W 7599   0.273  24.548  12.973
35175W        W 7600  26.296  24.669  11.911
35176W        W 7601  25.469  26.390  10.229
35177W        W 7602  12.333  13.075  11.446
35178W        W 7603  30.919  30.069   4.112
35179W        W 7604  13.547  44.577  12.533
35180W        W 7605   9.782  30.733   3.174
35181W        W 7606  41.077   6.846  14.957
35182W        W 7607  30.084   4.325   0.883
35183W        W 7608   0.326  11.373  12.547
35184W        W 7609  18.248   2.412   2.146
35185W        W 7610   9.943  40.192  13.141
35186W        W 7611  34.522  37.583  13.004
35187W        W 7612  22.692   6.643  13.895
35188W        W 7613   1.060  11.730  14.840
35189W        W 7614  34.847   1.791  14.726
35190W        W 7615  11.758  39.029  14.584
35191W        W 7616  11.871   3.436   1.901
35192W        W 7617  20.130  30.636  12.518
35193W        W 7618  37.978  12.968   4.695
35194W        W 7619  27.877   0.426  13.519
35195W        W 7620   8.681  22.527  14.001
35196W        W 7621  43.444  41.275  13.816
35197W        W 7622  37.497  39.768  13.049
35198W        W 7623  36.100  37.260  13.439
35199W        W 7624   7.942  13.358  10.714
35200W        W 7625  10.663   6.876   3.734
35201W        W 7626  27.687  30.443  13.881
35202W        W 7627  37.262  30.595   2.481
35203W        W 7628   6.084  24.746   3.934
35204W        W 7629  35.919  29.232   1.415
35205W        W 7630  13.427  41.554  11.522
35206W        W 7631   2.873  33.241   2.841
35207W        W 7632   1.471  13.627  12.514
35208W        W 7633  41.743  38.839   2.347
35209W        W 7634  18.396   0.984  14.984
35210W        W 7635  13.451  18.113   3.145
35211W        W 7636  19.338  30.399   4.059
35212W        W 7637  40.829   2.649   4.577
35213W        W 7638  31.319  21.536   1.440
35214W        W 7639  43.464  40.501   1.037
35215W        W 7640  37.836  29.245  14.522
35216W        W 7641  32.431  39.089   0.374
35217W        W 7642  11.952  26.309  11.883
35218W        W 7643  43.277  43.410  11.048
35219W        W 7644   0.590  21.963   3.222
35220W        W 7645   4.207  28.624   4.275
35221W        W 7646  44.985  17.620  12.127
35222W        W 7647  27.072  40.960   1.803
35223W        W 7648   6.447   8.811   4.174
35224W        W 7649  23.626  13.553   3.849
35225W        W 7650  23.704   5.860   2.710
35226W        W 7651   8.822  17.631   2.345
35227W        W 7652   2.491  36.797   0.335
35228W        W 7653  29.242   7.539  12.778
35229W        W 7654  31.432  22.032   1.350
35230W        W 7655  15.992  43.083   1.872
35231W        W 7656  44.348  39.164  11.465
35232W        W 7657  38.333  10.178   2.307
35233W        W 7658  30.284   4.842   0.716
35234W        W 7659  11.792   2.049   0.914
35235W        W 7660  29.832  13.275  11.830
35236W        W 7661  19.156  38.291  14.531
35237W        W 7662  22.321  23.898  12.484
35238W        W 7663  28.047  25.139  11.099
35239W        W 7664  16.041  17.853   2.298
35240W        W 7665  23.790  28.973   3.490
35241W        W 7666   7.173  40.541  14.507
35242W        W 7667   0.220   9.390  11.935
35243W        W 7668  25.898  15.661   4.564
35244W        W 7669  39.883  19.805  11.086
35245W        W 7670  21.700  30.878   2.230
35246W        W 7671  21.155   2.814  12.556
35247W        W 7672   5.874  37.374   3.417
35248W        W 7673   3.753  38.951  10.919
35249W        W 7674   5.851  34.740   0.460
35250W        W 7675  31.138  43.784  11.949
35251W        W 7676  28.267  11.770  10.518
35252W        W 7677  32.368  39.859   2.739
35253W        W 7678  22.140  23.644  13.904
35254W        W 7679  44.884  24.182   1.318
35255W        W 7680  18.664  24.089  11.086
35256W        W 7681  44.254  33.578   1.281
35257W        W 7682  35.436   0.843  12.367
35258W        W 7683   2.085  43.490  11.557
35259W        W 7684   7.940  19.576   3.120
35260W        W 7685   8.199  37.976  12.304
35261W        W 7686   2.817  44.553   4.230
35262W        W 7687  29.117   8.322   2.542
35263W        W 7688  25.233  14.462  14.300
35264W        W 7689  14.219  43.448  12.444
35265W        W 7690  22.561  40.147  12.588
35266W        W 7691  23.787  16.538   4.007
35267W        W 7692  22.595   9.338   1.710
35268W        W 7693  36.080  23.490  14.381
35269W        W 7694  28.560  10.648   4.595
35270W        W 7695  26.870  11.679  13.925
35271W        W 7696   4.890  38.663   4.206
35272W        W 7697  41.401  41.402  13.252
35273W        W 7698  28.175  39.531  13.474
35274W        W 7699  26.025  40.249  14.800
35275W        W 7700  44.225   2.287  10.671
35276W        W 7701   7.447  39.098   4.234
35277W        W 7702  38.391  30.231   5.049
35278W        W 7703  14.069  25.412   3.222
35279W        W 7704  41.124   1.846   0.307
35280W        W 7705  11.938  36.948   2.820
35281W        W 7706  27.098  14.103   2.730
35282W        W 7707  20.038  36.956   0.605
35283W        W 7708  27.374  17.179   1.440
35284W        W 7709  12.197  33.977   3.698
35285W        W 7710   8.285  42.067   4.959
35286W        W 7711  31.733  18.877   0.862
35287W        W 7712  35.433   4.253  13.014
35288W        W 7713  27.179  30.531  10.264
35289W        W 7714   2.689  43.216  13.999
35290W        W 7715   7.773  41.408  11.635
35291W        W 7716  24.922   3.815   3.646
35292W        W 7717  42.919  26.674   0.993
35293W        W 7718   4.895  34.399  10.357
35294W        W 7719  29.550  37.216  11.871
35295W        W 7720  21.411  15.989   4.070
35296W        W 7721  42.090  33.985   1.630
35297W        W 7722  36.639  11.701   0.157
35298W        W 7723  20.152   9.648   3.759
35299W        W 7724  16.699  26.519  12.651
35300W        W 7725  12.887   4.520   0.220
35301W        W 7726  12.987  14.746  11.158
35302W        W 7727  27.233  25.550  14.415
35303W        W 7728  20.921   3.877  11.809
35304W        W 7729  37.000  11.230  12.108
35305W        W 7730  34.466   2.055  11.578
35306W        W 7731  36.541   8.796  13.964
35307W        W 7732   4.511  35.833   1.909
35308W        W 7733  41.488  35.428   1.216
35309W        W 7734  28.867  40.700  12.934
35310W        W 7735  29.010  40.008   3.451
35311W        W 7736  42.747  29.097  14.616
35312W        W 7737   4.159  11.520   1.029
35313W        W 7738  22.982  25.443  10.680
35314W        W 7739  29.895  25.674   0.900
35315W        W 7740  32.922  29.174   1.397
35316W        W 7741   0.936  31.931   0.951
35317W        W 7742  34.244   4.122   0.662
35318W        W 7743  32.490   6.448  11.349
35319W        W 7744  34.333  10.088   3.242
35320W        W 7745  13.115  10.315  14.744
35321W        W 7746  39.332   9.466   2.768
35322W        W 7747   0.717  28.729  13.823
35323W        W 7748  38.118   1.404   3.700
35324W        W 7749  33.871  41.939   4.352
35325W        W 7750  20.312  18.624   3.788
35326W        W 7751  24.282  42.338   2.360
35327W        W 7752   9.291  31.822   2.227
35328W        W 7753   7.594  20.649   2.152
35329W        W 7754  37.315   5.504  13.009
35330W        W 7755  20.063  13.308  11.249
35331W        W 7756  20.070  36.356  12.121
35332W        W 7757  21.069  29.877  12.135
35333W        W 7758   3.775  39.109   4.120
35334W        W 7759  39.020  19.367   5.006
35335W        W 7760  41.030  22.126  11.205
35336W        W 7761  43.599  33.013   1.826
35337W        W 7762   3.287   8.312   2.688
35338W        W 7763  28.626  18.759  13.499
35339W        W 7764  41.503  19.356   3.227
35340W        W 7765  29.090  23.992   1.799
35341W        W 7766  41.427  41.053  12.804
35342W        W 7767  33.420  31.174   3.634
35343W        W 7768  12.738  21.037   3.774
35344W        W 7769   8.003  29.694  14.808
35345W        W 7770  38.771  38.442   2.646
35346W        W 7771  29.040  39.568   2.674
35347W        W 7772  13.194   3.405   5.060
35348W        W 7773  44.788   6.416   4.845
35349W        W 7774  15.251  41.940   1.830
35350W        W 7775   6.340   8.236   1.593
35351W        W 7776   6.940  21.870  12.097
35352W        W 7777  35.490  40.537  10.705
35353W        W 7778  20.635  40.123   0.421
35354W        W 7779  38.542   5.858   2.449
35355W        W 7780  44.404  13.686  12.356
35356W        W 7781  44.994  23.156   4.593
35357W        W 7782  26.661  28.749   2.590
35358W        W 7783  11.267  39.832  12.730
35359W        W 7784   2.396  19.170   2.192
35360W        W 7785  13.239  29.848   3.285
35361W        W 7786  36.747  14.930  11.449
35362W        W 7787  21.295  38.944   0.154
35363W        W 7788  38.876  13.278  10.939
35364W        W 7789   0.768  10.855   3.659
35365W        W 7790  31.379  16.773   4.643
35366W        W 7791  12.430  31.361   3.413
35367W        W 7792  31.935   6.109   4.354
35368W        W 7793  41.404  32.697   0.968
35369W        W 7794  40.326  39.431  10.546
35370W        W 7795  15.870  16.334  14.332
35371W        W 7796  25.500  29.550   2.243
35372W        W 7797   3.308  27.578  14.967
35373W        W 7798  16.569  41.784  14.317
35374W        W 7799  19.407  18.054   1.728
35375W        W 7800  17.491  34.502  10.615
35376W        W 7801  10.389   2.100  11.906
35377W        W 7802   1.425  33.122   1.984
35378W        W 7803  44.080  26.701   4.556
35379W        W 7804  35.038  31.519   1.366
35380W        W 7805  32.422  32.533  11.984
35381W        W 7806  34.667  42.204   4.743
35382W        W 7807   6.062  26.970  12.044
35383W        W 7808   3.414  17.027   5.195
35384W        W 7809   9.691  37.686  13.476
35385W        W 7810  33.683  33.048   2.317
35386W        W 7811  31.926  26.750  12.922
35387W        W 7812  28.620  27.722   0.753
35388W        W 7813  33.322  16.282   3.151
35389W        W 7814   2.903   0.885  14.046
35390W        W 7815   9.718  44.110  14.567
35391W        W 7816  17.647  11.653  12.437
35392W        W 7817  41.759  40.494  12.040
35393W        W 7818  32.893   4.538  12.996
35394W        W 7819  44.955  14.373   4.655
35395W        W 7820   0.683  29.237  10.496
35396W        W 7821  43.314   4.816   2.022
35397W        W 7822  21.519  30.849   2.715
35398W        W 7823  17.011  37.083   4.279
35399W        W 7824   8.982   7.740  11.833
35400W        W 7825  43.063  11.148  10.799
35401W        W 7826  21.086  13.855  12.566
35402W        W 7827   7.306  40.106   4.294
35403W        W 7828  16.782  42.919   4.613
35404W        W 7829  21.762  11.299  13.373
35405W        W 7830  22.033  12.633   5.028
35406W        W 7831  13.276   2.073  14.974
35407W        W 7832  38.915  26.941   1.250
35408W        W 7833  22.289  30.402  14.066
35409W        W 7834   5.190  33.137  11.564
35410W        W 7835  32.011  44.180  14.645
35411W        W 7836  18.248  44.807   3.222
35412W        W 7837  31.561  28.777   2.776
35413W        W 7838  13.595  36.775  12.434
35414W        W 7839  35.659  32.061  14.055
35415W        W 7840  36.268  26.164  12.597
35416W        W 7841  12.578  44.387  12.520
35417W        W 7842  26.613  25.982   1.874
35418W        W 7843  32.411   8.157  12.490
35419W        W 7844   5.190  37.952  12.128
35420W        W 7845  27.228  44.789   1.978
35421W        W 7846  29.595  12.044  11.146
35422W        W 7847  15.822  28.256  14.093
35423W        W 7848  44.545  42.328  12.322
35424W        W 7849  35.787   4.657  14.936
35425W        W 7850  16.273  32.419   2.439
35426W        W 7851   9.316   1.069   0.277
35427W        W 7852  39.512  30.321  13.974
35428W        W 7853  26.556  45.000  11.365
35429W        W 7854   2.470  40.660   2.321
35430W        W 7855   5.344  15.745  13.960
35431W        W 7856  19.599  42.911  12.290
35432W        W 7857   9.564   5.254   3.569
35433W        W 7858  10.166  14.443  10.959
35434W        W 7859  35.202  27.244  14.395
35435W        W 7860  10.430   5.794   2.780
35436W        W 7861  44.890  24.571  14.625
35437W        W 7862  42.082  27.086  10.915
35438W        W 7863  24.476  35.130  13.403
35439W        W 7864   9.617  17.097   2.819
35440W        W 7865  43.521   4.704   3.360
35441W        W 7866  26.412  24.073  11.067
35442W        W 7867   5.963   1.597  11.183
35443W        W 7868   0.618   0.140   2.252
35444W        W 7869  16.059   7.248  10.624
35445W        W 7870  24.079   9.104  14.311
35446W        W 7871  13.868  37.998   3.260
35447W        W 7872  42.913  43.407   2.572
35448W        W 7873   6.857   6.421  14.240
35449W        W 7874  38.789   6.229  12.389
35450W        W 7875   8.870  21.366   2.386
35451W        W 7876  24.628  29.467  13.586
35452W        W 7877  10.752  26.892  12.443
35453W        W 7878  28.342   9.370   2.691
35454W        W 7879  30.107   8.244  11.672
35455W        W 7880  26.656  17.240   2.871
35456W        W 7881  15.188   0.475  14.479
35457W        W 7882   7.838  10.616  12.593
35458W        W 7883  27.505  39.446  11.934
35459W        W 7884  12.330   0.286   2.298
35460W        W 7885  13.898  32.157   4.174
35461W        W 7886  20.053  34.444  10.507
35462W        W 7887  44.339  36.504   4.045
35463W        W 7888   8.987  41.854   0.264
35464W        W 7889  34.458  26.845  12.315
35465W        W 7890  43.792  35.986  14.710
35466W        W 7891  36.390  21.957   4.748
35467W        W 7892  24.011   7.311  10.408
35468W        W 7893  23.142  14.551  14.813
35469W        W 7894  31.083   5.906   4.842
35470W        W 7895  23.056   1.384   4.166
35471W        W 7896   1.185  36.937  14.343
35472W        W 7897   2.462  17.133   2.180
35473W        W 7898  28.667  34.199   2.363
35474W        W 7899  41.819   2.251  13.868
35475W        W 7900  30.518  42.254  12.995
35476W        W 7901  35.542  24.688  12.594
35477W        W 7902  21.234  10.138  11.594
35478W        W 7903  18.221  32.429   4.091
35479W        W 7904   1.023   1.866   1.448
35480W        W 7905  41.449  26.198  12.814
35481W        W 7906  26.718  29.839   3.665
35482W        W 7907  14.211  11.861  14.557
35483W        W 7908   8.531  17.805  13.030
35484W        W 7909  26.640  34.096   0.964
35485W        W 7910  33.258  19.080   2.398
35486W        W 7911   1.299  13.356   2.737
35487W        W 7912  16.922  24.138   3.530
35488W        W 7913  13.807  36.463  12.859
35489W        W 7914  19.011  17.167  11.471
35490W        W 7915   2.231   0.741  13.001
35491W        W 7916   5.567  10.669  14.646
35492W        W 7917  28.172  40.622   0.327
35493W        W 7918  41.138  29.942   1.900
35494W        W 7919  15.710  34.643   3.564
35495W        W 7920   8.347   5.764   0.485
35496W        W 7921  30.063   7.319  12.971
35497W        W 7922  12.770  16.193  14.333
35498W        W 7923  42.532  14.926  13.371
35499W        W 7924   1.769  39.968   3.891
35500W        W 7925  20.222  17.884  12.500
35501W        W 7926  10.229  43.168   4.568
35502W        W 7927   2.819  11.913   4.589
35503W        W 7928  28.309  13.095   9.798
35504W        W 7929  31.275  21.112  10.748
35505W        W 7930  16.226  35.749   0.286
35506W        W 7931  44.250  20.726   1.825
35507W        W 7932   0.821  32.417   5.045
35508W        W 7933  30.024  29.050  12.368
35509W        W 7934  17.863  31.923   4.591
35510W        W 7935  16.142   8.385   3.349
35511W        W 7936  19.119  23.852  13.088
35512W        W 7937  10.441  44.974   0.496
35513W        W 7938  30.644  32.019  13.378
35514W        W 7939  18.237   7.374  12.947
35515W        W 7940  12.670   8.307  14.012
35516W        W 7941  21.009  17.975  12.444
35517W        W 7942  19.062  12.217  13.865
35518W        W 7943  19.522  11.870  10.967
35519W        W 7944  10.352  25.101   4.463
35520W        W 7945  25.065  12.287   3.200
35521W        W 7946  20.772   8.676  13.932
35522W        W 7947  41.041   0.576   2.025
35523W        W 7948  22.932  17.868   3.778
35524W        W 7949  24.165  25.258  12.471
35525W        W 7950  28.627  12.362   2.856
35526W        W 7951  22.223   4.779   2.750
35527W        W 7952  35.833   7.939  12.957
35528W        W 7953   5.470  25.074   2.148
35529W        W 7954  30.622  36.340   3.337
35530W        W 7955  34.042  10.431   0.466
35531W        W 7956  24.530  10.637   3.133
35532W        W 7957  24.980  33.296   0.451
35533W        W 7958  34.032   2.337   4.001
35534W        W 7959  29.128  18.278  13.308
35535W        W 7960  40.922  21.526  14.949
35536W        W 7961  40.478  20.195  14.897
35537W        W 7962  27.530  17.602  13.462
35538W        W 7963  43.556   0.324   1.762
35539W        W 7964  31.106  35.970   4.112
35540W        W 7965  32.452  21.853  12.959
35541W        W 7966  31.596  43.844  11.719
35542W        W 7967  43.332  11.414  11.924
35543W        W 7968  34.628  39.892   4.189
35544W        W 7969  32.792  21.574  11.486
35545W        W 7970  38.504  24.748   3.314
35546W        W 7971  17.617  12.261   1.705
35547W        W 7972  21.692  38.429  12.012
35548W        W 7973  10.130   9.662   0.781
35549W        W 7974  21.202   7.681   3.541
35550W        W 7975  28.614  12.791  12.931
35551W        W 7976  39.567  10.580  13.618
35552W        W 7977   2.190   0.300   2.216
35553W        W 7978  41.218  14.743  12.496
35554W        W 7979  12.682  20.800   1.856
35555W        W 7980  32.917  39.291  11.668
35556W        W 7981   7.731   7.389  12.664
35557W        W 7982  13.770  44.978  14.380
35558W        W 7983  11.319  20.205   3.327
35559W        W 7984  28.095  25.988  12.165
35560W        W 7985  39.069  21.604   3.348
35561W        W 7986  20.706  32.136   0.401
35562W        W 7987  27.134   0.497  11.036
35563W        W 7988  39.677  12.678  14.448
35564W        W 7989  18.581  16.247   0.825
35565W        W 7990   9.906   4.407  10.663
35566W        W 7991  40.589  10.684  10.352
35567W        W 7992   2.538   5.142  13.849
35568W        W 7993  19.025  27.127  13.447
35569W        W 7994  26.297   9.842  10.815
35570W        W 7995  36.960  15.717   2.246
35571W        W 7996   8.415   8.600   1.876
35572W        W 7997  25.906  32.541  13.503
35573W        W 7998   3.736  17.987   4.375
35574W        W 7999   3.941  40.948  13.026
35575W        W 8000   8.126  24.950  11.869
35576W        W 8001  31.942  15.459  13.437
35577W        W 8002   8.945  28.742   3.744
35578W        W 8003  42.076  24.964   4.472
35579W        W 8004  42.863  20.082  14.820
35580W        W 8005  28.960  14.004   5.005
35581W        W 8006   4.947   3.218  14.062
35582W        W 8007  44.273  27.096  13.983
35583W        W 8008  36.977  11.367  14.913
35584W        W 8009   3.129  31.742   0.419
35585W        W 8010  25.602  19.134  11.468
35586W        W 8011  35.977   9.812   0.244
35587W        W 8012   3.949  30.397  13.936
35588W        W 8013  17.774   2.397  13.012
35589W        W 8014  31.476  27.179   3.474
35590W        W 8015   8.246   0.789  11.294
35591W        W 8016  40.649  25.699   1.946
35592W        W 8017  42.874   2.691   4.222
35593W        W 8018   4.203   2.800  13.369
35594W        W 8019  28.933  27.514   3.549
35595W        W 8020  44.633   0.911  12.849
35596W        W 8021  22.674  23.655  11.219
35597W        W 8022  30.162  28.662   3.129
35598W        W 8023   0.365  30.240   2.157
35599W        W 8024  21.377   7.279   3.843
35600W        W 8025   0.961  18.740   4.228
35601W        W 8026  34.585  22.762  12.860
35602W        W 8027  37.440   1.015   1.708
35603W        W 8028  43.477  25.838  11.625
35604W        W 8029  35.429  39.479   2.509
35605W        W 8030  25.639   8.137   2.329
35606W        W 8031  24.039  28.090  11.318
35607W        W 8032  38.979  13.623  13.106
35608W        W 8033  40.821  39.009  13.812
35609W        W 8034  18.607   0.089   4.878
35610W        W 8035  42.441  36.551   1.768
35611W        W 8036  20.523  43.198   2.263
35612W        W 8037  44.453  24.636   2.887
35613W        W 8038  26.029   8.156  12.869
35614W        W 8039   6.736  40.329  11.483
35615W        W 8040  39.308  36.070   1.855
35616W        W 8041  43.441  14.650  10.841
35617W        W 8042  30.944   2.921  14.740
35618W        W 8043  25.684  32.171   1.548
35619W        W 8044   3.387  35.487  13.632
35620W        W 8045  43.779   1.858   1.145
35621W        W 8046  44.050  41.305   0.776
35622W        W 8047  10.334  10.785   3.722
35623W        W 8048  41.066  39.825  13.864
35624W        W 8049   3.919  27.263  14.465
35625W        W 8050  31.833  22.423  11.000
35626W        W 8051   2.056  30.409   3.701
35627W        W 8052  44.437  24.820  12.068
35628W        W 8053  32.074  34.310   1.287
35629W        W 8054  41.693  26.637  12.646
35630W        W 8055  20.117  28.588   2.924
35631W        W 8056  41.626  23.858   1.733
35632W        W 8057  26.460  17.984  11.653
35633W        W 8058  11.047  16.233  11.499
35634W        W 8059  25.871  26.383   3.758
35635W        W 8060   5.067   8.081   0.642
35636W        W 8061  35.693  41.388   4.634
35637W        W 8062  19.619  40.812  13.675
35638W        W 8063  44.752  23.019   3.060
35639W        W 8064   9.430  21.985   2.214
35640W        W 8065  20.132  10.583   5.198
35641W        W 8066  30.495  31.833   4.583
35642W        W 8067  32.057  34.961  12.863
35643W        W 8068  11.902  31.591  13.438
35644W        W 8069  13.807  27.061   1.383
35645W        W 8070  40.305  42.416   5.021
35646W        W 8071  44.506  32.045   0.322
35647W        W 8072   3.999  13.216   3.414
35648W        W 8073  16.189  42.766  12.714
35649W        W 8074  42.922  38.853  11.206
35650W        W 8075  13.429  26.185  13.479
35651W        W 8076  14.713  21.301   2.638
35652W        W 8077   7.712   4.039  14.715
35653W        W 8078  38.455  27.264   3.728
35654W        W 8079  22.219  26.517  13.916
35655W        W 8080  22.289   9.380  11.511
35656W        W 8081  23.682  10.811  11.410
35657W        W 8082  22.544  14.703   4.871
35658W        W 8083  17.243   5.144  10.805
35659W        W 8084  37.613  39.176  13.776
35660W        W 8085  32.632   3.773   4.611
35661W        W 8086  20.794  19.691  13.043
35662W        W 8087  21.136  19.673   1.122
35663W        W 8088  33.892  39.633  12.033
35664W        W 8089  14.160  17.198   2.411
35665W        W 8090  19.714   2.143   0.727
35666W        W 8091   2.730  41.019   0.839
35667W        W 8092  18.017  12.164   0.899
35668W        W 8093  21.209  26.652  12.327
35669W        W 8094  36.595   2.720   3.863
35670W        W 8095  12.345  34.849  13.170
35671W        W 8096  40.777  41.433   3.647
35672W        W 8097  43.886  17.213  11.305
35673W        W 8098  11.899  19.612   0.238
35674W        W 8099  24.164  18.690  12.582
35675W        W 8100   1.503  21.590   3.160
35676W        W 8101  23.212  41.610   2.687
35677W        W 8102  13.571  33.970   4.646
35678W        W 8103  15.703   7.901   0.472
35679W        W 8104  31.209  42.056  12.275
35680W        W 8105  22.215  25.422   4.073
35681W        W 8106  13.387  21.604  13.061
35682W        W 8107  28.864  15.151   2.167
35683W        W 8108  39.801  18.708   2.323
35684W        W 8109  37.497  34.929   0.415
35685W        W 8110   0.671  19.721  10.719
35686W        W 8111  40.461  22.311   0.984
35687W        W 8112  14.119   2.195   0.830
35688W        W 8113   1.270   3.118  13.420
35689W        W 8114  29.125  19.595   3.929
35690W        W 8115  44.539  19.761   1.901
35691W        W 8116  44.544  21.170   4.015
35692W        W 8117  16.736  35.436   2.962
35693W        W 8118  18.702  30.930   3.615
35694W        W 8119  18.813  34.744  12.346
35695W        W 8120   7.395  17.243   0.441
35696W        W 8121  11.910  36.082   2.906
35697W        W 8122  19.571   1.931  12.141
35698W        W 8123  22.551  29.485   4.660
35699W        W 8124  42.435  18.234   3.053
35700W        W 8125  31.326  23.656   0.416
35701W        W 8126  12.132   8.426   4.197
35702W        W 8127  41.021   5.376   1.789
35703W        W 8128  22.024  20.191   3.652
35704W        W 8129  43.928   9.916  11.375
35705W        W 8130  15.663  38.417   4.845
35706W        W 8131  10.692  23.303   3.187
35707W        W 8132  42.541  13.329  12.559
35708W        W 8133  29.963  27.046  11.604
35709W        W 8134  37.029   3.056  10.494
35710W        W 8135  16.200  33.640   3.301
35711W        W 8136  30.470  31.911  14.258
35712W        W 8137  44.985  14.563   0.601
35713W        W 8138   2.468  24.649  14.855
35714W        W 8139   6.932   2.336  13.466
35715W        W 8140  22.542  19.614   1.849
35716W        W 8141  18.067   1.162  12.449
35717W        W 8142  38.490   1.674  13.308
35718W        W 8143  37.357  19.689  11.279
35719W        W 8144  15.085   8.641  14.394
35720W        W 8145  19.746  37.911   1.135
35721W        W 8146  14.288  19.338   2.296
35722W        W 8147  12.084  23.548  12.496
35723W        W 8148  29.447  36.689   2.608
35724W        W 8149  12.109  29.039  14.314
35725W        W 8150  34.512  43.294   4.137
35726W        W 8151  29.107  22.629   1.145
35727W        W 8152  41.284   1.173  10.885
35728W        W 8153  44.568  23.425  13.125
35729W        W 8154  20.673   0.059   1.655
35730W        W 8155  15.133  31.454  11.981
35731W        W 8156  36.594  15.680  13.448
35732W        W 8157  23.457  10.328  13.537
35733W        W 8158   8.292  43.448  13.319
35734W        W 8159  33.400  41.003  14.066
35735W        W 8160  31.172  27.060   0.452
35736W        W 8161   7.469  29.123  11.948
35737W        W 8162  22.050   1.394  14.814
35738W        W 8163  12.709  18.204  12.915
35739W        W 8164  20.161  43.383  13.858
35740W        W 8165   5.202  42.665   3.417
35741W        W 8166   4.960   9.382   3.278
35742W        W 8167  12.201  35.811  12.979
35743W        W 8168  37.940  26.541  11.986
35744W        W 8169  25.081  12.146  13.355
35745W        W 8170  29.852  28.613  10.685
35746W        W 8171  34.593  27.414   1.370
35747W        W 8172  13.658  13.490  11.827
35748W        W 8173  28.623   2.061   2.389
35749W        W 8174  16.079  40.635   3.652
35750W        W 8175  15.692  37.969   1.008
35751W        W 8176  29.326  44.362   3.598
35752W        W 8177  26.925  41.942   2.659
35753W        W 8178  10.133  14.575  11.940
35754W        W 8179  42.898  41.826  11.586
35755W        W 8180  11.857  11.398   0.879
35756W        W 8181   7.759  24.033   0.889
35757W        W 8182   5.370  32.957   0.892
35758W        W 8183  38.327   4.436  12.043
35759W        W 8184  17.515   4.741   0.944
35760W        W 8185  19.741   4.880  12.109
35761W        W 8186  18.302  43.032   3.212
35762W        W 8187  40.082  19.637  13.823
35763W        W 8188  29.050  32.950  13.031
35764W        W 8189   1.940   2.695  13.932
35765W        W 8190  23.954  16.594   3.246
35766W        W 8191  27.920  20.185   0.824
35767W        W 8192  13.605   6.334  10.705
35768W        W 8193   5.771  18.502  13.363
35769W        W 8194   2.653  34.436   2.563
35770W        W 8195  12.225  12.607  11.206
35771W        W 8196   7.906  19.760   0.789
35772W        W 8197  20.125  15.307   2.157
35773W        W 8198  36.816  28.979  11.638
35774W        W 8199  39.417  17.338  11.587
35775W        W 8200  27.587  17.995   2.341
35776W        W 8201  41.266  33.541  13.066
35777W        W 8202  15.257  42.805   3.783
35778W        W 8203  17.260  24.681   4.559
35779W        W 8204   0.299   4.344   3.316
35780W        W 8205  25.392  18.726  11.660
35781W        W 8206  21.744  36.401   1.757
35782W        W 8207   2.895  44.531  11.702
35783W        W 8208   7.128  11.063   0.852
35784W        W 8209  34.596  31.133  11.170
35785W        W 8210  12.329  23.499   3.211
35786W        W 8211  43.618  27.083   0.481
35787W        W 8212  22.936  22.715   0.700
35788W        W 8213  17.689   0.312  13.517
35789W        W 8214  10.524  30.226   4.173
35790W        W 8215  32.435  10.644   0.360
35791W        W 8216  36.577  38.232   1.387
35792W        W 8217  20.692   7.192   2.212
35793W        W 8218  38.451  33.267   3.435
35794W        W 8219  30.092   0.783  12.079
35795W        W 8220  44.371  18.907  14.517
35796W        W 8221  16.504  36.664  12.638
35797W        W 8222  34.592  21.216  13.914
35798W        W 8223  44.442  43.341   0.768
35799W        W 8224  41.300  21.162  14.952
35800W        W 8225  34.962  30.799  13.272
35801W        W 8226  39.521  31.617   3.143
35802W        W 8227  23.532  28.148  12.065
35803W        W 8228  18.785   1.449  12.948
35804W        W 8229  23.254   2.406  11.054
35805W        W 8230  14.114  20.145  14.844
35806W        W 8231  28.981   7.740  12.381
35807W        W 8232  16.350   8.203  11.629
35808W        W 8233  41.135  43.299   0.890
35809W        W 8234  34.948   0.461   4.258
35810W        W 8235  24.677  36.101   0.708
35811W        W 8236  19.835  25.589  13.942
35812W        W 8237  20.873  12.988   5.134
35813W        W 8238  27.076  33.493   4.209
35814W        W 8239  33.646  25.791   4.130
35815W        W 8240  30.612  10.748   3.747
35816W        W 8241  16.543   8.739  11.449
35817W        W 8242  22.475  33.795  14.534
35818W        W 8243  12.802  14.374   2.469
35819W        W 8244   0.033  24.988  14.313
35820W        W 8245  38.521  18.754  13.952
35821W        W 8246  19.314  30.620   9.950
35822W        W 8247   2.500  33.417   2.205
35823W        W 8248   4.030   1.439   2.650
35824W        W 8249  10.253   5.146  14.774
35825W        W 8250  33.242  35.390   1.883
35826W        W 8251  41.406  10.821   3.944
35827W        W 8252  23.205  17.778   0.766
35828W        W 8253   5.951  31.553  13.625
35829W        W 8254   0.250  18.015   2.704
35830W        W 8255   4.948  44.100   1.418
35831W        W 8256  15.191   0.961   2.135
35832W        W 8257  32.433  27.804   2.145
35833W        W 8258  44.697  43.800  13.527
35834W        W 8259  17.327  21.626  14.534
35835W        W 8260  14.574  42.801  11.969
35836W        W 8261  38.531  12.159  14.019
35837W        W 8262  20.808  32.660   0.366
35838W        W 8263  17.189  33.047  13.595
35839W        W 8264   4.906  32.409  13.745
35840W        W 8265  34.559  43.994   0.519
35841W        W 8266  25.800  17.228  10.693
35842W        W 8267  20.481   4.394  14.024
35843W        W 8268  22.535   9.669   0.361
35844W        W 8269  31.536  24.650   4.504
35845W        W 8270  23.049  38.058   4.128
35846W        W 8271  18.238   6.725  10.792
35847W        W 8272  25.733  33.958   3.268
35848W        W 8273  12.005  40.890  14.414
35849W        W 8274   3.809  14.951  13.899
35850W        W 8275  16.106  37.472  14.823
35851W        W 8276  36.687  25.579   3.864
35852W        W 8277  34.379  32.564  13.054
35853W        W 8278  21.188   1.363  12.781
35854W        W 8279   3.254  20.658  10.713
35855W        W 8280  19.763  43.965  12.039
35856W        W 8281   3.314  33.943   0.033
35857W        W 8282  34.132   1.353  14.823
35858W        W 8283  27.093  27.132   1.459
35859W        W 8284  40.127  25.818   0.917
35860W        W 8285  33.382  26.455   2.456
35861W        W 8286  44.728  18.159  11.343
35862W        W 8287  33.382   6.298   5.086
35863W        W 8288  32.495  21.832  12.448
35864W        W 8289  38.890   7.133   2.326
35865W        W 8290  20.677   0.244  11.479
35866W        W 8291  18.503   8.011   0.651
35867W        W 8292  22.037  10.960  13.999
35868W        W 8293   3.018   0.301  12.891
35869W        W 8294  28.476   5.428  12.517
35870W        W 8295  33.199  13.731   2.269
35871W        W 8296  13.342  32.520  11.409
35872W        W 8297   0.729  43.519   4.570
35873W        W 8298   1.901  31.583  13.394
35874W        W 8299  37.128  24.672   0.508
35875W        W 8300  11.358  12.381   0.282
35876W        W 8301  42.383  32.528   1.020
35877W        W 8302   1.392  29.542   3.338
35878W        W 8303  27.116  19.394  12.964
35879W        W 8304  27.866  26.981   0.268
35880W        W 8305   5.220   0.266   0.920
35881W        W 8306   2.213   7.133   3.571
35882W        W 8307   1.008  42.724   0.912
35883W        W 8308   6.069   1.499  13.066
35884W        W 8309   0.533  10.856   4.568
35885W        W 8310  34.365  34.807   0.823
35886W        W 8311  17.451  17.696  11.047
35887W        W 8312  32.902  16.629   2.399
35888W        W 8313   8.312  31.320  12.100
35889W        W 8314  29.501  26.411   3.268
35890W        W 8315  33.108  34.136  10.787
35891W        W 8316  33.788   9.163  14.215
35892W        W 8317  26.968  42.310  13.558
35893W        W 8318  20.743  43.791   3.385
35894W        W 8319  42.041  42.308  14.419
35895W        W 8320  16.088  14.281  13.075
35896W        W 8321  24.484  13.700   1.367
35897W        W 8322  40.853   3.928   2.344
35898W        W 8323  14.534  44.810  13.909
35899W        W 8324  10.358  40.125   1.337
35900W        W 8325  15.116   2.733   2.649
35901W        W 8326  26.538   8.775   0.004
35902W        W 8327  35.013  36.131  13.933
35903W        W 8328  12.668  27.471   3.283
35904W        W 8329  27.517   8.730  12.936
35905W        W 8330  40.791  22.589   0.653
35906W        W 8331  13.365  22.573  11.904
35907W        W 8332  37.303  12.751  11.638
35908W        W 8333  43.056  30.712  13.411
35909W        W 8334   6.755  20.289   1.700
35910W        W 8335  20.324  29.651  11.150
35911W        W 8336  22.812  37.412  10.696
35912W        W 8337  42.105  37.417   4.497
35913W        W 8338   0.470  31.954   1.137
35914W        W 8339  28.044  32.624  14.909
35915W        W 8340  41.030  24.148  12.841
35916W        W 8341  29.469  15.205   1.188
35917W        W 8342  24.962  27.531   4.060
35918W        W 8343  39.881  17.015  11.661
35919W        W 8344  13.109  11.539  12.393
35920W        W 8345  42.891  26.420  14.085
35921W        W 8346  36.198   7.379   0.725
35922W        W 8347  30.647  40.317   3.147
35923W        W 8348   8.237   5.438  14.345
35924W        W 8349  41.038  36.884  14.500
35925W        W 8350  24.937  32.906  11.870
35926W        W 8351   5.795  11.473  10.753
35927W        W 8352  39.022  17.635   1.244
35928W        W 8353  11.249   1.777  11.514
35929W        W 8354  42.025  29.143   4.605
35930W        W 8355  29.897  12.600   1.195
35931W        W 8356  14.812  39.950  14.446
35932W        W 8357  23.950  38.899  11.965
35933W        W 8358  27.402  20.325  11.999
35934W        W 8359   3.943  41.538   2.278
35935W        W 8360  24.985  42.276  12.387
35936W        W 8361  29.195  39.799  13.484
35937W        W 8362   7.621  13.287  13.908
35938W        W 8363  23.980   3.989   2.395
35939W        W 8364  15.418  20.304  13.038
35940W        W 8365  36.343  21.553   1.756
35941W        W 8366  24.023  42.895   0.233
35942W        W 8367  41.484   4.236   2.298
35943W        W 8368  17.503   8.690  11.095
35944W        W 8369   6.162  42.410  11.698
35945W        W 8370  30.214  43.484  12.912
35946W        W 8371   7.533  37.333  11.455
35947W        W 8372  17.544  13.834  11.526
35948W        W 8373  24.318   0.774   3.587
35949W        W 8374  35.670  26.266   3.806
35950W        W 8375  25.045  18.943  13.480
35951W        W 8376  11.791   1.888   5.054
35952W        W 8377  39.946  39.065   2.755
35953W        W 8378  43.518  39.481   1.649
35954W        W 8379   1.866  14.894  11.175
35955W        W 8380   7.650  21.464   3.584
35956W        W 8381  24.038   1.948   4.077
35957W        W 8382  26.995   8.666  13.629
35958W        W 8383   3.939  30.621  13.109
35959W        W 8384  26.433  12.105   1.386
35960W        W 8385  37.792  35.510   2.947
35961W        W 8386  34.879   4.808   1.800
35962W        W 8387  32.888  32.008   0.782
35963W        W 8388  44.502  17.032   3.297
35964W        W 8389  37.202  34.035   0.362
35965W        W 8390  12.171  39.643  14.851
35966W        W 8391  16.225  15.196   4.094
35967W        W 8392  26.165   0.047   4.584
35968W        W 8393  40.376  25.052   5.571
35969W        W 8394  25.641   2.140   1.920
35970W        W 8395  43.080  25.506  12.881
35971W        W 8396  28.779  16.616   2.227
35972W        W 8397   1.920  26.708  12.939
35973W        W 8398  24.155  20.573  13.458
35974W        W 8399  24.927  11.304   2.881
35975W        W 8400  11.161  17.484   4.800
35976W        W 8401  37.462  11.164   4.599
35977W        W 8402   7.392   3.040   0.473
35978W        W 8403  41.623  12.414  12.467
35979W        W 8404  21.995  34.617  11.506
35980W        W 8405  11.751  29.996   0.406
35981W        W 8406   3.668  36.760   1.829
35982W        W 8407  24.570  21.377   0.477
35983W        W 8408   4.674  32.638  14.640
35984W        W 8409  18.172  18.596   4.575
35985W        W 8410  40.235  15.540   3.692
35986W        W 8411  31.119  17.254  13.596
35987W        W 8412  22.063  43.141  11.520
35988W        W 8413  25.262  41.098   0.518
35989W        W 8414   8.828  44.200  10.159
35990W        W 8415   1.687   7.735  13.271
35991W        W 8416  30.586   2.879  11.413
35992W        W 8417  22.827   1.983  11.993
35993W        W 8418  29.500  15.132  13.496
35994W        W 8419  44.264  30.533   2.445
35995W        W 8420  37.654   9.157   0.561
35996W        W 8421  27.747  23.701  11.212
35997W        W 8422  33.125  15.586  12.462
35998W        W 8423  20.360  32.602  13.960
35999W        W 8424  35.500  10.180   1.416
36000W        W 8425  44.318  34.138   4.099
36001W        W 8426  37.824  37.059   1.662
36002W        W 8427  44.844  31.722  13.038
36003W        W 8428  22.220  42.930  13.833
36004W        W 8429   3.821   4.062   2.862
36005W        W 8430  35.562   8.490  12.457
36006W        W 8431  27.897  21.138   0.055
36007W        W 8432  41.599   0.197   2.627
36008W        W 8433  43.869  39.478  14.980
36009W        W 8434  19.729  29.271   0.265
36010W        W 8435  31.055  14.916   4.047
36011W        W 8436  16.087  22.007  11.194
36012W        W 8437  14.601  37.730   4.633
36013W        W 8438  31.447  34.192  14.242
36014W        W 8439  13.657  33.031  14.808
36015W        W 8440   2.435  42.006   0.514
36016W        W 8441   5.475   3.318   3.572
36017W        W 8442   7.739  30.618  13.486
36018W        W 8443  16.714  44.886   4.309
36019W        W 8444   6.651   8.682  14.568
36020W        W 8445  29.839  22.654   0.873
36021W        W 8446   7.945  23.870   0.423
36022W        W 8447  25.462  24.115  14.019
36023W        W 8448  10.300  33.847  11.805
36024W        W 8449   7.129  14.332   1.312
36025W        W 8450  29.171  36.995  13.074
36026W        W 8451  21.283   4.116   2.927
36027W        W 8452  24.641  30.226   2.378
36028W        W 8453  17.628   5.482   4.091
36029W        W 8454  25.569  26.451  12.223
36030W        W 8455   4.673  40.540   2.078
36031W        W 8456  28.536  35.036  14.713
36032W        W 8457  38.013  31.093   1.373
36033W        W 8458  16.565  22.734  11.275
36034W        W 8459  33.693  11.596   0.294
36035W        W 8460  40.058   3.965   2.270
36036W        W 8461  40.938   0.321  10.688
36037W        W 8462  31.092  36.076  10.101
36038W        W 8463  44.291  12.703   9.880
36039W        W 8464  28.472   1.241   0.640
36040W        W 8465  22.926   0.276  10.385
36041W        W 8466  20.541  33.399   4.812
36042W        W 8467  19.065   8.278   1.739
36043W        W 8468  40.375   0.890  13.434
36044W        W 8469  34.830  21.793  13.052
36045W        W 8470  12.256   4.606   9.740
36046W        W 8471   3.316  18.737  12.097
36047W        W 8472   6.085  17.360  11.856
36048W        W 8473  37.961   3.062  13.811
36049W        W 8474   7.687  36.495  13.491
36050W        W 8475  44.933  11.069   0.989
36051W        W 8476  20.947  36.052  10.187
36052W        W 8477  44.422  26.661  11.199
36053W        W 8478  44.915   3.166  13.368
36054W        W 8479   2.909  40.303  13.316
36055W        W 8480  16.713   4.780   3.611
36056W        W 8481  16.843  16.082  14.331
36057W        W 8482  28.489  19.207  11.149
36058W        W 8483   5.890   0.446  12.029
36059W        W 8484  36.683  29.008   1.805
36060W        W 8485   5.984   9.719  11.067
36061W        W 8486  13.866  22.779   1.358
36062W        W 8487   4.885   7.273   4.563
36063W        W 8488   2.447  10.378   2.264
36064W        W 8489   2.452  13.792  12.867
36065W        W 8490   5.856   9.167   4.035
36066W        W 8491  12.892  42.396  11.809
36067W        W 8492  19.918  27.365  10.665
36068W        W 8493  28.065  21.810   1.265
36069W        W 8494  37.826  10.130   2.274
36070W        W 8495  40.000  10.398  13.430
36071W        W 8496  16.365  18.492  11.172
36072W        W 8497  15.134  42.814  14.371
36073W        W 8498   8.205   2.814  14.724
36074W        W 8499  19.746   9.272   1.266
36075W        W 8500  22.476  43.754  10.132
36076W        W 8501  29.028   1.226   2.418
36077W        W 8502  18.964   3.829  14.725
36078W        W 8503   9.143  32.709   4.860
36079W        W 8504  15.107  39.572   2.314
36080W        W 8505  33.825  30.356  13.958
36081W        W 8506  12.784   6.476  12.899
36082W        W 8507  11.748  27.564  11.891
36083W        W 8508  44.768  18.219   0.410
36084W        W 8509  32.823   9.944   4.726
36085W        W 8510  32.915   8.309  10.670
36086W        W 8511  15.699  44.435   0.117
36087W        W 8512   7.023  42.324  12.895
36088W        W 8513  35.956  31.509   1.575
36089W        W 8514  19.667   4.357   0.404
36090W        W 8515  27.910  10.792   0.208
36091W        W 8516  37.433  42.988  10.951
36092W        W 8517  40.548  13.340  11.255
36093W        W 8518  15.599   9.837  13.961
36094W        W 8519  24.546  27.712  14.845
36095W        W 8520  44.890  21.262  10.570
36096W        W 8521  29.944  42.592  11.920
36097W        W 8522  28.624  35.503  11.153
36098W        W 8523  14.872  38.558  13.564
36099W        W 8524  44.914   7.870   1.483
36100W        W 8525  39.371   2.175   2.383
36101W        W 8526  35.515  15.346  13.604
36102W        W 8527  31.881  19.199  12.860
36103W        W 8528  17.052   2.371   2.132
36104W        W 8529   5.433  44.940  14.031
36105W        W 8530  23.246  18.278   2.679
36106W        W 8531   6.670  35.814  12.441
36107W        W 8532  37.997  41.741  12.396
36108W        W 8533  21.061  40.400   2.731
36109W        W 8534  29.675  16.346   3.562
36110W        W 8535  34.594  37.455   2.112
36111W        W 8536  42.432   1.441  13.943
36112W        W 8537   8.597  17.595   4.287
36113W        W 8538  25.941   3.429  11.487
36114W        W 8539   6.737  12.862  14.084
36115W        W 8540   7.616  28.430   3.214
36116W        W 8541  36.603  10.987   4.061
36117W        W 8542  35.679   4.257   4.541
36118W        W 8543  43.409  15.442  10.370
36119W        W 8544  34.734   8.639   2.251
36120W        W 8545  39.825  33.900   4.507
36121W        W 8546  29.185  29.559   1.364
36122W        W 8547  28.938  35.369  14.577
36123W        W 8548  42.976  42.992   3.858
36124W        W 8549  44.906  21.834  13.431
36125W        W 8550  11.757  36.874   3.318
36126W        W 8551   2.808  41.327   0.434
36127W        W 8552  11.394  31.692   4.219
36128W        W 8553  22.078   6.861   4.489
36129W        W 8554  29.846  22.241   4.169
36130W        W 8555  18.644  26.716  13.483
36131W        W 8556   7.951   8.108   0.245
36132W        W 8557   5.708  21.224   4.593
36133W        W 8558  20.974  12.032   5.151
36134W        W 8559  43.739  22.941   3.679
36135W        W 8560  28.241  27.756   2.814
36136W        W 8561   8.668   4.770  11.841
36137W        W 8562  37.115  44.968  14.335
36138W        W 8563  30.333   2.433   5.013
36139W        W 8564  12.137  34.016  12.501
36140W        W 8565  17.480  42.389   1.856
36141W        W 8566  14.211  36.990   3.208
36142W        W 8567  44.820  26.430   2.345
36143W        W 8568   5.370  16.636   3.354
36144W        W 8569  39.601   1.257  14.454
36145W        W 8570  31.130  33.564  11.890
36146W        W 8571   9.722   2.823   1.218
36147W        W 8572   8.606   4.843  13.729
36148W        W 8573  10.521  19.584  10.382
36149W        W 8574   6.492  18.867  14.926
36150W        W 8575  37.989   2.725  10.981
36151W        W 8576   1.786  41.391  12.999
36152W        W 8577  44.471  29.832  12.052
36153W        W 8578   4.926  30.377  12.467
36154W        W 8579  26.619  15.867  10.139
36155W        W 8580  16.669  42.873  10.249
36156W        W 8581   6.337   0.600   2.420
36157W        W 8582  15.626  31.993   1.477
36158W        W 8583  27.523  36.351   2.952
36159W        W 8584  24.855  18.203   1.957
36160W        W 8585  16.635   5.360   4.340
36161W        W 8586  36.538   3.256   1.373
36162W        W 8587  41.511   0.772  11.986
36163W        W 8588  15.646  18.156  10.951
36164W        W 8589  41.552  17.259   0.472
36165W        W 8590   9.193   0.992  12.739
36166W        W 8591  11.615  41.302   1.829
36167W        W 8592   5.215  30.521  12.036
36168W        W 8593  37.260  31.543   3.211
36169W        W 8594  18.420  13.169   0.660
36170W        W 8595   8.669  23.019   1.776
36171W        W 8596  40.587  12.653   0.410
36172W        W 8597   6.831   9.556   0.203
36173W        W 8598  36.984  26.812   3.701
36174W        W 8599  31.996  38.607  12.315
36175W        W 8600  25.898  41.860   1.843
36176W        W 8601  18.008  11.644   0.867
36177W        W 8602  26.530  11.912   0.240
36178W        W 8603   6.735  25.498  13.100
36179W        W 8604  43.515   7.937  12.552
36180W        W 8605  30.664  24.487   3.248
36181W        W 8606  13.168  30.738  12.114
36182W        W 8607   2.639  10.167   4.837
36183W        W 8608  35.782  21.767   0.399
36184W        W 8609   3.155  16.531   3.940
36185W        W 8610  28.387  42.310  14.933
36186W        W 8611  44.528   4.432   2.251
36187W        W 8612  18.192   1.826  12.415
36188W        W 8613  26.924  44.492   2.568
36189W        W 8614   8.726  41.894  11.705
36190W        W 8615  25.004  12.605  13.557
36191W        W 8616  17.435  44.863   3.740
36192W        W 8617  22.402  21.786  12.924
36193W        W 8618   0.258   1.985   0.618
36194W        W 8619   6.418  35.410  13.184
36195W        W 8620   2.626   1.194   1.940
36196W        W 8621  38.787  13.145   0.495
36197W        W 8622  17.053  20.495   2.739
36198W        W 8623  34.017  28.185   3.220
36199W        W 8624  10.060  23.812  13.018
36200W        W 8625  32.175  36.969  10.978
36201W        W 8626  30.590  37.118  12.404
36202W        W 8627  29.578  43.930  10.620
36203W        W 8628  14.806  35.457   0.089
36204W        W 8629   1.169  24.701  10.349
36205W        W 8630  35.408   3.346  14.321
36206W        W 8631   5.349   4.221   3.873
36207W        W 8632   0.676   1.921  12.132
36208W        W 8633   8.391  11.586  11.080
36209W        W 8634   1.848  29.701   3.164
36210W        W 8635   4.427  27.216   3.013
36211W        W 8636  10.691  31.896  14.041
36212W        W 8637  37.409  30.040  11.885
36213W        W 8638  10.073  38.358  11.270
36214W        W 8639  28.982  33.375  10.756
36215W        W 8640  17.684  23.732   1.778
36216W        W 8641  34.361  26.545   2.201
36217W        W 8642   6.018  27.664  14.763
36218W        W 8643  37.537  30.954  11.215
36219W        W 8644  10.797   2.669  10.636
36220W        W 8645  39.452  17.054  12.002
36221W        W 8646  21.143  41.004   1.379
36222W        W 8647  32.423  25.053   3.210
36223W        W 8648  42.582  32.989  13.954
36224W        W 8649  20.178  41.994  14.943
36225W        W 8650   5.658  16.663   1.445
36226W        W 8651   9.343  13.354  13.868
36227W        W 8652  27.526  40.885   5.451
36228W        W 8653   5.393  17.545   2.180
36229W        W 8654  34.784  10.855   2.862
36230W        W 8655  16.355   6.739   4.613
36231W        W 8656  12.724  38.397  12.458
36232W        W 8657  44.539  36.423   0.267
36233W        W 8658   2.245  28.605   0.544
36234W        W 8659  18.151  25.247  14.942
36235W        W 8660   3.859  27.979   4.228
36236W        W 8661  24.245   8.019   1.190
36237W        W 8662  35.105  41.020  11.644
36238W        W 8663  24.216   5.993   0.270
36239W        W 8664  14.730  13.639  11.362
36240W        W 8665   0.796  33.312  14.844
36241W        W 8666  30.832   0.440   4.787
36242W        W 8667  10.312  18.416   2.104
36243W        W 8668  25.461  34.519   4.058
36244W        W 8669  19.262  27.898  12.136
36245W        W 8670  29.176  28.033  14.947
36246W        W 8671  11.090   8.249  12.607
36247W        W 8672  33.501  15.791  14.426
36248W        W 8673  38.015  12.653  13.487
36249W        W 8674   6.048  27.220   0.005
36250W        W 8675   0.206  14.161   4.215
36251W        W 8676   8.144  22.278   3.232
36252W        W 8677  28.493   2.144   4.589
36253W        W 8678  24.197   2.217   2.724
36254W        W 8679  33.609  38.916   1.764
36255W        W 8680  13.393  29.816   4.189
36256W        W 8681  32.031   2.211   3.754
36257W        W 8682  41.735  23.048   0.351
36258W        W 8683   5.904   9.707   0.653
36259W        W 8684  39.823  40.134   3.567
36260W        W 8685   5.380  38.253  12.518
36261W        W 8686   3.462  40.743   3.656
36262W        W 8687   2.881  19.266  12.955
36263W        W 8688  17.275  19.243  14.508
36264W        W 8689  25.177  29.463  12.367
36265W        W 8690   1.331  38.362  14.481
36266W        W 8691  28.937   0.539  11.575
36267W        W 8692  19.488  44.740  11.416
36268W        W 8693   8.570  41.477   0.996
36269W        W 8694  30.967  44.191   2.713
36270W        W 8695  19.635  44.150  10.336
36271W        W 8696  32.350  37.042   2.507
36272W        W 8697   8.694  33.002   2.791
36273W        W 8698  28.979  34.637   1.246
36274W        W 8699  23.264  19.230   1.780
36275W        W 8700  43.856  16.760   1.180
36276W        W 8701  43.500  15.588   0.483
36277W        W 8702  40.480  32.361  11.598
36278W        W 8703  42.613   5.775   3.133
36279W        W 8704   0.221   4.865  11.478
36280W        W 8705  33.580   4.695  10.769
36281W        W 8706   0.979   7.361  11.573
36282W        W 8707  17.305  31.567   1.991
36283W        W 8708  36.604  27.142   3.519
36284W        W 8709  10.661  19.169   2.481
36285W        W 8710  16.538  36.910   1.215
36286W        W 8711   0.825  28.230   0.784
36287W        W 8712  10.026  18.057   3.677
36288W        W 8713  22.227  26.105  11.849
36289W        W 8714  36.643  10.278   0.195
36290W        W 8715  34.603   8.434  10.660
36291W        W 8716  15.205   2.486   1.747
36292W        W 8717  18.690  29.690   4.144
36293W        W 8718   5.780  10.928   3.659
36294W        W 8719  23.026  27.703   2.486
36295W        W 8720   6.950   4.698  12.829
36296W        W 8721   9.822  27.589   0.835
36297W        W 8722  19.468  15.997  11.196
36298W        W 8723  41.554  35.848   0.922
36299W        W 8724  43.898  11.362   0.295
36300W        W 8725  20.009   4.635  11.416
36301W        W 8726  14.586   8.779   1.172
36302W        W 8727  18.128  26.759   4.674
36303W        W 8728   6.228  11.723  10.640
36304W        W 8729   6.206  25.268  14.308
36305W        W 8730  43.123  11.690  11.468
36306W        W 8731   9.894  26.646   4.491
36307W        W 8732   1.463   6.662   0.352
36308W        W 8733  35.420   7.698   1.923
36309W        W 8734  38.597  26.806  12.411
36310W        W 8735   2.652   1.745  12.961
36311W        W 8736  35.903  10.188   2.185
36312W        W 8737  34.590  34.854   4.121
36313W        W 8738  17.359  23.128   4.623
36314W        W 8739  41.086   2.701   2.692
36315W        W 8740   5.941  37.324   3.940
36316W        W 8741  31.614  10.599  14.901
36317W        W 8742   7.642   9.363  14.803
36318W        W 8743  25.223  10.860   2.872
36319W        W 8744  31.659   4.871   0.367
36320W        W 8745  22.674  42.434   4.392
36321W        W 8746  17.783   8.229  12.669
36322W        W 8747  28.919  41.776   0.401
36323W        W 8748   1.394  44.049  13.592
36324W        W 8749  25.842  44.758   1.577
36325W        W 8750   0.243  43.787  13.960
36326W        W 8751  37.180   0.776   4.876
36327W        W 8752  43.014  41.426   3.716
36328W        W 8753   7.618  23.631   3.254
36329W        W 8754   7.706   9.703   4.473
36330W        W 8755  33.307  20.636   4.014
36331W        W 8756  17.667  21.809  14.892
36332W        W 8757  44.344  39.106   2.642
36333W        W 8758  12.971  22.667  11.540
36334W        W 8759  42.773  14.716  12.527
36335W        W 8760  19.396  27.309   3.942
36336W        W 8761  41.294  11.741  11.199
36337W        W 8762  26.004   5.337   3.421
36338W        W 8763  13.052  44.866  12.922
36339W        W 8764  36.756  25.191  14.400
36340W        W 8765  31.629   8.573   3.638
36341W        W 8766   1.301  32.421  10.221
36342W        W 8767  42.278  41.986   4.177
36343W        W 8768  40.349   7.714   2.330
36344W        W 8769   7.429   0.828   0.306
36345W        W 8770  12.289  12.837   0.368
36346W        W 8771  28.108  16.122   3.728
36347W        W 8772  42.372  15.080   2.295
36348W        W 8773  44.846  30.615  10.651
36349W        W 8774  21.318  43.348  11.138
36350W        W 8775  21.488  12.050   0.827
36351W        W 8776  10.257  35.048  12.107
36352W        W 8777   5.882  25.282  10.716
36353W        W 8778  24.178  12.697   3.744
36354W        W 8779  34.139  16.625  13.258
36355W        W 8780  44.287   2.982  12.986
36356W        W 8781   6.933  19.684  12.938
36357W        W 8782   3.138  44.486  12.932
36358W        W 8783  21.725  19.753   5.094
36359W        W 8784   5.231   9.954  13.546
36360W        W 8785  11.723  30.378   3.683
36361W        W 8786  33.158  17.239  11.539
36362W        W 8787   1.138  21.101  11.231
36363W        W 8788  40.552  19.724  13.995
36364W        W 8789  14.809  39.092   4.172
36365W        W 8790   2.906  31.873   2.706
36366W        W 8791   5.467  40.359   2.205
36367W        W 8792   0.858  36.635  11.555
36368W        W 8793  44.016   1.295   3.878
36369W        W 8794   2.584   1.543   0.742
36370W        W 8795   5.746   7.231   4.626
36371W        W 8796  42.573  10.603  14.766
36372W        W 8797  29.388  27.630   3.748
36373W        W 8798  24.382  16.689  12.572
36374W        W 8799  13.966  10.553  11.162
36375W        W 8800  35.232  18.165  10.812
36376W        W 8801  31.945  27.070  11.275
36377W        W 8802  40.737  22.479  14.739
36378W        W 8803  16.590  33.223  13.697
36379W        W 8804   2.529  42.039   3.506
36380W        W 8805  43.758  35.892   1.233
36381W        W 8806  21.036  44.798  13.351
36382W        W 8807  14.316  24.662   3.689
36383W        W 8808  20.580  12.314   9.618
36384W        W 8809   1.214  18.058  14.269
36385W        W 8810  18.834  26.456  13.947
36386W        W 8811  29.500  14.379   4.149
36387W        W 8812  31.427  27.404  12.905
36388W        W 8813  15.785  43.565   0.676
36389W        W 8814   1.437  26.390   1.617
36390W        W 8815  28.678  20.864  12.520
36391W        W 8816  18.494  12.619  10.919
36392W        W 8817  33.834   1.778  14.829
36393W        W 8818   2.699  42.839   4.151
36394W        W 8819  20.058  42.056  11.100
36395W        W 8820  18.561  29.415  11.416
36396W        W 8821  40.035   3.881   3.826
36397W        W 8822  43.804   1.941   4.072
36398W        W 8823  20.199  22.108   1.692
36399W        W 8824  13.645  36.613   4.169
36400W        W 8825   2.764   2.406  10.722
36401W        W 8826  35.499  11.820   1.000
36402W        W 8827  43.307  34.058  12.246
36403W        W 8828   9.904  23.596  12.514
36404W        W 8829  19.151  12.167  14.948
36405W        W 8830   6.189  12.149  10.918
36406W        W 8831  23.113   8.471  11.549
36407W        W 8832  31.994  44.656  14.435
36408W        W 8833  12.657  41.850   0.869
36409W        W 8834  35.758  15.739  10.908
36410W        W 8835  23.599  15.320   2.124
36411W        W 8836   3.062  27.833  13.594
36412W        W 8837  28.951  22.708  14.641
36413W        W 8838  20.058  41.983   1.302
36414W        W 8839  29.887  41.434  13.345
36415W        W 8840  28.007  34.763   3.729
36416W        W 8841   7.207  35.351   3.204
36417W        W 8842   2.428   9.263  13.050
36418W        W 8843   0.269  15.265  14.495
36419W        W 8844  19.113   7.160   1.605
36420W        W 8845  18.214  37.849   2.770
36421W        W 8846   8.299  17.522   3.383
36422W        W 8847  17.115  20.827   4.087
36423W        W 8848  15.269   7.672  12.415
36424W        W 8849  36.174   2.747   0.093
36425W        W 8850  13.837   4.004   0.924
36426W        W 8851  41.247  23.681  13.349
36427W        W 8852   5.319  28.398  11.497
36428W        W 8853  28.622   1.226  13.944
36429W        W 8854   5.856  33.176   1.168
36430W        W 8855  38.862  24.420   4.630
36431W        W 8856  13.222  44.394   4.059
36432W        W 8857  13.092   7.654   0.857
36433W        W 8858  31.892  32.960   1.603
36434W        W 8859  14.676   4.855   2.149
36435W        W 8860  15.187  12.222   1.397
36436W        W 8861  29.795   9.907   0.268
36437W        W 8862  23.911  32.233  13.924
36438W        W 8863  39.564  29.679   3.207
36439W        W 8864  37.045  15.192   2.344
36440W        W 8865  17.333   3.772   4.359
36441W        W 8866  10.643  24.228   4.151
36442W        W 8867  35.934  19.242   4.235
36443W        W 8868  14.607  12.069  11.196
36444W        W 8869  14.832  32.211  11.198
36445W        W 8870  11.769  29.467  13.800
36446W        W 8871  38.202  24.456  11.149
36447W        W 8872  36.587  22.636  12.432
36448W        W 8873  38.983   1.468   0.785
36449W        W 8874   7.238   1.458  14.364
36450W        W 8875  44.791  18.603  13.582
36451W        W 8876  35.957  20.475  11.348
36452W        W 8877  14.565  22.756  11.170
36453W        W 8878  11.953   4.455  11.347
36454W        W 8879  22.454   0.567   2.470
36455W        W 8880  31.548   1.867  10.341
36456W        W 8881  11.187  32.118  13.551
36457W        W 8882  12.308   1.834  11.880
36458W        W 8883  11.900  40.672  13.879
36459W        W 8884  35.053   4.311  14.435
36460W        W 8885   6.665  28.263   4.314
36461W        W 8886  35.031  16.726  10.812
36462W        W 8887   8.833   1.463  13.967
36463W        W 8888  11.108  37.346   0.491
36464W        W 8889  19.940   8.300   4.119
36465W        W 8890  34.853   0.205   4.721
36466W        W 8891  26.728  24.696   3.727
36467W        W 8892  26.926  20.022  13.426
36468W        W 8893   4.019  24.709  14.434
36469W        W 8894  13.645   2.387  13.420
36470W        W 8895  40.652  13.583   2.829
36471W        W 8896  19.033  28.002   2.196
36472W        W 8897  11.900  19.992  13.951
36473W        W 8898  41.485  43.795   3.631
36474W        W 8899  37.369  43.232  11.904
36475W        W 8900  23.593  29.375   3.754
36476W        W 8901  35.769  27.541  12.822
36477W        W 8902  10.708  29.095   2.747
36478W        W 8903  11.827  30.406   2.753
36479W        W 8904  30.544  16.879  12.657
36480W        W 8905  42.084  16.046   3.725
36481W        W 8906  17.390  34.564   1.781
36482W        W 8907  21.601  33.141  12.862
36483W        W 8908  33.997  21.020  12.684
36484W        W 8909  30.104   4.196  11.670
36485W        W 8910  22.238  38.111   2.866
36486W        W 8911  15.789  32.017  13.922
36487W        W 8912  15.334  40.963   0.439
36488W        W 8913   2.656  32.374   2.808
36489W        W 8914   4.493  33.391  12.142
36490W        W 8915  16.593   2.398   2.411
36491W        W 8916   3.878  13.447  10.780
36492W        W 8917   7.427  34.201  14.460
36493W        W 8918  27.228  17.625   1.866
36494W        W 8919  33.332  16.961  13.722
36495W        W 8920  43.536   6.653  13.831
36496W        W 8921  17.127  20.956   1.544
36497W        W 8922   9.900  16.586  12.165
36498W        W 8923  11.054  18.999  14.716
36499W        W 8924  11.398  14.192   3.300
36500W        W 8925  29.260  24.459   1.007
36501W        W 8926  10.850   1.461  13.998
36502W        W 8927  29.890  30.490  12.624
36503W        W 8928   0.048  19.078   0.859
36504W        W 8929  40.304  12.681  10.400
36505W        W 8930  35.185  26.256   0.889
36506W        W 8931  27.616  42.893   0.071
36507W        W 8932  28.933  43.026   2.836
36508W        W 8933   6.158   8.609   2.862
36509W        W 8934  15.023  35.357  11.005
36510W        W 8935  20.463  41.079  14.869
36511W        W 8936  11.787  28.606   2.432
36512W        W 8937  11.230  39.116  14.012
36513W        W 8938  14.848  38.953   0.230
36514W        W 8939  11.333  22.997  10.664
36515W        W 8940  37.598  16.077  11.439
36516W        W 8941  33.758  26.591  11.643
36517W        W 8942   0.395   1.468  12.103
36518W        W 8943  10.771  29.925  13.527
36519W        W 8944  28.052  16.391  12.907
36520W        W 8945   9.564  13.358  11.166
36521W        W 8946  34.412  30.767  10.810
36522W        W 8947  17.276  44.340  12.554
36523W        W 8948  14.045  32.047  12.855
36524W        W 8949  11.657   4.380  12.051
36525W        W 8950  14.196   8.190   2.642
36526W        W 8951  40.439  11.987   4.571
36527W        W 8952  23.118  11.225   0.329
36528W        W 8953  44.037  12.421  13.894
36529W        W 8954  42.890   6.204  12.795
36530W        W 8955  15.347  30.287   2.251
36531W        W 8956  35.482  44.261  14.325
36532W        W 8957  34.179  31.825  11.574
36533W        W 8958  41.222  35.462  13.789
36534W        W 8959  18.219   1.856   4.419
36535W        W 8960  20.218  43.780   1.860
36536W        W 8961  32.523  29.731   2.132
36537W        W 8962  30.687  18.594  11.982
36538W        W 8963  37.920  23.046   4.492
36539W        W 8964  14.727  34.044  11.925
36540W        W 8965  39.463  27.354   1.871
36541W        W 8966  16.858  14.238  14.475
36542W        W 8967   1.680   4.731  13.898
36543W        W 8968   3.386  36.046   3.846
36544W        W 8969   6.406  15.475   1.189
36545W        W 8970  10.777  23.617  11.111
36546W        W 8971  18.409  42.332  14.151
36547W        W 8972   1.436  15.673   3.594
36548W        W 8973  24.078  44.526  13.757
36549W        W 8974  11.354   6.608  11.601
36550W        W 8975  28.947  16.333   1.821
36551W        W 8976   9.383   8.702  10.887
36552W        W 8977  17.206  41.832  10.448
36553W        W 8978   7.756  33.183   3.614
36554W        W 8979  23.574  18.133   4.392
36555W        W 8980  38.041  12.193  11.559
36556W        W 8981  38.856   2.741  10.916
36557W        W 8982   8.221  41.121  11.540
36558W        W 8983   4.482  10.657  12.810
36559W        W 8984  31.601  11.145   0.803
36560W        W 8985  22.483  31.489   1.983
36561W        W 8986  12.701   3.732  14.990
36562W        W 8987   9.908   4.746   3.605
36563W        W 8988   2.268   1.345   2.267
36564W        W 8989   8.255  15.296  11.268
36565W        W 8990  29.161  30.395  13.004
36566W        W 8991  28.082  44.441  13.495
36567W        W 8992  17.316  18.068  10.713
36568W        W 8993  16.367   8.332  14.464
36569W        W 8994  22.806  28.312   2.610
36570W        W 8995  30.340   2.915  13.907
36571W        W 8996  28.973  24.138   0.687
36572W        W 8997   9.617  19.717  14.225
36573W        W 8998  14.021  32.057   0.809
36574W        W 8999   9.867   5.009   0.511
36575W        W 9000  11.791  39.335   1.833
36576W        W 9001   9.902   3.566   3.323
36577W        W 9002   4.185  44.214   4.162
36578W        W 9003  11.634  33.431  14.887
36579W        W 9004  39.456  16.532   2.791
36580W        W 9005  35.118  38.590  13.941
36581W        W 9006  42.122  42.468   0.903
36582W        W 9007   0.454  27.897   2.871
36583W        W 9008  35.187  38.070   3.294
36584W        W 9009   5.507  14.064   1.745
36585W        W 9010  36.513  14.386   0.823
36586W        W 9011  12.204  33.082  13.739
36587W        W 9012  32.923   0.305   3.407
36588W        W 9013  43.905  13.198   0.798
36589W        W 9014  18.818  18.570  12.520
36590W        W 9015  38.745  30.013   2.797
36591W        W 9016  21.195  38.880  12.889
36592W        W 9017  38.564  22.093   3.698
36593W        W 9018  33.361  20.196  14.240
36594W        W 9019  29.640   9.971  12.112
36595W        W 9020  36.376  25.220  10.133
36596W        W 9021  37.752  23.099  11.848
36597W        W 9022   9.067  38.740  12.113
36598W        W 9023  32.127  25.588   4.832
36599W        W 9024  17.058   4.438  10.128
36600W        W 9025  29.553  11.486   0.892
36601W        W 9026  41.489   2.400   2.468
36602W        W 9027   5.314  25.894  12.498
36603W        W 9028   9.033   3.612   3.839
36604W        W 9029   3.291  32.086   2.180
36605W        W 9030  16.346   2.242   4.368
36606W        W 9031  19.217  24.721  10.780
36607W        W 9032  28.495   5.557  10.673
36608W        W 9033   9.223   1.491   2.919
36609W        W 9034   6.093  17.799  12.998
36610W        W 9035   9.700  28.627  12.374
36611W        W 9036   8.888  43.734  12.728
36612W        W 9037  36.652   5.728  14.296
36613W        W 9038  30.269   0.828   2.546
36614W        W 9039   1.341  28.186   1.456
36615W        W 9040  33.077  11.433   2.222
36616W        W 9041  44.329   3.236  14.287
36617W        W 9042   6.705   2.565   4.206
36618W        W 9043  12.909  34.894   2.770
36619W        W 9044   5.611  28.639  14.971
36620W        W 9045   4.433  14.111   0.344
36621W        W 9046  24.739   7.189   3.096
36622W        W 9047  39.579  43.371   4.883
36623W        W 9048  34.441  17.279   1.407
36624W        W 9049  37.714   1.978  13.003
36625W        W 9050  36.418  29.859   0.424
36626W        W 9051  42.003  34.208   9.984
36627W        W 9052  18.207  22.171  10.527
36628W        W 9053   6.647  30.448   3.140
36629W        W 9054  13.762   3.033   2.715
36630W        W 9055  15.013  23.026  11.960
36631W        W 9056  21.494  44.782  12.429
36632W        W 9057  18.139  43.221   3.685
36633W        W 9058  33.662  11.736  12.259
36634W        W 9059  16.381  27.031  13.797
36635W        W 9060  30.943  18.805   3.663
36636W        W 9061  25.666  10.461  10.760
36637W        W 9062  28.729   0.761   4.073
36638W        W 9063  41.975  10.177  14.023
36639W        W 9064  35.366  17.079  14.872
36640W        W 9065  24.987  24.543  14.400
36641W        W 9066  44.540   4.953  10.286
36642W        W 9067  13.765   0.484  10.278
36643W        W 9068  38.076  25.206  12.014
36644W        W 9069  26.176  33.058   1.288
36645W        W 9070  15.697  44.752  10.704
36646W        W 9071  32.456   5.267  11.956
36647W        W 9072  38.653  30.580   2.638
36648W        W 9073  37.842   0.684  11.172
36649W        W 9074  26.278  17.156  10.439
36650W        W 9075   0.551  12.799  11.307
36651W        W 9076  41.079  24.961  12.306
36652W        W 9077   4.180  34.985  12.123
36653W        W 9078  20.827  32.737  12.940
36654W        W 9079  44.023  14.493   4.971
36655W        W 9080  32.989  43.598   4.138
36656W        W 9081   5.033  37.422   1.870
36657W        W 9082  23.131  41.093   2.773
36658W        W 9083  40.390   9.840  11.568
36659W        W 9084  26.258   5.557  11.073
36660W        W 9085   1.184  37.493  10.585
36661W        W 9086  18.131  10.147  12.524
36662W        W 9087   0.336   0.647   3.603
36663W        W 9088  18.679   5.593  11.578
36664W        W 9089  30.922  44.626  11.384
36665W        W 9090   7.334  26.476   4.127
36666W        W 9091  18.617  39.273  14.563
36667W        W 9092  20.986  13.323   0.282
36668W        W 9093  11.311  33.943   0.755
36669W        W 9094  16.425  41.398   4.492
36670W        W 9095  30.868  41.816   2.203
36671W        W 9096   1.634  14.629   1.412
36672W        W 9097  37.442  37.616   3.295
36673W        W 9098  31.541   4.310   3.986
36674W        W 9099  11.211   6.733   0.723
36675W        W 9100   5.789  26.512   0.821
36676W        W 9101  42.016  44.900   3.352
36677W        W 9102  28.727  19.035   1.291
36678W        W 9103  31.526   2.272   0.021
36679W        W 9104   6.057   3.371  10.837
36680W        W 9105   5.898  10.399  13.049
36681W        W 9106   1.415   7.055  12.107
36682W        W 9107  39.046  24.174  13.484
36683W        W 9108   7.772  39.249   2.371
36684W        W 9109  31.330  12.648   2.211
36685W        W 9110  26.895  16.261  14.882
36686W        W 9111   9.950  17.530   2.918
36687W        W 9112  26.570  18.847   2.132
36688W        W 9113   7.112   4.269   3.290
36689W        W 9114  13.587  20.624  14.472
36690W        W 9115  35.458  39.398  13.295
36691W        W 9116  28.009  18.185  10.043
36692W        W 9117  42.576   1.306  12.357
36693W        W 9118  20.021  32.386   2.355
36694W        W 9119  23.945   6.315   3.552
36695W        W 9120  35.528  22.125   0.694
36696W        W 9121  40.551  13.135   0.629
36697W        W 9122  25.487  26.971   3.643
36698W        W 9123  13.444  38.969  11.149
36699W        W 9124  20.093   9.193  11.489
36700W        W 9125  18.143  31.655  10.551
36701W        W 9126  36.907  20.162  13.034
36702W        W 9127   5.420  18.110  12.428
36703W        W 9128   0.905  27.538  11.708
36704W        W 9129   9.349  25.112  13.115
36705W        W 9130  35.238   8.944  11.158
36706W        W 9131  13.249  43.808  12.447
36707W        W 9132   4.905  26.132  14.026
36708W        W 9133  19.742  26.896   0.405
36709W        W 9134  40.862  27.048   0.297
36710W        W 9135  35.157   4.951  13.920
36711W        W 9136  23.994   8.944  11.832
36712W        W 9137   4.926  33.549   1.398
36713W        W 9138  25.349  40.998  11.556
36714W        W 9139  38.577  44.015  13.536
36715W        W 9140  42.651  20.318  12.312
36716W        W 9141   7.951  36.574   4.379
36717W        W 9142  32.130   5.782  12.495
36718W        W 9143  22.009  36.681  14.809
36719W        W 9144   3.974  23.223  11.932
36720W        W 9145  19.038  32.445   2.193
36721W        W 9146  42.868  19.670   1.336
36722W        W 9147  22.197   2.391   2.130
36723W        W 9148  30.808  33.450   1.166
36724W        W 9149   5.699  13.848  10.695
36725W        W 9150  44.911  39.390  12.555
36726W        W 9151  10.277   3.333   1.757
36727W        W 9152  19.543  34.728  11.080
36728W        W 9153  18.072   7.441   1.733
36729W        W 9154  33.082  37.697   4.227
36730W        W 9155  34.861  44.946   4.258
36731W        W 9156   2.683   0.482  12.494
36732W        W 9157  21.746   8.936   1.312
36733W        W 9158  28.564   6.273   2.043
36734W        W 9159  19.111  23.223   1.403
36735W        W 9160  11.696  37.301   5.031
36736W        W 9161  24.365   6.845   3.261
36737W        W 9162  33.380   9.169   0.833
36738W        W 9163  11.211  25.593  13.529
36739W        W 9164   3.178  18.820  12.856
36740W        W 9165  20.695  19.306   0.652
36741W        W 9166  22.308  40.390   1.203
36742W        W 9167   5.769  34.227   1.374
36743W        W 9168  41.707  14.273   1.849
36744W        W 9169  27.619  33.064   3.082
36745W        W 9170  29.139   9.456   1.328
36746W        W 9171  12.625  39.328   4.201
36747W        W 9172  11.154  37.428  12.496
36748W        W 9173  44.289  44.325  11.961
36749W        W 9174  40.399  15.777  13.965
36750W        W 9175  26.152  27.896   4.141
36751W        W 9176  36.981  12.146   4.267
36752W        W 9177  18.173   3.486   2.327
36753W        W 9178  22.481  33.344  13.547
36754W        W 9179  22.296  21.024   4.159
36755W        W 9180   0.865  34.098   4.982
36756W        W 9181  28.131  17.234  14.467
36757W        W 9182  23.638  20.470   0.217
36758W        W 9183   6.817  44.031  12.499
36759W        W 9184  34.517  25.554  13.324
36760W        W 9185  32.947  41.249   3.386
36761W        W 9186  38.093  12.002  14.792
36762W        W 9187  16.071  17.762  11.007
36763W        W 9188   8.742  25.053  10.735
36764W        W 9189  14.234   2.453  11.244
36765W        W 9190  26.554   2.273  13.132
36766W        W 9191  22.493  15.756  12.012
36767W        W 9192  27.432  35.533   1.935
36768W        W 9193   2.979  27.833   3.021
36769W        W 9194  35.891  30.232   4.118
36770W        W 9195  20.759  16.796   1.411
36771W        W 9196  27.844   6.580   0.896
36772W        W 9197  25.974  36.089  11.672
36773W        W 9198   0.821  27.907   2.223
36774W        W 9199  34.765  17.908   4.601
36775W        W 9200  35.541  32.075   3.853
36776W        W 9201   9.142  43.762  13.749
36777W        W 9202  28.976   0.362  10.647
36778W        W 9203  32.430  38.946   4.333
36779W        W 9204  25.558  36.072  10.534
36780W        W 9205  23.485   8.212   0.722
36781W        W 9206  25.068   6.363  10.637
36782W        W 9207  37.868   2.183   4.186
36783W        W 9208  42.080  11.566  13.474
36784W        W 9209  23.905  22.100   0.268
36785W        W 9210  15.383  32.533   0.841
36786W        W 9211  33.624  44.736  11.643
36787W        W 9212   5.692  30.667   3.571
36788W        W 9213  42.830  17.548  11.126
36789W        W 9214  26.668  18.165  12.960
36790W        W 9215  35.402  10.614   1.153
36791W        W 9216  31.217  42.499  12.596
36792W        W 9217  21.118  20.977  10.844
36793W        W 9218   9.402  23.138   4.243
36794W        W 9219  23.709  38.018  12.092
36795W        W 9220  41.713  32.582  11.230
36796W        W 9221  16.974  13.053  13.076
36797W        W 9222   2.801  26.551   0.726
36798W        W 9223  29.253  26.538  12.280
36799W        W 9224  35.801  24.334   2.264
36800W        W 9225  29.504  25.320   2.344
36801W        W 9226  10.208   9.807  14.211
36802W        W 9227   2.752   2.080   0.694
36803W        W 9228  31.169  43.914   1.338
36804W        W 9229  41.365   9.606   4.504
36805W        W 9230  43.804  10.837   0.264
36806W        W 9231   2.489  19.767   9.835
36807W        W 9232  44.361   8.715   4.271
36808W        W 9233  18.508  22.218   0.585
36809W        W 9234  36.051   5.002   3.491
36810W        W 9235  33.352  33.331   2.853
36811W        W 9236  30.510   8.868  10.661
36812W        W 9237   8.924  32.017  12.518
36813W        W 9238  36.453   0.962  10.208
36814W        W 9239  20.247  42.256   4.671
36815W        W 9240  21.782  30.388  13.924
36816W        W 9241  43.317  13.396   0.907
36817W        W 9242  23.650  44.494  12.483
36818W        W 9243  32.323  41.270   4.572
36819W        W 9244  39.580  42.612   2.975
36820W        W 9245  30.093   5.616  10.683
36821W        W 9246   3.039  44.135   2.644
36822W        W 9247  40.864  23.105   0.662
36823W        W 9248  44.936   0.818   1.875
36824W        W 9249  32.093  24.674  12.176
36825W        W 9250  15.692  38.277  11.882
36826W        W 9251  38.103  22.163   4.599
36827W        W 9252   4.845   4.993  12.947
36828W        W 9253  19.670   2.785   4.564
36829W        W 9254  12.140  40.354  10.335
36830W        W 9255  32.623  38.129   4.879
36831W        W 9256  44.302  29.507   2.774
36832W        W 9257  21.722  20.992   1.406
36833W        W 9258  34.110  29.560   1.156
36834W        W 9259  35.564  40.087  11.454
36835W        W 9260   8.498  31.018   1.907
36836W        W 9261  41.062   5.721  14.064
36837W        W 9262  23.584  15.348  14.914
36838W        W 9263  16.863  26.950  14.714
36839W        W 9264   4.895   2.384  12.947
36840W        W 9265  44.734  18.294   3.729
36841W        W 9266   7.849  32.794   1.238
36842W        W 9267  17.694   5.838   2.262
36843W        W 9268   1.073  32.169  13.782
36844W        W 9269  43.407  23.436  12.877
36845W        W 9270  39.845  26.458   3.757
36846W        W 9271  30.440   0.455  12.881
36847W        W 9272  19.651  31.651   3.790
36848W        W 9273  12.801   7.601   3.866
36849W        W 9274   0.853  17.561   4.707
36850W        W 9275  33.206  13.856  12.094
36851W        W 9276   8.425  42.954  14.331
36852W        W 9277  29.164   5.830  12.526
36853W        W 9278  31.751  35.161  13.926
36854W        W 9279  40.169  22.516  13.590
36855W        W 9280  21.917  31.466   4.168
36856W        W 9281  37.087   3.078   2.380
36857W        W 9282  36.568   4.910   3.334
36858W        W 9283   7.127  26.067   1.412
36859W        W 9284  37.974  30.265  12.089
36860W        W 9285  34.281  23.479   2.655
36861W        W 9286  10.819  32.668   2.185
36862W        W 9287  40.796  38.653   3.985
36863W        W 9288   6.684  37.806  13.302
36864W        W 9289  34.441   2.180   4.311
36865W        W 9290  13.781  42.246  12.760
36866W        W 9291  33.538  16.180  11.558
36867W        W 9292   7.882  22.278  12.081
36868W        W 9293   3.965  19.631   4.182
36869W        W 9294  43.846  18.685   1.165
36870W        W 9295  33.020   3.882   2.205
36871W        W 9296  40.110  18.068   4.120
36872W        W 9297  12.338   1.197  14.020
36873W        W 9298  19.242   3.404  14.561
36874W        W 9299  23.267  21.032   0.881
36875W        W 9300  22.480  12.418   3.078
36876W        W 9301  33.339   8.845   1.260
36877W        W 9302  37.066  36.686  14.941
36878W        W 9303  30.908  32.169   4.555
36879W        W 9304  44.506  12.980  13.052
36880W        W 9305  13.602  29.421  13.936
36881W        W 9306  42.925   3.835   1.374
36882W        W 9307  27.590  18.165  12.978
36883W        W 9308  18.172  29.184   1.417
36884W        W 9309   0.984  33.558   5.616
36885W        W 9310  14.081  29.675  12.018
36886W        W 9311  23.561  33.742  11.066
36887W        W 9312  20.102  35.976   3.702
36888W        W 9313  38.617  11.653  14.183
36889W        W 9314  43.680  26.207  11.334
36890W        W 9315  27.465  20.646  11.574
36891W        W 9316  44.850  34.867  10.457
36892W        W 9317   3.060  16.678   4.791
36893W        W 9318  37.326   8.713  11.015
36894W        W 9319   5.286  33.050   1.939
36895W        W 9320  40.678  34.694   2.198
36896W        W 9321  43.995  20.268   3.225
36897W        W 9322  27.381   9.992   3.702
36898W        W 9323   7.852  24.956  12.580
36899W        W 9324  16.757   0.212   4.712
36900W        W 9325   7.271  44.268  12.597
36901W        W 9326  44.655   6.919   2.983
36902W        W 9327   5.399  36.251   1.706
36903W        W 9328  10.888   4.913  14.874
36904W        W 9329   7.303  34.345   1.462
36905W        W 9330  27.651   8.819  10.993
36906W        W 9331   8.760  29.437  11.940
36907W        W 9332  11.679  20.558   4.427
36908W        W 9333  38.836  24.085  12.017
36909W        W 9334  11.272  11.288  11.955
36910W        W 9335  31.977  40.301   3.596
36911W        W 9336  32.868  33.969  11.746
36912W        W 9337  29.624  17.794   1.732
36913W        W 9338   6.399   0.344   1.982
36914W        W 9339  14.675   6.425   4.161
36915W        W 9340  13.664   7.476  11.941
36916W        W 9341  22.292  33.116   0.468
36917W        W 9342  25.543  30.112  14.051
36918W        W 9343   5.640  15.727  11.031
36919W        W 9344  36.135  32.905  10.678
36920W        W 9345  26.947   7.501   2.269
36921W        W 9346  38.824  18.666  14.381
36922W        W 9347   5.859  31.236  10.631
36923W        W 9348  34.615  33.860   0.805
36924W        W 9349  31.491  10.856  11.230
36925W        W 9350  25.808  28.185  13.407
36926W        W 9351  24.440   4.689   2.701
36927W        W 9352  11.589  25.578   0.387
36928W        W 9353  21.410  27.668  11.298
36929W        W 9354  30.672  31.332   4.630
36930W        W 9355  16.045  10.047  14.214
36931W        W 9356   1.634  35.506   3.327
36932W        W 9357  12.359   2.459   4.580
36933W        W 9358  20.274  12.462   3.701
36934W        W 9359   8.953  13.913  12.578
36935W        W 9360  29.726  39.653  14.266
36936W        W 9361  27.981  30.416   4.686
36937W        W 9362  29.963  29.944   3.895
36938W        W 9363  17.293  26.028   2.376
36939W        W 9364  28.254  44.735   2.813
36940W        W 9365  23.422   6.925  14.534
36941W        W 9366  17.714   7.987   0.864
36942W        W 9367  13.595   3.760   1.369
36943W        W 9368  29.276   0.742   3.261
36944W        W 9369  42.985  35.543   3.743
36945W        W 9370  17.865  18.044  12.386
36946W        W 9371   8.789  35.258  13.795
36947W        W 9372  16.797  37.425  13.811
36948W        W 9373  31.902  28.946  14.931
36949W        W 9374  16.221  28.392   4.236
36950W        W 9375  12.863  13.199  13.561
36951W        W 9376  14.290  17.678  12.190
36952W        W 9377   0.254  29.928  14.504
36953W        W 9378  42.741  28.626   3.271
36954W        W 9379   9.882  36.475   1.757
36955W        W 9380   4.219  30.358  13.503
36956W        W 9381  20.962  21.688  13.940
36957W        W 9382  27.660  31.894   9.887
36958W        W 9383  34.956   6.656  13.350
36959W        W 9384  18.789  20.752  14.650
36960W        W 9385  33.492  27.426  12.543
36961W        W 9386  29.045  16.231  13.993
36962W        W 9387   9.481   2.352  11.424
36963W        W 9388  22.482  12.801   0.992
36964W        W 9389  32.485  23.042  10.854
36965W        W 9390  33.622  38.965   3.783
36966W        W 9391  41.488  17.361   2.251
36967W        W 9392  43.035  22.332  10.150
36968W        W 9393  20.097  11.849   0.880
36969W        W 9394  34.088  16.813   3.284
36970W        W 9395   2.262  15.596   1.096
36971W        W 9396  20.789  34.334   2.789
36972W        W 9397  41.195  14.757  11.167
36973W        W 9398  29.366  22.592   4.804
36974W        W 9399  27.142  18.758   4.503
36975W        W 9400  32.516  31.580   4.628
36976W        W 9401  17.372  15.921   0.471
36977W        W 9402  39.445  17.570  12.871
36978W        W 9403  34.337  32.486   4.479
36979W        W 9404   2.849  32.313   3.546
36980W        W 9405  17.576   2.724  13.869
36981W        W 9406  40.212  18.940  10.952
36982W        W 9407  21.696   9.436  13.168
36983W        W 9408   1.472  23.772  14.298
36984W        W 9409  13.078  12.186  11.532
36985W        W 9410  32.456  36.031  10.944
36986W        W 9411  31.308  23.829  11.036
36987W        W 9412  42.856  13.024   0.077
36988W        W 9413  20.127  22.697  11.234
36989W        W 9414  25.019  22.575  10.613
36990W        W 9415  13.957  31.147   3.057
36991W        W 9416  33.516   6.678   3.589
36992W        W 9417   6.269  38.808  13.369
36993W        W 9418  10.318  36.785  14.547
36994W        W 9419  17.111  44.252  13.447
36995W        W 9420  18.066  28.637  14.148
36996W        W 9421  37.067  31.245  12.700
36997W        W 9422  34.403  11.855   3.898
36998W        W 9423  32.672  27.442  10.442
36999W        W 9424  33.930  24.018  14.816
37000W        W 9425  29.454  22.587   2.466
37001W        W 9426  17.742  39.819   4.127
37002W        W 9427   2.811   2.530   4.123
37003W        W 9428   4.349   2.729  14.391
37004W        W 9429  13.006  12.499  10.274
37005W        W 9430  43.316  11.342  14.639
37006W        W 9431   0.795  36.904   2.147
37007W        W 9432  14.621  32.519   0.393
37008W        W 9433   2.567  20.926  10.056
37009W        W 9434  17.068  17.415   3.280
37010W        W 9435  44.577  33.647  12.543
37011W        W 9436  43.228   2.865   2.545
37012W        W 9437  15.621  27.961  10.670
37013W        W 9438  43.332  10.675  12.381
37014W        W 9439  22.017  28.105  12.895
37015W        W 9440  26.039  39.713  14.798
37016W        W 9441   9.436   2.911  14.903
37017W        W 9442  38.536  33.502   4.857
37018W        W 9443   9.783  33.084  10.861
37019W        W 9444  42.365  38.209   4.500
37020W        W 9445  29.073  15.670   3.206
37021W        W 9446  31.051  18.058   1.892
37022W        W 9447  40.045  19.158   2.278
37023W        W 9448   4.209  29.001   4.658
37024W        W 9449  28.680  34.439  14.264
37025W        W 9450  39.287   7.308  12.567
37026W        W 9451  20.059   9.733  11.680
37027W        W 9452  21.961  12.040  10.172
37028W        W 9453  23.145  31.973  12.828
37029W        W 9454  39.313  40.998   1.652
37030W        W 9455  21.098   7.811   0.278
37031W        W 9456  10.165  17.557  13.864
37032W        W 9457  18.747  12.557   1.758
37033W        W 9458  40.760  13.646   0.849
37034W        W 9459  16.934  42.834  10.700
37035W        W 9460  25.121  35.625  14.438
37036W        W 9461  12.201   7.697   2.242
37037W        W 9462  12.498  17.138  12.625
37038W        W 9463  15.022   9.381   4.943
37039W        W 9464  28.858  14.273  14.328
37040W        W 9465  22.259   8.143  12.876
37041W        W 9466  41.313  13.284   2.167
37042W        W 9467  23.050  15.515   2.176
37043W        W 9468  36.521  17.630   3.696
37044W        W 9469  21.719  10.191   1.125
37045W        W 9470  20.271  12.612  11.752
37046W        W 9471   0.880   1.403   4.027
37047W        W 9472  15.981  25.506   4.530
37048W        W 9473  37.885  22.171   1.205
37049W        W 9474  23.153  22.107  11.381
37050W        W 9475   2.846  15.511   1.290
37051W        W 9476  16.574  25.537  12.491
37052W        W 9477  44.187  22.461  14.813
37053W        W 9478  12.386  32.447   4.731
37054W        W 9479  20.347  24.485   3.355
37055W        W 9480  32.503  15.087  14.952
37056W        W 9481  35.589  22.171  13.466
37057W        W 9482   0.714  14.264   4.218
37058W        W 9483  29.605   4.288   4.622
37059W        W 9484  30.131  11.188   3.128
37060W        W 9485  34.853  25.394   1.179
37061W        W 9486  44.030  27.537   1.822
37062W        W 9487   6.982  13.708  13.157
37063W        W 9488   4.889   0.078   2.807
37064W        W 9489  26.137  36.332   0.533
37065W        W 9490  37.321  18.507  13.614
37066W        W 9491   5.651   5.365   4.389
37067W        W 9492   9.606   8.777   3.156
37068W        W 9493  23.487  14.605  12.026
37069W        W 9494  11.645  14.227   2.275
37070W        W 9495  17.485  26.157  13.849
37071W        W 9496  23.559  44.102   4.014
37072W        W 9497  34.907  18.740   1.819
37073W        W 9498  10.959   7.788   2.630
37074W        W 9499  23.786  44.864  10.637
37075W        W 9500  42.455  26.235  13.836
37076W        W 9501  16.839  15.180   3.114
37077W        W 9502  19.825  27.015   2.571
37078W        W 9503  31.026  26.140  10.978
37079W        W 9504  19.723  36.759   4.570
37080W        W 9505  36.405  31.585  10.718
37081W        W 9506  16.945   1.236   0.938
37082W        W 9507  13.679   4.916   9.657
37083W        W 9508  36.471  16.663   1.201
37084W        W 9509  36.424  30.922   4.332
37085W        W 9510   6.803  24.657   2.236
37086W        W 9511   2.326   4.050  11.284
37087W        W 9512  22.873  11.352   3.621
37088W        W 9513  15.564  34.889   2.632
37089W        W 9514  14.213   4.844  10.372
37090W        W 9515  14.747  44.727   3.784
37091W        W 9516  21.410  43.249  14.264
37092W        W 9517  25.705  12.510  14.931
37093W        W 9518  34.875  24.003   0.775
37094W        W 9519  12.245  40.157  14.902
37095W        W 9520  39.329  35.077   4.361
37096W        W 9521  15.661  40.611   2.657
37097W        W 9522  15.663  26.442   4.147
37098W        W 9523   8.382  37.189   4.522
37099W        W 9524  42.310  32.169  13.459
37100W        W 9525  23.978  11.374  14.950
37101W        W 9526   4.769  41.197   2.713
37102W        W 9527  44.609   1.919  10.629
37103W        W 9528   9.796  30.021   3.705
37104W        W 9529   5.612   2.270   0.899
37105W        W 9530  39.022  27.481   4.585
37106W        W 9531  43.604   8.279  14.219
37107W        W 9532  32.186   3.734   4.107
37108W        W 9533  40.949  39.890  11.737
37109W        W 9534  32.279   1.181  12.856
37110W        W 9535  42.418   5.845   0.367
37111W        W 9536  14.829  12.864   1.886
37112W        W 9537  43.508  43.105   4.690
37113W        W 9538   3.412   3.242  10.667
37114W        W 9539   6.475  24.626  12.055
37115W        W 9540  37.658  28.611   3.358
37116W        W 9541  28.898  13.650  10.631
37117W        W 9542  40.417  28.476  11.124
37118W        W 9543  12.753  15.411   3.743
37119W        W 9544   5.816  10.407   1.930
37120W        W 9545   1.744  16.947   3.718
37121W        W 9546  33.011  42.402  11.033
37122W        W 9547   4.465  33.640   3.366
37123W        W 9548  25.180  26.097  13.529
37124W        W 9549  34.416  15.143  11.663
37125W        W 9550  13.585   8.431   2.798
37126W        W 9551  12.081  12.750   3.811
37127W        W 9552   3.528  32.917  11.087
37128W        W 9553  36.983  19.007   2.358
37129W        W 9554  12.267  23.998  10.172
37130W        W 9555  24.582  16.275   0.075
37131W        W 9556  39.019  13.779  14.481
37132W        W 9557  14.654  44.929  12.834
37133W        W 9558  42.868  27.049  12.686
37134W        W 9559  15.761  44.063   2.607
37135W        W 9560  42.955  33.440  10.991
37136W        W 9561  29.367   1.113   2.910
37137W        W 9562  30.644  18.191  13.142
37138W        W 9563  11.916  19.600  14.551
37139W        W 9564  12.168  41.915   3.343
37140W        W 9565  10.962   2.188   1.423
37141W        W 9566   0.190  14.378   3.335
37142W        W 9567  18.685  28.295   3.297
37143W        W 9568  44.417   4.350   4.867
37144W        W 9569  34.033  36.105   3.900
37145W        W 9570   9.819  11.625  13.075
37146W        W 9571  11.706  12.918  13.773
37147W        W 9572  29.785  29.467   2.493
37148W        W 9573  17.240  37.488  13.027
37149W        W 9574  30.014  38.560  13.125
37150W        W 9575   8.601  42.052  13.980
37151W        W 9576   9.159   3.282   0.879
37152W        W 9577  38.983  17.487   4.514
37153W        W 9578  38.054   2.762  13.386
37154W        W 9579  15.611  21.236   2.304
37155W        W 9580  32.362   5.857   4.641
37156W        W 9581  31.509  15.839   4.679
37157W        W 9582  19.787  25.588  12.075
37158W        W 9583  36.526   2.199  14.581
37159W        W 9584  40.572   3.260  12.538
37160W        W 9585  36.101  42.711  13.385
37161W        W 9586  13.344  38.975   2.203
37162W        W 9587   4.809  10.245  13.624
37163W        W 9588   6.878   8.984  14.945
37164W        W 9589  22.486   4.261   3.730
37165W        W 9590  26.417  20.186   0.233
37166W        W 9591  37.205   9.289   1.375
37167W        W 9592  14.001  42.913   1.659
37168W        W 9593   0.778  34.451  14.282
37169W        W 9594  21.797   9.133  14.033
37170W        W 9595  42.200  41.394  12.091
37171W        W 9596  36.881  32.287  11.066
37172W        W 9597  40.663  33.356   0.487
37173W        W 9598  39.475   0.291   0.661
37174W        W 9599  41.360   7.263   1.188
37175W        W 9600  17.571  14.737  10.655
37176W        W 9601   2.749  25.199  14.342
37177W        W 9602  23.290   5.740   1.665
37178W        W 9603  37.980  39.812   0.315
37179W        W 9604  17.502  27.141   1.950
37180W        W 9605  39.812   8.872   4.159
37181W        W 9606  19.578  34.938  11.919
37182W        W 9607  28.549   9.509  10.807
37183W        W 9608  28.800  28.070  10.455
37184W        W 9609  16.137   9.552  11.739
37185W        W 9610  11.597  33.527   0.741
37186W        W 9611   7.781  33.933   4.259
37187W        W 9612   4.963  35.039   4.908
37188W        W 9613  20.126  24.049   3.116
37189W        W 9614   5.534   9.833   0.305
37190W        W 9615  28.463  32.105   2.250
37191W        W 9616  40.630  12.310   2.295
37192W        W 9617  25.156  39.789   2.271
37193W        W 9618  23.586  38.370  11.350
37194W        W 9619  37.059  33.534  12.904
37195W        W 9620   9.380  41.182   1.391
37196W        W 9621  16.596  38.490  10.481
37197W        W 9622  13.697  42.290  11.123
37198W        W 9623  25.142  10.451   4.173
37199W        W 9624  23.547  15.696  14.514
37200W        W 9625  33.599  30.659  11.841
37201W        W 9626   1.751  39.260  11.146
37202W        W 9627  24.078  35.842   1.745
37203W        W 9628  26.962  37.421  10.385
37204W        W 9629  16.791  39.304  10.655
37205W        W 9630  14.093  25.144   3.700
37206W        W 9631  34.754  31.209  10.690
37207W        W 9632  17.545  39.535   0.918
37208W        W 9633  29.781  27.475   1.417
37209W        W 9634  13.118   2.360   3.887
37210W        W 9635  15.967  13.081  12.586
37211W        W 9636  12.171  19.068   2.368
37212W        W 9637  40.356  39.238  13.392
37213W        W 9638  32.900  33.199   2.628
37214W        W 9639  19.761  17.122   2.920
37215W        W 9640  43.857  23.910   1.285
37216W        W 9641  10.289  40.482   3.783
37217W        W 9642  24.246  35.417  14.930
37218W        W 9643  22.569  34.086   1.918
37219W        W 9644  38.559   6.925   1.004
37220W        W 9645   8.692  32.588  13.406
37221W        W 9646  39.565   8.363  14.766
37222W        W 9647  22.924  13.566  12.908
37223W        W 9648  33.791   3.500   1.151
37224W        W 9649   1.587  26.918   3.289
37225W        W 9650  18.569  15.157   2.850
37226W        W 9651  37.608   8.253  12.066
37227W        W 9652  29.502  14.123   4.617
37228W        W 9653  23.922   6.802  14.696
37229W        W 9654  16.050  44.780   0.351
37230W        W 9655  14.593  40.386  10.696
37231W        W 9656   8.923  36.063  13.504
37232W        W 9657   7.691  31.498   1.673
37233W        W 9658  31.130   2.720   2.357
37234W        W 9659   1.902  16.768   3.238
37235W        W 9660  11.102   9.287  11.533
37236W        W 9661  11.784  24.694  11.749
37237W        W 9662  12.809  22.125  12.395
37238W        W 9663  30.295   1.299   2.746
37239W        W 9664  32.243   3.621  12.061
37240W        W 9665  28.402  43.950  14.058
37241W        W 9666  22.047  38.521   4.111
37242W        W 9667  37.513   3.791  13.481
37243W        W 9668  32.630  37.330   3.738
37244W        W 9669  12.642  33.769   3.335
37245W        W 9670   3.976  34.838  13.510
37246W        W 9671  32.602  27.958   3.236
37247W        W 9672  35.997   9.722  10.518
37248W        W 9673   8.148  36.987   1.261
37249W        W 9674  21.048   0.522   3.260
37250W        W 9675  17.909  24.022  12.533
37251W        W 9676  39.543  36.450   4.533
37252W        W 9677   1.667  14.230   2.642
37253W        W 9678  37.567  16.127   3.166
37254W        W 9679  23.759  21.709   2.183
37255W        W 9680  39.242   6.200  13.374
37256W        W 9681  28.176  35.652   0.859
37257W        W 9682  23.762  19.404  12.966
37258W        W 9683  19.266  26.582  12.532
37259W        W 9684  38.107  27.854   2.807
37260W        W 9685  28.379  43.725   0.861
37261W        W 9686  42.598  26.761   0.056
37262W        W 9687  35.636   2.702   3.845
37263W        W 9688  31.872  44.958  12.029
37264W        W 9689  35.498  11.196  14.749
37265W        W 9690  28.112  28.447   1.246
37266W        W 9691  35.175  41.700   0.315
37267W        W 9692  35.076  32.649   0.124
37268W        W 9693  14.694   8.604  14.845
37269W        W 9694   6.673  25.614  13.969
37270W        W 9695  30.181  20.573  13.459
37271W        W 9696  40.057  24.166  12.036
37272W        W 9697  40.921  21.584   2.085
37273W        W 9698  12.736  15.188  13.324
37274W        W 9699  30.127  28.150  12.149
37275W        W 9700   1.698  23.555   1.293
37276W        W 9701  29.203  23.495  12.041
37277W        W 9702  11.675  11.450   1.699
37278W        W 9703  37.012  42.328   1.184
37279W        W 9704  29.930  41.835   0.420
37280W        W 9705  38.991  26.181   3.079
37281W        W 9706  27.409  30.666  13.460
37282W        W 9707  42.757   1.837  11.504
37283W        W 9708  16.597  18.600  11.950
37284W        W 9709  12.897   1.892  12.450
37285W        W 9710  22.582   7.598   1.688
37286W        W 9711  36.095  39.423  10.626
37287W        W 9712  41.034   5.274  14.295
37288W        W 9713  17.322  26.052  11.281
37289W        W 9714  19.653  22.738  11.037
37290W        W 9715  31.629  15.057   0.895
37291W        W 9716  17.585  28.444   3.715
37292W        W 9717  41.430  22.902  12.373
37293W        W 9718   9.161   2.042  11.695
37294W        W 9719   5.022  32.358   4.582
37295W        W 9720  27.978  23.669   5.039
37296W        W 9721  13.457  35.890   1.217
37297W        W 9722  25.510   1.602  13.089
37298W        W 9723  16.788  39.816  10.812
37299W        W 9724  31.632  17.159   2.791
37300W        W 9725  30.126  30.220  14.972
37301W        W 9726  24.224  42.569   3.345
37302W        W 9727  15.350  34.104   1.243
37303W        W 9728  11.319  37.554   3.751
37304W        W 9729  22.305  43.053  12.349
37305W        W 9730  15.208  34.845   3.064
37306W        W 9731  33.554  15.589  10.153
37307W        W 9732  30.141   6.911  14.851
37308W        W 9733  19.851   5.382   2.163
37309W        W 9734  42.329  27.057   1.760
37310W        W 9735  19.646  10.995  11.657
37311W        W 9736  27.892   5.615   1.177
37312W        W 9737  34.614  22.050  10.975
37313W        W 9738   2.018  23.566   1.702
37314W        W 9739   2.293  31.557  13.754
37315W        W 9740  28.027  20.222   2.287
37316W        W 9741  41.987  39.379  13.396
37317W        W 9742   4.610  33.026  12.510
37318W        W 9743  22.586  41.906   4.571
37319W        W 9744  37.578  24.502   2.228
37320W        W 9745  18.414  28.588  12.755
37321W        W 9746  25.030   2.336  13.531
37322W        W 9747  14.107  14.948  12.376
37323W        W 9748  10.831  38.122   1.784
37324W        W 9749  25.022  16.794  10.767
37325W        W 9750  23.892  18.283   1.885
37326W        W 9751  31.784   2.294  12.623
37327W        W 9752  24.548  36.523   4.523
37328W        W 9753   4.371  21.228   1.455
37329W        W 9754  27.216  27.376  14.765
37330W        W 9755  27.050  33.477   3.294
37331W        W 9756  20.203  33.678   3.955
37332W        W 9757  30.021   1.254  14.311
37333W        W 9758  11.216  15.837  12.673
37334W        W 9759  12.895  33.422  13.458
37335W        W 9760  38.806   7.319   2.821
37336W        W 9761  29.101  27.028  14.118
37337W        W 9762  31.146   6.442  14.057
37338W        W 9763  14.768  21.674  14.808
37339W        W 9764  12.121  27.283  13.429
37340W        W 9765  15.524  23.201  11.100
37341W        W 9766   4.912  18.592  12.021
37342W        W 9767   5.322  25.425  11.160
37343W        W 9768  33.597   5.930  14.768
37344W        W 9769  37.353  25.764   1.255
37345W        W 9770  27.564  29.952   4.106
37346W        W 9771  26.654  41.497   1.195
37347W        W 9772  31.641  36.807   0.925
37348W        W 9773  27.086  17.191  13.378
37349W        W 9774   1.586  16.483  10.638
37350W        W 9775  18.759  12.907   3.237
37351W        W 9776  14.910  14.749  10.691
37352W        W 9777   5.206  39.979   1.381
37353W        W 9778  39.119  21.595   0.167
37354W        W 9779  34.121  18.677  12.126
37355W        W 9780  13.668   3.304  14.263
37356W        W 9781  37.936  30.252  14.435
37357W        W 9782  34.016  13.713   2.895
37358W        W 9783  35.764   3.807  14.284
37359W        W 9784  33.666  21.600   1.881
37360W        W 9785   4.245  24.168  12.374
37361W        W 9786   0.266   3.782  10.774
37362W        W 9787  44.066  27.702   2.619
37363W        W 9788  12.031  13.605  14.973
37364W        W 9789   9.897  44.795   2.738
37365W        W 9790  19.579  18.059  14.801
37366W        W 9791  18.611  10.628   0.522
37367W        W 9792   3.544  39.387  12.483
37368W        W 9793   5.502  30.449   1.796
37369W        W 9794   4.392  28.560   0.861
37370W        W 9795   5.377   0.252  11.263
37371W        W 9796  22.011  30.579   1.627
37372W        W 9797  13.373  19.044   0.673
37373W        W 9798  36.818  11.054  11.560
37374W        W 9799  42.707  31.644   2.965
37375W        W 9800  32.943  20.180   4.741
37376W        W 9801   5.133  34.508   4.101
37377W        W 9802  26.661  34.386   3.816
37378W        W 9803   9.632  15.925  13.043
37379W        W 9804  17.819  39.346   3.949
37380W        W 9805  35.533  19.988  12.064
37381W        W 9806  39.867  33.426  14.429
37382W        W 9807   9.946   8.239  14.378
37383W        W 9808  42.527  36.122   0.832
37384W        W 9809  12.147  33.836   2.434
37385W        W 9810  28.547  31.861   9.895
37386W        W 9811  31.446  31.138  14.005
37387W        W 9812  17.568  30.878   3.271
37388W        W 9813  29.895  17.716   3.816
37389W        W 9814  22.731  18.619  11.616
37390W        W 9815   7.773   0.743  11.071
37391W        W 9816  42.110  37.515   0.851
37392W        W 9817  22.565  28.707   1.207
37393W        W 9818   3.355   9.059   5.033
37394W        W 9819  23.190  14.400  12.648
37395W        W 9820  37.850  39.492  14.849
37396W        W 9821   9.913  17.104  12.291
37397W        W 9822  43.804  22.013  13.185
37398W        W 9823  14.704  40.948   2.612
37399W        W 9824  37.958   0.343  10.809
37400W        W 9825  38.016  39.112   1.866
37401W        W 9826   1.230  30.527  10.770
37402W        W 9827  24.058  30.785  10.167
37403W        W 9828  16.271  29.006   3.631
37404W        W 9829   7.994  13.327   3.393
37405W        W 9830  28.129  38.440   0.489
37406W        W 9831  26.996   6.918  11.539
37407W        W 9832  19.211  40.395   0.287
37408W        W 9833   1.712   4.494   0.498
37409W        W 9834  31.009  29.578   0.284
37410W        W 9835  26.524  24.571  13.488
37411W        W 9836  30.641  19.353   1.303
37412W        W 9837   7.657  10.907   0.322
37413W        W 9838  24.071  23.218   1.782
37414W        W 9839  22.978  10.195   1.812
37415W        W 9840  30.099  27.199  11.132
37416W        W 9841   2.244  37.790   1.899
37417W        W 9842  17.888  35.802   2.064
37418W        W 9843  36.201   4.239  13.442
37419W        W 9844  36.242  43.927  13.024
37420W        W 9845   7.747   4.911  10.565
37421W        W 9846   7.351  39.474   0.901
37422W        W 9847  32.377  10.114  11.564
37423W        W 9848  14.114  15.232  13.038
37424W        W 9849  44.114   3.329  12.012
37425W        W 9850  24.289  44.059  14.494
37426W        W 9851  15.065   2.928  13.932
37427W        W 9852  18.782  13.295  12.113
37428W        W 9853  31.467  27.925   4.097
37429W        W 9854   1.446  37.360  14.494
37430W        W 9855   4.998  41.297   4.225
37431W        W 9856  31.955   6.251   0.228
37432W        W 9857  42.945  29.274   1.660
37433W        W 9858  36.923  24.556   3.092
37434W        W 9859   7.589   8.180   4.874
37435W        W 9860   9.093  44.853   4.664
37436W        W 9861  14.560  41.422   0.941
37437W        W 9862  14.501  41.327  11.187
37438W        W 9863   3.847  17.824   3.822
37439W        W 9864   4.811  16.765  13.603
37440W        W 9865  25.929  10.096   1.748
37441W        W 9866  31.932  20.659   3.837
37442W        W 9867  39.872  10.952  14.674
37443W        W 9868  20.636  24.640   4.118
37444W        W 9869   5.897  40.841   1.036
37445W        W 9870  33.816  12.076  13.569
37446W        W 9871  24.943   0.172  10.653
37447W        W 9872  14.043  37.670  10.737
37448W        W 9873  16.131  19.966   4.384
37449W        W 9874  40.120  30.377   2.281
37450W        W 9875   8.787   1.738   1.295
37451W        W 9876  38.258   5.466   3.659
37452W        W 9877  20.277   8.931  10.447
37453W        W 9878  38.869  32.516   1.395
37454W        W 9879  38.551  16.649   3.733
37455W        W 9880  38.493  40.023  10.516
37456W        W 9881   6.730  35.060  12.848
37457W        W 9882   2.311  41.032   1.502
37458W        W 9883  31.200  10.794  11.653
37459W        W 9884  42.308  21.670  11.953
37460W        W 9885  28.764  38.536  14.265
37461W        W 9886  22.159  44.987  13.916
37462W        W 9887  20.782  41.455   4.753
37463W        W 9888  17.000  41.735  12.134
37464W        W 9889  14.882  41.972   3.847
37465W        W 9890  41.930  38.930   4.623
37466W        W 9891   7.944   0.535   1.717
37467W        W 9892   7.402  17.851  10.874
37468W        W 9893  19.448  15.527  11.403
37469W        W 9894  20.540  15.112   4.583
37470W        W 9895  43.916  22.752   0.433
37471W        W 9896  10.100  17.228  14.967
37472W        W 9897  12.393   4.393   5.806
37473W        W 9898  22.181  27.120   0.281
37474W        W 9899  28.500   6.567  10.595
37475W        W 9900  42.618  29.521   4.546
37476W        W 9901   3.988  33.455   3.243
37477W        W 9902  12.582  10.949   2.713
37478W        W 9903  29.925  13.543   4.744
37479W        W 9904  18.168  26.984   3.091
37480W        W 9905  42.042  40.875   0.428
37481W        W 9906  25.666  29.219  12.458
37482W        W 9907   3.195   0.993   2.578
37483W        W 9908  19.575  35.370  12.212
37484W        W 9909  33.486  34.494   1.430
37485W        W 9910  11.890   2.571  11.648
37486W        W 9911  35.096  33.912   1.861
37487W        W 9912   2.852  43.529  11.966
37488W        W 9913  39.102  10.681   0.894
37489W        W 9914  36.551  26.373   0.512
37490W        W 9915  20.199   1.401  12.361
37491W        W 9916  24.207  38.306   2.808
37492W        W 9917  37.106  25.576   0.270
37493W        W 9918  24.944   7.586  11.706
37494W        W 9919  42.108  40.593   0.863
37495W        W 9920  44.675   0.989   0.886
37496W        W 9921  22.457  40.485  10.156
37497W        W 9922  10.314  44.832  13.609
37498W        W 9923  39.994   5.881  12.572
37499W        W 9924  25.015  38.223   3.744
37500W        W 9925  36.791  16.742   2.276
37501W        W 9926  22.651  16.042   2.955
37502W        W 9927  43.799   5.738  10.401
37503W        W 9928  23.054   4.398   2.437
37504W        W 9929  27.729  39.359   0.984
37505W        W 9930  20.662  12.770  14.420
37506W        W 9931  22.206  12.887  10.929
37507W        W 9932  19.625  42.417  12.538
37508W        W 9933  27.403   9.474  13.984
37509W        W 9934  32.332  25.867   1.868
37510W        W 9935  33.252  39.878   9.932
37511W        W 9936  31.900  30.823   4.497
37512W        W 9937  24.725  31.886   5.352
37513W        W 9938  35.935  29.526  11.974
37514W        W 9939  32.135  33.857  13.827
37515W        W 9940  18.258   0.315  11.823
37516W        W 9941   5.988   1.012   4.777
37517W        W 9942   7.374   8.309  13.486
37518W        W 9943  28.504   0.555   2.733
37519W        W 9944  27.944   1.213  12.593
37520W        W 9945  36.426  28.430   4.030
37521W        W 9946  23.427  15.028   4.694
37522W        W 9947  18.591  30.159  13.549
37523W        W 9948   8.855  25.918  12.459
37524W        W 9949  22.528   8.261  12.436
37525W        W 9950   6.946  38.196   3.216
37526W        W 9951  31.314  26.604  12.150
37527W        W 9952  14.692  12.935   4.693
37528W        W 9953  26.615   7.238  14.922
37529W        W 9954  30.204  33.845   3.708
37530W        W 9955  27.456   8.334  14.405
37531W        W 9956  30.196   9.954  11.265
37532W        W 9957  20.572  22.243  14.863
37533W        W 9958  33.932   7.932   3.657
37534W        W 9959  24.469   9.630   3.739
37535W        W 9960  28.679   6.223  11.900
37536W        W 9961  35.029  27.405  10.644
37537W        W 9962  25.960  27.557  11.546
37538W        W 9963  14.373   2.963  13.608
37539W        W 9964  25.481   7.785   0.815
37540W        W 9965  33.403  36.668  10.578
37541W        W 9966   6.135  19.832   2.819
37542W        W 9967  16.652   7.406  14.563
37543W        W 9968  30.391  39.069  12.539
37544W        W 9969   2.183   6.405  14.771
37545W        W 9970  18.724  28.445  13.948
37546W        W 9971  16.332   7.874   3.250
37547W        W 9972  35.886  25.465  11.637
37548W        W 9973  18.842  20.026   4.445
37549W        W 9974  22.930  37.050  14.848
37550W        W 9975   7.396  31.904   0.381
37551W        W 9976   1.246  24.522  12.794
37552W        W 9977  42.872  41.040  11.102
37553W        W 9978  38.543  29.551   3.059
37554W        W 9979  36.562  31.394   4.199
37555W        W 9980   9.276  21.931   2.742
37556W        W 9981  18.101  37.340   1.432
37557W        W 9982  39.152  41.503  12.655
37558W        W 9983  28.135  18.865  13.256
37559W        W 9984  31.570  21.000   2.645
37560W        W 9985   0.822  14.657  14.449
37561W        W 9986  11.333   5.472  10.634
37562W        W 9987  42.838  43.093  12.551
37563W        W 9988   5.248  12.579   2.656
37564W        W 9989  41.805  11.344   4.211
37565W        W 9990  35.839  36.928   4.653
37566W        W 9991  37.022  16.960   4.558
37567W        W 9992  22.637   0.930  14.439
37568W        W 9993   3.737  33.136  12.868
37569W        W 9994  20.490  32.872   0.753
37570W        W 9995   1.167  30.002   3.332
37571W        W 9996  14.647   2.245   3.156
37572W        W 9997  20.087  37.108  14.385
37573W        W 9998  41.018  14.602  12.002
37574W        W 9999   5.961   5.664  14.848
37575W        W10000  26.010  21.512  11.692
37576W        W10001  29.649   2.819  14.383
37577W        W10002   3.379  37.842   2.584
37578W        W10003  10.235  34.638   4.647
37579W        W10004   5.529  26.616  13.348
37580W        W10005   5.961  33.635  12.187
37581W        W10006  33.028  24.516   0.915
37582W        W10007  19.480  36.516  11.655
37583W        W10008  42.872  29.162  11.578
37584W        W10009  28.611  16.158  14.570
37585W        W10010  40.318  12.770   3.155
37586W        W10011  30.440  34.313  13.017
37587W        W10012  28.220  23.041   1.355
37588W        W10013  43.777  21.102   0.167
37589W        W10014  23.530  28.480   3.076
37590W        W10015  28.141  40.103   4.535
37591W        W10016  21.065  25.164  14.527
37592W        W10017   2.791   6.961   1.228
37593W        W10018  38.296  19.511  14.510
37594W        W10019  38.811  39.796   3.679
37595W        W10020  16.252  41.807   1.179
37596W        W10021   3.250  24.224   2.166
37597W        W10022  23.504  38.366  10.842
37598W        W10023  18.119  14.386  12.055
37599W        W10024  19.562  19.562  14.912
37600W        W10025  11.232  36.928  12.665
37601W        W10026  37.373  39.051  12.506
37602W        W10027  15.279  25.149   5.254
37603W        W10028   4.170  28.201  11.510
37604W        W10029  40.979  17.245   3.050
37605W        W10030  11.889  27.595   1.182
37606W        W10031   2.214  41.536   2.784
37607W        W10032   1.678  43.442  13.840
37608W        W10033  34.056  22.217  13.563
37609W        W10034  41.494  21.538   1.377
37610W        W10035  35.099  33.272   3.722
37611W        W10036  42.881  38.024  14.192
37612W        W10037  21.147   3.841   4.064
37613W        W10038  20.646  36.028  12.083
37614W        W10039  22.533  18.138  13.459
37615W        W10040  42.900  32.436  12.420
37616W        W10041  22.933   7.184  13.792
37617W        W10042   2.843  20.430   2.911
37618W        W10043   8.402  39.874   1.038
37619W        W10044  30.156   2.617  11.661
37620W        W10045  38.724   5.688   4.553
37621W        W10046  19.271  35.134   1.272
37622W        W10047  24.114  20.755   0.869
37623W        W10048  24.454  29.102  11.876
37624W        W10049  22.506  36.087  14.964
37625W        W10050   1.182  34.589   3.249
37626W        W10051   6.384  34.533   1.706
37627W        W10052  43.534   7.211  12.861
37628W        W10053  11.739  20.127  12.606
37629W        W10054  27.498  43.086   3.700
37630W        W10055  44.526  17.191  10.586
37631W        W10056  29.022  34.567  12.929
37632W        W10057   7.286  16.848  14.494
37633W        W10058  25.901   1.190  14.706
37634W        W10059  31.542   5.887   2.184
37635W        W10060  36.836  23.181   0.517
37636W        W10061   2.962  36.598  13.948
37637W        W10062  30.017  11.667  13.089
37638W        W10063  13.654   5.652  12.598
37639W        W10064  31.611  11.130  14.875
37640W        W10065  41.908  30.071  13.342
37641W        W10066  32.443  18.731  11.460
37642W        W10067  43.476  14.603  10.342
37643W        W10068  19.786  28.752  13.057
37644W        W10069   5.682  19.081  11.888
37645W        W10070  42.482  42.984   1.764
37646W        W10071   2.758  15.565  11.588
37647W        W10072   1.827  29.019  11.427
37648W        W10073  41.978  29.866   2.711
37649W        W10074   8.612  31.139  13.441
37650W        W10075   9.972   0.639   4.150
37651W        W10076  30.483  20.058   4.530
37652W        W10077  39.506  43.472  14.034
37653W        W10078   2.276  27.330   3.707
37654W        W10079  28.519  22.568   4.087
37655W        W10080  41.497  36.569   3.237
37656W        W10081  11.454   0.626   1.425
37657W        W10082   7.177  36.342   2.332
37658W        W10083   4.356  14.339  11.510
37659W        W10084  12.213   8.115   0.492
37660W        W10085  22.202  22.661  13.169
37661W        W10086  12.105  33.657   4.097
37662W        W10087  31.645  10.653   2.299
37663W        W10088  42.801  11.663   4.095
37664W        W10089  19.100  28.168   4.931
37665W        W10090   6.280  20.136   1.529
37666W        W10091  14.579  33.457   1.374
37667W        W10092  10.697  30.522  11.214
37668W        W10093  38.799  34.818   3.230
37669W        W10094  24.161  10.650  11.592
37670W        W10095  22.144   6.591   3.734
37671W        W10096   7.379  40.280  13.071
37672W        W10097  27.471   6.943  11.403
37673W        W10098  20.693  40.016  14.092
37674W        W10099   7.348  39.590   1.400
37675W        W10100  14.554  38.135  11.362
37676W        W10101  21.609  25.650  12.331
37677W        W10102  39.109   2.408  11.601
37678W        W10103   8.854   8.186  13.079
37679W        W10104  18.606  31.985   1.185
37680W        W10105   6.400  19.962  12.396
37681W        W10106  22.469   6.393   0.313
37682W        W10107  13.306   4.256  13.942
37683W        W10108  32.920  20.230   3.783
37684W        W10109  27.950  40.365  11.990
37685W        W10110  20.013  23.657   4.636
37686W        W10111   0.285  17.913  12.434
37687W        W10112   4.975  19.783  12.060
37688W        W10113  42.050  20.035   1.829
37689W        W10114  11.439  40.079  11.728
37690W        W10115  44.898  37.241   4.147
37691W        W10116  36.667  10.081   1.650
37692W        W10117   3.957  35.502  11.933
37693W        W10118  25.608  29.721  12.526
37694W        W10119  31.996  16.082   2.117
37695W        W10120   6.729  13.645   2.241
37696W        W10121  13.776  13.091  14.482
37697W        W10122  10.832  17.979   3.263
37698W        W10123  41.958  37.507  14.499
37699W        W10124  19.715  35.891   3.328
37700W        W10125  39.517  13.422  13.779
37701W        W10126  34.458   5.495   1.922
37702W        W10127   7.251  35.956  11.663
37703W        W10128  21.008  11.839   9.847
37704W        W10129  39.319   2.501  10.808
37705W        W10130  25.997  44.282  14.018
37706W        W10131  18.217  33.915   2.876
37707W        W10132  25.031   7.299   2.642
37708W        W10133  40.232   1.132  14.231
37709W        W10134  20.725  38.077   0.166
37710W        W10135   3.027  35.849  12.002
37711W        W10136  24.090  17.749   2.727
37712W        W10137  32.088   4.185   0.658
37713W        W10138  21.916  28.664  11.558
37714W        W10139  15.161  21.526   3.550
37715W        W10140  22.193   0.928   2.152
37716W        W10141  44.773   0.416   4.600
37717W        W10142   7.209  11.044  13.973
37718W        W10143   2.280  21.170   0.264
37719W        W10144  38.573  33.449   4.222
37720W        W10145  27.173   5.953   2.330
37721W        W10146  21.739   1.000  14.384
37722W        W10147   9.836  28.334  11.983
37723W        W10148  35.028  21.002  11.348
37724W        W10149  43.444  24.799  11.594
37725W        W10150  42.902  34.507   4.221
37726W        W10151   1.805  12.210   4.070
37727W        W10152  28.260  36.422  12.875
37728W        W10153  38.399   7.450  14.822
37729W        W10154   6.243  29.544   1.307
37730W        W10155   6.449  11.507   1.286
37731W        W10156   4.927  28.241  13.100
37732W        W10157  28.566  35.831  13.062
37733W        W10158  28.709  33.598  13.008
37734W        W10159  29.487   7.262   2.395
37735W        W10160   3.810  14.181  14.596
37736W        W10161   9.269  12.859   2.862
37737W        W10162   2.162  37.378  13.382
37738W        W10163   5.180  30.561   2.791
37739W        W10164  39.004  33.805   3.142
37740W        W10165  17.219  20.831  10.789
37741W        W10166  31.143  15.634  14.101
37742W        W10167  31.633   9.885  11.967
37743W        W10168  37.804  27.091   3.194
37744W        W10169  16.070  30.888  10.434
37745W        W10170  41.047  41.998  10.657
37746W        W10171  13.558  21.188  12.556
37747W        W10172  26.099  32.963   5.110
37748W        W10173  19.140  36.915  14.043
37749W        W10174  19.122   9.267   3.759
37750W        W10175  24.547   3.232   1.854
37751W        W10176  32.028  34.590   2.236
37752W        W10177  32.881   6.956   3.324
37753W        W10178  14.732  33.203  12.820
37754W        W10179  35.091  18.767   4.673
37755W        W10180   5.826  24.468  14.859
37756W        W10181  29.885   7.682   3.785
37757W        W10182   4.711   1.825  13.017
37758W        W10183  14.836  30.372   0.418
37759W        W10184  43.925  20.413  10.018
37760W        W10185  19.544  19.278   4.722
37761W        W10186  13.583  39.454   1.440
37762W        W10187  43.187   1.801  14.906
37763W        W10188  11.124  23.522   4.855
37764W        W10189  17.553  42.070   3.355
37765W        W10190  37.468  27.512   4.497
37766W        W10191   2.223  19.524   3.733
37767W        W10192   5.750  34.055  13.972
37768W        W10193  27.767  18.424  13.426
37769W        W10194  17.120  30.245   1.819
37770W        W10195  24.188  15.212  11.962
37771W        W10196  39.580  38.773  11.471
37772W        W10197  18.680  37.648  10.790
37773W        W10198   4.211  40.021  14.548
37774W        W10199  42.788  40.597   1.765
37775W        W10200   6.826  19.673  10.718
37776W        W10201   8.976  38.879  12.926
37777W        W10202   7.045  43.021  12.574
37778W        W10203  28.209  36.146  14.368
37779W        W10204  33.620  18.744  13.965
37780W        W10205  28.642   5.325  12.012
37781W        W10206  14.900  28.734  14.926
37782W        W10207   5.222   6.484  12.892
37783W        W10208  27.807  32.080   0.930
37784W        W10209  11.853  20.810  11.531
37785W        W10210  27.261  20.605  14.725
37786W        W10211  10.173   6.998  13.835
37787W        W10212  18.066   3.317  14.778
37788W        W10213  27.916  17.652   4.608
37789W        W10214  31.589   1.042   4.394
37790W        W10215  29.750  38.572   4.846
37791W        W10216  39.587  18.595  12.981
37792W        W10217  18.098  23.569   4.449
37793W        W10218  19.358  23.235   1.857
37794W        W10219  35.101  17.178  13.049
37795W        W10220  24.116   7.283  10.921
37796W        W10221  30.463  43.724  13.873
37797W        W10222   0.149  30.040   0.359
37798W        W10223  29.429  13.574   4.571
37799W        W10224   1.877   7.428   4.868
37800W        W10225  12.647  22.246   4.625
37801W        W10226   0.036  24.555   3.730
37802W        W10227  27.709  13.316   4.312
37803W        W10228  42.040  35.685  14.881
37804W        W10229   0.734   0.643   2.209
37805W        W10230  14.394  39.396  13.469
37806W        W10231  39.018  29.473   3.721
37807W        W10232  30.773  27.461  11.877
37808W        W10233  16.628   2.689   4.227
37809W        W10234  33.022  12.356   4.308
37810W        W10235  29.710   0.841  14.282
37811W        W10236   8.462  25.125   4.156
37812W        W10237   1.368  24.769  14.054
37813W        W10238  17.292   4.468  12.628
37814W        W10239  31.610  38.841  11.878
37815W        W10240  36.090  43.241  13.390
37816W        W10241  35.328  43.788  14.483
37817W        W10242  35.370  23.711  11.137
37818W        W10243  39.953   4.864   0.379
37819W        W10244  27.324  16.053   0.367
37820W        W10245   7.509  11.326  10.724
37821W        W10246  21.988  24.310  12.632
37822W        W10247  10.668  41.946  14.313
37823W        W10248  23.461  16.289  11.690
37824W        W10249  31.709  31.442  12.394
37825W        W10250   8.416  27.174   0.783
37826W        W10251  11.373  18.548  13.875
37827W        W10252   6.755   2.551  11.661
37828W        W10253   2.467  29.741  13.323
37829W        W10254  37.078   2.279  14.053
37830W        W10255  19.506   1.349   1.372
37831W        W10256  29.580  27.127   4.603
37832W        W10257  35.789  10.326  13.245
37833W        W10258  44.964   3.054  11.502
37834W        W10259  37.995   6.994   5.515
37835W        W10260  36.911   2.969   4.690
37836W        W10261  38.451   2.402  10.914
37837W        W10262  31.628  25.073  10.554
37838W        W10263  13.119  41.457  11.094
37839W        W10264  32.271  13.884  14.682
37840W        W10265  23.882  40.534  14.663
37841W        W10266  13.128  41.338   4.872
37842W        W10267  24.423  43.215  11.051
37843W        W10268  18.819  28.661   2.482
37844W        W10269  13.289   8.574   0.931
37845W        W10270  35.028  34.583   4.145
37846W        W10271  34.501  27.028   2.397
37847W        W10272   1.433  30.095  14.731
37848W        W10273  30.890   3.887   0.464
37849W        W10274  11.331  27.687  11.114
37850W        W10275  34.965  10.117   3.749
37851W        W10276  33.004  40.539  10.574
37852W        W10277   0.008   0.004   0.924
37853W        W10278  25.469  32.856   4.517
37854W        W10279  10.803  29.980   1.762
37855W        W10280  29.985  25.078   2.482
37856W        W10281  20.283   7.489   2.345
37857W        W10282   7.224   4.924  14.033
37858W        W10283  16.807  38.748   5.059
37859W        W10284  36.314  10.711  13.080
37860W        W10285  12.797  41.493   1.219
37861W        W10286  24.513  25.211  11.206
37862W        W10287  43.312  24.214   2.364
37863W        W10288  40.623   8.296  14.880
37864W        W10289  30.970  13.202  11.220
37865W        W10290   0.142   4.238   2.694
37866W        W10291  32.483   2.020  14.834
37867W        W10292   5.788  26.518   3.143
37868W        W10293  28.478  25.773   0.859
37869W        W10294  40.554   3.832   0.843
37870W        W10295  32.710  16.568   4.374
37871W        W10296   2.778  39.048  14.109
37872W        W10297  42.020  27.005  12.802
37873W        W10298   8.767  22.188   4.844
37874W        W10299  29.928  24.259   4.356
37875W        W10300   3.176   3.486  14.384
37876W        W10301  44.001  20.949  13.503
37877W        W10302  39.441  34.819  12.429
37878W        W10303  41.558  40.246  12.453
37879W        W10304  35.003   5.642   3.194
37880W        W10305  17.152  20.255  14.720
37881W        W10306   6.403  14.468   2.855
37882W        W10307  29.487  26.179  13.349
37883W        W10308  24.423  17.802  12.469
37884W        W10309   1.656  15.329   4.781
37885W        W10310  44.504  42.307   2.654
37886W        W10311  33.403  18.987   4.596
37887W        W10312   2.833  34.569  12.983
37888W        W10313  13.654   6.620  12.322
37889W        W10314  39.263  20.687   3.467
37890W        W10315  19.260  40.384   1.233
37891W        W10316  28.925  13.415   0.384
37892W        W10317  27.269  36.564   3.334
37893W        W10318  13.529  35.114  13.253
37894W        W10319   4.269  38.927  13.293
37895W        W10320  42.267  22.570   0.370
37896W        W10321   2.071  22.508   2.626
37897W        W10322  37.042  43.006   2.351
37898W        W10323  20.667  21.696   3.981
37899W        W10324  35.188   0.707   0.341
37900W        W10325   3.506  31.372  11.015
37901W        W10326  21.274  32.851  13.514
37902W        W10327  23.037   2.714  11.443
37903W        W10328  29.565  29.387  12.081
37904W        W10329  17.524  29.927   4.630
37905W        W10330  25.702  31.490  11.681
37906W        W10331  22.586  35.167   2.788
37907W        W10332  20.184   8.741   4.249
37908W        W10333  22.673  30.176  11.853
37909W        W10334  15.136   4.304   1.157
37910W        W10335   2.356  17.640   4.204
37911W        W10336   1.983  33.500  14.012
37912W        W10337   5.682  14.717   2.143
37913W        W10338  28.472  24.967  12.542
37914W        W10339  33.337   3.856  14.459
37915W        W10340   7.857  24.301  10.621
37916W        W10341  30.550   0.480   4.075
37917W        W10342  28.127   7.163   2.811
37918W        W10343  14.250   6.888  10.925
37919W        W10344  31.507  16.394   0.546
37920W        W10345  31.107  39.513  14.740
37921W        W10346  12.056  25.463   0.211
37922W        W10347  40.419  14.639   4.620
37923W        W10348  43.910  21.996   4.086
37924W        W10349  13.262  13.038   0.404
37925W        W10350  11.738  31.392  12.976
37926W        W10351  42.770  37.327   3.198
37927W        W10352  19.708  41.345  10.845
37928W        W10353  31.477  40.405   3.518
37929W        W10354   9.928  16.277   1.228
37930W        W10355   7.753  24.133  14.598
37931W        W10356  26.276  37.841   3.713
37932W        W10357  13.859  14.420   2.325
37933W        W10358  14.659  33.719  12.898
37934W        W10359  24.728  38.689   1.534
37935W        W10360  38.066  39.696  10.730
37936W        W10361  36.450  38.989   3.736
37937W        W10362  29.949   2.571  12.288
37938W        W10363  42.964  29.659   4.166
37939W        W10364   0.347  25.172  10.737
37940W        W10365  33.757   5.811  13.016
37941W        W10366  21.005  10.551   2.244
37942W        W10367  36.199  20.085   2.482
37943W        W10368  10.129  17.623   4.686
37944W        W10369  13.146  43.010   3.655
37945W        W10370   2.713  25.653   2.125
37946W        W10371  26.489  16.598  12.172
37947W        W10372  17.998  39.345   0.009
37948W        W10373   4.583  11.361  14.131
37949W        W10374  36.209   9.356   0.329
37950W        W10375  34.828  32.654  10.715
37951W        W10376  31.124  33.882  13.952
37952W        W10377  12.322  29.581   2.448
37953W        W10378  20.705  21.282   4.899
37954W        W10379  12.266  11.700   2.333
37955W        W10380  12.037  41.095   0.938
37956W        W10381  23.063  44.797   0.418
37957W        W10382  40.326  39.232   1.366
37958W        W10383  19.574  30.883   2.259
37959W        W10384  13.956  22.746   3.168
37960W        W10385  31.988  13.287  12.082
37961W        W10386  22.758  18.115   2.681
37962W        W10387   5.541  30.855  11.657
37963W        W10388  18.630   6.434   3.302
37964W        W10389   9.110  43.878   4.581
37965W        W10390  11.730  11.494   2.644
37966W        W10391  42.863  31.553  14.795
37967W        W10392   1.844  11.459   0.319
37968W        W10393   2.450  32.943   1.956
37969W        W10394  35.020   3.008   0.764
37970W        W10395  38.552   7.883   2.698
37971W        W10396  12.055  12.758  10.748
37972W        W10397   5.455  16.337   4.093
37973W        W10398   1.087   2.829   1.361
37974W        W10399  12.026  20.462  14.786
37975W        W10400  21.214  12.723   1.814
37976W        W10401  29.739  26.964  12.940
37977W        W10402  27.978   2.894   2.151
37978W        W10403  28.437  44.444  13.939
37979W        W10404   2.673  43.347   4.212
37980W        W10405  16.555   7.862  14.286
37981W        W10406  20.529   1.017   1.865
37982W        W10407   4.712   0.950  10.581
37983W        W10408  38.771  38.851   4.490
37984W        W10409   3.155   3.249   4.589
37985W        W10410  44.225  10.066   3.124
37986W        W10411   1.205  27.467   4.131
37987W        W10412  13.284   5.895  10.744
37988W        W10413  37.039  20.713  13.892
37989W        W10414   9.221  28.382   1.815
37990W        W10415   2.354  11.686   3.682
37991W        W10416   1.823   1.935   0.267
37992W        W10417  29.544  22.958  10.726
37993W        W10418  20.685  36.938  11.622
37994W        W10419  25.306  17.066  12.364
37995W        W10420   6.322  20.909   3.977
37996W        W10421  36.332  37.625  12.597
37997W        W10422  24.120  14.736   3.660
37998W        W10423  38.075  35.900   4.174
37999W        W10424  36.077  35.488   1.374
38000W        W10425  10.409  30.725   4.156
38001W        W10426  44.487  39.491  10.617
38002W        W10427  24.404  30.069  11.463
38003W        W10428  24.679  20.523  14.684
38004W        W10429  35.996  36.531   0.679
38005W        W10430  44.295  31.626  12.882
38006W        W10431  20.549  40.061  12.459
38007W        W10432  31.582  22.659  10.110
38008W        W10433  38.815  17.345  10.919
38009W        W10434  23.444  40.282   2.206
38010W        W10435  22.785  41.554   2.978
38011W        W10436  24.210  30.356   0.326
38012W        W10437   2.527  15.115   0.361
38013W        W10438  34.600  24.074   4.519
38014W        W10439  14.787  24.964   5.024
38015W        W10440  14.795   1.869   5.046
38016W        W10441  19.811  37.972  13.226
38017W        W10442   5.742   9.780  14.779
38018W        W10443  13.863  14.166   3.183
38019W        W10444   5.720  37.423  10.671
38020W        W10445  14.641  40.455  14.929
38021W        W10446  40.627   8.417   4.544
38022W        W10447  30.894  15.630  14.602
38023W        W10448  15.243  44.945  14.548
38024W        W10449  37.906  22.820  13.815
38025W        W10450  40.370  41.902   0.787
38026W        W10451  25.157  17.647  10.859
38027W        W10452  28.182  14.550   3.897
38028W        W10453  33.003  25.221  13.868
38029W        W10454  40.983  42.070   0.491
38030W        W10455   9.234  20.771   3.329
38031W        W10456  25.638   3.875   0.248
38032W        W10457  30.989  41.476  14.895
38033W        W10458  21.980  21.012  12.421
38034W        W10459  21.196  13.502  11.840
38035W        W10460  17.263  26.999   3.181
38036W        W10461   5.801  25.701  13.559
38037W        W10462  28.040   3.703   1.476
38038W        W10463   8.603   7.334   1.661
38039W        W10464  37.988  23.917   0.480
38040W        W10465   5.378  21.092  12.841
38041W        W10466  34.614  18.833   2.242
38042W        W10467  38.648  34.507  12.529
38043W        W10468  18.739  20.469   4.186
38044W        W10469   5.214  33.859   0.284
38045W        W10470  41.384  13.141  11.996
38046W        W10471  24.931  34.153  10.710
38047W        W10472  40.968  35.418   1.292
38048W        W10473  20.635  21.860   3.501
38049W        W10474  41.557  27.504   0.716
38050W        W10475  32.113  24.293   0.861
38051W        W10476  34.370  21.973   0.761
38052W        W10477  14.864  43.927   4.073
38053W        W10478  36.842  13.338   2.289
38054W        W10479  27.688  15.279   2.824
38055W        W10480   6.265  21.602   0.646
38056W        W10481  35.406  30.426  11.550
38057W        W10482   1.711  17.246  11.148
38058W        W10483  34.756  18.208   0.110
38059W        W10484  23.442   8.214  14.081
38060W        W10485  24.979  25.285   2.130
38061W        W10486  31.016  36.413   1.356
38062W        W10487   0.373  43.528  14.394
38063W        W10488  44.747   7.725   0.473
38064W        W10489  41.158  16.302  11.554
38065W        W10490  29.693  38.385  14.057
38066W        W10491  13.549  13.091  14.964
38067W        W10492   8.159  36.984  11.990
38068W        W10493  24.646   8.797  10.654
38069W        W10494  43.305  35.066  11.054
38070W        W10495   8.399  34.459  10.466
38071W        W10496  31.552  41.958  11.897
38072W        W10497  27.188  23.737   3.907
38073W        W10498   9.907   6.779   1.778
38074W        W10499  22.973  22.595   2.354
38075W        W10500  29.022  23.006  11.026
38076W        W10501  37.298  35.483   0.491
38077W        W10502  26.586  16.413   4.814
38078W        W10503  28.438  26.078  13.524
38079W        W10504  41.092   2.154  11.173
38080W        W10505  14.739  42.426   3.641
38081W        W10506   9.852  37.106  13.600
38082W        W10507  42.733  42.397   3.236
38083W        W10508  40.096  20.734  12.951
38084W        W10509   7.868  35.553  11.109
38085W        W10510  26.654  29.689  12.289
38086W        W10511  35.486  27.760   4.111
38087W        W10512  21.720   6.212  10.902
38088W        W10513  44.890  15.646  10.845
38089W        W10514  27.132  30.081   2.052
38090W        W10515  26.007   5.792   4.537
38091W        W10516  33.343  38.394   3.674
38092W        W10517  17.855  10.287  14.561
38093W        W10518  31.073  14.330  14.554
38094W        W10519   2.813  11.505   0.774
38095W        W10520  10.215  13.742   4.728
38096W        W10521  10.751   8.856  10.145
38097W        W10522  17.101   5.182   1.257
38098W        W10523  10.133  21.346  11.099
38099W        W10524  18.458  36.281   3.293
38100W        W10525  14.598   5.117   3.198
38101W        W10526  14.699  34.161  13.825
38102W        W10527  11.877  38.287  11.620
38103W        W10528  21.194  14.690  13.091
38104W        W10529  28.361  43.309  11.673
38105W        W10530   5.378   0.647   4.369
38106W        W10531   4.938  17.127  11.939
38107W        W10532  28.617   6.389   3.247
38108W        W10533  22.595  42.926  11.164
38109W        W10534  34.457  33.086  11.329
38110W        W10535   1.792   9.822  14.694
38111W        W10536  37.270  21.246   0.472
38112W        W10537   3.664  32.671   4.060
38113W        W10538  37.571  20.739  14.933
38114W        W10539  21.997  10.146   1.906
38115W        W10540  33.598  26.664  10.783
38116W        W10541  27.249  18.511  11.980
38117W        W10542  20.092  25.141   2.765
38118W        W10543  25.536  21.729  11.669
38119W        W10544  19.924  28.953   0.684
38120W        W10545  37.025   7.656  13.417
38121W        W10546  35.270  21.981  12.911
38122W        W10547  36.292  25.001  11.034
38123W        W10548  32.920  33.820  14.751
38124W        W10549   6.957  39.992  13.980
38125W        W10550  10.890  36.847  11.873
38126W        W10551  30.047  27.005   3.716
38127W        W10552  36.327  34.519   3.343
38128W        W10553  43.859  23.791   3.900
38129W        W10554  38.377  18.152   4.004
38130W        W10555   3.196  39.963  14.357
38131W        W10556   1.540  42.892   0.447
38132W        W10557  17.720  36.383   4.764
38133W        W10558  37.145   7.991  12.494
38134W        W10559  30.003  40.020   0.814
38135W        W10560  29.815  10.730  11.142
38136W        W10561  39.298  44.736  14.977
38137W        W10562   1.359  42.478   1.251
38138W        W10563  41.872   9.658  13.341
38139W        W10564  24.082  11.810  14.206
38140W        W10565  15.763   5.788   2.087
38141W        W10566   5.199  29.367   4.364
38142W        W10567  27.238  15.302   4.546
38143W        W10568  19.539  12.109  12.829
38144W        W10569  18.488  23.198  12.585
38145W        W10570  12.948  30.385  11.310
38146W        W10571  26.459  24.922   4.108
38147W        W10572  32.065   6.379  13.880
38148W        W10573  21.566  34.040   4.130
38149W        W10574  32.045   9.266   3.887
38150W        W10575  34.168   1.480  13.491
38151W        W10576   7.701  25.339   0.314
38152W        W10577  19.734   2.989  12.839
38153W        W10578  27.611   0.787  13.266
38154W        W10579  11.863  11.919   5.059
38155W        W10580  28.055  33.312   3.239
38156W        W10581   7.195   3.290  11.945
38157W        W10582  18.173   2.439  11.837
38158W        W10583  34.657   9.534  14.490
38159W        W10584  25.192  26.054   0.886
38160W        W10585  41.902  32.111   2.229
38161W        W10586   5.449  35.743   1.525
38162W        W10587  15.786  15.094  13.619
38163W        W10588  27.077  36.394   4.156
38164W        W10589  12.122  25.051  11.546
38165W        W10590  15.306  17.089  12.797
38166W        W10591  31.209  37.527   2.883
38167W        W10592   6.518  29.138   3.830
38168W        W10593  23.270  17.492   2.177
38169W        W10594  32.884  25.991  10.518
38170W        W10595   3.665  23.673  14.955
38171W        W10596  14.348  24.128   2.194
38172W        W10597   1.556  10.815  11.951
38173W        W10598   6.284  37.844   2.693
38174W        W10599  38.341  22.709   0.529
38175W        W10600  22.447  32.633  13.082
38176W        W10601  21.934   7.128  13.388
38177W        W10602  18.634   3.739  14.323
38178W        W10603  39.983  16.626   4.439
38179W        W10604  31.907  41.830   0.168
38180W        W10605  15.536   9.319  13.875
38181W        W10606  28.726  21.490  13.152
38182W        W10607  42.387   6.283   2.644
38183W        W10608  18.790  27.614   1.967
38184W        W10609  27.466   7.377   0.451
38185W        W10610  20.086  14.248  13.939
38186W        W10611  36.663  42.967  12.909
38187W        W10612  41.575  34.034  12.155
38188W        W10613  25.246  32.545   1.812
38189W        W10614  26.367   5.011   3.578
38190W        W10615  18.611  42.373  12.951
38191W        W10616  32.212  29.572  12.581
38192W        W10617  16.062  14.746  13.326
38193W        W10618   3.803   8.978  13.002
38194W        W10619  14.439  43.858  13.820
38195W        W10620  12.615  38.047  13.591
38196W        W10621  44.269   8.800  14.650
38197W        W10622   4.771  37.403  10.991
38198W        W10623  13.834  44.468  13.136
38199W        W10624   7.294  22.168   4.494
38200W        W10625   0.793  12.713   4.132
38201W        W10626  32.556  34.053   4.531
38202W        W10627  31.913   5.473   2.278
38203W        W10628  27.735  15.123   4.657
38204W        W10629   8.864  17.058   4.725
38205W        W10630  38.048  10.662  12.932
38206W        W10631  25.131  10.187  14.495
38207W        W10632  29.631  22.178   0.893
38208W        W10633  30.765  16.132   2.411
38209W        W10634  33.018   6.839  14.774
38210W        W10635   8.284  31.096   0.905
38211W        W10636   4.762  14.707  14.389
38212W        W10637  38.309  18.037   0.295
38213W        W10638  36.219  44.798   3.721
38214W        W10639  31.030   8.137  12.387
38215W        W10640  44.457  31.136   4.281
38216W        W10641   6.282  23.795   4.112
38217W        W10642  29.816  22.545  14.693
38218W        W10643  35.273  35.525   4.443
38219W        W10644  20.075  15.785  10.739
38220W        W10645  34.359  19.815   4.601
38221W        W10646  43.518  11.239   4.400
38222W        W10647   8.712  15.715  14.367
38223W        W10648  12.822  41.893  11.134
38224W        W10649  33.501  17.982   0.724
38225W        W10650  17.266  22.859   1.372
38226W        W10651   8.885  11.665   4.769
38227W        W10652  42.886  29.845  14.866
38228W        W10653  36.404  42.809  14.331
38229W        W10654  32.449   5.299   3.746
38230W        W10655  24.119  43.483   3.465
38231W        W10656  14.510  12.831   1.365
38232W        W10657  28.448  15.703   1.410
38233W        W10658   9.211  31.908  12.089
38234W        W10659  32.873  28.642   4.526
38235W        W10660   0.468  39.245  10.661
38236W        W10661  13.156  21.159  12.215
38237W        W10662  43.150  17.127   2.577
38238W        W10663  21.306   7.269  11.639
38239W        W10664  13.730  29.022  10.546
38240W        W10665  40.055  12.919   2.746
38241W        W10666  21.903  37.999   1.887
38242W        W10667  32.931   2.038   2.167
38243W        W10668  44.385   0.956  13.831
38244W        W10669  19.632  10.164   2.410
38245W        W10670  22.168   7.027  11.446
38246W        W10671  27.748  13.810  14.917
38247W        W10672  36.314   4.166   3.512
38248W        W10673  24.877  39.526  14.070
38249W        W10674  31.997   2.681   1.479
38250W        W10675  14.315  24.530  12.821
38251W        W10676  19.739  31.171   5.365
38252W        W10677   9.620  44.353   2.732
38253W        W10678  22.737  37.453   1.098
38254W        W10679  32.500  19.243   4.603
38255W        W10680   0.964  15.259  13.757
38256W        W10681  42.392  14.176   0.600
38257W        W10682  15.961   5.030  10.113
38258W        W10683  35.927  17.991  14.513
38259W        W10684  18.809   4.741  10.122
38260W        W10685  19.242   4.544   3.554
38261W        W10686  26.047  39.888  13.780
38262W        W10687  20.008   4.915   2.359
38263W        W10688  39.394  22.540  11.628
38264W        W10689  25.077  40.371  10.754
38265W        W10690   1.801  35.944   2.272
38266W        W10691  42.892  20.099   3.663
38267W        W10692  21.297  24.946   4.843
38268W        W10693  33.854  26.230  10.664
38269W        W10694   5.062  37.524   0.083
38270W        W10695  11.959  26.541  11.030
38271W        W10696  28.052   9.867  14.202
38272W        W10697   2.309  17.126  14.252
38273W        W10698  28.916  15.283  14.331
38274W        W10699  34.747  12.108   0.867
38275W        W10700   8.621  13.154  12.923
38276W        W10701  44.285  29.167   0.522
38277W        W10702   2.307   4.202  10.768
38278W        W10703  40.012  11.905   2.719
38279W        W10704  17.102  30.406  14.462
38280W        W10705  14.835   3.642   5.408
38281W        W10706  43.017  13.858  11.372
38282W        W10707  16.455  28.541   4.687
38283W        W10708  41.323  26.211   0.020
38284W        W10709  18.272   2.928   0.358
38285W        W10710  41.985  19.085  10.639
38286W        W10711  33.363  16.275   2.302
38287W        W10712  36.703  13.269  13.445
38288W        W10713  38.623  14.145  14.570
38289W        W10714  39.849  25.204  10.648
38290W        W10715   0.961  35.845  14.840
38291W        W10716  18.550   8.253   1.960
38292W        W10717   6.234   8.181  10.408
38293W        W10718  31.733   7.580   1.417
38294W        W10719   1.881  29.410   0.407
38295W        W10720  24.470  20.704   1.712
38296W        W10721  34.472  35.582   1.155
38297W        W10722  29.953  39.276   2.286
38298W        W10723  21.234  36.396   3.248
38299W        W10724  36.377  17.309  13.622
38300W        W10725   3.560   2.772   1.498
38301W        W10726   5.850  36.882  11.951
38302W        W10727  13.785  32.372  14.641
38303W        W10728  30.675  38.280  13.783
38304W        W10729  26.151  31.841  12.587
38305W        W10730  11.701  35.618   1.160
38306W        W10731  19.954  24.837  13.009
38307W        W10732   9.273   9.610   2.281
38308W        W10733  38.107   1.717  12.040
38309W        W10734  43.549   4.716  14.913
38310W        W10735  32.113  11.566  13.163
38311W        W10736  35.069  11.740  11.547
38312W        W10737  17.874  38.302   4.105
38313W        W10738  41.598   3.509  13.397
38314W        W10739  30.189  42.423   3.833
38315W        W10740   4.505   2.367  14.051
38316W        W10741  16.922  25.284   3.762
38317W        W10742  41.237  36.240   4.385
38318W        W10743  21.968   5.627  12.017
38319W        W10744   5.100  38.520  12.888
38320W        W10745  28.107   2.489  13.345
38321W        W10746  10.486  26.911   4.154
38322W        W10747  42.915  35.908  14.873
38323W        W10748  22.457  28.414  13.947
38324W        W10749   5.340  33.913   3.923
38325W        W10750   9.879  43.459   1.865
38326W        W10751  16.647  12.769  11.494
38327W        W10752  13.269  24.910   5.100
38328W        W10753   4.253  34.493  13.201
38329W        W10754  17.508  37.889   3.180
38330W        W10755  39.613  26.740   3.367
38331W        W10756  10.418   6.929   1.709
38332W        W10757  42.285  19.676  10.271
38333W        W10758   6.544  31.068   1.500
38334W        W10759  16.827  42.294  12.161
38335W        W10760  25.109   3.222  14.059
38336W        W10761   2.286   0.421  14.318
38337W        W10762  31.605  31.119  13.502
38338W        W10763  20.613  42.102   4.335
38339W        W10764   3.907   0.852  12.635
38340W        W10765  36.806  12.082  14.387
38341W        W10766   2.486   2.940   4.130
38342W        W10767   4.563   7.742   3.691
38343W        W10768  26.021  41.312  12.574
38344W        W10769  36.487  16.236  12.506
38345W        W10770  37.602  41.731   5.065
38346W        W10771  29.559  19.069   2.185
38347W        W10772   8.502  33.624  11.544
38348W        W10773  32.618  39.959   2.299
38349W        W10774  37.074  38.472  11.387
38350W        W10775   7.655  33.412  12.528
38351W        W10776  31.457  36.030   3.254
38352W        W10777  16.615  36.661   3.357
38353W        W10778  40.330  13.977   2.829
38354W        W10779  41.500  26.758  12.020
38355W        W10780  31.430  40.288   0.745
38356W        W10781  15.858  34.578   4.078
38357W        W10782  25.087  39.041  13.961
38358W        W10783  41.716  43.296   4.182
38359W        W10784  41.989  16.350  13.336
38360W        W10785  40.404   5.669  14.971
38361W        W10786  29.404  17.458  14.281
38362W        W10787  17.186  43.088   2.487
38363W        W10788  33.766  43.275   2.342
38364W        W10789   8.605   3.873  10.649
38365W        W10790  20.919   5.039   0.140
38366W        W10791  11.802  11.619   3.180
38367W        W10792  37.820   3.650   1.205
38368W        W10793  15.204   7.178   3.805
38369W        W10794  22.441  36.406  14.352
38370W        W10795  31.174   6.206   0.813
38371W        W10796  16.137  43.198  11.730
38372W        W10797   5.866   7.169  13.887
38373W        W10798  29.507   4.697  13.887
38374W        W10799  29.615  37.628  10.465
38375W        W10800   8.205   6.718   0.804
38376W        W10801   1.768  42.463   4.298
38377W        W10802  27.667  42.987  12.621
38378W        W10803  21.776  10.088  14.118
38379W        W10804  42.520  38.494  14.633
38380W        W10805  36.358  17.180  10.700
38381W        W10806   9.761   7.797   2.794
38382W        W10807  11.782  34.269  13.302
38383W        W10808  39.612   9.546  13.442
38384W        W10809   0.408   1.216  11.649
38385W        W10810  40.032  41.750  10.817
38386W        W10811  25.478  15.753  11.601
38387W        W10812   0.423   7.340   2.639
38388W        W10813  14.833  19.904   2.815
38389W        W10814  19.006   0.730  11.970
38390W        W10815  21.832  13.202   3.273
38391W        W10816  29.936  22.038   1.339
38392W        W10817  10.308  35.371   3.781
38393W        W10818  32.584   7.099   2.876
38394W        W10819  10.446  29.874  12.498
38395W        W10820   1.439  18.688   0.347
38396W        W10821  42.411  29.000  13.310
38397W        W10822   7.309  35.168  14.311
38398W        W10823  41.997  43.088  11.511
38399W        W10824  37.198  40.360   5.359
38400W        W10825  22.738  10.205   3.015
38401W        W10826  17.113  31.507   0.973
38402W        W10827  23.867  31.013   3.330
38403W        W10828  10.652  21.514   1.722
38404W        W10829  22.555   5.723  14.122
38405W        W10830   4.967  28.779   1.010
38406W        W10831  22.562  14.711   4.350
38407W        W10832   1.769  35.996  13.434
38408W        W10833  14.252  28.960   1.013
38409W        W10834  36.216  15.222  11.609
38410W        W10835  30.808  26.680  14.058
38411W        W10836  16.293  21.212  14.987
38412W        W10837  20.312  30.627  12.985
38413W        W10838   4.191   1.748  13.033
38414W        W10839  18.200  21.806  13.850
38415W        W10840  26.267  23.461   2.094
38416W        W10841  34.698  13.769  13.814
38417W        W10842  10.504  26.678   2.742
38418W        W10843  38.777   2.860   1.233
38419W        W10844   1.780  22.123  14.279
38420W        W10845  44.280  38.086  10.755
38421W        W10846  38.158   6.281  14.894
38422W        W10847  24.740  32.210  14.275
38423W        W10848   4.844  34.383   2.052
38424W        W10849  22.673  17.789   4.750
38425W        W10850  33.910  33.017  10.658
38426W        W10851  17.031   3.393  13.507
38427W        W10852  19.479  37.808  11.061
38428W        W10853   6.779  18.071   0.247
38429W        W10854  13.545  30.987   0.607
38430W        W10855   4.469  16.246  11.341
38431W        W10856  24.616  23.158   3.304
38432W        W10857  37.398   7.272  13.386
38433W        W10858  42.452   7.927   3.721
38434W        W10859   7.868  16.195  12.456
38435W        W10860  18.819   6.232   2.730
38436W        W10861  41.225  39.819   1.400
38437W        W10862  14.065  10.841   0.812
38438W        W10863  14.715   1.758   3.361
38439W        W10864   5.538   3.508  12.566
38440W        W10865  27.283  16.571  14.450
38441W        W10866  30.101  40.468   2.438
38442W        W10867   7.368   4.482  13.113
38443W        W10868  22.768  17.397   3.597
38444W        W10869  10.420  10.616  13.858
38445W        W10870  23.579   7.209   3.427
38446W        W10871  27.672   1.179  10.742
38447W        W10872  44.059  23.624   0.467
38448W        W10873  35.439  41.408  11.477
38449W        W10874   6.281  26.483   3.328
38450W        W10875  42.103  16.165  14.950
38451W        W10876  43.079  16.719   3.907
38452W        W10877  30.671  43.206   2.216
38453W        W10878  27.100   3.262  13.332
38454W        W10879   7.899  31.908  14.366
38455W        W10880  41.860  30.448   0.640
38456W        W10881   0.331  23.930   1.276
38457W        W10882  14.600  38.632   1.388
38458W        W10883  18.296  22.213   2.167
38459W        W10884  20.832  31.144  11.510
38460W        W10885  14.218  36.615  14.578
38461W        W10886  11.810   4.162  12.494
38462W        W10887  21.522  16.896   4.323
38463W        W10888  22.169  22.741  12.225
38464W        W10889   3.010  43.307   2.219
38465W        W10890  40.287  33.537  11.197
38466W        W10891   8.992  15.581  13.396
38467W        W10892  18.589  14.037   4.583
38468W        W10893  35.118  35.862   3.633
38469W        W10894  13.587   0.800  13.076
38470W        W10895   4.188  18.211  11.704
38471W        W10896  33.410  26.462   1.229
38472W        W10897  23.351  24.911   0.701
38473W        W10898  11.635   4.557   2.774
38474W        W10899  32.229   6.922  11.224
38475W        W10900  38.400   0.870   3.541
38476W        W10901  41.918  14.359  13.158
38477W        W10902  11.360  12.262  13.535
38478W        W10903  40.495  42.842   1.891
38479W        W10904  31.097  33.960   2.874
38480W        W10905  39.876  13.771  13.985
38481W        W10906  43.957   4.893   4.846
38482W        W10907   6.672  44.878   1.859
38483W        W10908  21.771  19.266  12.436
38484W        W10909  32.925  33.719   2.782
38485W        W10910  10.900  44.891   3.784
38486W        W10911   2.186  44.968  13.409
38487W        W10912  42.732  43.588  13.874
38488W        W10913   5.720  43.001  13.772
38489W        W10914   9.066   3.869  14.930
38490W        W10915  42.248   4.369   0.519
38491W        W10916  33.240   8.298  13.361
38492W        W10917  17.688  30.056  10.922
38493W        W10918   6.859  16.769  14.218
38494W        W10919  24.126   6.685  12.897
38495W        W10920  25.998  39.780   3.671
38496W        W10921   8.845  15.229   1.874
38497W        W10922  16.404  43.986  10.826
38498W        W10923   1.872  26.112   1.752
38499W        W10924   0.950  32.281  12.362
38500W        W10925  11.738   6.153  14.973
38501W        W10926  16.209  31.565   1.445
38502W        W10927   1.243  15.169  14.192
38503W        W10928  25.373  19.529  14.335
38504W        W10929   9.765   9.339  12.016
38505W        W10930  17.250  34.169  10.258
38506W        W10931   9.101   3.915   1.686
38507W        W10932  16.131  22.575   1.865
38508W        W10933  40.550  26.579  10.509
38509W        W10934  11.598  36.347  14.640
38510W        W10935  29.080  36.544  13.330
38511W        W10936  24.886  44.743   1.896
38512W        W10937   4.194  32.980  12.182
38513W        W10938  38.858  42.549   5.039
38514W        W10939   8.008  25.209  14.924
38515W        W10940  28.179  23.186   4.651
38516W        W10941  38.307   5.773  12.880
38517W        W10942   3.906  26.759   3.063
38518W        W10943  18.243  36.033   1.768
38519W        W10944  21.457  17.083   4.843
38520W        W10945  12.747  29.600   3.371
38521W        W10946  11.871  17.937   1.299
38522W        W10947  19.764  23.131   3.909
38523W        W10948  39.340  38.528   4.195
38524W        W10949  26.849  35.554  11.578
38525W        W10950  41.714  14.821  11.067
38526W        W10951   6.173  28.446  12.072
38527W        W10952  33.629  42.891   1.753
38528W        W10953  36.566  36.031  12.907
38529W        W10954  21.022  41.362   2.842
38530W        W10955  15.110   2.766  10.156
38531W        W10956   5.302  18.998  13.085
38532W        W10957   2.304  28.386   1.559
38533W        W10958  13.845  10.416   1.825
38534W        W10959  12.290  44.196  14.360
38535W        W10960  17.699  35.383  12.137
38536W        W10961  13.706  36.850   1.955
38537W        W10962  26.250  33.021   3.271
38538W        W10963  43.879  10.391  12.477
38539W        W10964  36.374   6.375   1.308
38540W        W10965  43.435  43.334   1.698
38541W        W10966   8.793   0.511  11.180
38542W        W10967   9.867   8.873   0.163
38543W        W10968  16.838  23.493  12.103
38544W        W10969  21.214  29.861   4.619
38545W        W10970  17.085  28.193   4.747
38546W        W10971   5.537  39.335  12.578
38547W        W10972  40.561   6.899   1.763
38548W        W10973  35.950   5.655  12.452
38549W        W10974   0.733  32.516  13.586
38550W        W10975   9.366  44.185   1.793
38551W        W10976  33.904  30.584  10.881
38552W        W10977  23.586  33.071   0.843
38553W        W10978   2.788  44.439   2.304
38554W        W10979  40.891  42.221   3.205
38555W        W10980  13.176   4.874   1.516
38556W        W10981   9.777  21.645  13.061
38557W        W10982   6.472  32.571   4.458
38558W        W10983  44.045  14.446  12.474
38559W        W10984   4.384  16.258   1.665
38560W        W10985  24.982  18.026  13.430
38561W        W10986  31.019  17.316  11.527
38562W        W10987   5.032  20.310  12.398
38563W        W10988   2.362  24.846  14.393
38564W        W10989  25.550  29.199   4.594
38565W        W10990   4.729  23.094   3.164
38566W        W10991  19.538  25.240   0.831
38567W        W10992  38.155   8.449  14.596
38568W        W10993  21.921   3.963  14.945
38569W        W10994  15.898  32.989   0.236
38570W        W10995  21.692  36.910   2.390
38571W        W10996  28.386  34.078  12.046
38572W        W10997   0.195  36.423   3.663
38573W        W10998  12.512   7.252  14.082
38574W        W10999  28.162   4.800  10.719
38575W        W11000  32.759  19.034   2.634
38576W        W11001  24.181  22.222  10.615
38577W        W11002   8.878   9.082   4.529
38578W        W11003  41.411  15.827   3.144
38579W        W11004  17.278  34.131   4.139
38580W        W11005  26.464  14.776  13.794
38581W        W11006   4.115  23.568   4.296
38582W        W11007  16.471  30.081   0.818
38583W        W11008   7.218   1.846  12.608
38584W        W11009  23.680  16.135  10.869
38585W        W11010  22.555  31.984  13.402
38586W        W11011  15.651   5.757  10.102
38587W        W11012  19.278  18.352  11.690
38588W        W11013   4.152  21.131  13.493
38589W        W11014   3.434  25.264  11.171
38590W        W11015  24.152  25.745  12.971
38591W        W11016  25.226  20.522  12.589
38592W        W11017  38.289  30.292  12.479
38593W        W11018  15.277  20.141   3.043
38594W        W11019  34.023  15.214   2.083
38595W        W11020  17.351   6.496  11.097
38596W        W11021  24.558   3.516   1.391
38597W        W11022  33.689  29.980   4.559
38598W        W11023  21.119   2.649  11.466
38599W        W11024  26.095  41.951  14.178
38600W        W11025   0.985  42.242   4.885
38601W        W11026  27.249  42.164   0.830
38602W        W11027  10.187  10.317  14.232
38603W        W11028  33.975   0.633  12.441
38604W        W11029  22.401  22.206   4.650
38605W        W11030  23.660  17.234  14.363
38606W        W11031  24.612  10.458  14.538
38607W        W11032  21.051   0.054   4.410
38608W        W11033   5.315  28.772  11.884
38609W        W11034   7.768  37.860   1.493
38610W        W11035  30.616  10.242  14.952
38611W        W11036  31.939  25.493   4.359
38612W        W11037   5.823  19.628   1.872
38613W        W11038   0.206   7.402   3.125
38614W        W11039  44.413  30.381  14.092
38615W        W11040  23.287  25.280   3.154
38616W        W11041  29.678  17.228   2.766
38617W        W11042  10.221  11.699   2.690
38618W        W11043  42.349  12.906   1.918
38619W        W11044  24.593  11.432   3.332
38620W        W11045  24.772  19.612   2.532
38621W        W11046   7.174  17.889   3.381
38622W        W11047  21.187  39.468  14.371
38623W        W11048   5.600   7.528   1.259
38624W        W11049  41.937   7.630  14.792
38625W        W11050  26.207  26.601   3.419
38626W        W11051   7.693   0.633   2.582
38627W        W11052  12.555   9.177  12.415
38628W        W11053  15.799   1.384   4.424
38629W        W11054  29.091  44.195   4.410
38630W        W11055  44.324  25.163   2.153
38631W        W11056  39.372  12.644  10.713
38632W        W11057  23.423  23.326   0.097
38633W        W11058  37.071   2.363  11.481
38634W        W11059  39.012  40.415   0.858
38635W        W11060  34.377  41.476  11.952
38636W        W11061  19.625  10.691   2.684
38637W        W11062   1.575  12.423   0.149
38638W        W11063  12.564  32.603  11.106
38639W        W11064  29.833  43.395   0.918
38640W        W11065  14.809  40.614   2.209
38641W        W11066  19.855  13.123  13.553
38642W        W11067   7.880  35.629   1.868
38643W        W11068   3.917   4.458  12.083
38644W        W11069   8.688  44.893   2.339
38645W        W11070  18.650  27.782   2.509
38646W        W11071  15.779   5.746   0.719
38647W        W11072  34.662  11.119   4.100
38648W        W11073  21.176  37.138  10.756
38649W        W11074  11.144  14.191  13.869
38650W        W11075  12.518  17.723  12.003
38651W        W11076  37.314   3.647   0.315
38652W        W11077  28.142  35.474  13.823
38653W        W11078  29.032  40.022  14.512
38654W        W11079  12.302  42.205   1.097
38655W        W11080  24.713  10.701   1.659
38656W        W11081  27.093  28.989  11.448
38657W        W11082  42.860  23.699   3.140
38658W        W11083  43.804   9.602   2.118
38659W        W11084  21.558  30.643   0.730
38660W        W11085   4.562   8.394  10.366
38661W        W11086   2.996  39.449  14.857
38662W        W11087  17.684  15.244  14.276
38663W        W11088  38.785   1.284  12.048
38664W        W11089  20.294  11.524  12.103
38665W        W11090  18.818  10.582  14.408
38666W        W11091  10.342  33.144   4.190
38667W        W11092  26.679  29.377   4.989
38668W        W11093  37.370  40.369   0.167
38669W        W11094  30.833   7.978  11.883
38670W        W11095  23.970  18.152  14.889
38671W        W11096   5.933  24.029   4.415
38672W        W11097  23.538   7.144   3.974
38673W        W11098  13.545  31.842   0.789
38674W        W11099  42.501  26.904   4.103
38675W        W11100  12.282  44.387   2.609
38676W        W11101  14.256  32.504   4.473
38677W        W11102  39.838   1.410  14.019
38678W        W11103  26.522  17.641  14.322
38679W        W11104  43.308  24.219  12.418
38680W        W11105  20.219  24.441   0.721
38681W        W11106  44.303  27.340   3.555
38682W        W11107  11.377  31.939   2.805
38683W        W11108  41.088  13.589   1.265
38684W        W11109  11.301  14.254  14.373
38685W        W11110   7.272  29.900   0.217
38686W        W11111   2.656  14.377   4.210
38687W        W11112  29.614  29.673   0.400
38688W        W11113   6.428  23.764   1.356
38689W        W11114  14.813  34.546   4.178
38690W        W11115  29.136   4.482   4.481
38691W        W11116  19.305  12.268   1.033
38692W        W11117  36.449  18.472  12.103
38693W        W11118  15.326  25.345   3.242
38694W        W11119  27.899   4.420  13.380
38695W        W11120  32.057  40.561   2.199
38696W        W11121  15.770  37.636  12.060
38697W        W11122  44.516   2.539   2.233
38698W        W11123  15.436  20.101  11.875
38699W        W11124  22.035  11.395  11.436
38700W        W11125  41.635  37.927  11.560
38701W        W11126  36.673   8.443   5.155
38702W        W11127  16.146  13.051   0.002
38703W        W11128   5.855  15.164  13.462
38704W        W11129  30.702  12.427   4.192
38705W        W11130  29.671  20.575  13.361
38706W        W11131  25.768  23.467   2.187
38707W        W11132  30.632   2.695  11.882
38708W        W11133  24.311  18.507   4.281
38709W        W11134   7.286   2.503  10.883
38710W        W11135  22.089  34.985  13.901
38711W        W11136  22.781   0.783  10.636
38712W        W11137  19.698  12.274   0.263
38713W        W11138  12.686  35.373   2.793
38714W        W11139  36.943  24.437  12.533
38715W        W11140  38.553  16.414   3.088
38716W        W11141  23.237  24.487  10.764
38717W        W11142  41.546   9.252  13.313
38718W        W11143  21.679  10.989   0.185
38719W        W11144  41.080  20.197   1.869
38720W        W11145  41.915  18.226   1.799
38721W        W11146   5.690  35.087   1.200
38722W        W11147  36.178   7.897   2.669
38723W        W11148  14.109  27.101  11.095
38724W        W11149  20.172  13.561   2.610
38725W        W11150  12.601  42.859  14.458
38726W        W11151  39.152   7.979   4.994
38727W        W11152  22.524  25.247  10.809
38728W        W11153  38.033   0.451  11.625
38729W        W11154  27.908  15.601   4.510
38730W        W11155  16.244  15.096   2.747
38731W        W11156   5.561   4.148  14.100
38732W        W11157  28.725  16.045   3.638
38733W        W11158  12.340   9.361  13.476
38734W        W11159  22.866  40.910   4.620
38735W        W11160   9.773  12.194   3.627
38736W        W11161  32.324  38.470   1.851
38737W        W11162   3.705  37.104   2.839
38738W        W11163  37.976  31.139  11.527
38739W        W11164  37.081   6.717  14.155
38740W        W11165   5.780  33.242   2.635
38741W        W11166   9.782  43.647  14.351
38742W        W11167  34.666  28.514   3.940
38743W        W11168  36.496   9.665   3.326
38744W        W11169  44.209  15.754  14.349
38745W        W11170  13.370  13.317  10.910
38746W        W11171  10.715  36.144  11.497
38747W        W11172  43.066   0.267   1.893
38748W        W11173  43.892  44.219  13.933
38749W        W11174  41.434  22.536   2.767
38750W        W11175   7.232   9.365   3.124
38751W        W11176  11.610  30.221  13.446
38752W        W11177  11.611  40.851   4.919
38753W        W11178   5.001   9.842  11.120
38754W        W11179  19.339  19.816   2.341
38755W        W11180  14.572  12.156   3.102
38756W        W11181  40.089  44.045  11.490
38757W        W11182  28.838   4.166  13.487
38758W        W11183  35.945  36.658   2.907
38759W        W11184  29.642  27.996   0.921
38760W        W11185   9.315   0.214   1.937
38761W        W11186  40.052  16.460  13.472
38762W        W11187  37.571  42.515   1.932
38763W        W11188  26.086  43.413  11.188
38764W        W11189  19.118  24.791   2.344
38765W        W11190  30.630  28.908  14.495
38766W        W11191  14.902  42.487  12.535
38767W        W11192  29.318  33.667  11.576
38768W        W11193  25.948   7.659   0.610
38769W        W11194  14.149  38.133  11.013
38770W        W11195   7.247   1.527  13.056
38771W        W11196  22.808   7.831   0.721
38772W        W11197  23.728  26.949  14.364
38773W        W11198  10.950   8.156   0.358
38774W        W11199  20.464   6.598  13.288
38775W        W11200  32.131  33.634   1.892
38776W        W11201  13.056  25.181  11.216
38777W        W11202  17.923   8.886  12.030
38778W        W11203  36.593  17.854  14.114
38779W        W11204  13.084  16.729  13.627
38780W        W11205  15.698  38.670   0.566
38781W        W11206  22.787   6.378  10.060
38782W        W11207  38.159  16.620   3.372
38783W        W11208  31.493  43.468   3.608
38784W        W11209  18.520  20.691   0.954
38785W        W11210  15.038   0.579  10.674
38786W        W11211  28.387  15.664  11.050
38787W        W11212  18.010   1.705  13.540
38788W        W11213  32.047  13.884   4.168
38789W        W11214   9.920  30.516   0.001
38790W        W11215  20.482   5.141   4.073
38791W        W11216  28.415  39.042  13.993
38792W        W11217  38.581  39.929   4.116
38793W        W11218  11.681  18.705  14.412
38794W        W11219  14.161   1.686   0.731
38795W        W11220   8.934  27.148   0.866
38796W        W11221   5.282  25.076   4.660
38797W        W11222   8.720   5.552  11.291
38798W        W11223  15.355  21.173   0.142
38799W        W11224  35.308  14.907   2.588
38800W        W11225  41.922  44.995  10.769
38801W        W11226   0.423  30.923  14.473
38802W        W11227   6.386  36.375  10.660
38803W        W11228   1.926  42.272  13.426
38804W        W11229   3.186  15.673   3.506
38805W        W11230  29.388  35.165  13.466
38806W        W11231  20.157  39.659   1.622
38807W        W11232  10.033  24.174  12.609
38808W        W11233  43.800  24.118   0.419
38809W        W11234   6.273  21.647  10.668
38810W        W11235  24.190  17.074   5.011
38811W        W11236   3.231  10.778  13.785
38812W        W11237   9.336  32.364   3.879
38813W        W11238  25.102  23.514   3.846
38814W        W11239   2.220  22.374   9.943
38815W        W11240  11.288  26.040   1.230
38816W        W11241  29.185  23.811  10.637
38817W        W11242  25.935  34.439   3.147
38818W        W11243  26.350  36.019   3.681
38819W        W11244  35.182   3.338  11.418
38820W        W11245   4.618  21.893   2.347
38821W        W11246  29.431  29.898  10.510
38822W        W11247  13.807  37.026  12.013
38823W        W11248  29.719  34.482   3.321
38824W        W11249  10.628  15.581  14.387
38825W        W11250  33.108  43.438   1.147
38826W        W11251  27.760   4.651   2.282
38827W        W11252   5.548   4.446  12.817
38828W        W11253  18.397  34.105   0.588
38829W        W11254  27.319   9.142   0.874
38830W        W11255  44.304  34.075  14.028
38831W        W11256  33.651  24.034  13.970
38832W        W11257  19.095  17.709   4.096
38833W        W11258  38.964  42.256   4.172
38834W        W11259  23.174  32.935   2.309
38835W        W11260  34.480  12.655  12.127
38836W        W11261  43.466  24.099   3.681
38837W        W11262  29.820  10.142   1.213
38838W        W11263  11.684  19.538   4.322
38839W        W11264  32.360  16.600  10.727
38840W        W11265  33.824  34.467  14.142
38841W        W11266  23.213   8.220  12.539
38842W        W11267  40.868   8.783  13.162
38843W        W11268   5.069   8.301  10.342
38844W        W11269  41.866  37.005   1.892
38845W        W11270  11.424  22.607  11.890
38846W        W11271  30.539  27.233  12.868
38847W        W11272   8.567   6.276  12.572
38848W        W11273  16.488  31.647   3.249
38849W        W11274  22.943  19.093   0.842
38850W        W11275   8.420  23.277   3.299
38851W        W11276  40.623   9.163  12.480
38852W        W11277   5.256  21.816   3.147
38853W        W11278   3.714  23.784  11.212
38854W        W11279   8.348   8.739   0.900
38855W        W11280   6.701   0.475   4.224
38856W        W11281  32.312   7.425   1.310
38857W        W11282  38.503  13.122   3.118
38858W        W11283  15.954  18.805   3.472
38859W        W11284  27.676  15.552   2.333
38860W        W11285  36.198  40.649   2.269
38861W        W11286  16.671  26.049  12.451
38862W        W11287  19.684  39.087  14.561
38863W        W11288  44.485  22.589  14.417
38864W        W11289   9.226  38.497   0.122
38865W        W11290  39.851  25.597   1.318
38866W        W11291  23.034  31.938  14.904
38867W        W11292  18.222  41.312  12.086
38868W        W11293   9.518  42.842  11.444
38869W        W11294  36.933   1.763  14.819
38870W        W11295   7.750  25.578   1.393
38871W        W11296  44.155  35.091   1.981
38872W        W11297  32.023  26.054  11.500
38873W        W11298  38.723   9.273  10.095
38874W        W11299  36.579   6.477  11.705
38875W        W11300  42.538   0.979   1.875
38876W        W11301  10.717  28.958   1.718
38877W        W11302  38.539   5.934  14.814
38878W        W11303  16.386  40.833   1.540
38879W        W11304  31.407  22.054   4.156
38880W        W11305  39.428  28.668  12.814
38881W        W11306   4.152  33.597  14.035
38882W        W11307  37.107  23.963  13.457
38883W        W11308  23.753  34.890  11.829
38884W        W11309  17.175  41.965  12.959
38885W        W11310  16.938  28.365   9.874
38886W        W11311  34.123  20.566  12.915
38887W        W11312  42.922  11.833  13.490
38888W        W11313  21.331  39.448  11.159
38889W        W11314   2.836  35.370   0.834
38890W        W11315  18.679   5.893   9.583
38891W        W11316  13.879  32.455  12.441
38892W        W11317   3.949   3.773  11.074
38893W        W11318  35.930   0.932  13.972
38894W        W11319  15.173  30.064  14.684
38895W        W11320  17.771  38.333  11.445
38896W        W11321  42.023  33.827   4.000
38897W        W11322   8.229  17.858   4.564
38898W        W11323  16.839  35.577   3.831
38899W        W11324  18.070  29.756   4.842
38900W        W11325  11.721   0.529  12.538
38901W        W11326  39.230   8.297   1.422
38902W        W11327  40.027  41.051   0.404
38903W        W11328  41.474  12.097   2.690
38904W        W11329  27.670   5.948  12.792
38905W        W11330  18.879  41.545  13.559
38906W        W11331  24.292  18.074   1.259
38907W        W11332  22.484  20.638  13.260
38908W        W11333   0.746  13.506   4.720
38909W        W11334  15.167   2.190  10.172
38910W        W11335  28.403  14.801   3.446
38911W        W11336   1.639  16.224   1.496
38912W        W11337  38.951  26.578  10.912
38913W        W11338   5.906   0.269   0.236
38914W        W11339  37.943  32.088  13.655
38915W        W11340  10.139  16.835   0.455
38916W        W11341  16.707   2.862  14.317
38917W        W11342  40.497  34.886   1.703
38918W        W11343  42.833  14.147   9.917
38919W        W11344   2.392  14.008  14.692
38920W        W11345  17.967  40.787   1.400
38921W        W11346  29.629  40.825   2.113
38922W        W11347   0.897  18.443  14.383
38923W        W11348  17.367   1.505   1.098
38924W        W11349  19.675  16.149  12.560
38925W        W11350  32.458  20.843  12.345
38926W        W11351  19.608  38.732  14.970
38927W        W11352  23.629   0.458   1.169
38928W        W11353  15.816  44.649  13.805
38929W        W11354  16.821  35.998   2.149
38930W        W11355   5.980  27.891   0.382
38931W        W11356  25.568  31.132   4.798
38932W        W11357  42.665   5.307  13.203
38933W        W11358   8.702  28.576   4.162
38934W        W11359   6.687  27.194  13.805
38935W        W11360  30.627  10.721   2.187
38936W        W11361  32.415  28.673   3.635
38937W        W11362  22.599  28.786   2.685
38938W        W11363  40.816  28.394  13.858
38939W        W11364   7.907   6.914  12.663
38940W        W11365  29.997  27.414   4.758
38941W        W11366  20.735  12.193   3.746
38942W        W11367  18.535  29.880   5.040
38943W        W11368   8.692  38.022   4.291
38944W        W11369  43.758  21.612   0.893
38945W        W11370  31.974  24.664   2.735
38946W        W11371  34.913   9.531   2.829
38947W        W11372  32.999   6.616  10.614
38948W        W11373  42.362  12.111  12.006
38949W        W11374  28.666  43.266  11.260
38950W        W11375  21.979  43.317  14.103
38951W        W11376  20.782  31.137  12.027
38952W        W11377  36.856  10.252   3.621
38953W        W11378  22.000  23.207   1.299
38954W        W11379  21.220  18.747  12.933
38955W        W11380  34.020   9.282   4.373
38956W        W11381  40.178   1.353  10.598
38957W        W11382  21.900  12.177   4.815
38958W        W11383  37.070  26.553  12.501
38959W        W11384  23.788  38.903  12.515
38960W        W11385   4.269  15.650  12.878
38961W        W11386   8.329  38.872   4.763
38962W        W11387   7.219  40.080  10.778
38963W        W11388  17.094  23.575   0.719
38964W        W11389  25.650  36.148   0.265
38965W        W11390  22.163  22.234  10.977
38966W        W11391  41.903   3.778  13.755
38967W        W11392  43.860   8.076   0.997
38968W        W11393  32.108  36.641   3.174
38969W        W11394  20.024   4.150  14.526
38970W        W11395  24.560  35.531  14.488
38971W        W11396   7.930  37.106   3.426
38972W        W11397  12.927  18.055   0.467
38973W        W11398  44.426  41.641  11.576
38974W        W11399   9.136  22.750   0.890
38975W        W11400  25.759  10.782  11.173
38976W        W11401  13.668  33.583   4.090
38977W        W11402   5.725  19.365  12.327
38978W        W11403  12.257  25.988  13.950
38979W        W11404  37.036  32.141   3.333
38980W        W11405  16.109   7.671  12.851
38981W        W11406  27.371  12.918   4.065
38982W        W11407  25.975   9.984   9.952
38983W        W11408  30.193   8.577   0.471
38984W        W11409  33.118  44.941   2.625
38985W        W11410  30.374  18.188  12.707
38986W        W11411  12.339  14.792   3.314
38987W        W11412  10.331   6.939   4.953
38988W        W11413   7.274  41.745   2.238
38989W        W11414  44.422   2.919  11.610
38990W        W11415   3.432   3.781  12.982
38991W        W11416  27.222   6.919  13.079
38992W        W11417  44.269  34.390   4.581
38993W        W11418  40.072  12.630   4.091
38994W        W11419  40.295  24.241  11.565
38995W        W11420  34.983   4.943  10.634
38996W        W11421  44.574  44.791  12.003
38997W        W11422   0.377  43.824   3.553
38998W        W11423   6.318   1.532   2.067
38999W        W11424  35.832  15.295   4.043
39000W        W11425  23.447  42.472   1.373
39001W        W11426  21.082  39.319  12.017
39002W        W11427   0.883  15.826  11.504
39003W        W11428   3.430  20.629  11.652
39004W        W11429   5.346  15.323  11.094
39005W        W11430  15.341  30.285  12.579
39006W        W11431  19.209  27.661  12.607
39007W        W11432   0.870  38.016  11.644
39008W        W11433   6.065  37.629  13.945
39009W        W11434   3.416  34.908   0.305
39010W        W11435  17.787  16.820   3.421
39011W        W11436  21.490   9.937  13.198
39012W        W11437  15.338  10.441  11.102
39013W        W11438  18.711  34.333   1.659
39014W        W11439  22.183  31.670  14.175
39015W        W11440  26.213   5.437  14.111
39016W        W11441  11.357   7.748  13.100
39017W        W11442  43.872  26.848  13.119
39018W        W11443   6.674  12.269   4.381
39019W        W11444  40.321   0.277  14.829
39020W        W11445  39.573   5.358  13.255
39021W        W11446  19.050   6.752  13.097
39022W        W11447  33.371  38.141   4.358
39023W        W11448   3.307   3.949  14.057
39024W        W11449  35.131  25.243   4.601
39025W        W11450  37.024  41.885   2.445
39026W        W11451  23.375  21.938   4.020
39027W        W11452  18.926   4.753   4.820
39028W        W11453  42.807   9.379   3.347
39029W        W11454  28.099   6.241   1.857
39030W        W11455  40.592  10.119   0.367
39031W        W11456   3.233  14.425  13.297
39032W        W11457  12.367  40.879  12.038
39033W        W11458  26.428   6.791  13.432
39034W        W11459   1.825   3.216  14.844
39035W        W11460  39.227   7.974   3.684
39036W        W11461  32.681  13.701   2.306
39037W        W11462  30.080  14.040   1.126
39038W        W11463  11.719   5.145  13.658
39039W        W11464  28.041  29.176  11.103
39040W        W11465  35.939  12.281   0.307
39041W        W11466  12.495  28.177   2.693
39042W        W11467  33.278  27.930  11.447
39043W        W11468   0.831  12.287   1.403
39044W        W11469   3.876  35.125   0.357
39045W        W11470  32.824  41.817   0.149
39046W        W11471  29.617  33.807  14.323
39047W        W11472  43.843  36.816   3.238
39048W        W11473   2.365   3.992   3.265
39049W        W11474  38.827  27.691  13.479
39050W        W11475   7.453  41.819   4.801
39051W        W11476  35.204  31.080   4.652
39052W        W11477  30.856  19.597   3.263
39053W        W11478  30.658  38.304   1.608
39054W        W11479  28.757   5.400   4.650
39055W        W11480  34.918  23.062   1.208
39056W        W11481  25.459  41.838  11.266
39057W        W11482   2.568  24.904  10.558
39058W        W11483  31.165   9.068  14.751
39059W        W11484  17.887  15.066   0.709
39060W        W11485  19.095   0.252  10.746
39061W        W11486  36.950   0.495   2.165
39062W        W11487  29.706  38.436   2.445
39063W        W11488  38.896   1.909   1.056
39064W        W11489  40.558   3.919   3.260
39065W        W11490  34.076   5.134   2.722
39066W        W11491  31.887  21.928  10.910
39067W        W11492  36.664  29.012  10.513
39068W        W11493  44.853  33.869   0.473
39069W        W11494  27.924   9.825  14.703
39070W        W11495  44.941   6.470   2.924
39071W        W11496  22.256  18.631   3.737
39072W        W11497  23.005  22.251   0.514
39073W        W11498  32.536  14.724  13.519
39074W        W11499  37.383  14.899   3.362
39075W        W11500  41.833  10.906   0.776
39076W        W11501   1.519   1.661  14.370
39077W        W11502  40.377   0.304   0.347
39078W        W11503  16.628   9.206   4.716
39079W        W11504   0.486  28.723   3.250
39080W        W11505  15.509  27.008  12.370
39081W        W11506  36.034  28.800  13.612
39082W        W11507  32.132  30.930   0.742
39083W        W11508  42.808  24.005   4.176
39084W        W11509  39.529  34.861  14.687
39085W        W11510   3.663  33.649  12.872
39086W        W11511  13.683  17.197  10.695
39087W        W11512   8.656   0.396   2.620
39088W        W11513   1.708  12.276   3.164
39089W        W11514  30.740   9.573  14.465
39090W        W11515   4.691  11.351  12.931
39091W        W11516   7.893   7.788   2.347
39092W        W11517  14.563  13.276  12.850
39093W        W11518  33.007   7.723   0.937
39094W        W11519   2.507  28.032  14.851
39095W        W11520  25.640  39.476  10.685
39096W        W11521  30.552   1.217   2.259
39097W        W11522   3.675  20.546   0.351
39098W        W11523   5.673  33.893  11.383
39099W        W11524  27.667  12.857  10.740
39100W        W11525   8.331  43.829   1.767
39101W        W11526  10.641   1.209  14.956
39102W        W11527   1.775  17.112   1.403
39103W        W11528  39.060  14.270  14.334
39104W        W11529  16.666  18.946  12.565
39105W        W11530  29.097  41.408  14.392
39106W        W11531   6.866  38.696  13.517
39107W        W11532  26.699  22.672   3.253
39108W        W11533  36.240  21.568   3.675
39109W        W11534  37.293  31.910  11.163
39110W        W11535  44.755  12.078   0.978
39111W        W11536  17.703  24.696   1.856
39112W        W11537  36.260  30.592  10.255
39113W        W11538   4.291  17.362   2.162
39114W        W11539  27.594   7.759  12.787
39115W        W11540  10.738  36.040   4.076
39116W        W11541  24.818   3.913  12.002
39117W        W11542   7.958  43.336  11.760
39118W        W11543  34.564  10.588   1.171
39119W        W11544   3.200   5.508  11.931
39120W        W11545   9.318  24.717  11.496
39121W        W11546  28.468  25.168   0.406
39122W        W11547   9.682  38.207   3.222
39123W        W11548  35.276  20.703  13.546
39124W        W11549  21.812  14.070   2.805
39125W        W11550   9.459  39.413   4.123
39126W        W11551  21.015  42.704   5.009
39127W        W11552   0.993   6.442   0.409
39128W        W11553  31.404  35.687   3.730
39129W        W11554  25.508  10.070  10.428
39130W        W11555  33.124  13.582  12.994
39131W        W11556  28.555  33.036  12.308
39132W        W11557  17.019  29.996   4.047
39133W        W11558  27.241  25.893   0.217
39134W        W11559  15.847  43.982   0.348
39135W        W11560  18.313  43.427  13.979
39136W        W11561  35.374  21.605   2.432
39137W        W11562   5.948  11.684   1.287
39138W        W11563  30.704   3.767   1.801
39139W        W11564  32.821  19.227  10.690
39140W        W11565  20.354  42.953   3.413
39141W        W11566  10.257  32.543   1.009
39142W        W11567  28.580  26.251   1.036
39143W        W11568  23.709  24.752   0.352
39144W        W11569  41.910  34.885   1.138
39145W        W11570   5.862  41.094  12.090
39146W        W11571  17.365   2.024  10.999
39147W        W11572  29.162  42.751  14.759
39148W        W11573  10.082  29.922   4.181
39149W        W11574   8.009  22.198  11.178
39150W        W11575  43.905  23.682  14.515
39151W        W11576   8.283  33.404  11.118
39152W        W11577   1.790  12.725   0.522
39153W        W11578  39.934  11.775  14.601
39154W        W11579  29.430  24.304   2.073
39155W        W11580  35.869  24.707   4.182
39156W        W11581  21.145   0.955  13.086
39157W        W11582  44.499   5.595   0.730
39158W        W11583  35.814   5.584  11.440
39159W        W11584  14.032  17.418  12.554
39160W        W11585   7.170  31.556   2.804
39161W        W11586  26.373  23.639   1.184
39162W        W11587  24.166  17.777  13.447
39163W        W11588  19.792  41.390  13.433
39164W        W11589  44.682  20.039  10.656
39165W        W11590  18.870  38.640   4.191
39166W        W11591  13.300  23.893   4.176
39167W        W11592  26.032  21.691   4.040
39168W        W11593  22.698  15.710   4.605
39169W        W11594  18.552  27.987  11.934
39170W        W11595   5.220   4.461  12.434
39171W        W11596  22.055   2.864   1.983
39172W        W11597  16.803   4.902  13.918
39173W        W11598  31.424  32.269   2.312
39174W        W11599  30.173   7.433  14.152
39175W        W11600  20.289  40.942   2.438
39176W        W11601  39.308  26.122   2.224
39177W        W11602  24.500   5.901  14.292
39178W        W11603  17.024  39.756   1.250
39179W        W11604  23.141  31.315   4.229
39180W        W11605  43.086  31.939   3.245
39181W        W11606  37.942  14.899  13.827
39182W        W11607  15.675  26.993   2.020
39183W        W11608  15.834   5.470  14.941
39184W        W11609  35.556  27.658   1.299
39185W        W11610  29.611   1.532   3.166
39186W        W11611  43.852  40.092   3.568
39187W        W11612  21.765   2.115   4.096
39188W        W11613  19.275   7.622   0.841
39189W        W11614   2.961  16.522  11.572
39190W        W11615  30.183  19.171   0.185
39191W        W11616   5.391  31.166   2.319
39192W        W11617  32.703  20.146   4.275
39193W        W11618  38.223   6.167  13.654
39194W        W11619   6.813  23.908  14.191
39195W        W11620  10.856  22.299   2.180
39196W        W11621  24.487  20.106   1.372
39197W        W11622  40.873  12.081   1.883
39198W        W11623  16.207  43.236   1.415
39199W        W11624  39.983  20.144   3.921
39200W        W11625  42.068   7.816  13.765
39201W        W11626  37.110  33.976   2.736
39202W        W11627   0.908  44.274  11.645
39203W        W11628  17.044  20.538   3.657
39204W        W11629  27.986  18.044   2.679
39205W        W11630   2.416  21.991  12.983
39206W        W11631  25.200  12.674   2.894
39207W        W11632  22.230  42.510   0.856
39208W        W11633  11.401  34.685   1.204
39209W        W11634  34.609  29.798  10.706
39210W        W11635  20.413  37.345   1.242
39211W        W11636  17.012  28.792   1.266
39212W        W11637  14.127  24.037   4.189
39213W        W11638  13.812  18.380   0.441
39214W        W11639  44.361   0.324   0.079
39215W        W11640   3.231  39.363  11.998
39216W        W11641  17.683  18.629  14.743
39217W        W11642   4.662   6.421  12.129
39218W        W11643  37.946  31.009  10.464
39219W        W11644  34.630  37.528  13.697
39220W        W11645  42.050   7.795   1.685
39221W        W11646  37.502  29.871   0.149
39222W        W11647  23.134   7.457   4.872
39223W        W11648   5.245  24.226   2.331
39224W        W11649  13.228  40.699  13.057
39225W        W11650  36.479   6.008   9.871
39226W        W11651  18.477  43.306   0.384
39227W        W11652  37.992  28.123  13.024
39228W        W11653  37.084   5.684   1.413
39229W        W11654  23.031  42.220   1.174
39230W        W11655  20.292  40.948  12.538
39231W        W11656   9.101  32.589  14.531
39232W        W11657  41.038  29.645  14.325
39233W        W11658   8.443   2.996   4.091
39234W        W11659  19.430  42.301  14.496
39235W        W11660  44.923  43.788  14.463
39236W        W11661  24.013  17.214   2.666
39237W        W11662  37.422  36.113   4.508
39238W        W11663  16.232   0.818  10.995
39239W        W11664   4.216   4.501   2.175
39240W        W11665  43.055   1.535  12.231
39241W        W11666  30.068  30.897   4.137
39242W        W11667  10.758   3.378  11.387
39243W        W11668   6.076   4.234  14.013
39244W        W11669   2.336   0.858  10.500
39245W        W11670  40.323  44.288   0.730
39246W        W11671  12.694   7.652   4.792
39247W        W11672  13.827  41.832  11.313
39248W        W11673   5.559  24.064  13.895
39249W        W11674  29.987  21.182   5.702
39250W        W11675  31.406  44.398  13.041
39251W        W11676  27.605  10.359   0.223
39252W        W11677  42.512   7.705  13.519
39253W        W11678  41.787  44.547   0.849
39254W        W11679  34.567  42.458  10.723
39255W        W11680   0.209   4.803   1.888
39256W        W11681  34.902   2.772   0.318
39257W        W11682  32.836  34.407   3.289
39258W        W11683  36.179  19.041  12.599
39259W        W11684  41.948  13.941  11.129
39260W        W11685   3.111  17.026  13.979
39261W        W11686   4.925  34.019  12.534
39262W        W11687  42.063  12.585   1.361
39263W        W11688  38.810  41.750  11.012
39264W        W11689  24.736  10.803   2.678
39265W        W11690  35.436  12.559   1.480
39266W        W11691  20.668  32.416  14.357
39267W        W11692  32.178   6.796   1.894
39268W        W11693  16.366   2.314   2.927
39269W        W11694  18.995  32.142   0.858
39270W        W11695  16.634   7.364  12.688
39271W        W11696  37.534   5.297  10.678
39272W        W11697  42.826  38.344  13.031
39273W        W11698  23.935  23.652  12.994
39274W        W11699  14.104  41.253  14.360
39275W        W11700  20.661  23.516  13.998
39276W        W11701  18.340  18.803   2.342
39277W        W11702  16.139  31.906   0.273
39278W        W11703  13.809  12.952   4.875
39279W        W11704  11.820  42.808   4.133
39280W        W11705  16.142  34.651   3.258
39281W        W11706   1.867  28.248  12.996
39282W        W11707  26.466  15.165   2.467
39283W        W11708  19.608  17.527   3.852
39284W        W11709   7.720  29.479   1.193
39285W        W11710  35.588  41.222  11.937
39286W        W11711  43.343  41.562  12.903
39287W        W11712   1.390  43.091   2.827
39288W        W11713  27.740  23.740  12.097
39289W        W11714  40.838   8.695  12.572
39290W        W11715   6.495  44.007   3.006
39291W        W11716  32.089  31.342  14.356
39292W        W11717   2.878  19.801  10.900
39293W        W11718   8.153  26.707   0.710
39294W        W11719  41.486  16.080   0.727
39295W        W11720   9.003  33.640   0.472
39296W        W11721  26.674  11.188   3.898
39297W        W11722  44.355  30.383  10.639
39298W        W11723  30.026  43.361   3.887
39299W        W11724  21.254  37.717  10.126
39300W        W11725  44.321  39.393  13.376
39301W        W11726  41.704   0.958  12.683
39302W        W11727  17.016   1.223   1.906
39303W        W11728   7.187  30.986   2.176
39304W        W11729  33.944  30.179   4.106
39305W        W11730  33.959  24.622   4.747
39306W        W11731  20.682  16.663  14.320
39307W        W11732  35.574  28.765   2.277
39308W        W11733  24.787  18.194   0.266
39309W        W11734   7.760  37.992  12.025
39310W        W11735  36.624  10.140  11.074
39311W        W11736  13.200  32.325  10.647
39312W        W11737  27.969  35.778  11.046
39313W        W11738  10.265  28.680   1.853
39314W        W11739  32.408  18.568   4.304
39315W        W11740  27.338   9.870   1.304
39316W        W11741  15.608  23.524  10.336
39317W        W11742   9.697  23.704   3.341
39318W        W11743  44.724  25.239  12.027
39319W        W11744  36.769   6.951  13.813
39320W        W11745  35.461  11.326  12.343
39321W        W11746  28.789  12.367  14.986
39322W        W11747  37.100  29.438   3.177
39323W        W11748  23.669  19.650   4.232
39324W        W11749  28.697   4.743  14.584
39325W        W11750  34.033  36.501  12.251
39326W        W11751  33.968   2.890   0.265
39327W        W11752   1.186  41.220  13.351
39328W        W11753  20.292  33.526   3.020
39329W        W11754   2.238  27.591  14.857
39330W        W11755   1.950  23.663  12.043
39331W        W11756  28.315  17.984  11.483
39332W        W11757  29.196  33.386   2.410
39333W        W11758  25.147   2.309   2.236
39334W        W11759   3.882  15.600  14.486
39335W        W11760   5.229  30.918   0.944
39336W        W11761   7.428   7.125   1.798
39337W        W11762  26.268  32.661   0.361
39338W        W11763  14.039   2.394   2.188
39339W        W11764  10.626  10.583  14.357
39340W        W11765  39.952  24.091   3.450
39341W        W11766  33.644   9.307   1.267
39342W        W11767  34.175  20.935  13.717
39343W        W11768  18.009  23.183   2.203
39344W        W11769  28.481  21.482  13.621
39345W        W11770  32.353   9.064  12.183
39346W        W11771  32.755  28.438   0.354
39347W        W11772  14.055  18.709   3.527
39348W        W11773  28.741   4.392   2.080
39349W        W11774  21.048  36.822   1.453
39350W        W11775  19.052  13.519  10.833
39351W        W11776  28.244  30.542  14.784
39352W        W11777  25.690  39.524  11.561
39353W        W11778   3.993  12.413  14.840
39354W        W11779  28.101  25.224   0.052
39355W        W11780  39.958  38.090   3.708
39356W        W11781  42.328  41.837   0.307
39357W        W11782   7.734   3.221  11.179
39358W        W11783  18.214  17.107   0.867
39359W        W11784  36.744  19.741   0.297
39360W        W11785   1.785   6.082   1.215
39361W        W11786  14.920  17.250   3.731
39362W        W11787  27.185  23.268   1.235
39363W        W11788  15.408  24.138  10.172
39364W        W11789   8.806  25.769   0.256
39365W        W11790  23.747  34.883   4.555
39366W        W11791  42.053  44.015   3.068
39367W        W11792  10.983   4.374  14.283
39368W        W11793  16.778  37.583  12.781
39369W        W11794   1.811  36.347   0.756
39370W        W11795  24.616  38.562  12.500
39371W        W11796   5.573  20.604  14.540
39372W        W11797  42.076  29.200   3.591
39373W        W11798  36.815   1.550   0.747
39374W        W11799  11.785  28.452   3.971
39375W        W11800  24.513  15.070   2.477
39376W        W11801   5.993  30.468   2.591
39377W        W11802  33.927  16.109   0.320
39378W        W11803  19.545  32.959   4.100
39379W        W11804  20.744  36.833   0.445
39380W        W11805  29.540  43.619  13.945
39381W        W11806  14.130  40.476  14.828
39382W        W11807  30.144  12.806   1.712
39383W        W11808  40.447  24.218   4.523
39384W        W11809  29.865  42.884  11.077
39385W        W11810   1.294  39.332  12.103
39386W        W11811  20.392   7.895  14.236
39387W        W11812  10.621  41.081  12.944
39388W        W11813  38.514   2.136   0.782
39389W        W11814   2.825  40.788   2.724
39390W        W11815  38.431  16.630   4.254
39391W        W11816  15.207  39.455   4.082
39392W        W11817  42.219  28.230   3.801
39393W        W11818  15.809  11.245   0.637
39394W        W11819   5.568  21.778  12.658
39395W        W11820  10.285   1.883  14.140
39396W        W11821  43.189  27.499   1.349
39397W        W11822  15.241  39.439  12.847
39398W        W11823  38.823  27.626   2.393
39399W        W11824   4.699   6.778  10.809
39400W        W11825  39.903  42.848   3.357
39401W        W11826  18.213   0.738   3.326
39402W        W11827  26.096  37.565  10.601
39403W        W11828  38.365   0.192   2.230
39404W        W11829  43.341  37.220  12.027
39405W        W11830  23.180  28.035  10.774
39406W        W11831  35.642  32.632   4.784
39407W        W11832   0.450  13.842   0.314
39408W        W11833  14.506  36.037  13.371
39409W        W11834  35.351  14.717   0.209
39410W        W11835  24.239  13.656   2.713
39411W        W11836  19.611   6.736   0.953
39412W        W11837  17.519  27.037  12.093
39413W        W11838  30.316   3.842   2.139
39414W        W11839  34.646  11.656   2.474
39415W        W11840  30.620  24.554  11.734
39416W        W11841   9.569  38.184  13.488
39417W        W11842  36.688  31.960   1.737
39418W        W11843  43.893  38.340   2.699
39419W        W11844  35.644  39.487   3.433
39420W        W11845   4.843  16.191  10.942
39421W        W11846   9.117  25.216  13.574
39422W        W11847  30.661  32.500   0.863
39423W        W11848  14.201   9.220   4.120
39424W        W11849  19.353  27.379  12.134
39425W        W11850   9.310  10.636  11.148
39426W        W11851   8.827   6.912   1.462
39427W        W11852   1.160  11.743   5.076
39428W        W11853  44.696  23.075  14.419
39429W        W11854  31.527  40.943   4.614
39430W        W11855  27.994  19.219  11.377
39431W        W11856   2.674  31.630  10.848
39432W        W11857  17.148  11.273   1.221
39433W        W11858   3.453  39.019  13.103
39434W        W11859  37.851   8.251  11.610
39435W        W11860  43.758  18.225   4.658
39436W        W11861  20.396  42.940  10.664
39437W        W11862   8.790  39.878  10.387
39438W        W11863  43.287  38.961   1.073
39439W        W11864  18.515  29.221   4.256
39440W        W11865  31.733  28.690  12.534
39441W        W11866  38.846  38.477   4.145
39442W        W11867  26.959  12.863   2.272
39443W        W11868  29.008  25.279   4.340
39444W        W11869  17.555  11.186  10.963
39445W        W11870  16.609  26.667   3.758
39446W        W11871  42.860   5.244   3.722
39447W        W11872  25.454  32.942  10.628
39448W        W11873  44.444   1.065   1.831
39449W        W11874  10.927  16.819   0.876
39450W        W11875  24.231  42.407  12.868
39451W        W11876  21.665  41.566  14.792
39452W        W11877   2.752   5.872  12.552
39453W        W11878  10.802  11.793   0.044
39454W        W11879  39.834  13.358   3.706
39455W        W11880   6.408  42.852  11.605
39456W        W11881  37.387  35.401  14.066
39457W        W11882  42.399  41.012   0.833
39458W        W11883  26.646  11.183   2.343
39459W        W11884  32.544   0.771  10.646
39460W        W11885  37.128   9.925   4.575
39461W        W11886  26.029  27.469   4.428
39462W        W11887  13.005  36.091  11.043
39463W        W11888   7.499  13.196   3.356
39464W        W11889  16.892  11.781   5.034
39465W        W11890  13.551   5.261  10.978
39466W        W11891   8.608  22.937  14.925
39467W        W11892   1.855  20.779  11.196
39468W        W11893  19.294  41.378   3.268
39469W        W11894  37.524  43.291   0.797
39470W        W11895  30.515  28.053   5.188
39471W        W11896   4.819  28.998   2.895
39472W        W11897  41.554  44.341  12.506
39473W        W11898  28.016  10.611   3.438
39474W        W11899  15.517   0.474  10.905
39475W        W11900  25.972  19.275  13.487
39476W        W11901   3.373  12.309   1.960
39477W        W11902  25.961   1.363   3.443
39478W        W11903  42.973  24.587  14.534
39479W        W11904  24.577  37.366   0.205
39480W        W11905  28.924  19.349   4.668
39481W        W11906  18.465  40.578   0.802
39482W        W11907  27.021  13.465  14.592
39483W        W11908  10.453  12.101   2.441
39484W        W11909  43.098  39.330   2.425
39485W        W11910  36.263  13.245  14.288
39486W        W11911  42.903  34.658   0.034
39487W        W11912  35.560  25.491   0.349
39488W        W11913  26.534   3.481   3.317
39489W        W11914  12.181  11.213  10.979
39490W        W11915  40.934  24.155  14.220
39491W        W11916  22.986  23.244  12.890
39492W        W11917  16.682  20.474   2.360
39493W        W11918  15.696  12.776   3.647
39494W        W11919   9.652  22.735   0.722
39495W        W11920  39.993  12.582  12.900
39496W        W11921  30.157  31.124  14.315
39497W        W11922  25.963  42.965   1.270
39498W        W11923   3.318   7.190   0.322
39499W        W11924   2.260   3.679  10.934
39500W        W11925  23.876  34.725  10.998
39501W        W11926  24.602  38.211  12.956
39502W        W11927  34.938   0.840   1.154
39503W        W11928  34.833  38.953  10.685
39504W        W11929  30.911  35.924  14.525
39505W        W11930  33.194  22.184   4.680
39506W        W11931   4.459  32.286   1.766
39507W        W11932   2.339  20.088  12.792
39508W        W11933  36.507   3.151  12.483
39509W        W11934  28.692   8.740   3.632
39510W        W11935   6.649  32.981  11.626
39511W        W11936   5.138  23.718  14.566
39512W        W11937  22.016   4.418  13.807
39513W        W11938  41.106  34.165  13.578
39514W        W11939  37.681  24.581  11.157
39515W        W11940   4.306  42.506   0.307
39516W        W11941   6.667  41.355  13.399
39517W        W11942  10.794  17.674   2.568
39518W        W11943  39.239   6.487  11.097
39519W        W11944   3.544  18.545  13.092
39520W        W11945  26.208   5.372   1.942
39521W        W11946  10.436  11.726   4.658
39522W        W11947  37.001  25.463  12.545
39523W        W11948  37.839  18.382  14.942
39524W        W11949   0.614   0.295  11.658
39525W        W11950  41.716  38.932   4.135
39526W        W11951   0.251  17.484   1.811
39527W        W11952  17.991   6.164  13.556
39528W        W11953   8.519  25.740  10.601
39529W        W11954  25.077  44.173   0.109
39530W        W11955  14.317  28.938   3.718
39531W        W11956  42.384  35.083  12.391
39532W        W11957  15.625   5.812  13.441
39533W        W11958  31.643  25.505   3.357
39534W        W11959  27.201  41.602  14.403
39535W        W11960  13.309  30.625  11.600
39536W        W11961  18.122   8.739  13.702
39537W        W11962  14.103   7.702   4.670
39538W        W11963  28.420   5.427   0.315
39539W        W11964  20.046  17.993  13.979
39540W        W11965  42.474  30.179  12.595
39541W        W11966  16.207  28.090  14.886
39542W        W11967   5.691  22.696   4.118
39543W        W11968   6.789  35.650   0.318
39544W        W11969  14.779   6.664  13.762
39545W        W11970  23.264  30.524   0.663
39546W        W11971  27.934  21.177  14.478
39547W        W11972  11.698  38.046  12.938
39548W        W11973  33.550  11.198   1.951
39549W        W11974   0.226  34.493  11.171
39550W        W11975  27.766   8.938   0.440
39551W        W11976  43.067  33.505  13.340
39552W        W11977   1.837  22.822   2.980
39553W        W11978  25.757  20.632  14.527
39554W        W11979  36.635   0.693   0.510
39555W        W11980  42.484   8.845  14.897
39556W        W11981  37.234  14.779  11.176
39557W        W11982  41.507  20.697  13.295
39558W        W11983  19.538   4.201  10.885
39559W        W11984   8.129  19.580   3.592
39560W        W11985  28.623   6.520   2.465
39561W        W11986  32.725  12.756  11.914
39562W        W11987  32.554  44.391  10.950
39563W        W11988  11.278  35.344   1.881
39564W        W11989  15.366  21.982  11.249
39565W        W11990  37.412  41.591  14.577
39566W        W11991  17.881  31.680  11.511
39567W        W11992  32.926  44.993  13.571
39568W        W11993   6.362  37.946  12.473
39569W        W11994  22.704  41.843  10.484
39570W        W11995  24.700   0.907   2.280
39571W        W11996  43.967  11.608   0.768
39572W        W11997  32.832  11.430   0.231
39573W        W11998  14.182  12.337  13.836
39574W        W11999  11.242  18.218   2.344
39575W        W12000  36.873  33.017   5.073
39576W        W12001  20.951   4.796   3.183
39577W        W12002  33.848  33.349  14.583
39578W        W12003  27.224  36.953  11.556
39579W        W12004   9.798   1.535   4.213
39580W        W12005  27.460  36.198  11.687
39581W        W12006  25.073  29.670  11.897
39582W        W12007  42.303  34.895   1.467
39583W        W12008  18.169  25.286  13.713
39584W        W12009   9.103  21.658  11.160
39585W        W12010  38.817  44.378  10.002
39586W        W12011  18.340  44.827  12.139
39587W        W12012  16.116   5.524  10.184
39588W        W12013  31.364   0.220   4.661
39589W        W12014  25.238  26.204  12.566
39590W        W12015  32.869  35.862   1.432
39591W        W12016  37.277   5.705  14.040
39592W        W12017  27.557  27.287  12.930
39593W        W12018  43.889  22.558   3.369
39594W        W12019  39.479  11.664   0.308
39595W        W12020  36.446  25.391   5.028
39596W        W12021  35.408  26.517  14.730
39597W        W12022  32.228   1.224   3.860
39598W        W12023  28.627  13.395   0.819
39599W        W12024   8.918  30.584  14.335
39600W        W12025  17.343  27.375  11.439
39601W        W12026  43.941  14.262   3.555
39602W        W12027  41.535  25.791  14.764
39603W        W12028  32.414  36.527  13.955
39604W        W12029   4.737  40.408   0.735
39605W        W12030  37.018   4.864   4.760
39606W        W12031  26.209  15.690   2.146
39607W        W12032  36.034  25.182  12.052
39608W        W12033  10.213   7.147   0.751
39609W        W12034  15.815  26.211   3.677
39610W        W12035  22.744  36.906   3.233
39611W        W12036   8.344  14.255   4.560
39612W        W12037  31.159  39.131   0.351
39613W        W12038  41.080   3.585   3.848
39614W        W12039  15.612  13.482  13.837
39615W        W12040  42.361  43.600   3.158
39616W        W12041  20.017  38.855   2.067
39617W        W12042   8.465  28.111   3.978
39618W        W12043  26.861  13.173   4.059
39619W        W12044  42.315  19.339   2.668
39620W        W12045  38.969   5.210  10.486
39621W        W12046  13.200  32.556  14.317
39622W        W12047  44.541   3.932  11.518
39623W        W12048  20.168  17.788   2.102
39624W        W12049  34.269  28.172  11.494
39625W        W12050  39.040  27.965   1.360
39626W        W12051  26.442   1.720   3.634
39627W        W12052  16.707   5.679   3.082
39628W        W12053  33.444  18.242   3.292
39629W        W12054  19.954  36.093   5.038
39630W        W12055  36.545  16.165  14.992
39631W        W12056  26.455   1.101  14.661
39632W        W12057  43.313  26.322  10.474
39633W        W12058  15.277  24.602  12.628
39634W        W12059  19.510  20.557  14.137
39635W        W12060  33.634  32.157  11.622
39636W        W12061  14.223   2.420   3.397
39637W        W12062   3.723  42.417   3.596
39638W        W12063   8.181  11.207   1.971
39639W        W12064  30.391  41.322   5.461
39640W        W12065   4.383   3.843  12.538
39641W        W12066  27.637  25.141   2.948
39642W        W12067  26.991  21.211   3.601
39643W        W12068  23.299   0.759  10.665
39644W        W12069  13.338   6.597  14.036
39645W        W12070   5.434  13.758   3.695
39646W        W12071  27.241  12.031   2.582
39647W        W12072   6.884  35.448   4.578
39648W        W12073   7.798   5.118   4.576
39649W        W12074  27.438  27.641   3.464
39650W        W12075  13.591   4.833   1.226
39651W        W12076  12.312   8.639  12.754
39652W        W12077   0.069  32.511   3.233
39653W        W12078  15.279  40.275   2.784
39654W        W12079  24.887   9.761  11.111
39655W        W12080  18.249  44.355   1.724
39656W        W12081   0.708  38.124   4.511
39657W        W12082  37.295   3.657   1.203
39658W        W12083  17.673  23.307   2.676
39659W        W12084   9.202  33.664   1.491
39660W        W12085  34.835   5.911   2.720
39661W        W12086   7.849  39.152  12.403
39662W        W12087  13.763   8.918  14.026
39663W        W12088  26.145  38.000  11.994
39664W        W12089  24.745  12.891  13.923
39665W        W12090  22.468  17.228   4.535
39666W        W12091   0.801  16.123   3.652
39667W        W12092  13.289  22.315   0.955
39668W        W12093   8.559  16.571  13.971
39669W        W12094  41.457  28.306   0.415
39670W        W12095  25.456  29.382   1.748
39671W        W12096   4.681   0.008   0.353
39672W        W12097  24.416  36.793  13.837
39673W        W12098  29.924  28.674  13.446
39674W        W12099  32.393   6.809   0.879
39675W        W12100  42.878  28.418   1.327
39676W        W12101  35.395  39.621   3.008
39677W        W12102  39.975  24.580   2.135
39678W        W12103  12.788  34.494   3.124
39679W        W12104  11.882  22.840   4.262
39680W        W12105  19.617  16.296   3.247
39681W        W12106  14.923  21.290  12.452
39682W        W12107  28.546  25.636  13.735
39683W        W12108  24.630   1.397  12.453
39684W        W12109  33.672  40.312   2.124
39685W        W12110  44.024  20.703  10.635
39686W        W12111  37.901   3.298  14.310
39687W        W12112  14.298  12.808  12.934
39688W        W12113  23.002   4.932   2.400
39689W        W12114  33.926  27.374   0.565
39690W        W12115   0.949  39.485  14.022
39691W        W12116  20.004  43.262   2.297
39692W        W12117   0.228  26.245  12.075
39693W        W12118  32.153  40.544  10.472
39694W        W12119   5.251  30.866   1.925
39695W        W12120  35.059  18.072  14.129
39696W        W12121  20.959   1.469   0.568
39697W        W12122  43.479  39.358   3.551
39698W        W12123   1.809  16.436   3.747
39699W        W12124  28.487  39.984  12.853
39700W        W12125  42.852  39.748   1.423
39701W        W12126  21.591  13.093   1.796
39702W        W12127  29.685  28.660   1.262
39703W        W12128  25.962  42.193  11.326
39704W        W12129  36.134  15.916  13.374
39705W        W12130   7.969  30.638  10.780
39706W        W12131  21.096  12.905  10.499
39707W        W12132   1.217  33.596   0.448
39708W        W12133  23.497  29.623  10.645
39709W        W12134   7.027  38.884   2.947
39710W        W12135  21.179  33.162   3.226
39711W        W12136   0.321  16.589  14.889
39712W        W12137   4.176  10.109   1.668
39713W        W12138  29.386  28.446   0.845
39714W        W12139  17.121  13.456  10.671
39715W        W12140  25.725  31.663   3.573
39716W        W12141  19.583   9.623  14.458
39717W        W12142  15.875  31.121  13.864
39718W        W12143   7.798  23.386   0.336
39719W        W12144  18.737  14.241   2.566
39720W        W12145  21.665  41.572  12.221
39721W        W12146  16.751  41.074   2.293
39722W        W12147  36.676  16.687  13.390
39723W        W12148  17.395  26.210   3.722
39724W        W12149  34.412  14.674  11.430
39725W        W12150  38.946  35.847   4.042
39726W        W12151  18.505   3.216  14.423
39727W        W12152  20.732  12.876   1.602
39728W        W12153  38.441   6.182  14.379
39729W        W12154   1.755   8.950  14.476
39730W        W12155  28.472  42.111  14.409
39731W        W12156  35.003  20.314   0.413
39732W        W12157  15.199   4.679  14.846
39733W        W12158  41.343  10.772  11.186
39734W        W12159  22.929  10.352   4.194
39735W        W12160  26.537   5.702  11.975
39736W        W12161  16.158  39.112   3.754
39737W        W12162  16.961  11.180  11.947
39738W        W12163  36.239   7.464  11.665
39739W        W12164  28.120  17.559  12.431
39740W        W12165   5.804   7.216   1.632
39741W        W12166  17.756  24.451   2.342
39742W        W12167  38.588   6.353   1.683
39743W        W12168  22.674  12.860   0.511
39744W        W12169  28.094  32.518  11.593
39745W        W12170  10.885  22.536   1.670
39746W        W12171  18.716  20.676  10.387
39747W        W12172   1.368  44.570   4.811
39748W        W12173   3.724   9.594  12.452
39749W        W12174  16.269   4.432   3.496
39750W        W12175  33.023  24.057  10.724
39751W        W12176  28.628   9.150  11.739
39752W        W12177  33.484  32.104   2.617
39753W        W12178   1.950  35.939  10.765
39754W        W12179  39.071  41.249   4.193
39755W        W12180  44.072  21.089  11.904
39756W        W12181   5.756   9.116  14.850
39757W        W12182   0.957  22.930  11.219
39758W        W12183  16.843  22.116   1.974
39759W        W12184  27.496  36.848   0.869
39760W        W12185  21.775  43.564   2.824
39761W        W12186  12.073   4.749   1.786
39762W        W12187   7.284  25.696  11.146
39763W        W12188  20.463   8.283   4.143
39764W        W12189  15.607  24.130  11.034
39765W        W12190   9.343  44.577  13.379
39766W        W12191   2.934  12.426  11.977
39767W        W12192  27.152  22.187  13.164
39768W        W12193  25.466  43.946   0.592
39769W        W12194   2.408   1.840   3.283
39770W        W12195  42.643  29.130   2.424
39771W        W12196  13.671   2.997  12.442
39772W        W12197  17.112   7.412  12.419
39773W        W12198  33.326  18.684   5.107
39774W        W12199   7.676   6.230  13.095
39775W        W12200   6.883  11.096  14.391
39776W        W12201  41.385  10.742   0.238
39777W        W12202  26.449  28.046  11.947
39778W        W12203   5.919  20.596   3.916
39779W        W12204  32.583   4.258  13.559
39780W        W12205  19.856  33.627   2.698
39781W        W12206  16.514  20.248   1.422
39782W        W12207  39.105  25.432   3.650
39783W        W12208  21.268  18.616   1.370
39784W        W12209  34.115  23.410  13.115
39785W        W12210  19.072  38.160  11.139
39786W        W12211   9.855  20.454   0.971
39787W        W12212   2.056   4.794   1.130
39788W        W12213  20.342   0.528   1.184
39789W        W12214  23.033  32.852  10.730
39790W        W12215  36.820  26.006   0.221
39791W        W12216   0.292  43.837  11.402
39792W        W12217  17.276  42.293   1.314
39793W        W12218   5.135  32.460  14.785
39794W        W12219  16.485  35.597   2.037
39795W        W12220   6.692   4.791   4.111
39796W        W12221  18.787  26.345  12.633
39797W        W12222  35.490  18.477  13.196
39798W        W12223  20.812  25.534   4.571
39799W        W12224  34.515  12.693  11.605
39800W        W12225  21.460  17.919  14.925
39801W        W12226   8.703  40.335  11.569
39802W        W12227  29.502  12.904  14.021
39803W        W12228  43.359  33.647  11.245
39804W        W12229  35.879   3.896  13.214
39805W        W12230  32.211  16.512  11.218
39806W        W12231  20.362   1.984  11.160
39807W        W12232  11.540   1.689   9.684
39808W        W12233  31.562  39.363  11.824
39809W        W12234  25.740  41.569  12.226
39810W        W12235   6.201  14.312  11.157
39811W        W12236  38.958  34.834   0.308
39812W        W12237  38.426  21.126   1.519
39813W        W12238  39.129  19.799  12.109
39814W        W12239  22.568   6.471   3.144
39815W        W12240  17.591  34.322  14.260
39816W        W12241   2.427  40.082   0.023
39817W        W12242  19.218  28.491   4.178
39818W        W12243   6.682  43.566   1.275
39819W        W12244  22.008  39.315   0.826
39820W        W12245  33.698  31.945   3.460
39821W        W12246  39.358  17.120  13.785
39822W        W12247  33.662   3.647  10.450
39823W        W12248  13.646   7.176  13.245
39824W        W12249  44.886   0.676  11.983
39825W        W12250  19.536  36.224  12.097
39826W        W12251   9.875  25.622  13.136
39827W        W12252  11.277  36.260   1.844
39828W        W12253   1.224  23.425   2.367
39829W        W12254  34.011  43.576  13.177
39830W        W12255  20.622  23.157  14.997
39831W        W12256  29.409   7.683  12.000
39832W        W12257  20.792  11.448  12.983
39833W        W12258   8.061   1.326  13.446
39834W        W12259  34.427  13.386  14.410
39835W        W12260  35.904  12.815   2.367
39836W        W12261   0.338  33.968   0.295
39837W        W12262  39.758   3.113  12.116
39838W        W12263  33.960  24.704   0.577
39839W        W12264  18.172  31.626  11.076
39840W        W12265  33.034  34.816  14.006
39841W        W12266  20.689  20.056   4.147
39842W        W12267   9.609   0.490  13.417
39843W        W12268  19.724  34.143   2.575
39844W        W12269  44.385  44.344  11.111
39845W        W12270   9.633   2.697  11.802
39846W        W12271  22.895   3.028  10.289
39847W        W12272  23.246  21.203  12.978
39848W        W12273  11.796  18.770   4.943
39849W        W12274  40.418  33.037  14.519
39850W        W12275  19.959  32.017   2.788
39851W        W12276  26.581  29.255  12.551
39852W        W12277   6.187   9.881  11.506
39853W        W12278   2.649  41.200   2.993
39854W        W12279  41.495  12.573  10.558
39855W        W12280  23.221  17.675  11.535
39856W        W12281   0.536   2.531  13.321
39857W        W12282  22.153   3.017  12.634
39858W        W12283  25.618  21.560  10.329
39859W        W12284  25.942  24.183   2.626
39860W        W12285  11.318  18.748   2.333
39861W        W12286   6.435  44.777  13.134
39862W        W12287  16.187  19.529   3.493
39863W        W12288  30.958  22.448   3.561
39864W        W12289  23.178   7.624  13.967
39865W        W12290  13.347  39.989  12.087
39866W        W12291  40.226  34.256   0.346
39867W        W12292  11.765   3.879   1.284
39868W        W12293  40.880  23.583   2.479
39869W        W12294  21.949   9.876  10.628
39870W        W12295  25.072  32.722   1.353
39871W        W12296  36.582  23.957  13.456
39872W        W12297   3.397  41.626  12.987
39873W        W12298  39.334  30.806  13.885
39874W        W12299  36.247  37.806   1.435
39875W        W12300   3.943  24.108  14.064
39876W        W12301  34.129  25.093  13.358
39877W        W12302   8.569  20.976  13.892
39878W        W12303  25.023  29.464   1.002
39879W        W12304  15.978  30.947  12.472
39880W        W12305   5.751  43.896   3.189
39881W        W12306  27.998   4.242  14.705
39882W        W12307  30.465  12.677   4.605
39883W        W12308  21.809  16.107   0.301
39884W        W12309  30.029  39.535   0.998
39885W        W12310  36.519  24.956  12.123
39886W        W12311  38.935  10.127  14.875
39887W        W12312   2.940  12.234  14.833
39888W        W12313   0.318  41.613  11.984
39889W        W12314  42.858  32.046  10.703
39890W        W12315  15.852  11.317  13.998
39891W        W12316  23.970   2.736  14.142
39892W        W12317  39.249  29.827   2.812
39893W        W12318   9.984  33.907   1.470
39894W        W12319  34.859  42.257   3.728
39895W        W12320  20.602  11.098  10.508
39896W        W12321  13.757  18.442  11.340
39897W        W12322  25.014  15.205  14.933
39898W        W12323  14.985  31.211   2.239
39899W        W12324   3.913  24.107   3.699
39900W        W12325  31.235  20.984   4.296
39901W        W12326  19.030  19.859  14.554
39902W        W12327  39.902  28.250   3.795
39903W        W12328  35.011   0.550  14.324
39904W        W12329  21.027  31.363  10.814
39905W        W12330  36.292  40.847  14.360
39906W        W12331  32.754  23.520  11.525
39907W        W12332  36.320  22.397   4.501
39908W        W12333  26.948  17.447  11.225
39909W        W12334  23.488   2.839   1.281
39910W        W12335  11.628  13.499   3.763
39911W        W12336  39.101  32.596   0.918
39912W        W12337   7.175  26.738   0.847
39913W        W12338  29.672  41.924  11.246
39914W        W12339  10.728  15.110   1.241
39915W        W12340   2.737  23.724   2.131
39916W        W12341  28.500  32.420  13.408
39917W        W12342  40.783  25.966  11.257
39918W        W12343  34.995  26.989   2.269
39919W        W12344  34.835  38.616  11.473
39920W        W12345   8.726  29.122  11.536
39921W        W12346  32.919   0.749   2.259
39922W        W12347  31.573  34.072  10.456
39923W        W12348  36.814  12.827  11.632
39924W        W12349   9.469  17.790  12.125
39925W        W12350  35.422  27.030   3.377
39926W        W12351  24.445  13.140   3.684
39927W        W12352   7.696  30.046  14.451
39928W        W12353  32.018   0.291   2.211
39929W        W12354   9.257  29.836   0.673
39930W        W12355   1.937  35.338  11.055
39931W        W12356  12.254  33.904  11.148
39932W        W12357  42.594   7.371  11.890
39933W        W12358  30.995  18.584   1.284
39934W        W12359  11.934  32.353  14.010
39935W        W12360   0.799  37.582  13.080
39936W        W12361   0.328  15.815  12.915
39937W        W12362  30.610   0.420   1.240
39938W        W12363  44.837  18.075   1.004
39939W        W12364   8.749  39.336   3.905
39940W        W12365  34.994   5.972  11.564
39941W        W12366  27.198  29.884  11.043
39942W        W12367  11.377  18.268   0.159
39943W        W12368  24.732  30.404  11.704
39944W        W12369   1.451  35.934  10.911
39945W        W12370  30.361  39.496   5.067
39946W        W12371   4.516  29.826   2.887
39947W        W12372  31.330  28.615   0.697
39948W        W12373  23.630  23.660  14.753
39949W        W12374   4.346  34.444  10.644
39950W        W12375   0.291  36.332   2.821
39951W        W12376  18.057  37.911   2.280
39952W        W12377   4.253  19.204  11.885
39953W        W12378  22.244  33.841  11.846
39954W        W12379  39.249  40.696  14.953
39955W        W12380  36.014  35.608   2.808
39956W        W12381  17.083  12.541   2.228
39957W        W12382   2.453  16.267  10.577
39958W        W12383  29.610   9.887  10.751
39959W        W12384  32.053  10.896  12.584
39960W        W12385   6.567  44.224  11.502
39961W        W12386  36.979  12.038  11.404
39962W        W12387   5.622  29.963   1.652
39963W        W12388   6.067  13.597   0.135
39964W        W12389  21.671  32.653   3.642
39965W        W12390  27.600  30.729   2.728
39966W        W12391  30.064  10.826  12.511
39967W        W12392  33.858  37.822   0.759
39968W        W12393  41.495  42.274  10.770
39969W        W12394  37.606  34.311   1.212
39970W        W12395  26.753  41.894  14.428
39971W        W12396  43.028   7.649   1.875
39972W        W12397  23.824  40.190   0.937
39973W        W12398  36.818  23.502  13.362
39974W        W12399  13.203  19.620  13.506
39975W        W12400  42.847  42.403   4.598
39976W        W12401  23.032  15.686   1.671
39977W        W12402  44.324  40.309   3.511
39978W        W12403   0.042  22.596   1.341
39979W        W12404  39.160   6.450   2.825
39980W        W12405  25.667  17.421   3.673
39981W        W12406  38.777  20.416  13.097
39982W        W12407  38.420  23.091   4.293
39983W        W12408   1.897  33.620  10.507
39984W        W12409  20.747   3.948  13.148
39985W        W12410  29.783  30.504  13.933
39986W        W12411  29.184  43.824  13.623
39987W        W12412  42.067   6.598  14.858
39988W        W12413  15.236  11.415  13.388
39989W        W12414  27.072  32.402   2.137
39990W        W12415  20.021   3.457   2.826
39991W        W12416  13.903  11.884  10.626
39992W        W12417  25.421  14.889   2.750
39993W        W12418   2.457  12.285  12.183
39994W        W12419  32.371   5.441  12.892
39995W        W12420  22.525  14.119  10.818
39996W        W12421  17.735  27.882  11.175
39997W        W12422  30.853  20.202  10.807
39998W        W12423  15.760  23.221  14.322
39999W        W12424   5.845  17.474  13.342
40000W        W12425  16.733   0.251   2.168
40001W        W12426  25.640  14.386   2.733
40002W        W12427  42.441  19.343  12.587
40003W        W12428  44.549   2.307   0.876
40004W        W12429  15.912  19.219  12.142
40005W        W12430  17.534  34.052   0.098
40006W        W12431   1.586   4.490  13.460
40007W        W12432  44.591  36.751  14.399
40008W        W12433  43.387   1.176  12.013
40009W        W12434  21.047  19.645   3.126
40010W        W12435  40.427  24.427   2.314
40011W        W12436  18.216  28.526  11.189
40012W        W12437  24.164  35.495  12.654
40013W        W12438  30.514  32.596  15.000
40014W        W12439  29.013   7.828  11.430
40015W        W12440  28.574   6.893   0.770
40016W        W12441  28.607  19.117   3.377
40017W        W12442  10.701   9.223  12.854
40018W        W12443  12.786  18.531   2.472
40019W        W12444   1.722  24.530   3.333
40020W        W12445   3.597  25.606   4.564
40021W        W12446  21.301  16.128   2.033
40022W        W12447  15.479  25.945  10.971
40023W        W12448  30.491  31.184   4.167
40024W        W12449  28.130  29.962  11.941
40025W        W12450  11.287  15.095   2.704
40026W        W12451  24.118   4.529  10.148
40027W        W12452  30.005  15.168  13.418
40028W        W12453  14.590  35.929   3.671
40029W        W12454  39.024  40.840  12.151
40030W        W12455   3.311  10.465  10.735
40031W        W12456  34.104   5.492  10.633
40032W        W12457  41.459  39.409  13.354
40033W        W12458  43.778  13.251  14.962
40034W        W12459   1.344   2.951   4.235
40035W        W12460  28.814  41.856   5.142
40036W        W12461   4.714   1.567   1.858
40037W        W12462  30.213  16.306   3.658
40038W        W12463  15.117  24.475  11.129
40039W        W12464   3.490  13.209   4.474
40040W        W12465  40.863  23.554   9.988
40041W        W12466  14.591  19.533   3.112
40042W        W12467  40.471  31.607   4.425
40043W        W12468  25.762  28.854  11.195
40044W        W12469  30.661  38.405  14.764
40045W        W12470  43.353   8.925   2.400
40046W        W12471  26.574  35.257   0.558
40047W        W12472   2.198  33.569  11.196
40048W        W12473   5.735  27.146  14.023
40049W        W12474  24.649  33.033   3.347
40050W        W12475   8.267  30.094   1.289
40051W        W12476  16.290  19.104   0.825
40052W        W12477  18.098  42.017   1.665
40053W        W12478  28.400   8.195  14.389
40054W        W12479  14.076  13.397  11.533
40055W        W12480  15.559  19.982  11.028
40056W        W12481  42.825   9.625   4.626
40057W        W12482   1.877  28.430  14.384
40058W        W12483  30.422  26.900  14.806
40059W        W12484  34.226   6.849  11.199
40060W        W12485  16.074  36.992  11.366
40061W        W12486  42.003  38.387   2.365
40062W        W12487  31.525  42.128  11.127
40063W        W12488  43.405   7.270   3.079
40064W        W12489  11.395  24.647   3.157
40065W        W12490  42.925  19.790   3.232
40066W        W12491  40.141  25.084  11.934
40067W        W12492  22.244  11.082  11.074
40068W        W12493  26.960  13.628  14.108
40069W        W12494  43.715  43.500  12.107
40070W        W12495   8.382  18.492  10.780
40071W        W12496  27.923   5.442  12.686
40072W        W12497  42.301   0.248  14.349
40073W        W12498  38.215  30.417   0.170
40074W        W12499  30.953   3.990  11.953
40075W        W12500  43.035  13.397  10.682
40076W        W12501  20.313  10.579   0.734
40077W        W12502   8.940   2.852  14.961
40078W        W12503  21.668  16.408   4.215
40079W        W12504  19.532  22.771   2.709
40080W        W12505  29.534   3.731   0.456
40081W        W12506  26.641  15.845   4.934
40082W        W12507  33.563  28.249   1.761
40083W        W12508  20.934  15.180   0.379
40084W        W12509  11.077  20.712  11.960
40085W        W12510  13.959  20.818  12.439
40086W        W12511   3.943   1.623   3.167
40087W        W12512  25.251  33.641   2.614
40088W        W12513   6.390  12.671  13.225
40089W        W12514  40.792  17.661  11.732
40090W        W12515  42.299  30.385  13.783
40091W        W12516  37.054   8.764   1.551
40092W        W12517  25.815  39.301   4.488
40093W        W12518  32.442   3.821   0.772
40094W        W12519  42.016  11.934   4.220
40095W        W12520  18.149  39.744  11.864
40096W        W12521  44.500  11.296   2.732
40097W        W12522   4.330  31.989   2.188
40098W        W12523  26.099  36.893   3.824
40099W        W12524  42.999  34.029   2.751
40100W        W12525  16.590   3.389  12.103
40101W        W12526   2.117  25.546   2.829
40102W        W12527   1.766  35.505   2.594
40103W        W12528   3.798  15.652  11.564
40104W        W12529  34.838   6.869  13.805
40105W        W12530  42.390  41.010  12.380
40106W        W12531  44.405  40.017  10.691
40107W        W12532  25.628   0.157   4.346
40108W        W12533  14.572   0.872  13.766
40109W        W12534  19.631  21.072  14.778
40110W        W12535   0.889  26.056   2.740
40111W        W12536  14.630  34.340  14.310
40112W        W12537  23.475  21.333  14.800
40113W        W12538  10.960   1.265   2.266
40114W        W12539  26.617  39.873   4.650
40115W        W12540  34.097  17.245  11.643
40116W        W12541  11.475   8.413  14.502
40117W        W12542   7.429  20.835  12.427
40118W        W12543  32.177   4.885   0.403
40119W        W12544  29.904  40.301  11.989
40120W        W12545  17.548  32.258   3.306
40121W        W12546  36.613  12.747   1.917
40122W        W12547  28.604  24.158   2.976
40123W        W12548   0.370  32.541   2.211
40124W        W12549  14.659  29.212  11.466
40125W        W12550  27.622  24.437  11.633
40126W        W12551   9.416   4.796   3.825
40127W        W12552  39.914  32.437   3.321
40128W        W12553  37.401  19.018   3.130
40129W        W12554  40.354  12.750   2.335
40130W        W12555  15.197   1.973   3.586
40131W        W12556  37.444  27.465  14.081
40132W        W12557  10.126  20.269  13.117
40133W        W12558  10.712  43.992  13.547
40134W        W12559  16.717  28.705  11.719
40135W        W12560   5.574  34.588  12.172
40136W        W12561  44.755  43.064  13.904
40137W        W12562  21.717  43.567   1.022
40138W        W12563  13.890  34.926   3.674
40139W        W12564  22.165   4.392   4.950
40140W        W12565  25.016  11.154   2.402
40141W        W12566  19.729  25.357  12.942
40142W        W12567  36.462  20.962   4.731
40143W        W12568  19.541   1.323   1.884
40144W        W12569  33.446  35.851   2.293
40145W        W12570  13.910   2.862  11.148
40146W        W12571  19.146  35.167   3.273
40147W        W12572  34.455  38.314   1.804
40148W        W12573  21.960   3.426  11.081
40149W        W12574  33.523  31.669   0.188
40150W        W12575   7.771  41.389   3.830
40151W        W12576  43.491  39.919  10.571
40152W        W12577  17.137  26.359   4.598
40153W        W12578  11.741  19.009  13.120
40154W        W12579  43.975  36.847  10.874
40155W        W12580  43.254  30.606  10.667
40156W        W12581   3.311  27.412  12.941
40157W        W12582  29.962  17.256  11.995
40158W        W12583   0.438   5.942  11.155
40159W        W12584  34.141  33.977   3.120
40160W        W12585  20.752  33.851   4.955
40161W        W12586  15.255  17.584   3.554
40162W        W12587   8.198  10.420   3.418
40163W        W12588  33.846  17.774  12.971
40164W        W12589   2.787  23.728   0.551
40165W        W12590  20.694  19.505   2.412
40166W        W12591   7.269   0.346   2.690
40167W        W12592  27.406  32.045  11.850
40168W        W12593  17.608  41.258   2.260
40169W        W12594  15.813  21.426  13.491
40170W        W12595  26.692  33.238   1.290
40171W        W12596  38.838  19.175  13.927
40172W        W12597  14.689  23.617   2.636
40173W        W12598  42.996  37.313   1.806
40174W        W12599  43.223  43.467   3.903
40175W        W12600  33.615   6.662   1.902
40176W        W12601   3.277  32.437  14.902
40177W        W12602  42.446  33.071   3.475
40178W        W12603   2.256   0.876   4.611
40179W        W12604  26.516  40.452   4.617
40180W        W12605  10.967  33.107   0.199
40181W        W12606  14.329  24.026  13.400
40182W        W12607  15.312  30.484  10.846
40183W        W12608  17.124  43.565   2.683
40184W        W12609  12.552  36.299  14.993
40185W        W12610  32.407  22.362  14.968
40186W        W12611  41.929  33.089  10.721
40187W        W12612  36.463  36.406   3.639
40188W        W12613   7.148  35.624  14.927
40189W        W12614  32.799   1.195  12.670
40190W        W12615   6.379  15.327   4.556
40191W        W12616  36.363  26.032   4.595
40192W        W12617  38.606  28.996   4.933
40193W        W12618  29.518  21.967  10.652
40194W        W12619  30.967  21.149  11.691
40195W        W12620  42.714  16.885   2.612
40196W        W12621  10.912   8.743   3.676
40197W        W12622   2.995  35.889   3.112
40198W        W12623   1.790  44.386   3.106
40199W        W12624  39.466   2.213  11.211
40200W        W12625  15.856  29.269  10.682
40201W        W12626  38.950  35.857   0.392
40202W        W12627  29.543  26.108  12.347
40203W        W12628  35.656  17.814   3.123
40204W        W12629  31.516   3.723  14.271
40205W        W12630  11.083  10.551   0.028
40206W        W12631  11.207  41.898  14.354
40207W        W12632  40.628   8.940   3.659
40208W        W12633  14.884  34.468   3.256
40209W        W12634  20.358  13.739  11.972
40210W        W12635  37.791  23.552   1.426
40211W        W12636  31.862  14.937  12.982
40212W        W12637  25.096  35.535   3.579
40213W        W12638  11.334  10.237  13.770
40214W        W12639  10.238  43.116  11.954
40215W        W12640  18.558  29.187   0.809
40216W        W12641  21.681  20.596  11.922
40217W        W12642  41.544   3.513  10.255
40218W        W12643  12.812  37.345   4.066
40219W        W12644   7.203  33.731  14.275
40220W        W12645  41.366  37.093  13.887
40221W        W12646  40.861  19.374  11.071
40222W        W12647  34.138  38.275   4.042
40223W        W12648   8.164  40.045  10.905
40224W        W12649  31.816  44.893   4.244
40225W        W12650  22.266  29.582  14.893
40226W        W12651  17.560  22.839   2.891
40227W        W12652  36.892  13.091  10.582
40228W        W12653  31.988  20.679  13.123
40229W        W12654  44.710  17.335   1.471
40230W        W12655   9.327  40.874   5.265
40231W        W12656  32.853  21.483   3.207
40232W        W12657  38.073   5.530  13.289
40233W        W12658  43.690  29.597  11.549
40234W        W12659  38.444  44.064  12.039
40235W        W12660  29.042  31.318  12.962
40236W        W12661  39.084  34.343   1.832
40237W        W12662  20.473  25.682  11.589
40238W        W12663   8.761  17.673  11.118
40239W        W12664  35.109  24.899  10.952
40240W        W12665   5.379  31.557  12.938
40241W        W12666  17.377  14.204   2.305
40242W        W12667   0.492  14.684   0.921
40243W        W12668   8.637  37.831   0.373
40244W        W12669  37.112  16.041  13.164
40245W        W12670   1.492   1.304  13.181
40246W        W12671  39.577  11.997   4.605
40247W        W12672   8.753   2.739  14.473
40248W        W12673  28.922  25.747   3.793
40249W        W12674  12.602  38.786  14.792
40250W        W12675  38.946  10.854  10.671
40251W        W12676  34.063  42.383   2.088
40252W        W12677  14.256   5.198   2.820
40253W        W12678  14.102  14.549  12.078
40254W        W12679   4.232  24.730   1.852
40255W        W12680  42.812  43.467   4.250
40256W        W12681  21.675  13.919   1.959
40257W        W12682  10.341   0.982  13.639
40258W        W12683  19.797  35.765   0.853
40259W        W12684  41.419  34.970   1.480
40260W        W12685  44.440  43.514  11.669
40261W        W12686  38.107  31.396   0.002
40262W        W12687  43.901  29.062   3.733
40263W        W12688   2.835  19.099   3.117
40264W        W12689  17.216   1.095   1.404
40265W        W12690  39.184  32.142  11.843
40266W        W12691  24.781  11.103   0.908
40267W        W12692  36.143  11.509  11.147
40268W        W12693  42.442  12.171   0.494
40269W        W12694  37.820  13.861   0.777
40270W        W12695  26.015  12.582   4.437
40271W        W12696   6.460  27.029   1.796
40272W        W12697  32.544   0.371   0.887
40273W        W12698  43.295  12.783   2.788
40274W        W12699  39.919  31.032   3.886
40275W        W12700  40.337  33.377   0.043
40276W        W12701  30.578  37.137   0.184
40277W        W12702   2.788  12.978   3.628
40278W        W12703  10.170   1.219  14.741
40279W        W12704   9.608   4.169  12.439
40280W        W12705  20.245   5.302   2.891
40281W        W12706  40.713  21.200  12.886
40282W        W12707   1.366  41.021   4.528
40283W        W12708   8.174  26.096  12.929
40284W        W12709  24.700  22.031   2.387
40285W        W12710  13.615  21.944  13.913
40286W        W12711  15.323  19.715  12.206
40287W        W12712  43.618  33.700   5.251
40288W        W12713  12.090  19.768  11.591
40289W        W12714  26.925  27.160   2.460
40290W        W12715  20.708  21.167  11.138
40291W        W12716  37.879   1.959  11.606
40292W        W12717  29.956  26.157  13.549
40293W        W12718   6.512  35.359  14.196
40294W        W12719  20.818   5.512   2.724
40295W        W12720   2.719  15.943  11.960
40296W        W12721   0.725  39.863   1.337
40297W        W12722  18.274  43.535   1.926
40298W        W12723  32.533  44.432   4.510
40299W        W12724  13.077  28.176  14.346
40300W        W12725  25.095  43.824  13.397
40301W        W12726   3.926   8.924   3.281
40302W        W12727  15.771  41.468  12.477
40303W        W12728  23.531  22.639  12.410
40304W        W12729  37.482  41.062  12.590
40305W        W12730   5.686  38.939   0.038
40306W        W12731  39.560  26.786   4.076
40307W        W12732  33.782   5.244  10.300
40308W        W12733  30.326   7.454  12.083
40309W        W12734  21.618  23.761  11.767
40310W        W12735  29.873  38.880  12.496
40311W        W12736  26.514  30.475  13.435
40312W        W12737  29.833  32.435  11.074
40313W        W12738  19.270  33.158  14.567
40314W        W12739  30.351  21.686  14.174
40315W        W12740  43.903  14.032   1.969
40316W        W12741  29.167   7.158   4.167
40317W        W12742   8.328  30.555  13.155
40318W        W12743  33.112  16.247  11.203
40319W        W12744  37.065  18.889  10.585
40320W        W12745  39.552  24.295  11.097
40321W        W12746  33.129  43.015   1.474
40322W        W12747   3.335  21.340  14.062
40323W        W12748   6.569  21.739  10.193
40324W        W12749  17.304  13.311  14.343
40325W        W12750  36.806  14.064  11.521
40326W        W12751  22.467   4.893  11.353
40327W        W12752  27.174  26.644  13.950
40328W        W12753  31.720  21.239   1.627
40329W        W12754  16.325  19.235   2.205
40330W        W12755  25.319  42.907   5.220
40331W        W12756  34.427   5.247   4.777
40332W        W12757  28.995  44.825   3.805
40333W        W12758  18.596   1.251   1.737
40334W        W12759  37.460  24.231  11.540
40335W        W12760  16.473  17.566   1.014
40336W        W12761  31.130  36.580   2.290
40337W        W12762   9.674  18.599   0.048
40338W        W12763  35.864  20.758   3.161
40339W        W12764   3.912  36.641   2.739
40340W        W12765  34.591  41.748   1.683
40341W        W12766  38.886   4.756   1.215
40342W        W12767   9.687  31.157  14.471
40343W        W12768  15.320  25.694  13.796
40344W        W12769  32.174   8.813  14.373
40345W        W12770  12.419  18.637  13.959
40346W        W12771  19.357  41.662  13.717
40347W        W12772  42.631   1.324  11.514
40348W        W12773  33.546   9.466   5.155
40349W        W12774  18.075  31.065   2.355
40350W        W12775  12.581  28.953   1.787
40351W        W12776  25.226  43.856  14.242
40352W        W12777   6.036  23.406   1.450
40353W        W12778  10.625   3.321   2.596
40354W        W12779  43.278  14.239  11.119
40355W        W12780   7.089  14.806  11.130
40356W        W12781  40.621  18.580   3.732
40357W        W12782  12.549  19.682   3.125
40358W        W12783  30.985  11.354   4.088
40359W        W12784   1.838  38.346   1.051
40360W        W12785  35.411  32.162   1.246
40361W        W12786  24.011  42.517   4.696
40362W        W12787  14.322  43.291  11.968
40363W        W12788  26.182   3.182   1.172
40364W        W12789  34.679  31.096   1.840
40365W        W12790  13.640   8.557   4.533
40366W        W12791  36.710  28.240   4.927
40367W        W12792  18.768   7.561   0.735
40368W        W12793  38.931  29.896  13.642
40369W        W12794  11.743  34.643   2.620
40370W        W12795  16.781  41.301  14.443
40371W        W12796   1.185   0.319   4.137
40372W        W12797  42.746  31.147   2.803
40373W        W12798  23.191  21.536   1.660
40374W        W12799  11.947  36.438  12.688
40375W        W12800   9.864  13.313  14.593
40376W        W12801   2.203   3.459   4.163
40377W        W12802   5.644  41.836  11.163
40378W        W12803  35.474  34.431   3.355
40379W        W12804  44.291   5.182  13.372
40380W        W12805  10.838  24.867   2.310
40381W        W12806   6.767  17.601  11.179
40382W        W12807  15.483  12.782   2.657
40383W        W12808  36.444  19.950  12.900
40384W        W12809  20.254   9.696   0.905
40385W        W12810  25.675   8.747   0.392
40386W        W12811   1.852   2.292   1.739
40387W        W12812   4.425  27.507  13.415
40388W        W12813   5.441  22.998   2.269
40389W        W12814  36.809  43.786   1.924
40390W        W12815  14.332  33.561  12.403
40391W        W12816  29.540   3.944   0.971
40392W        W12817  21.599  23.729   4.659
40393W        W12818  15.809  13.383   2.864
40394W        W12819   9.607  33.522   3.877
40395W        W12820   8.269  17.822  14.000
40396W        W12821  37.074  42.584  11.133
40397W        W12822  41.905  41.768   3.294
40398W        W12823  43.585  18.539   2.977
40399W        W12824  14.951  23.930  10.322
40400W        W12825  31.037  26.540  11.294
40401W        W12826  31.854  16.485  14.138
40402W        W12827   8.138  22.993   3.626
40403W        W12828  19.683  35.306  14.941
40404W        W12829  15.844  26.964  11.503
40405W        W12830  42.326  14.881   4.395
40406W        W12831  26.859   3.625  14.444
40407W        W12832   3.450  25.255  12.572
40408W        W12833   2.918   1.927   2.419
40409W        W12834  25.526  20.040   1.374
40410W        W12835  36.550  24.424  12.100
40411W        W12836  26.467  26.408  11.530
40412W        W12837  19.195   4.779  13.397
40413W        W12838  28.167  38.416  10.608
40414W        W12839  11.147   8.281   1.411
40415W        W12840   6.454  28.885  12.079
40416W        W12841   4.607  14.810  11.556
40417W        W12842  33.144  38.734   1.573
40418W        W12843  44.589  15.593   3.322
40419W        W12844  39.292  40.841   0.821
40420W        W12845  32.101  42.217  11.208
40421W        W12846  26.656   0.772   1.344
40422W        W12847  41.889  26.660  14.004
40423W        W12848  43.744  36.541  11.665
40424W        W12849  22.358  31.628  10.584
40425W        W12850   2.060  35.339  11.547
40426W        W12851   3.917  38.025   1.344
40427W        W12852  19.731  35.452  12.725
40428W        W12853  37.825   9.294  10.572
40429W        W12854   1.482  39.518  14.040
40430W        W12855  12.826  31.897  14.712
40431W        W12856   6.297  41.981  12.514
40432W        W12857  24.806  42.469   2.293
40433W        W12858   3.248  43.411   0.739
40434W        W12859  43.204  29.029  14.322
40435W        W12860  13.632  28.402   0.180
40436W        W12861  44.485  40.456   4.508
40437W        W12862  42.427  21.142  13.354
40438W        W12863   8.122   2.392   0.444
40439W        W12864   4.881  27.496  14.380
40440W        W12865   3.218  25.953  11.836
40441W        W12866  12.123   5.592   1.277
40442W        W12867  41.029   3.910  10.753
40443W        W12868  43.028   1.035  12.406
40444W        W12869  26.145  42.239  13.070
40445W        W12870   1.713   8.116   2.161
40446W        W12871  26.004   5.756   1.270
40447W        W12872  16.644  18.153  14.362
40448W        W12873  15.362  43.198  10.718
40449W        W12874   9.726   1.242   0.524
40450W        W12875  23.555  14.841  14.686
40451W        W12876  25.352  28.076   1.840
40452W        W12877  41.929  16.267   2.190
40453W        W12878   1.766  39.589   2.219
40454W        W12879  35.020   0.802   2.765
40455W        W12880   8.721   9.809   2.982
40456W        W12881  25.590  39.784   4.557
40457W        W12882   3.489  28.950  14.839
40458W        W12883  41.153  34.433   4.606
40459W        W12884  19.811  16.082  14.585
40460W        W12885  12.076   5.686   0.762
40461W        W12886  40.369  15.037   0.595
40462W        W12887  21.054  14.770   2.128
40463W        W12888  32.365  33.378  12.932
40464W        W12889  28.669   7.517  13.582
40465W        W12890  33.368   9.431   1.726
40466W        W12891   2.289  14.799  11.545
40467W        W12892  17.362   9.078  14.447
40468W        W12893   4.468  27.170   0.874
40469W        W12894  44.460  12.832  11.963
40470W        W12895  32.229  14.871   3.228
40471W        W12896   4.801  15.060   4.295
40472W        W12897  29.631  17.653  14.700
40473W        W12898   5.236  13.694  13.475
40474W        W12899  16.144  43.741   4.107
40475W        W12900  42.082   3.431  12.494
40476W        W12901  18.215   0.234  10.517
40477W        W12902  17.010  26.416  11.109
40478W        W12903   4.780  10.229   1.875
40479W        W12904  23.060  27.931  13.843
40480W        W12905  31.040  16.483   3.150
40481W        W12906   8.760  39.397   0.320
40482W        W12907  31.899  10.516  11.222
40483W        W12908  35.559  43.318  13.404
40484W        W12909   9.166  24.689  12.512
40485W        W12910  39.225  30.344  11.571
40486W        W12911   5.710   4.251   1.782
40487W        W12912  42.895  17.189  12.064
40488W        W12913  41.229  15.926   3.613
40489W        W12914   9.895  33.986   1.961
40490W        W12915   7.818   3.753  12.882
40491W        W12916  11.895  18.544  13.955
40492W        W12917  40.121  40.813   1.332
40493W        W12918  36.819   6.233  13.442
40494W        W12919  34.131  11.079   4.126
40495W        W12920  42.437  31.831  14.276
40496W        W12921  41.722   3.930  14.676
40497W        W12922   6.028  16.521  11.115
40498W        W12923  40.945   6.826   0.929
40499W        W12924  21.601   9.752  10.233
40500W        W12925  38.830  33.396   1.460
40501W        W12926   4.913  10.000  14.485
40502W        W12927  36.325  22.943   1.263
40503W        W12928  13.952  39.084   0.288
40504W        W12929  41.845  20.371  12.017
40505W        W12930   5.962   9.399   1.639
40506W        W12931  39.494  35.442   3.603
40507W        W12932  21.787  10.879  14.453
40508W        W12933  14.707  31.848   3.160
40509W        W12934  43.397  29.068   4.589
40510W        W12935  17.830  37.099   1.835
40511W        W12936  34.634  23.062  14.366
40512W        W12937  29.924  37.611   0.328
40513W        W12938  38.689  31.366   0.184
40514W        W12939   5.420  32.899  11.160
40515W        W12940  23.654  24.301   1.466
40516W        W12941   8.926  24.942   2.189
40517W        W12942  26.675   9.165   4.555
40518W        W12943  42.180  42.809   2.705
40519W        W12944  17.347  35.795  10.450
40520W        W12945  31.421   2.725  14.722
40521W        W12946  12.083  21.237   0.317
40522W        W12947  13.853  34.016  10.499
40523W        W12948  11.092   2.185   0.901
40524W        W12949   8.133  32.015  13.448
40525W        W12950   1.867  26.958  12.030
40526W        W12951  33.368  15.507  13.415
40527W        W12952  36.417  40.424   2.740
40528W        W12953  21.611  31.377   4.576
40529W        W12954  17.726  29.383  14.311
40530W        W12955  31.196  13.091  13.370
40531W        W12956  17.193  36.021  12.642
40532W        W12957  27.368  15.773   3.645
40533W        W12958  42.587  19.588   4.462
40534W        W12959  21.099   9.665  10.368
40535W        W12960  39.908  25.105  12.870
40536W        W12961  24.455  26.038   3.389
40537W        W12962  40.827  17.389  10.753
40538W        W12963  14.808  23.748  10.809
40539W        W12964  10.329  38.617  10.872
40540W        W12965  30.360  40.068  11.580
40541W        W12966   5.203  20.975   4.019
40542W        W12967  33.572  42.566   5.018
40543W        W12968  42.412  22.495  12.438
40544W        W12969  18.453  27.007  12.226
40545W        W12970  38.005  24.701  10.742
40546W        W12971  16.351  28.933  11.248
40547W        W12972   2.951  41.594   0.013
40548W        W12973   5.993  39.587   1.199
40549W        W12974  42.873  33.971  12.531
40550W        W12975  18.546  34.119   1.105
40551W        W12976   7.934  38.013   1.016
40552W        W12977  38.291  24.302  12.815
40553W        W12978   6.806  15.624   3.715
40554W        W12979  11.779  34.056   1.934
40555W        W12980  43.674  41.981   3.203
40556W        W12981  40.436  17.981   0.475
40557W        W12982  12.384   9.334  11.116
40558W        W12983  22.556  13.458   0.716
40559W        W12984  32.819  25.969   1.815
40560W        W12985  24.514  22.277  14.045
40561W        W12986  43.480  38.295   2.366
40562W        W12987  25.669  18.905   3.701
40563W        W12988  13.509  34.633   3.409
40564W        W12989   6.804  13.170  14.524
40565W        W12990  41.494  13.172   0.310
40566W        W12991   1.511  42.300  14.391
40567W        W12992  25.001   8.097  11.600
40568W        W12993  20.970  28.821  10.691
40569W        W12994  31.778  17.603  14.366
40570W        W12995   9.415  44.465  11.400
40571W        W12996  16.106  42.047   3.194
40572W        W12997  43.852  12.502   3.878
40573W        W12998  17.287  38.423   1.393
40574W        W12999   2.284   0.431   0.478
40575W        W13000  33.616  44.219  11.679
40576W        W13001  21.037   2.272  11.131
40577W        W13002  11.192  18.234   3.723
40578W        W13003  40.041   0.829  11.071
40579W        W13004  13.226  18.120   5.019
40580W        W13005  14.747  42.569   0.356
40581W        W13006   1.828  35.806  11.235
40582W        W13007  14.580  40.870  11.464
40583W        W13008   2.976  37.030  13.044
40584W        W13009  26.867  17.688   4.605
40585W        W13010  29.862  29.021   1.617
40586W        W13011  11.754   9.331  14.091
40587W        W13012   4.965  10.128  10.297
40588W        W13013  15.113  35.415  13.588
40589W        W13014  30.371  15.183   4.551
40590W        W13015  40.039   7.076   4.935
40591W        W13016  38.810  44.351   0.890
40592W        W13017  26.733  36.478  12.887
40593W        W13018   3.024   8.827   0.238
40594W        W13019  38.982  12.404  13.364
40595W        W13020   5.972  16.030   1.461
40596W        W13021  18.501  17.703   1.365
40597W        W13022  14.027  37.330  11.193
40598W        W13023  42.367  17.332  12.630
40599W        W13024   6.639  27.312  11.110
40600W        W13025   3.974  20.991  14.218
40601W        W13026   8.605  30.449   2.448
40602W        W13027  38.972  28.092   3.841
40603W        W13028  36.071  25.518  13.431
40604W        W13029   7.549  30.837   3.431
40605W        W13030  28.550  33.072  12.834
40606W        W13031  22.987  33.148  13.961
40607W        W13032  23.620  24.558  11.269
40608W        W13033  38.984   1.996   0.514
40609W        W13034  22.224   3.994   0.650
40610W        W13035  31.694  12.852  12.072
40611W        W13036  17.370  35.087  13.932
40612W        W13037  31.065  12.406  14.905
40613W        W13038  12.618  38.577  11.161
40614W        W13039  23.266  24.535   3.589
40615W        W13040  27.174  38.815  11.207
40616W        W13041  25.086   4.772  13.488
40617W        W13042  17.462  43.437   3.165
40618W        W13043  20.811  12.381   1.850
40619W        W13044  10.345  32.083   1.663
40620W        W13045  10.383  30.941  12.629
40621W        W13046  32.480  14.636   4.252
40622W        W13047   6.840  36.381  11.801
40623W        W13048  32.456  39.308  14.319
40624W        W13049  41.997  21.315  13.055
40625W        W13050  10.710  13.880  13.871
40626W        W13051  13.252   5.348  12.410
40627W        W13052   2.917  24.914  14.755
40628W        W13053  11.436  31.553   2.432
40629W        W13054  39.541   1.408  12.558
40630W        W13055   4.605  21.881   4.104
40631W        W13056  31.086  19.087   1.295
40632W        W13057  43.058  16.669   2.936
40633W        W13058   6.356  26.224   0.779
40634W        W13059  30.923  17.599  13.942
40635W        W13060  22.425  10.155  13.474
40636W        W13061  17.788  43.478   1.722
40637W        W13062  42.777  22.796  13.868
40638W        W13063   4.083  30.492  12.501
40639W        W13064   3.482  28.008  13.374
40640W        W13065   0.313  32.496   4.984
40641W        W13066  27.058  18.279   3.669
40642W        W13067  11.592  34.392   0.805
40643W        W13068  23.889  15.787   4.682
40644W        W13069   8.082  20.718  10.361
40645W        W13070  11.935  22.380   4.040
40646W        W13071  38.797  27.936  11.633
40647W        W13072  23.216  44.271  12.726
40648W        W13073   2.734   2.641   1.666
40649W        W13074  34.886  24.572   0.448
40650W        W13075  40.583   6.638  14.044
40651W        W13076  33.074   2.140   2.916
40652W        W13077  12.818  13.868   1.605
40653W        W13078  25.313  44.991  11.512
40654W        W13079   7.820  43.109   2.264
40655W        W13080  43.427  23.284   0.983
40656W        W13081  29.968  20.260  12.184
40657W        W13082   4.701  37.960  13.941
40658W        W13083  38.833  37.554   4.160
40659W        W13084   6.495  35.909  13.350
40660W        W13085  19.692  40.370   1.972
40661W        W13086   1.869  14.105   4.451
40662W        W13087  33.646   8.755  14.486
40663W        W13088  22.982  33.312   2.710
40664W        W13089  32.097  12.831   4.064
40665W        W13090  29.616   7.139   3.376
40666W        W13091  41.042   8.647   4.269
40667W        W13092  12.730   9.668   4.454
40668W        W13093   4.685  27.143  12.376
40669W        W13094  39.846  18.744   0.513
40670W        W13095  14.555  43.498   1.381
40671W        W13096  12.562  20.094  13.463
40672W        W13097   8.478  30.633  10.831
40673W        W13098  16.123   5.169   4.151
40674W        W13099  35.329  17.765   4.557
40675W        W13100  17.592  30.499   1.806
40676W        W13101   1.623   7.557  11.197
40677W        W13102  23.785   2.059  11.149
40678W        W13103  20.550  24.206   3.851
40679W        W13104  39.892  10.635  11.177
40680W        W13105  17.558  40.375   4.107
40681W        W13106   0.484   4.432   2.370
40682W        W13107  40.898  37.884   3.740
40683W        W13108  42.873  13.159  11.578
40684W        W13109  14.744  22.633   2.777
40685W        W13110  33.516  25.493   3.678
40686W        W13111  18.624   4.844  13.342
40687W        W13112  19.351  18.707   1.382
40688W        W13113  27.208  19.682  13.802
40689W        W13114  16.574   7.426   3.336
40690W        W13115  31.989  25.315   0.907
40691W        W13116  43.349  25.189  13.570
40692W        W13117  31.009   3.814   3.370
40693W        W13118  41.982  33.438  11.154
40694W        W13119  32.146   0.442   1.221
40695W        W13120  42.543  23.012   2.047
40696W        W13121   6.206  25.002  11.184
40697W        W13122  37.371  26.529   0.725
40698W        W13123   9.604  35.454  11.129
40699W        W13124  44.721   6.648  12.525
40700W        W13125  18.714  11.868   4.195
40701W        W13126  21.551  10.646  10.365
40702W        W13127  12.859  10.329  10.250
40703W        W13128  17.572  25.671  11.041
40704W        W13129  11.711  23.585  10.592
40705W        W13130  29.960  33.876   1.703
40706W        W13131  36.436  32.076   3.082
40707W        W13132  12.056  44.852  12.073
40708W        W13133   6.919  27.276  13.350
40709W        W13134  44.343  12.906   0.846
40710W        W13135  18.137  12.876  14.459
40711W        W13136  18.084  29.081  14.951
40712W        W13137   7.221  24.322   4.118
40713W        W13138  37.566  32.122   2.676
40714W        W13139   5.032  32.210  12.276
40715W        W13140  38.169   3.702   0.808
40716W        W13141  36.025  24.041  11.301
40717W        W13142  26.465  31.581   2.554
40718W        W13143  11.852  20.588  12.414
40719W        W13144  18.772  41.279  11.630
40720W        W13145  28.277  11.132   4.620
40721W        W13146  36.086  32.688  12.511
40722W        W13147   0.743  21.535   2.431
40723W        W13148  13.235  38.968   1.704
40724W        W13149  34.261  25.962   3.031
40725W        W13150   3.989  22.617   4.066
40726W        W13151  11.220  17.856  10.966
40727W        W13152  18.793   7.868  14.744
40728W        W13153   6.305  28.654  12.522
40729W        W13154  28.089   0.358  13.050
40730W        W13155  35.021  26.209  14.511
40731W        W13156  23.091  40.428  13.556
40732W        W13157  31.668  29.871  12.963
40733W        W13158   4.376  38.955  12.372
40734W        W13159  42.410  23.085  13.639
40735W        W13160  39.284  24.807   4.176
40736W        W13161  17.334  10.678  10.084
40737W        W13162  20.200   9.160   0.341
40738W        W13163  26.485  21.222   1.748
40739W        W13164  23.648  28.128  10.535
40740W        W13165  21.989  19.855   2.162
40741W        W13166  16.397   5.829   2.687
40742W        W13167  41.760  34.038   1.193
40743W        W13168  28.403  41.355   1.922
40744W        W13169   2.190  42.355   3.751
40745W        W13170  42.805  13.659   4.779
40746W        W13171  11.556   6.066   1.802
40747W        W13172  36.458   7.698   0.255
40748W        W13173  23.134  32.401   4.144
40749W        W13174  29.060  16.804  13.871
40750W        W13175   8.033  17.130  12.505
40751W        W13176  44.888   0.035   3.243
40752W        W13177  11.242  33.036   1.932
40753W        W13178  37.741  33.020  10.385
40754W        W13179  12.621  30.907  14.691
40755W        W13180  23.057  30.709  12.804
40756W        W13181  22.107  16.075   1.467
40757W        W13182  17.271  38.133   1.878
40758W        W13183  35.155  17.880   0.176
40759W        W13184  16.721  14.897   2.698
40760W        W13185   7.102   1.446   0.968
40761W        W13186  19.081  42.134   1.891
40762W        W13187  32.043   2.748   0.982
40763W        W13188   1.270   3.249   0.450
40764W        W13189  26.028   3.616  10.396
40765W        W13190   5.402  35.368   2.882
40766W        W13191  24.572  17.319  11.387
40767W        W13192   5.890  24.688  13.507
40768W        W13193  30.414   3.233  13.070
40769W        W13194   9.432   7.801  12.060
40770W        W13195  26.542  34.912  10.337
40771W        W13196   7.163  38.050   0.359
40772W        W13197  29.665  33.514   2.242
40773W        W13198  44.881  21.944  11.940
40774W        W13199  18.599  29.610  14.388
40775W        W13200  29.072   3.448  12.003
40776W        W13201  40.889  13.354  11.647
40777W        W13202  42.869  30.919  12.570
40778W        W13203  28.635  32.895   1.196
40779W        W13204  34.349  10.463  14.735
40780W        W13205  23.201  28.595   1.800
40781W        W13206  27.649  39.914  12.084
40782W        W13207  40.568  24.580   0.024
40783W        W13208  43.465  33.049  10.608
40784W        W13209   3.378  22.277  13.797
40785W        W13210   1.521  33.689  14.115
40786W        W13211   7.776  10.891   3.604
40787W        W13212  18.188  31.911   4.176
40788W        W13213   8.476  38.831  12.994
40789W        W13214   9.954  26.887   2.913
40790W        W13215  11.657  35.966   4.053
40791W        W13216  24.006  36.523   2.330
40792W        W13217   9.327   8.358   1.868
40793W        W13218  32.431  17.244   0.489
40794W        W13219   7.723  13.746   3.236
40795W        W13220  27.691  10.056  12.879
40796W        W13221  41.724  18.723   3.794
40797W        W13222  14.443   5.159   3.692
40798W        W13223  42.275  37.493  13.789
40799W        W13224   7.015  33.040  13.792
40800W        W13225  24.187  38.503  12.196
40801W        W13226   8.530  35.303   2.178
40802W        W13227  42.706  23.516   4.063
40803W        W13228  44.791   7.353  13.592
40804W        W13229  38.112  15.369  12.037
40805W        W13230   3.682  14.678  13.462
40806W        W13231  13.080  40.855  13.535
40807W        W13232  29.491  40.458   1.763
40808W        W13233  39.036  16.715   0.558
40809W        W13234  35.891  42.917  14.315
40810W        W13235  25.585   7.152  14.943
40811W        W13236  31.074   0.136  11.248
40812W        W13237  22.007  16.252  10.943
40813W        W13238  27.678   6.698  10.949
40814W        W13239  19.699  19.368  11.584
40815W        W13240  31.652   0.754   1.672
40816W        W13241  26.600  38.478  13.299
40817W        W13242  33.247  14.376  12.605
40818W        W13243  39.889  31.620   0.895
40819W        W13244  43.499  39.070  14.202
40820W        W13245  26.700  37.162  12.536
40821W        W13246  44.627  30.349   3.447
40822W        W13247  43.557  22.210   2.766
40823W        W13248  42.436  21.625   1.724
40824W        W13249  20.991  40.309  13.363
40825W        W13250  25.763  30.028   1.504
40826W        W13251   9.819  22.586   2.602
40827W        W13252  37.938  41.854  13.855
40828W        W13253   2.319  41.026  12.504
40829W        W13254   7.728  32.651   3.614
40830W        W13255  31.413   2.960  10.699
40831W        W13256  23.300  17.050  12.128
40832W        W13257   4.501   0.559  14.016
40833W        W13258  10.475  27.105   1.810
40834W        W13259  18.005  34.625   1.269
40835W        W13260   1.952  37.194   0.309
40836W        W13261  16.061  34.957   4.723
40837W        W13262  14.135  15.582   4.592
40838W        W13263  12.136   7.280   0.337
40839W        W13264  10.222  24.130   4.843
40840W        W13265   0.318   1.840  10.883
40841W        W13266  30.969  21.444   0.794
40842W        W13267  21.990  27.021  13.905
40843W        W13268  31.184  22.135   9.816
40844W        W13269  18.632   3.746   4.102
40845W        W13270  10.324   1.424  13.905
40846W        W13271  38.511  39.389   2.612
40847W        W13272  28.528  15.389   2.466
40848W        W13273   1.450   0.478   1.731
40849W        W13274  14.147  26.860  13.574
40850W        W13275  30.100  41.082   3.135
40851W        W13276  12.657  41.031  14.488
40852W        W13277  37.037  21.074   0.961
40853W        W13278  42.707  42.240  13.419
40854W        W13279  18.512  25.498  11.121
40855W        W13280  34.589  25.301   2.612
40856W        W13281   0.958  41.061   0.418
40857W        W13282   7.365   5.116   2.907
40858W        W13283  15.584   2.338  14.562
40859W        W13284  12.189  43.857  13.944
40860W        W13285   0.552   0.370  14.888
40861W        W13286  44.308  13.187   2.327
40862W        W13287   0.944  29.176  13.990
40863W        W13288  37.510  10.834  12.039
40864W        W13289  44.029  34.514  12.136
40865W        W13290  24.654  37.132  10.675
40866W        W13291  31.964  19.389   1.423
40867W        W13292  30.223  28.610  12.934
40868W        W13293  32.879  20.932   1.413
40869W        W13294  30.505   7.885   0.788
40870W        W13295  35.481  39.222  11.986
40871W        W13296  36.356  31.563  14.672
40872W        W13297  37.362  28.507   4.388
40873W        W13298  40.477  14.759   3.270
40874W        W13299  14.821  23.882  12.389
40875W        W13300  19.721  25.931   2.735
40876W        W13301  25.053   3.209   2.446
40877W        W13302  16.991   1.567   4.561
40878W        W13303  27.667  36.315   0.977
40879W        W13304   9.144  34.121  12.666
40880W        W13305  11.861  26.673   0.850
40881W        W13306  10.587  42.808   4.568
40882W        W13307  24.082  43.279  12.330
40883W        W13308  40.549  13.057   2.745
40884W        W13309  21.826  16.517   1.345
40885W        W13310  11.467  28.413  11.569
40886W        W13311  40.976   9.368   2.646
40887W        W13312  14.816   2.291  10.549
40888W        W13313   9.057  38.447   4.336
40889W        W13314  37.111  37.915  13.945
40890W        W13315   1.644  35.321   0.646
40891W        W13316   0.909   7.342   4.874
40892W        W13317  34.355  33.645   2.309
40893W        W13318  33.021  19.322   4.738
40894W        W13319  32.713  42.504   3.543
40895W        W13320   4.965  10.667  10.134
40896W        W13321  22.637  10.738  10.259
40897W        W13322  37.914  29.537  14.977
40898W        W13323  14.801  38.496  14.062
40899W        W13324  42.433   6.024  12.543
40900W        W13325  19.549  27.804   2.279
40901W        W13326   0.626  16.673  10.236
40902W        W13327   9.296   6.807  13.279
40903W        W13328   3.918  16.575   0.956
40904W        W13329  24.990  22.530  13.949
40905W        W13330  14.330  16.064  11.015
40906W        W13331  30.589  17.899  14.373
40907W        W13332  37.112  29.841   4.261
40908W        W13333  39.899   5.193   4.128
40909W        W13334   7.479  32.030   2.841
40910W        W13335  41.191  43.835   1.872
40911W        W13336  34.544  28.709  13.810
40912W        W13337  38.880  28.892   2.616
40913W        W13338  36.358  16.209   4.909
40914W        W13339  25.958  36.077   1.387
40915W        W13340  11.717   5.073   2.804
40916W        W13341   1.059  39.658   4.927
40917W        W13342  28.079  13.522   2.742
40918W        W13343   6.002  32.991  10.734
40919W        W13344  36.562  39.788   3.296
40920W        W13345  26.450   0.217  12.016
40921W        W13346  29.481   1.339   0.012
40922W        W13347  31.780  11.415   5.075
40923W        W13348   6.450  38.198   3.034
40924W        W13349  28.867  32.988   2.295
40925W        W13350   8.254  12.711  10.233
40926W        W13351  19.489  31.541  14.363
40927W        W13352  15.848  14.189   3.329
40928W        W13353  17.580   9.796   2.650
40929W        W13354  32.472  28.143  10.720
40930W        W13355  17.879  18.813   1.428
40931W        W13356  22.239   5.207  12.050
40932W        W13357  25.542   3.128   2.228
40933W        W13358  20.285  23.560  10.853
40934W        W13359  14.720  10.043   2.681
40935W        W13360  30.888   1.862  14.552
40936W        W13361  19.618   9.620   2.318
40937W        W13362   1.756  42.443   0.275
40938W        W13363  26.766   9.571  14.264
40939W        W13364  10.591  15.813  10.599
40940W        W13365  24.045  12.763  12.022
40941W        W13366  18.070  31.001   3.227
40942W        W13367  42.121  12.318   0.901
40943W        W13368  19.450  25.325   5.150
40944W        W13369  33.602  35.995  11.727
40945W        W13370  26.643   4.182   3.648
40946W        W13371  34.742  11.377  10.372
40947W        W13372  17.573  38.411  14.907
40948W        W13373   7.770  26.730  11.990
40949W        W13374   5.304  32.486   3.223
40950W        W13375  26.539  28.541  10.881
40951W        W13376  14.130   2.408  14.828
40952W        W13377  38.407  35.949   0.019
40953W        W13378  34.341  24.118   2.123
40954W        W13379  28.654   0.750  13.659
40955W        W13380  13.565  21.549   2.309
40956W        W13381  41.849   6.640   0.879
40957W        W13382  19.742  18.861  11.656
40958W        W13383  38.574  13.744   4.952
40959W        W13384  11.570  19.727   4.798
40960W        W13385  33.607  22.616   1.920
40961W        W13386  39.542  36.479  13.397
40962W        W13387  34.100  18.674  14.218
40963W        W13388  21.774  14.244   0.755
40964W        W13389  14.705   0.323   0.487
40965W        W13390  32.128  36.729  12.948
40966W        W13391   4.519  42.474   2.404
40967W        W13392   3.762   7.878  14.351
40968W        W13393   8.693  32.116   3.361
40969W        W13394  34.989  28.716   1.631
40970W        W13395  37.095  13.821  11.867
40971W        W13396  42.114  35.894  12.953
40972W        W13397  28.530  43.540   1.355
40973W        W13398  38.795  11.546  10.336
40974W        W13399   9.620  11.130  12.937
40975W        W13400  30.175   3.773  10.439
40976W        W13401   9.281   0.490   1.253
40977W        W13402  15.332  36.477  13.307
40978W        W13403  16.367   6.902  12.323
40979W        W13404  22.068  26.039  14.878
40980W        W13405  32.486  30.105  10.897
40981W        W13406  16.246   0.807   4.366
40982W        W13407  14.677   0.352   3.244
40983W        W13408  30.901   6.333   1.298
40984W        W13409  29.640  33.480   3.178
40985W        W13410  29.870  11.371   0.144
40986W        W13411  44.520   4.155  11.974
40987W        W13412  11.014  36.189   0.406
40988W        W13413  38.236  16.938   4.644
40989W        W13414  20.037  31.333  11.252
40990W        W13415  38.910   3.888  11.575
40991W        W13416  10.487  29.533   0.537
40992W        W13417  30.946  21.304  13.437
40993W        W13418  17.248  27.280   2.735
40994W        W13419  27.858  22.225   1.478
40995W        W13420  39.592  24.766   0.969
40996W        W13421  18.125  37.616  13.323
40997W        W13422  11.340   0.361   2.224
40998W        W13423  16.078  44.850   3.064
40999W        W13424  13.238  37.494  13.987
41000W        W13425  27.705  29.656  11.898
41001W        W13426   6.400  27.680  10.794
41002W        W13427  36.996  30.527  14.243
41003W        W13428  21.165  42.192   1.898
41004W        W13429   9.241   9.392  14.793
41005W        W13430   6.845   5.762   4.263
41006W        W13431  22.283  32.091   2.879
41007W        W13432   8.881  20.320  12.584
41008W        W13433   4.822  37.831   3.892
41009W        W13434   4.806  29.494   1.237
41010W        W13435  36.375  41.893   4.382
41011W        W13436  28.641  17.813  14.926
41012W        W13437  27.132  10.353   0.419
41013W        W13438  18.105  13.201   2.796
41014W        W13439  37.947  42.380   1.184
41015W        W13440  42.104   5.878   4.547
41016W        W13441  37.608   5.235   2.923
41017W        W13442   2.067  42.440  14.317
41018W        W13443  31.679  19.032  14.548
41019W        W13444  23.718  41.377  12.173
41020W        W13445   6.792   6.230   0.298
41021W        W13446  26.285  26.144  14.348
41022W        W13447   2.271  11.045  13.563
41023W        W13448  11.752  35.429  14.361
41024W        W13449  27.984  37.383   1.807
41025W        W13450   8.797   3.326   2.273
41026W        W13451  35.758   2.509   0.447
41027W        W13452  23.156   9.092   1.336
41028W        W13453   0.993  20.149  11.957
41029W        W13454  25.443  39.960   4.087
41030W        W13455  12.365  40.764   4.502
41031W        W13456  23.597  22.100  11.692
41032W        W13457  30.212  10.898  11.582
41033W        W13458  21.683  15.557   3.177
41034W        W13459  42.775  23.586  11.176
41035W        W13460  36.524   4.235  12.597
41036W        W13461  19.691  17.014  11.230
41037W        W13462  13.459  36.118   2.433
41038W        W13463  30.672  29.265   2.845
41039W        W13464  41.674  28.095  11.132
41040W        W13465  39.289   8.391  11.253
41041W        W13466  26.520  28.059  11.061
41042W        W13467  17.292  30.994   0.879
41043W        W13468   6.778  13.037   0.472
41044W        W13469   3.271  32.035  13.437
41045W        W13470   1.930  39.562  11.574
41046W        W13471  43.762  34.285   0.926
41047W        W13472  27.877   0.089   3.286
41048W        W13473   2.032  26.053  13.607
41049W        W13474  35.858  16.829  14.984
41050W        W13475  17.730  38.039  12.093
41051W        W13476  36.437  35.191   4.481
41052W        W13477  26.451  37.555  13.471
41053W        W13478  21.059  15.195  13.044
41054W        W13479  18.701  44.517   1.946
41055W        W13480   4.161  42.850  14.736
41056W        W13481  11.880  24.570  10.777
41057W        W13482  40.796  39.504  12.466
41058W        W13483  40.311  40.047   1.869
41059W        W13484  22.749  43.293   2.988
41060W        W13485  22.058  23.433  11.596
41061W        W13486  36.436  44.977  14.717
41062W        W13487  24.155  27.243  14.404
41063W        W13488   1.967  16.301  14.531
41064W        W13489   5.743   6.200   0.684
41065W        W13490  21.197  30.889  10.732
41066W        W13491  21.735  30.207   3.816
41067W        W13492  31.575   8.352   4.172
41068W        W13493   5.827  38.368   3.715
41069W        W13494   3.750  43.841  10.733
41070W        W13495   5.311  38.761   0.538
41071W        W13496  16.264  42.215   0.262
41072W        W13497  14.208  38.849   0.785
41073W        W13498  38.770  36.493  13.000
41074W        W13499  39.875  16.713   1.049
41075W        W13500  20.246  38.324  11.418
41076W        W13501  23.925   5.335   4.212
41077W        W13502  25.001  24.611   1.667
41078W        W13503  37.064  15.548   0.473
41079W        W13504  19.177  12.714   3.778
41080W        W13505   6.506  22.233   1.988
41081W        W13506  36.956  38.543   2.116
41082W        W13507   5.153  43.945  12.909
41083W        W13508  17.720  38.493  12.340
41084W        W13509  30.878   2.297  12.787
41085W        W13510  16.805  37.688   0.754
41086W        W13511  32.449  30.488  14.335
41087W        W13512  13.609  25.132   3.936
41088W        W13513  12.194   9.567  12.464
41089W        W13514  18.253  31.301   2.795
41090W        W13515  44.807  38.772   3.813
41091W        W13516  37.507  38.788   1.648
41092W        W13517   0.321  24.142  10.668
41093W        W13518  15.355  31.072  13.971
41094W        W13519  42.249  36.182   4.595
41095W        W13520  15.399  33.988   0.343
41096W        W13521  33.348  22.936   4.069
41097W        W13522  15.834  15.803   0.035
41098W        W13523  32.141  36.481  14.403
41099W        W13524   5.931  21.976   2.615
41100W        W13525  29.465  26.278   0.404
41101W        W13526   5.141  26.033  12.973
41102W        W13527   7.582   2.795   4.726
41103W        W13528  19.515  10.329   4.181
41104W        W13529  11.885  11.954   0.840
41105W        W13530  36.338   1.345  12.693
41106W        W13531  44.196  33.848  11.727
41107W        W13532  23.155  37.553   4.267
41108W        W13533  13.220  19.594  14.434
41109W        W13534   3.398  24.705  12.498
41110W        W13535  19.355  20.454  11.176
41111W        W13536  38.245   0.335  12.102
41112W        W13537  20.463  11.825   3.534
41113W        W13538  30.065   6.350   3.332
41114W        W13539  42.734  30.047  13.916
41115W        W13540  29.492  39.973   3.615
41116W        W13541  16.485  40.383  13.986
41117W        W13542  13.213  12.515   1.264
41118W        W13543  29.624  31.711  13.822
41119W        W13544  13.692  17.534  11.097
41120W        W13545  27.873  23.205  13.387
41121W        W13546  11.644  40.273   0.831
41122W        W13547  37.462  28.684   0.844
41123W        W13548  12.515  21.248  13.964
41124W        W13549  13.906  11.381  14.083
41125W        W13550  40.520  30.359   0.808
41126W        W13551  42.850  20.119   1.604
41127W        W13552  23.574  32.657  10.108
41128W        W13553  32.145  21.375   4.214
41129W        W13554  25.597  11.458   0.355
41130W        W13555   2.865  14.309  10.312
41131W        W13556  24.676   9.616   1.715
41132W        W13557   8.760  42.323   1.788
41133W        W13558  25.935   0.909   0.337
41134W        W13559  26.677  28.230   0.408
41135W        W13560  11.086  43.219  13.854
41136W        W13561  18.432  44.925   3.720
41137W        W13562  31.645  13.255  11.581
41138W        W13563  27.057  41.070   2.818
41139W        W13564  33.505   7.859  12.577
41140W        W13565  18.572  17.566   0.006
41141W        W13566  23.113   3.723   4.134
41142W        W13567  34.381   0.299  11.110
41143W        W13568   3.149  34.581   4.924
41144W        W13569  25.104  26.962   4.559
41145W        W13570  26.160  23.186   0.934
41146W        W13571   8.936   8.803  14.833
41147W        W13572  29.929  42.761  12.983
41148W        W13573   6.975  26.936  14.489
41149W        W13574  40.382  37.765   3.679
41150W        W13575  44.780  44.304  12.093
41151W        W13576  11.200   2.914   4.096
41152W        W13577  16.312  43.954  13.602
41153W        W13578   1.116  16.049  11.899
41154W        W13579   9.816  37.357   0.813
41155W        W13580  12.075  30.111  11.193
41156W        W13581  42.531  14.074  11.256
41157W        W13582  33.540   7.955   4.924
41158W        W13583  26.398   7.236   3.427
41159W        W13584  19.317  19.743   0.398
41160W        W13585  12.665  35.480  11.520
41161W        W13586  11.537  10.660   1.300
41162W        W13587   7.723  22.411  13.809
41163W        W13588   8.612   2.469  12.625
41164W        W13589   6.436  27.172  10.639
41165W        W13590  16.146  13.394   3.705
41166W        W13591  27.361  15.241   3.701
41167W        W13592  27.644   7.344   3.563
41168W        W13593  24.204  34.904   0.088
41169W        W13594   3.226  30.378  13.655
41170W        W13595  15.808  27.310  14.914
41171W        W13596  13.193  32.174   0.574
41172W        W13597  43.376  33.152  11.109
41173W        W13598  19.968   8.991  13.483
41174W        W13599  25.190  17.284  14.354
41175W        W13600  23.524   3.214  11.904
41176W        W13601  11.884  21.396   3.344
41177W        W13602  25.598  42.727  11.601
41178W        W13603  10.763  33.822  12.023
41179W        W13604   3.033  39.817  13.451
41180W        W13605  27.895  14.677   3.481
41181W        W13606  30.404   7.698   3.222
41182W        W13607  27.801  23.987   1.664
41183W        W13608   1.311   7.851  14.157
41184W        W13609  22.533  25.870  11.494
41185W        W13610  11.585  12.479   2.944
41186W        W13611   9.042  23.392   1.774
41187W        W13612   1.592   2.285  13.937
41188W        W13613  12.698   8.691   4.674
41189W        W13614  28.212   1.942   4.974
41190W        W13615  10.682  29.159   0.243
41191W        W13616   1.376  18.018  10.787
41192W        W13617  25.375   9.651  11.080
41193W        W13618  27.689  14.293   3.757
41194W        W13619  20.792  28.891   0.055
41195W        W13620  31.157  12.565  13.445
41196W        W13621  10.846  12.250  12.557
41197W        W13622  26.932  24.099  11.080
41198W        W13623   5.379  24.813   3.010
41199W        W13624  35.677  40.494  11.169
41200W        W13625  39.226  15.629   2.705
41201W        W13626  23.547  10.944   4.817
41202W        W13627   2.915  17.798  14.832
41203W        W13628  18.996  15.811  13.298
41204W        W13629  42.712  16.683  11.921
41205W        W13630  44.470  16.654  13.750
41206W        W13631  31.278  42.031   3.309
41207W        W13632  31.477  20.575   4.084
41208W        W13633  39.892  10.138   0.757
41209W        W13634   1.371  36.361   1.419
41210W        W13635  44.883  43.184   4.582
41211W        W13636  28.383  34.022  13.008
41212W        W13637  10.406  20.005  10.793
41213W        W13638   9.933  21.578  11.495
41214W        W13639  37.423  37.889   1.632
41215W        W13640  15.781   5.809  11.445
41216W        W13641  14.558  43.758  11.029
41217W        W13642  38.312  33.957  10.630
41218W        W13643  30.511  23.114  12.041
41219W        W13644  37.222   1.713   3.858
41220W        W13645  17.752  44.458   1.890
41221W        W13646  16.853   9.346   2.747
41222W        W13647   3.488  37.706   0.796
41223W        W13648  16.850  29.084   0.872
41224W        W13649  42.401  41.036  14.247
41225W        W13650   3.478  23.973   0.746
41226W        W13651  36.745  27.440   3.945
41227W        W13652  34.730  17.283   2.822
41228W        W13653  32.845  19.273   3.829
41229W        W13654  32.200   8.300   3.418
41230W        W13655  43.372  26.560   4.063
41231W        W13656   7.452  34.414  14.915
41232W        W13657   5.733  11.998  10.776
41233W        W13658  29.845  39.510  11.833
41234W        W13659  36.379  10.683  14.940
41235W        W13660   4.427  39.512  14.582
41236W        W13661  29.337  27.732   1.258
41237W        W13662  18.223  30.363  12.328
41238W        W13663  22.009   0.686  12.792
41239W        W13664  35.954  15.186   1.937
41240W        W13665  42.730  36.064   2.190
41241W        W13666  42.820  30.246  13.417
41242W        W13667   8.256  39.583  14.347
41243W        W13668  36.274  38.282  11.460
41244W        W13669  29.307   2.854  11.502
41245W        W13670   4.248  31.329   2.980
41246W        W13671  21.162  44.882  13.952
41247W        W13672   6.812  38.456   2.763
41248W        W13673   0.314  10.012  13.462
41249W        W13674  12.201  17.138   0.970
41250W        W13675  15.580  43.903  11.113
41251W        W13676  13.240  33.084   3.480
41252W        W13677  43.881   2.719   3.345
41253W        W13678  22.782   5.726   1.449
41254W        W13679  44.469  10.172   3.610
41255W        W13680  10.763  22.634  13.404
41256W        W13681  40.928  43.863  11.194
41257W        W13682   3.840  39.898  12.417
41258W        W13683  31.848  43.009  11.629
41259W        W13684  17.977  27.265  10.660
41260W        W13685   3.423   3.402  10.152
41261W        W13686  26.729  25.310  13.024
41262W        W13687  16.206   7.898  14.713
41263W        W13688  29.513  39.592   4.890
41264W        W13689  21.730  44.599   2.713
41265W        W13690  11.177  26.564  12.360
41266W        W13691   9.404  35.513   2.687
41267W        W13692  14.635  40.058   0.858
41268W        W13693   3.330  41.830  14.522
41269W        W13694  40.091  11.699  13.100
41270W        W13695  14.840  25.223  11.143
41271W        W13696  14.794  25.248   2.325
41272W        W13697   0.474  42.407   4.665
41273W        W13698  20.256   8.663   2.802
41274W        W13699  28.463  19.591   0.482
41275W        W13700  36.394  33.388  10.622
41276W        W13701   1.510  12.829   4.787
41277W        W13702  35.938  35.859   3.276
41278W        W13703   8.615  12.382   0.943
41279W        W13704  29.942  33.319   0.761
41280W        W13705  28.203  18.521   3.618
41281W        W13706  26.436  17.571   0.787
41282W        W13707  18.387  25.100  11.478
41283W        W13708  43.946  23.893  10.694
41284W        W13709  20.937  28.405  11.577
41285W        W13710  17.806  41.116  13.020
41286W        W13711  33.109  21.856  11.848
41287W        W13712  30.709  15.261   1.793
41288W        W13713  27.505  37.470  13.494
41289W        W13714  23.982   5.645  14.946
41290W        W13715   7.059  42.761   3.349
41291W        W13716  19.691  16.877  13.561
41292W        W13717   9.411  31.567   3.071
41293W        W13718  31.421   3.164  13.030
41294W        W13719  28.481  16.118  11.632
41295W        W13720  12.357  35.433   4.106
41296W        W13721  30.010  25.484   4.869
41297W        W13722  19.622  11.601   1.688
41298W        W13723  16.154  22.928   0.832
41299W        W13724   8.650  40.189   4.023
41300W        W13725  35.590  40.058  12.495
41301W        W13726  19.179  34.613   0.556
41302W        W13727   3.640  24.768  11.174
41303W        W13728  24.876  29.341  11.541
41304W        W13729  28.590  37.505  14.468
41305W        W13730  39.363  22.611   2.833
41306W        W13731  30.475  26.437  10.587
41307W        W13732  40.511  22.346  10.472
41308W        W13733  40.056  18.821   1.878
41309W        W13734  36.372   3.563   0.695
41310W        W13735   7.262  37.401   4.143
41311W        W13736  41.971  12.801   2.282
41312W        W13737  22.197  31.607   3.769
41313W        W13738   5.719  23.697   0.244
41314W        W13739   8.174  10.217   1.892
41315W        W13740  39.780  32.464  12.537
41316W        W13741   3.444  23.542   2.952
41317W        W13742  40.922  21.824  10.237
41318W        W13743  10.322  28.138  11.985
41319W        W13744  41.992  12.759  10.945
41320W        W13745  36.381   8.924  13.477
41321W        W13746  22.638  26.603   0.738
41322W        W13747   9.938   2.658  13.895
41323W        W13748  17.161  38.847  14.990
41324W        W13749   7.304  23.073  11.266
41325W        W13750  24.343  36.897   0.269
41326W        W13751   8.755  33.178   4.235
41327W        W13752  43.795   5.904   3.070
41328W        W13753  17.098  38.862  10.557
41329W        W13754  13.843  39.054   1.210
41330W        W13755  31.906  44.403  12.895
41331W        W13756  25.879  33.213  11.924
41332W        W13757  39.693  13.639   3.284
41333W        W13758  38.423  25.608   1.699
41334W        W13759   9.470  30.407  14.743
41335W        W13760  40.835  31.083  13.671
41336W        W13761  14.476  13.685   0.775
41337W        W13762  41.218  27.374   1.975
41338W        W13763   4.462  29.031   3.288
41339W        W13764  30.598  12.280   1.242
41340W        W13765  10.361   1.011  11.114
41341W        W13766   8.793   9.741   4.925
41342W        W13767   1.283   9.997   5.165
41343W        W13768  29.106   0.172   1.545
41344W        W13769  26.486  35.192   4.125
41345W        W13770  26.431  10.195   2.470
41346W        W13771  36.990  27.316  12.139
41347W        W13772  19.089   5.460  13.957
41348W        W13773  34.406  23.649  14.882
41349W        W13774  23.320  29.043   4.720
41350W        W13775  26.679  14.465   3.503
41351W        W13776   7.910   2.399   4.877
41352W        W13777  23.627  29.386   1.233
41353W        W13778   7.761  30.637   3.841
41354W        W13779   5.432  36.304  13.939
41355W        W13780  26.906  20.388   1.042
41356W        W13781  42.117  32.227  14.246
41357W        W13782  30.998  13.015   2.878
41358W        W13783  30.793  13.295  12.122
41359W        W13784  16.476  42.960   1.780
41360W        W13785   7.947  42.885  12.480
41361W        W13786   5.932  12.705   4.311
41362W        W13787  37.509  32.871  11.216
41363W        W13788  26.191  17.524  13.857
41364W        W13789  36.358  15.098   1.609
41365W        W13790  15.045  37.665  10.067
41366W        W13791  32.848  26.879   4.546
41367W        W13792  29.136  27.370  12.564
41368W        W13793   3.032  21.122  10.631
41369W        W13794   1.801  36.992  13.369
41370W        W13795  15.689  26.894   2.799
41371W        W13796  31.104  33.356   1.575
41372W        W13797  23.296  22.825  12.962
41373W        W13798  20.159  30.957   2.830
41374W        W13799   3.003   6.675  10.264
41375W        W13800  33.000  39.546  10.522
41376W        W13801   2.353  14.412   5.452
41377W        W13802  19.844  18.638   2.831
41378W        W13803  27.158  25.454   0.504
41379W        W13804  26.962  14.847  14.700
41380W        W13805  36.401  42.850   4.770
41381W        W13806   0.738  16.740  13.131
41382W        W13807  24.811   7.499   1.835
41383W        W13808  22.804  18.277  12.266
41384W        W13809  31.491  17.181  11.376
41385W        W13810  12.032  34.437  10.747
41386W        W13811  18.319  21.707  11.239
41387W        W13812  23.170  15.486   0.274
41388W        W13813  22.316   6.701   0.839
41389W        W13814  37.081   6.721   5.185
41390W        W13815   0.307   1.349   2.918
41391W        W13816  40.014  25.651  14.514
41392W        W13817  17.142  12.798  11.267
41393W        W13818  23.015  43.449  11.237
41394W        W13819  39.729  30.206   3.292
41395W        W13820  40.605  36.467   1.967
41396W        W13821  40.261  14.897  12.938
41397W        W13822  27.470   6.239  10.886
41398W        W13823  11.736  29.606  12.816
41399W        W13824  30.675  14.216   1.711
41400W        W13825  16.742  29.156  10.455
41401W        W13826  41.738   3.256   3.682
41402W        W13827  36.901   1.003   2.878
41403W        W13828   6.687  22.792  14.824
41404W        W13829  17.380  18.319  12.448
41405W        W13830  11.565   9.665  13.702
41406W        W13831   9.262  21.270  13.024
41407W        W13832  24.290   5.686  10.365
41408W        W13833  31.220  44.275   1.700
41409W        W13834   4.276  10.549   3.672
41410W        W13835  44.954   5.168   4.858
41411W        W13836  23.090   1.769  11.524
41412W        W13837  15.329  14.989   3.638
41413W        W13838  35.900  13.147  12.882
41414W        W13839  24.579  40.190  14.759
41415W        W13840   8.933  39.499  11.038
41416W        W13841   5.447  23.733   5.037
41417W        W13842   3.182  40.490   3.292
41418W        W13843   7.970  18.371   3.195
41419W        W13844   7.170  42.747  11.134
41420W        W13845   7.239  20.519  12.024
41421W        W13846  23.555   1.267  13.025
41422W        W13847   4.469   5.311   0.792
41423W        W13848  33.953  33.846  14.502
41424W        W13849  16.280   5.401  13.320
41425W        W13850  40.304   2.713   4.757
41426W        W13851  12.779   6.266  13.367
41427W        W13852  39.868  22.597   0.543
41428W        W13853  32.294  15.776   4.232
41429W        W13854  11.122  31.136   1.666
41430W        W13855  27.735  23.923   0.030
41431W        W13856  42.314  23.484   2.862
41432W        W13857   7.293  35.857   2.406
41433W        W13858  21.549  37.933  12.204
41434W        W13859  10.631  22.075  12.895
41435W        W13860  17.353  15.593   0.049
41436W        W13861  19.590  19.225   3.611
41437W        W13862  11.521  24.063   2.881
41438W        W13863  20.697  44.115  13.935
41439W        W13864  18.517  23.211   2.293
41440W        W13865  16.065  26.562   2.390
41441W        W13866  24.188  28.733   4.481
41442W        W13867   1.767  22.237   1.859
41443W        W13868   0.598  35.885   2.007
41444W        W13869  19.253  24.916  11.434
41445W        W13870  34.724  28.916  14.861
41446W        W13871  35.848  22.195   4.279
41447W        W13872   9.783   5.406   1.470
41448W        W13873   0.966  25.092   2.158
41449W        W13874  17.280  19.160  11.015
41450W        W13875   3.264   7.339   2.742
41451W        W13876  25.748  25.134   4.796
41452W        W13877  37.896  30.945   0.723
41453W        W13878  25.934  36.583   0.075
41454W        W13879  14.619   1.797   0.981
41455W        W13880  26.994  42.917   3.635
41456W        W13881  31.400  22.454   2.848
41457W        W13882  38.455  27.186   4.311
41458W        W13883  30.366  39.107   2.564
41459W        W13884  16.334  29.780   2.919
41460W        W13885   8.134  37.568   0.320
41461W        W13886  29.977  21.083   3.688
41462W        W13887  22.065   2.062  12.678
41463W        W13888  18.241  23.321  13.033
41464W        W13889  41.397  31.174  13.837
41465W        W13890  34.307  43.038  13.371
41466W        W13891  25.248  30.476  12.854
41467W        W13892  25.160  38.097  12.015
41468W        W13893  16.071  42.364  14.362
41469W        W13894  15.047   1.019   0.769
41470W        W13895  14.252  34.137   1.683
41471W        W13896  14.744  39.021  11.761
41472W        W13897   0.012  34.620   5.286
41473W        W13898  41.500  35.618   3.283
41474W        W13899  13.269  24.373  10.104
41475W        W13900   8.850   4.480  11.463
41476W        W13901  11.997  13.958  14.136
41477W        W13902  23.737  30.702  11.019
41478W        W13903  26.990   6.447   3.225
41479W        W13904  40.499   0.498  12.483
41480W        W13905  18.533   3.065  14.925
41481W        W13906  36.500  34.567  13.325
41482W        W13907   4.851  24.677  14.889
41483W        W13908  14.205  34.432   2.173
41484W        W13909  36.474  28.579  11.532
41485W        W13910  14.908  23.429  10.427
41486W        W13911   8.576  29.041  14.806
41487W        W13912  19.058  34.592  14.547
41488W        W13913  42.999  15.817  11.963
41489W        W13914  28.914  18.271  12.822
41490W        W13915  14.849  29.857  13.429
41491W        W13916   4.467  32.612  10.980
41492W        W13917   4.467  43.874   0.417
41493W        W13918  12.663  33.048   4.510
41494W        W13919   5.016   3.246   3.317
41495W        W13920  17.346  15.147   2.194
41496W        W13921  36.841  21.656  13.727
41497W        W13922  18.155   5.658   1.213
41498W        W13923  20.644  21.474   3.145
41499W        W13924  32.667  16.020   4.503
41500W        W13925  18.560  29.463   3.377
41501W        W13926  20.185  23.496   0.854
41502W        W13927  35.547  15.281   1.003
41503W        W13928  30.839  18.013   4.283
41504W        W13929  15.619  16.308   0.739
41505W        W13930  15.852  42.539   4.720
41506W        W13931  36.589  34.204   1.846
41507W        W13932  37.793  44.194  14.573
41508W        W13933  27.761  35.071   4.064
41509W        W13934   0.467  13.291   3.234
41510W        W13935  34.464   6.121   1.235
41511W        W13936   6.437  30.048   1.283
41512W        W13937  42.348   8.617   0.358
41513W        W13938  35.496  16.514   3.829
41514W        W13939  14.403  37.808   0.522
41515W        W13940  42.576  33.768  14.430
41516W        W13941   8.176  28.620   4.122
41517W        W13942  33.588  37.607  12.971
41518W        W13943  22.891   7.405   4.403
41519W        W13944  14.399  30.876   2.821
41520W        W13945  25.158  30.963   2.456
41521W        W13946  42.726   4.945   5.215
41522W        W13947  25.484   0.546   1.677
41523W        W13948   2.789   1.399   2.439
41524W        W13949   6.024   3.420   0.491
41525W        W13950  27.965   7.321   2.204
41526W        W13951  10.680  38.376   3.406
41527W        W13952  30.190  18.096  10.816
41528W        W13953  23.712  31.953   4.540
41529W        W13954  26.414  42.363  12.105
41530W        W13955   8.177   0.520  10.816
41531W        W13956  24.534  15.835  13.755
41532W        W13957  44.262  33.123  11.146
41533W        W13958  24.110  38.836   0.447
41534W        W13959  39.464   0.541  13.292
41535W        W13960   6.706   5.319   0.164
41536W        W13961  21.120  11.565   2.403
41537W        W13962  10.267  29.952  13.355
41538W        W13963  14.565  10.628  12.507
41539W        W13964  14.667  40.812  11.972
41540W        W13965  43.063  13.862   2.296
41541W        W13966  14.493  21.173  14.942
41542W        W13967  35.773   4.296   4.031
41543W        W13968  12.787  42.002   1.385
41544W        W13969   5.372  19.824  11.568
41545W        W13970  28.925  39.913   0.344
41546W        W13971   0.981  34.122   2.731
41547W        W13972  20.039  20.652   0.961
41548W        W13973  33.254  14.570   5.451
41549W        W13974  36.702  13.148   0.611
41550W        W13975  17.905  26.281   1.750
41551W        W13976  38.652  26.748  10.079
41552W        W13977  10.507  26.694   2.162
41553W        W13978   1.458  17.497  10.770
41554W        W13979  35.881  13.559   4.093
41555W        W13980  37.829  41.955  11.092
41556W        W13981  35.069  21.563   1.940
41557W        W13982   3.882  35.583  11.024
41558W        W13983  18.361  23.669   3.098
41559W        W13984  36.908  22.367   3.589
41560W        W13985  17.820  15.715   0.255
41561W        W13986  21.008  31.595  11.254
41562W        W13987   6.448   5.028   2.866
41563W        W13988  31.974   2.176  14.254
41564W        W13989   1.356   8.591   3.412
41565W        W13990  15.857  33.378   1.845
41566W        W13991   7.214  36.400  10.882
41567W        W13992  20.234  19.168   0.941
41568W        W13993  25.743  27.245   1.785
41569W        W13994   1.337  28.541   3.338
41570W        W13995   8.353   1.463  10.824
41571W        W13996  35.130   4.987   0.993
41572W        W13997   9.410  20.805  11.435
41573W        W13998  39.114  21.663   1.324
41574W        W13999  15.077  36.068   3.684
41575W        W14000  32.325   3.966   0.257
41576W        W14001  29.151  44.760  11.969
41577W        W14002  23.958  27.455   4.039
41578W        W14003   6.584  29.089   4.765
41579W        W14004  27.703  11.336   1.405
41580W        W14005  16.745  20.983  14.762
41581W        W14006  11.785  39.440   2.617
41582W        W14007  24.378   5.730  10.873
41583W        W14008  25.099   0.396  11.243
41584W        W14009  24.431  13.275  12.755
41585W        W14010   3.736  21.256  14.871
41586W        W14011  30.898  26.729  14.570
41587W        W14012  35.244  11.854   0.554
41588W        W14013  13.992  27.794   0.378
41589W        W14014  28.428  37.494   2.141
41590W        W14015  17.098  30.121   1.287
41591W        W14016   2.160  31.635  14.963
41592W        W14017  10.592   3.481   3.702
41593W        W14018   2.223  42.293  13.846
41594W        W14019  12.737  26.668  10.560
41595W        W14020  44.311  34.592   1.841
41596W        W14021  42.758  32.173   1.034
41597W        W14022  31.682  14.315   1.758
41598W        W14023  20.637   3.472  14.439
41599W        W14024  36.957  19.228   0.226
41600W        W14025  24.356  17.316  10.913
41601W        W14026  31.025  14.273  13.556
41602W        W14027   9.214  26.331   3.348
41603W        W14028  21.632  21.148  14.636
41604W        W14029  14.812   5.295  13.970
41605W        W14030   8.365  26.613   0.249
41606W        W14031  20.612  37.607   3.660
41607W        W14032  28.429  37.634  11.036
41608W        W14033   9.947  10.870  12.580
41609W        W14034   2.873  27.669   4.805
41610W        W14035  37.404  18.270  14.082
41611W        W14036  14.148  10.060   1.455
41612W        W14037  43.179  42.916  11.188
41613W        W14038  41.322  43.109   0.009
41614W        W14039  12.017  16.791   2.805
41615W        W14040  35.767   0.785   1.785
41616W        W14041  33.924  10.413   3.093
41617W        W14042   0.489  14.134  11.617
41618W        W14043  10.436  39.514  14.774
41619W        W14044  44.462  14.803  14.307
41620W        W14045  18.713   6.161  13.010
41621W        W14046  10.583  12.750  12.394
41622W        W14047  23.227   9.923  10.183
41623W        W14048   5.223  20.242   3.420
41624W        W14049   6.770  21.225   1.752
41625W        W14050  21.243  29.837  11.658
41626W        W14051  15.242  26.242   2.379
41627W        W14052  44.957  18.582   0.745
41628W        W14053   8.382   7.374   4.098
41629W        W14054   6.521  44.820  14.058
41630W        W14055   9.874  41.066   1.216
41631W        W14056  20.174  10.833   1.863
41632W        W14057  16.841  32.535   5.069
41633W        W14058  18.317  27.055  12.701
41634W        W14059   6.347  29.410  14.968
41635W        W14060  30.404   1.814  14.836
41636W        W14061  44.795   4.220   4.119
41637W        W14062  14.171  14.866   2.476
41638W        W14063  14.009  24.995  14.016
41639W        W14064  36.903   8.811  12.852
41640W        W14065  19.513  23.490   2.277
41641W        W14066  21.739  21.648   0.761
41642W        W14067  20.858  42.223   3.688
41643W        W14068   8.898   9.437  11.870
41644W        W14069  30.522  20.868   0.224
41645W        W14070  41.291  28.538   3.149
41646W        W14071  25.941  43.039   2.838
41647W        W14072   1.323  40.062   0.908
41648W        W14073  33.150   0.254  12.622
41649W        W14074  12.961   1.831   2.188
41650W        W14075   7.819  33.627  12.044
41651W        W14076  28.204  23.666  14.949
41652W        W14077  37.018  31.099   0.111
41653W        W14078  29.655  35.323  11.134
41654W        W14079  26.139   0.016   1.213
41655W        W14080  30.393  20.107  13.456
41656W        W14081  28.160  25.902   3.200
41657W        W14082  36.642   6.735  10.297
41658W        W14083  30.547  10.478  12.048
41659W        W14084  11.799  26.908   0.377
41660W        W14085   2.347   2.223  10.469
41661W        W14086  15.467  12.185  14.570
41662W        W14087  33.540  32.080   4.492
41663W        W14088  29.774  14.877   0.926
41664W        W14089  27.108  32.646  11.680
41665W        W14090  37.369  44.333   0.980
41666W        W14091   5.462  24.118   1.270
41667W        W14092  43.964   5.300  11.917
41668W        W14093  12.313  41.978  13.325
41669W        W14094   4.658  38.992   1.317
41670W        W14095  16.491  34.438  13.397
41671W        W14096  28.251   7.938   4.499
41672W        W14097  33.981  15.123   3.009
41673W        W14098  35.930  30.390  11.571
41674W        W14099  30.332  33.577   1.356
41675W        W14100  25.175  28.184   3.338
41676W        W14101  34.535  20.552  10.982
41677W        W14102  20.195  42.796   2.409
41678W        W14103  24.967  23.044  13.791
41679W        W14104  20.981  18.531  12.481
41680W        W14105  37.687   5.688   2.299
41681W        W14106  14.124  33.597  12.860
41682W        W14107  15.279  17.826  14.451
41683W        W14108  22.786   9.242   2.189
41684W        W14109   7.226  41.547  11.622
41685W        W14110  35.473   8.403   3.080
41686W        W14111  38.310  23.259  12.608
41687W        W14112  43.737  22.017  11.057
41688W        W14113  15.963  37.331   4.597
41689W        W14114  10.291  33.393   2.188
41690W        W14115  10.363  27.501   3.309
41691W        W14116  32.372  15.742  13.279
41692W        W14117  34.233   5.720   0.273
41693W        W14118  44.932  12.221  11.474
41694W        W14119   8.265  18.528   0.539
41695W        W14120  24.931  29.932  12.412
41696W        W14121  18.254  30.449  13.268
41697W        W14122  10.501  24.413  10.272
41698W        W14123  27.680   7.099   3.105
41699W        W14124  10.614  23.302   4.554
41700W        W14125   5.353  27.236   3.197
41701W        W14126  16.821   9.123  13.488
41702W        W14127  36.480   6.418   4.573
41703W        W14128  44.430  33.326  13.448
41704W        W14129  38.992   7.651   0.937
41705W        W14130   3.311  14.269  14.551
41706W        W14131   0.227   9.535  11.437
41707W        W14132  27.950  40.430   3.296
41708W        W14133  43.314  11.675  10.631
41709W        W14134  31.139  36.136   4.969
41710W        W14135  10.448  23.045  10.674
41711W        W14136  12.363  37.867   0.550
41712W        W14137  22.668  35.135  12.077
41713W        W14138  43.021   6.164   3.836
41714W        W14139  12.253  29.975  12.077
41715W        W14140  42.352   8.331  12.092
41716W        W14141  12.628  16.095   0.803
41717W        W14142  35.563   8.708   2.665
41718W        W14143  19.574  36.668  13.154
41719W        W14144   1.022  11.825   4.553
41720W        W14145  37.733  38.664  13.285
41721W        W14146  10.826  11.406  14.003
41722W        W14147  25.137   3.493  12.019
41723W        W14148  29.231  40.304   0.446
41724W        W14149  30.586  25.911   2.432
41725W        W14150  42.628   1.633  11.952
41726W        W14151  35.034   3.288  10.923
41727W        W14152   5.326  42.065  12.876
41728W        W14153  38.100  43.265  10.771
41729W        W14154  41.140  28.452  14.815
41730W        W14155  17.555  16.817  10.660
41731W        W14156  14.302  42.224  14.169
41732W        W14157  17.292  10.347   0.476
41733W        W14158  44.309  16.188  10.649
41734W        W14159  33.012   8.349  14.433
41735W        W14160  17.154   2.786   4.232
41736W        W14161   1.242  18.522  12.539
41737W        W14162  39.606  40.307   0.046
41738W        W14163  19.747  13.136   0.885
41739W        W14164  13.095  18.789  14.827
41740W        W14165  15.174  15.310  11.723
41741W        W14166  14.295  38.312   3.999
41742W        W14167  22.583   6.303   3.642
41743W        W14168  33.365  18.137   2.443
41744W        W14169  40.964  19.503   3.217
41745W        W14170  43.687   8.989  10.241
41746W        W14171  15.860  25.358   1.273
41747W        W14172  40.067   5.848   0.382
41748W        W14173   9.218  25.551   1.029
41749W        W14174  26.520  30.621   4.024
41750W        W14175  33.532   3.437  11.141
41751W        W14176  35.547  32.657  12.433
41752W        W14177  24.728  42.018  10.658
41753W        W14178  24.533  11.192  12.102
41754W        W14179  26.496  21.739  14.301
41755W        W14180  42.054  22.242   0.817
41756W        W14181  43.176  24.837  11.142
41757W        W14182  35.004  40.587   1.928
41758W        W14183  42.802  11.005  10.353
41759W        W14184  24.029  10.731   4.886
41760W        W14185  13.696  10.892   1.198
41761W        W14186  33.368  20.090   0.285
41762W        W14187  35.588  18.617  12.134
41763W        W14188  39.024  41.359   1.853
41764W        W14189  42.345   2.415  13.930
41765W        W14190  18.535   6.166   4.170
41766W        W14191  12.777   6.145   3.624
41767W        W14192  26.723  37.029   4.599
41768W        W14193  19.583   7.228   0.775
41769W        W14194  39.779  41.328  13.454
41770W        W14195   6.382  17.212   1.435
41771W        W14196  38.256   7.068   2.841
41772W        W14197   3.500  39.459  14.371
41773W        W14198  29.496   7.896   4.022
41774W        W14199  22.108   7.602   2.359
41775W        W14200  22.531  19.695   0.758
41776W        W14201  37.573  30.565   3.462
41777W        W14202  35.866  43.732  13.363
41778W        W14203  28.251  12.085  12.606
41779W        W14204  22.302  17.298  13.755
41780W        W14205  31.062  17.057   1.808
41781W        W14206  42.011  38.109   1.359
41782W        W14207   9.158  20.862   4.573
41783W        W14208   5.384  32.593   1.671
41784W        W14209  21.334   3.335  14.657
41785W        W14210   1.754   5.622   4.372
41786W        W14211  21.700  23.770  13.532
41787W        W14212  37.597  28.885   1.840
41788W        W14213  41.357   9.468   3.355
41789W        W14214  34.105  12.425   2.191
41790W        W14215   3.308  40.353   1.085
41791W        W14216  39.839  30.122   0.055
41792W        W14217  43.786  17.901   4.240
41793W        W14218  21.596  10.437  12.511
41794W        W14219   2.221  38.516  11.933
41795W        W14220  36.667  10.267  12.013
41796W        W14221  23.290  25.643   4.024
41797W        W14222  37.435  43.461  13.966
41798W        W14223   1.457  20.507   3.288
41799W        W14224  17.146  25.770   1.766
41800W        W14225  38.245  36.701   0.356
41801W        W14226  19.068  39.975  11.592
41802W        W14227   3.853  26.932   2.569
41803W        W14228  38.008   5.388  14.425
41804W        W14229  18.611  27.505  11.142
41805W        W14230  18.640   7.256  10.283
41806W        W14231  23.490  24.570  14.830
41807W        W14232  35.865  10.589  12.146
41808W        W14233   7.706  24.174  11.574
41809W        W14234  31.521  29.768   2.515
41810W        W14235  39.837  20.224  13.149
41811W        W14236  18.609   9.196  12.503
41812W        W14237  43.517   6.047   4.599
41813W        W14238   5.704  17.298  14.337
41814W        W14239   8.139  23.693   0.869
41815W        W14240  14.761  33.675  10.127
41816W        W14241  24.539  43.940  10.280
41817W        W14242  17.566  37.090   1.402
41818W        W14243   5.702   7.926  12.010
41819W        W14244  14.839  38.671  11.048
41820W        W14245   2.373  28.180   4.684
41821W        W14246  10.642   8.984   1.859
41822W        W14247  33.554  13.165   4.478
41823W        W14248  12.480  24.631   4.647
41824W        W14249  26.251  18.770  11.967
41825W        W14250  36.278   2.319  13.106
41826W        W14251   7.663  19.622   0.246
41827W        W14252  33.187  33.376  12.521
41828W        W14253  37.421  23.755  12.570
41829W        W14254  18.678  33.096   4.143
41830W        W14255   0.341  16.312   0.769
41831W        W14256  13.064  34.813   0.085
41832W        W14257  24.540  12.805  13.445
41833W        W14258  13.361  29.030  12.496
41834W        W14259  29.138   4.668   4.008
41835W        W14260  19.836  14.821   1.930
41836W        W14261  18.032   2.768  10.604
41837W        W14262  10.571  31.025  14.487
41838W        W14263   3.797  20.299  14.900
41839W        W14264   7.465  41.341  11.222
41840W        W14265  27.980  29.119  14.685
41841W        W14266  19.650  20.888  12.760
41842W        W14267   0.803  17.309   2.864
41843W        W14268   9.211  33.340  13.039
41844W        W14269  18.284  32.611  12.878
41845W        W14270  40.875  29.539  10.720
41846W        W14271  24.314  15.568   1.148
41847W        W14272  21.709   9.817  11.853
41848W        W14273  42.253  37.019   4.826
41849W        W14274   6.331  40.518   2.703
41850W        W14275  23.054  29.283   1.620
41851W        W14276  26.412  29.022   0.858
41852W        W14277  24.309  14.130  14.973
41853W        W14278  10.398  32.629   1.501
41854W        W14279  20.256   0.469  13.889
41855W        W14280  43.462   3.745  14.145
41856W        W14281   7.224   4.234  14.797
41857W        W14282  42.446  15.276  12.959
41858W        W14283  44.278  43.100  12.536
41859W        W14284   2.887  39.308   3.587
41860W        W14285   2.040  35.265  14.097
41861W        W14286  33.495   4.488   0.067
41862W        W14287  18.303  36.388   1.374
41863W        W14288  18.948  34.427  10.089
41864W        W14289  19.733  21.499  12.208
41865W        W14290  20.702  44.248   0.533
41866W        W14291  42.967   6.415  11.427
41867W        W14292  20.787  29.396  11.115
41868W        W14293  21.945  28.422   1.948
41869W        W14294  30.380  23.087   5.549
41870W        W14295  43.602   5.445   0.885
41871W        W14296   7.735  22.288   1.423
41872W        W14297   8.097  29.532   4.239
41873W        W14298  37.426  18.026   0.077
41874W        W14299  30.456  13.696   0.893
41875W        W14300   4.451  12.561  14.627
41876W        W14301   9.004  22.581  13.270
41877W        W14302  16.477   4.915  11.058
41878W        W14303  42.803  28.539  10.778
41879W        W14304  31.091  38.383  12.394
41880W        W14305  35.532  19.157   4.899
41881W        W14306  31.172  25.004   1.867
41882W        W14307  27.933  23.628  12.559
41883W        W14308  26.182  15.368  10.460
41884W        W14309  20.502  16.674   0.859
41885W        W14310  30.310   5.766  12.514
41886W        W14311  30.028   0.328  12.570
41887W        W14312   1.738  21.613  10.645
41888W        W14313   6.445  34.622  12.794
41889W        W14314  24.595  37.638  13.839
41890W        W14315   6.902  14.054   0.445
41891W        W14316  42.868  25.250  14.989
41892W        W14317  41.351  19.094  13.026
41893W        W14318  26.575  37.795  14.889
41894W        W14319   3.045   3.254   1.341
41895W        W14320  19.181  23.660  12.618
41896W        W14321  12.421  25.749   3.120
41897W        W14322   6.958  34.004   0.271
41898W        W14323   3.377   6.914  14.875
41899W        W14324   3.539   8.253  12.611
41900W        W14325   4.521  33.996  14.301
41901W        W14326   6.795  19.622   0.991
41902W        W14327   2.306  11.654   0.523
41903W        W14328  42.678  24.086   5.305
41904W        W14329  29.670  30.136  11.125
41905W        W14330  34.969  44.415   2.790
41906W        W14331  30.075  10.237  10.483
41907W        W14332  19.179   9.770  11.430
41908W        W14333   2.911  13.053   2.397
41909W        W14334  42.265  25.461  12.227
41910W        W14335  32.521  19.489   2.690
41911W        W14336  10.321  39.298  14.274
41912W        W14337  28.699  22.523  10.704
41913W        W14338  15.547  25.737  13.037
41914W        W14339  10.568  15.223  13.945
41915W        W14340  35.621  30.124  11.920
41916W        W14341  26.181  11.284   3.917
41917W        W14342  23.956  25.993  12.064
41918W        W14343  12.405   1.280  10.719
41919W        W14344  32.017  14.864   4.100
41920W        W14345  19.453  11.139  14.885
41921W        W14346  13.810   5.853  14.062
41922W        W14347  28.980  33.291  13.423
41923W        W14348  32.949  39.073   1.220
41924W        W14349  25.230   3.835   4.064
41925W        W14350  15.066   2.719   4.223
41926W        W14351  12.723  14.282   1.213
41927W        W14352  26.732   2.458  11.428
41928W        W14353  24.864  37.977   5.122
41929W        W14354   3.899   5.913   0.195
41930W        W14355  11.588   5.957  12.067
41931W        W14356  20.610  21.049   2.259
41932W        W14357  26.389  10.949  12.323
41933W        W14358   4.221   9.827   1.235
41934W        W14359  25.493   5.938  13.334
41935W        W14360   6.834  13.708  14.472
41936W        W14361  39.936  23.934   2.964
41937W        W14362  19.181  37.402  14.319
41938W        W14363  25.787   7.611   4.076
41939W        W14364  36.491  11.042   2.166
41940W        W14365  14.284  30.413  10.779
41941W        W14366  12.843   8.102   3.670
41942W        W14367  15.662  19.081  10.546
41943W        W14368  14.042  32.526  10.169
41944W        W14369  36.758  28.161   2.674
41945W        W14370  37.862  21.191  10.495
41946W        W14371  35.450   7.472   1.468
41947W        W14372   9.384  23.753  11.558
41948W        W14373  23.892  22.498   5.222
41949W        W14374  26.807   2.691   2.349
41950W        W14375  12.925  13.249   3.894
41951W        W14376   9.719   8.339  12.722
41952W        W14377  19.715  18.830  10.721
41953W        W14378   4.564  40.044   2.369
41954W        W14379  30.704   7.322  11.742
41955W        W14380  32.966  12.872   4.197
41956W        W14381  20.756  10.409  10.481
41957W        W14382   0.268  13.845   3.452
41958W        W14383  18.936  38.309   2.671
41959W        W14384   3.878  19.612  10.551
41960W        W14385  44.790  23.286  10.644
41961W        W14386   2.134  38.411  11.444
41962W        W14387   4.882   9.573  12.996
41963W        W14388   9.176  27.496  12.104
41964W        W14389   6.478  11.176  13.568
41965W        W14390   9.743  36.536   4.338
41966W        W14391  44.393  35.993   0.563
41967W        W14392   2.862  33.812  14.811
41968W        W14393  14.694  15.144  11.542
41969W        W14394  36.624  44.708  13.421
41970W        W14395  22.033  30.432   2.706
41971W        W14396  19.098   7.769   0.365
41972W        W14397  42.399  35.795   1.218
41973W        W14398  22.706  42.028   0.310
41974W        W14399   9.262  40.200  13.475
41975W        W14400   2.583  19.830   4.918
41976W        W14401  38.887  26.500   3.589
41977W        W14402   0.469   2.198   0.183
41978W        W14403  20.030  29.599  13.393
41979W        W14404  33.473   4.671   3.255
41980W        W14405  37.017  33.015  12.095
41981W        W14406  19.586  24.093  10.917
41982W        W14407  18.986  20.252  10.524
41983W        W14408  44.291  38.605   2.521
41984W        W14409   3.282  34.414  12.008
41985W        W14410  11.203  25.635  12.392
41986W        W14411  20.198   4.190  11.608
41987W        W14412   5.133  43.926  12.001
41988W        W14413  20.205   6.378   4.676
41989W        W14414  24.429   0.924   5.162
41990W        W14415  23.119  35.322  13.436
41991W        W14416  29.049  10.755  14.438
41992W        W14417   9.132  21.495  14.257
41993W        W14418   1.849  42.558  10.606
41994W        W14419  23.368  24.402   0.706
41995W        W14420  26.894   9.655   4.580
41996W        W14421  38.069  17.316   2.005
41997W        W14422   3.479   1.926   0.469
41998W        W14423  11.266  24.278  14.497
41999W        W14424  39.942  21.296   0.335
42000W        W14425   0.477  25.049   4.994
42001W        W14426   5.473   6.141   2.330
42002W        W14427  42.460  44.966  13.927
42003W        W14428   8.702  26.739  14.343
42004W        W14429  24.667  40.403  12.989
42005W        W14430  20.358  18.244   3.081
42006W        W14431  39.340  39.100  12.348
42007W        W14432   5.003   2.395   3.725
42008W        W14433   0.281  23.438  13.948
42009W        W14434  24.226   3.678  12.775
42010W        W14435  44.808  33.719  11.020
42011W        W14436  42.489  19.759   3.583
42012W        W14437  36.251  16.946  13.247
42013W        W14438  20.514   8.302   1.800
42014W        W14439  35.174  42.021  13.102
42015W        W14440  35.041  25.676  14.467
42016W        W14441  38.452  36.266   0.858
42017W        W14442  40.234  18.625  14.590
42018W        W14443  26.390  42.503  14.779
42019W        W14444  30.070  29.147   3.322
42020W        W14445  18.153   2.425   0.196
42021W        W14446   0.077  19.966  14.867
42022W        W14447  38.300  12.388   1.689
42023W        W14448  31.067  11.169  12.033
42024W        W14449   9.265  11.886  11.563
42025W        W14450  22.528  44.029   4.976
42026W        W14451  24.375  30.674  11.994
42027W        W14452  25.986  14.688   1.217
42028W        W14453   2.041  35.535   3.640
42029W        W14454  40.111  20.679  10.252
42030W        W14455  25.291  43.337  14.332
42031W        W14456  24.234  10.099   3.167
42032W        W14457   6.126  19.077  12.135
42033W        W14458  36.069  25.403  10.765
42034W        W14459  22.011  16.147  13.353
42035W        W14460  38.318  20.577  11.195
42036W        W14461   4.323  11.881   3.753
42037W        W14462  34.475   8.873  12.530
42038W        W14463  21.078  32.107  14.020
42039W        W14464  32.689  22.595  12.017
42040W        W14465   0.659  29.379  13.339
42041W        W14466  12.699  29.036   3.263
42042W        W14467   5.763  16.888   1.922
42043W        W14468  15.015  27.983   1.316
42044W        W14469  25.934  11.616  13.958
42045W        W14470  31.464   2.663  11.450
42046W        W14471  24.196   4.682   1.936
42047W        W14472  24.935  17.706  14.532
42048W        W14473   2.371  36.978   1.215
42049W        W14474  43.474  18.942  13.952
42050W        W14475  29.473   2.976  11.036
42051W        W14476  21.992  41.437   3.886
42052W        W14477  24.164   3.758   4.253
42053W        W14478  27.178   0.705   3.238
42054W        W14479  32.064  19.228   4.306
42055W        W14480   5.660  35.822   2.896
42056W        W14481   4.212  15.823  14.886
42057W        W14482  13.864  29.474  10.787
42058W        W14483  22.191  30.718  14.988
42059W        W14484  11.054  12.409  11.874
42060W        W14485  26.706  33.171  10.779
42061W        W14486   6.394  10.756   0.432
42062W        W14487  26.263   2.766   4.645
42063W        W14488   8.034  31.569   4.716
42064W        W14489  44.944   3.249   0.854
42065W        W14490   8.326  27.769  12.257
42066W        W14491  19.035  43.808   2.821
42067W        W14492  21.543   8.450   1.391
42068W        W14493   6.672  44.743  11.419
42069W        W14494  24.107  36.395   4.810
42070W        W14495  36.359  20.557  12.049
42071W        W14496  22.524  39.823   3.783
42072W        W14497   0.387   6.164   2.363
42073W        W14498   2.408  18.229   0.753
42074W        W14499  42.269   7.911  11.588
42075W        W14500  24.289  30.160  10.617
42076W        W14501  44.705   4.435  14.088
42077W        W14502  25.044  16.216  13.803
42078W        W14503  13.616  41.814   3.290
42079W        W14504  44.967  22.631   3.821
42080W        W14505   4.737  24.067   5.047
42081W        W14506  36.282   0.795   1.869
42082W        W14507  20.252  27.312   3.632
42083W        W14508  25.126  25.051   2.583
42084W        W14509  37.598  43.571  11.603
42085W        W14510  24.009   2.210   3.620
42086W        W14511  26.546   7.206   2.654
42087W        W14512   2.650  17.579   3.789
42088W        W14513  41.225  27.444  12.735
42089W        W14514  34.896  25.434   3.205
42090W        W14515  40.117  35.715   3.465
42091W        W14516   8.934   8.424  13.534
42092W        W14517  12.831  17.121  14.903
42093W        W14518  29.342  15.133   1.990
42094W        W14519  35.503  33.473  13.719
42095W        W14520  42.386  16.483  10.411
42096W        W14521   6.495  12.693   0.189
42097W        W14522   1.323   9.924  10.733
42098W        W14523   9.698  10.095  12.988
42099W        W14524   1.920  19.161  13.112
42100W        W14525  12.379  42.766   1.879
42101W        W14526  36.658  28.873   4.207
42102W        W14527  43.002   0.454   0.407
42103W        W14528   2.829  19.524   2.334
42104W        W14529  20.129  10.317   4.628
42105W        W14530   8.356  16.385   3.624
42106W        W14531  39.253  34.963   2.310
42107W        W14532  34.557  26.592   2.791
42108W        W14533   0.532  26.955  12.505
42109W        W14534  34.590  11.820   1.286
42110W        W14535  14.912  33.047   4.023
42111W        W14536  35.530  21.594   0.911
42112W        W14537  34.814  14.772  14.974
42113W        W14538  37.426  29.587  10.533
42114W        W14539   9.669  13.033  12.029
42115W        W14540  37.511  38.837   0.635
42116W        W14541  42.514  32.384  14.543
42117W        W14542  43.274  20.592   1.243
42118W        W14543  20.955  39.840  11.125
42119W        W14544  31.056  23.444   1.870
42120W        W14545  33.951  31.098  14.090
42121W        W14546  38.917  42.764  14.506
42122W        W14547  29.461  12.433  14.813
42123W        W14548  35.991  35.898   1.054
42124W        W14549  32.590  29.383   1.741
42125W        W14550  15.616  19.152   1.635
42126W        W14551  29.844  43.900  11.067
42127W        W14552  13.156  18.513  11.888
42128W        W14553  20.861  20.598  14.109
42129W        W14554   6.300  23.039   1.804
42130W        W14555  37.082  13.922   3.564
42131W        W14556   0.051  22.695  14.492
42132W        W14557  24.255  35.531  12.154
42133W        W14558   2.665  36.132   1.250
42134W        W14559  43.998  28.086  10.681
42135W        W14560  31.392   3.275   4.440
42136W        W14561  22.410  17.413   5.049
42137W        W14562  35.983  28.973  10.599
42138W        W14563   7.659  39.968   0.297
42139W        W14564  35.162  22.510  10.065
42140W        W14565  38.046  35.360   4.310
42141W        W14566  24.482   9.446  14.376
42142W        W14567  18.952  37.679  11.204
42143W        W14568  28.512  17.174   3.187
42144W        W14569  44.714  19.127   4.593
42145W        W14570  29.941  36.552   4.294
42146W        W14571  19.109  19.623   1.909
42147W        W14572  17.082  40.575   4.148
42148W        W14573   1.945  11.260   4.623
42149W        W14574  41.727  43.570  14.036
42150W        W14575  43.399  29.917  11.930
42151W        W14576   2.931   8.170   1.802
42152W        W14577  39.742   2.323   2.001
42153W        W14578  38.110  36.465   4.944
42154W        W14579  38.369  37.601   2.268
42155W        W14580  29.369  40.549  14.640
42156W        W14581  30.909  16.646   0.394
42157W        W14582  17.300  40.255  13.649
42158W        W14583  17.283  11.482   1.858
42159W        W14584  41.446  40.326   2.193
42160W        W14585  42.747  35.469  14.009
42161W        W14586  38.844  35.248  11.534
42162W        W14587  42.844  14.923   0.197
42163W        W14588  11.658  15.951   5.107
42164W        W14589   8.436  12.878   0.845
42165W        W14590  37.979   1.159   1.327
42166W        W14591  26.239  41.733  13.086
42167W        W14592  43.383   3.712   0.487
42168W        W14593  23.039  37.360  13.020
42169W        W14594  10.610   1.318   4.196
42170W        W14595  36.471  41.344   0.866
42171W        W14596  12.597  26.795  12.981
42172W        W14597  13.848  37.193  10.735
42173W        W14598  41.487  20.600  10.673
42174W        W14599   1.250   7.957   1.304
42175W        W14600  27.754  12.058   0.034
42176W        W14601  18.101  44.770  12.627
42177W        W14602  32.648  36.631   2.431
42178W        W14603  31.557  23.182   0.335
42179W        W14604  16.634  38.854   3.740
42180W        W14605  27.197   7.885   1.315
42181W        W14606   1.460   7.750   4.514
42182W        W14607   5.897  33.172  11.211
42183W        W14608  35.004  17.029  11.767
42184W        W14609   2.060  21.812   1.848
42185W        W14610  26.872  19.508  13.414
42186W        W14611  36.439   2.391  13.587
42187W        W14612   2.304   3.528   5.203
42188W        W14613  16.798  14.063   0.456
42189W        W14614   4.226   7.386  13.063
42190W        W14615  26.031  35.056   2.302
42191W        W14616  20.620  39.411   1.687
42192W        W14617   1.319  32.238   1.299
42193W        W14618   3.392  35.434  13.134
42194W        W14619  29.742   4.197  14.630
42195W        W14620  39.341  25.125  11.506
42196W        W14621   7.121  13.128  13.858
42197W        W14622  38.782  32.349  11.130
42198W        W14623  39.433  21.294   2.175
42199W        W14624  16.709  17.364   1.713
42200W        W14625  10.139  32.000   3.271
42201W        W14626  18.005  38.424  11.888
42202W        W14627  34.541  10.394  12.377
42203W        W14628  44.421  31.349  13.864
42204W        W14629  43.750   9.885   3.307
42205W        W14630  39.764   4.290  13.501
42206W        W14631  24.178  39.768  12.432
42207W        W14632  30.840   1.460   1.701
42208W        W14633  26.681  25.065  14.881
42209W        W14634  43.498   9.447  11.038
42210W        W14635   4.632  16.247   4.287
42211W        W14636  13.238  33.078   0.123
42212W        W14637   5.565   5.985   0.051
42213W        W14638   5.814  42.533  12.725
42214W        W14639  43.825  11.300  12.093
42215W        W14640  28.733   6.837  10.242
42216W        W14641  19.263  16.154   4.087
42217W        W14642  19.690  13.600  14.125
42218W        W14643  22.615  32.115   5.106
42219W        W14644  38.441  10.357  14.877
42220W        W14645  16.265  11.680   0.640
42221W        W14646   0.860   2.749  11.994
42222W        W14647   5.431  33.662  14.814
42223W        W14648  19.858  27.614  11.588
42224W        W14649  34.805   2.237  12.209
42225W        W14650  30.052  22.924   0.482
42226W        W14651   7.907   4.112   1.008
42227W        W14652  38.556   1.332   4.664
42228W        W14653  11.099  30.697   0.346
42229W        W14654   0.427  42.833   4.965
42230W        W14655  22.550  10.498   2.505
42231W        W14656  31.769  39.658   2.475
42232W        W14657  14.768  16.297   2.868
42233W        W14658  39.266  25.102   1.880
42234W        W14659  23.761  44.126  13.895
42235W        W14660  43.760   3.738  10.393
42236W        W14661   4.148   3.242   2.762
42237W        W14662  42.454  16.124  12.720
42238W        W14663  33.460   7.664   3.068
42239W        W14664  38.628  18.042  12.511
42240W        W14665  15.754  19.656  11.955
42241W        W14666  26.135  27.193   0.929
42242W        W14667  18.700  35.898  10.993
42243W        W14668  31.233  11.094  12.995
42244W        W14669  26.635   6.802  11.184
42245W        W14670  16.942  19.543  11.118
42246W        W14671   7.070  40.731  12.762
42247W        W14672  37.213  12.724  10.384
42248W        W14673  36.012  19.982  13.502
42249W        W14674  39.829  38.815   2.294
42250W        W14675   2.964  20.696  11.848
42251W        W14676  27.153  31.297   4.135
42252W        W14677  30.011  28.276  11.648
42253W        W14678  14.192  23.516  13.038
42254W        W14679   6.288   8.596  10.029
42255W        W14680  42.572  17.595   4.128
42256W        W14681  14.610  17.883  10.311
42257W        W14682  44.565  40.533   3.106
42258W        W14683   7.928  40.880  12.685
42259W        W14684  21.735  11.870  14.109
42260W        W14685   4.415  36.788  11.516
42261W        W14686  20.218  37.890   0.887
42262W        W14687  16.940  17.733  11.020
42263W        W14688  36.174   2.119   2.678
42264W        W14689   3.402  40.450  13.261
42265W        W14690  31.045   6.108  10.775
42266W        W14691  15.858  13.326  11.100
42267W        W14692  32.014  22.228  13.526
42268W        W14693  26.684  15.372   1.519
42269W        W14694  25.123  34.901   2.436
42270W        W14695  34.687  26.155   0.775
42271W        W14696  14.778  28.236  11.167
42272W        W14697  21.500  29.263   1.813
42273W        W14698  14.147  32.168  14.244
42274W        W14699  10.145  33.362  11.647
42275W        W14700  20.251  21.528  12.000
42276W        W14701  22.600  36.959   2.688
42277W        W14702  40.916   2.709   0.856
42278W        W14703  19.217  16.426   4.554
42279W        W14704  43.080  30.771  11.269
42280W        W14705  22.402  38.012  10.179
42281W        W14706  42.961  12.793  11.942
42282W        W14707   8.179  12.781  11.560
42283W        W14708   2.988   7.317   4.550
42284W        W14709  42.059  12.371   3.351
42285W        W14710  15.294  38.529  13.879
42286W        W14711  19.315  37.797  14.659
42287W        W14712  38.363  31.573   3.179
42288W        W14713  17.834  32.931  13.765
42289W        W14714  42.046   7.928  10.683
42290W        W14715   2.342  11.601   1.894
42291W        W14716   3.671   7.818  14.860
42292W        W14717  25.783  33.446   1.907
42293W        W14718  20.298  18.868  13.892
42294W        W14719  11.806  41.894   5.112
42295W        W14720  30.585  17.804   1.944
42296W        W14721  31.670  29.597   4.265
42297W        W14722   3.675  20.008   0.349
42298W        W14723  13.413  36.498   2.796
42299W        W14724  30.243  25.727  13.534
42300W        W14725  12.718  19.556  10.817
42301W        W14726  11.402   6.884   1.697
42302W        W14727  10.833  15.900  11.825
42303W        W14728  15.211   5.552   4.155
42304W        W14729  15.243  44.641   1.301
42305W        W14730  44.673  32.217  11.146
42306W        W14731  32.326   1.732   5.058
42307W        W14732  42.962  33.036   3.634
42308W        W14733  26.713  36.581  11.256
42309W        W14734   3.443   1.244  11.233
42310W        W14735  29.639  30.485   4.611
42311W        W14736  40.892   5.634   3.702
42312W        W14737  42.540  39.316   4.584
42313W        W14738  32.594  37.375  13.035
42314W        W14739  12.825   0.232   2.153
42315W        W14740  44.322   7.222  10.218
42316W        W14741  13.779  24.425   2.808
42317W        W14742  12.335  29.691  12.557
42318W        W14743   2.416   2.177   2.867
42319W        W14744   7.348   2.322  14.698
42320W        W14745  14.609  11.147   4.185
42321W        W14746   2.519  42.971  12.549
42322W        W14747  40.311   5.720   4.077
42323W        W14748  18.220   5.362   4.348
42324W        W14749   1.209  10.596   2.424
42325W        W14750  10.864  25.146   4.140
42326W        W14751  15.083  25.805  10.665
42327W        W14752  13.195  19.528   4.045
42328W        W14753   6.919  25.179  14.913
42329W        W14754   7.115  15.353  12.446
42330W        W14755  41.831  27.642  13.373
42331W        W14756  14.308  34.051  12.601
42332W        W14757  27.944  40.782   2.752
42333W        W14758   9.590   3.310   0.613
42334W        W14759  16.605  13.098  11.952
42335W        W14760  35.967  22.635  13.052
42336W        W14761  10.738  37.844   3.857
42337W        W14762   9.927  12.153   2.630
42338W        W14763  16.704  14.599   0.478
42339W        W14764  14.086  19.792   0.235
42340W        W14765  25.019  26.539   2.759
42341W        W14766  30.142  38.449  10.694
42342W        W14767  18.570  27.224   1.358
42343W        W14768  28.372  19.276   4.738
42344W        W14769   4.868  39.428  11.976
42345W        W14770  17.604  26.783  12.912
42346W        W14771   2.437   8.763  13.897
42347W        W14772  31.651  32.597   4.745
42348W        W14773  10.120  27.465   2.256
42349W        W14774  37.378  21.667  14.341
42350W        W14775   5.152  39.505   2.671
42351W        W14776  25.204  23.488   2.814
42352W        W14777  35.285  24.706  14.374
42353W        W14778  40.351  29.973   4.452
42354W        W14779  20.102  14.340   3.155
42355W        W14780   0.901   8.044   1.687
42356W        W14781  43.678   3.372  10.031
42357W        W14782  22.559  23.724   4.523
42358W        W14783  29.388  15.181   0.184
42359W        W14784   3.418  40.825  11.631
42360W        W14785  35.856  39.379   0.239
42361W        W14786  33.371  14.477   4.542
42362W        W14787   4.831  16.630  11.850
42363W        W14788   5.339  35.711   3.277
42364W        W14789  22.937  11.231   4.130
42365W        W14790  26.354   4.557   0.302
42366W        W14791   3.357  14.724   1.697
42367W        W14792  44.013   6.491  12.304
42368W        W14793  38.844  23.582  12.150
42369W        W14794  27.964   1.495   3.308
42370W        W14795   6.355   8.315  10.921
42371W        W14796  31.634  11.533   4.413
42372W        W14797  39.295  32.021  13.326
42373W        W14798   3.230  18.306   3.226
42374W        W14799  27.948  31.969   1.810
42375W        W14800  43.579  20.004  10.117
42376W        W14801  25.575  42.234  13.665
42377W        W14802  24.297  36.072   0.358
42378W        W14803  18.082  42.489  12.613
42379W        W14804  33.142  37.777   0.270
42380W        W14805  25.523  23.711  10.758
42381W        W14806  33.490  42.778   4.196
42382W        W14807  36.373  38.107  10.541
42383W        W14808  33.260  28.335   0.324
42384W        W14809  27.042  23.524   1.828
42385W        W14810  32.796  19.575   3.146
42386W        W14811  29.997  26.207  14.433
42387W        W14812  38.306  12.268   0.376
42388W        W14813   0.359  27.676   0.831
42389W        W14814  24.105   4.226  11.342
42390W        W14815  14.449  12.048   1.481
42391W        W14816  28.448  22.611  14.425
42392W        W14817   7.825  27.964   3.197
42393W        W14818  35.185  37.608  12.055
42394W        W14819  38.319  27.582   2.389
42395W        W14820  20.156  33.321  12.718
42396W        W14821   5.494  39.725   3.683
42397W        W14822  26.548   9.606   3.332
42398W        W14823  12.121   6.627  11.921
42399W        W14824  34.931  32.029  13.361
42400W        W14825  41.847   7.247  12.587
42401W        W14826   6.921   7.685   4.188
42402W        W14827  39.088  33.916  14.329
42403W        W14828  29.612  31.592   3.294
42404W        W14829   2.111   1.068   3.736
42405W        W14830  18.786  42.524   2.740
42406W        W14831  43.434   9.885  11.997
42407W        W14832  36.722   6.120   5.498
42408W        W14833  25.889   7.258  14.082
42409W        W14834  37.431  31.050  10.725
42410W        W14835  22.604   7.335   0.952
42411W        W14836  19.440  11.940   4.559
42412W        W14837   2.862  14.143   2.325
42413W        W14838   5.307   5.804  12.476
42414W        W14839  33.879  24.963  12.899
42415W        W14840  39.263  33.185   4.626
42416W        W14841  32.114  36.955  13.894
42417W        W14842  27.694  25.219  13.838
42418W        W14843  33.891  10.836   1.823
42419W        W14844  11.164   2.529  14.893
42420W        W14845  32.035   1.704   4.216
42421W        W14846  12.592  14.321   1.966
42422W        W14847  41.484  30.852  11.296
42423W        W14848  24.079  31.130  13.100
42424W        W14849  40.125  36.037   1.347
42425W        W14850   9.815  11.127   0.176
42426W        W14851  22.336  25.458   1.922
42427W        W14852   6.849  31.940  14.218
42428W        W14853  42.321  10.257  11.603
42429W        W14854  24.534  24.292   1.453
42430W        W14855  28.010  38.740  12.840
42431W        W14856  14.632   6.675   3.295
42432W        W14857  28.726  12.175   0.987
42433W        W14858  36.199  44.855   4.421
42434W        W14859  14.289  10.432  12.916
42435W        W14860  16.864  22.105  13.229
42436W        W14861   0.514  32.926  14.449
42437W        W14862  20.036  44.688   3.751
42438W        W14863  10.703  14.894   3.548
42439W        W14864  11.375   2.365  13.310
42440W        W14865  18.046  34.878   2.402
42441W        W14866  43.309   9.167   3.454
42442W        W14867   4.744  26.294   1.364
42443W        W14868  36.537  31.219  12.638
42444W        W14869  37.413  15.332   4.957
42445W        W14870  12.212  24.214   1.272
42446W        W14871  14.572  15.273   3.847
42447W        W14872   2.044  37.208  11.077
42448W        W14873  25.697  21.585   3.678
42449W        W14874  19.698   5.421   0.714
42450W        W14875  31.612  37.402  14.529
42451W        W14876  37.277   0.534  13.973
42452W        W14877  39.933  42.537   0.281
42453W        W14878  15.838   7.654   0.019
42454W        W14879   8.514  28.437   0.383
42455W        W14880  15.079  44.330   3.662
42456W        W14881   4.321  21.606  12.578
42457W        W14882   0.944  24.666   0.305
42458W        W14883  22.236  21.351   2.357
42459W        W14884  42.386   2.078  11.220
42460W        W14885  34.055  12.947  11.574
42461W        W14886  33.682  24.505  14.731
42462W        W14887  19.304   9.869  12.378
42463W        W14888  28.017  42.585   4.353
42464W        W14889  35.686  42.571  14.633
42465W        W14890  31.893  40.035   4.449
42466W        W14891  34.963  39.081  13.974
42467W        W14892  14.110  14.555  14.113
42468W        W14893  41.584  26.901   2.764
42469W        W14894  30.462  15.657   4.339
42470W        W14895   1.555  40.391   3.321
42471W        W14896  17.782  24.519   4.530
42472W        W14897  19.815  24.161  12.122
42473W        W14898   0.029   2.718   3.115
42474W        W14899  16.933  27.387   3.107
42475W        W14900  43.064  36.305  10.820
42476W        W14901   3.505  26.585  10.189
42477W        W14902  32.359   5.490   3.247
42478W        W14903  22.616  30.007   1.042
42479W        W14904  32.363  12.725   0.931
42480W        W14905   9.843  14.595  14.978
42481W        W14906  15.124  27.353  12.169
42482W        W14907  22.654  31.458  14.933
42483W        W14908  21.371  34.125  11.482
42484W        W14909  42.241  21.661  11.019
42485W        W14910  31.981  25.017   2.273
42486W        W14911  23.986  26.174   1.871
42487W        W14912  10.722  34.044   0.431
42488W        W14913  10.361   6.790   0.394
42489W        W14914  36.826  23.636   2.585
42490W        W14915  10.808  14.686  13.010
42491W        W14916  40.000   6.710  12.091
42492W        W14917   2.838  19.519   4.590
42493W        W14918  22.325   8.927   1.910
42494W        W14919  35.349   4.734  14.523
42495W        W14920  31.678  11.900  10.610
42496W        W14921  33.362  10.775  13.441
42497W        W14922  12.419  26.658   0.799
42498W        W14923  25.398  32.993   0.421
42499W        W14924  31.402  27.216   4.862
42500W        W14925   3.623  14.584   2.705
42501W        W14926   3.190  11.712   2.611
42502W        W14927  34.780  13.548  11.224
42503W        W14928  16.177  15.613   2.809
42504W        W14929  14.626  40.045   1.402
42505W        W14930   3.260  19.011  14.857
42506W        W14931  41.015  29.040  13.469
42507W        W14932  18.709  41.380   0.435
42508W        W14933  38.354   2.448   3.414
42509W        W14934  18.732  15.595   3.537
42510W        W14935  25.588  26.059  13.909
42511W        W14936   8.688  37.889   3.341
42512W        W14937  19.643  16.793  10.761
42513W        W14938   4.616   2.226  11.062
42514W        W14939  18.806  21.721   4.066
42515W        W14940  44.184  41.482  13.529
42516W        W14941   3.777  27.893   2.823
42517W        W14942  14.608  14.830   2.172
42518W        W14943   4.233  10.218  11.127
42519W        W14944  36.500  19.283  11.530
42520W        W14945  13.880  31.616   2.147
42521W        W14946  24.060  11.384  12.168
42522W        W14947   5.771  29.660  13.259
42523W        W14948  41.819  41.052   0.850
42524W        W14949  16.790  26.093   2.621
42525W        W14950  27.223  44.278  13.377
42526W        W14951  30.786  24.001  12.771
42527W        W14952  43.695  30.114  11.499
42528W        W14953  44.264  27.862   3.615
42529W        W14954  22.241   3.801   2.639
42530W        W14955   9.232  21.013   0.195
42531W        W14956  15.764  18.528   4.036
42532W        W14957   7.299  20.109   4.454
42533W        W14958  34.617  18.377  14.275
42534W        W14959  29.693  22.668  13.045
42535W        W14960  22.106  28.107   2.325
42536W        W14961  43.942  13.964   4.881
42537W        W14962   9.338  40.040   2.396
42538W        W14963  43.991  34.992   2.630
42539W        W14964  33.365  44.494   2.418
42540W        W14965  36.423  41.443  13.227
42541W        W14966  20.147  41.172   1.732
42542W        W14967  23.514  34.291  13.033
42543W        W14968  34.207  41.807  13.225
42544W        W14969  18.119   6.713  11.788
42545W        W14970   6.840   3.177   1.366
42546W        W14971  20.189   2.655  12.864
42547W        W14972  29.014  24.800   9.457
42548W        W14973  22.619  36.110   1.750
42549W        W14974  15.899  33.097  12.023
42550W        W14975  43.926  33.657  10.001
42551W        W14976  44.286  30.658  12.016
42552W        W14977  31.319  12.678   3.129
42553W        W14978  15.904  35.912   0.675
42554W        W14979  18.412  27.125   0.872
42555W        W14980  37.859  29.184  13.171
42556W        W14981  32.046  14.185   2.765
42557W        W14982   6.402  33.900  12.185
42558W        W14983  42.523  17.250   1.251
42559W        W14984  15.383  19.314  14.414
42560W        W14985   3.645  41.036   1.406
42561W        W14986  14.606   8.121   1.027
42562W        W14987  11.842  15.302   1.139
42563W        W14988  25.457   3.615   2.396
42564W        W14989  35.833  25.906   4.643
42565W        W14990  18.052  26.571   2.395
42566W        W14991  14.657   1.175   4.601
42567W        W14992   4.843  17.562   5.137
42568W        W14993  29.613  21.507   2.886
42569W        W14994  37.863  44.110   0.887
42570W        W14995  37.794  26.873  10.637
42571W        W14996   6.635  43.542   2.906
42572W        W14997  30.441  40.579  13.435
42573W        W14998  44.015   0.213  12.776
42574W        W14999   9.795  30.901  14.020
42575W        W15000  13.717   0.920  14.137
42576W        W15001  43.721   9.873  14.771
42577W        W15002   4.306  38.961  11.455
42578W        W15003  29.600  41.813   1.660
42579W        W15004  40.427  44.907  11.163
42580W        W15005  40.968  22.105   3.841
42581W        W15006  16.077  26.481  11.526
42582W        W15007   3.711  44.261   3.349
42583W        W15008  29.485  39.379   2.444
42584W        W15009   8.691  33.000   1.792
42585W        W15010  38.730   5.104   0.805
42586W        W15011  27.488  37.592   3.743
42587W        W15012   3.195  41.389  13.607
42588W        W15013  18.534  15.899  13.063
42589W        W15014  20.558  20.359   1.493
42590W        W15015  30.615  26.658   1.307
42591W        W15016  33.947  44.045   1.665
42592W        W15017  38.327  11.785  11.401
42593W        W15018  38.778   5.732   3.703
42594W        W15019  43.147  22.867  10.174
42595W        W15020  14.236  15.568  13.822
42596W        W15021   3.942   3.713   4.705
42597W        W15022   3.897  22.995   0.377
42598W        W15023  25.685  23.414  13.369
42599W        W15024   2.259  18.301   2.232
42600W        W15025  15.829   7.293   2.221
42601W        W15026  27.557  10.850   3.625
42602W        W15027  16.637   4.148  11.478
42603W        W15028   7.506  36.472   2.715
42604W        W15029  29.563  23.215  13.280
42605W        W15030  19.259  31.609  11.681
42606W        W15031  25.987   3.471  14.785
42607W        W15032  34.972  11.756  12.979
42608W        W15033  44.140   1.015   0.821
42609W        W15034  18.806   4.312   3.376
42610W        W15035  18.400  17.609   3.135
42611W        W15036  32.884   6.763  11.434
42612W        W15037  15.408  27.136  10.568
42613W        W15038  36.382  44.816  12.963
42614W        W15039  37.932  31.609  11.326
42615W        W15040  42.837  33.418   0.613
42616W        W15041  20.555  38.283   4.081
42617W        W15042   1.827   7.920   3.101
42618W        W15043  33.658  30.647   4.117
42619W        W15044  10.724  20.546  14.631
42620W        W15045  15.698   9.010  10.491
42621W        W15046  17.275   2.892  13.421
42622W        W15047   1.657   9.583   0.792
42623W        W15048  12.184  10.219  11.903
42624W        W15049  37.679  42.353   0.732
42625W        W15050  40.829  42.240   2.265
42626W        W15051  18.654  22.163  11.213
42627W        W15052  44.206  25.588  14.167
42628W        W15053   6.318   1.358   4.026
42629W        W15054  31.532  24.645   1.848
42630W        W15055  25.580  35.380  11.212
42631W        W15056  24.129   0.193  12.101
42632W        W15057  17.907   3.965   2.456
42633W        W15058  42.030  26.735   4.246
42634W        W15059  32.132  26.498   4.158
42635W        W15060  34.480   3.657   3.764
42636W        W15061  39.289  26.619  13.926
42637W        W15062  35.532  29.731  13.124
42638W        W15063  43.873   5.372  10.891
42639W        W15064  28.431  25.739  11.841
42640W        W15065  20.560  15.349  13.059
42641W        W15066  24.788  13.898   1.826
42642W        W15067  20.518  23.897  14.336
42643W        W15068  36.086  44.877  11.500
42644W        W15069  15.122  10.292  11.937
42645W        W15070  44.198  13.819  14.412
42646W        W15071  36.004  21.635   4.895
42647W        W15072  32.481   7.697  11.743
42648W        W15073   3.992  16.219  10.729
42649W        W15074  40.494  44.379   0.260
42650W        W15075   3.658   5.322   4.945
42651W        W15076   9.100  42.307   3.214
42652W        W15077  21.592  14.509   4.184
42653W        W15078  24.606   3.319  14.316
42654W        W15079   7.621   8.949   2.820
42655W        W15080   9.853  25.380   4.893
42656W        W15081  25.762  32.578   1.919
42657W        W15082  39.087   3.715   0.293
42658W        W15083  16.280  27.554   4.504
42659W        W15084  42.533  15.785   1.245
42660W        W15085  10.259  19.858  14.954
42661W        W15086  35.479  22.766   3.179
42662W        W15087  32.624  19.831  12.473
42663W        W15088  38.332  19.253  13.907
42664W        W15089   7.872  27.472   2.001
42665W        W15090   1.797  10.256  14.991
42666W        W15091  35.442  25.488  12.989
42667W        W15092  35.119   7.060  14.458
42668W        W15093  19.681  28.212  13.103
42669W        W15094  40.538  23.173  14.842
42670W        W15095   7.869  43.194   3.195
42671W        W15096  29.149  21.703   3.679
42672W        W15097   7.764  35.009  14.063
42673W        W15098  35.887  38.812  12.695
42674W        W15099  34.615  11.352  13.467
42675W        W15100  35.405  41.631   2.854
42676W        W15101  30.588   6.646  14.007
42677W        W15102  39.105  42.553   2.787
42678W        W15103  36.464  24.711  11.675
42679W        W15104  14.842   6.672  11.613
42680W        W15105   0.226  28.420   1.911
42681W        W15106   5.572  38.397  14.905
42682W        W15107  15.781  36.142   2.626
42683W        W15108  30.506  19.865  13.875
42684W        W15109  18.246  36.444   4.883
42685W        W15110   1.955  34.554   1.129
42686W        W15111  26.033   6.630   1.579
42687W        W15112  18.723  30.665  13.037
42688W        W15113  27.675  10.499  12.052
42689W        W15114  25.130   1.298  12.891
42690W        W15115  19.743  33.544  12.964
42691W        W15116  19.196   6.817  10.456
42692W        W15117  20.019  30.187  12.911
42693W        W15118   2.287  43.467   1.202
42694W        W15119  39.305  29.507   0.389
42695W        W15120   9.290  31.078  14.092
42696W        W15121  27.972  18.513  14.839
42697W        W15122  40.004  34.265  10.728
42698W        W15123  43.770  27.074   4.760
42699W        W15124  19.314  11.119   0.377
42700W        W15125  26.790   6.128   4.213
42701W        W15126  14.637  22.994  14.966
42702W        W15127  18.073  25.762  11.048
42703W        W15128  22.146  31.436   0.667
42704W        W15129  14.325  31.086  14.269
42705W        W15130  26.254   8.758  11.902
42706W        W15131  10.112  38.068  11.702
42707W        W15132  39.356  21.764   4.984
42708W        W15133  11.624  22.080   5.287
42709W        W15134  33.093  43.589  13.187
42710W        W15135  19.864  36.068   4.133
42711W        W15136  21.997  34.833   4.178
42712W        W15137  38.326  34.368  13.360
42713W        W15138  28.126  22.277   2.456
42714W        W15139  30.180  18.913  11.127
42715W        W15140   2.123  36.778   2.853
42716W        W15141  16.607  29.557   0.720
42717W        W15142  21.999  44.019   0.779
42718W        W15143   9.410  38.376  11.973
42719W        W15144  44.289  32.804   2.288
42720W        W15145  32.379  27.945   4.196
42721W        W15146  40.023  43.846   1.893
42722W        W15147  33.317  12.085  12.052
42723W        W15148  32.787  44.180  11.546
42724W        W15149  20.586   4.073  14.936
42725W        W15150  36.648   7.734   1.235
42726W        W15151  40.786  37.610   4.256
42727W        W15152  36.344   8.332  14.044
42728W        W15153  37.487  27.334  11.978
42729W        W15154  28.219  27.653   4.591
42730W        W15155  17.267  40.062  12.820
42731W        W15156  13.479  23.671   5.549
42732W        W15157  20.300  44.313  14.256
42733W        W15158  37.018   4.999   0.407
42734W        W15159   8.754  35.503   4.502
42735W        W15160   8.220  41.488  14.228
42736W        W15161  23.226   5.852   0.294
42737W        W15162  29.449  24.732  12.613
42738W        W15163  16.341  41.849  11.492
42739W        W15164  35.700   9.803   1.854
42740W        W15165  10.176  19.062   0.386
42741W        W15166  23.227  10.779   3.564
42742W        W15167  26.568  34.887  11.416
42743W        W15168  10.093  13.132   1.855
42744W        W15169  24.199  19.750   0.928
42745W        W15170  42.872  32.288  11.946
42746W        W15171  25.210  44.222  12.593
42747W        W15172  17.569  28.004   2.436
42748W        W15173  14.693  38.534   2.275
42749W        W15174   7.284  36.856   2.970
42750W        W15175   0.352   7.933   4.512
42751W        W15176  35.430  43.535   2.824
42752W        W15177  33.120  22.689   1.040
42753W        W15178  36.010  10.946   1.002
42754W        W15179   1.714  28.979  10.921
42755W        W15180  29.888  22.763  12.478
42756W        W15181  15.218  28.394   1.670
42757W        W15182  39.977   8.383   4.121
42758W        W15183  29.021  17.072   3.195
42759W        W15184  43.767   0.673   3.362
42760W        W15185  14.339  19.996   4.349
42761W        W15186  32.924  31.344   4.828
42762W        W15187  17.326   8.882   3.120
42763W        W15188  42.789  40.889  13.102
42764W        W15189   4.897  20.629   3.754
42765W        W15190   5.029  14.967  14.004
42766W        W15191  14.155  32.881   4.113
42767W        W15192  44.945  31.607   2.338
42768W        W15193  10.745   7.342   2.856
42769W        W15194  22.627  21.543   1.508
42770W        W15195  38.551  32.346  13.258
42771W        W15196  13.273  24.889  13.004
42772W        W15197  43.855  19.630   3.612
42773W        W15198  17.475  22.885  12.631
42774W        W15199  13.591  33.156   2.342
42775W        W15200  28.070  15.781   1.055
42776W        W15201  27.478  13.865  12.556
42777W        W15202  42.347  20.234   4.250
42778W        W15203  19.063   3.039   1.742
42779W        W15204  12.627  11.352  11.692
42780W        W15205   3.292  10.246   0.450
42781W        W15206  13.101  29.666   1.901
42782W        W15207  40.475  19.022   4.864
42783W        W15208   7.221  19.616   1.742
42784W        W15209   3.773  42.403   0.351
42785W        W15210  27.185  22.329   4.795
42786W        W15211  14.643  11.358   0.293
42787W        W15212   8.741   7.383   3.218
42788W        W15213  23.033  41.012  11.112
42789W        W15214  12.613  42.259   2.458
42790W        W15215   8.032  25.582  10.709
42791W        W15216  39.776   4.310  10.649
42792W        W15217  10.602  41.565  10.705
42793W        W15218   8.338  37.463  10.753
42794W        W15219   0.661  41.974   1.526
42795W        W15220  20.606   6.895  10.610
42796W        W15221  40.104   8.153   3.214
42797W        W15222   0.821  27.430   1.298
42798W        W15223  20.633  44.594   1.898
42799W        W15224  42.577  38.460  11.104
42800W        W15225   4.527   3.126  11.633
42801W        W15226  44.601  33.392   3.141
42802W        W15227  31.602  30.563  11.905
42803W        W15228  32.743   6.811  12.703
42804W        W15229  18.480  24.598   1.212
42805W        W15230  26.298  43.511  11.655
42806W        W15231  21.821  32.589   4.491
42807W        W15232   0.256   6.234   0.865
42808W        W15233   4.780  15.745  14.492
42809W        W15234  27.053  39.447  12.844
42810W        W15235   8.762  36.355   1.902
42811W        W15236  35.141   5.288  12.997
42812W        W15237  10.244   3.364  10.854
42813W        W15238  32.941  39.811   4.555
42814W        W15239  22.741  28.178   1.779
42815W        W15240  26.865  12.573   3.168
42816W        W15241  39.025  18.231  14.239
42817W        W15242  32.489  38.588  12.550
42818W        W15243   3.807  37.113  11.886
42819W        W15244  27.506  33.885  10.567
42820W        W15245   0.263  10.198   3.182
42821W        W15246   8.884  29.100   2.562
42822W        W15247   7.409  29.489  11.579
42823W        W15248  21.113  17.162   0.247
42824W        W15249  38.106   0.238  14.469
42825W        W15250  31.959  40.071  12.994
42826W        W15251  39.252  34.631  11.002
42827W        W15252  30.856  23.451   0.514
42828W        W15253  38.838  35.809  13.437
42829W        W15254   9.851  15.145  12.566
42830W        W15255  33.640  18.469   0.487
42831W        W15256  13.559  15.712  10.602
42832W        W15257  38.481   5.768   3.296
42833W        W15258  13.602  15.827  11.453
42834W        W15259   8.883  11.626  11.874
42835W        W15260  10.892  13.304  10.759
42836W        W15261  17.766  10.618  11.422
42837W        W15262  42.374   1.935   1.751
42838W        W15263  36.903  40.007   3.760
42839W        W15264  36.647  43.013  13.923
42840W        W15265  14.829  19.449  13.516
42841W        W15266  26.512  41.606  14.865
42842W        W15267  19.937  38.320  13.992
42843W        W15268  18.294   7.353   0.678
42844W        W15269  12.749   1.501  10.224
42845W        W15270  14.308  41.664   2.993
42846W        W15271  21.508  10.412   2.360
42847W        W15272  21.208  35.918   0.386
42848W        W15273  43.046  37.931   0.737
42849W        W15274  32.422   9.354   4.880
42850W        W15275   2.637  38.738  12.108
42851W        W15276  38.932  34.627  14.832
42852W        W15277  23.596   5.952  13.060
42853W        W15278   2.486  30.263  10.619
42854W        W15279  29.136   4.941   3.575
42855W        W15280   2.769   3.168  12.222
42856W        W15281  29.861  19.755  14.563
42857W        W15282  31.731  18.204   2.490
42858W        W15283  29.845  32.543  12.245
42859W        W15284  21.695  27.972   2.782
42860W        W15285   2.963  13.788  11.100
42861W        W15286  11.622   4.486   1.889
42862W        W15287  15.147  42.299  14.332
42863W        W15288  41.141   3.698   2.702
42864W        W15289   8.660  18.119   0.868
42865W        W15290  32.081   2.693   1.977
42866W        W15291   9.936  40.024  12.005
42867W        W15292  10.868  12.770   0.781
42868W        W15293   4.088   6.914   0.887
42869W        W15294  39.783  30.402  12.956
42870W        W15295  14.949  37.156   0.320
42871W        W15296  13.385  37.081  14.988
42872W        W15297  31.025   3.731   1.351
42873W        W15298  12.737  17.080  13.517
42874W        W15299  10.098  37.338   0.260
42875W        W15300  34.331  13.661  14.875
42876W        W15301  24.134  19.598   3.508
42877W        W15302  38.837  16.383  10.854
42878W        W15303   5.919   7.928   1.169
42879W        W15304  10.173   2.668   0.108
42880W        W15305  33.179  32.530  11.535
42881W        W15306  35.327  13.847  12.535
42882W        W15307  28.671  44.101  12.373
42883W        W15308  36.947  29.444  11.454
42884W        W15309  34.970  25.091   1.874
42885W        W15310  39.309  11.424  11.168
42886W        W15311  23.022   9.282   0.388
42887W        W15312  19.748  40.395   1.456
42888W        W15313  29.901  31.004   0.316
42889W        W15314  35.541  30.687   2.484
42890W        W15315  22.794  20.661   3.330
42891W        W15316  12.313   6.202   3.858
42892W        W15317  25.750   8.983   3.310
42893W        W15318  15.874   3.082  13.355
42894W        W15319   8.625   3.895   3.134
42895W        W15320  10.299  13.179  13.793
42896W        W15321  12.944  30.893   5.063
42897W        W15322  14.884   5.770   2.239
42898W        W15323  15.805  13.396  14.800
42899W        W15324  31.887  16.386   1.698
42900W        W15325  42.776  19.394  13.485
42901W        W15326  37.382  21.932  12.465
42902W        W15327   6.354  32.632   2.699
42903W        W15328  19.013  39.899   1.208
42904W        W15329  40.337   9.150   0.972
42905W        W15330  15.472  26.522   0.707
42906W        W15331   4.500  16.693  10.201
42907W        W15332  29.333  10.520  11.213
42908W        W15333  17.094  32.392   4.652
42909W        W15334  40.102  38.962   4.151
42910W        W15335  36.418  23.433  12.083
42911W        W15336  29.461  22.235  11.100
42912W        W15337   8.913  33.119   5.118
42913W        W15338  43.040  13.618  13.715
42914W        W15339  20.066  12.111   1.396
42915W        W15340  16.103  14.116   0.849
42916W        W15341   0.079   9.225   4.817
42917W        W15342  14.376  34.367   3.084
42918W        W15343  31.120  10.527   3.705
42919W        W15344  31.656  18.796  11.134
42920W        W15345  44.287  39.184  10.082
42921W        W15346  14.895  16.546  11.077
42922W        W15347  23.549  42.964  13.380
42923W        W15348  38.068  37.960  14.887
42924W        W15349   4.936  40.491  13.341
42925W        W15350  18.169  30.882  14.355
42926W        W15351  22.700  30.513   2.363
42927W        W15352  40.839  42.844   0.895
42928W        W15353  39.085   1.969   4.049
42929W        W15354  35.603  32.679   1.282
42930W        W15355  19.360  36.107   0.015
42931W        W15356  35.536   7.442   3.283
42932W        W15357  36.525   9.663   2.423
42933W        W15358  25.754  11.227   3.084
42934W        W15359   0.806  34.069  13.913
42935W        W15360   3.999  29.899   4.743
42936W        W15361   6.431  33.367  12.165
42937W        W15362   0.016  13.051  10.757
42938W        W15363  39.070  16.733   1.620
42939W        W15364   6.762  43.288  13.541
42940W        W15365  24.685  20.443   3.174
42941W        W15366  39.678  34.201   4.132
42942W        W15367  37.283  42.655   0.906
42943W        W15368  44.328   5.364  14.398
42944W        W15369  35.817   5.315   0.059
42945W        W15370   4.253  18.260   1.936
42946W        W15371  18.545  14.694   4.043
42947W        W15372  19.503  38.293  10.905
42948W        W15373  21.089  31.068  14.383
42949W        W15374  27.073  21.493  13.255
42950W        W15375  31.999   4.420  11.842
42951W        W15376  22.601  29.494   3.285
42952W        W15377  10.855  38.359   0.499
42953W        W15378   4.461  22.217   1.179
42954W        W15379  35.109  33.533   0.895
42955W        W15380  35.063  14.885  13.127
42956W        W15381  41.815  21.978   3.560
42957W        W15382  37.554  39.772  11.582
42958W        W15383  23.255  25.189  14.391
42959W        W15384  30.967  38.311   3.830
42960W        W15385  13.853   4.536   4.854
42961W        W15386   5.799   4.424  10.603
42962W        W15387  40.437  13.407   1.726
42963W        W15388  24.550   9.855  12.440
42964W        W15389  22.244  41.543   3.245
42965W        W15390  24.541  16.300  14.541
42966W        W15391  36.142  31.047  11.140
42967W        W15392  34.676  30.064   0.804
42968W        W15393  35.428   8.977  12.466
42969W        W15394  41.907  36.350  10.542
42970W        W15395  18.696  37.123  13.429
42971W        W15396   2.629   1.004   4.992
42972W        W15397  37.908   0.457   2.269
42973W        W15398   5.331   8.237  13.465
42974W        W15399   8.240  41.720  13.766
42975W        W15400   0.888  35.057   0.396
42976W        W15401  41.938  33.812   2.113
42977W        W15402  14.335  35.797  11.475
42978W        W15403  21.996   4.402  12.961
42979W        W15404  35.723  17.306   0.217
42980W        W15405  13.341  24.455  13.836
42981W        W15406  41.520  42.745   3.659
42982W        W15407  33.887  17.411  12.083
42983W        W15408  38.462   0.067  14.872
42984W        W15409  26.448  10.811   1.402
42985W        W15410  40.899  42.022  11.914
42986W        W15411  43.391  19.768   4.868
42987W        W15412  29.160  36.014  12.799
42988W        W15413   3.872  35.675   3.132
42989W        W15414  19.352  34.455   2.771
42990W        W15415  29.039  13.033  11.454
42991W        W15416  30.087   4.630   1.839
42992W        W15417  18.731  26.072   2.354
42993W        W15418  20.051  10.160   0.924
42994W        W15419  18.631  11.403  13.836
42995W        W15420  21.747   2.474   3.233
42996W        W15421  11.694  40.486  14.321
42997W        W15422   3.549  12.794   1.696
42998W        W15423  30.211  29.089  13.563
42999W        W15424  36.188  34.988   1.191
43000W        W15425  38.479  14.856  14.949
43001W        W15426  15.109  26.891   0.161
43002W        W15427  41.297  18.503   1.201
43003W        W15428  32.656  22.748  13.000
43004W        W15429  33.221   3.773   4.137
43005W        W15430  30.818  38.953   2.770
43006W        W15431   9.873  17.112  10.988
43007W        W15432  37.073  17.849   1.516
43008W        W15433   3.639  25.379   5.035
43009W        W15434   4.203  39.256   1.810
43010W        W15435   7.347  26.688  12.887
43011W        W15436  34.570   7.857  10.237
43012W        W15437  22.992  16.013   2.084
43013W        W15438  23.794   9.481  11.706
43014W        W15439  24.510  26.121  12.921
43015W        W15440  16.639  15.412   2.649
43016W        W15441  36.894   7.155  13.331
43017W        W15442  36.497  15.951   3.623
43018W        W15443  20.731  21.247  10.629
43019W        W15444  42.903  27.888  13.980
43020W        W15445  13.742  32.954  10.711
43021W        W15446   2.003  29.071   3.169
43022W        W15447  36.404  28.982   3.312
43023W        W15448  34.184  15.304  13.063
43024W        W15449  32.715  16.637  11.122
43025W        W15450   7.348  23.290  13.036
43026W        W15451   4.000  28.351  11.062
43027W        W15452  13.378  44.091   2.658
43028W        W15453  41.538   7.794   1.759
43029W        W15454   4.978   3.349   0.567
43030W        W15455  27.602  14.799  10.439
43031W        W15456  10.800  16.315   4.607
43032W        W15457  36.847  33.926  10.563
43033W        W15458  26.709  22.662   2.273
43034W        W15459  24.096  26.447   4.120
43035W        W15460  21.584  11.718  13.099
43036W        W15461  36.178   9.987   1.773
43037W        W15462  16.576  17.189  13.407
43038W        W15463  33.464  15.784   0.835
43039W        W15464  29.905   9.444   2.600
43040W        W15465   3.016  32.692   3.230
43041W        W15466  17.026  27.013  12.218
43042W        W15467  40.283  18.105   9.972
43043W        W15468  37.097  38.439   4.742
43044W        W15469  17.078  22.045  11.110
43045W        W15470   1.317  40.875   2.525
43046W        W15471  25.208   4.906   0.460
43047W        W15472   5.106  31.343   1.906
43048W        W15473  17.764   0.308  11.988
43049W        W15474  36.077  22.611   0.957
43050W        W15475   8.952   8.579   4.493
43051W        W15476  10.849   1.637  14.764
43052W        W15477  27.251  18.609  12.484
43053W        W15478  25.503  32.921   3.808
43054W        W15479  34.640  38.818  12.370
43055W        W15480  22.051   8.462  12.533
43056W        W15481  12.215  22.593  12.398
43057W        W15482  43.281  20.986   0.226
43058W        W15483  16.871  42.861  12.016
43059W        W15484  38.569   0.036  12.482
43060W        W15485  13.342  17.294  12.025
43061W        W15486  10.483  17.058   0.835
43062W        W15487   0.391  24.663  10.685
43063W        W15488  28.101  27.489   4.127
43064W        W15489   8.903   9.350  12.399
43065W        W15490   2.537  31.179  12.156
43066W        W15491  36.977  24.694  13.852
43067W        W15492   2.730   4.393   0.441
43068W        W15493  36.889  10.741  11.965
43069W        W15494  26.985  36.699  12.477
43070W        W15495  22.465   7.149  11.827
43071W        W15496  29.644  40.829   4.270
43072W        W15497  24.130  40.219   3.659
43073W        W15498  10.640  10.662   1.472
43074W        W15499  10.124  39.530   0.187
43075W        W15500  18.255   1.347   2.168
43076W        W15501   1.195   1.920   0.948
43077W        W15502  42.062  33.724  14.321
43078W        W15503  44.325   7.973  11.594
43079W        W15504  43.887  32.129  10.625
43080W        W15505  31.318  39.934   3.755
43081W        W15506  33.530   5.834  14.192
43082W        W15507  38.053   9.251   0.246
43083W        W15508   6.802  25.899   3.810
43084W        W15509   4.250  38.408   3.260
43085W        W15510  13.332  27.954  13.931
43086W        W15511  19.709   1.662   3.759
43087W        W15512  14.040   6.259   2.404
43088W        W15513  16.161   9.789   1.156
43089W        W15514   7.393   9.787  12.984
43090W        W15515  22.012   4.506   3.665
43091W        W15516   4.046  43.367   2.309
43092W        W15517   8.781   4.141   2.658
43093W        W15518  44.893   7.962   4.795
43094W        W15519  16.616  18.093  12.062
43095W        W15520  22.034  20.253  12.058
43096W        W15521   5.608   0.436   1.587
43097W        W15522  20.610  28.950   0.707
43098W        W15523   9.592  10.707   2.437
43099W        W15524  44.242  17.083   1.317
43100W        W15525  39.538   6.195  12.906
43101W        W15526  16.305  41.452  14.637
43102W        W15527  37.288  25.110  14.351
43103W        W15528  25.479  23.108   4.367
43104W        W15529  29.054  10.238   0.857
43105W        W15530  28.211  36.059  10.675
43106W        W15531  14.333  19.488  13.298
43107W        W15532   8.725   2.872  11.877
43108W        W15533  21.996  22.033  13.959
43109W        W15534  22.574  19.445   1.332
43110W        W15535  18.489   8.993  13.413
43111W        W15536  29.703  41.950  13.084
43112W        W15537  34.295  13.338   0.330
43113W        W15538  11.182  27.220   0.729
43114W        W15539  43.238   4.289   3.215
43115W        W15540   0.448  12.371  13.989
43116W        W15541  41.513  15.760  13.890
43117W        W15542  26.177  41.360   1.022
43118W        W15543   9.644  36.937   2.811
43119W        W15544   5.775  14.042  14.991
43120W        W15545  20.702  40.731   2.185
43121W        W15546  44.961  23.264   0.743
43122W        W15547   6.858  25.815   4.338
43123W        W15548  28.157  28.429   2.339
43124W        W15549  19.863   5.905  10.953
43125W        W15550   7.733  41.766   0.859
43126W        W15551   7.161  41.815   2.760
43127W        W15552  34.920  42.093   0.104
43128W        W15553  15.434   0.319  12.987
43129W        W15554  20.557   9.833   1.285
43130W        W15555   7.330  11.264   1.712
43131W        W15556  36.584  23.905  12.013
43132W        W15557  31.084   1.768   3.889
43133W        W15558  14.284  15.559  11.042
43134W        W15559   7.397   9.190  13.446
43135W        W15560  10.338  36.912   0.488
43136W        W15561  27.333   9.121   1.736
43137W        W15562  28.382  27.015   0.264
43138W        W15563  15.727   7.163  14.969
43139W        W15564  34.432   3.753   2.832
43140W        W15565   7.172   5.469  13.089
43141W        W15566  10.369  14.313  12.794
43142W        W15567   0.469  23.315   0.225
43143W        W15568  10.285  21.072   1.498
43144W        W15569   7.514  15.371   4.162
43145W        W15570  26.063  37.104   1.320
43146W        W15571  28.959  10.412   2.000
43147W        W15572  41.055   7.466  13.501
43148W        W15573  15.578  25.387   1.753
43149W        W15574  22.715  29.474  11.113
43150W        W15575   1.529  44.716   2.427
43151W        W15576  40.107  34.661   3.498
43152W        W15577  43.284  10.766   1.295
43153W        W15578  32.703  37.502   5.096
43154W        W15579  10.300  24.610   4.158
43155W        W15580  44.095  19.938  10.129
43156W        W15581  10.108  24.508   0.652
43157W        W15582  20.716  19.063   2.168
43158W        W15583   6.860  38.247  11.783
43159W        W15584  13.689  17.682  12.913
43160W        W15585  11.647  19.604   9.952
43161W        W15586  20.695  41.911  11.924
43162W        W15587   9.691  25.711  14.005
43163W        W15588  36.546  20.539  13.828
43164W        W15589  32.474  34.208  11.985
43165W        W15590  21.024  31.201   3.912
43166W        W15591  41.963   6.284  14.382
43167W        W15592  20.812  44.374  11.208
43168W        W15593   1.317  27.976   4.202
43169W        W15594   8.300  26.227  10.800
43170W        W15595   9.115  44.075   3.362
43171W        W15596  19.375  38.049  12.763
43172W        W15597   5.342  32.162  13.928
43173W        W15598  12.571  22.426   9.946
43174W        W15599  21.343   6.984  13.485
43175W        W15600  29.776  24.147   1.720
43176W        W15601  38.923  31.363  11.346
43177W        W15602   4.671  23.989   0.337
43178W        W15603  36.805  16.646  12.556
43179W        W15604  31.177   6.256   2.297
43180W        W15605  13.667  40.377  11.094
43181W        W15606  19.599  43.783  14.347
43182W        W15607  29.408  43.349  11.825
43183W        W15608  17.157  17.607  12.747
43184W        W15609  20.241  15.520  12.449
43185W        W15610  42.621  12.657   0.479
43186W        W15611   3.313  22.017   1.823
43187W        W15612  31.421  25.014   1.401
43188W        W15613   8.791  20.049  13.890
43189W        W15614  40.656  19.184   4.019
43190W        W15615  38.365  11.845  10.399
43191W        W15616   7.509  35.375  10.728
43192W        W15617   8.317  22.031  10.767
43193W        W15618   3.360  32.796  12.042
43194W        W15619  24.546   2.553  13.550
43195W        W15620  39.124  21.838  14.267
43196W        W15621  38.919  14.165   1.712
43197W        W15622  31.058  34.106   0.985
43198W        W15623  24.668   5.645   2.332
43199W        W15624   5.791  37.088   1.301
43200W        W15625   0.905  19.669   4.168
43201W        W15626  30.461  43.765   4.620
43202W        W15627  15.363  14.169   3.157
43203W        W15628  19.999   4.525  12.375
43204W        W15629  30.472  14.705   3.349
43205W        W15630  29.457   2.873  12.309
43206W        W15631  10.575  33.242  13.213
43207W        W15632  30.034  19.510  12.867
43208W        W15633   1.677  12.123  11.613
43209W        W15634  38.401  15.719   2.333
43210W        W15635   0.524  16.531   3.835
43211W        W15636  21.565   8.087  14.815
43212W        W15637  12.588  23.145  11.038
43213W        W15638  43.776  37.861   2.453
43214W        W15639   0.327  39.511   2.257
43215W        W15640  39.079  12.237  11.444
43216W        W15641  38.370  18.306   4.485
43217W        W15642   6.254   5.097  13.265
43218W        W15643  40.297   7.292  12.514
43219W        W15644  42.341   3.286  14.956
43220W        W15645  44.375  36.961  13.447
43221W        W15646  24.896  15.859   1.908
43222W        W15647   8.412   2.770   3.635
43223W        W15648  42.308  30.864   2.926
43224W        W15649   4.836  36.493  11.509
43225W        W15650  29.659   5.362   2.791
43226W        W15651  30.593   8.919   3.592
43227W        W15652  28.521   7.779   0.853
43228W        W15653  17.273  13.089   3.241
43229W        W15654  11.171  16.763   0.389
43230W        W15655  43.736  31.467  12.253
43231W        W15656  10.842  24.339   2.299
43232W        W15657  31.422  13.274  12.937
43233W        W15658  24.931  35.982   1.405
43234W        W15659  11.908   9.727   1.390
43235W        W15660  35.165   6.751  11.207
43236W        W15661   9.118  30.491  13.803
43237W        W15662  27.411   9.142  12.078
43238W        W15663   6.880  21.217  13.409
43239W        W15664  12.937  13.654   3.563
43240W        W15665  26.991  34.839   1.919
43241W        W15666  11.665  11.345   4.056
43242W        W15667   2.896  25.754   2.972
43243W        W15668   3.242  10.360  14.941
43244W        W15669  14.512  43.961   1.606
43245W        W15670  18.252  38.239   3.215
43246W        W15671   2.909  25.790  14.310
43247W        W15672  13.625   1.709  12.948
43248W        W15673  22.119  40.290  12.354
43249W        W15674  32.783   6.209   2.956
43250W        W15675   5.905  10.837   0.537
43251W        W15676  39.841  27.099   1.566
43252W        W15677  18.544  21.692  12.641
43253W        W15678  30.591  12.717   2.723
43254W        W15679  26.716  37.593  11.227
43255W        W15680  20.595  10.441   0.322
43256W        W15681   9.202   0.253  14.906
43257W        W15682  20.662  28.479  13.378
43258W        W15683  44.139   7.114   0.763
43259W        W15684   3.010  18.587   1.212
43260W        W15685  15.798  32.956   4.178
43261W        W15686  28.648  28.044  12.090
43262W        W15687  21.557  17.585  13.941
43263W        W15688  27.434  40.497  11.046
43264W        W15689  21.954  43.019  10.620
43265W        W15690  40.023  17.843  10.690
43266W        W15691  28.981   0.713  13.252
43267W        W15692  30.106  17.081   1.823
43268W        W15693  30.894  34.408  11.893
43269W        W15694  18.917  29.112   2.184
43270W        W15695   2.399  32.081  14.887
43271W        W15696  15.380  21.696  13.569
43272W        W15697   4.374  13.545  12.135
43273W        W15698   7.918   3.985  13.821
43274W        W15699   5.678  27.594  13.785
43275W        W15700   5.846  35.473   0.412
43276W        W15701  14.690  40.873  10.567
43277W        W15702  41.948   3.274   3.216
43278W        W15703  10.322  15.294  12.354
43279W        W15704  20.307  30.896  14.787
43280W        W15705  42.047   1.903   2.571
43281W        W15706  44.253  35.015   1.476
43282W        W15707  24.596  19.504  10.734
43283W        W15708  13.133  13.537   4.357
43284W        W15709  32.986   1.747   3.770
43285W        W15710   7.900  28.731   2.848
43286W        W15711  15.249   5.892   1.825
43287W        W15712  39.435   8.081  14.340
43288W        W15713  21.501  31.517  11.073
43289W        W15714  37.998   5.335   1.724
43290W        W15715  24.480  12.190   0.406
43291W        W15716  22.817  28.510  11.686
43292W        W15717  42.279  36.601   2.827
43293W        W15718  17.571  21.226  11.360
43294W        W15719  24.955  19.458  13.392
43295W        W15720  28.641   1.759  14.106
43296W        W15721   1.923  43.278  13.415
43297W        W15722  42.693  13.219  12.082
43298W        W15723  11.401   9.382  11.144
43299W        W15724   9.666  32.010  14.903
43300W        W15725  31.417  19.975   4.791
43301W        W15726  34.935   1.111   3.639
43302W        W15727  41.704   5.890   3.093
43303W        W15728  18.649   4.111   1.454
43304W        W15729  39.351  41.520  11.945
43305W        W15730   3.851  22.472  12.569
43306W        W15731  22.980   0.948  14.049
43307W        W15732  20.841  36.747   3.306
43308W        W15733  11.793  31.922   5.060
43309W        W15734  36.828  43.029   3.860
43310W        W15735   3.742  43.458  11.972
43311W        W15736  25.931  18.718  11.559
43312W        W15737  14.622  33.605  14.956
43313W        W15738  21.759   5.764   3.694
43314W        W15739   4.295  13.612  14.434
43315W        W15740  40.458  27.170  11.355
43316W        W15741   3.719   2.448   0.345
43317W        W15742  21.453  38.194   4.629
43318W        W15743   7.553  10.262   4.614
43319W        W15744  28.225  18.907   1.206
43320W        W15745   1.690  27.875   2.307
43321W        W15746   8.171  27.121  12.823
43322W        W15747   7.799  37.560  10.578
43323W        W15748  13.684   3.237   2.244
43324W        W15749   9.197  17.110  10.639
43325W        W15750  27.463  32.399   2.469
43326W        W15751  36.576  17.647  11.102
43327W        W15752   1.009  15.352  13.264
43328W        W15753  32.786  42.702   2.900
43329W        W15754  17.322  29.727  11.120
43330W        W15755  16.216   7.732  10.507
43331W        W15756   9.812  25.873  11.226
43332W        W15757  28.962  30.113  10.594
43333W        W15758   4.272  42.586  11.958
43334W        W15759  11.345   9.325   3.252
43335W        W15760  36.364  30.729   3.462
43336W        W15761  44.736  24.605  13.664
43337W        W15762  28.247  22.400  14.871
43338W        W15763  23.695  42.099  11.665
43339W        W15764  40.904  24.682   0.488
43340W        W15765  26.117  12.063  12.393
43341W        W15766  17.195  21.001  12.960
43342W        W15767  30.157  38.094   1.822
43343W        W15768  39.564  42.828  13.354
43344W        W15769  40.382  35.439   4.343
43345W        W15770  22.141   2.148   3.267
43346W        W15771   2.563  36.170   3.313
43347W        W15772  41.561  44.494   1.363
43348W        W15773  12.186  25.591   0.720
43349W        W15774   1.276  29.747   2.409
43350W        W15775  18.516  34.613   1.270
43351W        W15776  26.568  31.551   4.999
43352W        W15777  26.749  31.563   2.128
43353W        W15778   1.087  26.603  13.128
43354W        W15779   9.633   9.714  14.960
43355W        W15780  35.100  42.767  12.648
43356W        W15781  43.030  35.525  11.181
43357W        W15782  28.506  21.616   0.456
43358W        W15783   6.215  33.082   2.412
43359W        W15784   0.749   1.788   4.370
43360W        W15785   5.881  11.748  14.559
43361W        W15786   6.125  42.731  11.209
43362W        W15787  25.961  36.512  12.484
43363W        W15788  37.118   1.933   3.145
43364W        W15789  39.288  22.767   4.600
43365W        W15790   9.506  38.585  11.392
43366W        W15791  11.402   7.159  10.378
43367W        W15792  33.583  28.732   0.368
43368W        W15793  24.704  18.144  14.368
43369W        W15794  32.785  11.337   4.689
43370W        W15795  28.062  36.027  13.821
43371W        W15796  43.571   7.398   2.124
43372W        W15797  43.904  42.962   2.879
43373W        W15798  32.345  11.192   1.127
43374W        W15799   5.330   8.498   0.376
43375W        W15800  37.891  35.971   5.119
43376W        W15801  27.497  31.082  13.040
43377W        W15802  33.885  37.836   4.789
43378W        W15803  21.891  40.373   0.235
43379W        W15804  14.731  16.316  13.028
43380W        W15805  12.377  41.908   0.403
43381W        W15806  14.297  16.726   2.637
43382W        W15807  14.493  22.174   2.780
43383W        W15808  28.270  17.732  10.134
43384W        W15809  21.071  18.240  12.900
43385W        W15810  29.270  43.497  10.631
43386W        W15811  28.186   3.706  14.486
43387W        W15812  29.449   7.393   3.798
43388W        W15813  43.894  23.112  13.151
43389W        W15814   4.512  21.999  14.720
43390W        W15815   2.715  36.442   0.828
43391W        W15816  25.421  15.830  10.764
43392W        W15817  35.492  19.498  13.023
43393W        W15818  27.718  38.424   4.294
43394W        W15819  31.529   9.240   3.794
43395W        W15820  27.989   5.961  13.579
43396W        W15821  13.376  42.238   0.359
43397W        W15822  17.774  37.144   2.587
43398W        W15823  21.046  28.994  14.041
43399W        W15824  37.850  24.545  13.049
43400W        W15825   6.722   6.758   4.640
43401W        W15826  29.155   4.968   1.356
43402W        W15827  20.427  24.603  13.099
43403W        W15828   5.714  27.694   1.648
43404W        W15829   9.689  41.479   4.140
43405W        W15830  27.126  19.215   4.197
43406W        W15831  30.643  14.641  12.131
43407W        W15832  25.774  28.186   0.101
43408W        W15833  27.458  40.040  12.883
43409W        W15834  22.066   1.929   0.794
43410W        W15835  32.651  26.698  13.371
43411W        W15836  39.442   2.816   4.273
43412W        W15837  19.991  13.379   1.907
43413W        W15838   1.058  40.442   3.218
43414W        W15839  18.033  21.008  14.397
43415W        W15840  11.820  37.985   0.163
43416W        W15841  19.974   7.459  13.356
43417W        W15842  36.899  28.954   2.273
43418W        W15843  40.842  32.136   3.107
43419W        W15844  27.526  30.267  13.141
43420W        W15845  20.631  24.171   0.496
43421W        W15846  36.530   4.351  14.453
43422W        W15847  30.640  36.367  14.636
43423W        W15848  22.549   2.467   4.522
43424W        W15849  26.572  42.073  13.342
43425W        W15850   5.707  35.356   3.301
43426W        W15851  42.878   2.419  13.288
43427W        W15852  32.394  21.726  10.994
43428W        W15853  19.560  26.439   1.429
43429W        W15854  23.511  25.979   1.848
43430W        W15855  31.353  11.292   0.374
43431W        W15856  32.474   9.162  14.073
43432W        W15857  11.323  38.469  10.749
43433W        W15858  38.045  20.230   1.696
43434W        W15859  44.162   4.603  14.900
43435W        W15860  33.546  13.312   2.247
43436W        W15861  43.079  35.485  13.595
43437W        W15862   3.993  18.260  10.471
43438W        W15863  30.917  38.838   3.696
43439W        W15864  43.417  44.441  10.748
43440W        W15865   9.224  33.066  11.650
43441W        W15866  14.151  39.578   0.226
43442W        W15867  23.557  22.594   4.030
43443W        W15868  34.510   6.243  13.536
43444W        W15869  34.443  25.271  12.895
43445W        W15870  11.548  38.913  10.559
43446W        W15871  42.057  19.431   9.859
43447W        W15872  33.703  40.826   0.878
43448W        W15873  32.572   4.374  10.652
43449W        W15874  43.329  20.799  13.369
43450W        W15875  37.226  11.712  14.055
43451W        W15876  12.580  21.595   1.422
43452W        W15877  21.181  44.537   4.156
43453W        W15878  30.054  40.180  12.814
43454W        W15879  24.243   0.525  14.460
43455W        W15880  43.556  44.877  12.830
43456W        W15881   9.574   9.283   0.289
43457W        W15882   7.008  12.848   2.649
43458W        W15883  38.059  14.082   3.236
43459W        W15884   5.159  15.655   2.201
43460W        W15885  22.723   6.233  11.001
43461W        W15886  26.898  25.938  13.470
43462W        W15887  18.763  29.377  13.955
43463W        W15888   5.420  34.402  11.172
43464W        W15889  41.424  21.610   0.244
43465W        W15890  37.587  23.809   0.156
43466W        W15891   0.218   5.484   1.301
43467W        W15892  39.602   4.625  13.942
43468W        W15893  36.134  17.015   1.396
43469W        W15894   6.718  36.730  12.160
43470W        W15895  41.950  29.320   2.728
43471W        W15896  16.808  17.312   2.803
43472W        W15897   9.768  33.596   4.928
43473W        W15898  41.315   8.287  11.283
43474W        W15899  13.634   6.379   4.213
43475W        W15900  19.727   1.790   0.292
43476W        W15901   3.237  24.960   0.221
43477W        W15902  15.315  18.777   4.146
43478W        W15903  29.000  20.125   0.749
43479W        W15904   6.270  38.400   1.447
43480W        W15905  27.758   3.698   0.903
43481W        W15906  17.077  18.713  11.733
43482W        W15907  31.168   8.065   2.967
43483W        W15908   9.794  26.940  13.558
43484W        W15909  29.573  26.249  13.887
43485W        W15910   0.287   6.523   4.698
43486W        W15911  44.754  29.329   0.677
43487W        W15912  42.489  36.530   4.901
43488W        W15913  32.389  24.739   3.699
43489W        W15914  32.835  11.027  13.205
43490W        W15915  11.855  37.604  10.511
43491W        W15916   6.886   3.924   4.075
43492W        W15917  30.885  27.438   1.663
43493W        W15918  41.830   8.342  12.167
43494W        W15919  29.674  42.301  12.469
43495W        W15920  34.517  32.561   1.814
43496W        W15921  11.743  34.067   3.944
43497W        W15922  41.582  35.841  13.898
43498W        W15923  32.556   7.608   2.736
43499W        W15924  13.291  31.946  12.122
43500W        W15925   8.904  36.844  10.722
43501W        W15926   3.876  26.534   1.286
43502W        W15927  19.323  24.158  12.009
43503W        W15928  41.845  13.096  14.356
43504W        W15929  13.348   1.347   1.810
43505W        W15930  40.335  22.756   4.535
43506W        W15931  19.045   4.329  10.724
43507W        W15932  40.851  31.291   0.042
43508W        W15933  11.226  41.410  14.213
43509W        W15934   3.349  34.141   4.311
43510W        W15935  25.374  43.102   0.251
43511W        W15936  30.718  21.168  12.990
43512W        W15937  40.892   5.919  14.965
43513W        W15938  41.565  38.954   0.351
43514W        W15939   0.728   5.787  14.121
43515W        W15940   6.281  22.778  11.456
43516W        W15941  20.246  28.655   0.975
43517W        W15942  23.422  44.961  12.538
43518W        W15943  11.826  10.135   0.631
43519W        W15944  36.566   4.635   4.603
43520W        W15945  20.194  17.044   0.260
43521W        W15946  12.697  31.741   1.417
43522W        W15947  44.069  12.119  14.302
43523W        W15948  10.425   5.511   3.213
43524W        W15949  12.116  11.936   1.299
43525W        W15950  39.383  28.156   3.105
43526W        W15951  33.971  24.801   0.029
43527W        W15952  29.690   0.536   1.014
43528W        W15953  42.544  43.972  12.500
43529W        W15954  14.113  39.352  11.399
43530W        W15955  12.777  18.181  13.978
43531W        W15956  32.697  28.488  11.040
43532W        W15957  26.950   7.714   0.875
43533W        W15958   8.170  21.978   0.120
43534W        W15959  28.936  21.363  10.512
43535W        W15960  41.710  24.578  12.975
43536W        W15961   4.268  18.126   1.329
43537W        W15962  24.018  10.157   1.356
43538W        W15963  27.202  14.396  11.204
43539W        W15964  37.475  18.754   2.694
43540W        W15965  26.059  32.844   0.809
43541W        W15966  20.684  24.835  14.673
43542W        W15967  35.635  39.343  14.291
43543W        W15968  43.826  24.868  14.943
43544W        W15969  35.561   5.365   1.821
43545W        W15970  33.949  38.045  14.340
43546W        W15971  37.323  33.824   0.985
43547W        W15972  35.062  37.340   5.220
43548W        W15973  37.040  19.797  10.854
43549W        W15974  11.730  43.074   3.674
43550W        W15975  24.783  42.758  11.917
43551W        W15976  36.133  29.993  11.850
43552W        W15977  30.148  39.486   4.159
43553W        W15978   2.362  26.408  12.852
43554W        W15979   0.785  24.079   5.324
43555W        W15980  11.214  29.750  12.008
43556W        W15981  39.230  28.445  11.127
43557W        W15982  26.461  28.875   1.700
43558W        W15983  28.978  15.779   1.734
43559W        W15984  44.630   2.406  12.024
43560W        W15985  35.687  15.751  10.383
43561W        W15986  37.098  34.529  10.874
43562W        W15987  33.344   7.520  12.212
43563W        W15988  42.357  37.387   1.300
43564W        W15989   6.078  12.745   1.196
43565W        W15990  12.785  17.257   1.246
43566W        W15991   9.183  14.325  10.968
43567W        W15992  10.450  13.197  11.646
43568W        W15993   8.831   1.301   0.379
43569W        W15994  17.645  19.635   3.877
43570W        W15995  44.935  39.874   1.745
43571W        W15996  25.197  28.726  11.046
43572W        W15997  39.493   6.787  14.042
43573W        W15998  31.390  38.362   0.467
43574W        W15999   9.208   0.318   0.747
43575W        W16000  42.774  20.481   1.222
43576W        W16001   3.277   7.345  13.061
43577W        W16002   8.925  14.765  12.860
43578W        W16003  18.156  18.810  14.502
43579W        W16004  20.632  43.801   0.284
43580W        W16005  33.390  44.872  14.413
43581W        W16006  22.448  19.764  13.820
43582W        W16007  35.146  40.115   0.906
43583W        W16008  37.007  19.859   1.113
43584W        W16009  40.159  13.513  14.468
43585W        W16010   7.601  33.455   5.007
43586W        W16011  22.144  22.483   4.097
43587W        W16012  33.141  16.518  12.525
43588W        W16013  39.081  29.048  13.767
43589W        W16014  10.792  16.833   2.250
43590W        W16015  15.656  38.913   4.628
43591W        W16016  15.001  25.901   0.439
43592W        W16017  24.784   6.911  11.403
43593W        W16018   4.817  32.638   0.176
43594W        W16019  35.587  16.759  12.544
43595W        W16020  29.301  32.049   0.382
43596W        W16021  17.118   9.061   4.564
43597W        W16022   3.928  37.335  10.946
43598W        W16023  26.527   5.454  13.399
43599W        W16024  11.806  43.797   0.197
43600W        W16025  24.922  41.872  12.094
43601W        W16026  16.268  37.395   3.106
43602W        W16027  28.153   2.387   2.349
43603W        W16028  23.142  25.647   0.297
43604W        W16029  34.732  19.058  12.696
43605W        W16030   6.179  11.593   2.801
43606W        W16031  44.501  26.420  13.931
43607W        W16032   1.413  28.480   4.249
43608W        W16033  37.457  30.180  14.703
43609W        W16034  28.106  14.347  11.044
43610W        W16035   6.274  36.981   3.077
43611W        W16036  27.181   6.263   1.791
43612W        W16037  38.769  32.052  11.549
43613W        W16038  39.450  12.245  13.528
43614W        W16039  32.399   4.748   2.148
43615W        W16040  24.619   7.784   1.442
43616W        W16041  19.814  21.102  10.451
43617W        W16042  38.024  43.822  12.476
43618W        W16043   3.622   2.172  14.310
43619W        W16044  19.202  22.083   3.641
43620W        W16045  19.511   5.816   1.397
43621W        W16046   3.672   6.376   2.633
43622W        W16047  27.136   0.708   4.884
43623W        W16048  14.695   5.419   4.058
43624W        W16049  22.711  14.092  13.802
43625W        W16050  23.587  32.457  14.256
43626W        W16051  10.852  21.516   0.790
43627W        W16052  32.698  35.526   3.646
43628W        W16053  16.743  38.604  13.167
43629W        W16054   0.014  27.650  11.945
43630W        W16055   5.949  22.909   2.194
43631W        W16056   5.782  28.475  13.795
43632W        W16057  38.014   2.672   4.204
43633W        W16058  29.383  33.932  12.936
43634W        W16059   8.422  32.667   0.972
43635W        W16060  18.604  20.035  12.027
43636W        W16061  14.242  32.870   0.353
43637W        W16062   0.398  19.081   4.601
43638W        W16063  31.762  32.925   3.783
43639W        W16064  16.002  36.744   0.256
43640W        W16065   1.862  42.969   4.379
43641W        W16066  14.247  24.862  13.583
43642W        W16067  25.636  26.866  12.509
43643W        W16068  29.680  16.152  10.667
43644W        W16069   4.408  14.639  14.786
43645W        W16070  34.656   0.494  10.728
43646W        W16071  41.519  20.275  11.080
43647W        W16072  33.503   4.642  13.600
43648W        W16073  42.978   4.926   4.719
43649W        W16074  13.886  16.647  14.348
43650W        W16075  29.932  24.611  13.484
43651W        W16076  21.761  16.208  12.862
43652W        W16077  41.441   2.869  14.550
43653W        W16078  10.173   6.793  10.709
43654W        W16079   5.947   6.484   2.770
43655W        W16080  37.351  35.553  11.660
43656W        W16081   7.453  21.101   2.332
43657W        W16082  30.008  22.958  13.344
43658W        W16083  30.645  32.990  14.078
43659W        W16084  32.457   2.436   1.474
43660W        W16085   2.853  25.646  11.606
43661W        W16086  41.376  34.582  14.362
43662W        W16087  14.804  26.933  10.552
43663W        W16088   6.724  10.157   3.293
43664W        W16089  21.129  21.691   3.701
43665W        W16090  34.281   9.661  12.098
43666W        W16091  25.737   4.951   0.439
43667W        W16092   4.141  15.219  11.409
43668W        W16093  28.634  36.985  14.387
43669W        W16094  14.287  25.544  14.912
43670W        W16095  40.439   4.112   1.378
43671W        W16096  21.040  21.204   0.346
43672W        W16097  11.339  12.774   1.002
43673W        W16098   8.882  12.057   5.087
43674W        W16099  39.544  23.010  13.324
43675W        W16100  42.255   3.447  13.946
43676W        W16101  20.476  20.473   3.358
43677W        W16102   9.336  18.162   0.094
43678W        W16103  11.890  38.839   1.847
43679W        W16104  39.025  10.382   4.091
43680W        W16105  30.173  16.891  13.831
43681W        W16106  41.970  16.144  11.908
43682W        W16107  35.578  22.718  12.558
43683W        W16108   1.692  24.234  12.885
43684W        W16109   3.896  38.535   1.332
43685W        W16110  33.665  30.471  13.459
43686W        W16111  14.202  22.333   2.353
43687W        W16112   4.256  11.157  12.744
43688W        W16113  11.949  22.222  13.327
43689W        W16114  35.890  25.066   3.786
43690W        W16115  33.545  23.929  12.516
43691W        W16116  14.747  32.369   3.268
43692W        W16117  10.873   3.621   3.287
43693W        W16118  43.420  17.033  11.448
43694W        W16119  43.713  27.990  14.281
43695W        W16120  15.265   5.786  11.375
43696W        W16121  44.471  11.801   2.818
43697W        W16122  33.909  18.906  10.548
43698W        W16123  35.714  16.175  11.166
43699W        W16124  35.344  19.640   4.722
43700W        W16125   9.616  43.334  13.978
43701W        W16126  18.509  34.099  14.035
43702W        W16127  26.802   9.852  12.952
43703W        W16128  44.439  12.245   1.458
43704W        W16129  44.499  26.705  12.613
43705W        W16130  32.980  14.700  14.609
43706W        W16131  22.787   9.079  12.528
43707W        W16132  44.871  37.245   2.507
43708W        W16133   0.975   3.836  11.120
43709W        W16134   6.267  18.766  10.631
43710W        W16135  27.063  29.539   0.260
43711W        W16136  32.049   9.103  11.213
43712W        W16137  38.458  31.350  11.653
43713W        W16138  28.608  40.812   2.211
43714W        W16139  44.374  35.023  12.751
43715W        W16140  35.938  40.378   1.417
43716W        W16141  15.804   4.945   0.659
43717W        W16142  15.977  35.524  10.223
43718W        W16143  30.764  17.171  13.038
43719W        W16144  17.838   6.156  12.919
43720W        W16145  30.567  22.135  14.114
43721W        W16146  17.992  17.586  12.062
43722W        W16147  29.946  19.702   1.669
43723W        W16148  10.909   9.310  12.401
43724W        W16149  42.856  17.330   4.525
43725W        W16150  21.720  44.343  12.256
43726W        W16151  30.602  40.769   0.977
43727W        W16152  30.930  38.999  14.260
43728W        W16153  32.630   0.744   0.530
43729W        W16154  17.724   4.847   1.410
43730W        W16155  39.907  40.751  11.964
43731W        W16156   3.875  31.215   3.829
43732W        W16157  33.467  34.123   3.602
43733W        W16158  17.408  21.681   2.397
43734W        W16159  17.760  29.602  13.841
43735W        W16160   2.286  29.997   3.131
43736W        W16161  14.812  26.951  11.672
43737W        W16162  26.668   1.523  11.617
43738W        W16163  24.823  39.024  12.648
43739W        W16164  19.133   7.855  11.071
43740W        W16165  26.627  27.539  13.887
43741W        W16166  34.533  15.495  10.328
43742W        W16167   7.926  44.618   1.731
43743W        W16168   3.119  10.378   4.869
43744W        W16169   3.494   6.174  14.429
43745W        W16170  21.501  14.571  14.847
43746W        W16171  30.552  17.222  13.972
43747W        W16172  40.982  24.639  13.982
43748W        W16173  40.422  12.180  11.213
43749W        W16174  19.122  24.292  12.847
43750W        W16175  40.065  24.028   1.041
43751W        W16176  33.099   6.229   4.655
43752W        W16177  20.079  41.266  11.639
43753W        W16178   0.356  34.434   0.764
43754W        W16179  10.542  14.354  13.791
43755W        W16180  17.735   0.814  12.699
43756W        W16181  29.763  23.518   3.719
43757W        W16182   5.865  31.960   2.140
43758W        W16183  35.964  28.644   4.146
43759W        W16184  30.242  23.803   1.870
43760W        W16185  22.069  35.352   0.117
43761W        W16186  25.496  40.985   2.803
43762W        W16187   5.025  37.494   3.113
43763W        W16188   1.929  31.666   0.764
43764W        W16189  34.771  37.531  12.474
43765W        W16190  39.977  30.207  12.012
43766W        W16191   4.489  38.090  14.907
43767W        W16192   9.064  16.634  13.985
43768W        W16193  10.348  36.671  10.708
43769W        W16194  28.223  14.409   9.935
43770W        W16195  25.558   4.917   1.806
43771W        W16196  10.104   9.918  13.312
43772W        W16197   0.450   4.529   4.734
43773W        W16198  17.812  13.331  14.464
43774W        W16199  16.285  24.628   4.574
43775W        W16200  15.134  13.227   4.699
43776W        W16201  32.181  11.728  13.628
43777W        W16202  39.505  32.996   1.040
43778W        W16203   2.872  42.405   5.074
43779W        W16204   7.683  40.505   1.449
43780W        W16205   4.999  34.208  14.401
43781W        W16206   0.261  21.301  13.011
43782W        W16207  21.572  11.427   5.225
43783W        W16208  18.785   4.287  13.066
43784W        W16209  18.749  30.447  13.978
43785W        W16210  33.482  41.907   4.741
43786W        W16211  32.547   4.918  12.362
43787W        W16212  14.377  14.711   4.602
43788W        W16213   9.231  27.690  10.733
43789W        W16214  11.091  11.344   3.676
43790W        W16215  28.524   7.736   3.688
43791W        W16216   8.349  43.064  12.941
43792W        W16217  15.342  41.668  11.406
43793W        W16218  30.876   1.949   3.466
43794W        W16219  44.648   8.848  14.994
43795W        W16220  30.322  10.299   1.264
43796W        W16221   2.305  16.110   1.820
43797W        W16222  24.995  39.492  12.380
43798W        W16223  17.156  18.635  13.733
43799W        W16224  41.111  10.125  11.969
43800W        W16225  41.928  18.069   0.428
43801W        W16226  33.117  44.162  14.022
43802W        W16227  17.805  21.769  11.968
43803W        W16228   9.237  33.171   1.863
43804W        W16229  10.587  24.537   0.445
43805W        W16230  28.197   9.805  12.015
43806W        W16231  41.525  25.809   1.948
43807W        W16232  24.002  37.888   4.034
43808W        W16233  36.161  19.239  13.580
43809W        W16234  13.630  36.073   0.783
43810W        W16235  15.188  19.170   1.962
43811W        W16236  16.746  43.915  13.274
43812W        W16237  19.805  40.308  10.636
43813W        W16238   0.828  28.767  11.719
43814W        W16239  24.395   9.628  11.121
43815W        W16240  10.432   6.203   4.387
43816W        W16241  20.203  34.075  13.187
43817W        W16242  29.282  34.988   1.568
43818W        W16243   8.900  32.153  14.325
43819W        W16244  28.761  41.251  12.918
43820W        W16245   0.291   4.293  12.980
43821W        W16246   9.326  26.538  12.198
43822W        W16247   9.184   5.236   0.239
43823W        W16248   8.811   1.199   1.310
43824W        W16249   1.913  33.915  12.827
43825W        W16250  24.517  15.755  10.839
43826W        W16251  37.413  10.207   4.199
43827W        W16252  15.243  44.728  10.429
43828W        W16253  13.208  44.418  11.648
43829W        W16254  16.622  40.958  10.579
43830W        W16255  15.919  26.151   1.896
43831W        W16256  22.518  40.877  11.153
43832W        W16257  22.634  36.936   3.758
43833W        W16258  31.493  15.305  13.033
43834W        W16259  25.765   7.710  12.929
43835W        W16260  41.549   5.943   4.859
43836W        W16261  12.650  34.066  12.691
43837W        W16262  10.657   9.249   2.746
43838W        W16263   2.809  29.472   4.124
43839W        W16264   2.450   4.233   0.922
43840W        W16265  32.829  38.870   4.657
43841W        W16266  19.064  38.394   3.589
43842W        W16267   5.742  37.757  14.342
43843W        W16268  36.296  14.785   4.193
43844W        W16269  42.440  28.211   4.281
43845W        W16270  40.964  43.899   4.516
43846W        W16271  34.977   7.811   2.722
43847W        W16272  37.855   2.259  12.081
43848W        W16273   8.287   1.988   4.188
43849W        W16274  22.054   2.271   4.490
43850W        W16275  26.162  11.365   1.722
43851W        W16276   4.763  39.658   4.665
43852W        W16277  28.425  21.480  14.442
43853W        W16278  22.174   0.714  14.430
43854W        W16279  12.935   0.999   4.345
43855W        W16280  23.242  41.835   3.767
43856W        W16281  10.030  33.275   4.600
43857W        W16282  22.979  39.324  13.905
43858W        W16283  41.050  25.927   4.077
43859W        W16284  35.648  20.002  11.293
43860W        W16285  16.716  21.688  11.012
43861W        W16286  35.098  25.268   5.099
43862W        W16287  31.138  38.510   1.519
43863W        W16288  18.526  34.506  11.370
43864W        W16289  34.503  17.126   0.343
43865W        W16290  43.598  12.490   4.569
43866W        W16291  38.441   7.416   3.209
43867W        W16292  21.738  15.550  11.337
43868W        W16293  20.836  27.636  10.663
43869W        W16294   4.677  44.645  10.280
43870W        W16295  34.881  40.443  14.022
43871W        W16296   2.464  26.219  10.745
43872W        W16297  22.492   2.215   0.780
43873W        W16298  12.287  37.516  12.501
43874W        W16299  11.187  38.604  11.967
43875W        W16300  29.767  26.596   1.665
43876W        W16301  28.439  37.437   0.330
43877W        W16302  33.619  33.691   0.837
43878W        W16303  24.831   4.243   4.114
43879W        W16304  32.725   5.484  11.532
43880W        W16305  36.046  18.084   0.463
43881W        W16306   6.792  10.147  13.450
43882W        W16307  18.054  13.361   0.338
43883W        W16308  35.079  21.303  14.847
43884W        W16309   8.790   9.201   5.035
43885W        W16310   3.955  13.017  12.626
43886W        W16311  13.392  23.221  14.801
43887W        W16312  15.906  18.137  13.898
43888W        W16313  30.522  19.357  13.871
43889W        W16314  44.396   5.864   0.291
43890W        W16315  43.010  38.788   1.750
43891W        W16316  31.649  20.651   5.053
43892W        W16317  44.731  10.881   4.147
43893W        W16318  39.604  14.121  10.714
43894W        W16319  31.849  31.920  11.654
43895W        W16320  27.359  21.077  11.228
43896W        W16321  24.415   9.973  14.456
43897W        W16322   5.391  33.672  13.895
43898W        W16323  38.391  38.762   1.731
43899W        W16324  23.018   2.940  12.842
43900W        W16325  18.336   7.371   1.266
43901W        W16326  30.551  16.758  11.189
43902W        W16327  19.302  30.061  13.631
43903W        W16328   5.151  39.106   1.382
43904W        W16329  26.989   9.195   2.129
43905W        W16330  40.193  42.992   5.051
43906W        W16331  21.926  18.758   2.815
43907W        W16332  44.639  34.983   1.844
43908W        W16333   6.263  21.330  14.773
43909W        W16334  18.613  33.975   5.057
43910W        W16335  38.264   3.786  12.336
43911W        W16336  41.294  20.993  14.388
43912W        W16337  30.570  18.306   1.850
43913W        W16338  34.895  23.881  11.702
43914W        W16339  35.362  25.056   2.507
43915W        W16340  30.540  26.034   4.387
43916W        W16341   8.285   6.940  12.999
43917W        W16342  22.336   7.654   3.313
43918W        W16343  41.436  30.354  13.368
43919W        W16344   0.902  31.737   2.757
43920W        W16345  34.433  35.116  11.163
43921W        W16346  37.129  38.443  13.849
43922W        W16347   3.991  12.609   4.199
43923W        W16348   8.817  24.271   0.440
43924W        W16349   7.207  22.975  14.972
43925W        W16350  34.369  16.875  11.923
43926W        W16351  27.567   0.836   4.564
43927W        W16352  15.230  34.295  13.902
43928W        W16353   0.501   6.213   3.765
43929W        W16354   2.148  23.992  10.705
43930W        W16355  10.459   0.331  11.509
43931W        W16356  27.688  13.809   2.498
43932W        W16357  36.565  23.059  13.396
43933W        W16358  18.173  35.905  11.688
43934W        W16359  33.018  20.552  14.999
43935W        W16360  19.471  23.247   0.032
43936W        W16361  15.783  33.489   4.412
43937W        W16362  28.261  26.500  10.757
43938W        W16363  34.923  26.291  12.867
43939W        W16364  21.793  34.524  12.122
43940W        W16365  35.497  44.990  14.762
43941W        W16366  42.809  27.534   0.387
43942W        W16367  43.297  27.829   2.278
43943W        W16368  16.015   8.313   5.079
43944W        W16369  31.181   4.818   3.852
43945W        W16370  39.750   5.741   1.881
43946W        W16371  20.683  43.534   1.905
43947W        W16372   9.881   7.917  12.972
43948W        W16373  30.599  37.669  12.403
43949W        W16374   3.884  29.552  13.343
43950W        W16375   0.861  43.946  10.705
43951W        W16376  16.120   4.175  14.016
43952W        W16377  39.135  34.491  12.108
43953W        W16378  44.321  17.353  12.586
43954W        W16379  31.667  36.876  14.972
43955W        W16380   4.201  32.346  13.385
43956W        W16381  26.055  30.973  10.553
43957W        W16382   4.523  27.285   3.522
43958W        W16383  20.439  34.593   1.465
43959W        W16384  25.518  42.492   0.227
43960W        W16385  44.228  38.652   4.895
43961W        W16386   3.399  38.898  10.563
43962W        W16387  10.112  19.554  11.630
43963W        W16388  26.705  12.184  11.138
43964W        W16389  30.390  20.472   3.065
43965W        W16390   9.344  38.075   1.511
43966W        W16391  19.641  21.956  14.197
43967W        W16392  25.246   7.464   4.198
43968W        W16393   7.824   1.510   0.485
43969W        W16394   3.371  30.348  13.149
43970W        W16395  33.536  24.169   2.820
43971W        W16396  44.832  33.286  13.814
43972W        W16397   6.216  30.976  14.944
43973W        W16398  22.022  39.244  12.416
43974W        W16399  13.358   8.655   4.998
43975W        W16400   6.523  40.484   5.054
43976W        W16401  44.863  28.549  12.482
43977W        W16402  10.580  42.824   3.294
43978W        W16403  35.918  23.415   2.738
43979W        W16404  33.560  36.232  14.324
43980W        W16405  11.717  20.055   4.316
43981W        W16406  29.507  29.906   1.725
43982W        W16407  31.482  13.636  14.214
43983W        W16408  27.201  15.498  14.486
43984W        W16409  15.169   0.452   3.684
43985W        W16410  15.565  32.970   1.202
43986W        W16411  40.775  22.135   2.827
43987W        W16412  13.837  15.279   2.606
43988W        W16413  38.620  25.999   0.955
43989W        W16414   6.178  20.000   4.655
43990W        W16415  25.766   1.407   0.252
43991W        W16416  10.700  30.356  13.957
43992W        W16417   9.832  12.746   0.948
43993W        W16418  40.490  27.924  10.640
43994W        W16419   1.942  35.430  13.591
43995W        W16420  34.225  21.640   4.245
43996W        W16421  31.663  39.846   0.959
43997W        W16422   4.864  30.892  11.951
43998W        W16423  39.743  32.956   3.450
43999W        W16424   9.633   7.245   1.942
44000W        W16425   1.413  15.792   1.767
44001W        W16426  13.072   5.426  10.897
44002W        W16427   9.813  36.992   1.914
44003W        W16428  26.160  29.024   4.692
44004W        W16429  17.579   8.310   1.252
44005W        W16430  44.472   5.223   1.636
44006W        W16431  14.949  34.338   1.043
44007W        W16432  21.573  32.204  11.850
44008W        W16433   3.318  29.552  14.055
44009W        W16434  23.483  34.733   2.851
44010W        W16435  37.422   2.663   0.265
44011W        W16436  30.442  31.562   1.880
44012W        W16437  10.240   9.230   1.611
44013W        W16438  12.745  24.631  13.061
44014W        W16439  33.899  35.918   3.296
44015W        W16440  39.083   8.642   2.409
44016W        W16441  19.094  11.663   3.593
44017W        W16442  35.567  10.637   3.122
44018W        W16443  21.701  23.450  10.794
44019W        W16444  28.718  13.859   0.571
44020W        W16445   7.971   3.878   0.533
44021W        W16446  35.065   1.079  14.390
44022W        W16447  40.363   3.725  11.960
44023W        W16448  16.977  10.197   2.289
44024W        W16449   5.498  27.928  12.060
44025W        W16450   1.248  27.609   2.331
44026W        W16451  39.305  32.043   4.102
44027W        W16452  21.310  11.819   5.472
44028W        W16453  31.862  13.194   1.315
44029W        W16454  35.896  23.250   4.653
44030W        W16455  18.137  29.081  14.413
44031W        W16456  38.270  42.404  14.870
44032W        W16457  34.141   6.284   3.092
44033W        W16458  36.124   7.925  11.456
44034W        W16459  27.532  30.086   1.699
44035W        W16460  13.191   6.150  12.956
44036W        W16461  17.690  11.199  13.468
44037W        W16462  26.834  37.436  11.742
44038W        W16463   9.366   3.729  13.758
44039W        W16464   6.290  10.667  10.685
44040W        W16465  44.590  29.594   1.847
44041W        W16466  17.007   8.419  14.906
44042W        W16467  41.927  40.262   3.188
44043W        W16468  34.632  12.557   4.925
44044W        W16469  21.688  20.304   0.830
44045W        W16470  37.974  15.799  11.673
44046W        W16471   7.745   2.032   0.448
44047W        W16472  22.499  25.935  12.558
44048W        W16473  17.765  35.289  14.235
44049W        W16474  14.817  14.255   2.593
44050W        W16475  26.756   0.870   2.261
44051W        W16476  27.439  39.505  11.410
44052W        W16477  34.898   2.822   1.659
44053W        W16478  41.842  44.325   0.280
44054W        W16479  34.489   3.331   4.625
44055W        W16480  29.176  27.955  13.345
44056W        W16481   1.729  25.437   3.147
44057W        W16482  38.901  40.282  11.245
44058W        W16483   1.517  13.815  12.996
44059W        W16484  27.242  35.448   1.317
44060W        W16485  22.753  36.089   2.787
44061W        W16486  34.969  29.361  11.761
44062W        W16487   2.476  17.842   2.411
44063W        W16488  26.138  23.957  11.496
44064W        W16489  22.072   4.774  11.672
44065W        W16490  27.305  24.176   4.167
44066W        W16491  31.942  33.885  14.955
44067W        W16492  28.187  10.337   4.848
44068W        W16493  43.188  26.691  12.457
44069W        W16494  17.644   7.163   1.849
44070W        W16495  16.671   1.800  14.738
44071W        W16496  28.528  41.837   9.818
44072W        W16497  42.881  42.952   4.431
44073W        W16498   6.406  32.849  12.099
44074W        W16499  42.267  15.152  11.999
44075W        W16500   1.730  38.875   4.096
44076W        W16501  10.709  25.489  12.352
44077W        W16502  24.542  13.264  13.240
44078W        W16503  21.043   4.210  12.643
44079W        W16504  16.625  22.898  13.648
44080W        W16505   8.885  31.394  13.013
44081W        W16506  27.143   3.212   0.224
44082W        W16507   5.240  25.722   3.375
44083W        W16508  40.447  17.469   1.585
44084W        W16509   6.314  42.553   0.410
44085W        W16510  10.004   0.738  14.614
44086W        W16511   1.374  31.395   3.763
44087W        W16512  11.639  28.133   2.247
44088W        W16513  21.242   4.114  13.124
44089W        W16514  28.573   5.803   1.434
44090W        W16515  12.760  28.188  10.755
44091W        W16516   4.294   3.740  13.533
44092W        W16517   2.267  27.567  13.373
44093W        W16518  13.677   3.684  12.899
44094W        W16519  12.169  21.914   2.256
44095W        W16520  36.839  32.856   1.723
44096W        W16521   0.376  37.043   4.140
44097W        W16522  40.525   7.917  10.839
44098W        W16523  27.978  18.689  10.604
44099W        W16524  27.674   3.507  11.861
44100W        W16525  11.397  32.203   3.791
44101W        W16526  43.809  18.092  13.953
44102W        W16527   0.644   5.658   1.595
44103W        W16528   0.010   8.136   3.222
44104W        W16529  12.578  25.168   2.700
44105W        W16530  39.456   4.331  11.921
44106W        W16531  42.354  26.535   2.714
44107W        W16532  35.885  40.858   4.580
44108W        W16533  10.549  18.559  13.670
44109W        W16534  21.010   2.359   4.536
44110W        W16535   2.791  18.833  12.061
44111W        W16536  18.385   8.757  12.336
44112W        W16537  36.779  30.531  13.214
44113W        W16538  32.491  29.547   2.623
44114W        W16539   7.598  21.642   1.793
44115W        W16540   6.847  39.908   4.561
44116W        W16541  15.358  30.610   2.723
44117W        W16542   8.258  16.964  12.947
44118W        W16543  24.437  15.999  12.879
44119W        W16544  40.063   6.822  14.954
44120W        W16545  35.012  10.581   0.815
44121W        W16546  27.988  38.484   1.545
44122W        W16547  13.565  28.408   2.848
44123W        W16548  24.578   1.720  11.582
44124W        W16549  38.971  39.813  10.701
44125W        W16550  26.286   3.268   0.157
44126W        W16551  41.225  13.971   4.690
44127W        W16552  16.655   3.370   0.237
44128W        W16553  20.364   0.465  12.060
44129W        W16554  34.873   8.693  12.267
44130W        W16555   3.703  22.262   4.378
44131W        W16556  11.888   7.754   0.291
44132W        W16557  28.533  38.306   2.836
44133W        W16558  12.388  37.351  14.810
44134W        W16559  24.733   1.982  10.570
44135W        W16560  14.062  15.243   3.963
44136W        W16561  12.626  10.295  11.620
44137W        W16562  15.276   3.836   5.220
44138W        W16563   2.848   5.245  14.368
44139W        W16564  26.029  40.783  14.818
44140W        W16565  32.685  41.811   1.751
44141W        W16566  27.502  44.884   2.393
44142W        W16567  27.513  23.556   1.621
44143W        W16568  27.245   3.282   2.090
44144W        W16569  15.638  23.759  11.746
44145W        W16570  42.615  38.869  12.472
44146W        W16571  37.794  40.176  12.983
44147W        W16572  39.844   6.893  14.480
44148W        W16573  44.346  23.109  10.434
44149W        W16574  40.461   1.226  14.692
44150W        W16575  27.087  27.941   3.711
44151W        W16576  10.279   3.862  13.573
44152W        W16577   9.117   4.221  11.070
44153W        W16578  33.658   5.273  11.751
44154W        W16579  35.975  23.145  12.882
44155W        W16580  10.551  41.290   1.864
44156W        W16581   0.338  12.397   2.648
44157W        W16582   2.227  17.373  13.444
44158W        W16583  37.338  43.824  10.563
44159W        W16584  24.565  15.275  11.580
44160W        W16585  43.540   0.002  13.343
44161W        W16586   8.107  16.301  13.996
44162W        W16587  17.173  27.785   1.131
44163W        W16588  26.624   7.250  11.521
44164W        W16589  32.419  32.615  11.148
44165W        W16590   5.247   1.932   3.678
44166W        W16591  15.889  24.149  11.472
44167W        W16592  38.364  18.873   1.915
44168W        W16593   9.590  16.168   0.832
44169W        W16594  14.625  19.255  13.964
44170W        W16595  32.635  40.881  12.943
44171W        W16596  44.383  33.389   3.620
44172W        W16597  28.610  14.337  12.892
44173W        W16598  12.720   8.641   1.466
44174W        W16599   5.310  15.186   3.106
44175W        W16600  44.433  39.525  12.412
44176W        W16601  15.798  17.954  13.413
44177W        W16602  24.079  22.522   3.002
44178W        W16603  30.117  18.178   3.879
44179W        W16604  13.391   3.728  14.423
44180W        W16605   0.315  26.473  11.159
44181W        W16606  13.840   4.436  11.636
44182W        W16607  17.352   9.778   0.131
44183W        W16608  32.386   7.181  13.399
44184W        W16609  35.460  22.779   1.475
44185W        W16610   9.691  44.738   1.394
44186W        W16611   7.680  41.398  10.751
44187W        W16612   9.795   1.717  13.076
44188W        W16613   2.765  15.543  10.219
44189W        W16614  42.917  13.707  14.207
44190W        W16615  20.207  41.522  14.696
44191W        W16616  20.495   8.290  13.430
44192W        W16617   5.664  32.141   1.172
44193W        W16618   4.212  18.609  10.786
44194W        W16619   4.421  30.439  10.685
44195W        W16620  22.008  27.072  12.032
44196W        W16621  32.784   7.278  14.965
44197W        W16622  18.477  34.584  10.372
44198W        W16623  23.080   0.687  14.497
44199W        W16624  12.167  34.164   4.207
44200W        W16625  27.929  40.152   0.382
44201W        W16626  37.111   4.830   4.241
44202W        W16627  33.881  30.058  11.191
44203W        W16628  21.574  19.258   0.885
44204W        W16629  37.726  34.032   0.197
44205W        W16630  29.228  30.657   4.180
44206W        W16631  15.650  32.210  12.979
44207W        W16632  14.790   0.835   2.854
44208W        W16633  25.064  31.777   1.235
44209W        W16634  29.968   6.830   3.127
44210W        W16635  26.388   7.459   0.339
44211W        W16636  11.300   7.114  11.494
44212W        W16637  38.912  43.010   4.783
44213W        W16638  37.720  35.864  12.594
44214W        W16639  36.601   8.486   0.737
44215W        W16640  42.993   6.901  10.692
44216W        W16641  39.974  10.142   2.322
44217W        W16642  21.080  43.826  14.274
44218W        W16643  15.758  17.137  10.638
44219W        W16644  19.136  32.104  10.033
44220W        W16645   1.488  37.376  12.056
44221W        W16646  29.646  44.240   2.614
44222W        W16647  12.172  14.367  13.916
44223W        W16648   3.666  43.836  13.122
44224W        W16649   8.627   8.133   1.837
44225W        W16650  11.558  15.801   0.437
44226W        W16651  42.449  33.520  12.048
44227W        W16652  20.790  30.650  14.786
44228W        W16653  12.061   5.618  10.973
44229W        W16654  29.270  27.663  11.744
44230W        W16655   7.349  13.557   4.600
44231W        W16656  15.468  44.796  11.705
44232W        W16657   7.910  27.174   0.841
44233W        W16658   7.198   0.911   4.930
44234W        W16659  11.891  25.015  10.529
44235W        W16660   8.120  37.932  13.361
44236W        W16661  17.263  20.478  13.723
44237W        W16662  24.452  24.906  11.606
44238W        W16663  39.000   5.770   1.210
44239W        W16664  17.984  30.834  13.548
44240W        W16665  13.810   6.813  14.037
44241W        W16666  39.928  25.134  14.425
44242W        W16667  11.835  34.150   4.913
44243W        W16668  23.801  43.216   1.707
44244W        W16669  36.568  17.005   0.735
44245W        W16670  26.520  43.205  13.916
44246W        W16671  18.218  18.050   3.317
44247W        W16672   6.337  12.617  13.730
44248W        W16673   5.470  26.087  13.397
44249W        W16674  25.446  23.036   2.107
44250W        W16675  18.091   7.666   3.467
44251W        W16676  29.612  38.412  14.917
44252W        W16677  29.821  20.696   4.996
44253W        W16678   7.457  34.162   3.191
44254W        W16679  37.687  14.797   1.674
44255W        W16680  19.715   2.488  12.980
44256W        W16681   6.934   9.861   3.677
44257W        W16682  32.677   2.164  12.956
44258W        W16683  13.661  35.837  14.431
44259W        W16684  31.391   5.391  12.879
44260W        W16685  25.179   3.021   0.414
44261W        W16686  12.718  28.604   4.238
44262W        W16687  29.009  11.309  14.383
44263W        W16688  33.960  14.304   2.178
44264W        W16689  41.776  31.915   1.389
44265W        W16690  32.006  36.258  10.316
44266W        W16691  42.356  24.484  13.858
44267W        W16692  44.607  44.617  12.492
44268W        W16693  18.631  22.534  13.010
44269W        W16694  31.594  33.799   4.171
44270W        W16695   6.693   6.780  11.957
44271W        W16696   9.266  17.981  11.676
44272W        W16697  18.059  40.465  11.092
44273W        W16698  10.232  31.645   3.722
44274W        W16699  37.740  26.147   1.851
44275W        W16700   6.690  40.085  12.468
44276W        W16701  16.606  44.366  13.451
44277W        W16702  14.987  11.847   2.396
44278W        W16703   4.450  12.076   2.746
44279W        W16704  11.347  21.707  12.049
44280W        W16705   5.641  20.630   1.886
44281W        W16706   0.316  21.720  12.123
44282W        W16707  31.884  39.075   5.037
44283W        W16708  33.816  24.148  12.104
44284W        W16709  44.057  16.773  11.102
44285W        W16710  11.229  21.668   2.786
44286W        W16711  36.943  29.479   4.585
44287W        W16712  13.594  15.199  12.919
44288W        W16713  17.330  35.989  14.773
44289W        W16714  14.677  13.594  12.453
44290W        W16715  32.345  12.629   3.363
44291W        W16716  26.909   4.937   2.665
44292W        W16717  30.502  26.052   3.331
44293W        W16718  33.946  32.197   2.386
44294W        W16719  23.155  38.318  12.573
44295W        W16720  38.601  25.144  11.984
44296W        W16721  39.819   2.342  10.685
44297W        W16722   6.008   6.742  13.325
44298W        W16723   5.704  12.304   4.580
44299W        W16724  17.032  28.923  13.105
44300W        W16725  18.437  30.351  11.552
44301W        W16726  31.212   3.806   1.837
44302W        W16727  36.384  38.394  13.337
44303W        W16728  19.180  11.730  14.379
44304W        W16729  21.061  17.497  14.064
44305W        W16730  42.484  30.366  14.257
44306W        W16731  26.952  32.678   3.693
44307W        W16732  17.495  20.644  14.868
44308W        W16733  22.402  39.910  11.242
44309W        W16734  16.131  34.921   3.697
44310W        W16735  19.164  21.859  13.923
44311W        W16736  40.363   0.324   2.669
44312W        W16737   1.976   6.816   0.436
44313W        W16738  38.799  35.255   2.935
44314W        W16739  40.893  33.549  14.374
44315W        W16740  13.395   6.748   0.458
44316W        W16741   3.892  31.031   3.313
44317W        W16742  21.731  22.022  11.221
44318W        W16743  24.730   0.481  12.509
44319W        W16744  10.158  22.587  10.650
44320W        W16745  36.079   4.357  11.860
44321W        W16746  32.071   2.001  12.071
44322W        W16747  42.197   8.904   3.111
44323W        W16748  24.479   0.063  14.387
44324W        W16749  41.080  20.445  13.114
44325W        W16750  27.437  18.965   1.252
44326W        W16751   1.221  33.158  11.477
44327W        W16752   8.218   2.590  13.200
44328W        W16753  38.228   2.268  13.063
44329W        W16754  37.929  11.145  12.259
44330W        W16755  31.252  27.499  12.410
44331W        W16756  20.546  30.652  10.670
44332W        W16757  33.510  35.027   3.277
44333W        W16758   5.887   4.776  13.505
44334W        W16759  42.931  19.498   3.651
44335W        W16760  26.923  16.734   0.799
44336W        W16761  42.711  22.520  14.742
44337W        W16762   6.377  17.770   3.714
44338W        W16763   5.207  41.572   2.640
44339W        W16764  33.115  33.340  13.378
44340W        W16765  12.610  35.792  11.918
44341W        W16766  18.284  16.894   3.560
44342W        W16767  16.816  37.942  13.960
44343W        W16768  21.049   0.753  13.546
44344W        W16769   6.486   8.451  11.974
44345W        W16770  13.484  27.921   0.271
44346W        W16771  29.639   5.564   1.850
44347W        W16772  38.936  35.720   2.757
44348W        W16773  33.706  35.539   1.745
44349W        W16774  35.584  21.002   1.709
44350W        W16775  42.286  19.944  14.411
44351W        W16776  30.946  16.353  13.391
44352W        W16777  23.496  17.910  10.709
44353W        W16778  35.015  42.304  12.426
44354W        W16779  41.558  34.482  10.719
44355W        W16780  18.195  37.629  12.409
44356W        W16781  23.470   0.985  13.432
44357W        W16782  21.240  32.448  12.185
44358W        W16783  28.701  31.788   4.798
44359W        W16784  36.454  38.470   3.577
44360W        W16785  16.874   5.852  11.496
44361W        W16786  26.841   9.811   1.356
44362W        W16787   7.343  27.510  14.530
44363W        W16788  37.905  28.506  13.979
44364W        W16789  26.932  34.615  10.146
44365W        W16790  20.779  37.254   3.144
44366W        W16791   3.694   8.300  14.027
44367W        W16792  38.967  15.049  13.030
44368W        W16793   3.107  29.227   1.543
44369W        W16794   9.688   0.475   0.937
44370W        W16795  26.084  32.355  12.507
44371W        W16796   3.881  42.828   3.839
44372W        W16797  28.573  38.074   4.181
44373W        W16798  33.548   7.721   0.955
44374W        W16799  26.430  15.947   0.715
44375W        W16800  37.533  20.156   1.670
44376W        W16801  13.112  42.811  13.527
44377W        W16802  21.571   2.680   0.815
44378W        W16803  28.631  35.874   4.244
44379W        W16804   9.263  38.905   1.952
44380W        W16805  40.330   6.761  13.556
44381W        W16806   4.499   5.262  12.494
44382W        W16807  17.032  24.587   2.647
44383W        W16808  27.269  12.217   0.965
44384W        W16809  16.485  28.015  10.791
44385W        W16810  11.803  37.302   4.541
44386W        W16811  22.774   0.608  12.091
44387W        W16812  39.862   1.950   2.353
44388W        W16813  36.430   6.378   3.263
44389W        W16814  34.061  44.194   0.643
44390W        W16815  14.259  12.563  11.949
44391W        W16816  14.783  28.221  14.949
44392W        W16817  41.032  28.026  10.648
44393W        W16818  44.561  17.793   1.630
44394W        W16819  41.896   4.437   1.177
44395W        W16820   4.819   1.987   3.996
44396W        W16821  13.589  10.313   4.015
44397W        W16822  44.266  28.209  11.147
44398W        W16823  29.482  42.492  10.569
44399W        W16824  14.672  31.040   3.753
44400W        W16825  34.071  40.049  11.131
44401W        W16826  23.569  36.465  10.661
44402W        W16827  27.112  31.809   4.195
44403W        W16828  25.258  33.219   4.179
44404W        W16829  31.421  40.494  14.344
44405W        W16830  31.176  27.616  14.265
44406W        W16831  22.040  29.145   4.178
44407W        W16832  17.650  42.013  13.159
44408W        W16833   9.997   2.934  10.983
44409W        W16834  25.612  22.238  11.657
44410W        W16835  16.121  22.129  13.873
44411W        W16836  35.657  25.851  13.302
44412W        W16837  18.319  18.791  11.603
44413W        W16838  32.041  16.025  12.905
44414W        W16839  39.339  29.884   1.920
44415W        W16840  23.366   8.929   3.773
44416W        W16841  40.429  33.518   2.391
44417W        W16842  37.674  24.004   2.359
44418W        W16843  29.479  31.384   2.850
44419W        W16844  37.935  11.773   1.427
44420W        W16845   1.489  32.369   3.197
44421W        W16846  42.827  19.143   2.714
44422W        W16847  16.139  17.541  14.913
44423W        W16848  38.994  44.240  14.913
44424W        W16849  18.847  17.423   0.692
44425W        W16850   3.531   8.597   1.332
44426W        W16851  13.590  35.152  13.766
44427W        W16852  17.457  30.051   0.898
44428W        W16853  17.328   8.129  14.041
44429W        W16854  15.580   2.225  12.423
44430W        W16855  14.361  16.088  13.650
44431W        W16856  16.218   9.217   2.446
44432W        W16857  14.813  30.182  12.517
44433W        W16858  41.902  13.591   0.942
44434W        W16859  28.147  30.091  14.568
44435W        W16860  24.751  30.889   5.099
44436W        W16861  40.470  34.456  11.599
44437W        W16862  44.531  36.880  11.188
44438W        W16863   2.350  14.234  13.160
44439W        W16864  23.179  12.761   1.839
44440W        W16865  38.512  37.079  14.966
44441W        W16866  33.611  15.189  10.548
44442W        W16867  24.784  33.576   1.736
44443W        W16868  30.165  32.595   0.377
44444W        W16869  43.743  26.610   3.185
44445W        W16870  36.204  38.933  10.812
44446W        W16871  42.773  13.366   2.314
44447W        W16872  12.653  10.521  11.156
44448W        W16873  29.574  25.539  10.611
44449W        W16874   4.029  39.354  10.682
44450W        W16875  34.080  33.381   1.344
44451W        W16876  12.396  39.277  12.809
44452W        W16877  17.416   1.270   0.201
44453W        W16878  27.253   7.915   2.151
44454W        W16879  27.174  25.559  11.185
44455W        W16880  23.164  44.584   0.892
44456W        W16881  16.290  41.893   2.344
44457W        W16882  40.498  31.469   1.310
44458W        W16883  10.912  22.536   4.965
44459W        W16884  19.254  13.255   0.747
44460W        W16885  39.999  31.040   0.524
44461W        W16886  40.973   5.739   1.379
44462W        W16887  25.656  28.635  11.646
44463W        W16888  39.470  14.303   0.394
44464W        W16889  35.603   4.287  14.427
44465W        W16890  10.711  15.817   2.419
44466W        W16891   7.944  34.189  13.752
44467W        W16892  18.806  33.952   1.985
44468W        W16893  15.392  14.264  12.132
44469W        W16894   7.182  24.682   0.678
44470W        W16895  20.268  38.435   2.283
44471W        W16896  10.385   7.467  13.935
44472W        W16897   4.811  33.996  11.663
44473W        W16898   6.826  40.370   3.169
44474W        W16899   8.402  33.019  13.519
44475W        W16900   0.315  24.573  11.528
44476W        W16901   9.650   0.263   2.332
44477W        W16902  37.060   3.206   1.312
44478W        W16903   7.692  40.369   3.636
44479W        W16904   7.281  40.920  13.762
44480W        W16905  14.161   0.382   4.946
44481W        W16906  32.200  39.422  10.461
44482W        W16907  30.606  13.889  11.427
44483W        W16908  11.315  21.696  13.571
44484W        W16909  12.621  43.928  10.796
44485W        W16910  36.634  44.777   2.707
44486W        W16911  21.734   7.431   1.421
44487W        W16912   0.504  21.606  11.127
44488W        W16913   6.305   3.393  12.866
44489W        W16914  25.971  17.220   2.192
44490W        W16915   6.867   9.110  14.355
44491W        W16916  39.923  12.104  11.988
44492W        W16917  22.361  30.394  11.001
44493W        W16918  39.804  19.225  13.940
44494W        W16919   3.538  14.231   0.065
44495W        W16920  27.565  33.794  11.526
44496W        W16921  11.873  10.620   0.432
44497W        W16922  34.687  19.249   1.777
44498W        W16923  43.098  11.376   4.669
44499W        W16924  40.636  38.524  13.062
44500W        W16925  17.636  23.122  12.191
44501W        W16926  23.085  18.237   4.665
44502W        W16927  31.829  42.334   2.699
44503W        W16928  25.659  42.090   3.781
44504W        W16929   6.448  41.316   4.203
44505W        W16930   8.179   9.384  13.871
44506W        W16931  31.336  18.188   4.315
44507W        W16932  44.846   0.992  11.518
44508W        W16933   6.303   2.745  11.509
44509W        W16934   5.507  14.539   2.652
44510W        W16935  35.654   6.900  11.030
44511W        W16936   9.177  35.860   3.935
44512W        W16937   2.411  27.238  12.388
44513W        W16938  15.712   5.184   4.834
44514W        W16939  33.413  41.311   3.077
44515W        W16940   5.963   8.770   4.333
44516W        W16941   2.976  24.095   0.860
44517W        W16942  25.459  20.873  12.167
44518W        W16943  32.221   6.635   4.289
44519W        W16944  31.859  13.400  10.737
44520W        W16945  29.909  44.430  14.070
44521W        W16946  22.432  24.068  11.050
44522W        W16947  14.892  35.904   3.213
44523W        W16948   0.700  44.460  14.533
44524W        W16949  31.482  37.987   0.833
44525W        W16950  20.798   5.202  13.788
44526W        W16951  12.638  18.567   1.001
44527W        W16952  21.737  30.053   2.437
44528W        W16953  14.806  27.720   0.651
44529W        W16954   1.033  26.876  14.317
44530W        W16955  43.351  37.984  14.405
44531W        W16956  13.648   3.044  11.540
44532W        W16957   7.476  37.756  11.153
44533W        W16958  32.045  40.651  12.121
44534W        W16959  22.435   3.913  12.171
44535W        W16960   6.561  13.858  12.907
44536W        W16961   6.365  39.542  11.482
44537W        W16962   0.332  40.038   2.263
44538W        W16963   7.841  12.165   2.757
44539W        W16964  36.501  26.304  13.511
44540W        W16965   7.432  32.894  11.035
44541W        W16966  16.132   4.102   2.318
44542W        W16967  30.921  17.075   2.298
44543W        W16968   7.952  28.186   1.648
44544W        W16969  13.167  44.584   2.643
44545W        W16970  43.881  20.751  11.151
44546W        W16971  35.003   8.228  10.941
44547W        W16972   6.788  26.459  11.758
44548W        W16973  39.035  12.895  12.414
44549W        W16974  41.473  40.779   2.752
44550W        W16975  11.462  29.497  12.403
44551W        W16976  42.382   4.292   3.645
44552W        W16977   1.813  10.343   4.564
44553W        W16978  33.849   4.895  14.419
44554W        W16979   6.811  39.013  13.091
44555W        W16980  17.082  42.258   3.149
44556W        W16981  16.318  25.679  14.887
44557W        W16982  33.948  24.497  13.890
44558W        W16983  43.553   8.317   1.862
44559W        W16984  20.704  33.699  10.806
44560W        W16985  43.438  12.085   1.420
44561W        W16986   1.170  37.398   1.388
44562W        W16987  24.418  17.044   3.241
44563W        W16988  42.969  39.354  12.875
44564W        W16989  14.641  26.126   3.261
44565W        W16990   5.870  42.739  13.339
44566W        W16991  35.441   8.248   0.845
44567W        W16992  43.797  12.230  10.948
44568W        W16993  16.712  17.603   4.093
44569W        W16994  10.611  16.373  14.781
44570W        W16995   9.186  28.845  11.549
44571W        W16996   8.250  32.058  11.555
44572W        W16997  12.346  39.889   3.125
44573W        W16998   5.577  26.736   2.242
44574W        W16999  43.112  44.351   2.521
44575W        W17000   9.372  33.337   0.268
44576W        W17001   3.710   6.964  10.653
44577W        W17002   2.782   8.656  12.292
44578W        W17003  34.136  44.851  11.176
44579W        W17004  41.083  22.549   3.591
44580W        W17005  16.640  29.575   4.738
44581W        W17006  18.064  38.790  11.521
44582W        W17007  24.633  11.308  11.205
44583W        W17008  18.067   3.536  13.469
44584W        W17009  36.865  26.758  10.691
44585W        W17010  21.540  44.874   4.335
44586W        W17011  14.826  11.796  13.357
44587W        W17012  24.887  28.311  11.077
44588W        W17013  12.286  33.572   4.565
44589W        W17014  18.982  42.812   2.305
44590W        W17015  29.747  11.282  12.545
44591W        W17016  12.956  17.213   4.553
44592W        W17017  29.427  35.807   1.450
44593W        W17018  19.206  10.976   4.485
44594W        W17019  44.722  38.926  13.890
44595W        W17020  18.789   5.843  14.191
44596W        W17021  25.216   4.433   3.649
44597W        W17022   3.222  17.157  11.182
44598W        W17023  18.543  19.992   2.911
44599W        W17024  43.338  35.052  11.561
44600W        W17025  24.186   7.762   3.941
44601W        W17026  28.651   8.717   0.692
44602W        W17027  28.225  24.518   3.044
44603W        W17028  39.954  23.055   0.820
44604W        W17029  35.081  40.634   0.925
44605W        W17030  11.237  27.632   2.384
44606W        W17031  39.346  27.086  13.441
44607W        W17032  21.334  37.676   2.578
44608W        W17033  19.783  25.570   3.689
44609W        W17034  28.279  31.212   2.169
44610W        W17035   2.366  24.168  14.996
44611W        W17036  28.964  16.856   0.948
44612W        W17037  10.781  25.141  11.067
44613W        W17038  30.668  18.651  12.502
44614W        W17039  38.097   3.631  10.701
44615W        W17040  35.515   4.883  12.149
44616W        W17041   6.789  40.931   0.606
44617W        W17042  37.291  40.436  11.563
44618W        W17043  20.984  17.665   0.038
44619W        W17044  31.607  19.483   3.687
44620W        W17045   5.791  12.447  14.839
44621W        W17046  13.331  38.286  14.427
44622W        W17047  41.376  13.173  13.924
44623W        W17048  25.016   6.427  12.884
44624W        W17049  30.661  30.107  13.896
44625W        W17050  37.515  39.939   0.539
44626W        W17051  14.262   4.273   9.698
44627W        W17052   3.801  38.797   0.894
44628W        W17053  14.255  20.124   1.239
44629W        W17054  18.227   0.207  12.843
44630W        W17055  11.004  27.595  14.538
44631W        W17056  32.577  16.013  14.731
44632W        W17057  25.488  41.996   0.017
44633W        W17058  11.121  15.768  14.476
44634W        W17059   0.349   0.875   2.596
44635W        W17060  27.081  12.535   2.684
44636W        W17061  34.949  16.574  14.277
44637W        W17062   9.783  40.426  11.279
44638W        W17063   0.665  27.040   4.560
44639W        W17064   7.361  10.906   1.314
44640W        W17065  44.810  38.862   4.318
44641W        W17066   9.349  36.437   1.806
44642W        W17067   6.276   9.198  10.665
44643W        W17068  37.062  42.840  12.588
44644W        W17069  13.550   3.227   1.405
44645W        W17070  24.283  22.751   3.411
44646W        W17071  12.711   6.785  10.525
44647W        W17072   9.987  26.317  11.431
44648W        W17073   4.332  42.291  13.871
44649W        W17074  26.030  34.452   2.548
44650W        W17075  42.846  19.496  11.699
44651W        W17076  30.909  20.272   1.378
44652W        W17077   9.108   4.964   5.067
44653W        W17078   7.201  35.568  12.024
44654W        W17079  37.844   0.677   3.009
44655W        W17080  33.963   7.002   3.679
44656W        W17081  25.598   3.506  12.358
44657W        W17082  13.196  13.550  12.149
44658W        W17083   0.240  13.779  11.993
44659W        W17084  28.926  21.540  10.028
44660W        W17085  28.915  22.133  12.120
44661W        W17086  21.554  34.527   4.336
44662W        W17087  41.991  30.020  14.823
44663W        W17088  30.389  11.296   0.892
44664W        W17089  26.746   8.871   0.489
44665W        W17090   3.464   0.544   2.675
44666W        W17091  41.503   2.369   1.950
44667W        W17092  24.931  17.063   4.073
44668W        W17093  13.200   7.922   4.715
44669W        W17094   7.411  29.671  12.521
44670W        W17095  32.063   7.432   2.607
44671W        W17096   5.959  30.110   3.418
44672W        W17097  11.817   0.287   2.360
44673W        W17098  27.968  30.577   3.744
44674W        W17099  16.730  17.138   1.231
44675W        W17100  31.929   1.763   1.353
44676W        W17101   9.607  26.278  12.966
44677W        W17102  33.237   2.460   2.295
44678W        W17103  26.109  31.150  11.557
44679W        W17104  12.213  22.544   4.589
44680W        W17105  12.832  39.241  13.063
44681W        W17106  23.394   5.926  12.567
44682W        W17107  19.494  11.610   2.746
44683W        W17108   5.533   3.323  10.764
44684W        W17109  22.681  23.791  13.949
44685W        W17110  39.477  12.974  14.076
44686W        W17111  10.534  17.182  14.610
44687W        W17112  15.893   3.446   2.893
44688W        W17113  43.140  44.457   3.848
44689W        W17114  42.802   0.368  12.944
44690W        W17115   2.311  44.335   3.155
44691W        W17116  10.954  34.308  10.611
44692W        W17117  42.937  17.019   1.545
44693W        W17118  17.332  28.523   0.344
44694W        W17119  32.102  26.223   1.579
44695W        W17120  19.182   1.993   4.290
44696W        W17121  27.042   9.577   1.798
44697W        W17122   0.340   3.478  12.574
44698W        W17123  37.223  26.174   1.890
44699W        W17124  28.889   8.866   3.183
44700W        W17125  22.746   6.998  10.280
44701W        W17126  33.409  20.995  12.011
44702W        W17127  12.410   3.153  12.391
44703W        W17128  11.664  25.890   4.787
44704W        W17129  16.080  31.997   1.692
44705W        W17130  13.222  24.577  12.051
44706W        W17131  32.092   6.011  12.039
44707W        W17132  20.240   3.795  13.050
44708W        W17133   9.122  23.635  11.989
44709W        W17134  34.485  39.447  11.760
44710W        W17135  21.192  13.782  13.054
44711W        W17136  27.451   6.629  11.795
44712W        W17137   4.188  41.854  11.485
44713W        W17138  30.054  26.674   4.170
44714W        W17139  35.913  38.981   3.708
44715W        W17140  30.669   2.786  12.946
44716W        W17141   6.121  42.700   5.443
44717W        W17142  36.850  35.536  14.926
44718W        W17143   1.025  36.043   1.734
44719W        W17144  16.685  33.598   4.609
44720W        W17145  44.494   2.134  12.872
44721W        W17146  33.505  42.342   3.902
44722W        W17147  27.334  35.875   2.294
44723W        W17148   8.097  15.842   4.699
44724W        W17149   0.752  26.220  11.255
44725W        W17150  42.355  39.853  12.352
44726W        W17151  29.513  15.240   0.686
44727W        W17152  31.614   8.344  11.177
44728W        W17153   3.491  31.557   3.769
44729W        W17154   2.978   4.222  12.909
44730W        W17155  19.778  15.179  14.570
44731W        W17156  37.306  20.644  11.363
44732W        W17157  30.837  30.906   0.427
44733W        W17158  38.818  31.823  11.100
44734W        W17159  40.890  36.608  12.081
44735W        W17160  20.554  42.538   2.709
44736W        W17161   4.515   4.687  13.322
44737W        W17162  31.070  30.705  13.071
44738W        W17163  38.349  32.802  13.944
44739W        W17164  29.441  12.674   4.518
44740W        W17165  14.984   4.672   0.320
44741W        W17166   5.325  14.905   1.806
44742W        W17167  20.596   7.358   2.712
44743W        W17168   9.842  13.221  11.597
44744W        W17169  40.849  22.745   1.160
44745W        W17170  44.310  24.173   3.102
44746W        W17171  30.751  33.940  10.776
44747W        W17172  42.864  12.207  14.567
44748W        W17173  32.929   0.749   4.079
44749W        W17174  34.139  17.372   2.332
44750W        W17175  19.996   2.262  14.409
44751W        W17176  43.714  43.954  10.782
44752W        W17177   8.788   8.128   3.271
44753W        W17178  10.520  24.930  10.247
44754W        W17179  21.985   9.422   4.465
44755W        W17180   5.321  19.135   4.998
44756W        W17181  15.551   2.482  12.862
44757W        W17182  39.946  14.059  13.065
44758W        W17183  26.587  19.654  12.027
44759W        W17184  27.444  30.865   4.179
44760W        W17185  28.438   1.402  12.514
44761W        W17186  23.747   0.366   4.644
44762W        W17187  25.474  43.207  11.768
44763W        W17188   5.970   6.114  13.864
44764W        W17189  43.208  34.567  14.500
44765W        W17190  10.798  16.349   3.846
44766W        W17191  18.152  29.069  11.180
44767W        W17192  26.095  32.066   4.981
44768W        W17193  16.362  14.833  12.157
44769W        W17194   1.355  43.344   0.668
44770W        W17195   2.323  36.098  13.863
44771W        W17196   0.711   1.235  14.340
44772W        W17197   9.935  37.746   3.349
44773W        W17198  12.306   1.044  14.757
44774W        W17199  27.185  27.630   1.889
44775W        W17200   7.343  26.730   4.574
44776W        W17201   6.351  33.046   4.673
44777W        W17202  14.230  10.209   2.754
44778W        W17203  39.725  28.559  14.165
44779W        W17204  23.555  12.491  12.795
44780W        W17205   9.170  29.170  14.355
44781W        W17206  22.047  40.318  14.272
44782W        W17207   6.017  33.567   2.218
44783W        W17208  30.894   1.819   4.822
44784W        W17209  36.946  17.489   4.880
44785W        W17210  27.440  24.943  13.444
44786W        W17211   5.181   8.301  11.709
44787W        W17212  22.186   9.654  13.031
44788W        W17213  15.370  26.446  12.137
44789W        W17214  10.124   0.254  10.696
44790W        W17215  12.730  27.929  11.195
44791W        W17216  24.103  23.787   2.683
44792W        W17217  17.825  38.876   0.929
44793W        W17218  24.575  14.066   2.723
44794W        W17219  31.957   4.480   4.682
44795W        W17220  39.383   1.645  10.771
44796W        W17221   3.187   7.939   0.031
44797W        W17222  22.615  23.573  12.177
44798W        W17223   3.013  16.531   2.198
44799W        W17224  27.233  23.693   0.912
44800W        W17225  16.345  29.880   0.367
44801W        W17226  15.779   6.909   0.409
44802W        W17227  26.756  11.419   0.706
44803W        W17228  33.810  17.500  11.210
44804W        W17229  36.120  32.058   5.162
44805W        W17230  20.592  34.883  12.167
44806W        W17231  12.753  14.828  12.942
44807W        W17232   5.929  18.665  14.794
44808W        W17233  41.500  17.435  13.917
44809W        W17234  36.314  41.140  11.002
44810W        W17235   0.764  20.091  11.467
44811W        W17236  43.910   3.236   0.944
44812W        W17237  27.727  22.011  10.630
44813W        W17238  31.020  28.378   3.602
44814W        W17239  36.331  11.851  13.291
44815W        W17240  30.096   8.574  12.815
44816W        W17241  38.403  43.362  14.889
44817W        W17242  16.601  36.354   4.946
44818W        W17243  26.411  21.088   0.756
44819W        W17244   3.061   9.361  11.048
44820W        W17245   4.742  31.347  14.717
44821W        W17246  15.186  31.048   0.815
44822W        W17247  17.690  33.635  14.813
44823W        W17248  22.881  40.349   3.296
44824W        W17249  28.453   4.707   0.036
44825W        W17250   7.600   8.351   0.872
44826W        W17251  24.968  37.856  14.124
44827W        W17252  30.800  17.304  12.529
44828W        W17253  21.714  12.989   4.195
44829W        W17254   9.857  31.134  11.935
44830W        W17255  15.130  36.473   0.086
44831W        W17256  39.511  30.842   2.806
44832W        W17257   0.931  22.835   2.981
44833W        W17258  40.063   0.988   4.743
44834W        W17259  40.476  24.702  11.118
44835W        W17260  27.940  13.177  14.453
44836W        W17261   2.824   5.300   3.096
44837W        W17262  43.338  38.509  12.038
44838W        W17263  37.842  32.975  15.000
44839W        W17264  36.537  10.151  14.271
44840W        W17265  19.391  21.329   4.447
44841W        W17266  38.350   1.686   2.283
44842W        W17267  42.105  16.225   4.658
44843W        W17268  25.741   4.914   1.223
44844W        W17269  37.580   6.133   2.642
44845W        W17270   6.824  23.059  13.838
44846W        W17271  17.047   9.312   0.297
44847W        W17272   1.834   1.945  11.557
44848W        W17273  16.351  17.607   4.526
44849W        W17274  23.963  39.194  14.189
44850W        W17275  35.026  23.965  14.742
44851W        W17276  25.701  33.329  12.861
44852W        W17277   6.437  41.933   4.852
44853W        W17278  21.080  19.769   1.621
44854W        W17279  36.421   3.211   4.566
44855W        W17280  23.453  26.664   0.724
44856W        W17281  33.601  32.302   1.855
44857W        W17282   1.148  38.344   3.209
44858W        W17283  26.106   2.440  14.860
44859W        W17284  12.170  43.882  10.556
44860W        W17285  44.265  37.361  10.215
44861W        W17286  29.670  24.682   1.242
44862W        W17287  37.439  22.112   0.932
44863W        W17288  10.121  32.859  11.495
44864W        W17289   2.411  18.639  13.993
44865W        W17290   5.862  25.589  13.043
44866W        W17291  42.595  24.141  11.739
44867W        W17292  23.720   2.283  13.924
44868W        W17293  33.830  27.899  13.403
44869W        W17294   1.698  27.353   1.436
44870W        W17295   3.284  27.050   2.276
44871W        W17296  20.041  10.970  14.767
44872W        W17297  43.038  43.266  13.518
44873W        W17298  10.528   9.807  11.189
44874W        W17299  15.117  15.438   3.746
44875W        W17300  25.479  10.139   2.035
44876W        W17301  39.825  28.919  10.689
44877W        W17302  12.709  26.512  12.512
44878W        W17303  44.698  24.149  13.863
44879W        W17304  16.272   1.884   4.766
44880W        W17305  40.237  31.618  11.216
44881W        W17306  36.362   2.004  11.603
44882W        W17307   9.695  36.354   1.240
44883W        W17308  13.204  15.430   4.569
44884W        W17309  40.499   3.843   0.266
44885W        W17310  42.447   4.063   3.193
44886W        W17311   6.449  30.093   3.624
44887W        W17312  41.329  10.864  12.461
44888W        W17313   2.394  35.440   4.608
44889W        W17314  16.689  17.793  11.615
44890W        W17315  26.153  11.661  10.655
44891W        W17316  19.611  42.537   4.000
44892W        W17317  33.698  23.149   0.806
44893W        W17318  26.738  26.589   2.566
44894W        W17319  25.082  24.612   3.720
44895W        W17320  19.260  11.633  14.888
44896W        W17321  32.657  25.024   4.069
44897W        W17322   7.275  40.972   0.398
44898W        W17323  32.575  23.435  13.908
44899W        W17324  16.389   8.615  14.017
44900W        W17325  30.896  28.184   2.685
44901W        W17326   8.714  10.277   2.678
44902W        W17327   9.324  17.354  11.916
44903W        W17328  22.453  36.041   3.753
44904W        W17329  19.831  21.353  12.691
44905W        W17330  38.223   8.159   1.433
44906W        W17331  14.712  13.466   4.936
44907W        W17332   7.313  41.877  13.788
44908W        W17333  35.623   3.945   1.402
44909W        W17334  18.799  14.843  14.949
44910W        W17335  41.010  23.195   1.380
44911W        W17336   2.941  10.153  12.577
44912W        W17337  37.969  43.415  13.881
44913W        W17338  43.905   3.732   3.197
44914W        W17339   3.732  35.021  13.935
44915W        W17340  29.585  34.891   2.420
44916W        W17341  25.173  28.578   0.459
44917W        W17342  43.418  13.172  11.525
44918W        W17343  32.612  37.044   0.941
44919W        W17344   4.645  35.908   0.905
44920W        W17345   4.024  39.753   1.830
44921W        W17346  22.547  15.017  10.322
44922W        W17347  37.302  34.819  10.399
44923W        W17348  38.100  19.076  13.448
44924W        W17349  15.059  32.104   0.844
44925W        W17350   3.290  35.578   2.378
44926W        W17351  25.817  31.963   5.397
44927W        W17352   1.374  12.090   2.241
44928W        W17353  43.805  16.609   3.084
44929W        W17354  39.761   5.348  13.727
44930W        W17355  18.182   5.488  10.325
44931W        W17356  38.214   5.496  11.204
44932W        W17357  20.510  28.977  12.332
44933W        W17358   7.187   6.896   3.692
44934W        W17359  13.136  24.255  10.584
44935W        W17360  10.327  12.755   0.741
44936W        W17361   5.126   0.711  13.430
44937W        W17362  22.160  10.432  14.205
44938W        W17363  37.335  30.704  14.744
44939W        W17364  38.374  22.279   0.263
44940W        W17365  41.441   7.857  14.379
44941W        W17366  36.314  21.536   1.238
44942W        W17367  18.237  26.235   4.677
44943W        W17368  26.208  25.919   0.765
44944W        W17369  41.296  35.011  10.735
44945W        W17370  36.970   2.082   2.159
44946W        W17371  25.194  27.046  12.695
44947W        W17372  36.904  41.838   0.998
44948W        W17373  22.305  28.595  12.834
44949W        W17374  30.124  12.705  12.020
44950W        W17375  16.094   1.559   3.317
44951W        W17376   7.231  28.151  10.978
44952W        W17377  19.095  22.506   0.739
44953W        W17378  16.062  20.467   3.561
44954W        W17379  40.478  40.468  14.072
44955W        W17380  27.619  41.171   2.630
44956W        W17381  27.106  32.817   0.023
44957W        W17382  13.649  12.405   3.613
44958W        W17383  28.228   0.540   1.421
44959W        W17384  16.513  35.002  14.888
44960W        W17385  23.566  12.023  11.032
44961W        W17386  19.019  26.016   1.013
44962W        W17387  20.174  16.851  14.358
44963W        W17388  25.777  32.517   3.200
44964W        W17389  39.899  28.448  13.684
44965W        W17390  27.280   6.429  14.894
44966W        W17391  22.070   8.392   1.222
44967W        W17392  28.175  12.567  14.398
44968W        W17393   2.434   5.064  11.187
44969W        W17394  31.827  21.232   0.293
44970W        W17395  37.900   5.097  13.518
44971W        W17396  24.122  40.730  10.589
44972W        W17397  22.433   2.267  10.598
44973W        W17398   5.339  11.558  11.026
44974W        W17399  27.698  20.272  10.728
44975W        W17400   7.208  38.616   3.397
44976W        W17401  16.154  26.681   0.037
44977W        W17402  31.636   0.387   1.269
44978W        W17403  39.553   9.620  14.478
44979W        W17404  29.225  38.488   4.104
44980W        W17405  26.666   7.908   0.368
44981W        W17406   7.581  20.758  13.874
44982W        W17407  37.808  21.097   3.364
44983W        W17408  43.619   3.403  12.067
44984W        W17409  24.172  15.295   2.851
44985W        W17410  30.459  35.265  13.870
44986W        W17411   6.229  31.867   4.063
44987W        W17412  28.035  37.454  12.171
44988W        W17413   1.231  34.927   4.845
44989W        W17414  27.907  40.438  14.914
44990W        W17415   6.969  21.141  12.908
44991W        W17416  22.716  10.015   2.468
44992W        W17417  37.311   9.367   2.850
44993W        W17418  11.940   6.824  10.838
44994W        W17419  16.081  12.621  14.747
44995W        W17420  26.278  15.136   1.228
44996W        W17421  25.851   6.848  10.472
44997W        W17422   9.278  33.612   3.200
44998W        W17423  14.186  14.844   3.109
44999W        W17424   0.406   7.214  14.992
45000W        W17425  27.099  27.621  11.569
45001W        W17426  17.128  38.340  13.468
45002W        W17427   2.740  28.498   0.824
45003W        W17428  11.838  24.932   3.238
45004W        W17429  29.127  33.315   1.902
45005W        W17430   9.753  29.047  14.859
45006W        W17431   8.194  31.996   3.332
45007W        W17432  18.242  16.317  11.060
45008W        W17433  26.691  37.292  14.763
45009W        W17434  43.274  21.866  10.213
45010W        W17435   9.381  38.408   2.802
45011W        W17436  24.880  11.440   4.194
45012W        W17437  27.883  25.755   2.325
45013W        W17438  33.463  28.608  10.382
45014W        W17439   4.860  10.793  13.581
45015W        W17440  14.226  28.162   4.301
45016W        W17441   1.377  30.538  13.574
45017W        W17442  16.143  13.569  12.556
45018W        W17443  33.423  18.321  13.235
45019W        W17444  11.008   3.097   4.574
45020W        W17445  18.472  36.099   0.945
45021W        W17446  37.334  43.720  12.982
45022W        W17447  38.822  30.066   1.328
45023W        W17448  29.783   6.213  12.049
45024W        W17449  21.172  43.421   2.206
45025W        W17450  30.102  43.419   4.869
45026W        W17451  19.505  32.375   2.391
45027W        W17452  21.024  11.726  12.595
45028W        W17453  35.409   5.885  12.174
45029W        W17454  36.876  29.104  11.026
45030W        W17455  29.575  23.465  14.834
45031W        W17456  11.018  30.081   4.230
45032W        W17457  35.914  40.227  13.573
45033W        W17458  29.546   2.927   1.452
45034W        W17459  28.620   2.015   3.827
45035W        W17460  14.330  16.038   2.867
45036W        W17461  14.473  20.967  12.484
45037W        W17462  11.379  25.141   4.161
45038W        W17463  24.180  32.771   1.570
45039W        W17464  16.575  39.630  11.953
45040W        W17465   8.334  15.928   3.914
45041W        W17466   0.361  33.344  13.503
45042W        W17467  33.091  27.540  12.163
45043W        W17468  40.239  34.954   2.171
45044W        W17469  27.930   0.406   4.153
45045W        W17470   3.408  44.241   1.731
45046W        W17471  38.124  14.128  14.352
45047W        W17472   1.159  32.078   0.490
45048W        W17473  41.163   6.218   1.320
45049W        W17474   7.230  21.006  11.219
45050W        W17475  38.022  34.435   0.922
45051W        W17476  35.270   9.221   5.579
45052W        W17477  22.066   3.602   0.296
45053W        W17478  42.980  28.184  11.725
45054W        W17479  18.805  31.351  11.637
45055W        W17480  26.689  42.768  14.134
45056W        W17481  35.544  25.410  12.090
45057W        W17482   4.897  10.440   4.460
45058W        W17483  15.415  32.948   0.439
45059W        W17484  14.764  21.620   3.849
45060W        W17485  36.120  15.163   2.484
45061W        W17486  13.333   3.832  13.567
45062W        W17487  11.748  35.135   2.793
45063W        W17488  36.056  10.852  11.756
45064W        W17489   5.439  16.931  14.057
45065W        W17490  28.565  24.219  12.043
45066W        W17491  26.685   5.970   3.298
45067W        W17492  39.801  18.301   2.900
45068W        W17493  16.511  37.692  12.350
45069W        W17494   9.185   4.435   2.750
45070W        W17495  42.391  15.087  12.492
45071W        W17496  31.456   1.702   1.671
45072W        W17497   7.922  14.774  10.713
45073W        W17498   8.521  20.190  10.811
45074W        W17499  34.869  32.899  13.931
45075W        W17500   9.246  29.496   3.123
45076W        W17501  40.298  43.937  13.068
45077W        W17502  15.890  36.355   5.035
45078W        W17503  22.750  31.888  11.576
45079W        W17504  43.990  29.424   0.892
45080W        W17505   1.493  37.657   1.695
45081W        W17506  44.710   1.200   2.282
45082W        W17507   6.974  43.974  11.225
45083W        W17508  23.163   5.081   3.816
45084W        W17509   3.722   9.893   1.247
45085W        W17510  35.385  29.106   1.364
45086W        W17511  11.086  41.896  10.608
45087W        W17512  23.610   9.623   5.051
45088W        W17513  38.917  11.647  13.777
45089W        W17514  32.393  42.338  14.293
45090W        W17515  43.655   1.268  14.481
45091W        W17516  13.324   8.298  13.313
45092W        W17517  16.196  13.850   1.293
45093W        W17518  15.737  32.397  12.493
45094W        W17519  13.226   9.541  11.185
45095W        W17520   9.623  17.080  14.733
45096W        W17521   2.309  43.755  11.925
45097W        W17522  12.884  38.589  14.378
45098W        W17523   5.671  19.188   4.611
45099W        W17524  37.873  28.079  11.622
45100W        W17525  32.038   1.421  10.964
45101W        W17526   9.163  39.705  13.411
45102W        W17527  15.873  39.939  12.434
45103W        W17528  27.466  17.987   3.714
45104W        W17529  38.306  28.441  14.298
45105W        W17530  19.090  12.083   3.150
45106W        W17531  20.960   5.453  11.885
45107W        W17532   8.941  18.589   0.868
45108W        W17533  19.717   4.524  14.723
45109W        W17534  18.219   7.321   0.143
45110W        W17535   7.301   4.285  12.633
45111W        W17536   3.099  21.260  10.132
45112W        W17537  41.446   4.305   2.820
45113W        W17538  30.879  28.163   1.335
45114W        W17539   7.757  42.746   2.698
45115W        W17540  25.657  14.766  14.464
45116W        W17541  35.426  27.969  13.877
45117W        W17542  24.865  39.523   2.748
45118W        W17543  34.366  21.700   1.423
45119W        W17544   7.350  23.675   1.422
45120W        W17545  11.224  35.882   2.613
45121W        W17546  25.988  21.941  14.979
45122W        W17547  21.111   8.637   0.207
45123W        W17548  30.985   2.417   3.261
45124W        W17549  26.798  30.277   2.732
45125W        W17550  10.729   6.559  13.597
45126W        W17551  25.757  34.163   0.807
45127W        W17552  25.563  23.536   4.633
45128W        W17553  28.017  34.491  12.940
45129W        W17554   0.801   2.265   1.709
45130W        W17555  13.777   5.684  10.776
45131W        W17556  42.015   4.263   4.599
45132W        W17557   9.201  19.788  12.900
45133W        W17558   3.707   9.653  14.789
45134W        W17559  36.899  43.865  13.413
45135W        W17560  38.937  19.090   0.610
45136W        W17561  11.366   0.994  13.257
45137W        W17562  37.221  42.492   2.915
45138W        W17563   3.866   2.107   4.112
45139W        W17564   5.160  41.431  14.268
45140W        W17565   1.287   4.875  10.539
45141W        W17566  29.812  26.583  13.273
45142W        W17567  27.343  23.982   1.901
45143W        W17568  17.071   4.948  13.480
45144W        W17569  37.581  27.052   2.239
45145W        W17570   7.756  19.093   2.729
45146W        W17571  14.345  28.412   3.746
45147W        W17572  19.202  34.571   1.047
45148W        W17573  29.906  14.352   0.287
45149W        W17574   7.932  10.082  14.328
45150W        W17575  34.572  43.348   0.870
45151W        W17576  14.306  23.180  13.438
45152W        W17577  19.561  25.448  13.460
45153W        W17578   2.798  38.465  14.971
45154W        W17579   8.628  11.678  13.785
45155W        W17580  44.591   0.447   3.158
45156W        W17581   0.723   6.639  10.522
45157W        W17582  14.601  27.088   0.852
45158W        W17583   1.758  39.023   3.188
45159W        W17584  42.072   5.335   4.375
45160W        W17585  14.141  44.750   4.315
45161W        W17586  33.951  32.886   4.691
45162W        W17587  13.113  26.128   2.657
45163W        W17588  33.504   0.985   4.198
45164W        W17589  13.108  37.059  12.683
45165W        W17590  26.206  24.861   3.674
45166W        W17591   6.466  18.261   4.060
45167W        W17592  32.620  26.090   4.778
45168W        W17593  21.140   5.405  10.922
45169W        W17594  12.523   7.581  14.476
45170W        W17595  29.488   7.657  11.146
45171W        W17596  34.829  43.551  10.688
45172W        W17597  22.853   4.863  10.088
45173W        W17598  43.274  12.751  14.948
45174W        W17599   6.801  31.898   2.194
45175W        W17600  40.598  26.540   2.003
45176W        W17601  22.428  19.492   3.334
45177W        W17602  36.066   2.682   3.568
45178W        W17603  13.181  41.029  14.837
45179W        W17604  11.338  26.964  13.880
45180W        W17605  30.165  32.910  13.890
45181W        W17606  11.281  39.226  14.524
45182W        W17607  39.544  28.066   4.650
45183W        W17608  41.263  33.492   2.427
45184W        W17609  20.031   0.819   0.819
45185W        W17610  42.957   9.828   2.602
45186W        W17611  39.949  43.204  10.761
45187W        W17612   7.036   4.270  11.170
45188W        W17613  26.050  34.492   0.513
45189W        W17614  25.101  23.087   0.297
45190W        W17615  40.124  26.357   1.865
45191W        W17616  35.823  35.310   3.241
45192W        W17617  30.475  17.253  12.116
45193W        W17618  17.050  20.315   4.121
45194W        W17619  14.180  15.746  14.769
45195W        W17620  42.911   1.745  10.769
45196W        W17621  43.894  41.995   2.686
45197W        W17622  21.547   3.501   0.426
45198W        W17623   7.666  20.575  10.647
45199W        W17624  12.682  21.291   0.691
45200W        W17625  43.252  11.128  11.498
45201W        W17626  43.786  37.536   3.516
45202W        W17627  34.562  31.411  13.479
45203W        W17628  27.183   4.413  13.876
45204W        W17629  20.396   9.693   2.436
45205W        W17630  16.838  37.341   2.187
45206W        W17631   4.489  22.517  14.936
45207W        W17632  26.786  24.303  13.994
45208W        W17633  30.127  21.708  11.897
45209W        W17634  34.483   2.932   1.298
45210W        W17635  11.130  30.461  10.460
45211W        W17636  16.258  33.302   1.451
45212W        W17637  36.674  35.623   4.297
45213W        W17638  24.474  11.330   1.353
45214W        W17639  17.340   3.488   9.865
45215W        W17640  36.950  19.647   2.608
45216W        W17641  27.667   7.172   1.760
45217W        W17642  39.756  33.390   1.242
45218W        W17643  41.493   2.398   2.987
45219W        W17644  25.551   5.778   3.625
45220W        W17645  35.907  35.963   2.362
45221W        W17646  22.471  16.236  12.162
45222W        W17647   9.990   2.431  13.424
45223W        W17648   1.175   0.690   3.795
45224W        W17649   6.794  32.868   3.216
45225W        W17650  13.147  35.534   3.672
45226W        W17651   4.935   0.214  13.395
45227W        W17652  15.953  11.079   3.659
45228W        W17653  30.883   9.158   4.740
45229W        W17654  22.519  35.083   0.806
45230W        W17655  34.436  11.223   2.262
45231W        W17656  32.597  21.970  13.450
45232W        W17657  17.143   3.996   3.661
45233W        W17658  34.456   2.429   3.159
45234W        W17659  39.663  18.215  10.639
45235W        W17660   7.146  39.554  10.666
45236W        W17661   3.717   2.948  13.100
45237W        W17662   2.248   9.913   2.380
45238W        W17663  22.048  41.251  12.024
45239W        W17664  38.506  16.210  11.226
45240W        W17665  21.937  31.425  10.793
45241W        W17666  12.646  44.372   1.175
45242W        W17667  13.826  31.546  14.911
45243W        W17668  38.939   7.754   1.462
45244W        W17669  42.653  32.004  13.843
45245W        W17670   7.707   1.556  11.571
45246W        W17671  30.302  13.716  12.414
45247W        W17672  21.682  25.527  11.422
45248W        W17673  41.381  23.219   3.636
45249W        W17674   4.739  16.318   4.854
45250W        W17675   4.216   2.022  10.799
45251W        W17676  36.371  42.355   2.675
45252W        W17677  28.952   6.779   0.432
45253W        W17678  16.797   1.408   4.057
45254W        W17679  30.843   0.987  11.575
45255W        W17680  25.630  18.817  13.573
45256W        W17681  28.188  34.298  13.401
45257W        W17682  15.277  13.271   3.596
45258W        W17683   0.001  27.763   1.840
45259W        W17684   6.685  15.629  13.332
45260W        W17685  11.124  32.975   0.968
45261W        W17686  15.204   1.049   3.096
45262W        W17687  25.005  13.113  13.432
45263W        W17688  16.824  11.624   1.416
45264W        W17689   8.590   7.347  11.171
45265W        W17690  24.124  32.446  14.376
45266W        W17691  44.563   7.098  14.045
45267W        W17692  44.896  18.816  12.573
45268W        W17693  39.869  29.982  11.545
45269W        W17694  22.312  10.665  11.863
45270W        W17695  28.864  37.974  10.646
45271W        W17696  12.551  26.204  10.397
45272W        W17697  24.603  27.905   4.164
45273W        W17698  33.472  24.083  14.500
45274W        W17699  38.419   9.316  10.519
45275W        W17700  41.825  35.127  11.489
45276W        W17701  23.228  35.218  12.923
45277W        W17702  17.284  41.851   0.731
45278W        W17703  24.610  37.620   4.148
45279W        W17704  34.397  26.941   0.474
45280W        W17705  10.046  29.549   0.873
45281W        W17706  25.255   9.617   2.376
45282W        W17707  41.124   7.436  14.356
45283W        W17708  33.193  24.937  13.462
45284W        W17709   3.315   2.724  12.862
45285W        W17710  20.722  39.051   1.288
45286W        W17711   0.858  10.856   2.172
45287W        W17712  22.576   6.686  14.415
45288W        W17713  33.214   6.810  11.062
45289W        W17714  28.980  21.749   1.221
45290W        W17715  19.776  24.492   0.990
45291W        W17716  27.753   4.912   0.492
45292W        W17717  26.460  31.324   1.770
45293W        W17718   4.763   8.783  10.068
45294W        W17719   8.793  41.390  10.726
45295W        W17720   8.345   3.255   1.484
45296W        W17721  34.557  19.291  12.265
45297W        W17722  31.047   5.269   2.630
45298W        W17723  28.994  39.382  10.265
45299W        W17724  14.779  29.177  13.988
45300W        W17725  23.206  18.801   2.791
45301W        W17726  33.488  25.668   3.059
45302W        W17727  28.203   2.423   2.888
45303W        W17728   0.227   7.936  10.482
45304W        W17729   3.403  40.251   2.524
45305W        W17730  14.903  41.113   0.697
45306W        W17731  27.055  41.794  13.945
45307W        W17732  21.817   9.903   4.496
45308W        W17733  30.644  18.878   4.149
45309W        W17734  13.734  32.036   2.807
45310W        W17735  11.446  31.819  10.550
45311W        W17736  26.293  42.327   0.822
45312W        W17737  29.959   3.692  14.687
45313W        W17738  39.581  44.095   3.521
45314W        W17739   0.365  33.024  11.150
45315W        W17740  19.512   9.141  14.772
45316W        W17741   7.382  17.081   3.241
45317W        W17742   1.257  32.347  13.342
45318W        W17743  35.604  42.982  13.889
45319W        W17744  16.342  44.553  14.304
45320W        W17745   3.378  20.126   1.277
45321W        W17746  34.620   7.529   4.734
45322W        W17747  19.437  23.631  11.106
45323W        W17748   5.939   7.805  11.543
45324W        W17749  17.215  32.407   0.922
45325W        W17750  37.975  41.542  14.785
45326W        W17751  44.394  42.065  12.858
45327W        W17752  41.377  31.864  11.781
45328W        W17753  16.986  43.296  11.626
45329W        W17754  29.921  10.476  13.937
45330W        W17755   7.169   0.780  13.546
45331W        W17756  44.375  33.717  10.266
45332W        W17757  15.322  30.380  14.263
45333W        W17758   7.350  28.083   2.375
45334W        W17759  13.447  14.165   4.112
45335W        W17760  26.245  40.838  12.538
45336W        W17761  33.612  22.723   1.178
45337W        W17762  18.598  30.589  12.015
45338W        W17763  15.069  14.565   2.915
45339W        W17764   3.730  23.992  13.461
45340W        W17765  20.573   1.272   0.281
45341W        W17766  40.280   9.185  11.062
45342W        W17767  10.162   3.719  11.666
45343W        W17768  33.171   1.968  13.045
45344W        W17769  19.062  22.170  12.035
45345W        W17770  41.149  26.247  13.923
45346W        W17771   9.943  28.678   2.355
45347W        W17772  22.988  24.056   2.377
45348W        W17773  22.661  15.190  14.894
45349W        W17774  21.017   0.271  12.661
45350W        W17775  32.599  42.339   2.026
45351W        W17776   2.230  41.500  14.314
45352W        W17777  31.680  34.121   4.564
45353W        W17778  27.068  29.440   1.272
45354W        W17779  35.045  41.993  13.631
45355W        W17780   2.932  43.787   1.297
45356W        W17781   3.300  21.582   0.062
45357W        W17782   2.979  21.146  12.977
45358W        W17783   1.694   2.584   4.059
45359W        W17784  15.067   9.748  10.570
45360W        W17785  15.738   5.630   4.473
45361W        W17786   0.009   3.481   0.368
45362W        W17787  25.573  19.790  14.759
45363W        W17788  42.868  34.313  11.030
45364W        W17789  31.589   6.467  14.890
45365W        W17790  31.353  33.461  12.359
45366W        W17791   8.879   5.649  13.987
45367W        W17792  22.176  14.701  12.110
45368W        W17793   9.206  30.926   4.314
45369W        W17794  27.376  12.883  12.418
45370W        W17795   9.849   0.651  13.869
45371W        W17796   8.349  14.490  12.919
45372W        W17797  36.580  38.277  14.867
45373W        W17798  39.543   0.804   3.583
45374W        W17799   6.152   9.400  12.836
45375W        W17800  19.622  23.313  14.508
45376W        W17801  36.572   4.341  11.152
45377W        W17802  37.047  22.663   2.049
45378W        W17803   3.331   7.210  12.077
45379W        W17804  42.107  22.805   5.493
45380W        W17805  39.266  13.140  10.640
45381W        W17806  39.275  10.788  13.988
45382W        W17807  26.634   4.137  10.890
45383W        W17808  30.526  29.595   0.030
45384W        W17809  20.982  43.050   1.260
45385W        W17810   0.368  28.657  14.747
45386W        W17811   2.812  22.113   0.353
45387W        W17812  37.890  33.925   1.028
45388W        W17813  23.056  29.397   3.648
45389W        W17814   6.264   0.618   0.091
45390W        W17815  44.998  39.788   4.134
45391W        W17816  22.210  13.313  12.008
45392W        W17817  31.684  33.772   4.949
45393W        W17818   0.780  10.226   3.236
45394W        W17819  38.601   0.381   4.298
45395W        W17820  39.882  20.184   3.420
45396W        W17821  11.748  28.418   0.327
45397W        W17822  43.530   5.691   2.123
45398W        W17823  25.152  36.807  14.848
45399W        W17824  15.724  38.812   0.052
45400W        W17825  15.207  33.944   3.635
45401W        W17826  12.744   2.904   1.776
45402W        W17827  23.517  33.654   2.763
45403W        W17828  14.047  11.753   1.322
45404W        W17829  37.178  31.341   2.368
45405W        W17830  24.141  10.622  14.304
45406W        W17831  43.225   1.917   3.324
45407W        W17832  18.366  39.047  11.121
45408W        W17833  34.520  12.518  10.174
45409W        W17834  28.502  21.030   1.324
45410W        W17835  11.205  20.164   4.200
45411W        W17836  38.866  19.714   3.669
45412W        W17837   3.604   7.842  13.308
45413W        W17838  26.504  25.684   5.020
45414W        W17839  19.435  38.362  14.083
45415W        W17840  43.266  20.015   4.031
45416W        W17841   7.791  42.768   4.065
45417W        W17842  11.272   6.830   2.605
45418W        W17843  11.857   4.858   2.314
45419W        W17844  29.935   3.307  12.908
45420W        W17845   6.248  30.441  12.172
45421W        W17846  15.608  13.383  12.803
45422W        W17847  32.034  17.439   1.807
45423W        W17848  22.110   0.185   0.306
45424W        W17849  13.839   2.465   4.596
45425W        W17850  21.782  18.061  14.422
45426W        W17851  13.768  14.617  14.859
45427W        W17852  29.212  31.062  13.644
45428W        W17853  25.113  27.006  11.740
45429W        W17854  44.579  12.742   2.308
45430W        W17855  38.297   9.437   2.741
45431W        W17856  34.924  17.072   4.064
45432W        W17857  32.102  43.691  13.382
45433W        W17858  24.739  12.665   4.780
45434W        W17859   7.854  19.975  14.889
45435W        W17860   4.211   6.414  13.129
45436W        W17861  23.041  28.508   3.865
45437W        W17862  44.331   0.911  11.535
45438W        W17863  10.573   8.348  12.474
45439W        W17864  10.348  30.952  11.673
45440W        W17865   4.968  42.248  12.541
45441W        W17866  30.898  34.269   4.075
45442W        W17867   1.419  44.864  14.024
45443W        W17868  14.573  41.051  13.332
45444W        W17869  37.965  37.525  14.315
45445W        W17870  33.389  41.390  14.409
45446W        W17871  38.423   8.219   1.890
45447W        W17872  27.099  18.224   0.497
45448W        W17873  14.372   9.475  11.262
45449W        W17874   1.948   2.150   3.203
45450W        W17875  36.024   2.396  11.599
45451W        W17876   3.291  21.851  14.064
45452W        W17877  18.808   0.811   2.149
45453W        W17878  44.853  18.927  11.435
45454W        W17879  39.474  11.898  13.914
45455W        W17880  37.026  40.817   3.307
45456W        W17881  14.400  37.717  11.109
45457W        W17882  16.943  40.112   2.502
45458W        W17883  28.072  39.947   3.174
45459W        W17884  32.322  12.749   2.431
45460W        W17885  16.135   2.613   2.552
45461W        W17886  24.111  44.488   2.750
45462W        W17887  13.867  24.101  12.431
45463W        W17888  43.713  21.665  11.568
45464W        W17889  18.192  42.715  13.395
45465W        W17890  44.700  21.498  13.069
45466W        W17891  27.937  17.949  13.315
45467W        W17892   4.244  43.887  14.940
45468W        W17893  11.320   0.736  12.817
45469W        W17894  32.945  39.536  14.943
45470W        W17895  20.481  18.953   0.332
45471W        W17896  29.500  25.546   5.071
45472W        W17897   1.114  13.774  11.074
45473W        W17898   2.962  33.059   1.925
45474W        W17899  11.041  18.052   2.800
45475W        W17900  37.483   9.997  14.432
45476W        W17901  14.696  11.384   1.286
45477W        W17902  43.931  11.782  11.923
45478W        W17903  37.537   0.410  10.530
45479W        W17904  37.505  44.807   2.579
45480W        W17905  43.299  19.260  11.607
45481W        W17906  30.508  36.003   3.715
45482W        W17907  36.974  44.217   0.186
45483W        W17908   2.335  37.193   2.590
45484W        W17909  17.292  41.335  14.408
45485W        W17910  44.355  34.094   0.488
45486W        W17911  10.720  26.116  13.930
45487W        W17912  32.481  21.857  14.948
45488W        W17913  35.372  14.250  10.577
45489W        W17914   3.901  12.396   1.749
45490W        W17915   8.214  10.134   1.353
45491W        W17916  41.893  38.421  11.863
45492W        W17917  37.322   3.353   0.799
45493W        W17918   3.327   6.162  10.555
45494W        W17919  36.453  13.538   0.258
45495W        W17920  34.805  31.014   2.718
45496W        W17921  10.873  24.138  10.528
45497W        W17922  13.581  39.737  14.829
45498W        W17923  27.133   1.000  11.119
45499W        W17924   5.515  22.071  14.854
45500W        W17925  15.163   1.290   1.198
45501W        W17926  40.901  13.824  14.029
45502W        W17927   8.686   3.818  13.551
45503W        W17928  43.778   7.301  13.302
45504W        W17929  44.989  31.641   0.004
45505W        W17930  28.753  27.668  13.331
45506W        W17931  10.105  24.622   3.159
45507W        W17932  36.379   0.553  13.834
45508W        W17933  26.534  13.872  12.492
45509W        W17934  28.978  11.002  13.977
45510W        W17935   3.505   5.852  14.831
45511W        W17936  21.488  22.984  13.091
45512W        W17937  20.556  43.714  14.271
45513W        W17938   5.662  24.072   2.065
45514W        W17939  36.068  40.435   4.933
45515W        W17940   0.353  19.347  10.899
45516W        W17941  29.243  20.160  12.834
45517W        W17942  27.582  29.065  11.317
45518W        W17943  15.595  29.362  11.523
45519W        W17944   1.476  21.434   1.229
45520W        W17945  42.925   7.160  14.071
45521W        W17946  10.786  13.573  12.889
45522W        W17947   8.321  34.431   4.791
45523W        W17948  39.930   5.914   1.301
45524W        W17949  13.219  15.793  14.768
45525W        W17950  31.110  42.251  10.814
45526W        W17951   4.202   0.771   4.852
45527W        W17952  38.966   4.559  13.082
45528W        W17953  12.625  29.612   2.864
45529W        W17954  42.807   0.626   2.150
45530W        W17955  19.395  12.289  11.776
45531W        W17956   0.182  41.726   3.653
45532W        W17957   4.489   9.202   3.399
45533W        W17958  31.688  35.663  11.204
45534W        W17959  22.601  21.542  13.364
45535W        W17960  35.130  13.799  12.069
45536W        W17961  22.656  12.691  13.519
45537W        W17962  38.369  28.189   1.184
45538W        W17963  43.471   4.650  11.235
45539W        W17964  29.180  38.438  10.336
45540W        W17965  35.991  24.887   4.667
45541W        W17966   8.691  13.191   3.695
45542W        W17967  31.954  28.747  14.395
45543W        W17968  27.073  20.288   3.849
45544W        W17969  42.886  44.399   2.980
45545W        W17970   0.976   5.995  11.118
45546W        W17971  44.578   9.418   4.545
45547W        W17972  22.595  26.952  13.580
45548W        W17973  12.875  10.545   1.682
45549W        W17974   2.435  16.694   0.959
45550W        W17975   4.155  14.989   2.197
45551W        W17976  41.816   6.889   2.373
45552W        W17977  13.662  31.027   1.671
45553W        W17978  36.368   2.769  11.108
45554W        W17979  38.265  41.330   4.481
45555W        W17980   1.886  13.837  11.664
45556W        W17981  17.670  35.481  11.214
45557W        W17982  19.062   4.786   2.113
45558W        W17983   8.673   4.889   3.284
45559W        W17984  31.119  19.235   2.842
45560W        W17985  23.948  17.606  12.542
45561W        W17986  29.369  28.926  14.895
45562W        W17987   8.815  21.971  10.901
45563W        W17988   7.929  33.676   3.657
45564W        W17989  42.165  13.939  11.596
45565W        W17990  20.624  35.136  13.969
45566W        W17991  32.870  34.491   2.752
45567W        W17992  43.266  28.912  13.343
45568W        W17993  12.766  43.758   2.409
45569W        W17994  36.246  11.567   0.458
45570W        W17995  41.593  20.997   4.357
45571W        W17996  33.404   0.946  13.435
45572W        W17997  19.303   1.571  13.009
45573W        W17998  35.373  30.932  11.476
45574W        W17999  34.071   8.667   0.726
45575W        W18000   6.456   1.848   1.664
45576W        W18001   8.134  19.366   1.607
45577W        W18002  20.763   1.326  13.066
45578W        W18003  40.373   2.471  14.323
45579W        W18004   0.461  27.356  11.540
45580W        W18005   1.445  27.670  11.077
45581W        W18006  34.533   3.301  14.030
45582W        W18007  20.832  42.514   0.876
45583W        W18008  20.220  41.372   4.150
45584W        W18009  16.147  15.798   4.731
45585W        W18010  14.882  36.150  13.998
45586W        W18011  41.933  29.067  13.566
45587W        W18012  27.053  27.945   5.248
45588W        W18013  17.771   2.781   3.882
45589W        W18014   3.717  17.954  13.837
45590W        W18015  32.650  36.867  13.000
45591W        W18016  39.602   0.758   0.848
45592W        W18017  17.112  27.282   1.014
45593W        W18018  10.371  44.272   0.765
45594W        W18019  27.616  21.082   1.496
45595W        W18020  32.112   2.485  10.648
45596W        W18021  43.716  39.217  10.796
45597W        W18022   4.850  15.818   2.591
45598W        W18023  30.669   5.751   0.311
45599W        W18024  43.955   1.495  12.702
45600W        W18025   6.153  38.193  11.237
45601W        W18026  19.222  13.039  12.984
45602W        W18027   8.143   7.214   4.589
45603W        W18028  24.398  23.011   4.609
45604W        W18029   1.240   9.361   1.030
45605W        W18030   5.894  44.866   4.233
45606W        W18031   4.797  28.834  10.155
45607W        W18032  42.836   5.950  11.048
45608W        W18033  22.917   6.680  11.169
45609W        W18034  38.096  24.096  13.792
45610W        W18035  33.085  16.466   1.886
45611W        W18036  27.589  12.811   2.631
45612W        W18037  31.180  11.623  13.592
45613W        W18038   7.735  28.009   0.648
45614W        W18039  20.556  29.866  12.088
45615W        W18040  38.526   2.350  11.427
45616W        W18041   5.167  20.309   2.922
45617W        W18042  42.823   3.689   0.467
45618W        W18043  26.528  39.978  14.368
45619W        W18044  41.925  16.199  10.341
45620W        W18045  30.555  21.921  11.668
45621W        W18046  28.283  40.427   2.916
45622W        W18047   9.795  42.210   0.283
45623W        W18048  31.618   9.652  14.277
45624W        W18049   0.987   6.811   3.205
45625W        W18050  26.271  36.338   1.054
45626W        W18051   0.046   2.183   4.883
45627W        W18052  25.650  37.972  14.471
45628W        W18053  29.885  12.524  10.456
45629W        W18054   5.866  41.711   1.458
45630W        W18055  31.161  19.887   2.378
45631W        W18056  32.655   9.231   2.679
45632W        W18057   5.298  13.424   4.111
45633W        W18058  43.110  14.539  13.906
45634W        W18059  17.045  39.473   1.736
45635W        W18060  24.123  13.610  14.769
45636W        W18061  36.330  13.150   1.709
45637W        W18062  36.775   3.380  10.806
45638W        W18063  36.518  23.142  12.522
45639W        W18064  38.934  19.651   1.742
45640W        W18065  16.974  14.818   1.857
45641W        W18066  28.966  35.857  11.774
45642W        W18067  34.071  37.859  12.968
45643W        W18068  35.914  30.561  13.732
45644W        W18069  31.896  17.613  11.123
45645W        W18070  11.646  12.098   3.293
45646W        W18071  38.411  16.302  12.987
45647W        W18072  40.293   5.361  13.763
45648W        W18073  41.098  27.147   1.495
45649W        W18074   6.652  19.224  12.903
45650W        W18075  10.127   6.671   5.357
45651W        W18076   4.237  12.886   2.559
45652W        W18077  40.268   4.402   3.218
45653W        W18078  38.316  35.906  13.458
45654W        W18079  13.681  27.047   4.625
45655W        W18080  16.734  16.891   4.869
45656W        W18081  25.655   3.785  10.743
45657W        W18082   7.373  24.756  10.735
45658W        W18083  13.263   8.981  13.947
45659W        W18084  28.883  39.881  10.447
45660W        W18085  26.996   1.328   2.429
45661W        W18086  21.629   3.733   3.790
45662W        W18087  15.350  43.142  14.707
45663W        W18088  21.596  40.435  11.653
45664W        W18089  37.765  17.675  14.422
45665W        W18090  15.223  29.757   1.415
45666W        W18091  34.238  24.976  11.209
45667W        W18092   8.042   2.034   3.311
45668W        W18093   3.911  12.565   5.172
45669W        W18094  42.368  43.816   3.665
45670W        W18095   4.634  25.460  14.431
45671W        W18096  27.492  40.759   4.593
45672W        W18097  13.744  24.697   4.163
45673W        W18098   6.347  39.290  13.131
45674W        W18099  29.600   0.237   1.428
45675W        W18100   6.859  17.555   3.703
45676W        W18101  18.540  32.423  12.449
45677W        W18102  23.533  22.626   3.205
45678W        W18103  19.765  40.581   4.189
45679W        W18104  39.373   1.401   4.745
45680W        W18105  17.201   0.488   4.559
45681W        W18106  44.841  33.456   2.643
45682W        W18107   0.765  33.160  12.385
45683W        W18108   3.825  16.697   2.500
45684W        W18109  27.709  15.464   0.835
45685W        W18110  24.491   6.868   4.642
45686W        W18111   3.441   8.079   0.470
45687W        W18112  29.065   7.810  10.896
45688W        W18113  23.532  30.072  10.333
45689W        W18114   8.457  40.276  10.532
45690W        W18115  35.653  11.450  11.407
45691W        W18116  43.559  32.535  12.910
45692W        W18117  38.902  15.728  11.723
45693W        W18118  11.265  21.231  14.939
45694W        W18119  21.339   9.558   2.361
45695W        W18120  32.864  22.137  12.209
45696W        W18121  28.675   9.722  12.925
45697W        W18122  23.197   5.324  11.114
45698W        W18123  32.908  22.177   3.825
45699W        W18124  16.521   1.895  13.820
45700W        W18125  19.635   9.238  12.554
45701W        W18126  24.105  31.425   0.516
45702W        W18127  14.359  21.949   0.627
45703W        W18128   3.492  25.581  13.013
45704W        W18129  30.619  15.368   3.536
45705W        W18130  10.540  28.090   9.950
45706W        W18131  42.223   8.740  11.095
45707W        W18132  33.032   7.657   1.851
45708W        W18133  17.235  36.149   1.110
45709W        W18134  40.767  33.852  11.889
45710W        W18135  30.530  22.533   3.285
45711W        W18136  38.965  31.308  12.160
45712W        W18137   7.849  34.368   4.566
45713W        W18138  44.099  11.618   3.812
45714W        W18139  40.383   0.301   2.135
45715W        W18140   4.246   1.805  14.796
45716W        W18141  33.780  43.930  14.076
45717W        W18142  19.156   8.587  13.631
45718W        W18143  25.645  31.011   3.954
45719W        W18144   5.206   1.411  11.213
45720W        W18145  31.711  30.550  11.410
45721W        W18146   3.250  19.456  11.597
45722W        W18147  18.703  30.437  12.506
45723W        W18148   6.661  13.005  12.043
45724W        W18149  22.141  43.322   1.272
45725W        W18150   5.841   9.402   3.073
45726W        W18151  14.696  18.713  14.130
45727W        W18152  40.088  18.743   2.768
45728W        W18153  18.597   9.883   4.204
45729W        W18154  39.597  10.185   0.339
45730W        W18155  44.422  15.622  10.643
45731W        W18156  13.304  37.506  12.485
45732W        W18157  20.735  35.868  10.622
45733W        W18158  14.282  27.672  11.934
45734W        W18159  36.572  18.237   2.112
45735W        W18160  13.108  34.115  14.941
45736W        W18161  11.730  41.427  14.381
45737W        W18162  11.648  21.753   3.067
45738W        W18163  13.276   3.266   4.166
45739W        W18164  26.182   7.379  14.488
45740W        W18165  20.554  31.060   1.184
45741W        W18166   2.929   1.380   3.777
45742W        W18167  37.437  17.451   4.123
45743W        W18168  21.647   2.996  12.515
45744W        W18169  19.735   2.300  13.958
45745W        W18170  11.830  34.987   1.838
45746W        W18171  24.174  11.155  10.049
45747W        W18172  13.632   5.852   4.734
45748W        W18173  17.006  41.421  13.008
45749W        W18174  10.269  19.109   2.824
45750W        W18175   6.302  29.027   1.388
45751W        W18176  32.024  39.120  14.570
45752W        W18177  18.659  30.426   0.918
45753W        W18178  34.344  32.918   1.434
45754W        W18179  35.808   8.195   4.030
45755W        W18180  38.296  38.441   2.861
45756W        W18181  16.269  14.943   0.324
45757W        W18182   8.740  34.595   4.556
45758W        W18183  15.966   3.615   2.277
45759W        W18184   2.419  33.260  12.869
45760W        W18185   4.842  38.689   5.019
45761W        W18186   1.717  12.194   2.634
45762W        W18187   6.722  21.249  12.059
45763W        W18188  30.165  27.972  11.271
45764W        W18189  15.591  33.428   0.242
45765W        W18190  24.760  41.886  14.613
45766W        W18191  40.270  35.043   3.140
45767W        W18192  42.868  35.414  12.712
45768W        W18193  39.238  29.563  12.672
45769W        W18194  13.880   6.852  10.588
45770W        W18195  10.710  25.277   2.657
45771W        W18196  26.580  26.663   3.058
45772W        W18197  19.279  41.369   4.095
45773W        W18198  17.789  28.135  12.433
45774W        W18199   7.782   8.290   2.460
45775W        W18200  22.716  29.670  11.944
45776W        W18201  19.968  27.297  11.190
45777W        W18202  28.921  20.566  11.505
45778W        W18203  28.574  21.307   4.879
45779W        W18204   4.889  28.211   4.662
45780W        W18205  18.129  11.366  14.440
45781W        W18206  17.545  26.447   2.462
45782W        W18207  34.554  16.587  12.526
45783W        W18208  42.325   9.761   4.495
45784W        W18209   7.711  25.979   3.745
45785W        W18210  42.856  40.646  10.770
45786W        W18211  44.394  43.943  14.414
45787W        W18212  38.449  22.695  11.560
45788W        W18213  21.945  32.518   3.201
45789W        W18214  38.933  43.800  10.770
45790W        W18215   1.865  23.789   4.937
45791W        W18216   8.102  35.134   4.170
45792W        W18217   2.819  14.239   0.490
45793W        W18218   2.725  13.894   3.183
45794W        W18219  25.896  29.673  11.592
45795W        W18220  13.106   1.031   1.437
45796W        W18221  18.795  27.527   4.753
45797W        W18222   1.446  10.471   4.213
45798W        W18223  22.772  16.601   0.920
45799W        W18224  18.020  11.257  13.064
45800W        W18225  33.844  29.965  12.064
45801W        W18226  21.277   2.581  13.812
45802W        W18227   4.966  36.666   1.202
45803W        W18228  21.517   4.996   3.288
45804W        W18229  39.098  34.609   3.646
45805W        W18230  39.325   1.935  11.618
45806W        W18231  19.317  24.686   4.414
45807W        W18232  39.432  28.925   4.831
45808W        W18233  22.590  13.864  14.832
45809W        W18234   8.459  21.721   4.133
45810W        W18235  24.295  19.324  11.119
45811W        W18236   8.263  19.130  12.911
45812W        W18237  31.355  18.730  14.904
45813W        W18238  38.522  21.460   0.932
45814W        W18239  24.032  41.545  11.024
45815W        W18240  18.815  16.482  10.305
45816W        W18241  16.121   6.658  11.894
45817W        W18242   4.849  35.392   4.552
45818W        W18243  26.513  12.813   0.826
45819W        W18244  26.124   3.648   1.512
45820W        W18245  28.154  28.687   1.806
45821W        W18246  37.026  35.157   1.473
45822W        W18247   2.734  32.183   1.295
45823W        W18248  36.559   2.720   3.346
45824W        W18249  40.703  22.285  12.978
45825W        W18250  40.069  42.015   0.387
45826W        W18251  30.223  32.510   2.605
45827W        W18252  28.757  40.858  14.185
45828W        W18253  34.424  15.135   0.446
45829W        W18254  20.817  11.808   0.369
45830W        W18255  24.215  25.232   1.897
45831W        W18256  22.957  23.034   4.578
45832W        W18257   7.825  15.084  13.478
45833W        W18258  12.137  40.868  11.573
45834W        W18259  42.198  38.742   3.336
45835W        W18260   0.645  41.384  13.176
45836W        W18261  12.184  20.960  14.889
45837W        W18262  30.456  21.000  12.564
45838W        W18263  17.900  33.599   4.619
45839W        W18264  29.000  24.517   1.891
45840W        W18265  30.419  19.597  13.414
45841W        W18266  18.111  17.711   0.289
45842W        W18267  10.501   1.684   0.152
45843W        W18268  19.590  31.334   0.287
45844W        W18269   8.209  31.659   4.247
45845W        W18270  26.015  13.038  12.561
45846W        W18271  12.041  31.461  12.160
45847W        W18272  38.423  33.457  12.871
45848W        W18273  43.691  31.066  13.934
45849W        W18274   8.333  38.450   5.079
45850W        W18275  25.970  25.517   2.589
45851W        W18276  40.482  31.841  11.646
45852W        W18277  38.929  40.305   3.552
45853W        W18278  36.603  39.303  11.701
45854W        W18279   6.592  17.094  13.393
45855W        W18280   2.775  13.318  13.439
45856W        W18281  25.008   6.117   2.023
45857W        W18282  14.593  19.795   0.409
45858W        W18283  11.437  14.516  13.444
45859W        W18284  38.103  13.308   3.876
45860W        W18285  37.272  38.880  13.549
45861W        W18286   6.388  35.407   1.508
45862W        W18287  37.140  14.634  13.503
45863W        W18288  42.346  30.897  13.810
45864W        W18289  21.510   5.924   1.879
45865W        W18290  37.422  34.481  12.586
45866W        W18291  36.043   5.713  11.920
45867W        W18292  22.273  32.140  14.502
45868W        W18293   9.833  10.646  14.962
45869W        W18294  18.807  38.559   0.435
45870W        W18295  37.420  16.095  12.358
45871W        W18296  14.374  35.869   4.165
45872W        W18297  43.840  32.639  13.328
45873W        W18298  39.505   5.902   3.555
45874W        W18299  14.212  33.181  10.729
45875W        W18300  39.424  10.429  11.761
45876W        W18301  32.351  44.862   4.234
45877W        W18302  17.666  41.383   1.347
45878W        W18303  17.556  44.449   3.458
45879W        W18304  35.223  22.642  14.968
45880W        W18305  19.824  25.909  12.902
45881W        W18306  27.831   5.641  13.185
45882W        W18307  30.452   2.802   4.123
45883W        W18308  31.586  44.035  14.880
45884W        W18309  24.678  35.841  12.869
45885W        W18310  15.987  25.309  10.577
45886W        W18311  15.278  42.878   2.248
45887W        W18312  25.052   3.728   1.392
45888W        W18313  19.484   4.538   0.852
45889W        W18314  20.243  22.716  13.950
45890W        W18315  33.669  26.019   3.672
45891W        W18316  16.769   1.686   0.714
45892W        W18317  16.848  16.550   2.200
45893W        W18318  26.179   9.672   0.959
45894W        W18319  42.783   2.671   2.038
45895W        W18320   7.291   2.150   0.191
45896W        W18321  37.590  26.098   0.947
45897W        W18322  23.426   2.490   2.992
45898W        W18323  37.978   5.326  12.003
45899W        W18324  16.077  42.541   3.265
45900W        W18325  16.227  30.684  11.672
45901W        W18326  31.517  14.322   4.679
45902W        W18327  35.111  23.619   1.062
45903W        W18328  44.323   1.866   1.193
45904W        W18329   2.764  25.401   3.356
45905W        W18330  16.148  29.665  14.940
45906W        W18331   1.712   0.770  12.188
45907W        W18332  24.997  11.811  12.996
45908W        W18333  32.054  26.674  13.834
45909W        W18334  10.459  36.636  14.084
45910W        W18335   2.632   7.411  11.135
45911W        W18336   5.032   7.366   3.162
45912W        W18337  30.714   8.302  14.851
45913W        W18338  32.826  40.153   2.723
45914W        W18339  29.150   6.681  11.117
45915W        W18340   0.504  10.875   0.431
45916W        W18341   5.789  31.398  12.682
45917W        W18342  25.576  30.240  14.544
45918W        W18343  20.190   2.164   2.196
45919W        W18344  27.478   1.448   3.654
45920W        W18345  25.189   7.936  13.857
45921W        W18346  44.455   4.652  11.970
45922W        W18347  36.832  18.681   1.981
45923W        W18348   6.880   4.574   2.123
45924W        W18349  43.398  17.360  14.432
45925W        W18350   8.749  18.324  10.453
45926W        W18351  16.576  34.970   2.800
45927W        W18352  35.341  41.317   3.822
45928W        W18353  30.306  19.723  14.849
45929W        W18354  35.491  21.303   4.336
45930W        W18355   5.855  23.869  12.138
45931W        W18356  37.646  22.717   2.794
45932W        W18357  31.142  34.685   1.799
45933W        W18358   2.749  21.535  10.403
45934W        W18359  41.289  18.756  12.538
45935W        W18360  12.814  35.377   2.247
45936W        W18361  33.593  31.494   0.915
45937W        W18362  44.031   9.679  14.370
45938W        W18363  15.139  20.289  14.909
45939W        W18364  38.302  44.456  13.557
45940W        W18365  37.422   6.362  13.253
45941W        W18366  39.418  25.690  10.874
45942W        W18367   9.283  19.316   4.686
45943W        W18368  42.873   4.904   2.277
45944W        W18369  34.549  23.037   4.130
45945W        W18370  32.090   6.516  12.063
45946W        W18371  21.513   2.272  10.901
45947W        W18372  41.400  15.254  11.200
45948W        W18373  11.865  35.320   0.751
45949W        W18374  24.443  32.863  12.072
45950W        W18375  28.992  30.014  13.916
45951W        W18376  19.034  12.501  12.092
45952W        W18377  11.566  19.652   1.648
45953W        W18378  18.548  21.755  14.858
45954W        W18379   3.132  35.228   5.136
45955W        W18380  25.498  10.385  12.133
45956W        W18381  35.011  21.142   4.562
45957W        W18382  33.006   4.726  14.879
45958W        W18383   3.141  19.267   0.863
45959W        W18384  26.670  22.324   3.642
45960W        W18385   8.167  17.159  10.804
45961W        W18386  44.479  44.844   2.317
45962W        W18387  16.728   6.130   1.833
45963W        W18388  30.909  30.917   4.403
45964W        W18389  16.196   7.212   0.227
45965W        W18390   0.442  23.169   4.348
45966W        W18391  24.989  26.411   9.931
45967W        W18392   5.255   4.734   4.542
45968W        W18393  18.207  41.537  12.545
45969W        W18394  28.554  26.672  11.910
45970W        W18395  35.279  25.320   0.758
45971W        W18396  18.171  40.081  11.467
45972W        W18397  31.093   9.466  13.794
45973W        W18398  24.958   2.727   0.817
45974W        W18399  11.242   5.534  11.937
45975W        W18400  35.680  40.299  12.941
45976W        W18401  35.594  43.379  14.253
45977W        W18402   5.497  23.984   4.160
45978W        W18403  44.334   2.910   3.192
45979W        W18404  28.135  38.094   3.385
45980W        W18405  38.436   8.181   4.161
45981W        W18406  25.448  13.929  11.109
45982W        W18407   9.375  24.239   3.241
45983W        W18408   5.360  35.368   1.962
45984W        W18409  22.195  20.146  11.373
45985W        W18410   4.810   5.190  10.788
45986W        W18411  25.004  36.028   3.764
45987W        W18412   1.881  34.102  13.308
45988W        W18413  10.304  29.538   2.353
45989W        W18414  42.607  41.525   0.856
45990W        W18415  34.851  26.098   1.683
45991W        W18416  14.308  12.788   1.862
45992W        W18417  34.487  15.389  14.428
45993W        W18418  17.268  11.987  11.540
45994W        W18419  25.967  33.467  10.192
45995W        W18420  36.293  33.185  14.657
45996W        W18421   3.520  32.009  14.249
45997W        W18422  39.480  31.953  13.816
45998W        W18423  34.478  28.585   4.422
45999W        W18424  42.388  18.346  13.569
46000W        W18425  26.075   3.330   1.923
46001W        W18426  10.591  44.488   3.974
46002W        W18427   2.696  16.703  10.692
46003W        W18428  25.125  28.714  13.264
46004W        W18429  33.782  28.955   0.810
46005W        W18430   8.301  26.750  10.662
46006W        W18431  21.213  23.240   3.330
46007W        W18432  23.429  11.639   0.789
46008W        W18433  15.568   3.978   0.468
46009W        W18434   9.785  20.836   1.427
46010W        W18435  18.603   2.682  13.539
46011W        W18436  36.987  17.544   3.904
46012W        W18437   0.274  10.787   3.782
46013W        W18438  26.744  27.592  11.987
46014W        W18439  29.910  10.319  12.477
46015W        W18440  44.061   4.717   0.829
46016W        W18441  37.538   6.097   3.995
46017W        W18442   4.961  15.172   2.318
46018W        W18443  43.042  19.681   1.840
46019W        W18444  28.958  21.238   1.212
46020W        W18445  12.331   3.671   1.899
46021W        W18446  32.943  10.826  12.380
46022W        W18447   7.534   9.802   2.199
46023W        W18448  12.334   9.884  10.561
46024W        W18449  20.497   5.843   3.406
46025W        W18450  28.130  14.607   1.959
46026W        W18451  42.935  30.134  10.568
46027W        W18452  44.612  24.198   1.762
46028W        W18453  13.808  37.377  14.823
46029W        W18454  13.559  20.336   4.117
46030W        W18455  25.134  30.225   0.147
46031W        W18456   2.938  18.102   0.915
46032W        W18457  22.102  17.041  14.403
46033W        W18458  32.697  13.392  13.832
46034W        W18459  28.267  23.700  11.200
46035W        W18460  22.015  10.678   5.047
46036W        W18461  28.620  33.919   1.418
46037W        W18462  34.928  22.219  14.812
46038W        W18463  35.506  36.380   0.508
46039W        W18464  20.580  17.036  11.087
46040W        W18465   4.476  10.622   0.200
46041W        W18466  22.271  10.168   2.815
46042W        W18467  28.925  27.805   0.358
46043W        W18468  21.043  34.569  11.486
46044W        W18469  32.095   3.530  13.437
46045W        W18470  37.949  23.169  10.909
46046W        W18471   2.503  33.420  14.832
46047W        W18472  33.406   8.308  13.914
46048W        W18473  30.923  30.578  12.586
46049W        W18474  44.893   4.944  11.875
46050W        W18475  43.600  36.880  12.978
46051W        W18476  37.552   2.876   2.233
46052W        W18477  24.587   5.264   4.593
46053W        W18478  43.468  36.160  13.972
46054W        W18479  16.111   7.655  13.363
46055W        W18480   0.867  35.613   1.189
46056W        W18481   6.336  16.638   4.125
46057W        W18482   7.311  14.869   0.283
46058W        W18483  24.643  14.073  12.149
46059W        W18484  30.335   4.642  11.493
46060W        W18485  33.674  42.966   3.749
46061W        W18486  17.289  37.125   1.860
46062W        W18487  32.580  22.094   1.182
46063W        W18488  40.898  18.683   2.276
46064W        W18489  13.829  29.204   2.206
46065W        W18490   2.461  35.929  10.619
46066W        W18491   7.157   2.365  11.899
46067W        W18492  20.190  16.778  13.441
46068W        W18493  16.650  12.101   1.525
46069W        W18494  17.620   4.694   3.800
46070W        W18495  13.581  23.199   3.653
46071W        W18496   4.837  32.845   1.806
46072W        W18497  29.131  15.545  14.724
46073W        W18498  27.743  21.056  12.431
46074W        W18499  11.371  36.854   0.334
46075W        W18500  37.255  41.825  12.142
46076W        W18501   7.328  21.822   3.334
46077W        W18502  35.381  42.466  13.958
46078W        W18503  13.661  21.979   1.795
46079W        W18504  24.406   8.196  10.731
46080W        W18505  29.072  24.719  14.497
46081W        W18506  40.957  39.395  14.126
46082W        W18507  37.902  43.250   1.158
46083W        W18508  39.785  18.698  11.151
46084W        W18509  33.423  27.197   0.435
46085W        W18510  10.635  19.779   1.331
46086W        W18511   9.746   5.252  12.910
46087W        W18512  20.613  41.251  10.915
46088W        W18513  36.837  30.546  13.727
46089W        W18514  22.996  20.089   2.319
46090W        W18515  33.913  35.330  12.560
46091W        W18516  13.846   5.431   4.954
46092W        W18517  13.353  28.358   2.135
46093W        W18518  35.064  10.651   2.462
46094W        W18519   5.464  15.282   0.773
46095W        W18520  31.571  15.544   5.106
46096W        W18521  43.644  14.876   4.867
46097W        W18522  18.826   1.794  11.235
46098W        W18523  44.481   1.329  14.885
46099W        W18524  10.306  20.161   2.877
46100W        W18525  28.025   3.228   2.780
46101W        W18526   0.778   9.503   2.797
46102W        W18527  18.629  28.973   1.302
46103W        W18528  29.565  37.914  12.469
46104W        W18529  28.591  29.979  12.422
46105W        W18530  21.141  23.144   0.824
46106W        W18531  16.776  10.464  10.488
46107W        W18532  27.869  41.812   3.703
46108W        W18533  38.040  15.787  10.278
46109W        W18534  33.388  11.799   3.120
46110W        W18535  17.117  23.032   3.142
46111W        W18536   4.005  33.123  11.159
46112W        W18537  24.556  25.415  14.392
46113W        W18538   7.055  12.308  14.385
46114W        W18539  33.616  41.457  11.501
46115W        W18540  18.574  22.424  12.112
46116W        W18541   3.654   2.252  11.321
46117W        W18542  13.610  42.947  14.925
46118W        W18543   1.042  38.029  14.032
46119W        W18544   6.772   8.337   1.186
46120W        W18545  32.848  31.807   2.834
46121W        W18546  14.074  40.469  14.004
46122W        W18547  40.838   2.850  12.410
46123W        W18548  14.604  19.131   1.713
46124W        W18549  17.595   7.774  14.408
46125W        W18550  22.498  30.141   4.224
46126W        W18551  17.286  16.389   0.277
46127W        W18552  30.181  12.220  12.437
46128W        W18553  11.702  29.353   2.662
46129W        W18554  39.447  28.188  14.958
46130W        W18555  28.071  29.934   0.990
46131W        W18556  37.479  37.800   1.130
46132W        W18557  32.676  33.145   3.590
46133W        W18558  40.053  27.076  13.806
46134W        W18559  30.373  22.563  12.477
46135W        W18560   3.785  11.920   1.914
46136W        W18561  39.961  37.243   3.179
46137W        W18562  18.974  12.339   4.565
46138W        W18563   8.166  42.973  11.130
46139W        W18564  10.658  29.914   2.259
46140W        W18565  42.268  18.090   2.165
46141W        W18566  36.440  34.908  10.719
46142W        W18567  38.631   8.661  10.654
46143W        W18568  27.463  31.582  13.416
46144W        W18569  16.164   5.892  13.388
46145W        W18570  43.914  40.395   0.769
46146W        W18571  13.232  42.027   0.843
46147W        W18572   5.752  18.248   2.578
46148W        W18573   5.582  43.427  14.934
46149W        W18574  16.129   9.271   3.480
46150W        W18575  14.571  36.801  13.397
46151W        W18576   6.911  42.949   2.321
46152W        W18577  22.816  43.088  14.466
46153W        W18578  38.197  22.793  12.037
46154W        W18579  40.033  21.116  10.911
46155W        W18580  41.132  14.886  14.034
46156W        W18581  22.101  41.755   1.393
46157W        W18582  18.725  41.996   2.759
46158W        W18583  41.816   3.887  12.444
46159W        W18584  43.518  33.511   4.760
46160W        W18585  20.800  25.482  10.521
46161W        W18586  15.262  36.850   2.910
46162W        W18587  26.388  21.204  12.348
46163W        W18588  34.112  32.219   0.896
46164W        W18589  31.971  29.998  14.850
46165W        W18590  19.751  31.212   0.895
46166W        W18591  41.978  40.627  14.972
46167W        W18592  36.586  36.939  13.297
46168W        W18593  24.240  30.663   4.035
46169W        W18594  35.844  36.599   0.160
46170W        W18595  11.746  20.514  10.608
46171W        W18596  10.603  28.165  11.570
46172W        W18597   7.298  20.950   0.447
46173W        W18598  43.043  42.199   5.042
46174W        W18599  30.058  20.688   5.456
46175W        W18600   1.597  13.188   4.146
46176W        W18601  35.863  43.769   4.567
46177W        W18602  18.399  26.621   3.384
46178W        W18603  23.133  23.682  11.000
46179W        W18604  36.840   3.493  12.207
46180W        W18605  36.320  39.748  12.954
46181W        W18606   8.212  32.079   1.879
46182W        W18607  32.085  29.460   1.915
46183W        W18608   2.972  44.535   1.714
46184W        W18609   0.738   1.018  12.901
46185W        W18610  24.999  25.765   2.351
46186W        W18611  37.057  42.471  13.404
46187W        W18612  18.740  25.070   1.208
46188W        W18613  41.275  31.905   1.297
46189W        W18614  27.537  11.844   2.190
46190W        W18615   9.670  39.914  12.468
46191W        W18616  24.213  31.269  10.251
46192W        W18617  28.550  16.082  14.045
46193W        W18618  40.950  43.601  13.583
46194W        W18619   4.754  29.452   3.147
46195W        W18620  20.689  37.073   3.682
46196W        W18621  32.128  36.599   0.295
46197W        W18622  24.452  44.525  14.356
46198W        W18623   8.403  28.297  12.079
46199W        W18624  14.425   6.137   3.778
46200W        W18625  23.401   3.682  11.677
46201W        W18626  38.878  14.350  12.440
46202W        W18627  32.474  26.001  14.992
46203W        W18628  22.129  12.954  14.298
46204W        W18629  39.303  12.990   0.617
46205W        W18630  38.037  36.441  12.479
46206W        W18631  10.096  30.477  12.501
46207W        W18632  37.548  31.440   3.650
46208W        W18633  22.638   0.286   2.901
46209W        W18634  28.151  13.405  11.138
46210W        W18635  37.997  19.035   0.305
46211W        W18636  18.764  28.421  12.403
46212W        W18637  17.881   7.953   2.512
46213W        W18638  25.487  38.686  11.138
46214W        W18639   0.214  15.334   4.769
46215W        W18640  23.810  26.167   0.344
46216W        W18641  44.802  34.938   4.285
46217W        W18642   1.181  21.648   4.255
46218W        W18643   7.323  15.878   0.240
46219W        W18644   9.396  35.049  10.543
46220W        W18645   1.541   9.679   1.304
46221W        W18646  12.692   2.786  14.782
46222W        W18647  26.240  12.438   1.751
46223W        W18648  16.388  27.321   2.754
46224W        W18649   6.914  23.006   1.374
46225W        W18650  28.138  22.116   0.741
46226W        W18651   2.353  33.863  14.052
46227W        W18652  43.580  44.624  11.254
46228W        W18653  16.488  27.226   0.680
46229W        W18654  37.014  42.338   3.361
46230W        W18655  15.833   0.986   4.119
46231W        W18656   9.735   1.466   0.078
46232W        W18657  15.150  31.636   0.355
46233W        W18658  30.433  41.679  10.514
46234W        W18659  10.893  10.750  12.316
46235W        W18660  38.058  34.149   1.461
46236W        W18661  17.634  40.676   4.569
46237W        W18662   7.058  36.794   4.412
46238W        W18663  32.013  17.756   4.424
46239W        W18664  33.991   2.771  10.819
46240W        W18665   8.258  29.912   1.776
46241W        W18666  25.782  17.343  13.575
46242W        W18667   7.167   0.449   0.765
46243W        W18668  30.894  26.231  14.385
46244W        W18669  30.028  24.699  14.980
46245W        W18670  22.539  10.047   3.789
46246W        W18671  29.079  17.863   0.969
46247W        W18672  26.789  19.643  11.099
46248W        W18673  23.622  35.146  13.592
46249W        W18674   3.688  33.523  14.258
46250W        W18675  30.597   5.936   4.567
46251W        W18676  24.274   9.905   1.841
46252W        W18677  26.502   2.368  10.454
46253W        W18678  15.197  29.491   1.870
46254W        W18679  30.676  27.161   1.280
46255W        W18680  23.584  16.739  10.571
46256W        W18681  32.412  28.156   3.716
46257W        W18682  19.803  23.146  13.519
46258W        W18683  33.946   7.029  11.583
46259W        W18684  34.484  24.164  11.507
46260W        W18685   6.935  16.096  13.442
46261W        W18686  44.874  27.424   0.871
46262W        W18687  41.378  19.662   5.066
46263W        W18688  32.945  26.491   9.580
46264W        W18689   4.697  19.700  14.724
46265W        W18690  17.726  17.781  11.465
46266W        W18691  29.366  23.178  10.270
46267W        W18692  39.921  33.531  11.637
46268W        W18693  41.817  19.742   2.604
46269W        W18694  12.247  20.619   1.667
46270W        W18695  41.863  18.653  13.630
46271W        W18696  44.481  34.597  13.073
46272W        W18697   6.825  43.147   3.688
46273W        W18698   2.533  35.974  11.977
46274W        W18699  37.871  32.670  12.443
46275W        W18700  26.830   1.974  11.254
46276W        W18701  31.932  33.261  14.751
46277W        W18702  25.684  16.214  12.413
46278W        W18703  21.003  14.297  13.899
46279W        W18704  12.470  26.456  10.995
46280W        W18705  11.837  12.860   1.641
46281W        W18706  32.260  32.902   3.393
46282W        W18707  31.932  30.527  12.596
46283W        W18708   3.522   0.040   0.956
46284W        W18709  26.952  20.990  14.952
46285W        W18710  16.673   4.255  14.867
46286W        W18711  44.911   4.477  12.118
46287W        W18712  13.207  15.064   0.987
46288W        W18713   6.320   5.179  13.764
46289W        W18714  22.750  20.993  14.439
46290W        W18715  13.291  33.892  13.123
46291W        W18716  15.704  42.102   4.494
46292W        W18717  14.515  18.666  12.938
46293W        W18718  31.069  29.195   3.910
46294W        W18719   3.190  39.853   1.271
46295W        W18720  35.919  21.625   2.359
46296W        W18721  24.384  41.668   4.105
46297W        W18722  27.802   9.547  12.911
46298W        W18723  11.681  42.552   2.743
46299W        W18724   9.362  40.312  14.491
46300W        W18725   9.024  31.536  13.477
46301W        W18726   0.384  19.771  13.149
46302W        W18727  10.183   0.405   4.625
46303W        W18728   4.674  37.982  12.105
46304W        W18729  11.714  41.970  14.097
46305W        W18730  42.906  33.365  14.374
46306W        W18731  20.556  33.062   4.031
46307W        W18732  22.358   2.689  11.310
46308W        W18733  30.647  19.177  14.952
46309W        W18734  38.978  16.116  14.316
46310W        W18735  44.492  16.487  11.041
46311W        W18736  21.931  19.063  11.940
46312W        W18737   3.004   4.262  14.927
46313W        W18738   0.874  33.065   3.714
46314W        W18739  19.339  23.558   3.258
46315W        W18740  16.106  22.548  11.124
46316W        W18741  16.303  29.670  12.611
46317W        W18742  16.423  36.323  13.574
46318W        W18743  22.033   1.087   4.036
46319W        W18744  12.332  11.588   0.923
46320W        W18745  23.690  14.240  11.105
46321W        W18746  41.594  27.996  10.635
46322W        W18747  44.357  27.550   0.731
46323W        W18748  19.009  30.044   1.865
46324W        W18749  29.570  15.286   4.458
46325W        W18750  25.569  42.589   3.746
46326W        W18751  12.023  32.339   0.331
46327W        W18752   9.270  35.337   0.507
46328W        W18753  23.036   4.403   4.695
46329W        W18754  21.039  44.207  11.644
46330W        W18755  18.306   9.672   2.108
46331W        W18756  32.805   2.758  13.729
46332W        W18757  25.883  10.251  12.525
46333W        W18758  26.746  16.091  12.558
46334W        W18759  22.560   6.672   1.301
46335W        W18760  13.515  26.625   3.196
46336W        W18761  35.586  38.733  11.858
46337W        W18762   0.817  39.085  13.688
46338W        W18763  12.600  21.662   2.410
46339W        W18764   6.260  34.699  14.830
46340W        W18765   2.745  14.869   4.980
46341W        W18766   7.665  11.800   0.030
46342W        W18767   9.347  26.581   4.363
46343W        W18768   8.818   8.961  12.026
46344W        W18769   3.812  10.446   4.665
46345W        W18770  11.052   3.961  13.972
46346W        W18771  34.979  34.484  13.064
46347W        W18772   6.459  19.920  13.712
46348W        W18773   0.359   2.242  12.543
46349W        W18774  33.472  18.655  10.699
46350W        W18775  35.892  31.105  12.010
46351W        W18776  18.961  18.501  11.142
46352W        W18777  36.316  36.113  11.104
46353W        W18778  30.690  38.056   2.407
46354W        W18779  40.506   0.793  12.053
46355W        W18780  16.241  12.057  10.820
46356W        W18781   3.284  38.614   0.762
46357W        W18782  36.523  19.734  10.070
46358W        W18783  37.044  42.941   0.068
46359W        W18784   0.062  18.715   0.272
46360W        W18785  38.489  15.278   1.657
46361W        W18786  20.507  15.039  10.634
46362W        W18787   9.828  30.454  11.131
46363W        W18788  39.900  29.910  12.852
46364W        W18789  39.031  10.323   3.179
46365W        W18790  10.480   4.265  13.319
46366W        W18791   6.090  36.146  10.300
46367W        W18792   1.715  27.866   1.238
46368W        W18793  41.865  41.889   0.601
46369W        W18794   8.355  37.879  11.038
46370W        W18795   0.216  15.409   0.332
46371W        W18796  32.229   9.708  13.361
46372W        W18797   5.262  33.591  13.375
46373W        W18798   4.821  38.876  14.662
46374W        W18799  36.438  16.556  12.930
46375W        W18800   9.218  16.884  12.122
46376W        W18801  30.925  11.633   1.301
46377W        W18802  26.589  29.698  12.798
46378W        W18803  31.001  44.762   0.253
46379W        W18804  40.038  29.409   0.901
46380W        W18805  30.268  42.511   0.662
46381W        W18806  14.796  21.210  12.984
46382W        W18807   6.204  18.656   4.254
46383W        W18808  11.658  43.856  13.313
46384W        W18809  29.197  13.626   2.928
46385W        W18810  42.160  41.378   2.783
46386W        W18811  42.641  14.463   4.338
46387W        W18812   7.352   4.594   4.945
46388W        W18813  42.483  19.813   9.818
46389W        W18814  30.482  36.517   3.804
46390W        W18815   1.880  44.028  10.443
46391W        W18816  29.640  14.466  12.117
46392W        W18817   0.036  36.353   2.121
46393W        W18818  25.398  19.041   4.482
46394W        W18819  42.361   0.948  14.879
46395W        W18820  22.191   1.686   0.337
46396W        W18821  20.072  18.601   0.221
46397W        W18822  10.772  44.058   1.006
46398W        W18823  40.266   7.304  14.772
46399W        W18824   3.467  43.432  10.560
46400W        W18825   6.193  43.349   2.658
46401W        W18826   8.206  24.602   2.734
46402W        W18827  41.861  38.407   0.935
46403W        W18828  36.240   2.273  11.148
46404W        W18829  34.658  21.631   2.777
46405W        W18830  43.360  43.000   4.206
46406W        W18831  21.592  20.124  10.726
46407W        W18832  42.996  28.012   0.445
46408W        W18833  15.594  15.439  14.753
46409W        W18834  30.620  39.010  10.494
46410W        W18835  17.470  43.196  11.412
46411W        W18836  29.954  20.101  14.957
46412W        W18837  11.573  33.016  11.791
46413W        W18838  13.111   6.758  14.471
46414W        W18839  26.311  40.001  12.313
46415W        W18840  37.855  38.065   1.888
46416W        W18841  34.502   1.670   4.382
46417W        W18842  13.025  40.325   2.383
46418W        W18843   9.264  40.539  12.417
46419W        W18844  11.430  36.521   1.405
46420W        W18845  17.258  42.096  14.825
46421W        W18846  33.647  31.425  13.782
46422W        W18847  42.725  35.958   0.372
46423W        W18848  42.937   7.134   3.771
46424W        W18849  17.872  24.244  13.914
46425W        W18850  17.301  35.874   3.430
46426W        W18851  37.823  36.446   2.414
46427W        W18852  17.314  37.326   2.389
46428W        W18853  24.098  23.148   0.887
46429W        W18854  21.319  25.617  12.741
46430W        W18855  14.667  29.149   1.809
46431W        W18856  29.624   3.752  12.811
46432W        W18857  28.431  36.307   2.588
46433W        W18858  37.525  17.805   2.745
46434W        W18859   8.053  32.594  12.413
46435W        W18860  38.916  44.847  13.105
46436W        W18861   0.371  15.976   1.926
46437W        W18862  24.679   0.798   3.980
46438W        W18863  23.162  19.816  12.511
46439W        W18864  34.628  43.962   5.071
46440W        W18865   2.972  25.575  13.020
46441W        W18866  13.529  20.376  13.993
46442W        W18867  35.267   8.955  14.019
46443W        W18868  33.673  29.067  13.534
46444W        W18869  27.440  39.858   0.216
46445W        W18870  41.505  40.729   4.534
46446W        W18871  25.477  28.657  10.602
46447W        W18872  37.009   7.579   4.531
46448W        W18873  17.447   4.361   3.429
46449W        W18874  13.331  39.733  12.880
46450W        W18875  29.435   0.296  10.957
46451W        W18876  33.148   0.562   0.401
46452W        W18877   3.718   9.899   3.292
46453W        W18878  21.258  43.325  13.348
46454W        W18879  23.131  25.858  13.015
46455W        W18880  21.427  30.629  11.229
46456W        W18881   3.220  39.476   1.977
46457W        W18882  25.103  29.472   4.662
46458W        W18883  33.397   6.707   0.568
46459W        W18884  14.797  24.101   2.488
46460W        W18885  15.140  31.367  11.073
46461W        W18886   5.900   6.665  12.480
46462W        W18887  36.398  40.811   1.759
46463W        W18888  23.737  38.545   1.222
46464W        W18889  42.831   7.051  14.935
46465W        W18890  33.968  10.946  10.914
46466W        W18891  31.942   3.293   4.315
46467W        W18892  30.450   3.597   0.427
46468W        W18893  17.208   3.878   4.847
46469W        W18894   4.229   9.874  11.540
46470W        W18895  27.946  16.250   2.519
46471W        W18896   5.429  43.073   4.969
46472W        W18897   2.117   4.035  14.851
46473W        W18898  12.868  11.811   4.142
46474W        W18899   9.915  19.381   3.169
46475W        W18900  18.872  44.187  10.863
46476W        W18901  35.663  38.371  12.535
46477W        W18902   1.504   8.998  12.069
46478W        W18903  25.626  16.366  14.432
46479W        W18904  30.401   0.268   4.519
46480W        W18905   5.444  10.189  14.484
46481W        W18906  33.017   4.343   0.289
46482W        W18907  14.423  34.973  14.002
46483W        W18908  14.768  33.460  14.451
46484W        W18909   4.962  44.777  13.098
46485W        W18910  16.015  35.014  14.786
46486W        W18911  34.528  23.642  13.994
46487W        W18912   2.292  18.758   0.920
46488W        W18913  43.899  40.353   2.548
46489W        W18914   5.489  33.424   3.221
46490W        W18915   9.354  38.955   1.410
46491W        W18916   2.081  38.116  14.500
46492W        W18917  19.956  38.630   0.383
46493W        W18918  31.427  40.811   2.291
46494W        W18919  14.310  43.003  13.780
46495W        W18920  15.234   2.880   1.221
46496W        W18921  44.912  43.808  12.378
46497W        W18922  18.121  10.428   1.684
46498W        W18923   0.340  12.668   4.438
46499W        W18924   2.338  19.194   3.284
46500W        W18925   3.688  11.354  11.593
46501W        W18926  19.245   9.483   4.968
46502W        W18927  14.451  38.388   0.961
46503W        W18928   6.884  39.522  11.114
46504W        W18929  15.290  35.392  11.838
46505W        W18930  40.915  24.414  11.122
46506W        W18931  42.901  38.273   3.401
46507W        W18932  14.779  35.741   1.316
46508W        W18933  36.539  18.169  10.954
46509W        W18934  26.427   5.475   1.383
46510W        W18935   2.135  33.907   3.751
46511W        W18936  38.579   1.909  11.096
46512W        W18937   5.282  29.157   0.383
46513W        W18938  24.907   7.164   3.912
46514W        W18939   0.775  19.345   1.646
46515W        W18940  39.881  21.692   1.793
46516W        W18941   2.267  23.501   1.227
46517W        W18942   9.890  16.237  12.667
46518W        W18943  13.209  36.986  10.630
46519W        W18944  17.737  28.141   1.501
46520W        W18945  37.559  32.856   2.170
46521W        W18946  18.376  27.092  14.935
46522W        W18947  12.790  36.443  10.711
46523W        W18948  19.052   8.361   1.212
46524W        W18949  16.350   5.207  12.348
46525W        W18950  16.574   2.264  12.631
46526W        W18951  13.335  26.919   1.724
46527W        W18952  20.034  24.133   2.625
46528W        W18953  24.384  44.798   1.859
46529W        W18954   3.633   9.767  11.973
46530W        W18955  27.983  38.853  10.896
46531W        W18956  10.711  24.631   5.020
46532W        W18957  28.012  39.321  12.607
46533W        W18958  31.912  29.883  10.701
46534W        W18959  42.858   5.773  10.571
46535W        W18960  10.039  18.565   3.528
46536W        W18961  29.424  21.032  12.533
46537W        W18962  18.007  38.312  13.762
46538W        W18963  38.468  26.893  13.396
46539W        W18964   2.881   6.473   1.348
46540W        W18965  40.037  11.797   4.869
46541W        W18966   7.969  40.593  12.258
46542W        W18967  15.078   4.543  13.549
46543W        W18968  32.974  42.817  11.340
46544W        W18969  44.370   3.889  14.639
46545W        W18970  39.101   8.408  11.745
46546W        W18971  27.645  33.895   4.629
46547W        W18972  13.815  18.372   4.608
46548W        W18973   6.178  10.175   1.647
46549W        W18974  16.569  35.991   3.717
46550W        W18975  41.696  12.313  13.940
46551W        W18976  23.252   9.366  13.445
46552W        W18977  21.090  38.811  14.703
46553W        W18978  22.273  13.116  12.500
46554W        W18979  14.794   3.195   0.981
46555W        W18980  26.149  30.972   4.113
46556W        W18981  44.098   0.719  11.956
46557W        W18982  23.735  24.605  10.792
46558W        W18983  26.981  11.388   4.668
46559W        W18984  37.637  32.065   1.751
46560W        W18985   6.314  28.033  14.979
46561W        W18986  10.091   5.917   3.168
46562W        W18987   4.940   0.739   4.095
46563W        W18988  24.260  15.156   4.336
46564W        W18989   6.960  13.955   1.690
46565W        W18990  20.662  19.230  11.162
46566W        W18991   9.600  11.552  14.874
46567W        W18992  27.722  37.443  13.987
46568W        W18993  44.490   5.688  14.018
46569W        W18994  33.287  18.804   4.136
46570W        W18995  32.857  25.611  14.193
46571W        W18996   6.792  39.784   3.095
46572W        W18997  32.647  35.551  10.912
46573W        W18998   8.727  44.916  12.000
46574W        W18999  10.965  29.449  14.932
46575W        W19000   5.973  19.242   0.651
46576W        W19001  31.596  34.712  12.979
46577W        W19002  42.449  22.632   1.682
46578W        W19003   8.125   1.373   0.875
46579W        W19004   5.689  18.155  12.917
46580W        W19005  25.088  30.447   9.727
46581W        W19006  11.464  31.959  14.076
46582W        W19007  20.136   3.596  13.864
46583W        W19008   0.400   8.647  12.983
46584W        W19009  37.578  20.124  11.519
46585W        W19010  41.178  22.922   1.787
46586W        W19011  12.745  43.278   3.970
46587W        W19012  41.730  22.543   0.526
46588W        W19013   2.966  16.623   0.204
46589W        W19014  38.524   5.873  11.483
46590W        W19015  17.596  36.481  11.495
46591W        W19016  11.935  27.182  12.615
46592W        W19017   3.378  35.369   0.894
46593W        W19018  37.092  17.117  11.124
46594W        W19019  42.856  18.263   4.788
46595W        W19020  40.519  23.732   4.627
46596W        W19021  28.225  37.461  14.070
46597W        W19022  17.661  30.741   2.293
46598W        W19023  35.858   4.819   2.089
46599W        W19024  19.740  15.868   1.261
46600W        W19025  39.910  36.721   1.845
46601W        W19026  33.426  14.646  10.940
46602W        W19027  42.089  20.800  14.790
46603W        W19028   2.830  35.631  11.063
46604W        W19029  33.205  44.579  13.460
46605W        W19030  28.056  25.704  14.868
46606W        W19031  12.215   0.799  11.398
46607W        W19032   7.965  26.509   4.578
46608W        W19033   3.276  10.856   2.155
46609W        W19034  32.025  33.974  14.304
46610W        W19035  14.967   9.218   3.902
46611W        W19036   1.987  26.811  11.085
46612W        W19037  36.754  15.871  10.513
46613W        W19038  16.124  38.132   2.342
46614W        W19039  41.541  38.069  13.998
46615W        W19040  24.590  44.370  10.619
46616W        W19041  41.316  13.093   2.655
46617W        W19042  14.137  35.455   2.333
46618W        W19043  37.102  12.289  13.356
46619W        W19044  40.319  11.426  13.458
46620W        W19045   1.336  14.815   4.413
46621W        W19046  38.364  39.315   0.905
46622W        W19047  33.846  17.214   0.054
46623W        W19048  26.560  13.869  13.342
46624W        W19049  18.705  28.195   0.831
46625W        W19050  24.061   8.394  12.007
46626W        W19051  13.732  24.230   4.949
46627W        W19052  36.434  32.057  12.904
46628W        W19053  37.923  33.079  14.085
46629W        W19054   3.552  40.240   3.019
46630W        W19055  13.343  38.092  11.072
46631W        W19056  44.574  43.770  10.548
46632W        W19057  31.040  32.839  10.602
46633W        W19058  16.567  24.532  11.418
46634W        W19059  12.108  31.350  13.908
46635W        W19060   9.465  20.162   1.173
46636W        W19061  26.652  26.214   4.894
46637W        W19062   7.804  18.791  11.540
46638W        W19063   4.739  34.986  13.904
46639W        W19064   6.432   6.746  13.612
46640W        W19065   3.879  27.186  10.773
46641W        W19066  14.142  23.372   5.206
46642W        W19067  12.732  20.006  11.148
46643W        W19068  11.375  25.490  14.031
46644W        W19069   8.535  32.404  12.439
46645W        W19070   7.868  24.157  12.117
46646W        W19071  21.047   2.398   0.221
46647W        W19072   9.853  14.775  11.211
46648W        W19073  32.536   9.671  11.387
46649W        W19074  40.042  15.447   1.297
46650W        W19075  38.790  35.305  14.424
46651W        W19076   7.581   5.377   3.759
46652W        W19077  19.559  13.644  12.571
46653W        W19078  42.432  29.580   3.548
46654W        W19079  26.374  29.566   4.609
46655W        W19080  40.551  11.468  12.543
46656W        W19081   9.873  37.052  14.583
46657W        W19082  31.458  34.568  10.664
46658W        W19083   9.870  43.873  13.290
46659W        W19084  12.398   0.281   1.251
46660W        W19085  17.407  32.962  14.069
46661W        W19086   3.984  23.508  13.494
46662W        W19087   4.401   8.886  11.554
46663W        W19088  44.080  15.449   4.989
46664W        W19089  12.136  29.727   4.547
46665W        W19090  38.129  15.583   1.888
46666W        W19091  38.843  43.752  12.183
46667W        W19092  30.153  35.007  14.789
46668W        W19093   4.843  39.843   1.747
46669W        W19094  23.212  22.020  14.539
46670W        W19095  11.018  28.545   3.549
46671W        W19096  31.181  35.387  13.430
46672W        W19097  29.338   4.728  11.618
46673W        W19098  20.283   6.799  13.737
46674W        W19099   6.650  18.392  13.113
46675W        W19100  10.646  20.285   1.240
46676W        W19101  17.067  34.404   3.195
46677W        W19102  19.796  33.433   1.418
46678W        W19103  30.065  30.003   0.971
46679W        W19104  37.893   8.679   2.848
46680W        W19105  18.623  34.920  14.472
46681W        W19106   8.626  24.673   3.046
46682W        W19107  19.810   8.704  14.835
46683W        W19108   8.800   0.092  12.477
46684W        W19109  23.602  11.722  14.937
46685W        W19110   2.919  25.251   2.897
46686W        W19111  42.513  22.905   0.064
46687W        W19112  21.030  12.289   0.776
46688W        W19113  38.491   0.908  14.787
46689W        W19114  34.482  42.818   3.278
46690W        W19115  17.182  31.042  10.741
46691W        W19116  41.527  21.192  13.443
46692W        W19117   8.978  38.804   2.896
46693W        W19118  11.880   3.259  12.842
46694W        W19119  30.124  23.493  13.088
46695W        W19120  18.323  31.882   4.842
46696W        W19121  13.160  34.811  13.050
46697W        W19122  16.876  15.967  11.193
46698W        W19123  33.965   1.552   0.283
46699W        W19124  18.629  25.972   2.878
46700W        W19125  15.723   7.874  12.589
46701W        W19126  16.270  27.408  12.347
46702W        W19127   6.245  21.039  12.058
46703W        W19128  24.109  34.337   2.712
46704W        W19129  18.586  18.303   3.084
46705W        W19130   9.963  27.403   3.663
46706W        W19131  41.336   6.561  12.091
46707W        W19132  13.767   3.439   4.163
46708W        W19133   5.737   8.804   0.512
46709W        W19134   6.697   0.255   3.217
46710W        W19135   7.511  14.142  12.522
46711W        W19136  23.219  23.926   1.374
46712W        W19137  31.651   7.311  11.982
46713W        W19138  16.879  13.405   3.238
46714W        W19139  35.474  12.037   2.324
46715W        W19140  28.184  36.935   3.845
46716W        W19141  39.324  25.858   3.939
46717W        W19142  10.676  37.249   5.001
46718W        W19143  10.772  22.027   0.787
46719W        W19144   2.486   1.351   4.588
46720W        W19145   9.774  27.516   1.868
46721W        W19146  14.783   0.895   0.339
46722W        W19147  31.585  25.939  11.266
46723W        W19148  25.998  12.743   3.933
46724W        W19149  38.126  23.445  14.316
46725W        W19150  25.625  13.123  11.558
46726W        W19151   9.132  15.572  11.698
46727W        W19152  34.317  30.199  12.081
46728W        W19153  34.735  43.517   0.337
46729W        W19154  39.746  38.558   2.764
46730W        W19155  10.332  10.775   0.185
46731W        W19156  31.002  17.814  14.672
46732W        W19157   6.399  13.055   4.161
46733W        W19158  40.942   6.275   0.414
46734W        W19159  10.367  13.813   0.878
46735W        W19160   0.162   9.539  13.323
46736W        W19161  32.940  34.071   3.704
46737W        W19162  38.363  24.587  14.986
46738W        W19163   4.795  12.168   4.139
46739W        W19164  26.120  23.660   0.717
46740W        W19165   8.791  10.334   0.668
46741W        W19166  37.431  30.024   0.633
46742W        W19167   9.015  43.290   0.454
46743W        W19168  11.861  24.523   2.884
46744W        W19169  22.128   7.850  10.718
46745W        W19170  42.666  25.341  11.903
46746W        W19171  34.101  39.460  10.486
46747W        W19172  33.514  41.218  10.789
46748W        W19173   2.162  26.476  13.333
46749W        W19174   3.259  26.946   3.737
46750W        W19175   7.196  37.348  11.050
46751W        W19176   5.770  25.476   1.837
46752W        W19177  38.290   6.260   3.322
46753W        W19178   1.437  32.960  14.814
46754W        W19179  42.250  18.143  10.613
46755W        W19180  43.958  10.387  11.560
46756W        W19181  18.939  28.538   4.623
46757W        W19182  41.317  43.384  13.289
46758W        W19183  28.449  34.911  12.517
46759W        W19184  23.248  41.364  13.963
46760W        W19185  35.165  12.981  14.981
46761W        W19186  20.546  29.641  13.452
46762W        W19187  27.048   8.657   0.857
46763W        W19188   5.382  15.048   2.629
46764W        W19189  29.397   6.261   1.641
46765W        W19190  34.975  28.099  12.532
46766W        W19191  17.577  22.211   0.805
46767W        W19192  28.723  19.219  14.902
46768W        W19193  11.226  38.401  12.439
46769W        W19194  24.250   2.434   0.419
46770W        W19195  10.744  21.444  12.909
46771W        W19196  29.997  29.470  13.294
46772W        W19197  42.415  30.127   2.483
46773W        W19198  29.105  35.245  14.084
46774W        W19199  32.705  24.666  13.375
46775W        W19200  41.586  40.576   0.824
46776W        W19201   6.759   9.143   3.433
46777W        W19202   7.402   4.284   1.722
46778W        W19203  22.112  29.758   3.341
46779W        W19204  11.113  36.360  11.056
46780W        W19205  40.019  12.279   4.591
46781W        W19206  33.655  34.419   0.318
46782W        W19207   2.657   4.971  12.392
46783W        W19208  28.694  11.109   3.611
46784W        W19209  26.995  25.503   4.591
46785W        W19210  36.586  36.954   2.185
46786W        W19211  28.483  30.106   1.912
46787W        W19212  25.413  36.933   4.092
46788W        W19213  15.629  14.389  14.901
46789W        W19214  36.059  19.832   4.254
46790W        W19215  39.577  18.744   1.002
46791W        W19216   9.132  40.368  13.992
46792W        W19217  38.923  17.808  14.955
46793W        W19218  20.335  12.343  14.424
46794W        W19219  18.285   6.839   2.956
46795W        W19220  29.496  20.112   3.434
46796W        W19221   4.179  20.600  13.411
46797W        W19222  18.581  12.134   2.072
46798W        W19223  19.040  25.488  13.396
46799W        W19224  30.382   5.234  14.051
46800W        W19225   1.980   1.324   4.706
46801W        W19226  39.369  18.567  10.340
46802W        W19227  36.997   0.294  13.577
46803W        W19228  38.357  18.675  11.884
46804W        W19229  40.532   4.629  11.772
46805W        W19230   3.959  29.994   3.763
46806W        W19231  28.614   3.696  12.781
46807W        W19232   4.347  22.266   3.146
46808W        W19233  22.986  44.455  14.026
46809W        W19234  20.183  23.540   0.022
46810W        W19235  16.272  19.835  14.330
46811W        W19236  43.550   2.213  11.172
46812W        W19237  38.453  38.848   4.900
46813W        W19238  14.096  29.925   2.620
46814W        W19239  30.026  20.697  10.339
46815W        W19240  32.572  12.825   3.797
46816W        W19241  43.912  36.393  10.637
46817W        W19242   9.709   5.159   1.905
46818W        W19243   1.187  23.100   3.347
46819W        W19244  30.489  11.240   2.339
46820W        W19245  13.224  33.817  12.632
46821W        W19246  25.035  38.590  11.844
46822W        W19247  19.047  21.112  12.140
46823W        W19248  22.919  26.026   4.226
46824W        W19249  37.270  20.368  14.673
46825W        W19250   1.888  19.154   2.994
46826W        W19251   5.118  36.910   2.400
46827W        W19252  15.710  21.144   0.489
46828W        W19253  11.437  25.393  12.000
46829W        W19254  27.905  42.312  12.940
46830W        W19255  44.822  35.464   1.780
46831W        W19256   2.280   3.724   3.736
46832W        W19257   0.832  37.882  14.492
46833W        W19258   6.178  22.448   3.824
46834W        W19259  31.062  37.877  12.488
46835W        W19260  21.746  33.841  13.539
46836W        W19261  16.774  18.532   2.468
46837W        W19262  44.218  28.053   1.787
46838W        W19263   9.196  35.057   1.541
46839W        W19264  32.648  19.148  11.696
46840W        W19265  12.885  40.894  12.001
46841W        W19266   5.882  22.964  13.931
46842W        W19267  13.818  21.644  11.766
46843W        W19268  28.379  42.220  13.120
46844W        W19269  30.140  10.375   2.738
46845W        W19270  33.528  33.538  10.259
46846W        W19271  12.771  44.121  11.674
46847W        W19272   6.932  26.033  12.826
46848W        W19273  30.135  42.460   4.779
46849W        W19274  25.807  44.876  13.619
46850W        W19275  24.410  29.231  10.893
46851W        W19276  25.471  25.900   0.486
46852W        W19277  33.479   7.794  13.932
46853W        W19278   6.372  35.417  10.886
46854W        W19279   9.186  28.624  13.742
46855W        W19280  44.897  15.666  12.656
46856W        W19281  24.792  25.553   0.765
46857W        W19282  34.085  31.589   3.319
46858W        W19283   2.501  15.775   0.678
46859W        W19284  21.953  14.172   1.233
46860W        W19285   8.209   4.854  10.359
46861W        W19286  29.172  35.347   3.302
46862W        W19287  25.544  10.340   1.451
46863W        W19288  17.234   2.943  14.803
46864W        W19289  33.924  13.160  14.993
46865W        W19290  24.077  20.303   2.266
46866W        W19291  32.690  22.127  11.670
46867W        W19292  12.920  12.775  13.909
46868W        W19293  21.347  40.945  12.517
46869W        W19294   0.747  12.256   4.411
46870W        W19295  32.573  18.765   3.398
46871W        W19296  30.043   4.987  12.000
46872W        W19297  23.970   8.287   0.849
46873W        W19298  35.512  15.725   1.309
46874W        W19299  27.607  24.426  10.687
46875W        W19300  41.384  26.727  11.109
46876W        W19301  18.741  44.568  13.253
46877W        W19302   2.973  37.064  14.887
46878W        W19303  40.206   0.706   0.997
46879W        W19304  44.299   0.524   4.405
46880W        W19305   0.852   8.395  13.001
46881W        W19306  15.933  19.077   3.948
46882W        W19307  19.605  28.522  11.285
46883W        W19308  36.452  29.698  13.577
46884W        W19309  10.877  37.716   2.779
46885W        W19310  43.670  29.559   4.632
46886W        W19311   8.114   5.971  12.921
46887W        W19312  23.398   8.317   4.307
46888W        W19313  37.193  35.462  12.921
46889W        W19314  34.400  28.684  11.522
46890W        W19315  35.464  31.570   2.893
46891W        W19316  22.471  15.408   0.336
46892W        W19317  41.327  25.695  11.961
46893W        W19318  13.391   5.332  12.917
46894W        W19319  32.573  12.656  12.418
46895W        W19320  31.860  18.718  14.929
46896W        W19321   3.682  28.245  11.674
46897W        W19322  38.026   5.122   2.201
46898W        W19323  37.929  21.189   4.347
46899W        W19324  16.834  28.696  10.680
46900W        W19325  14.153  44.317   1.395
46901W        W19326  41.389  42.779   2.710
46902W        W19327  18.210  24.131   1.245
46903W        W19328  41.414  14.871   1.929
46904W        W19329  29.697  20.697  11.177
46905W        W19330  18.348  39.863  13.061
46906W        W19331  14.614  36.678  11.627
46907W        W19332  32.665  14.060   0.086
46908W        W19333  27.971  21.166  12.888
46909W        W19334   0.990   2.339   1.231
46910W        W19335  10.716  26.928  11.932
46911W        W19336  43.837  42.305  11.650
46912W        W19337   6.337  29.826  13.027
46913W        W19338  31.331  36.408   1.818
46914W        W19339  14.526  19.553   4.190
46915W        W19340   9.945  34.355  10.402
46916W        W19341  41.834   0.859  14.883
46917W        W19342   0.890   8.831   4.535
46918W        W19343  10.178  31.236   2.671
46919W        W19344  19.777  36.088   2.137
46920W        W19345  27.575  21.869  11.974
46921W        W19346  22.696  44.914  10.785
46922W        W19347  33.071  15.947  10.762
46923W        W19348  30.172  38.781   4.555
46924W        W19349  43.092   1.235   3.796
46925W        W19350  18.209  25.004   1.338
46926W        W19351  10.429  15.611  13.290
46927W        W19352  36.329   7.825  12.840
46928W        W19353  13.956  41.661   2.015
46929W        W19354  38.753  11.201   3.188
46930W        W19355   2.382  34.864   3.991
46931W        W19356  44.591  25.269  14.297
46932W        W19357  30.197  21.255   1.780
46933W        W19358  13.222   7.150   1.626
46934W        W19359   9.662  16.761   3.238
46935W        W19360  27.637   9.120   3.657
46936W        W19361  22.326   3.759   1.685
46937W        W19362   7.711  24.693  11.654
46938W        W19363  41.248  32.977  14.907
46939W        W19364   0.153  17.070  14.894
46940W        W19365  38.357  24.221  10.699
46941W        W19366  14.482  23.228   4.068
46942W        W19367   2.527  21.066  10.556
46943W        W19368  29.408  35.156   2.861
46944W        W19369  11.358  28.638  14.456
46945W        W19370  18.283  14.799  11.151
46946W        W19371  27.981  13.275  14.981
46947W        W19372  22.047  36.457   1.177
46948W        W19373  29.407  36.909   4.584
46949W        W19374  28.695  37.808  12.645
46950W        W19375  35.000  18.062  14.646
46951W        W19376  15.492  34.120  14.842
46952W        W19377  15.176   2.433  13.357
46953W        W19378  19.240  14.657   4.601
46954W        W19379  13.394   4.032   2.764
46955W        W19380   1.923  10.731   1.854
46956W        W19381  43.980  44.657   2.254
46957W        W19382  39.552  21.580  12.482
46958W        W19383  40.983   3.880  13.961
46959W        W19384  35.604  24.180   1.461
46960W        W19385  33.253  22.499   0.239
46961W        W19386   1.311  43.394  12.918
46962W        W19387   9.732  41.343   0.267
46963W        W19388   0.414  44.041  14.411
46964W        W19389  31.065   0.892   4.289
46965W        W19390  38.014  32.145   1.395
46966W        W19391  28.338   5.370   1.257
46967W        W19392  20.815   4.393   1.419
46968W        W19393  13.589  10.657  11.494
46969W        W19394   8.487  18.245   9.971
46970W        W19395  24.777  30.310  10.566
46971W        W19396  12.379   4.855   4.213
46972W        W19397  21.321  15.562  13.438
46973W        W19398  24.550  21.257  11.004
46974W        W19399  10.241  42.558  11.153
46975W        W19400  26.878  31.223   3.690
46976W        W19401  42.954  19.083  13.868
46977W        W19402  39.833  34.372  14.387
46978W        W19403   0.532  25.157  14.387
46979W        W19404  30.481  35.605   2.839
46980W        W19405  39.756  28.515   1.185
46981W        W19406  29.563  32.529  14.309
46982W        W19407  34.966  29.261   4.179
46983W        W19408  23.155   6.229   4.624
46984W        W19409  12.915  38.997  11.230
46985W        W19410  31.348  37.030  11.172
46986W        W19411  26.204  44.273   4.185
46987W        W19412   7.649  16.571  13.694
46988W        W19413  34.580  18.861   4.750
46989W        W19414   5.384  20.092   0.690
46990W        W19415  41.608  34.438   3.748
46991W        W19416   3.204   0.158  14.260
46992W        W19417  11.751  22.822  11.489
46993W        W19418   1.659  31.991   0.440
46994W        W19419  30.497  38.388   0.693
46995W        W19420   2.414  33.123  11.977
46996W        W19421  14.557  38.021   2.272
46997W        W19422  42.438   2.387   4.158
46998W        W19423  13.508   1.364  14.347
46999W        W19424   2.957  30.901  14.040
47000W        W19425  14.050  20.515  14.014
47001W        W19426  17.473  20.447  11.035
47002W        W19427  38.276  11.602   4.342
47003W        W19428   4.228  30.428   3.661
47004W        W19429  33.636   6.418   3.129
47005W        W19430  26.654  21.339  12.990
47006W        W19431  35.843  35.875  11.105
47007W        W19432  36.410  21.127   0.250
47008W        W19433  40.493  44.651   4.944
47009W        W19434  36.062   3.761  14.830
47010W        W19435  20.625  17.370   4.700
47011W        W19436  37.555  41.160  11.245
47012W        W19437  27.351  28.676   4.742
47013W        W19438  25.759  29.645  10.194
47014W        W19439   5.887  37.940   4.650
47015W        W19440   5.522  33.885   0.715
47016W        W19441  23.248  16.606  13.329
47017W        W19442  39.005   0.324   1.448
47018W        W19443   1.680  36.068  14.279
47019W        W19444  20.015   4.042  11.043
47020W        W19445  19.777  20.101   0.880
47021W        W19446  39.477  17.051   0.977
47022W        W19447   9.711  43.214   2.291
47023W        W19448  26.301  27.861   3.040
47024W        W19449  31.006  32.231  11.656
47025W        W19450  15.699  30.187   1.514
47026W        W19451   8.016  15.748  10.338
47027W        W19452  25.230  10.502   0.382
47028W        W19453   7.870  40.233   2.755
47029W        W19454   2.730   9.243  13.863
47030W        W19455  23.766  15.210  14.397
47031W        W19456  30.899  24.655   2.810
47032W        W19457  17.106  10.067  14.181
47033W        W19458   9.896   4.513   0.384
47034W        W19459   1.621  23.420  12.373
47035W        W19460   9.230  39.573   0.159
47036W        W19461  21.929  10.093  14.889
47037W        W19462  11.615  36.800   0.794
47038W        W19463   4.626  39.587   2.612
47039W        W19464  10.358  13.091  14.764
47040W        W19465  37.430  22.210   1.450
47041W        W19466   1.517  30.552   0.522
47042W        W19467  18.555  38.661  10.726
47043W        W19468  22.103   4.251  11.920
47044W        W19469   1.394  16.604   1.987
47045W        W19470  38.504  29.261  12.398
47046W        W19471   0.837   3.683   1.235
47047W        W19472  33.445  15.601   2.719
47048W        W19473  37.369  41.936  11.640
47049W        W19474   3.750  29.652  11.540
47050W        W19475  11.174  14.739  14.491
47051W        W19476  12.712  15.682  14.448
47052W        W19477  20.233  16.642   1.297
47053W        W19478  17.240   8.195   0.330
47054W        W19479   4.383  37.813   2.586
47055W        W19480   2.348   3.821   0.243
47056W        W19481  14.640  27.205   2.824
47057W        W19482  23.155   7.407  11.544
47058W        W19483   2.953  13.149  12.503
47059W        W19484  40.222  38.374   2.843
47060W        W19485  23.113  30.151  12.539
47061W        W19486   9.714  23.766   0.368
47062W        W19487   6.799  36.390   4.617
47063W        W19488  36.716  36.216   3.213
47064W        W19489   8.260  31.234  14.965
47065W        W19490  40.167  39.482  11.059
47066W        W19491  42.895   1.444  13.222
47067W        W19492   6.658  37.516  11.154
47068W        W19493   5.595  26.848  10.780
47069W        W19494   1.292  41.267   1.788
47070W        W19495  16.064   0.916   3.311
47071W        W19496  41.885  18.188  11.868
47072W        W19497  15.289  17.533   4.533
47073W        W19498   5.737  40.686  13.004
47074W        W19499   3.965  28.572   0.518
47075W        W19500  20.135  31.955   4.489
47076W        W19501  10.221  38.764   4.105
47077W        W19502  21.648  18.132  13.906
47078W        W19503  26.985   7.706  12.213
47079W        W19504  37.030  15.008   2.921
47080W        W19505  25.978  32.382   1.062
47081W        W19506  16.368  22.710   0.375
47082W        W19507  18.020  33.058  12.846
47083W        W19508   4.181  42.143   1.859
47084W        W19509   8.290  35.135  13.907
47085W        W19510  35.131  24.232  13.860
47086W        W19511  10.708   6.749  14.073
47087W        W19512  38.040   7.980   0.930
47088W        W19513  16.152  16.266  10.701
47089W        W19514  28.062  43.943   4.299
47090W        W19515  20.743   7.231   0.762
47091W        W19516  32.087   9.389   2.389
47092W        W19517  39.286  40.604  11.148
47093W        W19518  21.227  24.984   1.344
47094W        W19519  29.159   2.543  14.923
47095W        W19520  18.968  13.325   2.995
47096W        W19521  35.920  23.285   1.318
47097W        W19522  11.861  14.643  12.129
47098W        W19523  29.190   0.439  12.507
47099W        W19524  31.234  40.750  12.844
47100W        W19525  20.130  31.471  12.451
47101W        W19526   1.911  12.645   5.031
47102W        W19527  13.042  26.600   4.564
47103W        W19528  42.328   3.987   4.068
47104W        W19529  21.594  31.832   2.571
47105W        W19530  27.276  17.754   3.245
47106W        W19531  32.873  28.471  14.420
47107W        W19532  15.135   8.348  14.838
47108W        W19533  28.587   4.510  10.645
47109W        W19534  13.060  44.866  13.887
47110W        W19535  35.624  18.044   3.760
47111W        W19536  41.455   3.376  11.665
47112W        W19537  20.279  12.433  12.322
47113W        W19538   6.345  25.673   1.688
47114W        W19539   7.278   6.466   3.185
47115W        W19540  44.914  26.643  11.449
47116W        W19541  25.928  31.011  13.034
47117W        W19542  15.658   6.786  12.040
47118W        W19543  33.162  36.999   2.027
47119W        W19544  43.149   7.389  11.680
47120W        W19545  11.387  10.387   0.422
47121W        W19546  42.620   2.839  14.739
47122W        W19547  33.885  39.975   2.810
47123W        W19548  12.906   7.552  12.970
47124W        W19549   7.122  13.364   0.264
47125W        W19550   2.938  16.615   3.365
47126W        W19551  29.015  12.306  10.942
47127W        W19552  32.475  18.797  12.550
47128W        W19553  42.817  12.586   2.776
47129W        W19554   5.017  13.221  11.328
47130W        W19555   9.403  12.613   1.689
47131W        W19556  26.288  36.932  14.884
47132W        W19557  28.927  26.889   1.469
47133W        W19558  13.673   0.405   1.780
47134W        W19559   6.739  35.932   4.877
47135W        W19560   6.154  15.672   2.233
47136W        W19561   4.127   3.960  12.074
47137W        W19562  29.582  18.905  14.449
47138W        W19563  13.313   0.075  12.459
47139W        W19564  21.737  40.692   2.431
47140W        W19565  15.601   1.980   3.970
47141W        W19566  12.816  39.979  12.030
47142W        W19567  25.616  21.132   4.635
47143W        W19568  35.635  19.501   2.960
47144W        W19569  14.974  43.275   0.834
47145W        W19570  12.707   4.769   1.348
47146W        W19571   8.442  27.069  11.481
47147W        W19572  41.268  10.143  12.872
47148W        W19573  16.799  28.650   2.424
47149W        W19574  18.965  29.104   2.718
47150W        W19575  21.748  44.458   3.205
47151W        W19576  28.233  31.651   4.991
47152W        W19577   4.228  17.910  13.892
47153W        W19578  39.999   8.566   2.366
47154W        W19579   5.340  10.916  13.351
47155W        W19580  32.040   6.696  14.932
47156W        W19581  20.591  43.795  12.489
47157W        W19582  15.171  16.569  12.882
47158W        W19583  32.152  33.378  11.515
47159W        W19584  21.569  14.827  14.079
47160W        W19585  20.655   8.848   0.420
47161W        W19586  30.371  11.273  14.364
47162W        W19587  31.247  18.657   1.748
47163W        W19588  19.331  32.554   0.726
47164W        W19589  42.706  32.629   2.731
47165W        W19590  43.026  35.851   4.588
47166W        W19591   3.482  13.658  11.096
47167W        W19592   8.671   9.317  12.878
47168W        W19593  40.021  33.793  12.967
47169W        W19594  31.407   2.861   4.135
47170W        W19595  37.942  18.872  10.690
47171W        W19596  10.840   9.137  14.104
47172W        W19597  43.815  27.427  13.904
47173W        W19598  18.568  22.938  12.151
47174W        W19599  41.962  10.945  14.155
47175W        W19600  19.719  17.655   2.428
47176W        W19601  36.433  11.098  12.738
47177W        W19602  17.233  16.517   1.846
47178W        W19603   7.075  21.644   1.819
47179W        W19604  26.178  24.993   1.256
47180W        W19605   5.803  17.847   1.980
47181W        W19606   9.822   8.839   1.185
47182W        W19607  20.881   8.233   2.192
47183W        W19608  14.167  25.454  12.963
47184W        W19609   2.515  38.819   4.562
47185W        W19610  16.719  31.604   0.657
47186W        W19611  27.662  18.801  12.130
47187W        W19612  32.950  10.335  14.367
47188W        W19613  23.212   8.685   4.687
47189W        W19614  33.654   6.370  11.936
47190W        W19615  32.431  40.337   0.976
47191W        W19616   8.820  22.703   2.893
47192W        W19617   0.240  33.083   4.785
47193W        W19618  30.702  24.152   2.762
47194W        W19619   1.912  41.023   1.892
47195W        W19620  14.607   8.062  14.900
47196W        W19621  37.479   0.873   3.550
47197W        W19622  14.609   5.998  13.389
47198W        W19623  29.047   5.327  13.471
47199W        W19624   9.748  25.406  12.424
47200W        W19625  40.957  44.503   1.389
47201W        W19626  16.571  14.045   3.911
47202W        W19627  11.128  23.931   3.679
47203W        W19628   8.700  25.804   1.157
47204W        W19629   4.215  35.825   5.116
47205W        W19630  12.337   9.792   4.121
47206W        W19631  30.787  29.938   4.597
47207W        W19632  37.239   5.806   3.679
47208W        W19633   7.659  21.515  10.703
47209W        W19634  27.251   9.807   2.221
47210W        W19635  39.999   4.923  12.524
47211W        W19636  10.967   9.594  13.082
47212W        W19637   1.888  43.479   1.730
47213W        W19638   8.834   4.709  11.017
47214W        W19639  14.866   8.625   4.188
47215W        W19640  41.012  17.881  10.901
47216W        W19641   2.407  35.296   1.250
47217W        W19642  24.465  36.405  13.527
47218W        W19643  26.655  40.472   0.820
47219W        W19644  33.439  10.327  10.009
47220W        W19645  21.950  11.282  14.739
47221W        W19646  35.201  15.641  11.953
47222W        W19647   7.856   7.021   1.008
47223W        W19648   6.331   3.317   1.527
47224W        W19649   3.807  43.376  12.971
47225W        W19650  35.656   9.377   3.289
47226W        W19651  33.425  23.850   2.369
47227W        W19652  12.434  32.069   3.560
47228W        W19653  44.941  30.177   2.463
47229W        W19654   1.441  10.592   4.813
47230W        W19655  10.259  14.254   4.711
47231W        W19656  19.139  24.218  10.696
47232W        W19657  40.467   8.390  13.496
47233W        W19658  39.617  34.348   2.528
47234W        W19659  41.834  15.103  13.724
47235W        W19660  29.628  11.930  14.799
47236W        W19661  27.532  39.738   4.561
47237W        W19662   4.815  19.647   0.713
47238W        W19663  26.552  22.194  13.490
47239W        W19664  31.710   6.738   4.140
47240W        W19665  11.790  40.524  10.683
47241W        W19666  11.419  35.072  14.195
47242W        W19667  30.852  33.117   2.769
47243W        W19668  30.256  15.997   1.460
47244W        W19669  30.054  25.010  11.677
47245W        W19670   9.199  20.086   4.116
47246W        W19671  31.180  43.395   1.296
47247W        W19672   3.463   1.859  12.507
47248W        W19673   9.205  26.880   2.408
47249W        W19674  16.706  13.960  13.345
47250W        W19675  33.712  21.494  10.725
47251W        W19676  31.664  15.186  12.542
47252W        W19677  33.503  16.124   4.448
47253W        W19678  42.577  12.627   1.400
47254W        W19679  29.968  25.566   2.260
47255W        W19680  28.964   9.724  14.602
47256W        W19681   1.812  15.896  13.165
47257W        W19682  35.009  29.947   2.372
47258W        W19683  16.692  20.770  10.826
47259W        W19684  23.260  20.013  11.558
47260W        W19685  18.024  33.379  13.564
47261W        W19686  33.837  44.440  10.444
47262W        W19687  13.686  19.094   3.397
47263W        W19688  17.029   3.901  10.616
47264W        W19689   3.337  33.953  12.582
47265W        W19690  43.095  37.812   1.694
47266W        W19691  27.546  11.844   4.627
47267W        W19692  31.949  40.319   3.077
47268W        W19693  43.513  10.873  14.796
47269W        W19694   4.650  25.158   5.277
47270W        W19695   6.965  25.092  12.549
47271W        W19696  38.561  44.509  10.688
47272W        W19697   4.540  18.069  13.483
47273W        W19698   9.200  31.561   1.733
47274W        W19699   8.275  44.456   2.865
47275W        W19700  23.717  37.457  10.917
47276W        W19701  38.130  16.722  14.962
47277W        W19702  42.797  23.934   0.395
47278W        W19703  19.166  10.832   0.828
47279W        W19704  43.754  26.304   4.551
47280W        W19705   7.772  20.142  13.481
47281W        W19706  15.743  10.603   1.278
47282W        W19707  42.339   8.748  14.407
47283W        W19708  25.049  10.749  12.802
47284W        W19709  28.408  13.929  12.588
47285W        W19710   8.514   1.945  14.813
47286W        W19711  10.156  10.826  14.270
47287W        W19712  28.557  41.438   4.995
47288W        W19713  25.495  30.933  11.896
47289W        W19714  33.510  15.365   2.192
47290W        W19715   0.966  38.027  12.205
47291W        W19716  31.262  30.680  10.190
47292W        W19717   6.821   0.958   2.585
47293W        W19718  31.134  39.416   2.756
47294W        W19719  36.410  26.234  11.606
47295W        W19720  18.731  18.090  14.335
47296W        W19721   2.349  38.871  11.480
47297W        W19722   8.464   7.273  14.323
47298W        W19723  23.111  15.762  11.427
47299W        W19724  10.735  14.485   3.879
47300W        W19725  42.473  33.356   1.385
47301W        W19726  40.094  17.030   4.754
47302W        W19727  39.864   5.653   2.772
47303W        W19728   0.326  44.298  14.874
47304W        W19729   4.305  12.000  13.029
47305W        W19730  41.147  24.537  11.595
47306W        W19731  25.525   0.473   3.187
47307W        W19732   5.312  14.610   4.595
47308W        W19733   2.874  22.645   1.310
47309W        W19734   3.995  26.006   2.896
47310W        W19735  38.351  24.468   0.929
47311W        W19736  31.500   3.359   0.420
47312W        W19737  36.906  13.346   3.791
47313W        W19738  27.033  31.792   3.206
47314W        W19739  44.331  10.110   0.390
47315W        W19740  15.334  24.323   3.107
47316W        W19741   6.836  38.885   1.440
47317W        W19742   0.570  10.631  10.857
47318W        W19743  12.115  21.099  13.186
47319W        W19744  33.139   5.673  10.407
47320W        W19745  13.273  25.150   1.297
47321W        W19746   4.253  22.184  14.305
47322W        W19747  38.832  17.300   4.054
47323W        W19748  40.868  17.580  13.400
47324W        W19749  36.125  27.507   2.522
47325W        W19750  39.340   7.428   3.671
47326W        W19751   1.903  26.555  14.307
47327W        W19752  31.991  26.974  14.222
47328W        W19753  39.545  27.516  13.250
47329W        W19754  17.116  15.674   3.806
47330W        W19755  21.537  26.846  12.686
47331W        W19756  23.471  34.391   0.039
47332W        W19757  11.832  42.322   4.311
47333W        W19758   4.713  27.663  10.022
47334W        W19759  36.674  12.959  14.415
47335W        W19760  24.601  40.925  10.498
47336W        W19761  19.721  13.999   0.610
47337W        W19762  28.246  15.095   4.719
47338W        W19763  11.987   4.939  14.057
47339W        W19764  37.574  24.071  13.259
47340W        W19765  28.623  35.530   2.474
47341W        W19766  32.106  25.166  14.249
47342W        W19767  13.140  38.089  13.547
47343W        W19768  29.617   0.962   1.984
47344W        W19769  34.605  41.255  12.557
47345W        W19770   1.240  33.597   1.961
47346W        W19771   7.156  42.963  12.038
47347W        W19772  16.716  34.934   9.854
47348W        W19773  13.207  38.316  11.585
47349W        W19774  39.849   8.872   2.779
47350W        W19775   0.779  38.620  14.957
47351W        W19776  13.726  13.320  12.613
47352W        W19777  34.683   7.555  14.359
47353W        W19778  11.626  19.160   0.354
47354W        W19779  16.997   4.328   2.829
47355W        W19780  20.960  33.316  11.203
47356W        W19781  36.598  14.875   4.602
47357W        W19782   7.702  14.686   4.138
47358W        W19783  35.945   9.224  13.473
47359W        W19784  34.411   4.835  12.599
47360W        W19785  13.744  28.662  12.481
47361W        W19786   3.449  12.163   2.954
47362W        W19787  23.410  24.179  13.941
47363W        W19788  15.735  44.056   4.237
47364W        W19789  26.729  22.350  12.957
47365W        W19790   2.028  13.159   0.722
47366W        W19791  16.576   7.843  12.927
47367W        W19792  28.877  21.473  11.450
47368W        W19793  14.361  38.373   4.518
47369W        W19794   4.704  13.201  10.914
47370W        W19795   2.707  37.508  14.873
47371W        W19796   0.855  34.310   0.874
47372W        W19797   1.748  23.182  11.919
47373W        W19798  20.918  27.738   2.333
47374W        W19799  35.622  15.974  12.049
47375W        W19800  17.664  33.894  13.808
47376W        W19801  39.753  22.148  11.578
47377W        W19802  39.166  42.451   4.614
47378W        W19803  15.130  17.303   2.205
47379W        W19804  38.466  30.981   1.997
47380W        W19805  13.338  14.793   0.569
47381W        W19806  32.027   7.957   2.875
47382W        W19807   2.764  35.352   2.662
47383W        W19808  43.232  31.228   2.670
47384W        W19809  21.654  25.221  14.640
47385W        W19810  33.062  41.845   0.606
47386W        W19811   4.347  29.398  13.103
47387W        W19812   0.987  31.143  11.125
47388W        W19813  29.441  30.888   1.297
47389W        W19814  38.287  24.204   1.783
47390W        W19815  10.756   4.280   4.765
47391W        W19816  36.475  18.396   4.141
47392W        W19817  15.827  27.759  13.974
47393W        W19818  17.310  13.835   2.689
47394W        W19819  17.334  36.592  11.091
47395W        W19820  20.959  38.545   0.143
47396W        W19821  37.071  10.691  10.857
47397W        W19822  24.522  18.852   3.966
47398W        W19823  14.323  27.646  10.504
47399W        W19824  41.263  28.903   4.258
47400W        W19825   8.143  17.472  12.952
47401W        W19826  38.894   7.712  13.621
47402W        W19827  24.902  23.974   4.062
47403W        W19828  35.899  14.207   4.624
47404W        W19829  28.514  37.013   3.273
47405W        W19830  18.611  30.387   5.094
47406W        W19831  26.425  39.332  13.867
47407W        W19832  35.876  14.294  10.772
47408W        W19833   4.667   6.787   3.711
47409W        W19834  23.474  14.033   3.638
47410W        W19835   1.620  12.162  12.130
47411W        W19836  36.413   2.688   1.806
47412W        W19837  15.602  27.923  12.589
47413W        W19838  35.715  43.483   3.292
47414W        W19839  16.307  42.730   1.340
47415W        W19840  23.375  11.792   5.422
47416W        W19841  12.405  31.662  14.892
47417W        W19842  19.201   4.595   0.289
47418W        W19843  28.981  33.986   3.097
47419W        W19844  43.589  13.782  14.998
47420W        W19845  10.200  23.552   1.080
47421W        W19846   1.906  15.209  13.449
47422W        W19847  34.195  37.357  11.947
47423W        W19848   1.744  44.785  13.611
47424W        W19849   2.639  24.134  10.755
47425W        W19850  40.784  12.806   3.376
47426W        W19851   8.062  43.411   0.845
47427W        W19852  37.618  29.176   0.914
47428W        W19853  16.783   8.304  11.334
47429W        W19854   4.214  20.289   4.587
47430W        W19855  21.478  41.509  11.722
47431W        W19856   2.351  34.584  13.172
47432W        W19857  11.349  12.180   3.718
47433W        W19858  36.763  43.555  11.186
47434W        W19859  29.992  23.441  14.067
47435W        W19860   4.903  43.027   4.880
47436W        W19861   9.811  42.551  14.821
47437W        W19862  30.884  15.317   4.330
47438W        W19863   4.147  35.325   2.859
47439W        W19864  16.626   2.666   0.850
47440W        W19865   1.964  40.361   3.635
47441W        W19866  25.689   5.336   3.834
47442W        W19867  35.701  17.485  14.740
47443W        W19868  29.028  28.525  14.968
47444W        W19869  16.463  31.680  14.312
47445W        W19870  31.426  10.340  11.440
47446W        W19871  11.366   6.427   1.446
47447W        W19872  42.806   3.377   1.575
47448W        W19873  33.886  41.797  10.694
47449W        W19874   3.481  13.064  12.415
47450W        W19875  36.470  23.260   2.641
47451W        W19876  19.036   3.438   4.866
47452W        W19877  12.852  15.700  10.981
47453W        W19878  41.797  24.272  13.498
47454W        W19879  31.897  27.339   4.574
47455W        W19880   2.544  24.798  13.409
47456W        W19881   8.840  16.755  11.255
47457W        W19882   7.967   8.558  11.473
47458W        W19883  27.771  16.109   4.690
47459W        W19884  36.404  35.616  13.184
47460W        W19885   6.291  41.760  14.773
47461W        W19886  42.956  34.157  11.702
47462W        W19887   5.014   6.893  11.201
47463W        W19888   3.739  40.770  13.460
47464W        W19889  42.883  17.192   0.449
47465W        W19890  23.082  11.600   5.041
47466W        W19891  14.279   1.857   5.059
47467W        W19892   0.943   0.902  12.437
47468W        W19893  36.798  15.708  10.996
47469W        W19894   8.492  16.218  13.589
47470W        W19895   2.868  13.405  12.952
47471W        W19896  26.533  32.032   3.266
47472W        W19897  31.439  35.663   0.213
47473W        W19898  39.270  43.934  13.966
47474W        W19899   4.626  36.582  11.958
47475W        W19900  40.491  34.488  10.702
47476W        W19901  24.001  26.689   1.906
47477W        W19902  27.131  23.015  10.140
47478W        W19903  33.574  20.541   4.456
47479W        W19904  14.839  35.676  11.517
47480W        W19905   1.788   0.341   0.343
47481W        W19906   3.155  38.115   0.834
47482W        W19907   8.576  37.894  13.676
47483W        W19908  36.695   8.134  14.391
47484W        W19909  44.445  19.626  11.219
47485W        W19910  31.710  28.536  13.977
47486W        W19911  42.084  40.697   3.907
47487W        W19912  36.995   9.738   5.745
47488W        W19913  18.935  23.844   4.852
47489W        W19914  42.813   5.218  12.720
47490W        W19915   4.879  11.026  10.632
47491W        W19916   5.731  24.930   1.716
47492W        W19917  24.201  38.801  10.129
47493W        W19918  16.222  39.468  14.092
47494W        W19919   9.763  31.712  14.454
47495W        W19920   2.230  28.634  14.021
47496W        W19921  35.378   6.209  10.395
47497W        W19922  18.836  11.712   2.274
47498W        W19923   0.063   7.292  14.064
47499W        W19924  24.909  37.807   1.532
47500W        W19925  27.305  25.506  12.613
47501W        W19926  24.094  21.469   1.341
47502W        W19927   8.723  15.052   0.999
47503W        W19928   6.791  17.843  11.629
47504W        W19929  29.706  22.491  11.590
47505W        W19930   2.842  42.088  14.717
47506W        W19931  29.164   3.256   3.817
47507W        W19932   1.701  42.260   3.778
47508W        W19933  13.250  23.096  11.436
47509W        W19934  28.306  25.407   3.233
47510W        W19935   0.825  36.094   4.098
47511W        W19936  23.190  40.001  10.787
47512W        W19937  13.357  23.409  13.105
47513W        W19938   6.891   7.247  10.690
47514W        W19939  40.105  21.763   0.409
47515W        W19940  15.622   3.299  10.631
47516W        W19941   2.411  13.353   1.058
47517W        W19942  21.567  32.404   4.071
47518W        W19943  17.269  20.439   3.208
47519W        W19944  30.411   7.769  11.673
47520W        W19945  10.143  24.966   4.999
47521W        W19946  32.540  31.465  11.787
47522W        W19947   3.726  19.739  13.585
47523W        W19948   6.698  35.913  11.579
47524W        W19949  11.297  10.211  14.288
47525W        W19950  15.414  39.371   2.707
47526W        W19951  42.097  42.820  14.411
47527W        W19952  28.498  16.519   0.234
47528W        W19953  28.671  40.402  14.450
47529W        W19954  38.532  44.529  12.234
47530W        W19955  13.881   8.419   3.233
47531W        W19956  21.664  18.972   1.323
47532W        W19957  32.990  15.963   1.749
47533W        W19958   4.744  24.243   2.317
47534W        W19959  40.558   1.963   3.657
47535W        W19960   1.764  29.592  11.612
47536W        W19961  23.514  28.126   4.375
47537W        W19962   0.412  22.669  13.378
47538W        W19963  38.756  32.963  10.517
47539W        W19964  17.299  32.084  10.253
47540W        W19965  17.775  33.077   3.885
47541W        W19966  23.546  37.027  11.692
47542W        W19967  15.514   4.791  14.463
47543W        W19968  39.024  23.690  10.716
47544W        W19969   3.798   3.435  12.902
47545W        W19970  40.416  39.357   2.691
47546W        W19971   0.758  44.253   2.135
47547W        W19972  13.088  13.333  14.951
47548W        W19973  35.597  28.617  11.872
47549W        W19974  39.783  10.336  12.963
47550W        W19975  26.011  16.026   0.424
47551W        W19976   8.349  17.111   4.294
47552W        W19977  19.026   4.498   1.685
47553W        W19978  40.503   9.354   3.270
47554W        W19979  28.937  40.715  12.095
47555W        W19980  18.062  38.898  12.447
47556W        W19981   8.343  33.043   0.086
47557W        W19982  19.556  15.209   0.016
47558W        W19983   6.404  20.596   0.354
47559W        W19984  22.345  19.189  13.865
47560W        W19985   4.873  40.008   3.586
47561W        W19986   8.416  34.405  10.986
47562W        W19987  30.105  41.822  11.836
47563W        W19988   4.290  35.010  11.172
47564W        W19989  33.956  15.382   3.451
47565W        W19990  14.902  21.832   1.287
47566W        W19991   7.256  28.438  13.026
47567W        W19992   2.162  32.441  14.238
47568W        W19993  25.029  26.076  13.027
47569W        W19994   3.001  37.363  14.454
47570W        W19995  26.994  38.685   2.543
47571W        W19996  15.829  35.837  11.504
47572W        W19997   6.429  28.455   4.775
47573W        W19998  23.777  39.714   4.134
47574W        W19999   4.824   2.022   2.940
47575W        W20000  15.825   0.621  11.737
47576W        W20001  42.482   1.163   1.368
47577W        W20002  26.016  16.602  12.481
47578W        W20003  11.305  21.955   2.324
47579W        W20004  14.615   2.753   4.717
47580W        W20005  17.533   0.683  12.241
47581W        W20006  10.771   9.265  14.622
47582W        W20007   7.298   3.401   1.492
47583W        W20008  36.613  11.909  10.291
47584W        W20009   6.137  18.178   1.692
47585W        W20010  28.878  29.946  12.964
47586W        W20011  23.477  26.002  11.423
47587W        W20012  34.776  23.740  12.166
47588W        W20013  29.645  21.033  11.613
47589W        W20014  43.254  10.649  13.868
47590W        W20015  20.643  32.403   2.265
47591W        W20016  18.972   2.868  11.473
47592W        W20017  30.408   6.382  13.352
47593W        W20018  11.326  43.881  14.259
47594W        W20019  21.257  20.110  12.580
47595W        W20020  25.526  36.655   1.427
47596W        W20021   5.897  14.906   0.749
47597W        W20022  44.416  20.000   3.197
47598W        W20023  15.933  44.994  13.441
47599W        W20024  33.819  24.166  13.472
47600W        W20025  15.701  37.413  10.799
47601W        W20026  28.555  39.445   1.256
47602W        W20027  23.899  23.959  11.236
47603W        W20028  20.365  12.722  14.831
47604W        W20029   6.592   8.299  13.905
47605W        W20030  40.303  27.105  12.362
47606W        W20031   4.474  37.054  12.097
47607W        W20032  33.939  27.557  12.023
47608W        W20033  27.583  27.120  11.143
47609W        W20034   9.233  26.980  10.872
47610W        W20035  14.889  42.769  10.753
47611W        W20036   9.794   3.546   2.422
47612W        W20037  18.694  14.202  11.477
47613W        W20038  17.342  41.076   4.426
47614W        W20039   0.762   3.768  14.901
47615W        W20040  39.400  25.059   1.374
47616W        W20041  18.383  37.318  12.025
47617W        W20042  37.568  12.264  13.019
47618W        W20043  10.102   5.860  12.114
47619W        W20044  37.663  11.806   2.743
47620W        W20045   8.830  11.273  14.042
47621W        W20046  30.089  22.083  14.468
47622W        W20047  25.798  38.338   1.255
47623W        W20048  13.118  33.089  14.075
47624W        W20049  40.531  18.351   4.253
47625W        W20050  20.786  36.931  12.908
47626W        W20051  42.034   8.945   3.604
47627W        W20052  43.707  26.667  12.364
47628W        W20053  17.763   2.573   3.412
47629W        W20054  28.685  23.193   4.695
47630W        W20055  42.840  22.469   1.228
47631W        W20056  13.789  42.272   3.476
47632W        W20057  11.896  10.295   1.912
47633W        W20058  35.891  31.383   3.142
47634W        W20059   4.271  11.217  14.577
47635W        W20060  15.458  10.265   0.875
47636W        W20061  14.542  27.501   1.590
47637W        W20062  27.912  13.682   5.151
47638W        W20063   2.163  23.036   0.918
47639W        W20064  22.150  20.403   2.763
47640W        W20065  19.618   0.330   4.209
47641W        W20066  10.765  36.155   2.646
47642W        W20067  36.571  21.623  11.102
47643W        W20068  10.910   2.321  13.089
47644W        W20069  17.159  34.891  10.563
47645W        W20070  34.416   2.724   2.733
47646W        W20071  18.694  20.810   4.577
47647W        W20072  32.539   3.251   3.186
47648W        W20073  10.239  27.897  10.561
47649W        W20074  25.219  27.681   3.111
47650W        W20075  14.773  24.102   9.846
47651W        W20076  36.743  38.833   0.516
47652W        W20077  32.525  34.490  14.808
47653W        W20078   1.975   2.388   3.661
47654W        W20079  10.015   4.806   4.546
47655W        W20080  20.526  33.155  13.836
47656W        W20081   6.308   2.784   3.949
47657W        W20082   4.205   8.570  14.833
47658W        W20083  12.142  29.268  11.144
47659W        W20084  33.161  41.895  11.305
47660W        W20085  41.355  40.240   4.490
47661W        W20086   3.493   6.946   1.914
47662W        W20087  12.117  34.718   3.333
47663W        W20088   7.448   7.342   0.853
47664W        W20089  16.749  20.980  11.606
47665W        W20090  40.092  36.078  13.010
47666W        W20091  37.488  18.589  10.445
47667W        W20092  13.565  18.615   3.733
47668W        W20093  24.375  41.980   1.769
47669W        W20094  35.903  25.106   1.845
47670W        W20095   7.332   4.737   1.961
47671W        W20096  32.130  37.018  10.467
47672W        W20097  32.293  13.114  10.738
47673W        W20098  11.189  42.693  11.689
47674W        W20099  43.217  13.225  11.999
47675W        W20100   2.147  30.891   3.976
47676W        W20101  35.028  25.420   2.346
47677W        W20102  28.311  10.383  13.564
47678W        W20103  28.869  28.463   0.786
47679W        W20104  12.822   5.811  13.609
47680W        W20105  26.961  33.584  13.298
47681W        W20106   3.379  20.005   3.397
47682W        W20107   1.399   4.891   4.389
47683W        W20108  32.973  20.331  12.000
47684W        W20109  15.601   8.625  14.393
47685W        W20110   7.744  16.650  14.733
47686W        W20111   4.728  12.549   2.685
47687W        W20112  41.020  33.406   3.238
47688W        W20113  25.033  18.839   2.840
47689W        W20114   1.947   6.358  13.219
47690W        W20115  32.455  38.537   4.655
47691W        W20116  38.818  13.242   1.921
47692W        W20117  35.388   8.312  11.634
47693W        W20118   4.014  38.680  14.478
47694W        W20119   1.412   5.320   4.072
47695W        W20120   2.167  29.375  12.528
47696W        W20121  26.436  10.107   3.461
47697W        W20122   8.183  19.829   1.840
47698W        W20123   7.116  10.533  13.660
47699W        W20124  14.622  30.645  12.959
47700W        W20125  23.179  26.511   3.453
47701W        W20126   3.505  32.317  13.025
47702W        W20127  13.589  28.891  12.029
47703W        W20128  35.864  17.042  14.489
47704W        W20129  38.471  30.878   1.477
47705W        W20130  41.587  36.377  11.584
47706W        W20131  44.886  27.594   1.357
47707W        W20132   2.836  39.090   3.126
47708W        W20133   5.346  44.432  12.999
47709W        W20134  42.344   3.959  12.542
47710W        W20135  19.969  35.941   1.311
47711W        W20136   4.375  19.494   0.493
47712W        W20137   2.210   7.115   1.458
47713W        W20138  37.308  25.271  13.074
47714W        W20139  19.086  34.352  12.649
47715W        W20140  41.312  36.958   4.560
47716W        W20141  25.600   4.452  11.886
47717W        W20142  29.934  21.053  12.546
47718W        W20143  40.758  14.159   0.891
47719W        W20144  23.700  10.442   0.459
47720W        W20145   4.623  41.988  11.185
47721W        W20146  41.909   3.434  14.714
47722W        W20147  28.184  30.128  11.023
47723W        W20148  17.376  30.352  12.531
47724W        W20149  24.628  29.430   2.788
47725W        W20150  38.639   8.902  11.592
47726W        W20151   1.198  15.342   4.481
47727W        W20152  11.325   2.020   1.765
47728W        W20153  22.628  42.519   3.889
47729W        W20154  24.074  27.965  14.963
47730W        W20155  23.592  11.202  13.292
47731W        W20156  11.684  26.177   2.424
47732W        W20157  19.723  33.419  13.919
47733W        W20158  42.434  12.248  10.639
47734W        W20159  32.493  17.733   4.589
47735W        W20160  14.809  36.348   4.690
47736W        W20161  26.203   6.700  13.892
47737W        W20162  34.622  21.082  10.059
47738W        W20163   1.616  31.448   1.101
47739W        W20164  29.497  42.989  10.736
47740W        W20165   6.349  26.383  11.005
47741W        W20166  12.179  26.725   3.003
47742W        W20167   5.538  30.094   2.155
47743W        W20168  28.652  41.721  10.359
47744W        W20169  30.378  42.266  11.854
47745W        W20170  22.326   5.373  13.824
47746W        W20171   7.327  30.357  13.694
47747W        W20172  18.023  41.522  13.888
47748W        W20173  20.150  38.704   4.875
47749W        W20174  16.104  42.573   1.853
47750W        W20175   0.786  34.773   2.304
47751W        W20176  39.114  28.613  12.426
47752W        W20177   6.792  34.381  13.531
47753W        W20178  40.749   9.272   4.057
47754W        W20179   3.088   2.722   1.283
47755W        W20180  24.735   6.137  12.551
47756W        W20181  15.649  12.175   0.553
47757W        W20182   7.674   5.254   0.833
47758W        W20183  18.769   0.982  13.305
47759W        W20184  35.388   9.298  14.892
47760W        W20185  11.431  20.456  11.554
47761W        W20186  24.579  26.049  10.941
47762W        W20187  39.129   2.947   1.612
47763W        W20188   7.544  13.355  12.479
47764W        W20189  37.397  11.345   2.012
47765W        W20190  37.898   9.204  14.748
47766W        W20191  12.079  30.988   3.249
47767W        W20192  28.937   5.764   2.288
47768W        W20193   8.295   0.968   1.489
47769W        W20194   5.160  41.595  11.612
47770W        W20195  38.052  14.595   1.209
47771W        W20196  40.554  20.674  14.782
47772W        W20197  35.391   0.718   4.486
47773W        W20198  44.709   7.447   4.778
47774W        W20199   4.110  32.888   3.715
47775W        W20200  40.364   9.645   0.477
47776W        W20201  11.746  32.808   4.286
47777W        W20202  30.552  37.378   1.671
47778W        W20203   5.713  41.412   1.845
47779W        W20204   3.123   3.697  14.899
47780W        W20205  17.625  32.003   5.059
47781W        W20206  29.551  10.969   0.970
47782W        W20207  19.067  35.649   1.295
47783W        W20208   0.093  33.493   5.090
47784W        W20209   8.888   4.428   4.163
47785W        W20210  39.059  13.530   0.278
47786W        W20211  15.879  34.657  12.947
47787W        W20212   5.812   5.829   3.985
47788W        W20213  44.827   1.499   2.732
47789W        W20214  24.475  42.039  12.351
47790W        W20215  14.843  41.880  10.587
47791W        W20216  10.706  24.137   2.758
47792W        W20217  20.104  20.761   3.169
47793W        W20218  44.789  32.604  13.330
47794W        W20219  33.909   4.783  12.922
47795W        W20220  34.353  40.325  13.801
47796W        W20221  31.483  28.000  11.927
47797W        W20222   0.930  36.017  13.858
47798W        W20223  28.593  15.961  10.654
47799W        W20224  20.620  23.113  10.694
47800W        W20225  20.052  28.327   3.933
47801W        W20226  21.703  25.902  12.979
47802W        W20227   8.267  15.286  13.352
47803W        W20228  37.411  40.138   3.740
47804W        W20229   5.537  34.648   0.053
47805W        W20230  44.559  21.067   2.094
47806W        W20231   2.250  24.697   4.114
47807W        W20232   5.438  20.138   1.205
47808W        W20233  36.918   5.051  13.805
47809W        W20234  16.738  31.220   0.292
47810W        W20235   6.159  12.235   4.355
47811W        W20236  25.831  14.649  10.780
47812W        W20237   0.233  26.265  13.002
47813W        W20238  39.332  12.735  11.572
47814W        W20239  44.495  31.926  10.653
47815W        W20240  29.032   8.830  12.517
47816W        W20241   7.350   0.542  13.102
47817W        W20242  40.884  37.937   4.639
47818W        W20243   9.250   7.676   1.304
47819W        W20244  26.580  35.407   0.060
47820W        W20245  30.604  13.536  11.056
47821W        W20246  20.568  25.547   0.275
47822W        W20247  29.699   5.858   0.483
47823W        W20248  44.137  20.241  14.840
47824W        W20249  27.493   9.334   3.197
47825W        W20250  39.970  16.571   2.928
47826W        W20251  33.570  43.293   1.408
47827W        W20252   4.721  19.517  13.334
47828W        W20253  30.801  12.160   0.318
47829W        W20254  29.431  38.850   2.658
47830W        W20255  42.851  23.300  10.044
47831W        W20256   0.147  12.584  14.879
47832W        W20257   0.253  14.780  10.510
47833W        W20258  20.165  24.030  13.424
47834W        W20259   3.248  15.624   9.940
47835W        W20260  41.430  37.271  14.484
47836W        W20261  21.325  35.534   4.633
47837W        W20262   2.240  29.033   3.660
47838W        W20263  39.387  28.658  10.700
47839W        W20264  34.436   1.980  12.479
47840W        W20265   7.290  11.914  11.737
47841W        W20266  36.290  26.454   3.398
47842W        W20267  31.482   4.201   2.571
47843W        W20268  41.543  29.591   1.879
47844W        W20269   2.682  32.688  13.299
47845W        W20270  29.462  22.024  12.837
47846W        W20271  27.691  32.397  13.002
47847W        W20272  22.546  35.411  13.271
47848W        W20273  39.751   1.154   3.917
47849W        W20274   6.662  17.239   2.913
47850W        W20275  30.065  27.972   3.899
47851W        W20276  11.245  34.087  13.922
47852W        W20277  38.026  38.794  12.336
47853W        W20278  30.626  32.413   3.382
47854W        W20279  29.609  31.484  14.730
47855W        W20280  43.789  44.403   2.681
47856W        W20281  22.579   6.259  11.919
47857W        W20282  36.074   7.495   4.699
47858W        W20283  29.241  33.170  11.190
47859W        W20284  44.085   3.310  11.100
47860W        W20285  19.092  33.468  11.697
47861W        W20286  14.589  10.797  13.548
47862W        W20287  29.967  13.497   0.947
47863W        W20288  10.406  18.090   1.685
47864W        W20289  22.463  21.276   2.808
47865W        W20290  29.137  39.517  11.217
47866W        W20291   5.499  15.367   1.668
47867W        W20292  12.584  24.679   0.474
47868W        W20293  19.829   9.370  11.954
47869W        W20294   7.068  26.150  12.086
47870W        W20295   6.366  20.110   2.029
47871W        W20296  36.466  38.311   4.086
47872W        W20297  29.980   1.212   1.739
47873W        W20298  31.550  19.083   1.510
47874W        W20299   4.095  17.583  12.981
47875W        W20300   2.309  36.084  14.944
47876W        W20301   5.896  16.371   1.860
47877W        W20302  22.141   6.303   2.905
47878W        W20303  14.345  24.730   2.774
47879W        W20304  33.152   1.723   2.548
47880W        W20305  41.607  22.185  13.152
47881W        W20306  35.488   2.086   1.378
47882W        W20307   1.301   7.285   3.736
47883W        W20308  12.148  21.395   2.285
47884W        W20309  43.773  20.629   1.401
47885W        W20310  41.856  35.180  12.421
47886W        W20311  36.485  41.390  10.577
47887W        W20312  20.035   5.370   4.909
47888W        W20313  28.616  31.455   4.384
47889W        W20314  38.463  40.286  10.966
47890W        W20315   0.439  10.355  12.888
47891W        W20316   5.728  38.349  11.472
47892W        W20317  39.181  19.065   1.038
47893W        W20318  18.082  36.407   2.927
47894W        W20319   9.402   2.449  12.698
47895W        W20320  15.406  35.082   1.724
47896W        W20321  44.652  32.605   4.131
47897W        W20322  21.782  32.099  13.670
47898W        W20323  33.605  30.255   0.463
47899W        W20324  28.798  10.423   3.670
47900W        W20325  10.447  13.423   1.582
47901W        W20326  18.271  12.311  11.380
47902W        W20327   8.809  23.240   1.312
47903W        W20328   8.405  20.660  14.995
47904W        W20329  33.843  17.484   2.754
47905W        W20330  44.537  29.492   3.237
47906W        W20331  16.764  26.494  12.158
47907W        W20332   7.423  19.662   2.235
47908W        W20333   0.900  44.253   4.600
47909W        W20334  28.762  33.329   2.682
47910W        W20335  29.549  19.653   3.662
47911W        W20336  28.239  41.308  13.008
47912W        W20337  39.893  26.018   4.591
47913W        W20338  32.815   1.768  13.349
47914W        W20339  11.462   2.196   1.280
47915W        W20340  22.141  30.535  12.397
47916W        W20341  28.527  23.337   2.801
47917W        W20342   8.863  15.810   1.769
47918W        W20343  39.604   0.082  13.472
47919W        W20344  31.099  42.755   3.821
47920W        W20345  43.040  19.435   2.321
47921W        W20346  23.239   3.871   2.643
47922W        W20347  26.470  34.086  10.794
47923W        W20348  27.981  24.144  12.378
47924W        W20349  30.636  19.905   2.233
47925W        W20350  43.341   4.198  10.481
47926W        W20351   3.367  40.357   2.007
47927W        W20352  23.002  39.910   1.472
47928W        W20353  10.099  22.989   2.766
47929W        W20354  12.096  26.188  14.931
47930W        W20355  26.421  18.542   3.176
47931W        W20356  14.579  19.203  14.834
47932W        W20357  44.276  26.049  14.970
47933W        W20358   5.968  20.714  10.888
47934W        W20359   5.688  16.838  11.351
47935W        W20360  10.401  35.991  12.066
47936W        W20361   4.403  30.061   0.750
47937W        W20362  42.961  42.232  14.319
47938W        W20363   8.150   9.384  12.991
47939W        W20364  15.832   9.110   1.340
47940W        W20365   4.864  26.429  13.155
47941W        W20366  25.525  34.529   0.377
47942W        W20367   3.452   3.421  13.378
47943W        W20368  13.586   0.492  11.177
47944W        W20369  15.170  14.091   3.624
47945W        W20370  27.170   2.492   0.736
47946W        W20371  41.137  31.089  11.619
47947W        W20372   7.211  39.319  12.994
47948W        W20373  12.130  20.694  11.985
47949W        W20374  25.496  41.143  12.068
47950W        W20375  20.657  42.281  13.690
47951W        W20376  41.976  10.850   3.154
47952W        W20377  44.587  10.359   2.741
47953W        W20378  35.354  14.140   0.891
47954W        W20379  28.891   8.980   4.030
47955W        W20380  24.601  16.213  11.574
47956W        W20381   6.281  11.765   0.834
47957W        W20382  35.100  11.493  13.417
47958W        W20383   3.263  30.048   0.412
47959W        W20384  29.651  37.115  10.450
47960W        W20385  13.787  36.010  11.575
47961W        W20386  26.611  37.447   3.266
47962W        W20387  14.263   3.359   3.284
47963W        W20388   1.909   9.807   1.683
47964W        W20389  22.643  11.929   0.383
47965W        W20390  37.986   8.199  12.519
47966W        W20391   3.213  29.101  11.509
47967W        W20392   4.997  42.739  14.326
47968W        W20393  38.013  17.291  12.037
47969W        W20394  20.976  28.730  12.403
47970W        W20395  30.723   8.804   2.656
47971W        W20396  29.963  21.515   1.303
47972W        W20397  32.036  21.151  12.420
47973W        W20398   5.611  32.994   3.981
47974W        W20399  25.745   9.725   2.191
47975W        W20400  40.434   8.325  12.563
47976W        W20401  11.812  44.221  13.010
47977W        W20402  16.830   0.013  12.136
47978W        W20403  37.405  25.596  10.568
47979W        W20404  34.990  43.503   4.263
47980W        W20405  10.731  36.481   2.203
47981W        W20406   6.762  39.977  13.502
47982W        W20407  22.734  16.340  14.429
47983W        W20408  14.098  36.472   3.355
47984W        W20409  18.501   4.587  14.752
47985W        W20410  36.034  38.348  11.011
47986W        W20411  39.346  38.818   2.133
47987W        W20412  13.272  32.121  14.570
47988W        W20413  14.478  18.236  14.945
47989W        W20414  14.837  27.736  11.088
47990W        W20415  15.172  19.693   0.254
47991W        W20416  11.390  24.987  12.931
47992W        W20417  28.551  15.712   3.126
47993W        W20418   5.334  31.073  13.244
47994W        W20419  41.141  40.702   2.368
47995W        W20420   6.258  33.539   2.674
47996W        W20421  18.584  32.417  14.354
47997W        W20422  31.159  19.796  14.528
47998W        W20423  26.018  42.394   3.549
47999W        W20424  37.206  23.633   2.932
48000W        W20425  11.492   1.205  14.318
48001W        W20426  26.712   6.781   3.567
48002W        W20427   2.139  24.798  11.172
48003W        W20428  12.040  32.438   3.419
48004W        W20429  38.936  43.883  12.698
48005W        W20430  14.235   2.077  12.103
48006W        W20431  29.941  14.748   3.282
48007W        W20432  42.515  42.908   0.386
48008W        W20433  20.874  34.257  13.760
48009W        W20434  29.647   3.320  13.601
48010W        W20435  17.847  31.021   4.768
48011W        W20436  34.896  34.090   2.352
48012W        W20437  26.001  22.964  13.267
48013W        W20438  25.541  33.825   2.181
48014W        W20439  12.202  11.639  13.975
48015W        W20440  27.191  12.056   1.891
48016W        W20441  22.610  41.338  10.343
48017W        W20442  18.774  19.095   2.402
48018W        W20443   6.094  22.447   2.812
48019W        W20444  21.202   0.799  10.998
48020W        W20445   1.859  35.456   4.504
48021W        W20446  20.784  19.215   4.490
48022W        W20447   1.142  32.594   5.435
48023W        W20448  29.235  19.668   0.864
48024W        W20449  22.109  20.705   3.784
48025W        W20450   6.147  29.224   5.133
48026W        W20451  35.859   8.757   3.139
48027W        W20452  39.279  43.954   0.830
48028W        W20453  18.173   5.257   0.877
48029W        W20454  17.551  24.179  10.366
48030W        W20455  33.658  40.870   2.894
48031W        W20456   8.296  23.639  12.382
48032W        W20457   5.618  18.215   1.639
48033W        W20458  31.362  18.260  11.684
48034W        W20459  44.170   0.690  12.918
48035W        W20460  35.955   9.813  11.578
48036W        W20461   7.693  15.715   1.658
48037W        W20462  42.060   1.992   4.094
48038W        W20463  36.046   5.920   3.272
48039W        W20464  43.742  26.520  13.496
48040W        W20465  15.368  16.603   4.723
48041W        W20466  12.589   2.486  10.186
48042W        W20467  20.175  24.639   4.372
48043W        W20468   1.544   4.844   3.864
48044W        W20469  29.949  36.008   1.751
48045W        W20470  17.735  41.085  12.111
48046W        W20471   0.811  43.505   2.604
48047W        W20472  16.588  15.271  10.723
48048W        W20473  10.199  16.731  10.891
48049W        W20474  35.610  25.310  13.452
48050W        W20475  15.864  41.003  13.391
48051W        W20476  29.930  44.317   4.303
48052W        W20477  36.607  19.684  10.588
48053W        W20478  33.996  27.693  14.740
48054W        W20479  24.655  36.841   3.701
48055W        W20480  28.914  20.223   2.175
48056W        W20481  19.977  35.326  11.038
48057W        W20482  18.076  14.486   3.968
48058W        W20483   9.711   0.683  11.237
48059W        W20484  16.555  24.582   0.410
48060W        W20485  23.144  32.622  14.509
48061W        W20486  42.823  25.841   4.578
48062W        W20487  11.856  41.735  11.932
48063W        W20488  18.065  40.239   4.137
48064W        W20489  37.358  19.030   1.246
48065W        W20490   4.378  20.071  12.919
48066W        W20491  14.020   9.774  13.764
48067W        W20492   3.441   0.943   1.164
48068W        W20493  39.753   0.226  12.979
48069W        W20494  21.430  39.678   3.173
48070W        W20495  27.642  33.984   0.815
48071W        W20496   3.673  34.927   0.789
48072W        W20497   1.279  10.958   4.095
48073W        W20498  38.970  30.699   0.713
48074W        W20499  19.175   9.520   3.285
48075W        W20500   1.297  30.529   1.001
48076W        W20501   5.362   7.617  10.644
48077W        W20502  11.764  35.984  13.916
48078W        W20503   9.810  28.093   1.271
48079W        W20504  22.024  34.314   4.194
48080W        W20505   4.483   6.649  13.537
48081W        W20506  44.445  20.609   4.166
48082W        W20507  21.944  40.402   3.218
48083W        W20508  27.064  40.178   3.364
48084W        W20509  18.563  12.619   2.256
48085W        W20510  37.708  10.716  12.493
48086W        W20511  19.215  17.324  14.296
48087W        W20512   1.519   7.533   2.198
48088W        W20513   1.347  40.141  14.183
48089W        W20514   1.903  37.287   2.907
48090W        W20515  34.980  42.918   4.205
48091W        W20516  33.088  40.071  11.191
48092W        W20517   6.348  40.629  14.483
48093W        W20518  19.588  28.164   4.061
48094W        W20519  38.379   2.457  10.414
48095W        W20520  16.760  25.067   0.340
48096W        W20521  43.748  12.273  12.002
48097W        W20522  26.120  24.107   3.152
48098W        W20523  34.526  32.846  12.642
48099W        W20524  12.767  13.331  14.381
48100W        W20525  33.354  40.232   1.723
48101W        W20526   9.451  38.366   4.657
48102W        W20527  25.607  34.855   3.148
48103W        W20528  40.952  29.057  12.111
48104W        W20529  15.981  31.566  14.176
48105W        W20530   7.608   7.865  13.520
48106W        W20531  34.000   3.691   3.140
48107W        W20532   7.082  29.449  11.984
48108W        W20533   2.017  40.132   0.374
48109W        W20534  31.476   0.288   3.057
48110W        W20535  19.026  19.664   1.398
48111W        W20536   1.020  44.231   0.784
48112W        W20537  31.458   3.415   1.437
48113W        W20538  34.024  21.598   0.894
48114W        W20539  33.428  29.047  12.979
48115W        W20540   1.517   1.262  14.946
48116W        W20541  14.332   8.241  10.670
48117W        W20542  21.291  33.375   0.258
48118W        W20543  29.407   2.033   9.785
48119W        W20544  22.010  23.936  14.348
48120W        W20545  18.488  25.609  14.513
48121W        W20546  27.650  13.727   1.984
48122W        W20547  23.428  19.727   1.202
48123W        W20548  33.850  31.431   3.749
48124W        W20549   9.325  14.248   4.589
48125W        W20550   0.031  44.310   4.619
48126W        W20551   0.711   4.950  11.598
48127W        W20552  25.263  14.185   1.311
48128W        W20553   0.087  32.013  14.414
48129W        W20554  29.188  30.884  13.187
48130W        W20555  26.092  38.320  13.975
48131W        W20556  11.272  34.754  11.442
48132W        W20557   4.823   8.797   1.847
48133W        W20558  29.630  40.280   2.288
48134W        W20559  17.289  14.603   3.723
48135W        W20560  35.753  14.647  11.113
48136W        W20561  37.026  21.211   1.965
48137W        W20562  39.580  24.266  12.406
48138W        W20563   7.980   4.692   2.218
48139W        W20564  18.864   2.410   4.235
48140W        W20565   9.847  18.045   0.773
48141W        W20566  25.927  38.364  11.150
48142W        W20567  24.250  21.885   3.722
48143W        W20568  36.069  29.078  14.618
48144W        W20569  25.536  34.815  11.748
48145W        W20570  20.680  35.629  13.815
48146W        W20571   7.515  34.608   2.674
48147W        W20572  38.091  40.001  11.159
48148W        W20573  26.524  17.933  13.410
48149W        W20574   0.906  27.657   2.708
48150W        W20575  13.772  25.005   4.978
48151W        W20576   6.281  36.518  13.438
48152W        W20577   6.722  27.413   3.450
48153W        W20578  10.889  14.623   1.289
48154W        W20579  14.876  16.551  14.411
48155W        W20580  32.459   5.908  11.676
48156W        W20581  13.167  34.373  11.917
48157W        W20582  21.274  31.322  13.967
48158W        W20583  35.966  43.528   4.105
48159W        W20584  17.678  16.945   4.694
48160W        W20585  43.631  36.347  12.991
48161W        W20586  37.696  36.353  12.868
48162W        W20587  35.448  26.140   2.771
48163W        W20588  32.087   1.418   0.360
48164W        W20589  39.943   7.447   4.557
48165W        W20590  16.077  15.998  13.014
48166W        W20591   2.123  15.175   4.561
48167W        W20592  18.798  30.099  14.380
48168W        W20593  39.383   7.300   2.271
48169W        W20594  33.780  22.310  12.081
48170W        W20595   3.388   6.079  13.617
48171W        W20596  39.428   1.116  13.961
48172W        W20597  32.943  39.024  13.019
48173W        W20598   2.911  39.446  13.789
48174W        W20599  35.984  41.541  10.809
48175W        W20600  27.705  22.386  12.035
48176W        W20601  11.275   2.474  11.881
48177W        W20602  21.558   1.760  10.682
48178W        W20603  33.995  26.646  12.501
48179W        W20604  26.946   6.455  11.716
48180W        W20605  32.908  30.732  12.417
48181W        W20606  11.458  10.183   0.988
48182W        W20607  10.640  19.659   3.621
48183W        W20608  36.839  19.098  12.871
48184W        W20609  24.566   0.441  12.029
48185W        W20610  28.968  40.555   4.674
48186W        W20611   4.619  28.415  14.289
48187W        W20612  22.228   5.215  14.784
48188W        W20613  40.630   1.805  12.891
48189W        W20614  10.224   0.923   4.617
48190W        W20615  36.084  28.137   3.745
48191W        W20616  12.630  35.151  13.488
48192W        W20617  21.971  27.213   3.721
48193W        W20618   6.105  14.120   1.390
48194W        W20619   2.706  24.180   4.368
48195W        W20620   3.165  38.063  12.293
48196W        W20621  30.439  42.750  14.603
48197W        W20622  23.712  31.835   3.688
48198W        W20623   9.892  38.503  12.229
48199W        W20624   0.993   2.197   4.673
48200W        W20625  24.644  16.258  12.476
48201W        W20626  37.139  16.029   1.861
48202W        W20627  33.076  13.733  13.920
48203W        W20628   3.976  31.535  11.113
48204W        W20629  40.344  21.857   4.846
48205W        W20630  22.006   7.213  12.860
48206W        W20631  18.515  39.992  12.154
48207W        W20632  38.448  40.311   3.777
48208W        W20633   7.179  21.585   3.801
48209W        W20634  12.655   4.704   4.652
48210W        W20635  18.668   9.675  14.370
48211W        W20636  20.191  39.246   2.722
48212W        W20637  10.374  32.478   1.993
48213W        W20638  35.112  15.371  13.283
48214W        W20639  25.935  42.272  14.979
48215W        W20640  36.324  36.472  13.016
48216W        W20641   3.707  27.206   3.752
48217W        W20642   1.954   8.704   2.816
48218W        W20643   0.092  16.608  14.434
48219W        W20644  37.602  13.134  11.558
48220W        W20645  11.346  24.696   2.249
48221W        W20646  19.115  22.067  14.377
48222W        W20647  26.223  17.252  14.492
48223W        W20648  13.865  11.875   0.853
48224W        W20649  16.319  37.296   2.142
48225W        W20650   8.369  20.014   3.741
48226W        W20651   2.477  22.261  12.536
48227W        W20652  16.777  32.233  13.945
48228W        W20653  44.352  18.488   2.305
48229W        W20654  29.380   5.424   1.391
48230W        W20655  21.026  43.442  12.879
48231W        W20656  19.933  33.351   2.180
48232W        W20657  25.745  19.633  10.251
48233W        W20658  26.078   7.628   1.638
48234W        W20659  33.019  28.263   0.975
48235W        W20660  25.538   4.684  13.114
48236W        W20661  43.972   2.402   4.222
48237W        W20662  10.420  36.072   2.238
48238W        W20663  13.106  36.425   3.202
48239W        W20664   0.550  35.226  10.989
48240W        W20665  30.601  43.625  14.610
48241W        W20666  26.064  27.057  12.298
48242W        W20667   9.441   1.986  13.917
48243W        W20668   0.562  10.931   1.756
48244W        W20669  40.265  23.463  13.348
48245W        W20670   7.947  14.176  13.451
48246W        W20671  37.761  40.979   1.965
48247W        W20672  22.749  36.675  10.298
48248W        W20673  17.084  21.540   2.786
48249W        W20674   2.036  33.863   4.260
48250W        W20675  11.395  36.804  14.438
48251W        W20676  23.464   3.300   4.356
48252W        W20677  38.893  23.362  11.691
48253W        W20678  22.643  22.591  13.430
48254W        W20679   1.521  18.856  11.200
48255W        W20680  10.316  13.929  13.554
48256W        W20681   1.926   3.726   3.366
48257W        W20682  28.250  10.082  11.534
48258W        W20683  39.819   6.371  12.489
48259W        W20684  36.952   3.008   0.809
48260W        W20685  34.443   9.438   2.563
48261W        W20686  15.285  11.347  12.525
48262W        W20687   3.956  13.850  11.149
48263W        W20688  19.133  16.471   3.151
48264W        W20689  34.608  11.682   2.998
48265W        W20690  10.067   4.141  14.755
48266W        W20691  34.466  19.576  13.977
48267W        W20692   3.275  43.252  11.039
48268W        W20693   2.457   0.942  12.588
48269W        W20694  11.827  21.996  14.216
48270W        W20695   5.719   7.008  11.999
48271W        W20696   9.492  38.535   1.665
48272W        W20697   0.950  23.715   0.247
48273W        W20698  31.705  43.603   3.154
48274W        W20699  39.221   7.219  13.968
48275W        W20700  28.008   2.268   0.435
48276W        W20701   5.905  42.513   3.265
48277W        W20702  23.230  33.465   3.140
48278W        W20703   8.956  37.723  12.410
48279W        W20704  32.366  22.328  13.150
48280W        W20705  25.221  39.993  12.486
48281W        W20706  20.800   5.256  12.796
48282W        W20707  43.544  36.606   4.700
48283W        W20708  14.245  42.586   4.600
48284W        W20709  39.103   1.471   3.895
48285W        W20710  43.085  18.595  12.948
48286W        W20711  44.979  31.393  11.245
48287W        W20712  10.968  20.190   3.712
48288W        W20713  18.799  38.334   2.189
48289W        W20714  32.348  36.621  12.481
48290W        W20715  35.553  14.721  12.941
48291W        W20716  44.964  27.953   1.003
48292W        W20717  43.290   6.208  13.948
48293W        W20718   1.566  37.378   0.005
48294W        W20719  10.450   4.735   2.401
48295W        W20720  16.030  34.868   2.256
48296W        W20721  33.134  13.457  11.572
48297W        W20722  23.352  40.781   0.414
48298W        W20723  32.129  18.989  11.158
48299W        W20724  25.546  42.939   2.473
48300W        W20725  35.081  34.822  14.418
48301W        W20726  24.549  11.093  12.953
48302W        W20727  26.901  30.583  14.388
48303W        W20728  32.059  16.829   1.179
48304W        W20729  30.618  34.804  12.136
48305W        W20730  38.031  22.070   3.698
48306W        W20731  16.345  39.000   2.467
48307W        W20732  42.385  39.497  10.604
48308W        W20733  13.722   4.650  13.305
48309W        W20734  44.941  41.374  14.928
48310W        W20735  39.277  18.780   4.638
48311W        W20736  27.039   2.348  14.890
48312W        W20737  15.410  34.094  14.333
48313W        W20738   4.641  10.155   3.559
48314W        W20739  39.163   8.848  11.516
48315W        W20740  13.192  43.892  12.956
48316W        W20741   2.185  37.597  10.820
48317W        W20742  22.938  44.144  14.468
48318W        W20743  24.276  18.193   0.329
48319W        W20744  22.497   2.987   4.322
48320W        W20745  41.452  44.303   3.681
48321W        W20746   7.216   5.919   4.574
48322W        W20747  40.720   5.128  14.694
48323W        W20748  23.728  27.948  13.445
48324W        W20749  23.628  44.338   4.584
48325W        W20750  11.766   7.301  10.711
48326W        W20751  25.119  35.347   4.062
48327W        W20752  33.274   9.743   3.574
48328W        W20753  19.297   1.456   4.452
48329W        W20754  35.265  37.013  13.169
48330W        W20755  11.721  21.836   0.790
48331W        W20756  23.673   2.663   2.127
48332W        W20757  29.740  38.084   4.014
48333W        W20758   4.915  13.297  13.338
48334W        W20759  44.317  36.399   5.137
48335W        W20760  13.163   0.412  11.503
48336W        W20761  22.592   8.346   3.817
48337W        W20762   8.624  43.780  10.369
48338W        W20763  37.496  17.385  12.830
48339W        W20764   8.222  22.596   0.704
48340W        W20765  42.281  10.585  13.920
48341W        W20766   3.802  38.697  13.440
48342W        W20767  21.570  12.155  10.479
48343W        W20768  17.510  38.849   2.247
48344W        W20769  24.763  14.529  11.988
48345W        W20770   4.734   8.354   2.281
48346W        W20771  20.767   5.011   2.685
48347W        W20772  11.968  17.412   1.485
48348W        W20773  19.006  31.946   1.995
48349W        W20774  14.880  30.880   0.411
48350W        W20775  27.106   8.237  14.016
48351W        W20776  17.990  38.458   0.199
48352W        W20777  30.476  33.457   0.738
48353W        W20778  27.017  31.944   2.372
48354W        W20779  22.614  18.651   3.337
48355W        W20780  21.154  31.476  12.160
48356W        W20781   4.978   5.372   0.686
48357W        W20782  39.342  39.476   0.397
48358W        W20783  35.877  14.177   3.672
48359W        W20784  41.113   0.835   3.712
48360W        W20785  31.673  41.301  11.481
48361W        W20786  15.187  24.791  13.973
48362W        W20787  17.592  23.673  11.393
48363W        W20788   8.829  32.291   4.475
48364W        W20789   6.894  27.158   0.927
48365W        W20790  38.132  33.621  14.800
48366W        W20791   9.804  40.094   0.844
48367W        W20792  20.727   6.829   0.054
48368W        W20793  38.827   1.902   2.301
48369W        W20794  43.982  22.552   1.458
48370W        W20795   9.898  20.142  10.863
48371W        W20796   9.132   8.906   3.357
48372W        W20797   1.427  22.989  12.677
48373W        W20798  43.409  20.026  11.092
48374W        W20799  22.572  38.064   4.757
48375W        W20800   4.447  17.425  13.894
48376W        W20801  41.789  25.287   1.998
48377W        W20802  10.108  21.193   0.015
48378W        W20803  42.457  29.953  14.571
48379W        W20804  10.188  23.073  11.542
48380W        W20805  16.537  33.009  13.148
48381W        W20806  13.116  39.835  10.311
48382W        W20807  20.667  31.710  12.179
48383W        W20808   0.707  30.303  10.789
48384W        W20809  28.953   2.313   0.403
48385W        W20810  17.186  21.459  13.967
48386W        W20811  14.119  25.850   4.484
48387W        W20812  23.401  44.511  10.671
48388W        W20813  40.202  35.493  10.437
48389W        W20814  39.312  27.641   2.263
48390W        W20815  40.835  26.473   2.956
48391W        W20816  26.482  38.324  14.756
48392W        W20817  13.166  16.276   2.233
48393W        W20818  13.428   1.370  11.518
48394W        W20819  44.500   2.061   1.672
48395W        W20820  17.101  42.335  10.646
48396W        W20821  32.949  38.828  14.390
48397W        W20822  30.648  14.063  10.929
48398W        W20823   6.308  31.216   0.774
48399W        W20824   9.564  32.125   4.268
48400W        W20825  29.732  26.119   2.779
48401W        W20826  43.920  41.069   2.696
48402W        W20827  18.307  44.022  12.016
48403W        W20828  42.250  28.566  13.592
48404W        W20829  24.963  32.257   5.102
48405W        W20830  44.411  32.136   4.132
48406W        W20831  18.755  36.514   0.815
48407W        W20832   5.355  25.843  13.835
48408W        W20833  44.443   7.986  10.720
48409W        W20834  12.327  28.189  13.454
48410W        W20835  29.249  41.155   1.194
48411W        W20836   3.813  11.728   2.403
48412W        W20837  44.995  32.344   1.854
48413W        W20838   4.812  23.475   0.246
48414W        W20839  34.114  29.603  11.289
48415W        W20840  42.634  39.386   3.698
48416W        W20841   8.964  42.530   0.780
48417W        W20842  14.394  38.517  13.359
48418W        W20843  19.830  16.287   0.494
48419W        W20844   2.835   0.757  13.535
48420W        W20845  29.227  15.194   3.339
48421W        W20846   7.149   0.691  14.855
48422W        W20847  19.135  37.362   2.244
48423W        W20848   3.415  22.175   1.340
48424W        W20849  20.493   2.936   2.000
48425W        W20850  21.503  27.477   4.449
48426W        W20851  37.548  44.765   4.563
48427W        W20852  40.983  15.444  11.472
48428W        W20853  13.297  24.408   4.215
48429W        W20854  40.771   1.956   1.470
48430W        W20855  24.639  42.054  13.344
48431W        W20856  11.339  44.455   4.488
48432W        W20857  25.119  18.472  10.332
48433W        W20858  11.466   3.294  12.535
48434W        W20859  36.135   8.893  14.762
48435W        W20860  13.672  15.768   2.359
48436W        W20861  40.132  44.191   2.807
48437W        W20862  33.083  36.851  13.561
48438W        W20863  41.192  26.622   0.334
48439W        W20864  40.771  39.082  12.032
48440W        W20865  35.536   8.133  10.757
48441W        W20866  16.934  40.846   3.736
48442W        W20867  13.675   7.453   4.527
48443W        W20868  36.096  34.523  10.630
48444W        W20869  22.256  34.067   4.637
48445W        W20870   4.832  40.718  11.484
48446W        W20871  11.056  41.316  12.042
48447W        W20872  27.176  30.449  14.832
48448W        W20873  33.699  26.281  12.041
48449W        W20874   4.402  40.837   0.870
48450W        W20875  25.522  26.747   1.953
48451W        W20876  20.314  14.620   1.821
48452W        W20877  31.392   6.771   2.370
48453W        W20878   8.224  44.899   3.667
48454W        W20879  33.487  24.069  10.934
48455W        W20880   2.510  30.530   0.435
48456W        W20881  29.566  26.615  10.112
48457W        W20882   0.823  29.639  10.789
48458W        W20883  16.498  26.059   1.311
48459W        W20884  21.252  35.110  13.381
48460W        W20885  18.099  34.500  11.094
48461W        W20886  17.053  12.972  11.741
48462W        W20887   9.397  10.772   3.370
48463W        W20888  16.069  28.658   0.823
48464W        W20889  18.684   0.782   0.432
48465W        W20890  34.490  28.521  13.337
48466W        W20891   2.289  23.493   4.876
48467W        W20892   5.379  29.443   4.855
48468W        W20893   5.604   6.402   1.887
48469W        W20894  44.541  15.586  14.760
48470W        W20895   8.849  13.459  10.492
48471W        W20896  31.240   9.884   0.358
48472W        W20897  30.257  40.242   1.230
48473W        W20898  40.046  35.934  11.665
48474W        W20899  35.682  16.772  13.462
48475W        W20900  26.140  12.570  10.729
48476W        W20901  32.791  27.942   0.010
48477W        W20902  44.247  38.923  11.926
48478W        W20903  17.621  26.488  12.448
48479W        W20904   0.408  30.678   3.275
48480W        W20905  38.919  15.173  11.567
48481W        W20906  20.212  34.045   2.755
48482W        W20907  14.083  39.495  13.891
48483W        W20908  10.337  14.248  12.281
48484W        W20909   1.238  16.770   4.255
48485W        W20910  33.633  23.834   4.776
48486W        W20911   8.788  11.769  11.369
48487W        W20912  41.767   1.073  14.432
48488W        W20913  16.635   3.516  10.671
48489W        W20914  32.627  44.465   3.048
48490W        W20915  14.036  39.774  13.411
48491W        W20916  34.535  29.433  12.497
48492W        W20917   7.139  33.520   0.165
48493W        W20918  20.844  39.887   2.346
48494W        W20919  22.309  28.348   2.724
48495W        W20920   5.447  15.592   1.210
48496W        W20921  14.741  29.451   2.677
48497W        W20922   8.956  12.702   3.786
48498W        W20923  17.714  22.471   3.238
48499W        W20924  33.957  38.995  11.205
48500W        W20925  35.581   1.736  12.051
48501W        W20926  22.972   8.613   4.210
48502W        W20927  17.282  20.982   3.226
48503W        W20928   1.753  32.312   1.848
48504W        W20929  41.103   9.093  12.815
48505W        W20930  42.913  31.046  13.054
48506W        W20931  44.321   2.034   9.775
48507W        W20932  35.367  39.178  14.726
48508W        W20933  38.824   3.921  13.369
48509W        W20934  33.995  30.634   2.457
48510W        W20935   7.389  16.465   4.591
48511W        W20936  42.701   1.969  14.990
48512W        W20937  26.696   0.216   3.960
48513W        W20938  41.716  35.893  11.724
48514W        W20939  31.486   0.843  14.326
48515W        W20940  43.944   2.822  11.010
48516W        W20941  23.265   5.775   2.997
48517W        W20942  27.145   9.368   1.326
48518W        W20943  39.643   0.898  12.351
48519W        W20944  29.481  19.261  13.869
48520W        W20945  43.454   4.003  12.603
48521W        W20946  13.290   6.417  13.377
48522W        W20947  32.591  13.099   0.251
48523W        W20948  42.261  40.335   4.298
48524W        W20949  32.503   8.148   2.690
48525W        W20950  15.782  34.557  14.938
48526W        W20951  24.998  39.318   3.213
48527W        W20952  27.518  36.950  12.951
48528W        W20953  33.100  44.933   3.726
48529W        W20954  29.489  26.379   2.407
48530W        W20955  18.587  32.804   3.748
48531W        W20956  16.271  33.591  11.449
48532W        W20957  18.333  18.791  12.597
48533W        W20958  11.544  24.882   2.696
48534W        W20959   5.203   8.194  14.941
48535W        W20960  12.166  37.468  13.886
48536W        W20961  18.302  21.698   2.279
48537W        W20962  20.830  32.722  12.409
48538W        W20963   2.380  16.196   2.686
48539W        W20964  25.144  11.319   0.108
48540W        W20965  17.388   3.268   4.286
48541W        W20966   1.479  15.741  12.041
48542W        W20967  40.695  22.036   2.284
48543W        W20968   1.039  10.691   4.475
48544W        W20969  14.925   7.190  11.626
48545W        W20970  19.679  23.687  14.873
48546W        W20971  20.367   4.915  14.975
48547W        W20972  43.731  23.127  14.099
48548W        W20973   5.790  19.851  12.468
48549W        W20974  31.895  36.157  11.183
48550W        W20975  19.978   3.817   3.255
48551W        W20976   0.451  14.741   0.394
48552W        W20977  15.623  29.514   2.175
48553W        W20978  41.991   2.699   1.775
48554W        W20979  10.477  11.661  14.427
48555W        W20980  31.743  40.660   2.696
48556W        W20981  35.855  28.434  13.299
48557W        W20982  22.751  41.061  11.581
48558W        W20983  13.343  43.508  10.772
48559W        W20984  31.000  24.008  14.475
48560W        W20985  18.570  22.453  10.765
48561W        W20986  44.713  39.329  13.041
48562W        W20987  34.974   1.243  10.790
48563W        W20988  32.003   2.413   0.128
48564W        W20989  44.880  33.405   0.711
48565W        W20990  36.959  40.497   1.050
48566W        W20991  36.574  19.180   2.052
48567W        W20992  36.867  30.970  12.319
48568W        W20993  13.114  12.518   4.843
48569W        W20994   3.695   2.744  13.585
48570W        W20995  24.665  23.687   3.271
48571W        W20996  11.048  17.176  12.991
48572W        W20997  19.619  24.001   3.245
48573W        W20998  30.565  27.050  12.392
48574W        W20999  27.501  15.716  11.237
48575W        W21000  17.548  11.413  12.882
48576W        W21001  19.775   3.194  13.326
48577W        W21002  37.424  43.012   3.176
48578W        W21003  10.085  21.113  10.276
48579W        W21004  43.307   0.891  10.680
48580W        W21005  22.918  19.838  12.009
48581W        W21006  34.514   3.212  12.095
48582W        W21007   5.847   0.449  13.944
48583W        W21008  38.534  36.334  12.574
48584W        W21009  20.000  26.472   0.279
48585W        W21010   2.485   8.636   2.773
48586W        W21011  10.265  24.163  13.774
48587W        W21012  17.246  14.343   0.506
48588W        W21013  37.296  31.238  14.719
48589W        W21014  19.662  36.029  10.768
48590W        W21015  15.042  32.238   4.114
48591W        W21016  17.740  18.385  10.605
48592W        W21017  37.168  25.611   3.672
48593W        W21018  41.547  12.318  14.551
48594W        W21019  43.313  32.830   3.322
48595W        W21020  41.044  31.081  10.840
48596W        W21021   9.694  43.229  13.059
48597W        W21022  38.359  15.352   3.675
48598W        W21023  27.757   4.869  12.704
48599W        W21024  22.985  18.729  14.397
48600W        W21025  12.162  22.119  12.138
48601W        W21026  31.934  36.810   2.708
48602W        W21027  29.266   0.056   2.818
48603W        W21028   2.163  32.004   0.392
48604W        W21029  35.621   5.172  14.598
48605W        W21030   0.298  40.553  14.704
48606W        W21031  43.469  12.013  12.742
48607W        W21032  40.857   8.850  11.462
48608W        W21033  41.074  19.959  12.952
48609W        W21034  42.250  22.514   1.223
48610W        W21035  25.142  31.591   3.541
48611W        W21036  44.517  34.790  11.774
48612W        W21037   4.764  25.187  14.872
48613W        W21038   6.425  30.399   4.051
48614W        W21039   7.197   2.741  13.603
48615W        W21040  25.325  14.612   2.325
48616W        W21041  39.360  37.066   0.425
48617W        W21042  28.748  25.726  12.731
48618W        W21043  44.980  23.401  13.450
48619W        W21044   2.768  11.539  13.845
48620W        W21045  28.206  21.555   0.000
48621W        W21046  41.500   3.373   2.957
48622W        W21047   1.439  28.039  10.592
48623W        W21048  11.620  44.386   3.153
48624W        W21049   2.430   7.034  14.530
48625W        W21050   3.219  14.721   4.757
48626W        W21051  17.845  15.689  11.985
48627W        W21052   6.853  35.349  12.420
48628W        W21053  19.055   7.844   3.541
48629W        W21054  37.777  17.099   2.790
48630W        W21055  42.444   2.685   0.378
48631W        W21056  13.877  35.076  11.879
48632W        W21057  25.532  20.465   0.950
48633W        W21058  24.930   6.764  13.446
48634W        W21059  32.915   8.863   3.903
48635W        W21060  21.808   0.810  10.271
48636W        W21061  44.560  40.928   4.913
48637W        W21062  39.345  13.988   0.812
48638W        W21063  19.771  26.424  12.759
48639W        W21064  38.061   6.352   0.850
48640W        W21065  22.847  27.554  11.108
48641W        W21066  35.427   5.553  11.800
48642W        W21067  18.168  18.121   4.773
48643W        W21068  30.468  36.976   2.743
48644W        W21069   4.636   3.135   2.901
48645W        W21070  21.075  14.329   3.108
48646W        W21071  30.297   0.911  11.480
48647W        W21072  30.515  30.659  13.450
48648W        W21073  23.779  39.892   3.302
48649W        W21074  24.007  33.270   5.103
48650W        W21075  14.951  37.459   4.943
48651W        W21076  39.961  29.662   3.526
48652W        W21077  42.211  16.766   2.670
48653W        W21078   2.051  28.046  13.423
48654W        W21079  12.930  36.497  14.702
48655W        W21080  28.569  42.992  14.070
48656W        W21081  42.218   9.132   1.725
48657W        W21082  29.390  29.048  13.117
48658W        W21083   8.436  13.195  14.157
48659W        W21084  43.580  39.853  11.511
48660W        W21085   2.353   3.618  11.555
48661W        W21086   6.163  34.009  13.469
48662W        W21087  44.220  40.048  14.106
48663W        W21088  14.177  28.963   1.874
48664W        W21089  38.849  32.126   0.937
48665W        W21090  33.141  25.605   1.620
48666W        W21091   2.197   8.229   2.897
48667W        W21092  44.022  22.968  13.667
48668W        W21093  32.036  35.412   0.955
48669W        W21094  25.005  13.638   3.882
48670W        W21095  24.002  18.602  14.470
48671W        W21096   0.500  19.239  11.914
48672W        W21097   8.276  17.779   0.993
48673W        W21098  22.965   4.160   3.819
48674W        W21099   4.582  20.810  12.334
48675W        W21100  37.845   1.207   2.850
48676W        W21101  10.639  36.644   0.842
48677W        W21102  39.913  27.652   4.640
48678W        W21103  19.633  14.175  12.465
48679W        W21104  28.573  40.951   0.153
48680W        W21105  21.146  23.232  14.027
48681W        W21106  15.694   7.249  11.804
48682W        W21107  26.091  16.578   1.362
48683W        W21108  27.710  27.629   4.433
48684W        W21109  20.132  41.272   9.678
48685W        W21110   5.826  30.348  13.794
48686W        W21111  12.687   8.117   1.496
48687W        W21112  28.526  10.567   3.252
48688W        W21113  19.302  30.912   1.775
48689W        W21114  30.612  20.212  12.660
48690W        W21115  43.816   9.231  11.897
48691W        W21116  17.727  24.449  13.452
48692W        W21117  31.112  19.543   1.051
48693W        W21118  30.065  36.085  13.293
48694W        W21119   2.150  12.135  11.415
48695W        W21120  19.585  32.212  12.984
48696W        W21121  11.483   9.755  13.085
48697W        W21122  27.546  11.897  14.529
48698W        W21123  17.856  34.668  12.478
48699W        W21124  28.683  39.321  10.690
48700W        W21125   6.803  25.663   1.440
48701W        W21126  41.828  24.127  12.015
48702W        W21127  24.971  33.531   3.024
48703W        W21128  19.201  28.624   2.840
48704W        W21129  24.927  29.487  10.532
48705W        W21130   4.006  31.613   1.319
48706W        W21131  17.590   7.583   2.672
48707W        W21132   0.845  36.454   0.864
48708W        W21133   3.855  26.953  11.226
48709W        W21134  39.270  31.588  10.940
48710W        W21135  40.173  11.103  12.489
48711W        W21136  24.623   3.180   0.705
48712W        W21137   6.501  36.077  12.039
48713W        W21138  30.743  39.291  12.202
48714W        W21139   8.327   7.880   3.204
48715W        W21140  41.250  29.102  11.480
48716W        W21141   5.174   0.898  11.208
48717W        W21142  30.289  35.175   1.452
48718W        W21143  20.467  40.256   2.295
48719W        W21144  16.074   1.404  12.327
48720W        W21145  16.211   5.668   4.234
48721W        W21146  37.892  12.501  14.886
48722W        W21147   8.183   2.795   1.670
48723W        W21148   1.953   7.313   2.399
48724W        W21149  42.992  25.635  11.560
48725W        W21150  27.073  14.128   0.796
48726W        W21151   7.657   8.446  10.672
48727W        W21152  30.139  10.459   4.810
48728W        W21153  12.892  17.181   3.084
48729W        W21154  27.950   7.678  12.417
48730W        W21155  34.952  20.293  10.806
48731W        W21156  32.949  31.074  13.858
48732W        W21157  12.272  44.003  11.571
48733W        W21158  18.662  35.717   3.584
48734W        W21159  12.237   8.946  13.147
48735W        W21160  21.713  34.309   2.781
48736W        W21161  15.806  34.684  11.271
48737W        W21162   0.729  26.224  11.793
48738W        W21163  25.200  29.758  13.360
48739W        W21164  31.399  37.414  13.880
48740W        W21165   3.035  19.998   5.105
48741W        W21166  15.722   9.775  11.111
48742W        W21167  42.576  43.476  13.379
48743W        W21168  24.648  19.506   1.001
48744W        W21169  27.812  33.996   0.068
48745W        W21170  21.511  11.045  12.002
48746W        W21171  35.141  23.242  14.305
48747W        W21172   1.369  30.993  12.516
48748W        W21173  41.713   9.801  14.930
48749W        W21174  44.292  31.608   0.499
48750W        W21175   8.194  41.306   0.203
48751W        W21176  34.004  33.431   4.658
48752W        W21177  33.379  36.543   1.866
48753W        W21178  29.920  12.374   3.976
48754W        W21179  44.508  12.322   4.172
48755W        W21180   8.450  15.359   1.298
48756W        W21181  18.816   8.722  12.049
48757W        W21182   1.524  22.651  10.650
48758W        W21183  44.414  21.208   0.869
48759W        W21184  44.378  41.426   3.607
48760W        W21185   4.510   2.476   3.652
48761W        W21186  20.637  12.862  13.044
48762W        W21187  29.455  11.106   2.352
48763W        W21188  30.480   9.080   3.106
48764W        W21189  26.547  35.697   4.050
48765W        W21190  13.584   1.216   5.081
48766W        W21191  13.601   0.900   1.263
48767W        W21192  42.776  29.434   5.009
48768W        W21193   4.789  14.698  10.602
48769W        W21194  26.706  38.426   4.442
48770W        W21195   5.040  26.187   4.611
48771W        W21196  38.704  41.964  11.464
48772W        W21197  14.646  44.268  12.075
48773W        W21198  27.205  25.370   3.133
48774W        W21199  17.008  34.668  11.868
48775W        W21200  39.000  43.082   0.300
48776W        W21201  10.205  15.245   1.768
48777W        W21202  21.620  36.082  13.579
48778W        W21203  16.706   8.143   1.732
48779W        W21204   0.188  39.087   2.540
48780W        W21205  38.562  26.410  13.380
48781W        W21206  20.577  38.288   3.179
48782W        W21207   5.002  15.741   0.349
48783W        W21208  21.592  42.520   1.865
48784W        W21209   8.405  10.151  11.115
48785W        W21210  30.162  35.073  11.117
48786W        W21211   5.561  37.379   1.712
48787W        W21212   8.189  17.140   2.957
48788W        W21213   4.316  27.206   4.278
48789W        W21214  30.903   5.766   0.782
48790W        W21215  17.653  42.862   1.676
48791W        W21216   1.801  23.895   4.406
48792W        W21217  33.053  11.131   3.763
48793W        W21218  25.458  33.503   3.221
48794W        W21219  15.513  31.342   3.368
48795W        W21220  40.979  10.878  10.683
48796W        W21221  11.757   6.600  11.262
48797W        W21222   2.513  38.116   2.210
48798W        W21223  30.620  38.546  13.301
48799W        W21224  29.151   8.037  12.860
48800W        W21225  34.598  11.093   3.282
48801W        W21226  37.905  39.082  14.298
48802W        W21227   3.137  15.193  10.213
48803W        W21228  18.201   5.806  11.718
48804W        W21229  22.332  16.424   2.868
48805W        W21230  39.336   8.148   1.913
48806W        W21231  40.879  26.725   3.824
48807W        W21232  41.202   4.779   2.836
48808W        W21233  42.283  14.585  14.372
48809W        W21234  38.446  38.149  13.804
48810W        W21235  15.076  23.960  14.237
48811W        W21236  20.912  13.267  14.361
48812W        W21237  29.867  22.144  11.933
48813W        W21238  38.594   4.200  12.991
48814W        W21239  10.978   8.906  13.639
48815W        W21240  11.142   9.862  13.478
48816W        W21241  40.621   4.600   1.295
48817W        W21242  27.134   0.394   3.741
48818W        W21243   0.708  23.012  11.654
48819W        W21244   8.424  16.343   0.410
48820W        W21245  14.374  33.628  11.198
48821W        W21246  26.469  30.270  11.146
48822W        W21247  36.507  23.596  10.076
48823W        W21248  10.447  36.409  12.820
48824W        W21249  27.911  35.856  14.732
48825W        W21250   1.238   0.664   2.897
48826W        W21251  19.135  31.214   1.292
48827W        W21252  34.494  28.151  10.646
48828W        W21253  15.124  25.738   0.927
48829W        W21254   8.023  31.080   1.726
48830W        W21255  33.997   1.913  11.653
48831W        W21256  24.431   4.897  11.880
48832W        W21257  40.817  39.104   3.650
48833W        W21258  28.360   8.799  11.454
48834W        W21259   2.426   3.440   2.138
48835W        W21260  13.108  16.799   1.289
48836W        W21261  15.079  40.831  11.657
48837W        W21262  37.404  29.670  13.776
48838W        W21263  16.982  16.245   2.646
48839W        W21264   7.630  30.655  14.938
48840W        W21265  37.069   5.380  10.483
48841W        W21266  21.708  11.313  12.827
48842W        W21267  42.239  20.833  10.353
48843W        W21268  27.027  16.373  12.937
48844W        W21269  37.060  22.483  14.318
48845W        W21270  12.454   4.415   1.639
48846W        W21271   4.190  32.191  14.712
48847W        W21272   2.831  13.462  13.959
48848W        W21273  38.405   7.814  13.857
48849W        W21274  33.164   3.786  11.678
48850W        W21275  10.389  44.897   3.727
48851W        W21276  34.932   6.968  14.975
48852W        W21277  41.554  21.155  11.079
48853W        W21278  15.101  35.633   2.239
48854W        W21279  19.763   4.305  11.946
48855W        W21280  24.598  20.700  14.209
48856W        W21281   0.727  38.015   0.429
48857W        W21282  39.507  29.037  12.456
48858W        W21283   8.952  14.182   1.064
48859W        W21284  27.948  40.984   1.242
48860W        W21285   9.806  40.842  10.965
48861W        W21286  18.559  33.093  14.855
48862W        W21287  30.075  36.862  13.090
48863W        W21288  14.404  43.930   4.317
48864W        W21289  44.959  23.718  12.951
48865W        W21290   4.685   7.353  12.844
48866W        W21291  17.804  14.561   2.801
48867W        W21292   7.234   8.462   4.627
48868W        W21293  39.608   2.426  11.669
48869W        W21294  20.547  12.262   3.275
48870W        W21295  28.379  22.808   2.772
48871W        W21296  35.353   2.311   3.207
48872W        W21297  33.257  39.499  11.355
48873W        W21298  38.488  18.079   1.659
48874W        W21299  34.890  22.689   0.427
48875W        W21300  35.906  44.868  13.900
48876W        W21301  41.127  17.305  11.575
48877W        W21302  36.435  26.707   4.844
48878W        W21303  43.660  14.691   0.753
48879W        W21304  10.896   7.253  14.964
48880W        W21305  35.380  29.407  11.462
48881W        W21306  17.566  33.134  14.798
48882W        W21307   1.757  19.592   4.520
48883W        W21308  18.640  26.607  14.451
48884W        W21309  41.420  38.592  11.672
48885W        W21310  15.207  38.897  11.986
48886W        W21311   1.446  27.635  12.426
48887W        W21312  35.495  23.509   0.233
48888W        W21313  16.570  25.548   4.442
48889W        W21314  28.625  38.297   1.000
48890W        W21315  34.624  32.066   2.602
48891W        W21316  18.127  32.865  13.328
48892W        W21317  27.979  16.062   2.037
48893W        W21318  23.373  24.599  11.705
48894W        W21319   5.158  44.750   1.661
48895W        W21320  42.291  32.695   2.412
48896W        W21321  13.098   0.811  12.892
48897W        W21322  17.208  21.366  11.685
48898W        W21323  33.252  21.893  14.347
48899W        W21324  33.748   2.438   2.185
48900W        W21325  10.729  38.862  12.414
48901W        W21326  21.124  10.637  12.026
48902W        W21327  20.261  44.828   0.284
48903W        W21328  11.797  15.586  10.352
48904W        W21329  10.569  30.506   1.330
48905W        W21330   9.761  24.141  11.594
48906W        W21331  42.063  29.558   3.174
48907W        W21332  44.735  29.094   0.205
48908W        W21333   3.962  19.757  11.928
48909W        W21334   2.886  24.405  13.340
48910W        W21335  22.524  16.359  11.669
48911W        W21336  14.797  31.654   0.747
48912W        W21337   3.358  44.263   2.241
48913W        W21338   9.651   3.163   2.823
48914W        W21339  30.488  15.266  14.807
48915W        W21340   0.512  30.999   0.925
48916W        W21341  17.419   3.319   0.524
48917W        W21342   5.835  31.186  13.163
48918W        W21343  27.773   7.834   2.123
48919W        W21344   8.179  44.469  10.804
48920W        W21345  34.213  21.649   0.400
48921W        W21346  28.017  22.663  10.179
48922W        W21347  26.550  12.355   0.523
48923W        W21348  33.553  36.602  13.507
48924W        W21349   7.388  27.175  10.700
48925W        W21350   9.023  14.992   1.412
48926W        W21351  26.869  38.966   0.915
48927W        W21352   4.154  28.531   4.867
48928W        W21353  33.366  39.944  10.442
48929W        W21354  15.908  22.138  12.354
48930W        W21355  26.512  35.654  13.227
48931W        W21356  41.355  34.349  11.192
48932W        W21357  40.605  35.514  14.900
48933W        W21358  30.601  43.379  11.170
48934W        W21359  33.700   3.065   3.844
48935W        W21360  40.779  38.501   0.288
48936W        W21361  23.489  27.735   2.238
48937W        W21362  27.536  28.407  14.955
48938W        W21363  17.772   3.308  12.159
48939W        W21364   3.323  20.690   4.258
48940W        W21365  17.682  36.493   4.265
48941W        W21366  44.715  12.350  11.037
48942W        W21367  40.488  17.242  12.385
48943W        W21368  35.770   7.760  11.069
48944W        W21369  12.850  44.966  13.408
48945W        W21370  39.406  22.330  13.872
48946W        W21371  26.093  15.274  12.316
48947W        W21372   3.137  24.595  11.135
48948W        W21373  30.095  24.502   0.444
48949W        W21374  43.026  22.590  12.991
48950W        W21375  22.760   5.697   2.870
48951W        W21376  27.062   2.339  13.310
48952W        W21377  14.115   5.180   0.185
48953W        W21378   2.739  28.571  12.343
48954W        W21379   6.501  17.539  10.475
48955W        W21380  38.252  25.415   2.714
48956W        W21381  23.646  43.760   0.759
48957W        W21382   6.823   8.457  10.753
48958W        W21383   8.452  43.333   1.801
48959W        W21384   7.725  43.628   1.461
48960W        W21385   9.237  43.900  10.068
48961W        W21386   2.833  16.758  12.025
48962W        W21387  39.952  40.225   2.211
48963W        W21388  24.736  22.610   4.728
48964W        W21389  13.130  16.558   1.775
48965W        W21390   2.462  38.690   2.104
48966W        W21391   9.264  36.716   0.865
48967W        W21392  36.862  16.162   0.407
48968W        W21393  24.965  12.868  14.440
48969W        W21394  40.459  43.517   3.192
48970W        W21395  37.580  24.189  12.380
48971W        W21396  26.570  29.765   2.742
48972W        W21397  12.409  36.582   3.570
48973W        W21398  29.556  16.850   4.107
48974W        W21399  12.717  12.957   1.826
48975W        W21400   6.912  44.910   4.165
48976W        W21401  35.518  44.280   4.134
48977W        W21402  38.339   0.455  11.158
48978W        W21403  34.302  41.162   1.423
48979W        W21404  11.664   6.359  10.800
48980W        W21405  22.063  38.803   0.865
48981W        W21406  38.289  29.294  10.643
48982W        W21407  29.234   6.674  10.202
48983W        W21408  27.876  33.540   3.745
48984W        W21409  26.681  31.062   4.239
48985W        W21410  36.940  22.440  13.387
48986W        W21411  35.299  19.871  13.392
48987W        W21412  36.082  28.949   4.823
48988W        W21413  22.535  39.985  14.986
48989W        W21414  27.354  25.734   2.262
48990W        W21415  42.147  11.914   1.721
48991W        W21416   3.184  34.493   1.893
48992W        W21417  22.761   2.537  12.181
48993W        W21418  39.776  39.063  12.111
48994W        W21419  22.752  23.064   1.551
48995W        W21420  40.289  39.565  12.450
48996W        W21421  23.245  32.180   4.584
48997W        W21422  17.704  20.891  11.014
48998W        W21423  13.350   9.158   3.108
48999W        W21424   3.549  43.085  14.074
49000W        W21425  17.976  21.439  11.578
49001W        W21426   1.468   4.685   2.927
49002W        W21427   6.323   5.448  12.899
49003W        W21428  29.272  10.252  14.462
49004W        W21429   2.558  27.941  13.568
49005W        W21430  18.609  13.348   2.639
49006W        W21431  27.557  41.008  11.261
49007W        W21432  28.584  16.605   1.224
49008W        W21433  10.303  43.230   0.913
49009W        W21434  22.637  40.876   2.796
49010W        W21435  19.003  34.733   1.477
49011W        W21436  41.293  40.520   4.046
49012W        W21437  35.565   8.827  13.505
49013W        W21438   9.960  35.989  11.362
49014W        W21439  17.055  43.847  12.495
49015W        W21440  10.302  20.354   0.069
49016W        W21441  26.972  21.352   0.320
49017W        W21442  13.257  20.118   1.708
49018W        W21443  42.699   9.652  13.958
49019W        W21444   0.766  12.081  12.965
49020W        W21445  13.600  25.481  13.265
49021W        W21446   0.947  18.829  12.046
49022W        W21447  43.342  34.578   4.563
49023W        W21448  39.828  21.781   4.070
49024W        W21449  30.338  15.047  12.439
49025W        W21450  27.627   8.319  13.410
49026W        W21451  10.431  33.090   3.338
49027W        W21452  26.056  21.961   3.221
49028W        W21453  32.859  28.604  13.562
49029W        W21454  38.470  19.099   2.388
49030W        W21455  31.605  33.718  14.413
49031W        W21456  25.210   1.949   0.445
49032W        W21457  34.971  19.782  10.752
49033W        W21458  15.053  26.223  10.985
49034W        W21459  40.442  18.011  12.074
49035W        W21460  33.724  25.439  14.027
49036W        W21461  30.004  28.219  13.787
49037W        W21462  32.625   7.480  10.504
49038W        W21463   0.228  28.738  13.960
49039W        W21464   7.187   1.747   4.321
49040W        W21465  32.848  23.254  12.360
49041W        W21466   3.275  13.406  13.307
49042W        W21467  35.666  18.647   3.147
49043W        W21468  21.201   8.784   4.193
49044W        W21469  35.051   3.679   4.543
49045W        W21470  39.001  23.244  14.487
49046W        W21471  15.625  31.834   3.237
49047W        W21472  12.775  29.957   0.333
49048W        W21473   2.436   3.407  10.528
49049W        W21474  25.553  22.003  14.240
49050W        W21475  44.533  40.581  13.057
49051W        W21476  15.143  39.791   2.764
49052W        W21477   5.786   5.338  10.901
49053W        W21478  35.478  24.636   4.545
49054W        W21479  43.858   0.259  11.986
49055W        W21480  39.957  20.074   2.939
49056W        W21481  25.530  28.951  12.028
49057W        W21482  43.273  23.038  12.514
49058W        W21483  41.849  23.577   2.633
49059W        W21484  33.174  28.100  14.156
49060W        W21485  21.805  44.776  11.998
49061W        W21486  14.744  38.633  12.535
49062W        W21487  30.357  37.469   4.575
49063W        W21488   6.301  33.985   2.388
49064W        W21489   6.210  11.193  14.013
49065W        W21490  26.562   3.145  12.592
49066W        W21491  27.693   6.773  13.798
49067W        W21492  31.436  16.554  14.566
49068W        W21493   4.344   5.702  13.459
49069W        W21494  23.794  27.715   4.538
49070W        W21495  44.886  39.839   4.652
49071W        W21496  25.216  34.477   3.606
49072W        W21497  19.005  29.137   3.238
49073W        W21498   2.515   2.278   0.235
49074W        W21499  40.022  21.681   3.116
49075W        W21500  41.759  24.294  14.577
49076W        W21501  15.838  21.271  12.918
49077W        W21502  27.998  15.702  11.823
49078W        W21503  20.240   7.741  12.994
49079W        W21504  29.872  35.461  10.705
49080W        W21505  14.923   5.293   3.572
49081W        W21506   7.879  38.310   3.057
49082W        W21507  17.738  42.944   3.806
49083W        W21508  21.892   2.337  13.367
49084W        W21509  19.632   5.307   4.094
49085W        W21510  26.582   3.176  13.114
49086W        W21511  20.696  19.340   1.176
49087W        W21512   0.953   9.167   4.145
49088W        W21513  31.340  14.148   1.291
49089W        W21514   1.363  14.213   2.205
49090W        W21515   9.138  22.902   1.953
49091W        W21516  16.634   7.198  11.265
49092W        W21517  31.644  42.449   0.616
49093W        W21518   9.373   5.398   3.109
49094W        W21519  17.132  31.420  14.428
49095W        W21520  36.379  44.310   5.004
49096W        W21521  42.109  10.392  12.061
49097W        W21522  17.328  14.334   2.801
49098W        W21523  22.254  27.979   1.835
49099W        W21524  33.591  23.578  11.053
49100W        W21525  39.134   3.718   3.660
49101W        W21526  18.831   4.255   2.856
49102W        W21527  42.556  25.103   4.878
49103W        W21528  27.011  13.602  12.545
49104W        W21529  10.937  40.305  11.161
49105W        W21530  43.780  35.696  11.878
49106W        W21531  16.035  11.728  13.761
49107W        W21532  27.213  42.808  12.841
49108W        W21533   5.775  18.700   3.935
49109W        W21534  10.141   2.950   4.940
49110W        W21535  32.040   4.156   1.163
49111W        W21536  29.395  11.302   4.062
49112W        W21537  11.278  34.867   4.224
49113W        W21538  20.656  27.942  14.014
49114W        W21539  24.258   4.836  14.986
49115W        W21540  28.936  38.513  13.108
49116W        W21541   0.531  44.307   4.967
49117W        W21542  14.282  41.114  12.108
49118W        W21543  12.072  33.551  10.712
49119W        W21544  20.035  24.298  13.004
49120W        W21545  38.553  13.666   0.355
49121W        W21546  16.410  44.836  13.410
49122W        W21547  21.987  34.555   4.654
49123W        W21548  29.064  26.526  13.974
49124W        W21549   7.918  26.932  14.915
49125W        W21550  28.040  17.404  13.067
49126W        W21551  27.885  23.228   3.802
49127W        W21552  41.269  10.745  13.742
49128W        W21553  19.381   8.163  11.387
49129W        W21554  35.320  42.321  14.884
49130W        W21555   4.848  20.122  14.023
49131W        W21556  24.117  18.584   3.783
49132W        W21557   6.807  10.913   1.908
49133W        W21558  14.435  10.385  11.195
49134W        W21559  44.627   1.812   3.372
49135W        W21560  33.744  36.315  10.854
49136W        W21561  25.155  44.369   3.308
49137W        W21562   1.815  40.086  11.671
49138W        W21563  11.424  13.138  11.639
49139W        W21564  43.957  39.514  14.016
49140W        W21565  21.505  17.569   0.368
49141W        W21566  12.182  42.829   0.426
49142W        W21567   6.377  32.170  13.003
49143W        W21568  19.629  36.954  12.549
49144W        W21569  26.056   3.996   4.459
49145W        W21570  30.427  20.668  10.681
49146W        W21571  36.474  15.255  12.663
49147W        W21572  34.926  14.143  11.373
49148W        W21573   1.478  41.009  12.837
49149W        W21574   0.079  14.286  12.852
49150W        W21575   6.632  35.983   1.625
49151W        W21576   3.173   8.958   4.535
49152W        W21577  36.243  19.339   0.730
49153W        W21578  30.712  21.561   3.641
49154W        W21579  17.649   3.877   3.423
49155W        W21580  10.211   7.636   1.043
49156W        W21581  19.293  12.291  11.269
49157W        W21582  30.872  36.590  12.041
49158W        W21583  28.171  24.129   4.762
49159W        W21584   5.550  22.388  12.854
49160W        W21585  23.083  11.864   2.703
49161W        W21586  29.544  39.789  11.010
49162W        W21587  13.293  15.174   1.469
49163W        W21588  28.838   7.338   0.778
49164W        W21589   7.871  35.719  10.619
49165W        W21590  26.451  32.674  10.854
49166W        W21591  18.425  14.870   1.813
49167W        W21592  17.669   4.882  12.456
49168W        W21593  24.637  33.645  13.532
49169W        W21594   9.305   4.628  14.290
49170W        W21595  11.220   5.656  11.441
49171W        W21596  20.266   8.777  14.619
49172W        W21597  11.926   5.458  14.010
49173W        W21598  25.689  12.683  12.944
49174W        W21599  20.047  40.633   0.656
49175W        W21600  43.315  24.617   4.920
49176W        W21601  30.985  16.538   1.826
49177W        W21602  34.097  35.030   1.366
49178W        W21603  40.779  21.066   0.756
49179W        W21604  32.038   8.862  12.941
49180W        W21605  39.280  36.392   1.461
49181W        W21606   4.987  37.444   3.618
49182W        W21607  43.994  38.482  10.547
49183W        W21608  17.311  22.111   3.150
49184W        W21609  38.063  24.723   2.352
49185W        W21610  18.686  34.644  14.901
49186W        W21611  20.337   9.229  13.752
49187W        W21612  44.320  32.834  13.416
49188W        W21613  31.874  22.281  10.512
49189W        W21614  13.014   6.281   2.394
49190W        W21615  22.980  21.706   3.227
49191W        W21616   9.185  25.914   3.643
49192W        W21617  42.386  19.500   4.920
49193W        W21618   0.319  40.759   0.973
49194W        W21619  22.972  43.331   0.356
49195W        W21620   1.591  43.984   2.570
49196W        W21621  31.089   1.040  13.911
49197W        W21622  10.751  31.885   1.919
49198W        W21623   9.433  30.995   3.442
49199W        W21624  35.944   3.477   1.996
49200W        W21625  29.538  36.499  14.584
49201W        W21626  42.531  44.850  11.979
49202W        W21627  26.655  43.400   4.629
49203W        W21628  17.335  31.040   1.953
49204W        W21629  43.447  36.066   0.754
49205W        W21630  13.306   1.332   3.198
49206W        W21631   5.083  33.400  14.544
49207W        W21632  15.735   4.350   4.691
49208W        W21633   9.790  16.684  12.990
49209W        W21634   6.247  24.784   1.484
49210W        W21635   4.300   3.488   2.338
49211W        W21636   9.279  43.868  14.718
49212W        W21637  12.853   1.908  14.739
49213W        W21638  29.677  14.729  13.853
49214W        W21639  33.404  27.693   3.641
49215W        W21640   3.841  18.707   0.690
49216W        W21641  42.000  21.815   4.481
49217W        W21642  30.915  11.227  13.385
49218W        W21643  23.522  18.193   0.897
49219W        W21644  44.929   2.319   0.022
49220W        W21645  35.300  18.034   2.823
49221W        W21646  14.077  24.591   5.094
49222W        W21647   1.252   8.391   0.837
49223W        W21648  28.620   8.704   2.756
49224W        W21649  36.261   6.201   3.731
49225W        W21650   8.281  12.746   0.380
49226W        W21651  33.232  41.273  10.074
49227W        W21652  16.021  33.557  13.916
49228W        W21653  44.184  43.471   3.663
49229W        W21654   3.692  40.882   4.100
49230W        W21655  34.305  14.791   0.054
49231W        W21656  26.732   2.453   0.981
49232W        W21657  11.006  18.612   0.078
49233W        W21658  11.485   7.658  13.981
49234W        W21659  28.882  31.099   1.950
49235W        W21660  27.072  34.572  14.054
49236W        W21661  44.877  33.616   2.132
49237W        W21662   9.646  27.563   1.347
49238W        W21663  19.394  33.867   4.860
49239W        W21664   6.196  10.378  11.365
49240W        W21665  43.928  12.804   3.333
49241W        W21666  33.864  39.913  14.798
49242W        W21667  36.073  31.987   3.790
49243W        W21668  30.053  13.942   0.622
49244W        W21669  38.521  40.571   3.314
49245W        W21670  32.634   8.684   2.796
49246W        W21671   8.798  19.663  13.335
49247W        W21672  15.740  39.461   1.285
49248W        W21673  32.402  36.963  14.350
49249W        W21674  17.327   9.608   3.623
49250W        W21675   9.431  33.853   0.244
49251W        W21676   8.825  44.083  12.378
49252W        W21677  14.809  44.769  11.024
49253W        W21678  18.156  10.832   0.969
49254W        W21679  24.080  42.057   3.201
49255W        W21680  12.172  19.292   3.380
49256W        W21681  39.974  36.816  12.493
49257W        W21682   0.513  21.046   2.281
49258W        W21683   3.173  32.006   3.800
49259W        W21684  11.891  24.549  10.281
49260W        W21685  34.695  22.198   0.273
49261W        W21686   7.624  16.144  14.012
49262W        W21687  15.380  26.090  12.696
49263W        W21688  41.379  42.894  13.527
49264W        W21689  10.817  40.938   2.777
49265W        W21690   6.830  36.706   1.272
49266W        W21691  31.351  15.290   4.662
49267W        W21692   9.447  28.692   3.718
49268W        W21693  34.273  39.330  12.215
49269W        W21694  37.011  38.107   2.373
49270W        W21695  17.765  43.450  13.995
49271W        W21696  31.308  23.165  11.840
49272W        W21697   3.039  38.830   3.731
49273W        W21698  14.300  24.553   4.233
49274W        W21699   4.350  37.520  10.713
49275W        W21700   2.926  29.026   2.881
49276W        W21701  38.932  12.183   2.999
49277W        W21702   3.248  22.044  11.178
49278W        W21703   5.745   3.695   1.750
49279W        W21704  13.532  15.107  14.303
49280W        W21705  28.028  10.058   1.840
49281W        W21706   6.729  42.779  12.966
49282W        W21707  40.246  16.343   1.175
49283W        W21708  16.012  17.862   3.080
49284W        W21709  38.627   9.201   0.941
49285W        W21710   1.450  32.405   0.197
49286W        W21711  29.996  15.748  13.006
49287W        W21712  33.457  13.290   3.985
49288W        W21713  10.952  12.204   2.315
49289W        W21714  28.553  11.555  14.381
49290W        W21715  43.751  33.921  11.038
49291W        W21716  37.580   1.552  11.164
49292W        W21717  28.042  34.964  13.877
49293W        W21718   6.471  24.482  10.741
49294W        W21719  43.253  43.455  11.909
49295W        W21720  34.033  39.439   1.936
49296W        W21721   1.737  20.153   0.686
49297W        W21722  13.771  40.306   0.781
49298W        W21723  34.862   9.692   1.435
49299W        W21724  38.464  31.968   2.183
49300W        W21725  32.260  15.229  10.534
49301W        W21726  29.881  41.834  12.633
49302W        W21727  37.020  41.061   3.771
49303W        W21728  19.933   3.770  11.544
49304W        W21729  40.282  10.271  13.012
49305W        W21730  17.310   0.593   1.294
49306W        W21731  21.080   8.442   1.049
49307W        W21732  19.960  34.344   1.503
49308W        W21733   8.410  41.295  11.959
49309W        W21734  32.042   2.167   5.122
49310W        W21735  33.553   2.249  12.803
49311W        W21736  18.033   4.971  11.606
49312W        W21737  17.026  40.183  14.869
49313W        W21738  13.663   1.386  13.858
49314W        W21739  21.201  20.305   4.116
49315W        W21740   7.289   0.392  14.432
49316W        W21741  44.495  33.902   3.681
49317W        W21742  22.723   1.988  10.217
49318W        W21743  17.362  13.608   3.280
49319W        W21744  27.913  29.573   4.552
49320W        W21745   6.605  15.141   3.929
49321W        W21746   1.489  29.207   4.846
49322W        W21747  28.425   6.749   2.859
49323W        W21748  36.438  29.892  10.930
49324W        W21749  41.290  19.174   1.716
49325W        W21750   6.002   7.915   2.375
49326W        W21751  19.713  22.105   2.353
49327W        W21752  16.581   8.309   2.200
49328W        W21753   8.369  33.921   3.564
49329W        W21754  33.334  28.966  10.765
49330W        W21755  11.200  15.842   1.760
49331W        W21756  23.407  31.070  13.082
49332W        W21757  22.336  15.768  13.480
49333W        W21758  21.165  26.752  14.863
49334W        W21759  35.369  24.097  11.471
49335W        W21760  43.893  24.977  13.722
49336W        W21761  39.744  41.913  11.245
49337W        W21762   6.811  35.054  14.452
49338W        W21763  29.623  16.536   0.235
49339W        W21764  23.456  32.247   9.220
49340W        W21765  18.748  36.533  12.695
49341W        W21766  40.531  28.022   4.093
49342W        W21767  31.989  17.185   2.280
49343W        W21768  13.319  25.893  13.056
49344W        W21769  28.066  11.698   4.546
49345W        W21770  10.786  16.435  13.298
49346W        W21771  37.133  39.614  13.930
49347W        W21772  33.940   5.660   1.753
49348W        W21773  35.356   5.774   0.936
49349W        W21774  26.720  28.705  14.451
49350W        W21775  32.821  42.390  14.014
49351W        W21776   3.413  22.128   2.706
49352W        W21777  11.296  15.361   4.491
49353W        W21778  33.016   1.991  14.916
49354W        W21779  11.846  20.678  13.354
49355W        W21780  14.798  31.841  12.225
49356W        W21781  30.171  14.109   1.628
49357W        W21782  32.629  19.668  11.596
49358W        W21783   6.970  24.649  12.191
49359W        W21784  18.154   4.122  12.577
49360W        W21785  16.338  38.575   2.181
49361W        W21786   9.785  34.611  13.783
49362W        W21787  31.339  39.586  10.956
49363W        W21788  15.395   5.874  13.939
49364W        W21789   2.748   0.090   4.169
49365W        W21790  26.650   7.967  13.946
49366W        W21791  29.522  16.692  12.937
49367W        W21792  26.197  33.096  14.941
49368W        W21793  26.526  34.303   4.912
49369W        W21794  34.932   1.065  12.464
49370W        W21795  24.034  32.161  11.090
49371W        W21796   5.963  38.767  11.547
49372W        W21797   8.312   5.717   1.296
49373W        W21798   6.154  13.748  11.564
49374W        W21799  43.780  28.380  12.847
49375W        W21800  40.128  30.878  10.796
49376W        W21801  31.882  36.957  14.408
49377W        W21802  15.746  18.998  13.419
49378W        W21803  25.546  24.430   3.872
49379W        W21804  25.744  21.253  12.901
49380W        W21805   9.825  21.632   3.087
49381W        W21806   6.975  24.037   2.748
49382W        W21807   7.296  17.377  14.462
49383W        W21808  44.913  21.223   4.638
49384W        W21809   9.437   2.238  10.929
49385W        W21810  28.899  23.326   5.156
49386W        W21811  10.681  16.548  11.067
49387W        W21812  18.694  35.396   3.156
49388W        W21813  38.884  32.549   3.720
49389W        W21814  10.560  35.058   2.399
49390W        W21815  13.262   4.508  10.473
49391W        W21816  43.359   6.973  14.280
49392W        W21817  39.076  41.065  11.245
49393W        W21818  39.084  21.496  11.629
49394W        W21819  38.819  38.415   1.714
49395W        W21820  27.511  14.260  14.785
49396W        W21821  21.716  11.991   3.921
49397W        W21822  19.313   6.510  13.932
49398W        W21823  25.674  22.744  11.615
49399W        W21824  21.271  28.278  14.622
49400W        W21825  10.505  39.492   4.134
49401W        W21826  12.877  29.873   1.203
49402W        W21827   8.015  12.828   2.549
49403W        W21828  39.413  33.430  12.421
49404W        W21829  32.157  11.793   0.464
49405W        W21830  41.666  11.125  14.520
49406W        W21831  15.752  12.610  14.363
49407W        W21832  30.061  10.706  13.426
49408W        W21833  38.818  23.514  13.160
49409W        W21834  40.910  36.176  14.731
49410W        W21835   8.976  16.545   0.352
49411W        W21836   1.226  11.708   0.353
49412W        W21837  41.370  42.854   0.980
49413W        W21838  40.077  32.166  11.887
49414W        W21839  16.621  25.473   4.943
49415W        W21840  14.039  43.728  12.057
49416W        W21841  29.511  42.808  14.342
49417W        W21842  27.860   6.165  11.227
49418W        W21843  39.412  39.749  11.583
49419W        W21844  27.988  27.345   3.648
49420W        W21845  42.552   1.892   4.236
49421W        W21846   5.322   4.733   1.491
49422W        W21847  28.522  34.495  12.867
49423W        W21848  33.434  37.545  13.933
49424W        W21849   1.504  39.488   3.741
49425W        W21850  35.305  43.908  14.990
49426W        W21851  43.829  18.680   0.239
49427W        W21852   1.769   9.945   4.236
49428W        W21853  23.485  36.679  12.492
49429W        W21854  15.217  10.232   2.693
49430W        W21855  29.036  36.381   1.741
49431W        W21856   3.725  36.026   1.487
49432W        W21857   5.338  27.959   4.054
49433W        W21858   3.710  23.213   4.730
49434W        W21859  29.614   6.294   4.618
49435W        W21860  12.193  33.575  13.892
49436W        W21861  20.229   9.482  10.297
49437W        W21862  27.316  20.977  12.674
49438W        W21863  14.317  41.444  12.517
49439W        W21864  42.923   4.473  14.355
49440W        W21865  14.542   9.671  13.852
49441W        W21866  31.195  13.283   2.484
49442W        W21867   6.418  41.956  11.634
49443W        W21868  14.249  38.034   4.887
49444W        W21869  15.665  21.182   4.059
49445W        W21870  18.640  21.326   1.776
49446W        W21871  35.454  40.132   1.324
49447W        W21872  36.967  21.947   0.815
49448W        W21873  13.897  43.943  13.777
49449W        W21874  38.026  24.057   4.502
49450W        W21875  31.503  27.193   2.957
49451W        W21876  23.558  23.191  14.577
49452W        W21877  40.307  11.042   1.014
49453W        W21878  17.057  13.745   2.233
49454W        W21879  18.463   9.655   1.561
49455W        W21880  14.887   4.354  12.363
49456W        W21881  18.174  23.484   2.622
49457W        W21882  25.516   4.909   4.666
49458W        W21883  16.593  30.626   4.133
49459W        W21884  32.363  34.416   4.133
49460W        W21885   8.276   7.278   1.238
49461W        W21886  44.025  26.618   3.610
49462W        W21887   9.214  43.997   2.255
49463W        W21888  14.748  39.893  10.779
49464W        W21889  11.609  31.607   3.165
49465W        W21890  40.069  25.489   1.849
49466W        W21891  38.159  32.149   2.586
49467W        W21892  40.024  33.035   2.623
49468W        W21893  21.993  29.166  11.583
49469W        W21894  29.399  22.013   1.363
49470W        W21895   4.712  29.644   0.776
49471W        W21896  32.612  27.972   0.899
49472W        W21897   2.731  19.797  12.301
49473W        W21898   3.272   7.172  14.439
49474W        W21899  26.101  13.114  10.812
49475W        W21900  31.724  19.934   2.769
49476W        W21901   0.272  43.768  14.874
49477W        W21902  13.045  37.680  11.029
49478W        W21903  32.704  17.636  14.741
49479W        W21904  30.547   1.168  10.635
49480W        W21905  39.349  27.416  14.290
49481W        W21906  31.432   4.748  14.896
49482W        W21907   1.783  37.555  12.460
49483W        W21908  44.491  14.283  14.416
49484W        W21909  35.271  40.411   4.625
49485W        W21910  42.722   9.962   1.688
49486W        W21911  19.204  41.739   2.791
49487W        W21912  42.943  16.261  11.710
49488W        W21913   4.945  25.974  13.499
49489W        W21914  19.610  42.312  11.140
49490W        W21915  32.713  13.644  13.326
49491W        W21916  38.625  16.844  14.806
49492W        W21917  13.291  44.668  13.453
49493W        W21918   1.239   6.489   4.225
49494W        W21919   5.224  17.321  10.289
49495W        W21920  31.573   0.925  14.844
49496W        W21921   6.312  44.026  12.402
49497W        W21922   8.262  40.508   3.988
49498W        W21923  31.442   8.180   4.637
49499W        W21924   2.953  38.494   4.391
49500W        W21925  14.847  44.653   0.969
49501W        W21926   0.211   6.805  12.500
49502W        W21927   4.204  24.549  13.958
49503W        W21928   2.083  40.172   2.377
49504W        W21929  34.809  32.615  12.060
49505W        W21930  44.793  37.521  13.900
49506W        W21931  28.213  17.084   2.769
49507W        W21932  11.869   8.909   0.962
49508W        W21933  20.685  20.225  12.158
49509W        W21934  28.222  16.732  14.299
49510W        W21935  20.111  31.375   3.665
49511W        W21936  15.389  38.881  13.532
49512W        W21937   4.675  28.592   3.523
49513W        W21938   8.939  27.903   3.959
49514W        W21939  27.145  22.483   4.270
49515W        W21940  12.189  17.360   0.503
49516W        W21941   7.453   6.672  12.005
49517W        W21942  24.143   6.152   2.640
49518W        W21943  12.144  17.152   4.351
49519W        W21944  23.725  10.943  14.509
49520W        W21945  43.873  26.081   1.887
49521W        W21946   1.902  39.081  13.138
49522W        W21947  11.156   1.251  14.947
49523W        W21948  28.888  27.248   2.385
49524W        W21949  32.811  37.186   3.267
49525W        W21950  40.834  14.143   1.907
49526W        W21951  14.500  42.452   2.386
49527W        W21952   6.173  17.119   4.131
49528W        W21953  31.125  31.484   3.174
49529W        W21954  34.405   6.962   3.358
49530W        W21955  26.907   4.722  12.032
49531W        W21956   5.999  39.264  14.775
49532W        W21957  40.596  20.207   1.702
49533W        W21958   1.063  35.011  14.054
49534W        W21959   9.274   1.423  10.716
49535W        W21960  16.194  36.284  12.998
49536W        W21961  20.592   5.819   0.485
49537W        W21962  20.828  30.141  11.740
49538W        W21963  39.073   0.724  13.924
49539W        W21964   4.524   4.510   2.611
49540W        W21965  16.608  40.210   4.698
49541W        W21966  34.195  36.685  11.007
49542W        W21967  12.207  32.364  12.003
49543W        W21968  35.735  11.739   0.411
49544W        W21969  18.653  18.325   0.363
49545W        W21970  27.981  22.079   3.877
49546W        W21971  10.866  23.733  10.158
49547W        W21972   1.416  10.347  10.447
49548W        W21973   4.729  39.708  13.443
49549W        W21974   3.238   2.283  10.998
49550W        W21975   8.272  36.945   3.061
49551W        W21976   7.452  35.131  12.086
49552W        W21977  20.302   9.956  12.535
49553W        W21978   9.243  42.744  13.626
49554W        W21979  36.877   0.223   4.114
49555W        W21980  35.922  37.025   3.777
49556W        W21981  28.869  42.366  12.991
49557W        W21982  32.451  38.239  14.831
49558W        W21983   5.787   5.755   2.184
49559W        W21984   2.312  29.163   2.233
49560W        W21985  35.247  29.963   4.588
49561W        W21986  44.709  15.057   4.021
49562W        W21987   9.407  29.397   2.162
49563W        W21988  40.528   8.677   1.764
49564W        W21989  36.072  37.827  12.183
49565W        W21990  30.058  42.681   1.835
49566W        W21991  40.449  13.581   3.678
49567W        W21992  30.378  44.589  10.716
49568W        W21993  15.297  36.820  10.806
49569W        W21994  35.193  10.209  10.100
49570W        W21995  37.210  21.521   4.063
49571W        W21996   8.614  19.198   4.258
49572W        W21997   6.646  26.138  12.399
49573W        W21998  14.724   2.380   5.109
49574W        W21999  26.644  30.509  14.883
49575W        W22000  19.081  40.033  10.559
49576W        W22001  15.274  39.260  12.365
49577W        W22002  34.044  40.918   4.245
49578W        W22003   8.468  28.908   1.310
49579W        W22004   5.402  35.917  11.925
49580W        W22005  24.380  16.994   2.376
49581W        W22006  16.599  22.674   2.113
49582W        W22007  39.067   2.960   3.018
49583W        W22008  42.439   6.368   3.692
49584W        W22009  22.752  16.370  10.218
49585W        W22010  33.916   1.084  13.806
49586W        W22011  38.996  33.849   1.782
49587W        W22012   2.318  21.193   1.482
49588W        W22013   6.999  24.642  12.836
49589W        W22014  34.974  34.557   3.238
49590W        W22015  15.122   7.207   4.327
49591W        W22016  11.269   2.406   4.156
49592W        W22017  43.486  12.667  13.587
49593W        W22018  39.862   2.927  13.828
49594W        W22019  35.558  24.173  12.631
49595W        W22020  37.520  19.269  12.554
49596W        W22021  21.573   0.339  11.502
49597W        W22022   6.771   2.772  14.448
49598W        W22023  25.208  22.148   3.732
49599W        W22024  33.990  27.616   3.198
49600W        W22025  34.357  36.903   4.187
49601W        W22026  26.976  19.617  12.424
49602W        W22027  22.463  23.650   2.755
49603W        W22028   8.640  15.179  14.455
49604W        W22029   7.938  34.454  14.699
49605W        W22030  32.142  36.044   1.838
49606W        W22031  33.128   2.544   4.197
49607W        W22032   6.353  40.262  14.940
49608W        W22033  44.836  44.579  12.998
49609W        W22034   4.787   1.448  14.471
49610W        W22035  10.126  32.802   3.830
49611W        W22036  36.437  29.533   4.445
49612W        W22037  16.612  20.211  14.001
49613W        W22038  10.683  18.360   4.086
49614W        W22039  38.316   4.253  12.547
49615W        W22040  28.568  19.538  13.999
49616W        W22041  42.947  42.727   0.723
49617W        W22042  28.211  22.257  13.763
49618W        W22043  14.886  14.948  11.980
49619W        W22044  12.649  31.291  11.438
49620W        W22045  26.027  13.801   1.384
49621W        W22046  32.551  26.782  13.861
49622W        W22047  38.718   9.224   1.467
49623W        W22048  35.386  11.129   1.204
49624W        W22049  42.514   0.541   0.233
49625W        W22050  25.752  12.048  10.642
49626W        W22051   4.510   0.816   4.420
49627W        W22052  29.134   7.337  11.539
49628W        W22053   6.560  12.375  11.196
49629W        W22054  16.374  25.994  12.876
49630W        W22055  27.579  28.609   1.202
49631W        W22056  22.604  15.516  10.441
49632W        W22057  38.968   6.683  13.321
49633W        W22058   5.366  19.116   1.239
49634W        W22059   8.925  14.516  10.578
49635W        W22060  39.768  25.759  14.078
49636W        W22061  15.271  31.928   5.167
49637W        W22062   5.037  38.310  14.854
49638W        W22063  22.765  37.780   5.196
49639W        W22064  18.194  14.134  13.054
49640W        W22065   9.365  11.766   1.957
49641W        W22066   1.427  37.944  10.371
49642W        W22067  37.013  26.488   2.292
49643W        W22068  38.472  16.560  10.508
49644W        W22069  21.524   9.877   1.476
49645W        W22070  43.850  35.841   3.130
49646W        W22071  25.760   7.147  10.004
49647W        W22072  40.508  40.994   3.810
49648W        W22073  44.339  38.906   1.656
49649W        W22074  10.818  40.773   3.291
49650W        W22075  10.840  25.596  11.433
49651W        W22076   5.828  15.993   3.705
49652W        W22077   6.830  29.914   0.492
49653W        W22078  23.500  35.864   1.323
49654W        W22079  44.881  25.946   3.332
49655W        W22080  34.458  32.660   3.324
49656W        W22081   2.503  13.614   1.758
49657W        W22082  30.947  36.711   0.937
49658W        W22083   0.287  11.090   1.355
49659W        W22084  11.182  39.253  11.557
49660W        W22085   8.367  12.679  10.732
49661W        W22086   6.221  28.233  13.854
49662W        W22087  24.715  17.770  11.592
49663W        W22088  26.249   0.711  13.981
49664W        W22089   4.717  43.797   0.859
49665W        W22090  39.794  12.205   1.454
49666W        W22091   7.817   6.260  14.038
49667W        W22092   6.088   4.405  12.699
49668W        W22093  18.028  41.560   2.281
49669W        W22094  40.442  29.887   4.982
49670W        W22095   6.908   0.906  13.985
49671W        W22096   4.348   8.419   4.790
49672W        W22097  16.152   2.097   2.450
49673W        W22098  10.375  23.020   2.280
49674W        W22099  23.059  40.240  12.508
49675W        W22100   0.823  31.623  11.114
49676W        W22101  12.085  37.570  14.421
49677W        W22102  37.256  27.773  12.118
49678W        W22103   4.351  37.120  11.142
49679W        W22104  23.866   6.730   3.211
49680W        W22105  19.777  42.935   2.728
49681W        W22106  10.730  12.979   3.647
49682W        W22107   6.385  35.665   4.576
49683W        W22108  33.411  10.781   0.345
49684W        W22109  10.255  34.122   4.789
49685W        W22110  25.460  42.991  14.738
49686W        W22111  27.659  25.024   3.826
49687W        W22112  17.236  13.965  14.797
49688W        W22113  14.939   4.935  11.024
49689W        W22114  32.530  15.947   1.239
49690W        W22115  16.214  18.797  12.341
49691W        W22116   7.425  40.612   4.309
49692W        W22117  22.371  12.053   1.838
49693W        W22118  41.356  16.351   3.209
49694W        W22119  29.073  27.906   1.687
49695W        W22120  30.688  17.689   2.868
49696W        W22121   5.718  34.370  12.630
49697W        W22122  18.660  24.568   2.667
49698W        W22123  24.943  27.038   2.812
49699W        W22124   8.274  42.472  14.400
49700W        W22125  29.155  42.687   3.190
49701W        W22126  28.625  20.615  11.076
49702W        W22127  11.344  22.018   0.467
49703W        W22128  31.078   7.363   1.748
49704W        W22129   6.318  11.634  11.138
49705W        W22130   0.731  39.058  11.254
49706W        W22131   4.729  42.944   1.998
49707W        W22132   8.008  38.799  10.668
49708W        W22133  43.829  11.755   1.353
49709W        W22134  42.055  38.555   4.271
49710W        W22135  11.791  19.810  13.453
49711W        W22136  28.682  38.043  14.603
49712W        W22137  12.732   0.389   0.794
49713W        W22138  33.776  17.110   0.928
49714W        W22139   3.426  30.205  10.367
49715W        W22140   2.723   0.776  12.026
49716W        W22141  16.282  26.251   2.743
49717W        W22142   5.383  36.634  13.549
49718W        W22143  41.323   7.891   4.178
49719W        W22144  24.954  41.284  12.729
49720W        W22145  24.338  40.274   4.149
49721W        W22146  17.102  34.920   2.294
49722W        W22147   4.011  12.250  12.051
49723W        W22148   1.538   2.163   4.729
49724W        W22149  14.508  36.908  11.174
49725W        W22150   1.344   0.507   0.886
49726W        W22151   0.748   6.288  11.907
49727W        W22152   9.419  27.213  13.802
49728W        W22153  14.318  38.467  14.247
49729W        W22154  37.921  30.087   4.868
49730W        W22155  35.522  42.122  14.430
49731W        W22156   7.780  21.569   0.807
49732W        W22157  27.175  32.974   3.336
49733W        W22158  11.248  16.067  13.145
49734W        W22159  30.979  32.053   2.210
49735W        W22160   4.270  43.737   1.592
49736W        W22161  32.195  31.158   1.779
49737W        W22162  13.677   8.679   3.681
49738W        W22163  20.052  14.312  11.192
49739W        W22164  16.891  27.081   4.023
49740W        W22165  27.100  35.385   2.680
49741W        W22166  27.242  36.529   0.184
49742W        W22167  19.498   7.476   0.237
49743W        W22168  40.888  35.812   3.092
49744W        W22169  23.115  16.242   0.286
49745W        W22170  36.619  43.426   2.837
49746W        W22171  13.255   0.996   3.637
49747W        W22172  32.121  13.625   1.436
49748W        W22173   5.134  42.912  11.229
49749W        W22174  27.264  43.894   0.056
49750W        W22175   2.217   4.691  12.478
49751W        W22176  28.584  27.931  11.251
49752W        W22177   5.005  43.461  13.125
49753W        W22178  32.817  17.743  13.069
49754W        W22179   6.165   3.954  12.988
49755W        W22180   6.713  44.746   0.497
49756W        W22181  11.852  23.781  12.082
49757W        W22182  28.228  41.383   9.793
49758W        W22183  10.657  38.284   2.247
49759W        W22184  36.186   9.696  13.459
49760W        W22185   0.617  44.719   3.182
49761W        W22186  16.031  25.392   2.839
49762W        W22187  44.868   8.694  12.862
49763W        W22188   0.276  44.312  13.925
49764W        W22189  28.617  37.013   2.142
49765W        W22190  37.546  41.481   1.906
49766W        W22191  18.835  39.311   1.467
49767W        W22192  27.457  10.693  10.665
49768W        W22193   5.916  21.459   2.293
49769W        W22194  37.330  22.669   1.054
49770W        W22195  28.989   2.940  14.112
49771W        W22196  37.520  17.892  11.183
49772W        W22197   9.046  40.824   2.338
49773W        W22198  17.754   5.649  14.980
49774W        W22199  43.379  42.357  14.844
49775W        W22200   9.246  29.282  12.439
49776W        W22201   2.000  18.348  13.844
49777W        W22202  17.810  41.860   4.026
49778W        W22203   2.831   7.665   1.871
49779W        W22204  17.553  18.853   1.854
49780W        W22205  16.766  42.777   2.461
49781W        W22206   9.951  18.519   1.023
49782W        W22207  36.450  24.591  10.759
49783W        W22208  30.227   5.867  11.155
49784W        W22209  28.909  16.120  12.342
49785W        W22210  12.222  30.700  12.543
49786W        W22211  22.653  42.373  10.442
49787W        W22212  35.048  23.716  13.124
49788W        W22213  22.530  36.916  12.221
49789W        W22214   1.810  39.325  12.021
49790W        W22215  30.101  14.443  13.995
49791W        W22216  17.446   8.068   2.804
49792W        W22217   3.214  23.709  14.724
49793W        W22218   5.333   3.560  13.313
49794W        W22219  24.467  38.103  13.468
49795W        W22220  20.712  11.219  12.101
49796W        W22221  23.794  10.006  11.811
49797W        W22222  40.038  29.111  13.881
49798W        W22223  17.801  20.042   4.131
49799W        W22224  24.368   6.216  13.903
49800W        W22225  26.403  38.572   3.635
49801W        W22226  38.788  22.798  10.210
49802W        W22227  40.015  34.077   2.685
49803W        W22228  26.687  32.497  14.376
49804W        W22229  14.330  22.018   5.426
49805W        W22230  39.258  24.528   2.893
49806W        W22231   5.462  29.143  14.894
49807W        W22232   1.306  27.769  14.805
49808W        W22233  41.920  17.249   1.974
49809W        W22234  30.418  43.242  11.627
49810W        W22235  21.085  37.633  10.668
49811W        W22236  43.457  30.208   1.157
49812W        W22237  42.554  13.157   0.574
49813W        W22238  15.176  38.588   4.084
49814W        W22239  39.889  28.601   1.658
49815W        W22240  22.804   3.916   4.652
49816W        W22241  12.761  30.627  12.468
49817W        W22242   2.815   9.963  12.124
49818W        W22243  34.393  22.056   4.006
49819W        W22244  40.143  33.094  11.867
49820W        W22245  22.104  35.639  13.102
49821W        W22246  21.991   5.680   0.879
49822W        W22247  29.083  12.597  10.505
49823W        W22248  40.870   6.743  14.488
49824W        W22249  10.560  29.097   4.240
49825W        W22250  17.006  29.351   2.324
49826W        W22251  31.098  28.601  13.116
49827W        W22252  35.538   2.969  13.216
49828W        W22253  19.511  22.546  10.574
49829W        W22254  15.589  41.563  14.357
49830W        W22255  30.310   7.194   2.860
49831W        W22256  39.492   0.264  11.636
49832W        W22257  16.358  17.297   3.843
49833W        W22258  25.283  39.866  11.562
49834W        W22259  33.683  17.229   2.155
49835W        W22260  23.394   9.742   4.613
49836W        W22261  27.414  42.413  11.084
49837W        W22262   5.261   2.775  14.641
49838W        W22263  24.758  19.510   5.094
49839W        W22264  31.126  17.155   4.393
49840W        W22265   4.782  26.464   3.364
49841W        W22266   4.927  29.379  14.071
49842W        W22267  33.580  28.465  10.853
49843W        W22268  42.892  15.779  13.426
49844W        W22269  21.972  28.952  13.595
49845W        W22270  34.281  23.272   3.744
49846W        W22271  12.318  34.007  10.652
49847W        W22272  11.680  30.548  14.653
49848W        W22273  15.634  15.374   0.272
49849W        W22274  44.293  22.269   1.764
49850W        W22275  29.978   8.340  10.704
49851W        W22276  27.561   8.675   4.552
49852W        W22277  32.793   1.883   4.886
49853W        W22278  33.439   7.899  13.095
49854W        W22279  42.511  32.417  10.600
49855W        W22280   4.530   0.272  11.136
49856W        W22281  29.980  26.024   0.399
49857W        W22282   1.001  13.330   3.319
49858W        W22283  25.978  31.497  10.693
49859W        W22284  22.974   3.049   2.043
49860W        W22285   4.749  28.144  10.295
49861W        W22286  25.748  37.494  12.891
49862W        W22287  44.794   4.064  12.397
49863W        W22288  12.193  40.384  14.236
49864W        W22289  14.710  28.072  12.615
49865W        W22290  35.213   1.361   3.273
49866W        W22291  10.827  14.404   5.282
49867W        W22292  35.016   1.412   1.853
49868W        W22293  20.182  31.513  10.781
49869W        W22294  23.591  15.979   4.285
49870W        W22295   4.228  32.034  10.659
49871W        W22296  28.628  29.389  14.035
49872W        W22297  26.611  22.027   4.109
49873W        W22298  11.695  37.010  12.908
49874W        W22299  10.113  16.088   0.743
49875W        W22300  41.817  37.156  14.136
49876W        W22301  37.699  37.953   3.611
49877W        W22302   3.825  38.098  13.074
49878W        W22303  43.832  29.854   4.170
49879W        W22304  20.280  20.182   0.807
49880W        W22305  30.517   4.233  13.492
49881W        W22306  39.567  38.574   4.804
49882W        W22307  34.526   8.289   3.602
49883W        W22308  27.505  25.570  14.867
49884W        W22309  34.952  17.080  14.404
49885W        W22310   4.265  21.875  13.871
49886W        W22311  40.301  37.857  10.966
49887W        W22312  11.647  13.918   0.839
49888W        W22313  14.602  25.503  11.535
49889W        W22314  36.277  30.613  12.938
49890W        W22315  18.754  40.364   1.159
49891W        W22316  14.505  14.784  14.388
49892W        W22317  37.033  12.776   4.101
49893W        W22318  18.891  27.435   3.845
49894W        W22319  20.523   2.385   0.364
49895W        W22320  13.064  28.240  12.960
49896W        W22321  20.957  17.168   5.056
49897W        W22322  35.565   8.773   5.433
49898W        W22323  13.816  14.396   0.357
49899W        W22324  13.314  15.059  11.952
49900W        W22325  24.222  31.565   1.038
49901W        W22326  31.874   2.193  11.627
49902W        W22327  25.412  33.544  14.758
49903W        W22328   5.192  19.737   3.494
49904W        W22329  34.525  43.306   3.624
49905W        W22330   7.362  18.109  12.565
49906W        W22331  19.842  35.059   0.388
49907W        W22332  13.781  19.843   2.849
49908W        W22333  14.510  39.404  10.639
49909W        W22334  33.513  12.979   0.238
49910W        W22335  30.193  15.815   0.318
49911W        W22336  23.624  10.122  14.816
49912W        W22337   4.115   0.682  14.798
49913W        W22338  28.806  33.207  14.254
49914W        W22339   8.603  32.613  14.316
49915W        W22340  16.745   9.471  12.083
49916W        W22341  21.088   0.503  14.027
49917W        W22342  12.421   5.169   1.524
49918W        W22343  13.246  25.221  10.738
49919W        W22344   0.785  31.247   2.991
49920W        W22345  44.691   4.889   1.993
49921W        W22346  18.605  37.148   4.351
49922W        W22347  18.684  14.292   3.071
49923W        W22348  42.334  13.076  13.845
49924W        W22349  12.995  19.785  12.528
49925W        W22350   5.373  21.494  14.285
49926W        W22351  16.686  22.272   2.938
49927W        W22352   6.247  38.391   1.967
49928W        W22353  24.349  39.263  11.902
49929W        W22354  41.675  40.359  10.758
49930W        W22355  17.700  16.141  12.157
49931W        W22356   0.697   4.728  14.845
49932W        W22357  41.505  16.553  13.277
49933W        W22358  25.039  21.178  12.090
49934W        W22359  30.874  42.491  11.618
49935W        W22360  15.046   3.051   4.609
49936W        W22361  28.208  32.429  12.981
49937W        W22362  22.600  28.553   4.643
49938W        W22363   3.349  38.376   0.249
49939W        W22364  33.885   8.946   2.077
49940W        W22365  10.651   3.839  12.556
49941W        W22366  34.535  29.248  12.020
49942W        W22367   7.163  21.328   2.719
49943W        W22368   5.813  11.423   4.871
49944W        W22369  23.659  23.991  14.353
49945W        W22370  29.268  30.437  13.991
49946W        W22371  17.681  43.583   3.611
49947W        W22372  38.514  12.911   2.646
49948W        W22373  27.374  39.029  11.647
49949W        W22374  29.122  28.182   2.175
49950W        W22375  38.216   5.968   3.740
49951W        W22376  30.481   8.414   0.864
49952W        W22377  24.255  17.617   4.921
49953W        W22378   4.784  21.213   1.786
49954W        W22379  16.967  38.443   3.726
49955W        W22380  34.849  39.059  14.495
49956W        W22381   1.872  21.721  11.145
49957W        W22382  27.544  12.090   0.529
49958W        W22383  15.601  17.640  10.772
49959W        W22384  14.541  16.371   4.227
49960W        W22385  16.071  39.586  12.097
49961W        W22386  27.205  21.650   3.733
49962W        W22387  19.527   4.215  14.322
49963W        W22388  10.629  43.757   1.423
49964W        W22389  18.446   0.697  14.551
49965W        W22390  30.566  34.504   1.725
49966W        W22391  37.516  26.941  14.255
49967W        W22392  20.621  18.362  10.738
49968W        W22393  34.111  23.110  11.196
49969W        W22394   5.307   1.939  14.022
49970W        W22395  24.485  31.879   4.888
49971W        W22396  16.087  37.410   3.610
49972W        W22397  38.073   3.485  11.528
49973W        W22398   3.867  43.974   4.508
49974W        W22399  22.263   5.286   4.548
49975W        W22400   4.233   9.610  14.899
49976W        W22401  41.466   9.774   2.184
49977W        W22402  37.846  24.566   4.500
49978W        W22403  43.476  22.739  14.352
49979W        W22404  21.408  32.446  13.804
49980W        W22405  31.944  28.060  11.123
49981W        W22406  32.368  27.853  10.302
49982W        W22407  32.476  38.010   2.413
49983W        W22408  12.114   6.133  13.605
49984W        W22409  35.047  13.728   2.828
49985W        W22410  26.202  18.083  10.837
49986W        W22411  30.096   6.104   4.580
49987W        W22412   0.383  13.407  10.745
49988W        W22413  28.156  40.211  14.481
49989W        W22414  21.180  40.049   0.382
49990W        W22415   4.136   2.880   3.148
49991W        W22416  44.011  18.192   0.928
49992W        W22417  18.509  36.182   2.744
49993W        W22418   7.475  18.087  12.054
49994W        W22419  17.023  19.979  12.866
49995W        W22420  32.861  35.287  11.686
49996W        W22421  37.963  19.794   1.974
49997W        W22422  33.414  16.133  10.382
49998W        W22423  33.702  25.758  12.096
49999W        W22424  19.148  19.571  13.523
50000W        W22425  20.231  12.357   2.797
50001W        W22426  13.260  34.831  11.701
50002W        W22427   9.399  35.390   3.657
50003W        W22428  24.466  24.837  12.474
50004W        W22429  17.603  15.038   2.672
50005W        W22430  10.171  10.359   3.080
50006W        W22431  36.403  16.581  11.632
50007W        W22432   2.917  17.690   4.750
50008W        W22433   9.277  44.310   3.797
50009W        W22434   1.743  29.478  10.683
50010W        W22435   5.351   1.748  13.559
50011W        W22436   3.846  23.722   3.328
50012W        W22437  29.920  24.176  11.683
50013W        W22438  36.752  13.207  12.000
50014W        W22439   2.393  19.512  11.077
50015W        W22440  41.487  44.033  14.555
50016W        W22441  21.215  15.830  12.442
50017W        W22442  26.138  32.025  10.601
50018W        W22443  16.742  24.239  13.824
50019W        W22444  19.470  43.308  11.548
50020W        W22445  15.566  24.290   4.911
50021W        W22446   0.960  22.287  10.450
50022W        W22447   9.107  31.384   4.675
50023W        W22448  10.817  21.254   2.180
50024W        W22449   3.366   3.769   0.417
50025W        W22450  16.909  30.096  13.570
50026W        W22451  26.756   4.762  10.674
50027W        W22452   6.403   7.529  11.568
50028W        W22453   1.284   6.453  13.516
50029W        W22454  30.287  22.829  14.748
50030W        W22455  10.871  27.453   0.016
50031W        W22456  43.075  39.125   3.793
50032W        W22457  19.127   5.714   2.653
50033W        W22458  24.237  38.531   1.412
50034W        W22459  24.183   6.162   4.542
50035W        W22460  40.018  34.633   2.706
50036W        W22461  20.604  28.403   1.457
50037W        W22462  43.411  35.369  10.505
50038W        W22463  18.218   1.838   1.585
50039W        W22464  42.511  40.389  11.056
50040W        W22465  21.731  43.529   4.869
50041W        W22466   2.059  12.978  11.859
50042W        W22467   7.185  19.340  14.324
50043W        W22468   7.823  11.895   1.313
50044W        W22469   5.167   8.609  12.822
50045W        W22470   4.037  33.936   0.284
50046W        W22471  15.483  18.822   3.217
50047W        W22472  20.796  27.935   1.390
50048W        W22473   5.264  37.300  12.302
50049W        W22474  34.119  10.747   0.895
50050W        W22475  11.151  41.833  12.864
50051W        W22476  16.168  39.442   2.255
50052W        W22477  15.305  20.541  13.972
50053W        W22478   6.656  15.874  11.681
50054W        W22479   2.021   2.426   0.233
50055W        W22480   8.349  33.393   3.546
50056W        W22481   4.977   0.437  13.862
50057W        W22482  22.201  16.467  14.292
50058W        W22483  40.400  19.171  14.952
50059W        W22484   5.389   0.809   1.191
50060W        W22485  19.137  31.587  13.972
50061W        W22486  29.982  13.637  12.810
50062W        W22487  20.156   2.892   1.010
50063W        W22488  23.334   2.504   0.920
50064W        W22489  25.627   8.733   1.988
50065W        W22490  36.525  42.842  10.892
50066W        W22491  35.483  28.748  13.484
50067W        W22492  36.777   0.603  13.242
50068W        W22493  34.874  15.621   4.237
50069W        W22494  37.157  30.794  11.936
50070W        W22495  43.570  25.647  13.475
50071W        W22496   0.423   8.074  11.824
50072W        W22497  39.305  18.656  11.865
50073W        W22498  17.328  26.521  11.544
50074W        W22499  40.910  33.914  11.052
50075W        W22500   8.223   6.938   0.310
50076W        W22501  34.047  44.768   0.752
50077W        W22502   3.752  11.792  10.009
50078W        W22503  28.167  22.138   5.249
50079W        W22504  31.457  12.322  13.792
50080W        W22505  11.759  15.267   2.802
50081W        W22506   6.920   5.685   3.268
50082W        W22507  43.043  19.444  11.213
50083W        W22508  37.174  13.174  13.781
50084W        W22509   2.860  13.367   2.795
50085W        W22510  21.228   6.155  10.778
50086W        W22511  36.618  29.577   3.594
50087W        W22512  36.944  22.999  11.529
50088W        W22513  31.429  18.603   4.033
50089W        W22514  39.650  17.386   2.372
50090W        W22515  23.269  42.170  13.393
50091W        W22516  42.008  30.659  14.137
50092W        W22517  14.120   1.159   0.728
50093W        W22518  29.643   9.666  14.074
50094W        W22519   8.640   0.260  10.772
50095W        W22520   9.530   4.943   2.337
50096W        W22521  20.916  29.428   4.495
50097W        W22522  20.960  17.642   3.772
50098W        W22523  43.825   3.879  12.242
50099W        W22524   4.526  18.733   1.225
50100W        W22525  18.619  40.403   4.551
50101W        W22526  22.718   3.200   0.813
50102W        W22527  40.805   2.166   4.756
50103W        W22528  36.578   0.680   4.181
50104W        W22529  44.983  27.139  14.314
50105W        W22530  37.885  13.520  11.361
50106W        W22531  21.300  42.742   0.977
50107W        W22532  10.215  40.661  14.397
50108W        W22533  20.471  18.742  11.143
50109W        W22534  11.034   2.898   1.652
50110W        W22535  11.241  22.496   5.422
50111W        W22536  27.047  25.719  13.021
50112W        W22537   9.133  35.865   0.590
50113W        W22538  11.208  23.259  14.456
50114W        W22539  42.874  37.553   0.423
50115W        W22540   0.370  37.348   2.738
50116W        W22541  15.873  19.956   3.679
50117W        W22542  19.301  28.870   2.398
50118W        W22543   1.138  34.507  13.905
50119W        W22544  40.415  19.574   1.311
50120W        W22545  21.616  34.580   3.329
50121W        W22546  33.897   9.200   4.896
50122W        W22547  32.526   4.912   3.144
50123W        W22548   0.562  15.493   2.002
50124W        W22549  41.759  19.991  14.571
50125W        W22550  42.854  38.899   2.245
50126W        W22551   1.476   7.673   3.431
50127W        W22552   2.902  41.437   3.368
50128W        W22553   4.089  39.319   0.943
50129W        W22554  42.758  38.456  13.920
50130W        W22555  20.565  41.020  10.427
50131W        W22556  27.677  40.229   3.698
50132W        W22557  15.886  36.013   4.102
50133W        W22558   2.288   6.654   0.813
50134W        W22559  16.630  30.352   1.688
50135W        W22560   9.312   5.400  13.861
50136W        W22561  43.781  39.856  12.414
50137W        W22562  39.490  26.717  14.849
50138W        W22563  17.607  25.219   1.863
50139W        W22564  42.437   6.314   2.133
50140W        W22565  18.040  40.458  14.047
50141W        W22566   3.316  40.080   0.258
50142W        W22567   4.849  16.724   4.163
50143W        W22568  44.268  18.677  10.624
50144W        W22569  13.481  18.808   2.772
50145W        W22570  40.920   7.911  14.460
50146W        W22571  13.746  41.307   3.246
50147W        W22572   6.292  20.332  14.917
50148W        W22573  31.691   8.732   0.264
50149W        W22574  37.514  39.459   4.416
50150W        W22575  39.805  35.272  10.688
50151W        W22576  40.914  30.787   0.118
50152W        W22577  42.423  30.418   1.974
50153W        W22578  11.388  38.791  11.523
50154W        W22579  28.694   9.076  12.249
50155W        W22580  23.658  22.595   4.773
50156W        W22581  21.121   7.670  12.997
50157W        W22582  12.363  38.367  14.369
50158W        W22583  11.766  12.873  10.064
50159W        W22584  41.286  36.411   1.326
50160W        W22585  14.166  40.868  10.505
50161W        W22586  42.542  21.020  11.951
50162W        W22587  42.424  10.866  14.350
50163W        W22588   5.013   6.741   0.071
50164W        W22589  22.069  44.439   3.901
50165W        W22590  35.873  37.511   0.350
50166W        W22591  18.178   5.883   0.759
50167W        W22592  26.486  31.859   1.794
50168W        W22593  12.275   3.233   5.032
50169W        W22594  15.138  18.035   4.552
50170W        W22595  18.915  35.810   2.402
50171W        W22596  17.041   3.727  13.054
50172W        W22597   7.272  36.134   0.823
50173W        W22598  40.435   5.725   1.302
50174W        W22599   9.182  38.047   3.157
50175W        W22600   1.721  36.960  14.324
50176W        W22601  24.179  14.096   4.320
50177W        W22602  22.034  33.368  11.731
50178W        W22603  22.727  42.460   3.385
50179W        W22604  25.099  31.382  11.146
50180W        W22605  16.723   4.235  13.349
50181W        W22606  11.104  25.903   4.632
50182W        W22607  26.137  37.410   0.273
50183W        W22608  27.835  39.736   3.625
50184W        W22609  22.366   2.904  12.161
50185W        W22610  12.244   8.461   4.710
50186W        W22611  10.551  38.489   0.908
50187W        W22612  13.186   9.776  10.667
50188W        W22613   8.164  27.694   0.800
50189W        W22614  12.573  43.311  11.474
50190W        W22615   1.882   6.703   1.357
50191W        W22616  19.227  28.216  12.538
50192W        W22617  14.095  18.194  11.643
50193W        W22618   5.497  12.713  13.652
50194W        W22619  35.757   3.277   2.997
50195W        W22620  27.844  36.440  11.940
50196W        W22621  38.411  27.625  14.779
50197W        W22622  27.560  43.056  13.532
50198W        W22623  36.561  26.877  13.379
50199W        W22624   5.659  31.705   0.890
50200W        W22625  26.441  42.106  11.109
50201W        W22626  26.163  42.741   4.253
50202W        W22627  35.507  35.414  13.351
50203W        W22628   6.662  36.057   2.820
50204W        W22629  16.719  15.388   4.047
50205W        W22630   9.326  40.889   1.922
50206W        W22631  40.290   4.981   1.214
50207W        W22632  21.013  22.044   2.785
50208W        W22633  17.253  16.387  14.324
50209W        W22634  18.531  34.135  10.140
50210W        W22635  16.725  30.899   2.321
50211W        W22636  22.014   7.903   4.148
50212W        W22637  42.254  22.807  13.254
50213W        W22638  31.656  34.384   1.741
50214W        W22639  21.971  43.050   3.285
50215W        W22640  42.849  44.989  13.586
50216W        W22641   2.880  40.378   0.058
50217W        W22642  31.446  16.724  11.124
50218W        W22643   3.117   0.378  14.765
50219W        W22644  26.532  18.701  13.057
50220W        W22645  24.007   1.742   2.678
50221W        W22646  35.609  20.712   0.862
50222W        W22647  11.846  15.573  12.103
50223W        W22648   1.609  29.550  13.269
50224W        W22649   9.727  36.115   0.291
50225W        W22650  33.136  11.406   3.341
50226W        W22651  21.544  41.081  12.035
50227W        W22652  32.137  11.073   3.717
50228W        W22653   5.684  21.568  10.376
50229W        W22654   5.851  37.825   3.151
50230W        W22655  22.777  36.886  13.070
50231W        W22656  43.057  12.643   0.972
50232W        W22657  19.223  29.685  12.953
50233W        W22658  29.114  29.704  12.090
50234W        W22659  15.704   3.539  12.058
50235W        W22660  38.074  36.832   2.204
50236W        W22661  13.076  24.684   3.822
50237W        W22662  33.475  10.308  13.239
50238W        W22663  20.611  27.970  13.504
50239W        W22664  17.599  13.189   1.910
50240W        W22665  36.604  12.235  13.517
50241W        W22666  17.509  25.059  12.972
50242W        W22667  33.500  19.720  11.574
50243W        W22668  33.310  34.564   3.370
50244W        W22669  15.160   3.680  10.564
50245W        W22670  13.873  32.531  11.553
50246W        W22671   9.474  22.163   1.688
50247W        W22672   1.427  29.704   0.495
50248W        W22673  40.768  34.186   2.154
50249W        W22674  28.112   7.255  14.727
50250W        W22675   5.676  19.422  11.516
50251W        W22676  38.092  35.938   2.288
50252W        W22677  19.389  14.077   3.778
50253W        W22678  29.470   9.890   0.667
50254W        W22679  23.794  19.228   1.778
50255W        W22680  41.381  30.927   3.917
50256W        W22681  11.881  15.084   3.296
50257W        W22682  10.011  41.459  12.015
50258W        W22683  10.054  32.797   0.273
50259W        W22684  28.795   4.470  11.193
50260W        W22685  20.706  21.702   1.664
50261W        W22686   3.324  43.945  10.450
50262W        W22687  30.093  24.574  11.933
50263W        W22688  21.373  23.767   3.389
50264W        W22689  34.985  10.645  13.122
50265W        W22690  27.775  18.748   3.322
50266W        W22691  19.946  44.268  10.744
50267W        W22692  21.638  12.674  13.477
50268W        W22693   0.334  20.305   3.294
50269W        W22694   7.437   9.136  11.116
50270W        W22695  19.734  42.694  13.789
50271W        W22696  14.491  19.684  12.464
50272W        W22697  27.439  41.264  14.698
50273W        W22698  10.002  18.820  12.118
50274W        W22699  33.158  18.003   4.350
50275W        W22700  44.790  22.569   2.336
50276W        W22701  25.899   5.197  11.129
50277W        W22702  17.121  22.107   0.574
50278W        W22703  27.513  22.469  13.410
50279W        W22704  26.145   3.999  10.758
50280W        W22705  33.011  19.860   0.593
50281W        W22706  39.670  42.757   3.791
50282W        W22707   3.657  33.664  13.774
50283W        W22708  39.785  34.748  10.802
50284W        W22709  12.852  28.934  12.458
50285W        W22710  44.316   3.729  14.137
50286W        W22711   6.754   3.852   2.093
50287W        W22712  20.812  10.783   3.033
50288W        W22713  34.246  26.623   3.585
50289W        W22714  40.362  44.515  11.491
50290W        W22715  32.828  24.765   1.333
50291W        W22716  38.324  27.675   1.215
50292W        W22717   2.886  33.540   1.159
50293W        W22718  43.888  19.511   1.280
50294W        W22719   4.145  16.376   4.172
50295W        W22720   8.628  39.116  14.881
50296W        W22721  29.331  43.829  11.063
50297W        W22722   2.707  40.463  11.144
50298W        W22723  24.645  39.904  14.330
50299W        W22724  21.356   5.386  11.491
50300W        W22725  20.670  21.905  14.317
50301W        W22726   7.293   3.441  13.055
50302W        W22727  23.951   2.019   2.243
50303W        W22728  20.590  19.505   3.293
50304W        W22729  43.263  12.403  11.848
50305W        W22730   5.900   8.735   1.958
50306W        W22731  36.063  13.263   1.267
50307W        W22732  32.113  15.716  10.612
50308W        W22733  12.155  36.522   4.041
50309W        W22734  12.832   8.746  12.456
50310W        W22735  35.349   4.104   3.782
50311W        W22736   3.966  39.175  14.330
50312W        W22737  10.295  29.730   3.747
50313W        W22738  29.193  14.265   3.263
50314W        W22739  17.462   5.637   3.598
50315W        W22740  40.490  44.334  14.286
50316W        W22741  28.964  35.419  13.608
50317W        W22742  23.222  28.630   0.862
50318W        W22743  40.520   4.281  11.275
50319W        W22744  29.656  23.749   0.271
50320W        W22745   4.321  38.446   4.305
50321W        W22746  18.319   9.896   3.551
50322W        W22747   4.755  12.778  12.911
50323W        W22748  22.615  34.380   0.362
50324W        W22749  35.980  16.006  11.606
50325W        W22750   6.915  44.961   2.808
50326W        W22751  22.632  12.387  11.158
50327W        W22752  23.658   3.110   4.800
50328W        W22753  18.598  24.860   1.662
50329W        W22754  12.810   6.940  14.876
50330W        W22755   6.315   4.440   1.029
50331W        W22756  42.994  32.978  14.873
50332W        W22757  24.941   1.740   1.436
50333W        W22758  39.066   0.739  13.032
50334W        W22759  23.076  44.226   1.855
50335W        W22760  33.111  16.736  13.099
50336W        W22761  21.290  10.463   2.861
50337W        W22762  25.581   3.441   1.775
50338W        W22763   9.962   3.906   1.146
50339W        W22764  12.095  13.868  13.640
50340W        W22765  16.125  20.845  14.265
50341W        W22766  17.350  30.802  12.220
50342W        W22767   9.711  14.506   0.500
50343W        W22768  26.146  11.869   3.377
50344W        W22769  23.743   5.888   1.907
50345W        W22770  26.109  24.949  13.831
50346W        W22771  35.550  22.272   1.639
50347W        W22772  13.656  44.247   1.816
50348W        W22773  20.946  40.580  12.901
50349W        W22774   4.705   0.512  12.550
50350W        W22775  11.070  29.068  10.411
50351W        W22776  23.919  14.253  12.021
50352W        W22777  14.554   9.737  12.518
50353W        W22778  30.728  20.630  11.100
50354W        W22779  37.097  28.180  13.230
50355W        W22780  37.403  44.544  14.532
50356W        W22781   0.859  35.532   1.695
50357W        W22782   2.299  33.072  13.343
50358W        W22783  32.347  20.185  10.655
50359W        W22784  26.420   7.495   2.241
50360W        W22785  33.847  26.256   2.618
50361W        W22786  22.467  39.490   2.152
50362W        W22787   2.826  42.180   2.720
50363W        W22788  37.342  42.088  14.431
50364W        W22789  29.688  12.902  13.139
50365W        W22790   0.707  18.039   1.314
50366W        W22791  44.061  20.100  12.849
50367W        W22792  25.762  24.551  13.960
50368W        W22793   0.245  44.201   2.219
50369W        W22794  43.054   0.803  12.881
50370W        W22795  42.536  40.519  12.421
50371W        W22796   3.301  21.956   4.605
50372W        W22797  37.930   4.177   0.814
50373W        W22798  32.529  41.426   0.752
50374W        W22799   7.844  34.427  12.469
50375W        W22800  39.451  26.680  10.738
50376W        W22801  11.079  43.772  13.832
50377W        W22802  20.700   8.754   4.294
50378W        W22803   2.817  44.050   4.285
50379W        W22804  30.133  32.508   4.160
50380W        W22805  35.584   4.395   0.401
50381W        W22806  16.742  22.297   2.437
50382W        W22807  29.385  37.695   2.072
50383W        W22808  12.012  33.866  11.988
50384W        W22809  22.469  22.554  10.713
50385W        W22810  23.510   2.047   0.762
50386W        W22811   7.195   3.741  14.328
50387W        W22812  24.944  28.596  10.609
50388W        W22813  27.559  42.276  14.828
50389W        W22814   9.107  21.036   3.738
50390W        W22815  41.961  33.953   3.015
50391W        W22816  17.399   6.322   0.482
50392W        W22817   4.892  22.702  10.674
50393W        W22818  31.670  23.895  13.741
50394W        W22819  41.269  40.282  11.048
50395W        W22820  41.401   7.113  11.243
50396W        W22821  20.231  28.987   3.278
50397W        W22822  21.115  38.339  10.237
50398W        W22823   9.151  30.970  13.102
50399W        W22824  34.578  28.016   3.802
50400W        W22825  37.446  22.164  14.215
50401W        W22826  20.577  12.955  11.534
50402W        W22827  36.893  15.473   2.748
50403W        W22828  23.550  13.522  11.123
50404W        W22829  24.663  24.456  11.500
50405W        W22830  13.259   6.726  14.958
50406W        W22831   1.063   6.332  11.487
50407W        W22832  22.078  38.486  10.777
50408W        W22833   6.755   8.971  10.698
50409W        W22834  44.815  13.168   2.150
50410W        W22835  34.887   2.399   4.445
50411W        W22836  33.192  23.086   0.709
50412W        W22837  25.117  35.542  11.921
50413W        W22838   1.384  14.547  11.841
50414W        W22839  35.044  30.206  10.466
50415W        W22840  21.258  37.829  13.056
50416W        W22841   4.713  44.427  13.919
50417W        W22842  44.050  24.113   0.861
50418W        W22843   1.807  29.125  12.846
50419W        W22844  43.836  28.587  10.969
50420W        W22845   3.230  23.210   4.535
50421W        W22846  41.544  14.631  13.879
50422W        W22847  17.769  15.530  14.734
50423W        W22848  40.531  32.881  14.019
50424W        W22849  37.147  22.213  10.734
50425W        W22850  38.203  38.379  11.571
50426W        W22851  37.363   4.054  14.491
50427W        W22852   8.196  40.993   2.405
50428W        W22853  40.051   5.718  13.462
50429W        W22854  30.159  32.121  11.347
50430W        W22855  33.145  28.047  12.238
50431W        W22856  31.018  28.493   4.668
50432W        W22857  11.358   3.250  11.146
50433W        W22858  16.871   0.337  10.810
50434W        W22859  43.960  36.317  13.782
50435W        W22860  10.233  14.475  11.453
50436W        W22861  30.264  31.177   2.273
50437W        W22862   0.990  25.739   0.231
50438W        W22863   2.531  35.604  12.954
50439W        W22864  11.160  19.242   2.283
50440W        W22865   9.376  20.109   3.145
50441W        W22866  20.170  25.958  13.630
50442W        W22867   8.629  17.637  12.498
50443W        W22868  40.444  33.902   3.683
50444W        W22869  14.179  19.685  10.685
50445W        W22870   6.032  43.659  11.033
50446W        W22871  43.802  19.049   2.755
50447W        W22872  14.584  20.437  13.442
50448W        W22873  17.797  20.979   3.220
50449W        W22874  43.940  39.058   3.759
50450W        W22875  29.635   8.389   1.734
50451W        W22876  28.145  34.999  12.915
50452W        W22877  11.178  26.219   3.326
50453W        W22878  38.793   6.793  12.851
50454W        W22879  18.976  27.443   2.832
50455W        W22880  15.617  12.712  11.640
50456W        W22881   1.922  26.919  13.414
50457W        W22882  27.278  38.324  14.394
50458W        W22883  29.908   1.311  13.348
50459W        W22884  33.839   2.716  13.923
50460W        W22885  37.148  41.516  12.540
50461W        W22886  40.103  25.039  10.203
50462W        W22887  27.672   4.370   4.614
50463W        W22888  16.703  20.341   0.412
50464W        W22889   5.761   8.112  12.514
50465W        W22890  34.158   1.271  11.212
50466W        W22891   5.655  20.379   3.105
50467W        W22892  39.697  22.911  10.948
50468W        W22893  27.046   5.761   1.850
50469W        W22894  29.017  40.391  10.442
50470W        W22895  40.019  36.429  14.730
50471W        W22896   6.278  18.603  12.302
50472W        W22897   2.298  20.618  11.444
50473W        W22898  27.647  34.250  11.322
50474W        W22899  19.829  22.765   3.147
50475W        W22900  34.538   3.184  13.044
50476W        W22901  18.280  43.420  11.100
50477W        W22902  42.498  41.807   3.720
50478W        W22903  27.421   9.768  10.656
50479W        W22904  28.156  18.540   4.551
50480W        W22905  29.006  43.903   0.474
50481W        W22906  37.483  13.891  11.011
50482W        W22907  15.233  44.321   4.131
50483W        W22908  20.915  28.895  11.475
50484W        W22909   4.375  40.033   4.644
50485W        W22910  31.025  24.477   1.881
50486W        W22911   6.944  31.862   0.612
50487W        W22912  19.584  22.242   0.046
50488W        W22913  11.742  25.556  11.204
50489W        W22914   9.430  21.643   4.247
50490W        W22915  35.482  40.975  12.378
50491W        W22916   9.312  20.451  13.547
50492W        W22917  30.090  22.535   3.569
50493W        W22918   6.128  13.560   3.252
50494W        W22919   5.246  32.502   1.126
50495W        W22920  14.691  39.015   0.919
50496W        W22921  31.541  26.669   0.861
50497W        W22922  16.702   0.870   0.056
50498W        W22923   2.278  42.896  14.819
50499W        W22924  10.147   1.505   1.256
50500W        W22925  22.586  10.427  12.752
50501W        W22926  42.327   6.655   1.171
50502W        W22927  31.599  11.391   1.679
50503W        W22928  15.360  12.425  13.754
50504W        W22929  33.424  34.666  14.909
50505W        W22930  28.135   1.849   1.123
50506W        W22931  32.906  40.331   0.745
50507W        W22932  41.252  37.225  11.957
50508W        W22933  42.573   5.308  14.491
50509W        W22934  21.459  16.618   0.039
50510W        W22935  26.313  13.100   2.476
50511W        W22936  30.100  15.266   0.789
50512W        W22937   9.178  27.769   0.265
50513W        W22938   6.775   9.221   4.458
50514W        W22939  18.272  16.061  12.585
50515W        W22940  34.411  15.858   4.194
50516W        W22941  23.247  43.786   3.658
50517W        W22942  41.895  41.292   4.552
50518W        W22943  15.799  39.238  11.586
50519W        W22944  22.602  22.253   4.166
50520W        W22945  29.410  21.478   1.398
50521W        W22946  40.424   5.916  10.676
50522W        W22947  11.278  43.785   2.780
50523W        W22948  35.651  25.592   1.641
50524W        W22949  18.252  36.498  12.509
50525W        W22950  39.593  13.392   4.174
50526W        W22951  38.883  14.777  10.642
50527W        W22952  40.373  10.734  11.773
50528W        W22953   1.297  43.015   5.054
50529W        W22954  38.503  13.957   1.916
50530W        W22955  19.206   1.326  14.899
50531W        W22956   1.330   8.569  12.912
50532W        W22957  17.262   6.723  13.529
50533W        W22958  17.680  28.957   0.262
50534W        W22959  40.710  20.127  10.757
50535W        W22960  24.801  43.080  14.410
50536W        W22961  20.352  41.907   0.445
50537W        W22962  14.120  14.761   4.153
50538W        W22963  31.632  21.585  13.891
50539W        W22964  19.672  27.923  12.611
50540W        W22965   3.638  40.697  11.184
50541W        W22966  17.302  13.819  11.977
50542W        W22967  29.339  37.531  12.211
50543W        W22968  10.773  42.513   2.928
50544W        W22969  11.741  30.906   0.508
50545W        W22970   0.845  28.431   2.199
50546W        W22971  28.310  44.458  11.096
50547W        W22972  42.205  28.840  12.406
50548W        W22973   4.231  25.062  12.886
50549W        W22974  24.747  28.221   1.206
50550W        W22975  19.212   8.513  12.324
50551W        W22976   4.511  42.017   0.959
50552W        W22977   4.416  41.306  14.802
50553W        W22978  24.996  41.780  12.601
50554W        W22979  39.368  23.790  13.732
50555W        W22980  33.064  10.715   0.745
50556W        W22981  14.627  29.046  10.439
50557W        W22982   2.879  29.057   4.480
50558W        W22983   1.110   2.791   2.265
50559W        W22984  28.748   5.075  12.791
50560W        W22985   7.253  21.144  13.783
50561W        W22986  26.757  16.117   3.255
50562W        W22987  43.069   5.464   0.794
50563W        W22988  39.568  32.157  14.850
50564W        W22989  29.083  39.261   2.168
50565W        W22990  19.275  42.036  11.498
50566W        W22991  22.928  44.000  14.963
50567W        W22992  31.220  21.937   1.803
50568W        W22993   0.718  11.774   2.250
50569W        W22994  38.614  20.666  14.864
50570W        W22995  15.771  36.323   3.694
50571W        W22996   7.874  42.232  11.042
50572W        W22997  22.444  43.710   3.135
50573W        W22998  31.534  31.098  12.019
50574W        W22999  14.367  32.236   5.322
50575W        W23000  43.328  33.914   0.361
50576W        W23001  37.972  37.744  10.251
50577W        W23002   2.664  40.315  12.852
50578W        W23003  18.083  14.415   3.362
50579W        W23004  34.650   6.916   1.772
50580W        W23005  29.054   9.867   4.189
50581W        W23006   8.889   5.126  14.832
50582W        W23007   5.178  27.351   0.767
50583W        W23008   1.523  37.986  13.254
50584W        W23009  14.689  43.330  12.609
50585W        W23010  30.120  10.646   2.070
50586W        W23011  18.725  40.261   3.646
50587W        W23012   0.195  10.108   4.539
50588W        W23013  14.783  12.931   2.413
50589W        W23014  23.723  28.512  14.289
50590W        W23015  25.719  44.161   2.849
50591W        W23016  42.447  23.140   5.242
50592W        W23017  10.632   9.677  12.136
50593W        W23018  35.415  14.033   4.827
50594W        W23019   7.833   0.882  13.315
50595W        W23020  42.331   7.607   1.305
50596W        W23021  36.505   7.218   1.707
50597W        W23022   6.907  34.426   1.802
50598W        W23023  17.619  32.948  11.131
50599W        W23024  32.050   9.529  11.562
50600W        W23025   9.053  31.030   1.937
50601W        W23026  28.407  11.242   2.264
50602W        W23027  25.441  25.957   3.703
50603W        W23028  17.933  31.856  13.329
50604W        W23029  40.519  34.628  13.004
50605W        W23030  21.140  10.882  11.027
50606W        W23031   2.262  36.096   0.883
50607W        W23032  29.021   7.452  14.787
50608W        W23033  38.908   4.723   4.559
50609W        W23034   5.878  12.709   4.850
50610W        W23035  23.056  21.639  14.839
50611W        W23036  15.144   3.246   2.743
50612W        W23037  34.702  29.048  13.412
50613W        W23038  12.745  32.926  14.953
50614W        W23039  23.473   2.156   3.381
50615W        W23040  43.115  35.974   4.084
50616W        W23041  19.760  38.594   2.997
50617W        W23042   0.786  18.717  13.397
50618W        W23043   4.479  36.323   3.483
50619W        W23044   1.383  21.634  12.498
50620W        W23045  16.075  11.079  12.127
50621W        W23046   6.796  43.527   4.051
50622W        W23047   7.250  34.514   0.969
50623W        W23048  42.464  41.856  11.290
50624W        W23049  13.205  12.740   1.756
50625W        W23050  30.457   8.935   0.850
50626W        W23051  25.420  44.202  11.174
50627W        W23052   9.776   7.762   1.293
50628W        W23053  14.574  41.383  13.862
50629W        W23054  12.258   9.021   4.872
50630W        W23055   6.752  38.480  11.049
50631W        W23056  12.201  31.020   2.734
50632W        W23057  35.584  32.120   5.165
50633W        W23058  23.686  34.814   1.467
50634W        W23059  37.847   1.375   1.790
50635W        W23060  13.926  22.331  12.989
50636W        W23061  18.509  30.531   4.276
50637W        W23062  13.873  37.605   4.094
50638W        W23063  13.880  12.574  12.297
50639W        W23064   3.975  17.249   1.760
50640W        W23065  28.977  39.864   3.970
50641W        W23066  16.273   4.085   0.803
50642W        W23067   0.372  12.850   2.923
50643W        W23068  31.334   1.821  14.233
50644W        W23069   2.223   3.548  14.734
50645W        W23070  34.444  21.215  12.879
50646W        W23071  19.247  32.367  11.142
50647W        W23072  31.437  12.623   5.072
50648W        W23073  17.114   3.950  11.579
50649W        W23074  31.517  17.831   0.247
50650W        W23075   4.175  32.731  14.465
50651W        W23076  35.137  13.781  10.600
50652W        W23077  15.200  16.799   3.113
50653W        W23078  33.124  14.038   4.566
50654W        W23079  14.007  33.893   4.288
50655W        W23080  44.972   1.446   4.222
50656W        W23081   9.859  43.983   0.049
50657W        W23082  34.849  38.498  11.971
50658W        W23083  26.469  10.045   2.954
50659W        W23084  11.332  17.773   0.949
50660W        W23085  24.102   8.009  11.686
50661W        W23086   7.270   0.842  12.652
50662W        W23087  30.935  29.935  13.023
50663W        W23088  36.053  27.826   1.218
50664W        W23089   7.892  32.075   4.588
50665W        W23090   3.481  31.416  11.958
50666W        W23091   1.168  19.676   2.816
50667W        W23092   7.928  30.560  11.694
50668W        W23093  11.398  13.872  12.280
50669W        W23094  17.210   6.779   3.735
50670W        W23095   1.890   7.471   4.347
50671W        W23096  11.393  40.046  11.193
50672W        W23097  26.302  26.391   1.646
50673W        W23098  36.471   9.824   0.382
50674W        W23099   7.858  35.688   3.888
50675W        W23100  40.690  22.782   1.705
50676W        W23101  33.947  34.659   1.723
50677W        W23102   5.708  32.001  13.594
50678W        W23103  32.688   9.686  10.484
50679W        W23104  22.571   8.127   3.337
50680W        W23105  27.433  13.171  11.569
50681W        W23106   4.409  28.149   3.490
50682W        W23107  22.431  33.532   4.045
50683W        W23108   7.256   4.978  13.129
50684W        W23109  16.696  37.843   4.647
50685W        W23110  10.728  24.038   0.387
50686W        W23111  28.308  41.009   4.820
50687W        W23112  37.305  32.113  11.667
50688W        W23113  39.588   3.975   3.615
50689W        W23114   4.134   6.473   4.585
50690W        W23115  14.663   5.217   0.801
50691W        W23116  24.313  24.622  12.947
50692W        W23117   3.714  14.073   4.728
50693W        W23118  36.411   7.179  10.712
50694W        W23119  20.304  41.867  11.552
50695W        W23120   4.121   5.504  13.019
50696W        W23121   0.816  43.499   1.164
50697W        W23122   7.788  43.999  12.506
50698W        W23123  34.556   5.438  10.853
50699W        W23124  14.246   1.461   1.191
50700W        W23125  42.776   2.849  12.975
50701W        W23126  34.655  21.317   2.152
50702W        W23127  13.149  27.449   3.077
50703W        W23128   8.651  17.845   0.395
50704W        W23129  28.589   5.800   3.387
50705W        W23130   3.100  16.298  12.047
50706W        W23131  39.967  28.168  14.869
50707W        W23132  22.781  22.018   2.389
50708W        W23133  44.339   3.813  12.352
50709W        W23134  41.769  19.678  10.212
50710W        W23135  43.557  30.446   0.199
50711W        W23136  43.288  17.713  10.232
50712W        W23137  34.641  40.987   2.641
50713W        W23138  13.824  14.262  13.793
50714W        W23139  38.331  17.508  10.761
50715W        W23140   0.377  29.661   1.233
50716W        W23141  44.893  27.067   1.257
50717W        W23142  37.411  26.905   0.358
50718W        W23143  33.155  35.445   3.955
50719W        W23144  37.925   6.290  14.417
50720W        W23145  11.407  25.636  10.783
50721W        W23146   2.362  10.996   2.769
50722W        W23147  40.326  17.007  11.957
50723W        W23148  33.360  29.192  12.193
50724W        W23149   0.281  32.994  12.502
50725W        W23150  42.923   1.427  12.721
50726W        W23151  10.898  35.431  12.665
50727W        W23152  31.501  23.932   3.081
50728W        W23153  35.307  33.289  10.257
50729W        W23154  18.159  19.499   2.899
50730W        W23155   0.957  42.388  10.769
50731W        W23156  40.484   6.894   4.723
50732W        W23157  15.649  30.944   4.655
50733W        W23158  15.434  21.150  12.547
50734W        W23159  33.888  42.089  14.718
50735W        W23160   4.796   3.918  14.787
50736W        W23161   0.793  34.186   3.727
50737W        W23162   2.796  31.062   3.745
50738W        W23163  42.391  31.492   0.014
50739W        W23164   2.340  30.198  13.086
50740W        W23165  39.546  42.620  14.292
50741W        W23166  39.943   8.030   2.396
50742W        W23167  28.692   2.556   2.867
50743W        W23168  14.831  27.066   1.768
50744W        W23169  14.294  17.660   2.656
50745W        W23170  29.345  37.708   0.276
50746W        W23171  30.054  27.376  13.014
50747W        W23172  24.494   1.347  11.060
50748W        W23173  22.160  28.809   2.945
50749W        W23174   2.775  24.679   4.167
50750W        W23175  28.032  33.146  14.824
50751W        W23176   7.118   3.862   1.659
50752W        W23177  17.146  10.558  14.022
50753W        W23178  35.516  12.625  10.707
50754W        W23179  35.866  19.011  13.972
50755W        W23180   3.225  40.412  11.123
50756W        W23181  27.182  18.137   0.992
50757W        W23182  18.976   8.694  13.131
50758W        W23183   9.404  42.830   0.803
50759W        W23184   6.868  10.593   0.030
50760W        W23185  22.165  23.622  10.529
50761W        W23186  39.037  16.588   3.584
50762W        W23187   5.985  29.963   2.340
50763W        W23188  26.908   6.297   0.816
50764W        W23189  16.513  38.535   0.698
50765W        W23190  28.965  43.014   0.800
50766W        W23191  26.794  42.368   0.932
50767W        W23192  43.261  11.669   2.239
50768W        W23193   0.950   0.883   4.205
50769W        W23194   6.124   0.358   1.543
50770W        W23195  10.655  25.592   0.719
50771W        W23196   7.403  33.084  14.996
50772W        W23197  10.370   0.043  11.094
50773W        W23198   6.811  24.238  11.920
50774W        W23199  28.717  23.417  13.330
50775W        W23200   1.934  20.093   1.201
50776W        W23201  23.599  31.961  13.432
50777W        W23202   6.239   8.881  12.889
50778W        W23203  38.059  25.122   4.086
50779W        W23204  21.588  44.381   4.568
50780W        W23205  36.633  19.208  13.335
50781W        W23206  21.897  11.781  11.093
50782W        W23207   2.579  23.206  12.513
50783W        W23208  40.239   8.242   1.689
50784W        W23209   4.385   8.015  11.446
50785W        W23210  20.478  33.481  10.039
50786W        W23211  32.658  12.644   0.492
50787W        W23212  38.575  12.064   3.583
50788W        W23213   3.733   1.703  10.148
50789W        W23214  20.783  32.601   1.302
50790W        W23215  19.662  44.582  13.148
50791W        W23216   3.163   8.098   4.930
50792W        W23217  22.339  20.543  12.452
50793W        W23218  44.805  21.774   0.826
50794W        W23219  18.661  35.916   9.906
50795W        W23220  23.508  20.622   1.752
50796W        W23221  15.476  31.178   1.358
50797W        W23222   0.921  13.474  10.698
50798W        W23223  23.691  32.160   2.886
50799W        W23224  20.442   5.805   2.902
50800W        W23225   7.391  22.679   4.580
50801W        W23226  28.078  20.270  11.574
50802W        W23227   4.919  17.572   1.914
50803W        W23228  30.926  26.794   2.315
50804W        W23229   3.042  16.203  12.801
50805W        W23230   1.966  21.472  12.144
50806W        W23231  11.702  27.605   2.626
50807W        W23232   0.450  44.743  10.529
50808W        W23233  26.075  25.157   2.219
50809W        W23234   6.641   7.802  14.516
50810W        W23235  36.492  23.661  12.539
50811W        W23236  31.354  38.935   1.241
50812W        W23237  17.278  35.577  10.911
50813W        W23238  40.814  18.314   0.338
50814W        W23239  38.142  35.107   4.781
50815W        W23240   2.340  26.319   3.339
50816W        W23241  40.952  33.823   3.612
50817W        W23242  22.910  11.789  13.215
50818W        W23243  14.099  35.619  14.283
50819W        W23244  23.138   7.826  13.376
50820W        W23245   7.962   2.868   0.260
50821W        W23246  14.385  14.799  10.644
50822W        W23247  41.453  14.734   4.510
50823W        W23248  27.489  32.506  14.843
50824W        W23249  41.915  18.276   4.581
50825W        W23250  13.584  32.038  10.814
50826W        W23251   7.244  17.672   2.076
50827W        W23252  19.483  19.198  14.131
50828W        W23253  17.766  22.550   4.208
50829W        W23254  15.309  23.105   3.742
50830W        W23255  19.790  29.104  13.450
50831W        W23256  38.107  25.198   0.854
50832W        W23257   7.619   4.612   4.471
50833W        W23258   2.265   2.384  11.888
50834W        W23259  16.598  36.484  14.570
50835W        W23260  20.080  16.464  12.492
50836W        W23261  44.791   6.682   3.422
50837W        W23262  34.524  40.993  12.074
50838W        W23263   1.859  37.098   1.271
50839W        W23264  30.910   4.464  12.078
50840W        W23265  20.627  19.759   2.846
50841W        W23266  10.711   0.292  12.950
50842W        W23267  44.429   4.826   1.195
50843W        W23268  27.093  26.753  13.094
50844W        W23269  13.149  32.867  12.158
50845W        W23270  23.778   9.968   1.770
50846W        W23271  15.104   2.463   3.312
50847W        W23272  27.964  30.957  14.919
50848W        W23273  10.749  33.541   0.381
50849W        W23274  38.447  22.190  13.811
50850W        W23275   2.934  24.141  14.042
50851W        W23276  26.039   9.361  11.542
50852W        W23277  17.071  16.547  12.512
50853W        W23278  26.928  20.805  11.335
50854W        W23279   8.362   7.276   0.687
50855W        W23280  28.216   8.204   0.881
50856W        W23281  40.583   3.301   0.756
50857W        W23282  10.676  26.060  10.697
50858W        W23283  44.528  25.453  12.931
50859W        W23284  36.619  21.674  12.354
50860W        W23285  21.182  33.419   0.759
50861W        W23286  40.110  36.552   2.343
50862W        W23287  42.601  23.744  12.602
50863W        W23288  21.800  14.575   2.525
50864W        W23289  44.731   9.774   1.298
50865W        W23290  28.746  11.190  12.558
50866W        W23291  41.416  34.138  14.080
50867W        W23292  19.881   1.966   4.931
50868W        W23293  31.202   8.604   2.659
50869W        W23294  21.276  29.867  14.796
50870W        W23295  19.733  37.832  11.857
50871W        W23296   2.452   0.899   0.310
50872W        W23297   6.391   5.859   4.077
50873W        W23298  20.397   9.208   0.857
50874W        W23299   2.510  10.402   4.085
50875W        W23300  27.811  29.427  10.613
50876W        W23301  27.144   1.214  12.452
50877W        W23302  25.932   3.199  14.341
50878W        W23303  33.441   0.046  13.449
50879W        W23304  38.024   7.155   2.229
50880W        W23305  25.480  37.977   3.780
50881W        W23306  36.769  14.507   0.358
50882W        W23307  12.830  25.360  11.756
50883W        W23308  11.726   7.989  14.339
50884W        W23309  21.650  33.851  14.075
50885W        W23310   3.100  19.532   3.244
50886W        W23311  34.997   6.183   1.334
50887W        W23312  34.271   8.930  13.335
50888W        W23313  11.226  24.501  12.968
50889W        W23314  33.432  31.019  14.056
50890W        W23315  24.691  15.509   1.506
50891W        W23316  10.792  35.611   0.844
50892W        W23317  23.323   1.927   1.643
50893W        W23318  30.907   0.021   1.771
50894W        W23319  27.862  12.563  11.176
50895W        W23320  28.200  10.402   1.493
50896W        W23321  24.097  12.705  14.749
50897W        W23322  29.531  24.443   3.147
50898W        W23323  39.449  25.360  12.900
50899W        W23324  20.737   2.040   1.877
50900W        W23325  36.003  35.385  12.104
50901W        W23326  26.419  34.392   3.363
50902W        W23327  19.295  41.972  12.383
50903W        W23328  31.417   0.363  14.528
50904W        W23329  43.937  24.467  13.503
50905W        W23330   9.407   3.756  11.027
50906W        W23331  14.105  30.891   4.506
50907W        W23332   8.454  13.180  14.674
50908W        W23333  21.775  37.380  12.365
50909W        W23334  21.704  15.317   1.937
50910W        W23335  21.672   5.106  14.307
50911W        W23336   8.415  29.071   4.142
50912W        W23337  21.495  30.024   4.226
50913W        W23338  18.742  21.984   2.412
50914W        W23339  32.191  24.106  11.128
50915W        W23340  20.210  14.600  12.021
50916W        W23341  31.314  26.176   4.888
50917W        W23342  11.361   9.338   0.441
50918W        W23343  18.186  11.614  13.976
50919W        W23344  27.199  30.992  14.467
50920W        W23345  38.920  36.958  12.830
50921W        W23346  31.198   3.873  11.532
50922W        W23347  34.477  20.068   2.868
50923W        W23348  37.267  23.331  11.749
50924W        W23349  36.531  32.372   0.337
50925W        W23350  38.593  16.910   3.249
50926W        W23351  36.515   5.813  12.431
50927W        W23352  25.526  36.151   3.647
50928W        W23353  19.335  44.901   4.148
50929W        W23354   7.395  18.257  13.440
50930W        W23355  29.114  31.483  11.935
50931W        W23356  37.570   3.916   2.087
50932W        W23357   1.013  38.598  12.543
50933W        W23358   4.231  43.411   2.799
50934W        W23359   2.241  42.920  12.982
50935W        W23360  29.089  38.015  13.235
50936W        W23361  27.464   3.010  14.498
50937W        W23362   5.735   6.487  12.957
50938W        W23363  38.202  11.306  11.494
50939W        W23364  32.094   7.106   4.080
50940W        W23365  12.857  16.684   2.912
50941W        W23366  41.383  11.890   1.730
50942W        W23367  22.572  35.824   4.284
50943W        W23368   3.443  10.336   0.959
50944W        W23369  28.489  15.487   0.855
50945W        W23370  24.068  38.961  11.038
50946W        W23371  34.330  34.942  14.869
50947W        W23372  24.791  28.003  14.325
50948W        W23373  21.758  41.762   0.245
50949W        W23374  37.320  37.264   4.142
50950W        W23375  40.637  41.038  14.347
50951W        W23376  42.373  43.094   3.203
50952W        W23377  25.036  30.664  10.189
50953W        W23378  21.696  38.596   0.350
50954W        W23379   0.315  34.614   3.552
50955W        W23380  14.720  31.357   0.329
50956W        W23381  30.035  27.260   3.240
50957W        W23382  23.054  12.101  11.073
50958W        W23383  16.756  44.711   2.279
50959W        W23384  44.888  22.973  11.066
50960W        W23385  16.072   7.176   4.553
50961W        W23386  24.726  40.919  13.452
50962W        W23387   2.889  20.643  14.820
50963W        W23388  30.851  41.377  11.106
50964W        W23389  44.715  34.308   3.109
50965W        W23390  31.787   7.794  13.398
50966W        W23391  33.477  14.262   3.240
50967W        W23392  17.626  26.698   3.769
50968W        W23393  14.113  22.007  13.953
50969W        W23394  40.684  35.070   4.118
50970W        W23395  38.000   6.948  14.326
50971W        W23396  38.094  34.530   1.822
50972W        W23397  40.809  17.201  11.973
50973W        W23398  17.642  33.632   2.119
50974W        W23399  12.153   6.682   3.244
50975W        W23400   1.737  29.692  13.775
50976W        W23401  40.686  14.581  12.692
50977W        W23402  35.015  15.825  13.778
50978W        W23403  23.608  24.668   1.082
50979W        W23404  15.186  18.088   3.631
50980W        W23405  19.079  12.680  11.019
50981W        W23406  30.489   1.541  14.378
50982W        W23407   3.124  41.263  14.640
50983W        W23408  18.498  39.305   3.756
50984W        W23409  34.214   4.466   3.472
50985W        W23410  18.145   6.647  13.552
50986W        W23411   5.467  21.511  11.845
50987W        W23412  19.570  41.820  13.263
50988W        W23413  25.234  22.064  13.823
50989W        W23414  35.060  19.230   3.479
50990W        W23415  21.986   4.883  11.181
50991W        W23416  43.070  14.672  14.809
50992W        W23417   5.761  16.802   4.105
50993W        W23418  27.857  44.374   2.999
50994W        W23419  27.887  17.800  11.043
50995W        W23420   9.181  43.088  13.247
50996W        W23421  19.236   2.791  12.830
50997W        W23422  25.095  25.147  12.922
50998W        W23423  15.723  12.786   3.117
50999W        W23424   0.375   0.975   2.097
51000W        W23425   4.949  16.808   3.126
51001W        W23426  41.736  27.495  12.894
51002W        W23427  33.841  40.893   4.750
51003W        W23428  27.583   5.987   1.994
51004W        W23429   4.645  36.010  13.120
51005W        W23430  43.861  27.481  11.011
51006W        W23431  20.015  44.927  12.089
51007W        W23432   8.682  39.875  12.632
51008W        W23433   1.332   3.028   1.792
51009W        W23434  18.173  16.202   3.305
51010W        W23435  36.024  25.614   2.604
51011W        W23436   0.259  41.089  11.895
51012W        W23437  23.553   4.989  12.646
51013W        W23438  14.844  14.292   2.074
51014W        W23439  21.563  34.477  14.989
51015W        W23440  13.055  40.035  12.521
51016W        W23441  21.607  43.430   0.500
51017W        W23442  36.508  16.589  10.728
51018W        W23443  23.036  31.668   3.367
51019W        W23444  23.242  25.529  13.981
51020W        W23445  17.344  17.841  14.805
51021W        W23446   7.730   5.413  14.211
51022W        W23447  21.027  43.285  11.569
51023W        W23448  26.594  26.450   2.087
51024W        W23449  22.712   6.821   2.756
51025W        W23450  33.270  36.410  11.020
51026W        W23451  28.690  24.041   4.613
51027W        W23452  44.436  14.036   2.214
51028W        W23453  43.215  40.061  11.006
51029W        W23454  32.456  39.325  12.916
51030W        W23455  22.979  25.729   3.197
51031W        W23456  18.860  37.637   0.278
51032W        W23457  14.097   6.609  12.683
51033W        W23458  42.423  41.180   4.534
51034W        W23459  11.756  12.898   0.707
51035W        W23460  31.915  26.056  10.491
51036W        W23461  40.418  24.823  12.526
51037W        W23462  25.629   0.081   1.939
51038W        W23463  29.113  23.550  11.095
51039W        W23464  27.778  39.784  12.564
51040W        W23465   5.229  29.408  10.573
51041W        W23466  20.514  24.108   1.929
51042W        W23467   3.358  44.771  11.640
51043W        W23468   1.523  35.950   2.725
51044W        W23469   7.759  18.654  14.123
51045W        W23470  41.918   0.200  10.293
51046W        W23471   3.388   5.218  11.536
51047W        W23472  34.989  11.097   0.865
51048W        W23473  34.909  38.479   0.343
51049W        W23474  11.288   5.415   2.852
51050W        W23475  19.663   1.820   4.255
51051W        W23476  42.413  31.390  13.983
51052W        W23477  31.500   8.588   2.207
51053W        W23478   2.998  21.075  14.382
51054W        W23479  16.291  25.324   0.291
51055W        W23480   9.206  18.628   1.315
51056W        W23481   9.315  42.206   0.978
51057W        W23482  31.639  41.859  14.735
51058W        W23483  31.612  11.710  14.511
51059W        W23484  12.864  27.184  10.599
51060W        W23485  14.741  23.993   2.998
51061W        W23486   1.033  13.840   0.310
51062W        W23487  20.033  12.376  10.536
51063W        W23488  20.354  18.647   1.204
51064W        W23489  42.117  27.487   1.556
51065W        W23490  35.449   5.253   4.539
51066W        W23491   7.074  44.768   2.165
51067W        W23492  25.900  41.980   2.793
51068W        W23493   8.682   1.717  14.406
51069W        W23494  41.483   4.185   4.578
51070W        W23495  30.559  11.262  11.415
51071W        W23496  22.145  21.046  13.871
51072W        W23497  23.801  36.621  11.095
51073W        W23498   2.530  12.768  14.241
51074W        W23499  20.725  15.299  11.600
51075W        W23500  35.095  39.835   2.640
51076W        W23501  21.310  16.044  14.581
51077W        W23502   1.458  23.580  10.548
51078W        W23503  13.829  36.445   2.261
51079W        W23504   0.359  26.690   3.192
51080W        W23505  40.877  30.358   0.416
51081W        W23506   6.856  40.787   4.776
51082W        W23507  32.091  21.678   2.717
51083W        W23508  21.357  31.957  12.411
51084W        W23509  38.430  10.884  14.833
51085W        W23510  36.237  39.241   2.376
51086W        W23511  19.813  16.653  11.578
51087W        W23512  33.442  23.441  12.345
51088W        W23513  31.551  10.011   3.369
51089W        W23514  12.619  29.041  14.347
51090W        W23515  30.047   0.245   0.768
51091W        W23516  25.564  13.666  10.674
51092W        W23517  43.706  10.860  11.488
51093W        W23518  37.300  13.799   0.853
51094W        W23519  18.730  44.484  12.718
51095W        W23520   3.617  35.859   0.981
51096W        W23521  15.793  33.455  12.405
51097W        W23522   1.481   5.340   1.761
51098W        W23523   0.705  12.503   5.290
51099W        W23524   6.745  42.924  14.866
51100W        W23525   0.459  24.356  11.104
51101W        W23526   8.240  27.490  14.254
51102W        W23527  40.605   2.851   2.825
51103W        W23528  14.057  31.993  11.624
51104W        W23529  14.730   2.445  10.042
51105W        W23530  35.412  43.272  11.234
51106W        W23531  26.465  30.771   1.710
51107W        W23532  11.926  10.437   1.046
51108W        W23533  37.889  11.384   3.415
51109W        W23534   2.438   9.382   1.520
51110W        W23535   5.213   5.294   1.736
51111W        W23536  38.084  20.777   1.676
51112W        W23537  19.082  24.807   3.921
51113W        W23538  14.300   8.010  14.263
51114W        W23539   5.188  32.121   2.436
51115W        W23540  39.187  15.780   0.645
51116W        W23541  23.474  12.633   1.399
51117W        W23542  13.197  10.813   4.573
51118W        W23543  41.289  19.513   4.177
51119W        W23544   0.985  37.076  13.906
51120W        W23545  20.594  16.092   4.203
51121W        W23546   5.935   4.845   2.912
51122W        W23547  34.002   8.059   9.878
51123W        W23548   7.851   9.643   3.134
51124W        W23549  11.289  36.791  13.168
51125W        W23550  32.244  44.525   0.721
51126W        W23551  43.488  14.663  11.354
51127W        W23552  27.640  37.683  11.483
51128W        W23553  30.869  25.084  12.490
51129W        W23554   5.608   5.248  12.982
51130W        W23555  10.876   0.869   4.037
51131W        W23556  11.790   2.291   5.404
51132W        W23557  30.141   9.672   1.762
51133W        W23558  11.784  16.581  12.980
51134W        W23559  11.098   3.368   0.308
51135W        W23560  17.156  12.679  12.146
51136W        W23561  22.103   3.307   2.487
51137W        W23562  28.940   5.422   3.168
51138W        W23563  20.537  35.374  13.372
51139W        W23564  26.201  21.744   1.856
51140W        W23565  43.823  38.457  14.807
51141W        W23566   8.143  10.308  12.946
51142W        W23567   6.967   7.922  13.046
51143W        W23568  21.867  23.952  13.020
51144W        W23569  10.694   4.761   2.857
51145W        W23570   6.803  20.709   4.955
51146W        W23571   4.461  28.020   1.503
51147W        W23572   3.959   8.372   3.666
51148W        W23573   7.915  21.078  12.551
51149W        W23574  38.466  35.654  11.497
51150W        W23575  24.901   7.286  12.965
51151W        W23576  43.184  11.881   3.775
51152W        W23577   0.691  36.555  13.021
51153W        W23578   0.426   5.153   0.835
51154W        W23579  23.068  41.965   0.703
51155W        W23580  19.594  27.990   4.997
51156W        W23581   1.162  11.778  13.932
51157W        W23582  29.703  26.825  11.171
51158W        W23583  27.117  37.661   4.113
51159W        W23584   7.366  24.294   1.834
51160W        W23585  27.870  33.977  12.935
51161W        W23586   1.346  23.651   4.378
51162W        W23587  15.235  42.529   4.618
51163W        W23588  33.887  10.919   3.182
51164W        W23589  18.335  11.665  12.997
51165W        W23590  10.560   9.399  11.510
51166W        W23591  29.155  38.766  13.959
51167W        W23592   3.425  12.702  10.450
51168W        W23593   4.896  28.966   4.222
51169W        W23594  10.364  28.494  14.451
51170W        W23595  32.628   3.503   2.755
51171W        W23596  39.799   7.657  13.383
51172W        W23597  33.620   1.412  13.410
51173W        W23598  17.221   1.974   0.941
51174W        W23599  10.912  39.271  11.995
51175W        W23600  21.122   1.253  12.302
51176W        W23601  21.092  29.000  11.944
51177W        W23602  23.875  38.480   0.126
51178W        W23603  32.907  32.981  10.800
51179W        W23604  36.502  41.935   3.876
51180W        W23605  40.339   2.220  10.722
51181W        W23606  39.395   4.266   1.899
51182W        W23607  22.582  29.978   0.030
51183W        W23608   9.270  16.571  10.673
51184W        W23609   9.387   1.346  11.207
51185W        W23610  42.201  21.090   4.301
51186W        W23611  25.951  25.598  14.902
51187W        W23612  13.773  25.749  12.847
51188W        W23613  28.392   1.753   4.222
51189W        W23614  39.248  11.279   4.084
51190W        W23615   6.336   8.073   4.656
51191W        W23616  15.242  21.591   0.934
51192W        W23617  19.772  43.712  11.595
51193W        W23618   3.348   3.607  11.626
51194W        W23619  28.046   4.166   0.216
51195W        W23620  33.351  26.034   2.745
51196W        W23621  21.891  23.161  11.203
51197W        W23622  14.861  11.665  10.666
51198W        W23623  15.895  14.193  12.145
51199W        W23624  12.954  34.405  13.809
51200W        W23625   3.493  30.064  11.411
51201W        W23626  27.568  36.405   4.331
51202W        W23627  37.299  33.020  11.658
51203W        W23628  41.389   3.238  13.003
51204W        W23629  27.527  19.731  14.861
51205W        W23630   0.061  12.509   3.175
51206W        W23631  13.705  21.561  14.472
51207W        W23632  32.646  27.747  13.396
51208W        W23633  42.837  31.061  14.029
51209W        W23634  11.030   2.405   3.665
51210W        W23635  32.539  13.198  12.148
51211W        W23636  28.355  37.436   3.848
51212W        W23637  17.073  13.472  14.777
51213W        W23638  23.662  24.494   4.007
51214W        W23639  29.439   6.583   0.680
51215W        W23640  22.298  16.127   3.361
51216W        W23641  12.704  23.975  10.599
51217W        W23642   9.298  27.001  11.989
51218W        W23643  37.047  21.213  13.872
51219W        W23644  14.337   9.285  10.778
51220W        W23645  20.491  10.142  14.918
51221W        W23646  12.935  30.944  14.258
51222W        W23647  26.908  10.941  12.438
51223W        W23648  25.171  18.254  12.985
51224W        W23649   3.995   7.798   4.938
51225W        W23650  33.460  38.959  12.452
51226W        W23651   8.941  31.412   1.268
51227W        W23652   7.419  30.625   2.475
51228W        W23653  24.666  25.128  12.044
51229W        W23654  35.433  37.616   2.148
51230W        W23655   8.439  30.969  11.755
51231W        W23656  18.225   0.804   2.270
51232W        W23657  17.735  44.647   4.607
51233W        W23658  26.054  25.700  12.061
51234W        W23659   9.185  31.037   2.457
51235W        W23660  24.562  34.134   0.236
51236W        W23661  33.627  43.912  11.143
51237W        W23662  10.767  38.370  12.188
51238W        W23663   8.844  18.130  12.794
51239W        W23664  26.507   2.731  12.914
51240W        W23665  43.295  16.245  10.951
51241W        W23666  43.860  42.263   0.966
51242W        W23667   1.028  42.236  11.255
51243W        W23668  24.307  26.709  11.663
51244W        W23669  18.334   6.118   3.664
51245W        W23670   9.840  41.354  10.855
51246W        W23671   7.946  13.014  12.549
51247W        W23672   5.363  28.381   0.917
51248W        W23673  17.494  33.334  12.050
51249W        W23674  22.259  21.636   0.005
51250W        W23675  29.218  40.587  12.556
51251W        W23676  21.838  30.405  13.065
51252W        W23677  27.027  26.416   3.146
51253W        W23678  26.598  39.780  10.270
51254W        W23679  35.354  28.251  13.405
51255W        W23680  31.113  25.328  12.885
51256W        W23681  36.279  27.412  14.596
51257W        W23682  13.804   1.662   4.918
51258W        W23683   5.916  33.094  12.994
51259W        W23684  38.660  18.249  13.835
51260W        W23685  11.275  29.860  13.412
51261W        W23686  11.848  19.189  10.219
51262W        W23687  39.944  17.757  12.847
51263W        W23688  44.941  24.452   2.799
51264W        W23689  13.650  15.183   0.715
51265W        W23690  40.423  12.841  14.926
51266W        W23691   4.405  39.446   1.362
51267W        W23692  34.581  42.566  14.469
51268W        W23693  40.841  28.689   3.493
51269W        W23694   6.620  37.572   2.349
51270W        W23695   2.022  11.327   3.149
51271W        W23696  35.416  41.614  14.439
51272W        W23697  39.291   2.938  10.520
51273W        W23698  15.145  13.906  14.141
51274W        W23699  29.776  13.934  14.705
51275W        W23700   5.468   4.489  11.993
51276W        W23701  21.538  27.108  14.859
51277W        W23702  27.441  36.156  12.566
51278W        W23703  35.432  26.098  10.662
51279W        W23704  24.403   0.464   2.390
51280W        W23705  37.033  10.422   4.482
51281W        W23706  31.598  38.411   2.463
51282W        W23707  30.434  37.365  11.084
51283W        W23708  19.034  42.505  11.610
51284W        W23709  31.631  25.501  12.780
51285W        W23710  39.824  33.917   0.360
51286W        W23711  35.822  17.208  12.465
51287W        W23712  29.775  14.564   5.021
51288W        W23713   5.162   9.709  12.121
51289W        W23714  28.874  28.024   2.806
51290W        W23715  35.350  31.609  13.089
51291W        W23716   5.853  35.547   4.654
51292W        W23717  42.115  34.979  11.940
51293W        W23718   0.036  44.020  10.572
51294W        W23719  37.280  34.023  10.834
51295W        W23720  40.232   5.266  14.686
51296W        W23721  23.602   6.940  12.916
51297W        W23722  33.398  37.524  10.322
51298W        W23723  26.568  23.151   4.488
51299W        W23724  27.695  39.513  10.935
51300W        W23725   9.272  42.390  10.603
51301W        W23726   5.898  35.525   1.348
51302W        W23727  39.135  17.322   2.303
51303W        W23728  34.307  14.003   3.233
51304W        W23729   0.858  11.439   0.985
51305W        W23730  21.635  15.512   4.116
51306W        W23731  36.155   4.602   1.218
51307W        W23732  41.054  38.965   0.269
51308W        W23733  24.987  25.473   4.655
51309W        W23734  35.428   2.413  13.505
51310W        W23735  24.313  31.959   2.255
51311W        W23736  41.975   5.426  13.806
51312W        W23737  41.616  15.707  11.050
51313W        W23738  37.347  17.194   3.660
51314W        W23739  19.624   7.769  12.419
51315W        W23740  15.299  40.634  11.243
51316W        W23741  13.655  40.268  14.852
51317W        W23742  42.695  22.135   4.377
51318W        W23743  37.649  26.416   3.480
51319W        W23744  41.996   4.089   2.933
51320W        W23745  26.721  38.419  14.282
51321W        W23746  40.895  24.280   4.243
51322W        W23747  25.723  16.300   1.686
51323W        W23748   9.703  11.704   2.828
51324W        W23749  37.018   9.516  13.167
51325W        W23750   9.033   3.218  10.189
51326W        W23751  11.549  41.335   4.668
51327W        W23752   0.231  44.933  14.731
51328W        W23753  16.549  22.208  11.099
51329W        W23754  16.184  10.299   1.330
51330W        W23755  44.337  34.299   2.292
51331W        W23756  10.563  24.391   3.170
51332W        W23757  39.872  19.185   3.643
51333W        W23758   5.239  34.971  12.032
51334W        W23759  28.640  10.057  11.895
51335W        W23760  26.192  37.412   0.807
51336W        W23761  16.183  39.936  14.294
51337W        W23762  12.119   2.435   2.331
51338W        W23763   3.857  17.247  12.669
51339W        W23764  18.645  27.950   0.332
51340W        W23765  16.645  41.299   0.433
51341W        W23766  32.660  32.614   4.715
51342W        W23767  39.613  21.999  14.295
51343W        W23768  37.033  19.597   0.679
51344W        W23769  28.402  29.171   1.942
51345W        W23770  16.763  25.142   1.295
51346W        W23771  24.095   6.209  14.358
51347W        W23772  23.911  35.383   0.775
51348W        W23773  22.923  14.225   1.687
51349W        W23774   6.495   5.795   0.482
51350W        W23775   7.699  12.421   2.317
51351W        W23776  35.800  34.313   2.646
51352W        W23777  25.791  11.289  11.864
51353W        W23778   0.853  30.944   4.287
51354W        W23779  43.331  25.583   0.894
51355W        W23780  28.369  14.564  13.427
51356W        W23781  41.940  26.180   1.776
51357W        W23782  30.236  33.452   4.074
51358W        W23783  42.383  12.240  11.507
51359W        W23784  21.815  12.560   0.013
51360W        W23785  31.521  40.240  11.809
51361W        W23786  10.913  39.770  11.940
51362W        W23787  35.120   7.085   0.519
51363W        W23788  13.140  39.258   0.199
51364W        W23789  26.284  11.214   0.732
51365W        W23790  33.369  33.987   1.439
51366W        W23791  30.975  22.289  14.412
51367W        W23792  23.420  38.454  10.346
51368W        W23793  35.334  12.563  12.981
51369W        W23794  43.021  25.887   3.665
51370W        W23795   9.228  44.490   1.401
51371W        W23796  18.598  33.049   2.133
51372W        W23797  42.373  19.232   3.520
51373W        W23798  16.123  42.733  11.522
51374W        W23799  17.505  13.105   1.400
51375W        W23800  16.715   1.690  11.491
51376W        W23801  29.133  20.665  13.380
51377W        W23802  38.296  25.965  13.399
51378W        W23803  11.395  14.827   1.900
51379W        W23804   2.536  16.710  12.465
51380W        W23805  32.080   8.927  14.891
51381W        W23806  32.883  42.346  12.192
51382W        W23807  40.454   3.633   2.282
51383W        W23808  13.621  41.410  11.070
51384W        W23809  43.272  19.464   0.449
51385W        W23810  43.815  37.755  14.214
51386W        W23811  44.852  44.493   2.346
51387W        W23812  44.878  23.421   2.686
51388W        W23813  18.755   0.768   3.432
51389W        W23814  35.642   2.809   4.858
51390W        W23815  38.238  39.466   1.370
51391W        W23816  44.118  17.046  13.703
51392W        W23817  35.871  32.446  12.116
51393W        W23818   8.138  28.296  10.832
51394W        W23819  17.108   0.996  13.357
51395W        W23820  43.420  42.565  12.979
51396W        W23821  12.082  18.374  10.653
51397W        W23822  27.264  11.744   1.255
51398W        W23823  20.196  24.435  11.945
51399W        W23824   3.797  41.840  14.253
51400W        W23825  38.901  34.751  13.539
51401W        W23826  12.073  43.256   2.187
51402W        W23827  30.198  11.440  12.242
51403W        W23828  18.645  18.586  14.231
51404W        W23829  26.150  32.656  11.354
51405W        W23830  17.953   1.244   0.233
51406W        W23831   3.347  38.789   4.126
51407W        W23832  11.827  17.532   0.985
51408W        W23833   5.131   7.445   2.279
51409W        W23834   8.144  29.114  14.263
51410W        W23835  10.857   0.009  12.552
51411W        W23836  28.116  12.332   3.253
51412W        W23837  40.048  41.443   0.881
51413W        W23838   2.391  38.256   0.278
51414W        W23839  17.269  23.120   3.624
51415W        W23840  40.895  13.333   2.466
51416W        W23841  35.120  44.789   0.057
51417W        W23842  44.590  28.044   1.402
51418W        W23843  30.508  40.310   4.179
51419W        W23844  19.797   2.886  11.154
51420W        W23845  38.830  32.175  12.548
51421W        W23846   5.973  40.391  10.972
51422W        W23847  29.640   9.167  13.933
51423W        W23848  42.035  43.312   1.831
51424W        W23849  10.377   3.860   3.371
51425W        W23850  24.656   7.206   2.222
51426W        W23851   0.472  25.797  11.978
51427W        W23852  28.454  33.386  11.463
51428W        W23853   6.769  42.068   2.961
51429W        W23854  39.226  27.915  14.314
51430W        W23855   1.385  10.716   0.435
51431W        W23856  29.849  13.649   3.731
51432W        W23857  39.752  34.872   2.294
51433W        W23858  32.932  17.527   4.301
51434W        W23859  33.706  20.741  11.604
51435W        W23860  42.210   3.177  11.246
51436W        W23861  34.946   3.990   0.873
51437W        W23862  30.023  11.749  12.583
51438W        W23863   5.494  14.877  14.847
51439W        W23864  19.088  37.354  10.737
51440W        W23865  41.338  10.019  10.756
51441W        W23866  18.092   8.365   0.692
51442W        W23867  31.440   9.206  12.477
51443W        W23868  15.990  13.775   2.151
51444W        W23869  14.870   3.123   5.491
51445W        W23870  13.564   3.382  13.345
51446W        W23871   5.322  11.069  11.912
51447W        W23872   3.644  24.576  14.084
51448W        W23873   5.784  41.843  13.426
51449W        W23874  35.047  21.308  10.932
51450W        W23875  21.267  27.572   1.928
51451W        W23876  13.459  18.102   0.215
51452W        W23877   1.494   9.402  14.820
51453W        W23878  33.984   0.306   0.840
51454W        W23879  28.952   9.018   1.867
51455W        W23880  18.348  30.675  14.973
51456W        W23881  17.025  39.440   3.580
51457W        W23882  16.730   1.429   2.737
51458W        W23883  28.188   9.893  12.893
51459W        W23884  17.781   0.370   2.907
51460W        W23885   9.433  19.613   3.280
51461W        W23886  27.951  36.932   1.432
51462W        W23887  37.491  16.069  14.926
51463W        W23888  19.439   3.708  12.597
51464W        W23889  41.035  38.063  13.904
51465W        W23890  41.399  27.457  11.520
51466W        W23891  17.494  41.807   0.225
51467W        W23892  43.357  38.871   0.526
51468W        W23893   7.675  23.368  11.039
51469W        W23894   3.334   0.647  14.309
51470W        W23895  28.711  19.819  11.711
51471W        W23896  44.887  20.494  12.941
51472W        W23897  23.167   8.930  14.394
51473W        W23898  19.247  37.332   3.519
51474W        W23899  18.795  14.481   4.428
51475W        W23900   2.244  22.102  11.228
51476W        W23901  40.702  28.691   0.749
51477W        W23902  12.657  43.520  12.329
51478W        W23903  12.758  35.929  10.612
51479W        W23904  35.145   9.759   1.017
51480W        W23905  18.508  22.601  14.260
51481W        W23906  27.377   2.764  11.238
51482W        W23907  21.323  38.435   2.677
51483W        W23908  38.981   2.746  11.985
51484W        W23909  32.191  18.534  13.400
51485W        W23910  28.806  12.804  13.446
51486W        W23911  28.205  17.025  13.442
51487W        W23912  23.825   4.451  13.517
51488W        W23913  11.968  28.400  11.595
51489W        W23914  15.356  42.799  13.422
51490W        W23915  22.005   9.374  10.581
51491W        W23916  14.811  23.656   0.715
51492W        W23917  14.602  14.076  14.928
51493W        W23918  22.299  24.559  10.879
51494W        W23919  38.467  12.697   2.165
51495W        W23920  43.218   2.759  12.578
51496W        W23921  34.798  10.596  14.060
51497W        W23922   2.965   8.981  11.890
51498W        W23923  16.781  19.051  14.926
51499W        W23924  20.111  41.220   2.857
51500W        W23925  37.061  14.627   4.663
51501W        W23926  28.261  22.630   3.258
51502W        W23927  42.042  31.327   0.743
51503W        W23928  40.570  37.109   4.299
51504W        W23929  32.754  28.476  12.750
51505W        W23930  20.268  11.609   4.358
51506W        W23931   0.277  37.323   3.709
51507W        W23932   3.903  18.843   3.722
51508W        W23933  19.222  13.587  14.744
51509W        W23934  11.068  18.756   3.725
51510W        W23935   9.417  21.694  14.662
51511W        W23936   5.493  21.100   3.595
51512W        W23937  28.282  39.121   2.067
51513W        W23938  18.935   6.974  14.647
51514W        W23939  30.607   5.610  13.758
51515W        W23940   7.654  11.861   2.347
51516W        W23941  25.658  11.385   4.627
51517W        W23942  22.920  36.576   2.886
51518W        W23943  36.833  37.944   4.615
51519W        W23944  16.786  24.635   1.442
51520W        W23945   2.230   0.817   2.275
51521W        W23946   4.877  34.952   2.396
51522W        W23947  40.369  38.554  10.925
51523W        W23948  28.624  23.005   3.187
51524W        W23949  18.592  23.729  13.575
51525W        W23950  25.863  32.969  10.327
51526W        W23951   5.751  19.882   0.359
51527W        W23952   8.874  34.875  12.067
51528W        W23953  29.973  37.800   4.643
51529W        W23954  19.129  11.466  11.604
51530W        W23955   1.736  20.809   4.098
51531W        W23956  40.075  16.707   1.498
51532W        W23957  43.790  27.336  12.974
51533W        W23958  32.863  16.140   2.240
51534W        W23959   9.389  15.218   2.818
51535W        W23960  37.526  23.918   0.709
51536W        W23961  41.341  36.999   2.048
51537W        W23962   8.543  36.400  12.930
51538W        W23963  24.475  33.144   0.511
51539W        W23964  41.615  35.826  12.983
51540W        W23965  30.221  25.003  10.679
51541W        W23966  20.359  22.241  11.152
51542W        W23967   6.794  30.685  11.911
51543W        W23968  14.391   1.183   1.717
51544W        W23969  14.373  22.327   0.278
51545W        W23970  35.984  29.567  13.797
51546W        W23971  10.311  21.225  14.068
51547W        W23972   3.282  37.824  14.459
51548W        W23973  17.271  33.721   0.365
51549W        W23974  21.630  13.857   1.464
51550W        W23975   2.424  12.175  14.832
51551W        W23976  21.042  16.742   4.176
51552W        W23977   6.944   7.892   2.874
51553W        W23978   4.766  41.190  11.657
51554W        W23979   0.750  37.372   2.361
51555W        W23980   0.964   7.895  14.554
51556W        W23981  17.829   7.264   3.195
51557W        W23982  24.544  36.035  10.681
51558W        W23983  19.856  27.403   0.380
51559W        W23984  26.658   0.532  10.614
51560W        W23985  30.485  30.052   1.630
51561W        W23986  32.810   9.185  14.871
51562W        W23987  10.671  41.160   4.735
51563W        W23988   7.412  29.638  14.279
51564W        W23989  30.741  34.140  12.626
51565W        W23990   8.354   1.237  12.213
51566W        W23991  20.762  35.361   2.831
51567W        W23992  34.685  17.156   4.531
51568W        W23993  34.981   8.065   0.258
51569W        W23994  41.877  29.961  10.355
51570W        W23995   1.791   8.452  11.201
51571W        W23996  11.620  30.163   0.883
51572W        W23997   4.344  15.012   3.538
51573W        W23998  38.675  26.018  12.058
51574W        W23999  19.673   6.240  11.688
51575W        W24000  15.197   8.526  13.074
51576W        W24001   6.615   1.474  13.489
51577W        W24002  27.017  13.796   0.398
51578W        W24003   6.607  17.384   4.194
51579W        W24004  10.315   6.603   0.867
51580W        W24005  20.158   7.834   4.110
51581W        W24006  11.213  29.172   0.851
51582W        W24007  28.088  27.530  10.564
51583W        W24008  15.730  23.985  10.560
51584W        W24009  34.478  44.370  13.969
51585W        W24010  11.005  29.465   0.491
51586W        W24011  18.061   2.836  12.962
51587W        W24012   9.255  30.893  14.615
51588W        W24013   5.859   8.898  10.673
51589W        W24014   4.907  29.940  14.023
51590W        W24015  11.391  34.635  14.568
51591W        W24016  44.687  34.154  12.534
51592W        W24017  20.175  38.571   3.837
51593W        W24018  41.615  15.577   4.916
51594W        W24019  31.923  41.330  12.445
51595W        W24020   7.105  11.492  12.083
51596W        W24021  44.267  21.753   0.873
51597W        W24022  40.898  23.769   2.013
51598W        W24023   4.513  36.105  13.601
51599W        W24024  26.202  12.107  10.394
51600W        W24025   0.884  17.419   3.835
51601W        W24026  42.269   2.264   3.689
51602W        W24027  34.973   7.921   1.749
51603W        W24028  32.114  27.433  14.403
51604W        W24029  11.178  44.629  13.346
51605W        W24030   0.350   1.050   1.598
51606W        W24031  13.754  38.647   3.915
51607W        W24032  27.701   7.340  11.612
51608W        W24033  27.666   3.219   2.400
51609W        W24034  21.620   0.396   4.166
51610W        W24035  16.786  18.521   0.029
51611W        W24036   6.862  12.404   3.925
51612W        W24037  12.814  24.251   4.684
51613W        W24038  13.252  19.053   1.875
51614W        W24039   4.283  35.536  13.019
51615W        W24040  22.183  28.469   3.919
51616W        W24041  33.834  25.797   5.024
51617W        W24042  15.077  22.119  14.834
51618W        W24043  38.769   7.148   0.024
51619W        W24044  43.514  43.499  10.605
51620W        W24045  43.796  21.734  13.906
51621W        W24046   5.965  44.979  10.584
51622W        W24047   6.474  44.864  10.500
51623W        W24048  26.184   6.108   4.905
51624W        W24049  26.039  26.259  12.939
51625W        W24050  36.572  42.292  14.233
51626W        W24051  34.987   8.190   3.141
51627W        W24052  43.648   3.605   1.904
51628W        W24053  20.984  29.087  12.785
51629W        W24054  17.283  23.860   4.219
51630W        W24055  16.206  23.455   0.868
51631W        W24056   1.699  11.962   0.384
51632W        W24057  22.538   1.799  13.908
51633W        W24058  11.085  39.395   1.417
51634W        W24059  15.746  36.587  14.328
51635W        W24060   5.315   3.953  12.440
51636W        W24061  43.136  38.103  11.711
51637W        W24062   3.705  36.864   3.663
51638W        W24063  28.093   2.968   5.011
51639W        W24064   4.251   2.236   0.990
51640W        W24065  28.549  12.068  14.565
51641W        W24066  41.892   8.605   2.208
51642W        W24067   9.678  41.708  12.992
51643W        W24068   0.242  32.389   1.403
51644W        W24069   1.342   8.112   3.168
51645W        W24070  36.923  20.210  13.988
51646W        W24071   2.490  32.880   2.843
51647W        W24072   2.011   4.288   1.887
51648W        W24073  32.518  29.400  11.121
51649W        W24074  41.649  22.985   2.625
51650W        W24075  18.959  30.397  10.902
51651W        W24076   7.419  21.021  10.749
51652W        W24077  23.567   8.129   2.268
51653W        W24078  42.441  36.540  12.441
51654W        W24079  27.527  24.443  13.384
51655W        W24080  29.024  36.901  11.119
51656W        W24081   3.794  20.516   4.818
51657W        W24082  20.328  31.895   3.646
51658W        W24083   1.508  42.058   0.491
51659W        W24084  22.237  29.476  11.966
51660W        W24085  41.696  27.620   3.306
51661W        W24086  13.384  14.630   1.558
51662W        W24087  25.121   2.197  14.967
51663W        W24088  33.808  14.660   1.420
51664W        W24089  40.452  35.823  13.886
51665W        W24090   8.719  11.265  11.501
51666W        W24091  43.421  18.989  12.014
51667W        W24092  44.305  42.323  14.225
51668W        W24093  41.320  13.673  14.761
51669W        W24094  28.653  38.408  10.498
51670W        W24095  24.197  37.357  10.774
51671W        W24096   1.636  24.078  10.702
51672W        W24097  36.814  28.026   1.893
51673W        W24098  34.542  18.607  11.143
51674W        W24099  40.116  41.211  14.897
51675W        W24100  30.458  28.473  11.876
51676W        W24101  16.246  22.973   3.120
51677W        W24102  31.147  17.322   0.979
51678W        W24103  21.492  31.875  11.446
51679W        W24104   4.468  17.695   0.397
51680W        W24105  21.865  13.755  11.981
51681W        W24106  31.067  20.208   2.796
51682W        W24107  40.387  10.388   3.243
51683W        W24108   7.961   7.954   0.727
51684W        W24109  16.173   5.355   4.662
51685W        W24110  26.211  37.602   1.341
51686W        W24111  28.592  18.534  14.050
51687W        W24112   1.079  21.844   3.384
51688W        W24113   3.751  20.068  10.734
51689W        W24114  38.811  31.383  12.918
51690W        W24115   6.306  37.569   3.147
51691W        W24116  13.157   7.887  11.629
51692W        W24117  18.789   7.497   4.218
51693W        W24118  42.086  21.652   4.956
51694W        W24119  40.013  19.985  14.737
51695W        W24120   2.720   5.341  13.371
51696W        W24121  14.897  33.888   0.333
51697W        W24122  19.538  26.203  14.851
51698W        W24123  15.157  23.031   4.658
51699W        W24124  12.132  16.791  11.635
51700W        W24125  30.532  19.127   2.247
51701W        W24126  43.567  35.439  13.435
51702W        W24127   4.334   1.387  14.228
51703W        W24128   8.317   8.745  11.151
51704W        W24129  32.604  26.586   4.908
51705W        W24130  34.640  38.387  12.635
51706W        W24131   1.487   0.720   4.254
51707W        W24132  39.931   9.611   1.425
51708W        W24133  39.967  25.106   3.655
51709W        W24134  15.157  36.952  14.894
51710W        W24135   3.192   4.471  12.528
51711W        W24136  22.519  12.685   4.375
51712W        W24137  38.567  31.133   2.977
51713W        W24138   8.247  10.586  10.834
51714W        W24139  18.691   5.754   2.901
51715W        W24140  18.992  43.955  11.397
51716W        W24141  41.315  27.562  10.672
51717W        W24142  10.745  28.608   2.514
51718W        W24143  19.625  11.880   1.210
51719W        W24144   9.669  40.090  14.912
51720W        W24145  34.602  35.687  11.954
51721W        W24146  24.950  30.373   1.842
51722W        W24147  37.741   4.031   3.273
51723W        W24148  43.440  11.517  14.167
51724W        W24149  11.491   8.016   3.811
51725W        W24150  15.584  16.132  13.924
51726W        W24151  20.162  29.572   0.185
51727W        W24152  39.606   6.397   3.770
51728W        W24153  29.543  25.854   2.362
51729W        W24154   5.154  21.822  13.917
51730W        W24155  18.315  31.964  14.203
51731W        W24156  41.544  34.637   0.325
51732W        W24157   9.396  26.070   1.145
51733W        W24158  31.007   5.748  12.951
51734W        W24159  36.906  16.239   2.305
51735W        W24160  19.891  12.818   3.687
51736W        W24161   6.943  35.128  11.967
51737W        W24162   5.724  38.276   1.843
51738W        W24163  28.575  41.814   1.693
51739W        W24164  24.050  17.347   0.813
51740W        W24165  20.760  12.334   0.319
51741W        W24166   5.252  23.051   1.774
51742W        W24167  31.102  19.155  14.737
51743W        W24168  20.115  33.358  13.579
51744W        W24169  20.986  15.218  14.349
51745W        W24170   6.195  16.198   3.078
51746W        W24171   9.399  26.989   2.878
51747W        W24172  34.881   0.251   0.274
51748W        W24173   4.656  15.789   1.719
51749W        W24174  13.694  40.677   1.851
51750W        W24175   6.760  35.146   1.201
51751W        W24176  38.269  18.282   2.757
51752W        W24177  27.960  43.722  13.644
51753W        W24178  27.010  26.606   4.516
51754W        W24179  10.756   0.825  12.954
51755W        W24180  31.176  16.071  14.440
51756W        W24181  18.622  43.105   0.852
51757W        W24182  23.108  16.506   1.292
51758W        W24183   6.332   5.947   1.392
51759W        W24184  26.728  33.569   0.314
51760W        W24185   4.742  19.597   3.730
51761W        W24186  14.621  27.227  14.999
51762W        W24187  15.361   6.094   2.281
51763W        W24188  23.604  26.168  10.465
51764W        W24189   3.100  12.720   0.064
51765W        W24190  35.484  22.593   4.308
51766W        W24191  41.848  22.522  10.697
51767W        W24192  10.361  35.520  14.901
51768W        W24193   4.914  32.879  11.191
51769W        W24194  23.389  17.150   3.189
51770W        W24195  10.288  13.260   2.317
51771W        W24196  26.685  19.806   2.493
51772W        W24197   5.783  40.313  12.583
51773W        W24198  27.612   5.359  11.960
51774W        W24199  19.006  26.503   2.311
51775W        W24200  20.602  42.226   1.263
51776W        W24201  34.051  23.566  10.344
51777W        W24202   9.898  39.304  11.073
51778W        W24203   5.838  14.879   2.863
51779W        W24204  28.636   9.828   2.606
51780W        W24205  15.137  33.474  12.935
51781W        W24206   5.467  25.516   1.384
51782W        W24207   1.298  25.677  11.407
51783W        W24208  39.886  39.915  14.487
51784W        W24209   8.174  39.847  12.802
51785W        W24210   5.937  42.017  14.463
51786W        W24211  22.197  41.087  10.576
51787W        W24212  29.932  42.266  14.716
51788W        W24213  16.163  36.441  10.769
51789W        W24214  28.637   4.305   2.567
51790W        W24215   6.079   3.190   3.649
51791W        W24216  14.159   4.809  12.539
51792W        W24217  40.853  34.867   4.564
51793W        W24218  26.244  21.032   1.312
51794W        W24219  31.857  20.505  13.986
51795W        W24220  18.253  12.694   3.191
51796W        W24221  40.771  38.431   4.456
51797W        W24222  11.824  10.476  10.572
51798W        W24223  41.579   5.724  14.023
51799W        W24224  36.450  23.406  10.597
51800W        W24225  10.298   8.306  14.001
51801W        W24226  41.280  41.948  11.115
51802W        W24227  41.447  40.423   3.116
51803W        W24228  35.582  37.300   0.816
51804W        W24229   8.700  20.858   0.401
51805W        W24230  33.908  44.084  13.316
51806W        W24231  38.565  41.720   1.314
51807W        W24232  15.000  31.937  14.881
51808W        W24233  28.835  34.533   3.997
51809W        W24234  43.362  19.586  10.814
51810W        W24235  38.610  19.239  10.967
51811W        W24236  35.114  18.252   1.842
51812W        W24237   4.477  18.091  12.546
51813W        W24238  43.317  41.542   1.259
51814W        W24239   9.455  27.500   2.827
51815W        W24240  35.764  35.124  12.958
51816W        W24241   9.664  39.105   0.847
51817W        W24242  22.631  29.543  13.241
51818W        W24243   9.980   8.546  11.513
51819W        W24244  23.026   6.517  11.932
51820W        W24245  14.519  20.303   2.741
51821W        W24246  17.951   1.793  14.043
51822W        W24247   5.851  18.370   0.276
51823W        W24248   0.469  38.223  14.692
51824W        W24249  23.659   9.931   5.481
51825W        W24250  29.779  13.126   3.598
51826W        W24251   9.475  27.753  13.431
51827W        W24252  24.940  33.385   2.221
51828W        W24253   6.135  28.523   4.339
51829W        W24254  36.390  33.807  10.312
51830W        W24255  37.697   5.424   4.573
51831W        W24256  35.422  18.673   1.750
51832W        W24257   7.923  17.851  11.963
51833W        W24258   3.214  11.893  12.076
51834W        W24259  22.875  18.186   1.774
51835W        W24260   4.573  15.274  13.569
51836W        W24261  36.681   7.614  10.759
51837W        W24262  32.141  38.349  14.360
51838W        W24263  32.518   8.075   0.424
51839W        W24264  13.889  40.941  13.997
51840W        W24265  38.058  12.265  12.860
51841W        W24266  37.397  37.809  13.452
51842W        W24267  40.500  43.174  10.660
51843W        W24268   2.990  14.349   3.279
51844W        W24269  36.586   3.873  13.527
51845W        W24270   3.342  37.111   2.052
51846W        W24271  36.015  36.887   1.489
51847W        W24272  21.036  44.917  14.933
51848W        W24273   8.620  34.914  14.237
51849W        W24274  15.214  32.151   3.176
51850W        W24275  28.263  16.014   4.542
51851W        W24276  16.167  43.473  13.471
51852W        W24277  38.373   4.191  13.444
51853W        W24278  19.929  14.303   0.248
51854W        W24279  20.463  44.328   1.453
51855W        W24280   0.972  40.502  11.455
51856W        W24281  41.454   3.413   0.451
51857W        W24282   7.309  26.762   2.816
51858W        W24283  10.646  31.536  14.507
51859W        W24284  22.458  29.537   2.339
51860W        W24285  22.021  37.345  14.473
51861W        W24286  12.195  13.288   4.442
51862W        W24287  18.545  20.291  12.496
51863W        W24288  17.064  14.139   0.936
51864W        W24289  27.002  18.886   2.890
51865W        W24290  32.101  36.509  11.635
51866W        W24291  41.896  35.259   1.505
51867W        W24292   9.170  36.810  11.157
51868W        W24293   6.934  18.077  11.063
51869W        W24294  12.577   5.513  14.274
51870W        W24295  36.167   8.916   9.685
51871W        W24296  22.499   3.480  13.162
51872W        W24297  10.623  27.576   0.444
51873W        W24298   6.656  21.662   1.486
51874W        W24299  43.429   6.484   3.669
51875W        W24300   1.276   0.421  10.997
51876W        W24301  33.533  35.778   4.138
51877W        W24302   1.380  21.980   0.657
51878W        W24303  32.123   0.411  11.882
51879W        W24304  22.212  22.314  11.895
51880W        W24305  44.727   5.925  13.026
51881W        W24306  21.373  28.481  10.677
51882W        W24307  16.638   3.495  14.354
51883W        W24308   1.294   3.989  11.567
51884W        W24309  15.826   3.537  12.949
51885W        W24310   2.400   6.735   2.732
51886W        W24311  13.850  29.184  12.511
51887W        W24312  18.250  32.853  12.426
51888W        W24313  21.597  24.716   4.445
51889W        W24314  23.201  35.964  14.438
51890W        W24315  18.038  21.952   0.731
51891W        W24316  43.554  44.793   4.557
51892W        W24317  38.594  44.289   0.294
51893W        W24318  32.552  33.971   1.025
51894W        W24319  28.369  43.586  14.454
51895W        W24320   8.178  26.872   1.185
51896W        W24321  12.404   7.411   2.621
51897W        W24322   5.474  28.047   1.311
51898W        W24323  19.241   8.309  12.866
51899W        W24324  41.589  33.688   4.254
51900W        W24325  37.568  22.116   0.232
51901W        W24326  14.636  19.281   1.235
51902W        W24327  26.142  43.462   4.596
51903W        W24328  24.182  42.354  13.382
51904W        W24329  23.263  12.204  10.609
51905W        W24330  31.062   8.454  11.977
51906W        W24331   7.339   1.014   3.285
51907W        W24332  33.792   8.391  13.108
51908W        W24333   6.831   4.599   1.186
51909W        W24334   0.206  24.156  14.555
51910W        W24335  29.891  41.448   1.928
51911W        W24336  22.424  24.238  13.841
51912W        W24337  44.943  28.088  11.629
51913W        W24338   6.654  18.273  13.719
51914W        W24339  14.784  11.238  14.354
51915W        W24340  26.530   1.689  13.910
51916W        W24341   1.904  26.543  13.788
51917W        W24342  25.448   9.827   0.758
51918W        W24343  14.445  29.458  14.323
51919W        W24344  18.557  27.627   1.041
51920W        W24345  31.834  15.993   5.066
51921W        W24346  19.491  35.015  12.854
51922W        W24347  37.817   9.699  14.998
51923W        W24348  30.994  27.947   3.877
51924W        W24349  34.130   4.969   3.556
51925W        W24350   5.812   2.383  13.072
51926W        W24351  15.959  26.036   0.681
51927W        W24352   8.685  25.609   4.135
51928W        W24353  26.177  31.438  13.924
51929W        W24354  43.086   0.712  12.000
51930W        W24355  18.376  11.476   4.231
51931W        W24356  42.002  20.620   4.242
51932W        W24357   9.690  33.038   2.895
51933W        W24358  17.122  31.588  10.481
51934W        W24359  13.674  13.907   2.163
51935W        W24360  10.869  21.226  11.542
51936W        W24361  42.118   1.235  11.449
51937W        W24362  40.541  33.614   0.924
51938W        W24363   0.473  34.334   9.786
51939W        W24364  24.529  13.726   2.278
51940W        W24365  25.570  29.987  12.993
51941W        W24366  15.630  41.830   3.174
51942W        W24367   7.215  24.146  14.844
51943W        W24368  17.261   9.378   4.100
51944W        W24369   6.362  19.215  14.525
51945W        W24370  38.949  40.548  12.582
51946W        W24371  20.106  23.083  11.581
51947W        W24372   3.898  42.902   1.372
51948W        W24373   2.665  31.996  12.979
51949W        W24374  22.124  20.357   2.221
51950W        W24375  18.324  11.740   2.356
51951W        W24376  43.303   3.413  13.335
51952W        W24377  38.577  11.712   1.757
51953W        W24378  17.193  38.558  14.548
51954W        W24379  25.145  17.215  12.820
51955W        W24380  17.604  23.713   0.800
51956W        W24381  16.735   1.514  10.595
51957W        W24382  44.717   1.723  13.132
51958W        W24383  32.098   3.977   4.713
51959W        W24384  22.122  15.653   3.403
51960W        W24385  34.896   9.579  12.383
51961W        W24386  21.669  25.282  13.457
51962W        W24387  44.593   9.176   4.984
51963W        W24388  17.635  41.717  11.266
51964W        W24389  18.499  14.547  12.406
51965W        W24390  10.415  11.237   2.368
51966W        W24391   9.655   4.774  11.566
51967W        W24392  25.357  21.115   0.279
51968W        W24393  10.719   6.602   4.172
51969W        W24394  42.030  28.150  14.882
51970W        W24395   0.817  33.403   0.747
51971W        W24396  28.815  10.324   2.486
51972W        W24397  26.911  22.771   4.685
51973W        W24398  43.552  17.128  10.931
51974W        W24399  23.455  42.329   1.869
51975W        W24400   4.196  26.419  14.431
51976W        W24401  35.444   7.371  10.961
51977W        W24402  27.605   3.842   4.451
51978W        W24403  25.078  16.707   2.098
51979W        W24404  19.736  43.489  11.123
51980W        W24405   2.337   4.411   4.908
51981W        W24406  25.724  43.832  14.059
51982W        W24407  19.727  13.819   1.850
51983W        W24408  15.237  37.144  12.696
51984W        W24409  10.382  14.541  14.936
51985W        W24410   6.192   1.180  13.471
51986W        W24411  12.573  16.652   1.935
51987W        W24412  26.283  14.717   3.262
51988W        W24413  40.751  27.021   1.856
51989W        W24414  29.983   2.449   2.261
51990W        W24415  20.505   2.927   4.170
51991W        W24416   1.846  23.925  12.487
51992W        W24417   7.710  20.147   2.827
51993W        W24418  37.463  26.663  14.707
51994W        W24419  29.518   5.455  13.247
51995W        W24420  23.724   8.013   2.804
51996W        W24421  37.493  36.950   3.340
51997W        W24422  41.310  21.306   4.718
51998W        W24423  31.931   0.000  12.555
51999W        W24424  15.318  19.669  13.451
52000W        W24425  10.588  39.927  14.540
52001W        W24426  34.199  29.732   4.039
52002W        W24427  20.717   2.743   0.716
52003W        W24428   3.333  19.786   0.694
52004W        W24429  24.476  30.565   3.558
52005W        W24430  18.540   2.780  12.034
52006W        W24431   7.947  24.905  13.460
52007W        W24432  10.882  39.966   4.159
52008W        W24433  26.464  25.551  14.972
52009W        W24434  21.900  17.139  12.948
52010W        W24435  14.252  33.600   1.737
52011W        W24436  40.609  13.753   2.259
52012W        W24437  26.964  39.265  11.319
52013W        W24438  41.491  43.819  12.392
52014W        W24439  17.659  33.851  12.021
52015W        W24440  28.214  18.059  10.546
52016W        W24441  42.888  12.304   2.309
52017W        W24442  13.460  18.315   1.396
52018W        W24443  20.619  43.506  12.047
52019W        W24444   6.337  41.806   1.223
52020W        W24445  24.755  28.560  14.295
52021W        W24446  37.483  30.684   2.956
52022W        W24447  36.551  31.622  11.669
52023W        W24448  33.354   4.759  11.686
52024W        W24449  27.172  17.371   2.847
52025W        W24450  25.170  17.718  13.018
52026W        W24451  17.743   0.292   3.817
52027W        W24452  24.337   4.337   4.973
52028W        W24453  42.772  34.386  14.089
52029W        W24454   6.649  13.603  11.575
52030W        W24455  25.264  14.511   3.068
52031W        W24456   0.729  42.651  11.134
52032W        W24457  33.453  24.488  13.711
52033W        W24458  27.033  28.644  12.675
52034W        W24459  44.215  27.502   4.028
52035W        W24460  26.086  26.926  10.380
52036W        W24461  14.812  24.638   4.306
52037W        W24462  21.302  20.615   3.646
52038W        W24463  18.723  21.380   3.219
52039W        W24464  19.211  11.327   2.397
52040W        W24465   3.155  40.693  12.036
52041W        W24466  31.757  44.643   0.854
52042W        W24467  39.631  13.160  11.531
52043W        W24468  22.402  21.721  13.825
52044W        W24469  44.735  43.397  12.095
52045W        W24470  11.312  38.067  13.879
52046W        W24471  30.936  34.179   1.895
52047W        W24472  15.860  41.024   2.271
52048W        W24473  24.839  24.309   2.730
52049W        W24474  31.931  35.979   4.591
52050W        W24475  35.372  32.106   2.160
52051W        W24476  22.669   9.641  13.985
52052W        W24477   0.338  23.249  11.955
52053W        W24478  22.795  20.130   0.026
52054W        W24479  13.483   9.247  11.988
52055W        W24480   0.712  16.295   3.125
52056W        W24481   6.295  21.006  11.183
52057W        W24482  33.579  14.517  11.618
52058W        W24483  23.183  22.087   0.978
52059W        W24484  43.305  36.351  12.003
52060W        W24485  25.907  30.415  12.302
52061W        W24486  28.253   7.841   1.293
52062W        W24487  24.371  19.705  11.615
52063W        W24488  14.375  27.654   2.850
52064W        W24489  38.990  30.912   0.253
52065W        W24490  28.930  12.558   0.694
52066W        W24491  13.277  11.998   1.212
52067W        W24492  25.408  32.348  13.097
52068W        W24493  18.995  21.121   0.484
52069W        W24494  37.079  37.142  13.272
52070W        W24495  11.475  36.003  11.036
52071W        W24496  26.698  32.358  13.885
52072W        W24497  30.626  33.103  13.421
52073W        W24498   0.972  28.720   0.816
52074W        W24499  35.447  10.240  13.609
52075W        W24500  13.130  34.949   2.322
52076W        W24501  33.584  41.584   2.142
52077W        W24502   3.923  16.781   3.632
52078W        W24503  32.551  16.429  11.590
52079W        W24504  25.428   5.678   0.733
52080W        W24505  39.453  32.969  14.562
52081W        W24506  40.842  10.145   3.336
52082W        W24507  25.321  15.114   0.745
52083W        W24508  38.045   6.123   1.344
52084W        W24509   3.813  18.561   3.298
52085W        W24510  43.348   6.671  11.163
52086W        W24511   9.937   0.360  11.574
52087W        W24512  10.783  24.440  13.226
52088W        W24513  28.492  12.232  13.039
52089W        W24514  25.997   8.643   0.805
52090W        W24515  31.596  17.719   4.739
52091W        W24516   4.395  19.386   4.057
52092W        W24517  16.847  35.845   4.280
52093W        W24518  33.041   7.834   2.724
52094W        W24519  25.129   8.434   3.363
52095W        W24520  42.006   1.357  14.924
52096W        W24521   3.451   5.872   1.343
52097W        W24522   8.473   8.217   0.804
52098W        W24523  15.245   3.564   1.881
52099W        W24524  13.174   3.747   3.773
52100W        W24525  27.434  12.427   2.321
52101W        W24526  36.655  14.017  11.037
52102W        W24527  35.325   7.489  11.436
52103W        W24528  11.728  31.485   4.584
52104W        W24529  26.931  28.900   4.995
52105W        W24530   6.873   3.032  11.621
52106W        W24531  12.138  37.052   1.258
52107W        W24532  24.697  13.638  10.684
52108W        W24533   5.254  17.055  11.532
52109W        W24534   2.008  26.973   1.157
52110W        W24535  33.042  16.984   2.784
52111W        W24536  16.583  23.750   3.740
52112W        W24537  34.537  40.934   3.602
52113W        W24538  15.450   0.422  14.948
52114W        W24539  26.456  16.534   3.319
52115W        W24540  33.658  18.707  11.192
52116W        W24541   9.247   0.852  11.378
52117W        W24542  39.759  16.210   4.207
52118W        W24543  22.001   3.479   2.976
52119W        W24544  22.806  30.240   1.916
52120W        W24545  40.501  23.924   2.361
52121W        W24546  13.213  35.703   2.155
52122W        W24547   2.317  28.557   3.871
52123W        W24548   4.170  44.331  11.383
52124W        W24549  29.180   4.473   0.366
52125W        W24550  15.397   4.437  11.681
52126W        W24551  28.671  35.555  14.059
52127W        W24552  21.185   8.908  14.752
52128W        W24553  18.771  32.175  11.211
52129W        W24554  12.798  12.169   1.385
52130W        W24555  17.039  11.629  13.038
52131W        W24556  24.067   0.989   0.409
52132W        W24557  35.557  43.899   1.411
52133W        W24558  17.543  38.153   0.423
52134W        W24559  42.413   7.344   1.766
52135W        W24560  37.918   8.659  11.051
52136W        W24561  11.451  25.685   2.550
52137W        W24562  22.067   3.261  11.947
52138W        W24563  11.105  14.779  10.787
52139W        W24564   1.697  10.424  13.790
52140W        W24565  20.897  32.553  13.830
52141W        W24566  37.342  17.566  12.010
52142W        W24567  32.103  39.321   2.697
52143W        W24568  28.081   3.972  13.571
52144W        W24569  19.167  35.861  10.634
52145W        W24570  22.565  32.922   0.885
52146W        W24571   8.382   6.289  14.415
52147W        W24572  18.030   5.323  14.471
52148W        W24573   3.982  10.750  12.919
52149W        W24574   6.770  28.556  12.819
52150W        W24575   6.514  27.188  14.686
52151W        W24576  11.564  12.218  13.006
52152W        W24577   3.435  28.158   3.716
52153W        W24578  20.362  23.607   3.277
52154W        W24579  33.174  35.783  13.859
52155W        W24580  29.190  21.250   5.219
52156W        W24581  18.848  12.698  13.901
52157W        W24582  14.052  39.604   1.136
52158W        W24583  35.037   4.498   0.845
52159W        W24584  36.083  14.654  14.693
52160W        W24585  25.203  38.572   2.726
52161W        W24586  30.902  22.076   4.945
52162W        W24587  20.932  22.369  10.647
52163W        W24588   5.771  38.162   4.181
52164W        W24589  11.775  23.555   2.994
52165W        W24590  42.525   4.148   4.504
52166W        W24591  38.083   5.248   2.718
52167W        W24592  44.887  27.616  14.514
52168W        W24593  42.947  28.493   2.155
52169W        W24594   7.220  24.657   3.723
52170W        W24595  31.565  19.515   4.545
52171W        W24596  39.876  41.521   4.693
52172W        W24597  21.091   1.987  10.711
52173W        W24598  13.253  17.244  13.528
52174W        W24599  20.204  44.850  13.049
52175W        W24600  38.903   8.429   1.933
52176W        W24601  20.944  25.249  12.579
52177W        W24602  12.853  29.536   2.389
52178W        W24603  17.817  26.083   2.226
52179W        W24604  41.973   4.904   2.302
52180W        W24605  28.993  40.546   1.678
52181W        W24606   9.157  16.596   2.140
52182W        W24607  42.401  35.581   3.261
52183W        W24608  17.034  11.774  13.554
52184W        W24609  29.639   2.230   1.402
52185W        W24610  39.431  19.177  14.871
52186W        W24611   3.461  33.420   5.171
52187W        W24612  19.554   6.300   0.659
52188W        W24613   7.792  22.724  14.474
52189W        W24614  40.972  31.759  14.911
52190W        W24615  38.536  24.691  10.687
52191W        W24616   3.741  27.118   4.616
52192W        W24617  28.047   7.381  14.229
52193W        W24618  34.919  25.880  11.539
52194W        W24619   1.885  19.041  14.628
52195W        W24620   4.933  26.198  11.046
52196W        W24621  32.885   1.206   3.304
52197W        W24622   2.782  32.179  10.756
52198W        W24623  30.985  39.356  10.652
52199W        W24624  31.150  15.372  13.600
52200W        W24625  19.813   0.966   4.996
52201W        W24626  36.554  26.936   3.998
52202W        W24627  43.923  17.201  14.417
52203W        W24628  18.105  31.449  14.193
52204W        W24629  32.552  39.100  12.461
52205W        W24630  30.095  19.979  12.607
52206W        W24631   1.287  37.434  12.962
52207W        W24632  15.477  30.028   0.641
52208W        W24633   7.127  16.793  12.584
52209W        W24634  11.039  15.850   4.517
52210W        W24635  37.392  18.813   4.994
52211W        W24636   2.235   8.957   2.464
52212W        W24637  32.360   1.433  14.327
52213W        W24638  30.935  36.151  14.996
52214W        W24639  23.225   8.211   2.828
52215W        W24640  21.230  14.593   1.647
52216W        W24641   9.951  39.477  12.442
52217W        W24642  10.399   4.991   3.222
52218W        W24643  28.216   0.812  14.824
52219W        W24644  40.868  16.178   3.314
52220W        W24645  25.282  23.076  10.749
52221W        W24646   1.449  43.949   4.630
52222W        W24647   2.490  37.366  14.414
52223W        W24648  41.254   4.933  10.593
52224W        W24649  13.219  28.230   1.335
52225W        W24650   5.809  38.970   2.896
52226W        W24651   1.454  43.201  12.105
52227W        W24652  13.506   4.342   1.778
52228W        W24653  28.959  44.734  13.507
52229W        W24654   2.136  14.410   4.123
52230W        W24655  38.792  20.976  12.973
52231W        W24656   2.240  41.115   0.962
52232W        W24657  40.570  38.404  14.834
52233W        W24658  29.679   8.899   0.577
52234W        W24659   7.877  13.327   2.462
52235W        W24660  34.947   1.915   4.237
52236W        W24661  44.199  37.710  14.561
52237W        W24662   5.027   4.936  11.185
52238W        W24663  30.306  12.402   3.096
52239W        W24664   1.563  38.023  12.370
52240W        W24665  29.010   4.661   1.735
52241W        W24666  22.268  16.153  13.834
52242W        W24667  18.110  18.007  11.175
52243W        W24668   4.857  26.918   0.582
52244W        W24669   8.705  15.207  13.583
52245W        W24670  43.929   9.764   0.806
52246W        W24671   8.687  35.943   1.599
52247W        W24672  14.381  22.841   2.261
52248W        W24673  11.209  35.860  11.496
52249W        W24674  35.062  39.410  10.461
52250W        W24675  40.833   2.755  14.355
52251W        W24676  29.689  19.549  10.682
52252W        W24677  32.893  16.777   4.889
52253W        W24678  43.271  31.236  12.363
52254W        W24679  11.341  38.556   4.017
52255W        W24680   9.889  38.809   1.337
52256W        W24681  19.782  19.500   4.007
52257W        W24682   6.145  30.472   3.086
52258W        W24683  11.234  30.714  11.408
52259W        W24684  16.077  13.319   4.216
52260W        W24685  29.012  11.110   4.487
52261W        W24686  33.355  34.580   0.745
52262W        W24687   8.846   9.398   0.611
52263W        W24688  39.912  18.660  10.645
52264W        W24689   4.973  43.949   4.554
52265W        W24690  15.216  21.020   3.660
52266W        W24691  23.804  24.142  14.822
52267W        W24692  30.227  18.119   2.224
52268W        W24693  40.778  38.136  12.164
52269W        W24694  32.874  39.799  11.587
52270W        W24695  29.045  40.221  13.730
52271W        W24696  33.790   8.483  11.063
52272W        W24697  41.468  21.575   2.796
52273W        W24698   1.975  31.837   1.805
52274W        W24699  21.213  13.600   1.254
52275W        W24700   0.161  19.609  13.568
52276W        W24701  29.529   8.829   1.062
52277W        W24702  31.627  31.278   3.132
52278W        W24703  37.282  14.313   3.864
52279W        W24704  40.962   3.360   1.575
52280W        W24705  44.694   6.347  13.868
52281W        W24706   7.164  21.605  13.036
52282W        W24707  28.477  19.028  13.915
52283W        W24708  35.569  19.620   3.496
52284W        W24709   6.666  18.336  11.756
52285W        W24710  19.642  37.032  14.110
52286W        W24711  11.590   7.039  13.604
52287W        W24712  43.628  29.404   3.229
52288W        W24713  13.161  14.686  14.052
52289W        W24714  13.920  31.632   4.128
52290W        W24715  17.212  27.369   4.462
52291W        W24716   9.807  32.479  12.781
52292W        W24717  12.142  11.599  12.488
52293W        W24718  13.913  26.453  14.828
52294W        W24719  28.702  43.862  13.052
52295W        W24720  18.718  11.067  11.646
52296W        W24721  39.584  39.531   0.873
52297W        W24722  24.386  23.572   0.939
52298W        W24723   1.426  20.209  12.398
52299W        W24724  36.576  13.731   2.703
52300W        W24725  13.231   1.386  13.548
52301W        W24726   6.718  12.646  14.588
52302W        W24727  19.979   1.245   2.814
52303W        W24728  15.075  13.668   3.289
52304W        W24729  34.053  17.860   0.842
52305W        W24730  42.392  18.073  11.125
52306W        W24731  19.150  41.156  11.963
52307W        W24732  16.395  24.184  13.463
52308W        W24733   8.913  10.583  11.493
52309W        W24734   4.231  40.864  13.461
52310W        W24735  14.719  32.815  12.485
52311W        W24736   8.738  27.616   1.995
52312W        W24737  40.944  11.431   3.776
52313W        W24738  27.538  38.258   1.803
52314W        W24739   4.364  26.421   4.681
52315W        W24740   5.014   9.848   0.470
52316W        W24741  34.423  10.278   0.803
52317W        W24742  41.806   5.931   4.129
52318W        W24743  40.361  20.284   4.616
52319W        W24744  23.935  11.710   0.708
52320W        W24745  40.760  43.961   1.414
52321W        W24746  18.694   3.678   1.186
52322W        W24747   4.746  13.403  14.662
52323W        W24748  10.262  34.113   3.262
52324W        W24749   5.230  40.718   3.826
52325W        W24750   4.810  16.793   3.639
52326W        W24751  29.188   1.361  12.114
52327W        W24752  13.057  42.894   3.154
52328W        W24753  38.407   6.644  13.470
52329W        W24754  22.765  13.720  12.391
52330W        W24755  38.359   1.498   1.785
52331W        W24756  15.767  18.978  12.559
52332W        W24757  26.919  31.529   5.397
52333W        W24758  36.839  39.351   3.104
52334W        W24759  40.332  19.205   2.699
52335W        W24760   6.883   9.861  12.534
52336W        W24761  38.204  13.223  14.279
52337W        W24762   7.723  13.897   1.840
52338W        W24763  11.359  12.244  11.109
52339W        W24764   1.057  34.615  12.902
52340W        W24765   8.939   9.671  13.172
52341W        W24766  36.897   7.441  13.869
52342W        W24767  26.851  17.207  11.681
52343W        W24768   4.726   6.170   3.209
52344W        W24769  20.028  36.639  12.593
52345W        W24770  30.046  10.414  11.513
52346W        W24771  21.011  41.820  14.439
52347W        W24772   4.823  32.857   2.374
52348W        W24773  37.920  25.055  11.125
52349W        W24774  32.099  32.539   3.722
52350W        W24775  23.240  43.042  11.427
52351W        W24776   1.222  14.993  12.040
52352W        W24777  13.589  25.614  13.785
52353W        W24778  39.228  24.185  14.839
52354W        W24779  34.481  30.173   1.677
52355W        W24780  22.433   5.340  11.575
52356W        W24781   2.359   6.424   0.312
52357W        W24782  42.292   0.437  12.943
52358W        W24783  24.821  22.144  12.429
52359W        W24784  34.261  10.102   0.112
52360W        W24785   9.360  30.990   2.933
52361W        W24786  22.605  42.306   1.966
52362W        W24787  40.189   7.631   3.623
52363W        W24788  38.574   0.821  12.936
52364W        W24789  25.068  11.852   4.512
52365W        W24790  17.222  28.934  11.651
52366W        W24791  10.896   9.405  13.571
52367W        W24792  34.185  30.638   4.124
52368W        W24793  23.909  39.783   0.031
52369W        W24794  28.631   3.416   4.144
52370W        W24795  27.711   0.348  12.416
52371W        W24796   3.436  30.933  12.167
52372W        W24797   8.923  17.130   2.219
52373W        W24798  14.854  11.885   1.176
52374W        W24799   7.748  21.159   0.318
52375W        W24800  23.272  23.042   0.505
52376W        W24801  34.940  34.829   3.701
52377W        W24802  12.790  10.173  12.565
52378W        W24803   4.969  15.314  11.937
52379W        W24804  30.953  36.426   0.450
52380W        W24805  39.611  23.183   4.689
52381W        W24806  16.099  14.570  12.492
52382W        W24807  12.475   9.743   0.181
52383W        W24808  20.192  26.045  10.449
52384W        W24809  21.697   6.899   4.134
52385W        W24810  24.192   5.595  12.960
52386W        W24811  44.233  14.972   4.961
52387W        W24812  30.627   6.713  14.862
52388W        W24813  18.049  32.979  14.863
52389W        W24814  27.425  14.803   4.398
52390W        W24815   5.982  38.360  11.916
52391W        W24816   4.738  30.519   0.870
52392W        W24817  33.965  25.622  12.568
52393W        W24818  18.883  35.639   5.134
52394W        W24819  32.154  10.740   2.815
52395W        W24820  18.514  36.160   0.431
52396W        W24821   2.899  14.498  13.980
52397W        W24822  27.627  27.987  12.193
52398W        W24823  15.360  11.912   3.681
52399W        W24824   9.048  28.935   2.092
52400W        W24825  28.227  30.085   2.907
52401W        W24826  25.529  16.732  11.188
52402W        W24827  18.037  15.238   0.090
52403W        W24828  12.807  40.451   2.828
52404W        W24829  12.265  35.173   0.416
52405W        W24830  44.002  21.987  14.819
52406W        W24831  35.355  41.018   2.421
52407W        W24832  42.033  25.539   0.375
52408W        W24833  37.593   2.976   3.230
52409W        W24834  20.807  30.579   3.405
52410W        W24835  42.763  40.448  12.865
52411W        W24836   9.316  37.088   1.823
52412W        W24837   7.592  37.494   1.184
52413W        W24838   2.822   4.234  14.058
52414W        W24839  12.076  42.877  14.436
52415W        W24840   8.122  30.924  12.828
52416W        W24841  43.969   8.294  14.571
52417W        W24842  29.512  38.387   2.909
52418W        W24843  37.435   9.774   1.335
52419W        W24844   6.458  29.404   1.771
52420W        W24845  40.271  10.918  14.341
52421W        W24846  27.482  38.439  13.020
52422W        W24847  43.771  24.525   3.652
52423W        W24848  22.185  33.400   1.456
52424W        W24849  34.549  43.937  10.917
52425W        W24850  42.887   1.343   2.760
52426W        W24851   3.749  19.796  14.867
52427W        W24852  43.757   6.627  11.544
52428W        W24853  27.284  42.103  14.360
52429W        W24854  28.568   7.460   4.126
52430W        W24855  30.144  34.091   1.284
52431W        W24856  33.555  19.768  13.985
52432W        W24857  33.474  10.306  11.890
52433W        W24858  19.179  33.660  14.651
52434W        W24859  20.746  20.239   1.022
52435W        W24860  19.257  13.509  12.140
52436W        W24861  26.581  15.853   4.102
52437W        W24862   9.689  33.064   1.001
52438W        W24863  11.258   8.453   4.542
52439W        W24864  26.922  35.464   4.422
52440W        W24865  43.979  38.097   1.443
52441W        W24866  36.357  33.894   1.275
52442W        W24867   6.663  10.062  11.525
52443W        W24868  14.284  28.968  11.229
52444W        W24869   2.242   4.496   2.335
52445W        W24870   2.515  14.058  11.129
52446W        W24871  22.621  38.999  11.380
52447W        W24872  13.832   9.834   0.076
52448W        W24873  30.857  16.190  13.884
52449W        W24874  18.785   4.415   2.363
52450W        W24875  28.635  33.496   3.154
52451W        W24876  44.080  20.250   4.184
52452W        W24877  36.515  25.222  13.445
52453W        W24878  37.273  41.768  13.054
52454W        W24879  20.145  23.806   2.240
52455W        W24880  31.660  20.040  13.821
52456W        W24881  25.889  34.078   1.307
52457W        W24882  18.368  41.986   3.169
52458W        W24883  20.588  35.564  12.312
52459W        W24884   4.277   5.258   1.859
52460W        W24885   5.766  32.384  11.526
52461W        W24886  26.233  41.476   1.544
52462W        W24887  22.205  34.427   2.562
52463W        W24888  40.919  39.884   2.667
52464W        W24889  37.477  12.296  11.496
52465W        W24890   7.722  36.043   1.603
52466W        W24891  32.437  31.729  12.233
52467W        W24892  33.977  18.244   4.098
52468W        W24893   3.706  13.354  14.893
52469W        W24894  24.816  14.130  13.515
52470W        W24895  17.967  21.019   2.710
52471W        W24896  12.227  17.557  12.829
52472W        W24897  11.137  41.239  12.872
52473W        W24898  33.130   0.854   2.714
52474W        W24899  15.414  13.603  11.883
52475W        W24900  17.019  34.097   0.950
52476W        W24901  13.971   8.897  10.764
52477W        W24902  33.466  18.321   4.099
52478W        W24903  43.141  39.319  12.034
52479W        W24904  39.411  33.908   3.809
52480W        W24905   4.793  30.513  14.764
52481W        W24906  37.781  21.287   4.843
52482W        W24907  27.650  15.782   4.080
52483W        W24908   0.404  16.482  12.090
52484W        W24909  36.580  24.046   2.361
52485W        W24910  16.071  11.999   3.776
52486W        W24911  44.271  35.040  10.943
52487W        W24912  39.535  25.561  10.383
52488W        W24913  40.062  40.926   2.684
52489W        W24914  20.072  35.676   1.954
52490W        W24915  28.205   0.362   0.927
52491W        W24916  23.817  23.319  13.583
52492W        W24917  20.757  14.233  12.405
52493W        W24918   2.448  25.130   4.335
52494W        W24919   4.683   7.888   0.293
52495W        W24920   7.758   4.823  13.569
52496W        W24921  43.508  14.127   3.210
52497W        W24922  16.657  19.679   3.358
52498W        W24923  17.168  41.506  11.204
52499W        W24924  43.259  44.377  12.054
52500W        W24925  23.619  14.602  12.910
52501W        W24926  17.984  13.670  12.488
52502W        W24927  34.111  14.582   3.856
52503W        W24928  39.465  17.279   1.894
52504W        W24929  34.304   7.879  13.847
52505W        W24930  35.037  11.413   0.397
52506W        W24931  19.262  43.925  13.885
52507W        W24932  42.912  12.012  10.604
52508W        W24933  27.951  33.475  11.510
52509W        W24934  32.014  21.584  13.086
52510W        W24935  26.671  26.550   0.736
52511W        W24936   1.769  31.608   2.828
52512W        W24937   0.078  43.334   2.493
52513W        W24938  19.095  36.946  14.554
52514W        W24939  42.820  42.497  13.868
52515W        W24940  42.343  26.881  13.207
52516W        W24941  34.906  44.219  13.737
52517W        W24942  30.918  23.517   3.198
52518W        W24943  43.007   5.729   3.539
52519W        W24944  26.244   0.755  14.976
52520W        W24945   3.901   6.485  11.523
52521W        W24946   9.874  34.272   4.152
52522W        W24947  44.240  25.075   0.219
52523W        W24948  20.374  23.126  11.140
52524W        W24949  43.623  28.226   1.123
52525W        W24950  40.394  19.709  14.984
52526W        W24951  21.293  36.074  11.513
52527W        W24952  34.178  40.308  14.689
52528W        W24953  31.678   0.236  13.625
52529W        W24954  40.071  19.099  14.525
52530W        W24955  35.724   4.294   2.186
52531W        W24956   0.246  34.816   0.383
52532W        W24957  22.495   1.918   3.610
52533W        W24958  11.847  39.274   0.994
52534W        W24959  11.749  17.470   3.110
52535W        W24960   9.184  35.155   3.257
52536W        W24961   6.341  28.714   0.969
52537W        W24962   8.584  30.102   2.817
52538W        W24963   5.791  32.575   3.353
52539W        W24964  32.584   6.725   0.045
52540W        W24965  20.204  13.123   2.324
52541W        W24966  30.174  16.057  10.529
52542W        W24967  33.121  25.732  14.618
52543W        W24968   9.182  21.163  11.144
52544W        W24969  10.179  10.663  12.987
52545W        W24970  37.465  27.686   1.170
52546W        W24971  32.142  40.488  14.807
52547W        W24972   7.395  24.402  12.004
52548W        W24973  21.935  24.100   0.265
52549W        W24974  24.587   8.238  13.912
52550W        W24975   0.400  26.746  10.170
52551W        W24976  26.704   4.844   0.531
52552W        W24977   8.232  33.508   4.979
52553W        W24978  16.428  18.013  14.840
52554W        W24979  36.587   2.986   2.344
52555W        W24980  22.143  30.486   0.755
52556W        W24981  44.670  30.531  12.430
52557W        W24982  17.814   1.887   2.909
52558W        W24983  33.494  23.739   1.728
52559W        W24984  33.773  26.194   1.779
52560W        W24985  15.797   9.431   2.171
52561W        W24986  44.944   3.516   2.798
52562W        W24987  38.827   0.381  10.229
52563W        W24988   2.500  26.122   0.862
52564W        W24989  32.111   3.540   3.298
52565W        W24990  33.101   5.675   4.641
52566W        W24991  38.760  34.578  13.025
52567W        W24992  23.297  19.254   3.094
52568W        W24993  12.115   2.187  13.828
52569W        W24994  32.503  17.139  13.854
52570W        W24995  19.188  24.085  13.563
52571W        W24996  21.541  34.343  13.932
52572W        W24997   1.686   3.738   2.547
52573W        W24998   6.349   3.105  11.154
52574W        W24999  40.346  33.902   4.456
52575W        W25000  34.069  20.158  10.938
52576W        W25001  13.887   2.872  13.478
52577W        W25002  39.818  29.972   2.842
52578W        W25003  40.331  15.530   2.756
52579W        W25004  39.011  33.571  11.621
52580W        W25005  43.405  19.559   3.848
52581W        W25006  13.237   4.702   2.034
52582W        W25007  28.677  35.943  12.573
52583W        W25008  29.387  34.585  14.913
52584W        W25009  22.497  26.577   2.975
52585W        W25010  12.805   1.904   0.263
52586W        W25011  15.044  26.421   0.439
52587W        W25012  39.335   2.983   4.757
52588W        W25013  29.196  12.610   0.235
52589W        W25014   8.650  41.466   0.493
52590W        W25015  23.057  10.147   4.649
52591W        W25016  34.637  10.029  11.993
52592W        W25017  20.170   8.852  11.005
52593W        W25018  10.797  29.956   3.774
52594W        W25019  40.821   7.714   4.219
52595W        W25020   0.736   6.798  12.495
52596W        W25021  10.099  30.594   4.620
52597W        W25022  23.611   8.478   3.852
52598W        W25023  33.486  25.423  12.449
52599W        W25024  26.490  39.337   4.643
52600W        W25025  16.740  36.419   2.423
52601W        W25026  42.348  31.965   0.792
52602W        W25027  34.082  35.237   2.708
52603W        W25028  20.023  33.212   4.064
52604W        W25029  21.741  10.878  13.077
52605W        W25030  30.381  38.358  11.134
52606W        W25031   5.255  32.747  10.687
52607W        W25032  10.839  37.109   1.721
52608W        W25033  21.860  32.422   2.704
52609W        W25034  35.916  27.274  14.950
52610W        W25035  23.643   4.926   4.401
52611W        W25036   9.584   8.753   2.620
52612W        W25037   7.418   0.388   3.685
52613W        W25038  43.268  36.664  13.931
52614W        W25039  28.217   2.354   1.422
52615W        W25040  21.369  17.251  10.298
52616W        W25041  18.534  34.517   4.254
52617W        W25042  33.004  21.521  14.012
52618W        W25043  10.154  12.581   3.142
52619W        W25044   3.238  25.390  13.446
52620W        W25045  24.189  14.379   0.902
52621W        W25046  11.986  34.937  11.002
52622W        W25047  24.677  31.736   0.850
52623W        W25048  35.403  15.791  12.817
52624W        W25049  12.694  24.474  12.040
52625W        W25050  32.530  34.821   3.240
52626W        W25051  23.521  12.066   2.364
52627W        W25052  23.076  29.712  14.547
52628W        W25053  16.907  32.074   9.885
52629W        W25054  22.609  18.660   2.005
52630W        W25055   3.056   2.345   4.579
52631W        W25056  12.068  37.045  12.548
52632W        W25057   9.944  39.735  12.893
52633W        W25058  39.045  33.275   4.144
52634W        W25059  10.102  12.622   4.518
52635W        W25060  38.312  32.932   0.240
52636W        W25061  25.467   7.083   0.531
52637W        W25062  23.482  34.089  13.823
52638W        W25063  20.664  10.724  10.891
52639W        W25064  31.420  18.761   3.176
52640W        W25065  28.673  25.970   2.839
52641W        W25066  33.684  40.660   3.920
52642W        W25067   7.202  33.670   2.910
52643W        W25068  11.113  20.212  13.332
52644W        W25069  15.123  26.886  14.323
52645W        W25070   0.393   8.774  13.947
52646W        W25071  34.491  25.507  14.505
52647W        W25072  14.242   2.723   0.814
52648W        W25073  12.354  40.780   1.300
52649W        W25074  37.501  29.121  13.570
52650W        W25075   2.111   3.016  11.494
52651W        W25076  28.191  40.854   1.916
52652W        W25077  18.133  36.791  10.687
52653W        W25078  21.532  34.369   0.492
52654W        W25079  39.793  44.908   3.282
52655W        W25080  34.983  24.223   4.859
52656W        W25081   0.710  13.236  11.101
52657W        W25082  19.760  24.490  12.604
52658W        W25083   2.687  18.164   4.699
52659W        W25084  34.763  43.861   1.880
52660W        W25085  11.757  34.274  13.823
52661W        W25086  16.294  13.068  11.224
52662W        W25087  22.066  36.185  13.829
52663W        W25088  38.526  43.374  13.997
52664W        W25089  23.038  35.054   0.849
52665W        W25090  41.763  17.631   1.389
52666W        W25091  24.321  21.978  12.360
52667W        W25092   4.311  43.629  14.469
52668W        W25093  38.735  22.219  14.319
52669W        W25094   4.855  33.730   2.668
52670W        W25095  41.821   8.945   1.336
52671W        W25096  23.022  34.813  13.270
52672W        W25097  43.756  44.389   0.863
52673W        W25098   5.851  35.344  12.589
52674W        W25099   6.129  34.372   0.230
52675W        W25100  15.404  44.341   4.595
52676W        W25101  26.913  27.494  13.450
52677W        W25102  28.890  19.294   1.705
52678W        W25103  30.057  16.267  10.995
52679W        W25104  22.132  17.747   0.851
52680W        W25105  10.193  42.892  10.704
52681W        W25106  35.486  42.419   2.381
52682W        W25107  20.129  39.039   4.104
52683W        W25108  44.993  13.636  14.018
52684W        W25109  43.744  44.868  10.701
52685W        W25110  15.332  14.772   0.794
52686W        W25111  13.619   3.061   4.937
52687W        W25112  17.732  23.181  12.965
52688W        W25113   7.388  17.467  13.920
52689W        W25114   6.640  15.222   3.404
52690W        W25115  37.021  34.776  11.796
52691W        W25116  40.063  26.654  10.697
52692W        W25117  29.749  43.930  14.347
52693W        W25118  24.329  13.656  14.292
52694W        W25119  13.837  41.902   0.329
52695W        W25120  41.932  44.083   3.577
52696W        W25121  13.781  31.365  13.096
52697W        W25122  19.013   0.218   2.347
52698W        W25123   8.111  23.241  12.638
52699W        W25124  33.651  17.316  13.472
52700W        W25125  44.037  29.440   1.852
52701W        W25126  33.194  44.166   0.967
52702W        W25127  32.119  40.817   0.223
52703W        W25128  13.114  30.410   2.335
52704W        W25129  22.500  24.726  13.487
52705W        W25130  30.916  33.325  10.732
52706W        W25131  32.600  40.418  14.572
52707W        W25132   5.481  26.519  14.565
52708W        W25133   0.551  13.649  12.395
52709W        W25134  23.191  33.421  14.906
52710W        W25135  19.634  32.064  11.254
52711W        W25136   0.299  13.302   0.673
52712W        W25137   9.293  34.130   3.124
52713W        W25138  16.061  40.998  12.397
52714W        W25139  11.690  39.581  14.542
52715W        W25140  14.074  43.512  11.113
52716W        W25141  14.615  13.106  11.445
52717W        W25142  35.403  36.874   0.334
52718W        W25143  11.148  20.015  11.527
52719W        W25144  37.996  40.511  11.109
52720W        W25145   1.652  26.155  14.563
52721W        W25146   0.989  33.580   2.601
52722W        W25147  28.587   9.328   4.224
52723W        W25148  33.337  44.460  10.287
52724W        W25149  10.845  35.093   2.837
52725W        W25150  37.059   2.520   3.740
52726W        W25151  15.086  33.423  14.004
52727W        W25152  23.930   6.975  13.308
52728W        W25153   4.353   2.962  11.122
52729W        W25154  18.809  42.166  13.844
52730W        W25155  10.273  38.090  10.865
52731W        W25156  38.970  24.339  11.575
52732W        W25157  21.550  43.053   1.938
52733W        W25158  37.894  30.060   3.444
52734W        W25159  15.346  41.784   1.316
52735W        W25160  11.927  33.029   3.161
52736W        W25161  38.520  12.314  12.580
52737W        W25162  30.409   3.415  14.559
52738W        W25163  42.901  38.814   0.773
52739W        W25164  27.385  32.997  10.443
52740W        W25165  25.707  33.798  12.485
52741W        W25166  19.542  28.797  14.386
52742W        W25167   0.305   2.662  10.736
52743W        W25168  26.612  31.102   1.337
52744W        W25169  37.944   7.656  11.126
52745W        W25170  27.101   9.324  10.667
52746W        W25171  36.071  40.926   3.646
52747W        W25172  29.714  10.584   3.871
52748W        W25173   5.420   4.512  14.494
52749W        W25174  28.292   4.807   3.268
52750W        W25175   4.445  44.812   2.979
52751W        W25176  36.800  14.693  14.824
52752W        W25177  17.173  25.925  12.944
52753W        W25178  13.086   7.246   3.162
52754W        W25179  44.256  44.269   0.709
52755W        W25180  43.224  44.486   0.727
52756W        W25181  18.829   5.270   3.121
52757W        W25182  21.574  35.630  12.264
52758W        W25183  34.855  36.971   2.706
52759W        W25184   7.326  10.672   3.722
52760W        W25185  40.401  44.276   3.601
52761W        W25186  12.588  37.431  11.057
52762W        W25187  41.790  12.025  13.471
52763W        W25188  38.463  24.964   3.807
52764W        W25189  43.048   4.152   0.379
52765W        W25190  33.112  36.239   3.257
52766W        W25191  12.100   4.151   1.911
52767W        W25192  43.166  15.602  13.856
52768W        W25193  16.291  42.305   4.545
52769W        W25194   3.317  32.526  12.550
52770W        W25195  11.182  25.406   3.746
52771W        W25196   3.250  34.406   1.378
52772W        W25197   1.754   3.829   4.360
52773W        W25198  34.544  39.548   1.166
52774W        W25199  27.154  43.853   1.856
52775W        W25200  29.679  42.721   2.766
52776W        W25201  36.097  11.316   1.364
52777W        W25202  17.650  27.659   1.280
52778W        W25203  35.980  34.013  11.135
52779W        W25204  23.876  23.497  14.301
52780W        W25205   3.388  43.004   3.768
52781W        W25206  34.104  42.870  13.825
52782W        W25207  14.152   9.730   4.114
52783W        W25208  23.462   6.558   0.427
52784W        W25209   8.150  19.897   2.765
52785W        W25210  32.689  14.271   4.681
52786W        W25211   0.819  43.502   3.599
52787W        W25212   5.877   6.705  10.713
52788W        W25213  16.970  21.053   3.644
52789W        W25214  40.855  13.701  14.972
52790W        W25215   4.413  37.978   3.579
52791W        W25216  16.285  33.250  10.195
52792W        W25217  36.235  13.582  13.884
52793W        W25218  37.629  22.206  13.239
52794W        W25219  12.848  39.426  12.593
52795W        W25220  17.815  17.553  12.549
52796W        W25221  16.556  38.927  12.768
52797W        W25222  11.988  36.118  12.047
52798W        W25223  31.946   0.636  11.443
52799W        W25224  29.483  40.503   4.637
52800W        W25225   6.438  42.369   5.164
52801W        W25226   6.258  44.989   3.257
52802W        W25227  25.352  25.229  14.941
52803W        W25228   0.815  12.268   2.336
52804W        W25229  43.037  22.080   4.010
52805W        W25230  21.110   2.226   1.213
52806W        W25231   6.895  14.097  13.504
52807W        W25232  21.564  17.163  14.388
52808W        W25233  23.679  13.789   1.852
52809W        W25234  15.698  44.326  11.993
52810W        W25235   5.518  15.550   0.300
52811W        W25236  35.976  17.823   0.923
52812W        W25237  36.424  27.006  10.654
52813W        W25238  24.120  16.884  11.114
52814W        W25239  19.178  31.550   3.640
52815W        W25240  28.033  16.722   0.246
52816W        W25241  25.720  19.538   0.201
52817W        W25242   4.338  12.328   4.992
52818W        W25243  16.380   5.641  10.630
52819W        W25244  15.813  39.307   0.316
52820W        W25245  37.475  16.961   4.300
52821W        W25246  44.990  15.729  14.525
52822W        W25247  32.429  43.840  11.648
52823W        W25248  12.341  13.356   0.300
52824W        W25249  40.369  41.268  11.478
52825W        W25250  31.569  25.969  13.905
52826W        W25251  34.560  30.677  12.953
52827W        W25252   8.540  10.638   2.299
52828W        W25253  25.263   9.513   5.030
52829W        W25254  20.253  19.922  13.489
52830W        W25255   3.325  40.275   4.537
52831W        W25256   1.187  19.813  11.606
52832W        W25257   6.173  38.830  11.991
52833W        W25258  35.498   9.667  10.783
52834W        W25259   9.806  15.166  10.474
52835W        W25260  44.942  33.047  11.471
52836W        W25261  43.335  24.521  14.887
52837W        W25262   3.526  44.962  14.614
52838W        W25263  41.259  39.269  12.521
52839W        W25264   1.880  17.716   3.282
52840W        W25265  14.338  27.134  10.647
52841W        W25266  31.067  31.655   4.576
52842W        W25267  12.746  12.067   3.644
52843W        W25268   3.349   3.407   3.183
52844W        W25269  27.893  32.956  11.373
52845W        W25270  40.797  17.560  14.324
52846W        W25271   2.000  21.633  13.596
52847W        W25272   7.390  10.863  12.684
52848W        W25273  16.664  20.165  11.101
52849W        W25274  36.622  29.875  11.509
52850W        W25275  11.904  30.515  12.060
52851W        W25276  35.709  40.961   3.255
52852W        W25277  13.312  41.313  13.527
52853W        W25278  31.870  29.461  14.938
52854W        W25279  41.531  33.987   4.670
52855W        W25280  37.947  14.823   4.856
52856W        W25281   2.207  32.511   1.716
52857W        W25282  38.335  19.122  12.147
52858W        W25283   9.503  30.208  12.402
52859W        W25284  14.774   8.128  12.052
52860W        W25285  23.085   1.785  12.648
52861W        W25286  22.781  22.286  14.395
52862W        W25287   5.473   3.210  14.850
52863W        W25288  21.124  34.604  14.126
52864W        W25289  26.127  13.909  13.642
52865W        W25290   7.503  44.235  13.487
52866W        W25291  16.606  15.803   1.678
52867W        W25292  13.740  17.939   0.759
52868W        W25293  33.778  26.004   0.411
52869W        W25294  16.218  31.805   3.683
52870W        W25295  19.214  34.836  10.706
52871W        W25296  18.037  14.885   3.128
52872W        W25297  19.588  42.477   0.376
52873W        W25298  33.006  32.093  10.712
52874W        W25299  10.768  41.859   1.281
52875W        W25300   0.403  21.118  10.561
52876W        W25301   5.039  26.066  14.985
52877W        W25302   7.339  42.396   2.658
52878W        W25303  17.752  14.856   3.759
52879W        W25304  31.585  23.609  14.984
52880W        W25305   0.711   9.759  11.285
52881W        W25306  21.333  42.062  13.980
52882W        W25307  31.680  16.757   4.202
52883W        W25308  42.500  37.265  14.504
52884W        W25309  39.762   3.117   0.433
52885W        W25310   3.941  12.710   0.290
52886W        W25311  16.308   9.082   1.965
52887W        W25312   1.858  41.803  10.568
52888W        W25313  34.334  13.756  11.932
52889W        W25314  12.161  24.692   5.034
52890W        W25315  44.065  17.048   3.047
52891W        W25316  13.283  25.488   1.943
52892W        W25317   4.353  28.285  13.838
52893W        W25318  11.831   1.454   3.434
52894W        W25319  39.584  13.197  12.957
52895W        W25320   2.682  19.821  11.387
52896W        W25321   4.625  41.271  10.765
52897W        W25322  11.290  37.933   1.931
52898W        W25323  38.085  24.139  13.271
52899W        W25324  13.750  12.107  12.504
52900W        W25325  38.807  27.493   1.333
52901W        W25326   8.307  44.115  11.630
52902W        W25327   0.806  43.820   4.989
52903W        W25328  11.545  17.046  13.001
52904W        W25329   6.374  38.836   1.202
52905W        W25330  18.678  40.545  13.796
52906W        W25331  42.545  34.310  11.424
52907W        W25332   8.668  31.452   0.814
52908W        W25333  10.592  43.117  10.468
52909W        W25334   5.189  37.270  11.412
52910W        W25335  13.833  36.872   2.703
52911W        W25336   7.653  10.966  11.584
52912W        W25337  16.625  39.443  12.813
52913W        W25338   2.806  23.946   3.903
52914W        W25339  13.205  40.993  10.687
52915W        W25340   5.391  13.593  12.987
52916W        W25341  16.522  24.754   2.477
52917W        W25342   0.385   2.507   1.912
52918W        W25343  14.248   3.202  12.776
52919W        W25344  34.358   7.965  14.355
52920W        W25345  37.765   8.070  12.988
52921W        W25346  12.943  41.881   1.889
52922W        W25347  41.822   0.791   2.229
52923W        W25348  19.511   8.788  13.275
52924W        W25349   3.367  17.051  12.567
52925W        W25350  44.617  43.874   4.195
52926W        W25351  10.340  17.088   2.223
52927W        W25352   9.359  11.434   0.321
52928W        W25353  41.692  41.478   4.117
52929W        W25354  35.921   1.480  12.980
52930W        W25355  20.090  17.419   4.583
52931W        W25356  25.042  39.101   0.498
52932W        W25357  31.418  41.412   4.840
52933W        W25358  19.292  10.200  13.875
52934W        W25359  16.301  40.164  12.629
52935W        W25360  37.536  25.245  12.041
52936W        W25361  24.523  14.576   2.577
52937W        W25362  20.088  18.698   0.744
52938W        W25363  36.572  35.161   2.283
52939W        W25364  17.614  38.876  10.565
52940W        W25365   6.266  31.658  10.314
52941W        W25366  40.843  11.886  10.613
52942W        W25367  43.476  24.134  10.644
52943W        W25368  18.730  40.754  11.624
52944W        W25369  37.182  14.205   4.363
52945W        W25370  43.885   1.395  13.648
52946W        W25371  42.628  43.720  11.626
52947W        W25372  37.882  32.120   4.500
52948W        W25373  22.083   7.218   0.900
52949W        W25374  21.770  28.224   3.755
52950W        W25375   3.067  31.247   3.281
52951W        W25376  11.697  11.396  12.256
52952W        W25377  35.523  13.702  14.332
52953W        W25378  42.263   9.118   0.373
52954W        W25379  17.801  19.739   0.246
52955W        W25380  38.918   9.756  12.677
52956W        W25381  32.667   9.048   0.367
52957W        W25382  26.918  32.113   4.571
52958W        W25383  37.740  36.864  10.636
52959W        W25384  42.585  37.400   4.642
52960W        W25385  37.333  38.534   2.464
52961W        W25386  41.551  26.028   2.774
52962W        W25387  15.146  15.884  13.860
52963W        W25388  20.130  30.032   2.359
52964W        W25389  12.147  17.032  14.248
52965W        W25390  24.349  38.922   1.801
52966W        W25391  37.899  40.744   2.960
52967W        W25392  36.354  21.271   3.261
52968W        W25393  35.281  43.030  11.780
52969W        W25394  11.765  18.113  10.288
52970W        W25395  20.752   7.149   1.704
52971W        W25396  17.132  40.413   1.720
52972W        W25397  35.340  32.547  10.669
52973W        W25398  22.079  23.093  14.914
52974W        W25399  39.310  29.197   4.112
52975W        W25400  13.526   2.886   3.935
52976W        W25401  28.727  31.075  13.387
52977W        W25402  29.709  35.409   0.331
52978W        W25403  14.817  32.492  14.890
52979W        W25404  23.838  18.693   4.183
52980W        W25405   8.335  11.708  10.141
52981W        W25406  15.500  41.431   2.254
52982W        W25407  23.638  32.871   0.315
52983W        W25408  27.954  18.958   3.790
52984W        W25409  44.855  23.554   3.739
52985W        W25410  35.054  12.408   3.267
52986W        W25411   8.308  40.129   3.619
52987W        W25412  25.975  34.643  11.529
52988W        W25413  14.328  40.766  14.356
52989W        W25414   3.383   2.204  12.876
52990W        W25415  37.401  28.523  11.003
52991W        W25416  23.190   6.886  11.575
52992W        W25417   6.898  36.877   0.779
52993W        W25418  27.234  23.546   0.338
52994W        W25419  16.685  35.615   0.554
52995W        W25420  33.111  19.282   1.883
52996W        W25421  30.935  38.927  13.414
52997W        W25422  12.727  32.179   1.802
52998W        W25423  23.971   8.468   2.130
52999W        W25424   9.425  31.979  11.603
53000W        W25425  29.459  26.875   5.019
53001W        W25426  15.666   1.289   3.213
53002W        W25427  27.472   2.285   4.621
53003W        W25428  31.780  27.912   2.312
53004W        W25429  15.737   4.787  11.467
53005W        W25430  22.163  41.462  14.854
53006W        W25431  15.703  30.164  12.921
53007W        W25432   3.893   0.339   4.764
53008W        W25433   1.993  30.404  14.419
53009W        W25434  12.458   9.878  12.833
53010W        W25435  23.201  29.127  14.877
53011W        W25436  38.950  25.655  11.109
53012W        W25437  31.170  22.210   0.927
53013W        W25438  29.624   0.980   1.300
53014W        W25439  14.697  16.011   2.441
53015W        W25440  24.099  17.776   1.746
53016W        W25441  25.511  14.365   1.893
53017W        W25442   0.716  23.514  14.813
53018W        W25443  29.090  42.525  11.623
53019W        W25444  19.198  18.792   1.885
53020W        W25445   8.137  27.705   4.178
53021W        W25446  33.182  38.251   1.374
53022W        W25447  29.923  10.645   1.157
53023W        W25448  14.802  17.726  12.169
53024W        W25449  13.621  35.464  10.756
53025W        W25450  35.252  40.403   3.711
53026W        W25451  12.938  32.121  13.678
53027W        W25452  42.810  15.834  12.442
53028W        W25453  16.866  42.777   2.959
53029W        W25454   1.481  26.948  13.114
53030W        W25455  18.366  21.401  14.506
53031W        W25456   8.747  44.796   3.709
53032W        W25457  36.386  28.592  13.315
53033W        W25458   5.774  38.815   3.384
53034W        W25459  43.100  22.162  13.361
53035W        W25460   7.665   7.686  14.387
53036W        W25461  40.926   7.709  14.959
53037W        W25462  34.067  26.520   0.391
53038W        W25463  39.301  26.029  10.464
53039W        W25464   9.281  44.544   4.272
53040W        W25465  24.180   2.991  10.641
53041W        W25466  25.682   6.763   1.219
53042W        W25467  31.360  33.396   2.794
53043W        W25468  13.197   8.130   1.873
53044W        W25469   2.779  28.565   4.169
53045W        W25470  43.369  41.492  12.371
53046W        W25471  12.681  35.347   0.923
53047W        W25472  19.526   8.174   2.177
53048W        W25473  26.942  22.160   1.781
53049W        W25474   9.897  33.911  11.116
53050W        W25475  15.730  29.354  14.972
53051W        W25476  27.781  37.885  13.363
53052W        W25477  42.832   8.504   4.095
53053W        W25478  27.609  19.912   2.341
53054W        W25479  40.248   4.985   1.730
53055W        W25480   7.837  33.428   4.096
53056W        W25481  38.580  39.867   2.347
53057W        W25482  30.409  35.112  11.611
53058W        W25483  21.229  27.039  10.717
53059W        W25484   6.052   3.874  11.022
53060W        W25485   2.162  40.417  12.871
53061W        W25486  39.725  36.614   2.716
53062W        W25487   5.366  24.566   0.994
53063W        W25488  10.578  25.736   1.219
53064W        W25489  39.405  13.641   4.587
53065W        W25490  42.253  36.116   3.567
53066W        W25491   9.083  31.918   1.325
53067W        W25492  40.980  17.184  13.014
53068W        W25493  12.137  10.855  12.881
53069W        W25494  25.653  26.563  13.743
53070W        W25495  36.566  43.935   2.361
53071W        W25496  39.575  41.061   4.111
53072W        W25497  44.617  11.037   3.166
53073W        W25498  32.605  37.053   1.507
53074W        W25499  37.510   7.455  14.604
53075W        W25500   5.182  17.212   4.621
53076W        W25501  33.378  22.172   2.855
53077W        W25502  12.553   6.944   2.362
53078W        W25503   9.333  40.994   2.757
53079W        W25504  10.339  13.734   2.434
53080W        W25505  33.444  28.696   2.733
53081W        W25506   9.351  39.804   0.863
53082W        W25507  26.738  24.093  13.478
53083W        W25508   0.101  37.115   0.282
53084W        W25509  25.979   4.234   0.277
53085W        W25510   9.303  22.359   9.834
53086W        W25511  32.826  39.072   4.020
53087W        W25512   9.072  10.265  10.528
53088W        W25513  19.921  28.063   3.093
53089W        W25514  34.250  37.130  11.304
53090W        W25515  37.972  24.604  11.591
53091W        W25516  17.979  13.102  11.670
53092W        W25517  10.361  10.819   3.217
53093W        W25518  13.802   8.815   0.973
53094W        W25519  34.494  15.716  13.913
53095W        W25520  14.674  41.961   2.398
53096W        W25521   9.901  27.951   4.272
53097W        W25522  42.794  43.861   1.326
53098W        W25523  43.714  37.851  13.285
53099W        W25524  23.231  26.094   2.514
53100W        W25525  24.191  38.822  13.890
53101W        W25526   6.235  30.139  14.371
53102W        W25527   8.066  28.734  12.016
53103W        W25528  30.126  41.392  12.814
53104W        W25529  11.702   9.354  14.598
53105W        W25530  43.353  16.105   4.120
53106W        W25531  31.153   2.841   1.844
53107W        W25532  26.568  18.178  11.188
53108W        W25533   7.390  16.341  14.453
53109W        W25534  43.823  42.284  14.005
53110W        W25535   2.405  42.411  14.717
53111W        W25536   4.606  34.487  11.648
53112W        W25537  38.060   4.878   0.721
53113W        W25538  15.738  40.765   0.723
53114W        W25539  16.602  19.241  13.873
53115W        W25540  15.225  31.645  12.469
53116W        W25541  21.739   9.780   4.980
53117W        W25542  36.318  15.768  12.358
53118W        W25543  16.119   7.074   2.575
53119W        W25544  23.421   0.762   4.493
53120W        W25545  29.706  36.467  13.123
53121W        W25546  20.547  13.414   3.804
53122W        W25547  26.981  16.900   1.296
53123W        W25548  37.372   8.629  10.231
53124W        W25549  20.242   8.710   0.132
53125W        W25550  38.579   3.427  14.996
53126W        W25551  11.633   6.763   2.215
53127W        W25552  18.132  40.060   2.646
53128W        W25553  37.822  18.374  13.612
53129W        W25554  33.765  37.546  12.464
53130W        W25555  26.969  38.383   4.890
53131W        W25556   8.231   0.323   3.134
53132W        W25557  20.827  43.536   2.568
53133W        W25558  41.289  31.663   1.820
53134W        W25559  43.150   5.445  14.424
53135W        W25560  31.125  29.299  13.857
53136W        W25561  29.397  13.211  14.466
53137W        W25562   6.898  29.677  12.471
53138W        W25563   0.790  26.364   2.343
53139W        W25564  12.566  40.861  13.586
53140W        W25565  33.621  12.783  14.745
53141W        W25566  23.653  19.684  11.667
53142W        W25567  22.457   7.221   2.512
53143W        W25568   8.508  39.925  11.841
53144W        W25569  11.776  37.389   3.167
53145W        W25570   4.639  43.211  14.601
53146W        W25571   5.897  18.633  14.255
53147W        W25572  29.238   3.760  11.613
53148W        W25573  42.928   9.732   0.976
53149W        W25574   6.894   5.724  14.904
53150W        W25575   7.781  20.972  14.806
53151W        W25576   6.736   0.489  13.699
53152W        W25577  33.943   8.645   2.494
53153W        W25578  27.261  34.488  10.534
53154W        W25579  14.649  31.694  11.706
53155W        W25580  25.041  11.585   3.565
53156W        W25581  38.909   7.398  14.547
53157W        W25582  12.860   4.224   4.629
53158W        W25583   9.780   6.331   4.465
53159W        W25584  22.003  31.928  12.059
53160W        W25585  41.410   1.069   3.175
53161W        W25586  30.556  41.629   4.490
53162W        W25587  24.121  32.540   0.999
53163W        W25588  24.512  27.931   0.830
53164W        W25589  21.717  18.040   0.393
53165W        W25590  36.572  44.832   2.179
53166W        W25591  14.295  40.400   0.639
53167W        W25592  41.385   6.578  11.221
53168W        W25593  39.489  12.665  12.634
53169W        W25594  14.601  43.261  11.162
53170W        W25595  41.886  26.458  12.164
53171W        W25596  41.849  43.724  11.080
53172W        W25597  42.555  13.812   2.428
53173W        W25598  18.633   0.307   1.987
53174W        W25599   5.737  38.323   3.198
53175W        W25600   3.382  42.735  14.427
53176W        W25601  37.039  17.056   0.947
53177W        W25602  29.869  41.319   0.487
53178W        W25603  20.301  29.158  13.382
53179W        W25604   1.933  12.695   1.915
53180W        W25605  12.300  10.093   0.880
53181W        W25606  13.668  15.360   3.093
53182W        W25607  34.726  15.237   3.856
53183W        W25608   3.262  43.735  10.912
53184W        W25609  36.865  41.621   2.865
53185W        W25610  40.533  38.956   0.380
53186W        W25611  10.588  43.313   4.199
53187W        W25612  22.292  36.285   4.212
53188W        W25613  16.882  39.905  11.619
53189W        W25614  25.754  22.373   3.333
53190W        W25615  21.577   9.415   0.417
53191W        W25616   5.675   6.734   0.680
53192W        W25617  31.690   0.390   2.610
53193W        W25618  29.284   9.073  12.926
53194W        W25619  24.021  14.581  14.733
53195W        W25620  10.197  22.798  11.105
53196W        W25621  40.478  14.562  13.705
53197W        W25622  20.756  23.619   0.200
53198W        W25623  32.626  31.124  12.623
53199W        W25624  11.797   7.904  10.635
53200W        W25625  26.627  37.581  12.200
53201W        W25626  14.315  44.330  13.966
53202W        W25627  34.077  27.408  10.407
53203W        W25628   6.258  32.196   3.635
53204W        W25629  16.145   5.460   3.687
53205W        W25630  11.760  26.566  13.248
53206W        W25631  28.443  12.772   4.353
53207W        W25632   4.409  40.108  12.207
53208W        W25633  10.193  13.488   3.274
53209W        W25634   4.031  24.681  12.117
53210W        W25635   6.707  14.644   4.095
53211W        W25636  44.904  28.396  14.943
53212W        W25637  17.182  24.649  14.798
53213W        W25638  31.086  38.595   2.473
53214W        W25639  24.097  14.838   3.130
53215W        W25640  10.213  28.320   4.052
53216W        W25641  31.691   3.643   4.659
53217W        W25642  36.480  25.455   1.299
53218W        W25643  11.298  19.337  13.909
53219W        W25644  35.000  36.493   0.367
53220W        W25645  41.944  15.493   1.068
53221W        W25646  23.522  21.252  11.086
53222W        W25647  39.496  37.804  13.000
53223W        W25648  31.684  33.645  12.704
53224W        W25649  31.203  42.546  13.465
53225W        W25650  19.296  25.262   3.103
53226W        W25651  39.821  17.220  14.008
53227W        W25652   9.321  16.210   4.374
53228W        W25653  28.637   4.947   1.336
53229W        W25654   5.746  26.536   4.185
53230W        W25655  43.290   1.841   0.885
53231W        W25656  23.090  15.236  11.543
53232W        W25657  11.752   7.117   4.794
53233W        W25658   4.244   0.764  11.824
53234W        W25659   4.889   9.188   4.244
53235W        W25660  44.444  41.299   2.323
53236W        W25661  31.076   9.326   1.409
53237W        W25662  41.001   6.352   1.802
53238W        W25663  25.590  28.525   1.751
53239W        W25664   5.769  31.881  10.584
53240W        W25665  37.357  32.872  12.435
53241W        W25666  12.698  11.894  13.058
53242W        W25667  40.053  37.963   4.202
53243W        W25668  26.660   0.965  11.615
53244W        W25669  16.261  17.566   1.907
53245W        W25670  16.551  38.367   4.617
53246W        W25671  27.541   1.510  12.516
53247W        W25672  20.928  12.214   5.628
53248W        W25673  43.853   9.088   2.207
53249W        W25674  17.054  27.180   0.480
53250W        W25675   0.520  31.504   4.589
53251W        W25676  18.266   5.357  11.386
53252W        W25677  39.653   3.454   1.473
53253W        W25678  19.003  19.194   3.628
53254W        W25679  11.705  24.496  14.292
53255W        W25680   6.574  37.921  13.812
53256W        W25681   8.591   3.799   3.667
53257W        W25682  25.938  10.225   2.247
53258W        W25683  41.140  12.348   2.261
53259W        W25684  42.969  43.819  11.195
53260W        W25685  23.547  37.991   3.439
53261W        W25686  27.849   3.233   1.339
53262W        W25687   0.223  16.124   3.691
53263W        W25688  17.896   8.709   1.272
53264W        W25689   0.075  29.575   1.643
53265W        W25690  13.354   2.315   2.896
53266W        W25691  21.125  42.813  13.311
53267W        W25692  37.071  34.438   1.947
53268W        W25693   8.153  42.971  13.427
53269W        W25694   3.177  32.690  14.431
53270W        W25695  43.310  38.778   4.138
53271W        W25696  31.853  11.389   3.227
53272W        W25697   8.715   2.359   3.633
53273W        W25698  21.661  25.694   0.493
53274W        W25699  38.447  32.639   1.685
53275W        W25700  12.193  36.593  11.922
53276W        W25701  19.571  44.411   4.117
53277W        W25702  41.376  31.683  14.564
53278W        W25703  31.806   8.247   0.825
53279W        W25704  29.624   4.353   0.136
53280W        W25705  13.375   1.867   3.177
53281W        W25706  22.560   4.513  11.033
53282W        W25707  29.196  33.134  13.911
53283W        W25708  38.935  21.364  14.745
53284W        W25709  31.643   2.327  12.112
53285W        W25710  28.023   2.323   0.945
53286W        W25711  39.436  30.440  12.078
53287W        W25712   7.027  38.549   0.199
53288W        W25713  40.795  44.051   2.766
53289W        W25714  44.812  10.750  10.883
53290W        W25715   3.221  41.425  14.135
53291W        W25716  23.698   1.357   1.465
53292W        W25717  37.970  43.538  12.925
53293W        W25718  27.570   6.457  12.965
53294W        W25719  13.400  30.701  14.495
53295W        W25720  43.101  12.846   0.497
53296W        W25721   5.611  27.220   1.443
53297W        W25722  25.725  25.697   3.336
53298W        W25723  27.133  34.415  11.945
53299W        W25724   6.682  24.707  14.803
53300W        W25725  42.637  41.768  14.869
53301W        W25726   4.163  35.428  11.463
53302W        W25727  41.525  15.544  12.185
53303W        W25728  36.283  40.308  11.406
53304W        W25729  26.646   1.968   3.197
53305W        W25730   7.785   8.615  12.355
53306W        W25731  15.258   3.925   1.487
53307W        W25732  11.805  38.481  13.426
53308W        W25733  22.244  19.506  14.802
53309W        W25734  26.772  13.312   2.477
53310W        W25735  23.046  35.110  11.100
53311W        W25736  37.670  19.376  11.568
53312W        W25737   8.643  24.545  13.946
53313W        W25738   2.705  27.485  11.977
53314W        W25739  43.382  12.227  10.640
53315W        W25740  13.842  13.852   3.871
53316W        W25741  25.937  38.347  14.701
53317W        W25742  44.848   3.634  13.563
53318W        W25743   4.365  29.824  14.843
53319W        W25744  23.815  15.850  12.954
53320W        W25745  12.367  20.552  13.790
53321W        W25746  42.986  29.081  12.937
53322W        W25747  23.111   4.474  14.495
53323W        W25748  17.997  30.015  13.131
53324W        W25749   5.240  28.591  12.372
53325W        W25750  41.549  39.096  11.610
53326W        W25751   4.642  44.393  14.930
53327W        W25752  27.086  42.964   4.511
53328W        W25753  29.020  11.942  13.706
53329W        W25754  39.823  38.422   4.124
53330W        W25755  31.652   0.855  11.067
53331W        W25756  31.021  17.201   0.507
53332W        W25757  38.275   3.447   2.620
53333W        W25758  40.517  38.820  11.614
53334W        W25759  30.260  35.608   1.089
53335W        W25760  11.338  41.545   4.229
53336W        W25761  19.634  15.795   4.059
53337W        W25762  44.335  38.799   3.538
53338W        W25763   2.693  41.387  14.074
53339W        W25764  19.013  15.974   0.950
53340W        W25765   1.963  17.845   2.368
53341W        W25766  43.015  26.075  14.428
53342W        W25767  36.708  28.390  14.544
53343W        W25768   2.345  38.284   1.722
53344W        W25769  20.168  24.754   4.876
53345W        W25770   1.710  20.554   1.332
53346W        W25771  44.412  40.460  12.584
53347W        W25772  27.912  14.074  14.480
53348W        W25773  41.726  12.408  11.711
53349W        W25774  18.152  33.016   1.909
53350W        W25775  20.435  29.679   4.532
53351W        W25776  37.213  18.235   2.752
53352W        W25777  38.886   9.893   3.405
53353W        W25778  41.548  16.650  12.426
53354W        W25779  42.217  37.542  11.007
53355W        W25780  18.054  21.328  13.996
53356W        W25781  11.799  28.938   0.388
53357W        W25782   7.661  36.573  12.967
53358W        W25783  39.461   0.718   0.337
53359W        W25784   4.364  41.116   1.867
53360W        W25785  32.034  31.074  14.846
53361W        W25786   8.680  36.279   4.078
53362W        W25787  20.142   1.382   3.753
53363W        W25788   6.927  19.308   4.087
53364W        W25789  21.009   3.823  12.318
53365W        W25790  26.381   2.993   2.190
53366W        W25791  38.554  24.379  12.359
53367W        W25792   8.864   7.881   0.013
53368W        W25793  26.388  31.898   4.574
53369W        W25794   5.274  26.676  11.853
53370W        W25795   6.256  34.127   3.411
53371W        W25796   3.917  11.863   3.257
53372W        W25797  13.101  10.716  13.883
53373W        W25798  10.052  26.131  13.150
53374W        W25799  36.404   2.307   3.608
53375W        W25800  44.361  14.788  13.377
53376W        W25801  18.649  21.893  12.194
53377W        W25802  37.274  15.682  14.097
53378W        W25803  34.356  25.148   3.701
53379W        W25804   6.185  18.965  12.666
53380W        W25805  41.911  32.128  11.743
53381W        W25806   7.891  31.716   2.145
53382W        W25807  28.811  35.009  11.279
53383W        W25808  34.519  42.741   0.435
53384W        W25809  16.579  23.661  11.674
53385W        W25810  22.974   3.471  13.583
53386W        W25811  12.813   6.713  13.903
53387W        W25812  21.577  16.261  11.830
53388W        W25813  21.607  10.658   4.127
53389W        W25814   3.862  38.624   4.152
53390W        W25815   1.572  11.863  11.161
53391W        W25816  11.971   3.569   2.779
53392W        W25817   7.705  23.191  13.565
53393W        W25818   1.823  15.865  13.710
53394W        W25819  12.721  22.048   1.642
53395W        W25820   7.620  32.101  11.012
53396W        W25821  34.985  40.357   4.174
53397W        W25822  36.362  20.846  14.367
53398W        W25823  23.656   1.691   4.888
53399W        W25824   5.868  18.272  13.851
53400W        W25825  13.407   7.701   0.410
53401W        W25826  27.994  19.669   1.423
53402W        W25827  14.323  38.313   0.471
53403W        W25828   3.201   6.860  10.724
53404W        W25829  25.201  41.416   2.798
53405W        W25830  32.873  40.463   3.677
53406W        W25831  42.057   6.636  11.934
53407W        W25832  37.427  24.904   1.039
53408W        W25833  26.275   4.903  11.901
53409W        W25834  41.602  22.986   5.365
53410W        W25835  13.086   2.736   2.147
53411W        W25836  14.713   8.392  11.127
53412W        W25837  44.240  13.205  11.151
53413W        W25838  22.848  16.406   2.603
53414W        W25839  41.521  10.952   4.481
53415W        W25840  44.158   6.356   0.176
53416W        W25841  16.125  43.148  11.203
53417W        W25842   2.909  18.367  13.944
53418W        W25843  16.272  10.252  12.972
53419W        W25844  19.118  30.660   3.687
53420W        W25845   1.319  20.955   1.323
53421W        W25846   6.816  34.920   4.311
53422W        W25847  25.269  41.834  13.510
53423W        W25848   9.774  32.051  14.046
53424W        W25849  12.839  35.134   3.608
53425W        W25850   3.045  12.946   4.059
53426W        W25851  42.421  36.935  13.513
53427W        W25852  38.862  25.208  14.366
53428W        W25853  25.330  38.865  12.616
53429W        W25854  39.922  20.551   2.709
53430W        W25855  34.981  37.336  12.911
53431W        W25856  33.936  24.015   1.794
53432W        W25857  26.615  23.766   2.308
53433W        W25858  43.794  15.570  12.342
53434W        W25859  10.370  39.154  13.461
53435W        W25860  25.630  44.191   4.186
53436W        W25861  19.847  37.411  12.594
53437W        W25862  19.360  43.364   4.378
53438W        W25863  11.165  32.968  11.038
53439W        W25864  35.923  32.003   1.303
53440W        W25865   0.650  24.549   5.043
53441W        W25866  27.901  29.690  12.600
53442W        W25867  39.738  27.192  14.795
53443W        W25868  37.006  43.010   2.875
53444W        W25869  20.438  38.403  13.893
53445W        W25870  29.118  34.127  11.620
53446W        W25871   7.604  20.498   3.689
53447W        W25872   8.465  34.346   2.419
53448W        W25873  27.964  26.390   3.177
53449W        W25874  37.090   0.457   0.440
53450W        W25875  33.958  31.994   0.054
53451W        W25876   7.290  42.350   3.620
53452W        W25877   6.896  20.702   0.247
53453W        W25878   3.191  23.950  11.478
53454W        W25879  17.989  12.697  13.038
53455W        W25880  44.762  18.903   1.806
53456W        W25881  17.998  42.363   3.192
53457W        W25882  25.392  44.216   2.334
53458W        W25883  40.034  18.381  13.437
53459W        W25884   7.592   2.733   4.222
53460W        W25885  23.222   5.678   1.160
53461W        W25886  18.206   5.179  13.790
53462W        W25887  27.724  36.134  13.424
53463W        W25888  13.030  39.050  13.508
53464W        W25889  11.231  11.943  12.735
53465W        W25890  38.841  33.297   3.140
53466W        W25891  27.034  34.912   2.911
53467W        W25892   9.493  28.823   4.691
53468W        W25893  24.553  42.955   2.243
53469W        W25894  18.658  39.702  11.755
53470W        W25895   5.615   7.694   3.817
53471W        W25896   0.376   9.124   1.251
53472W        W25897  41.248   7.954  13.532
53473W        W25898   0.944   6.693  13.823
53474W        W25899  39.438  40.821  11.603
53475W        W25900  36.379   8.846   2.945
53476W        W25901  15.605  22.004  14.808
53477W        W25902  23.679  16.016  14.058
53478W        W25903  25.643  31.009   2.687
53479W        W25904  24.707  14.340   0.862
53480W        W25905  41.285   8.333  12.209
53481W        W25906   8.940  32.111  10.720
53482W        W25907  12.675  17.585  11.528
53483W        W25908   6.794   5.016  11.528
53484W        W25909  16.065   0.851   1.596
53485W        W25910  22.973  12.257  13.450
53486W        W25911  15.326  22.545   2.427
53487W        W25912  14.322  28.893  12.398
53488W        W25913  35.643  12.389  12.372
53489W        W25914   2.735  18.262   3.104
53490W        W25915  29.935  42.777  10.573
53491W        W25916  41.678  14.368  14.983
53492W        W25917  25.980   3.745  14.341
53493W        W25918   7.872  16.582   3.635
53494W        W25919  36.593   0.622  11.522
53495W        W25920  42.436  16.980   0.239
53496W        W25921   0.155  15.062   0.710
53497W        W25922  40.751   6.581  11.321
53498W        W25923  31.386  27.474  13.817
53499W        W25924  11.061  24.745   0.401
53500W        W25925   7.398   9.847  14.940
53501W        W25926  29.639   6.151   0.913
53502W        W25927   8.568  28.434  13.111
53503W        W25928  25.430  18.462   9.830
53504W        W25929  38.500  11.613   3.853
53505W        W25930  21.059  22.686  13.111
53506W        W25931  15.417  26.235   0.135
53507W        W25932  17.520  12.784  10.435
53508W        W25933   0.245  41.292  12.804
53509W        W25934   3.400   7.804  12.800
53510W        W25935  34.547  34.530   2.489
53511W        W25936  27.106  38.771   1.334
53512W        W25937  19.198  28.272  14.578
53513W        W25938  27.899  12.171   2.368
53514W        W25939  13.686  31.447   1.307
53515W        W25940  28.913  43.835   2.290
53516W        W25941  22.121  18.766   1.477
53517W        W25942   4.929   5.706  10.799
53518W        W25943  42.354  39.276  11.615
53519W        W25944  36.891   3.895  11.856
53520W        W25945  39.800  30.922  12.999
53521W        W25946  13.734  11.468   0.536
53522W        W25947  40.361  15.802   0.824
53523W        W25948  25.606   2.212   2.461
53524W        W25949  21.826   3.908   4.669
53525W        W25950  24.042  12.053   2.282
53526W        W25951   5.684  42.031   4.219
53527W        W25952  41.620  30.006   4.538
53528W        W25953   0.730  31.904  12.027
53529W        W25954  38.406  18.442   1.106
53530W        W25955  22.739  37.627  11.175
53531W        W25956   8.733  25.535  13.467
53532W        W25957   8.656  24.927  13.596
53533W        W25958  17.637   6.444  13.288
53534W        W25959  26.330  41.233   2.374
53535W        W25960   4.604  39.442  12.450
53536W        W25961  32.385  10.359  11.132
53537W        W25962  19.559  32.608   2.861
53538W        W25963  11.085  26.884  12.879
53539W        W25964  33.659   0.817   0.550
53540W        W25965   1.816  12.418  10.638
53541W        W25966  31.427   3.720  11.979
53542W        W25967  24.443  16.745  14.253
53543W        W25968  39.516  21.060   3.758
53544W        W25969  24.613   4.908   1.767
53545W        W25970  31.950  12.674   2.773
53546W        W25971  37.134  37.736   4.240
53547W        W25972  20.566  24.016   2.449
53548W        W25973  39.168   6.681   4.494
53549W        W25974  24.235  13.233   1.317
53550W        W25975  23.608   0.249   3.208
53551W        W25976  29.491  38.063  14.473
53552W        W25977  41.757  28.784  12.643
53553W        W25978  14.322   1.576   2.241
53554W        W25979  35.949  40.320   1.942
53555W        W25980  10.616  12.275   4.414
53556W        W25981   4.800  29.106  10.614
53557W        W25982  20.405  16.096  12.661
53558W        W25983  33.410  30.236  12.090
53559W        W25984  40.776  40.422  12.038
53560W        W25985   0.356  28.380  12.503
53561W        W25986  30.168   1.124  10.981
53562W        W25987   7.178  23.356   3.763
53563W        W25988   4.186  21.769  11.286
53564W        W25989  21.581  36.374   0.863
53565W        W25990  27.305   0.212   3.289
53566W        W25991  29.565  13.860   4.143
53567W        W25992   8.465  31.091  10.534
53568W        W25993  42.259  36.899   0.467
53569W        W25994   9.876  28.545  12.841
53570W        W25995  40.652  24.608  11.591
53571W        W25996  31.432  35.443  12.645
53572W        W25997  31.162   8.207   1.974
53573W        W25998   5.065  41.369   1.209
53574W        W25999  36.573   3.669  13.993
53575W        W26000  38.326  13.808  14.871
53576W        W26001  44.290  41.841   4.436
53577W        W26002  14.023  36.265   4.246
53578W        W26003  23.370  35.040  11.473
53579W        W26004  20.660  24.461  11.192
53580W        W26005   6.950  17.252   4.582
53581W        W26006   5.893  14.290  13.451
53582W        W26007  20.533   3.275  11.942
53583W        W26008   1.526  30.106   0.829
53584W        W26009  16.218   8.743   1.035
53585W        W26010   7.130  26.946   1.352
53586W        W26011  29.010  19.859  14.928
53587W        W26012  21.382  38.016  10.535
53588W        W26013  25.291  30.010   2.720
53589W        W26014  26.244  25.965  11.659
53590W        W26015  16.956  34.152   1.834
53591W        W26016  37.917  35.291  13.999
53592W        W26017  20.231  13.701  12.961
53593W        W26018  32.418  23.085  12.665
53594W        W26019  12.544   0.375   1.733
53595W        W26020   9.825  29.387  14.376
53596W        W26021  42.378  37.722  14.254
53597W        W26022   7.497  18.040   2.343
53598W        W26023  31.671  23.707  10.661
53599W        W26024  22.303  39.496  10.918
53600W        W26025   6.389   7.058  11.135
53601W        W26026   0.785  19.887  14.306
53602W        W26027  21.563   8.438  10.444
53603W        W26028  26.341   6.396  11.171
53604W        W26029   8.833  24.564  10.574
53605W        W26030  38.788   2.916  12.517
53606W        W26031  36.874  31.114   4.489
53607W        W26032  44.187  17.570   4.438
53608W        W26033  19.035   1.825   1.046
53609W        W26034  39.116  43.987   0.328
53610W        W26035   7.238   4.734  14.949
53611W        W26036  35.898  21.101  14.302
53612W        W26037  21.878  42.716  10.185
53613W        W26038  31.554  12.352   2.771
53614W        W26039  39.574  29.566   2.244
53615W        W26040  44.388  36.974  12.164
53616W        W26041  26.226  26.410   5.159
53617W        W26042  39.185  44.042   3.171
53618W        W26043  41.615  19.155  12.565
53619W        W26044  16.109  22.531  14.208
53620W        W26045  28.978  21.223   2.142
53621W        W26046  18.262  17.691   3.662
53622W        W26047  39.849  15.632  11.707
53623W        W26048  39.166  32.073  10.799
53624W        W26049  17.734  37.320   0.718
53625W        W26050  43.895  42.813  11.569
53626W        W26051  36.960  41.038  12.528
53627W        W26052   3.743  36.356   3.651
53628W        W26053  36.122   3.888  13.848
53629W        W26054  36.703  12.507  13.092
53630W        W26055   7.954   7.234  14.365
53631W        W26056  20.835   7.882   1.790
53632W        W26057  11.381  15.622  14.054
53633W        W26058  35.738  19.609   0.267
53634W        W26059  12.094  23.091   2.024
53635W        W26060  16.766  24.699  10.613
53636W        W26061  30.043  25.268   3.517
53637W        W26062  30.496  24.715   1.672
53638W        W26063  44.845  44.519   1.273
53639W        W26064  33.334  33.607   3.572
53640W        W26065  11.722  24.508   1.912
53641W        W26066  31.813  32.531  14.003
53642W        W26067   6.200  39.569  10.697
53643W        W26068  30.965  37.334  14.370
53644W        W26069  33.025   2.929   2.397
53645W        W26070   0.539  33.875   2.775
53646W        W26071   7.960   0.963  10.640
53647W        W26072  31.839  36.052  11.688
53648W        W26073   5.875  30.349  12.530
53649W        W26074  35.518  19.652  14.781
53650W        W26075   0.904  42.711   4.739
53651W        W26076   5.073  25.619  11.574
53652W        W26077  31.169  41.351   2.229
53653W        W26078  28.615  44.401   4.569
53654W        W26079   7.937  25.466  12.525
53655W        W26080  33.044  38.607  10.978
53656W        W26081  44.885  19.925  11.114
53657W        W26082   9.148  24.430  13.820
53658W        W26083  19.197  25.652   0.650
53659W        W26084  34.889  29.839   1.842
53660W        W26085   5.387  36.585  14.891
53661W        W26086   2.084  35.511   3.075
53662W        W26087  37.973  33.862   3.378
53663W        W26088  19.056  29.613   3.461
53664W        W26089  16.215  44.283   2.716
53665W        W26090  42.471  11.123  14.815
53666W        W26091  13.395  12.541  12.457
53667W        W26092   1.170  42.238   0.823
53668W        W26093  16.034  14.051  14.914
53669W        W26094  23.701  35.017  10.488
53670W        W26095   7.449  43.446  11.668
53671W        W26096   7.570  37.131  10.766
53672W        W26097  37.935  25.421   1.457
53673W        W26098  25.283  42.787  12.005
53674W        W26099   4.770   1.301  10.971
53675W        W26100  40.005  19.241   4.783
53676W        W26101  13.752  23.650   2.158
53677W        W26102  21.772  11.973   5.268
53678W        W26103  22.106  22.034   3.153
53679W        W26104  30.926  39.543   0.747
53680W        W26105  32.834  32.468  13.877
53681W        W26106  27.442  31.991   4.686
53682W        W26107  21.176  13.581   0.722
53683W        W26108  27.095  13.388  11.229
53684W        W26109   9.682   8.299   2.921
53685W        W26110  35.263   2.406   0.269
53686W        W26111   7.428  35.438   3.705
53687W        W26112   0.770   7.893  12.947
53688W        W26113  13.612  24.107   3.462
53689W        W26114   2.448  20.297   4.696
53690W        W26115  44.392   7.714   4.084
53691W        W26116  34.081  17.120   1.835
53692W        W26117  16.726  31.707  13.860
53693W        W26118  26.322  43.097   4.926
53694W        W26119  31.348  37.324   1.632
53695W        W26120  20.455  38.430  12.735
53696W        W26121  25.436   6.637   0.776
53697W        W26122  22.030   1.515  13.921
53698W        W26123  21.769   3.481  12.474
53699W        W26124  29.608   4.777  12.944
53700W        W26125   6.015  33.858   0.462
53701W        W26126  25.355  18.026  12.435
53702W        W26127  40.894  18.165   2.647
53703W        W26128  18.114  40.489   4.602
53704W        W26129  44.968  20.270  14.317
53705W        W26130  18.589  19.599   1.781
53706W        W26131  30.753  31.133  13.369
53707W        W26132  17.794  31.717   2.063
53708W        W26133  13.650   1.502  11.072
53709W        W26134  42.223  43.334  11.070
53710W        W26135   4.514  20.374   4.165
53711W        W26136  25.116  27.179   0.459
53712W        W26137  18.604  23.363   1.491
53713W        W26138  17.179  14.218   4.556
53714W        W26139  14.322  25.825   1.267
53715W        W26140  30.992  30.687   3.559
53716W        W26141  18.142   2.258  11.368
53717W        W26142  40.685  25.093  13.961
53718W        W26143  29.090  17.106   4.079
53719W        W26144  44.196  40.953   0.424
53720W        W26145  44.992  18.822   2.901
53721W        W26146  36.702  11.820  11.963
53722W        W26147  32.737  35.898  12.272
53723W        W26148  42.210   0.768   1.516
53724W        W26149  20.326   2.917   1.500
53725W        W26150  16.342  17.085  12.410
53726W        W26151  21.513  41.415   0.537
53727W        W26152  42.026  19.624   2.149
53728W        W26153  27.591   2.516  12.484
53729W        W26154  40.464   9.870   2.373
53730W        W26155  21.980  23.104  13.094
53731W        W26156  44.429  21.034   4.495
53732W        W26157  11.680  35.031  10.602
53733W        W26158  12.650  11.848   2.750
53734W        W26159  27.059  30.121   3.358
53735W        W26160  33.831  11.719   0.772
53736W        W26161  21.997   0.845   2.614
53737W        W26162  22.695   9.975   4.979
53738W        W26163  35.311  21.143   0.795
53739W        W26164  12.691  24.875  11.702
53740W        W26165  18.068  41.948  14.448
53741W        W26166  32.195  14.533  13.138
53742W        W26167  40.730  32.517  11.141
53743W        W26168  11.367  32.971  13.408
53744W        W26169  21.719  20.563  14.359
53745W        W26170  42.366  31.679   3.357
53746W        W26171  15.257  32.441   2.718
53747W        W26172  15.046  29.269   1.425
53748W        W26173   2.181  28.865   1.380
53749W        W26174  25.168  26.637   3.255
53750W        W26175  15.134  29.908   3.966
53751W        W26176  13.855  13.279   2.649
53752W        W26177   2.444  33.836   1.019
53753W        W26178  34.650  34.065  13.165
53754W        W26179   9.362   3.292  13.434
53755W        W26180  40.587  41.441   0.898
53756W        W26181  13.392  18.149  11.117
53757W        W26182  32.421  25.634   2.724
53758W        W26183  39.530  43.728   3.921
53759W        W26184   9.292  32.545  12.535
53760W        W26185  24.042  15.623  13.991
53761W        W26186  18.624  26.088   4.293
53762W        W26187  15.019   3.768  11.051
53763W        W26188  19.959  34.514  13.286
53764W        W26189  12.845  44.509   0.721
53765W        W26190  42.287  32.622   1.882
53766W        W26191  31.513   1.846   2.182
53767W        W26192  12.680  11.583  11.204
53768W        W26193  37.154  24.577   1.325
53769W        W26194  10.269   1.781   4.115
53770W        W26195  19.660   6.758   3.486
53771W        W26196  27.524  17.489   3.747
53772W        W26197   6.174  19.559   0.282
53773W        W26198  40.505  26.117   3.208
53774W        W26199  15.650  14.851   1.545
53775W        W26200  34.787  17.860   2.817
53776W        W26201   5.008   1.925  14.421
53777W        W26202  27.944  29.676  11.065
53778W        W26203  42.936  23.118  12.894
53779W        W26204  13.385  37.890   0.362
53780W        W26205   4.265  37.617  11.223
53781W        W26206   4.585  20.176  11.002
53782W        W26207  26.204  12.138  13.456
53783W        W26208   4.317  41.732  12.840
53784W        W26209  35.942  13.418  10.786
53785W        W26210  12.120  15.751   0.387
53786W        W26211  35.424  13.993   1.379
53787W        W26212   3.919  33.680   1.261
53788W        W26213  43.324   3.785   2.961
53789W        W26214  41.215  41.700   1.776
53790W        W26215  20.873  10.066   4.162
53791W        W26216  35.557   7.745   2.834
53792W        W26217  44.237  37.484  12.134
53793W        W26218  34.435   7.929  12.922
53794W        W26219   0.960  35.979  10.300
53795W        W26220  20.797  25.303  13.412
53796W        W26221  37.863  11.689   0.925
53797W        W26222  37.581  40.567   3.320
53798W        W26223  14.821  11.554  12.509
53799W        W26224  23.762  19.251  11.988
53800W        W26225   0.549  29.403   1.770
53801W        W26226  16.849  31.422   1.754
53802W        W26227  14.769  44.548  10.534
53803W        W26228  33.587  16.757  12.270
53804W        W26229  28.468  19.682   1.699
53805W        W26230  19.118  35.411   3.833
53806W        W26231   5.206  14.245  11.189
53807W        W26232  15.348   5.186  14.875
53808W        W26233  43.852  20.014   9.665
53809W        W26234   9.634  19.540   2.759
53810W        W26235  18.961  30.062   3.192
53811W        W26236  33.017   2.309  13.938
53812W        W26237  10.088   4.912   1.440
53813W        W26238  29.195  28.608  14.027
53814W        W26239  38.022  25.708  13.018
53815W        W26240   5.100  25.195  14.458
53816W        W26241  21.112   1.045  13.960
53817W        W26242  29.110  15.238  11.584
53818W        W26243  38.490   0.000   2.694
53819W        W26244  13.132  37.266   4.613
53820W        W26245  20.340   7.865   1.998
53821W        W26246   2.192  12.396   3.283
53822W        W26247  32.008  19.660   0.021
53823W        W26248  20.988  35.461  14.381
53824W        W26249  29.965  21.027  14.682
53825W        W26250   6.324  33.601   0.824
53826W        W26251  20.176   5.716  10.547
53827W        W26252  16.331  13.825  13.010
53828W        W26253  12.638  10.678  14.839
53829W        W26254  20.171  15.284  14.909
53830W        W26255   7.390  33.563  13.782
53831W        W26256  17.818  39.328   1.343
53832W        W26257  36.434  23.554   2.210
53833W        W26258  26.406  31.399   3.556
53834W        W26259  41.968  23.927  11.108
53835W        W26260  24.999   8.266   4.685
53836W        W26261   6.488   5.714  11.545
53837W        W26262  15.943  13.090  13.838
53838W        W26263  24.471  32.064  12.049
53839W        W26264  13.577  14.443  11.929
53840W        W26265   4.435  39.158  12.850
53841W        W26266  20.545  25.005   0.146
53842W        W26267  40.853  25.485   1.035
53843W        W26268   5.338  20.012   1.697
53844W        W26269   2.812  21.919   4.349
53845W        W26270  35.769  25.543   0.841
53846W        W26271  17.389  29.730   3.822
53847W        W26272  12.306   7.375   3.783
53848W        W26273  34.913  44.023  12.992
53849W        W26274   0.310  27.672   2.264
53850W        W26275  18.211  33.139   1.414
53851W        W26276  14.509  13.088   2.840
53852W        W26277  13.377  35.207   0.943
53853W        W26278   9.156  32.812  11.178
53854W        W26279  40.918  30.448  13.535
53855W        W26280  15.828   4.944  14.921
53856W        W26281   2.439  12.323  13.944
53857W        W26282  33.477  33.476  13.710
53858W        W26283  28.983  25.712  11.721
53859W        W26284  24.069  43.709   1.345
53860W        W26285  38.784  12.271   4.440
53861W        W26286  24.162  26.871  14.054
53862W        W26287  42.627   7.238   2.283
53863W        W26288   7.503  17.133   2.339
53864W        W26289   0.454  27.408   2.677
53865W        W26290  27.603  15.695  13.156
53866W        W26291  34.435  29.020   0.988
53867W        W26292   3.066  29.175  12.412
53868W        W26293   9.910  35.067  14.583
53869W        W26294  19.312  35.051   4.191
53870W        W26295  39.579  36.145  13.004
53871W        W26296  10.207  23.026   4.719
53872W        W26297  21.845  19.851  11.129
53873W        W26298  23.011  34.138   0.716
53874W        W26299  25.996  44.643   3.220
53875W        W26300  33.091   0.805  14.797
53876W        W26301  10.633   0.352   1.230
53877W        W26302  10.160  22.617   0.975
53878W        W26303  16.853  25.658   1.328
53879W        W26304  24.555  34.632   0.334
53880W        W26305  43.860  11.252   3.556
53881W        W26306  20.130  42.481  14.430
53882W        W26307  15.108  10.588  12.982
53883W        W26308  21.436  22.012   2.467
53884W        W26309   7.747  44.680  11.065
53885W        W26310  38.529   9.442  12.545
53886W        W26311  14.637  12.682  13.516
53887W        W26312  42.495  14.137   3.590
53888W        W26313  20.790   5.345  14.304
53889W        W26314   0.931  24.582  14.283
53890W        W26315  24.493   6.326  12.150
53891W        W26316  22.801   1.451   3.690
53892W        W26317  23.320   1.813  11.991
53893W        W26318  34.100  12.457   0.274
53894W        W26319  40.558  20.110  13.390
53895W        W26320  17.536  31.401   3.750
53896W        W26321  23.285  39.771   3.333
53897W        W26322  44.753  14.706  11.204
53898W        W26323   7.279   5.599  10.951
53899W        W26324   3.870  44.271  10.974
53900W        W26325   3.074  25.602   2.491
53901W        W26326  32.871  28.403   3.724
53902W        W26327   5.501  36.909  14.479
53903W        W26328   1.245  24.089  13.068
53904W        W26329   8.102  23.992   2.327
53905W        W26330   4.303   6.314  10.396
53906W        W26331  28.713  22.222  13.823
53907W        W26332   3.847  26.527   4.507
53908W        W26333  21.460  41.996  13.089
53909W        W26334  33.297  23.699  14.224
53910W        W26335  21.092  44.065   0.250
53911W        W26336   0.260  41.501  14.345
53912W        W26337   5.039  31.985  11.099
53913W        W26338  13.258  21.953  12.531
53914W        W26339  30.154  29.564  13.802
53915W        W26340  28.149  41.936   4.567
53916W        W26341  10.413  41.391  14.847
53917W        W26342  22.757   4.493  11.537
53918W        W26343   5.782   8.467  14.384
53919W        W26344  26.733  32.945  12.961
53920W        W26345   9.202  29.924  10.634
53921W        W26346  30.288  12.308   0.252
53922W        W26347  34.375  18.685  10.651
53923W        W26348   1.795   3.348   4.554
53924W        W26349   2.980   1.530  14.316
53925W        W26350  26.254  10.866   1.883
53926W        W26351  31.887  26.475  14.358
53927W        W26352  12.113  19.178   2.874
53928W        W26353  29.394  44.919  10.614
53929W        W26354  30.504  37.634  14.289
53930W        W26355   2.197   4.265   0.475
53931W        W26356  10.137   4.266   3.645
53932W        W26357  31.684  41.722   3.416
53933W        W26358  24.765  33.564  14.037
53934W        W26359  25.651  36.943  14.812
53935W        W26360   0.991  41.346  10.822
53936W        W26361   0.565   1.367  14.823
53937W        W26362  37.678  14.490  13.608
53938W        W26363  15.914   8.567   2.012
53939W        W26364  15.323  14.846  10.406
53940W        W26365  32.938  17.962   1.862
53941W        W26366  16.817   6.699   2.748
53942W        W26367  25.718  34.644   4.491
53943W        W26368  33.942  23.061   2.822
53944W        W26369  11.098  23.582   1.378
53945W        W26370   8.336   0.176  13.048
53946W        W26371   9.842  43.769   4.082
53947W        W26372  43.531  41.431  10.592
53948W        W26373  44.825  23.173  13.930
53949W        W26374  34.116   4.730  13.929
53950W        W26375   8.315  31.465  14.481
53951W        W26376   2.171   0.992   1.782
53952W        W26377  20.453   1.560   1.337
53953W        W26378  23.007   0.583   2.645
53954W        W26379  44.818  23.961   4.152
53955W        W26380  28.093  10.674   2.934
53956W        W26381   1.939  21.238   0.911
53957W        W26382  40.908   9.772  11.619
53958W        W26383  22.983   9.936  14.342
53959W        W26384   5.440  15.755   3.240
53960W        W26385  29.023  40.771   0.360
53961W        W26386  33.522  10.171  10.502
53962W        W26387  26.016   0.943   3.777
53963W        W26388   4.598  41.592  13.737
53964W        W26389  24.566  16.280  14.027
53965W        W26390  21.676  32.569   0.202
53966W        W26391   1.476  18.617   2.828
53967W        W26392  28.950  11.310  12.087
53968W        W26393  20.629  21.094  14.961
53969W        W26394   6.380  36.162  13.793
53970W        W26395  37.969  11.892   4.062
53971W        W26396  23.910  23.952  12.060
53972W        W26397   7.918  19.861  13.088
53973W        W26398  29.205  27.524  14.087
53974W        W26399  27.311  44.345   2.259
53975W        W26400  21.233   1.118   5.216
53976W        W26401  21.013  10.400   3.326
53977W        W26402  20.016  19.123   2.815
53978W        W26403   7.372  40.097   3.325
53979W        W26404  14.803   4.175   2.889
53980W        W26405  13.624  14.662   4.251
53981W        W26406  25.516   0.982   3.719
53982W        W26407   5.699  32.444  10.669
53983W        W26408  30.984  10.764  13.673
53984W        W26409  39.838  30.037   1.508
53985W        W26410  43.539  19.750   0.938
53986W        W26411  29.543  11.895   2.761
53987W        W26412  15.565  42.188   0.873
53988W        W26413  28.141  39.075   3.097
53989W        W26414  21.815   8.780   1.818
53990W        W26415  19.339  27.668  11.681
53991W        W26416  36.522   4.724  13.844
53992W        W26417   3.769  25.313   0.807
53993W        W26418  36.086  19.039   4.692
53994W        W26419  30.391  35.450  12.976
53995W        W26420  42.353  24.528   3.159
53996W        W26421  33.966  13.869  11.144
53997W        W26422  44.032  25.934  11.041
53998W        W26423  34.502  25.590   3.947
53999W        W26424   8.972  41.326   2.535
54000W        W26425  19.707  19.102  12.202
54001W        W26426  37.162  10.363   0.192
54002W        W26427  14.513  39.068  11.188
54003W        W26428  12.664  20.625   1.351
54004W        W26429  20.751   6.983  11.490
54005W        W26430   0.172  21.737   4.091
54006W        W26431  41.049  16.523   1.425
54007W        W26432  14.671  35.342   0.997
54008W        W26433  29.475  21.641   5.026
54009W        W26434  15.150  13.750   1.357
54010W        W26435  31.634   1.802  12.907
54011W        W26436  25.619  16.706  12.148
54012W        W26437  11.865  21.822  14.702
54013W        W26438  33.992  36.880  13.526
54014W        W26439  34.987  26.681  13.534
54015W        W26440   9.106  25.156  14.397
54016W        W26441  37.975  29.749  14.489
54017W        W26442  17.254   3.684  13.963
54018W        W26443  13.533  31.098  11.583
54019W        W26444  30.094  12.144  13.357
54020W        W26445  44.497  20.293  14.092
54021W        W26446  43.743  21.097   3.637
54022W        W26447  35.356  36.071   2.345
54023W        W26448  17.832  14.244   0.638
54024W        W26449  38.524  26.855  14.280
54025W        W26450  44.478  37.114  13.933
54026W        W26451  11.734  41.299   2.837
54027W        W26452  16.828  29.187   0.349
54028W        W26453  41.362  11.881   0.818
54029W        W26454  24.225  29.208   4.290
54030W        W26455   1.510  16.975  10.747
54031W        W26456  19.483   5.224  14.210
54032W        W26457  35.568   7.652  12.133
54033W        W26458   5.190  25.393   4.232
54034W        W26459  30.978   2.342   2.734
54035W        W26460   4.376   0.369   3.676
54036W        W26461   1.238  37.520  14.023
54037W        W26462  30.574   7.556   1.797
54038W        W26463  19.072  12.832  14.363
54039W        W26464  29.537  23.851  11.016
54040W        W26465  42.816   2.594   1.490
54041W        W26466  31.679  36.514  13.054
54042W        W26467  20.809  22.027  11.002
54043W        W26468  15.247  22.760   1.381
54044W        W26469  17.596  16.547   3.849
54045W        W26470  32.257   4.211   2.036
54046W        W26471  23.706  41.875   3.523
54047W        W26472  35.564  31.088  12.839
54048W        W26473  43.733  34.580  14.447
54049W        W26474  30.684  32.878  12.364
54050W        W26475  30.595  36.190   4.184
54051W        W26476  44.929   9.981  11.059
54052W        W26477  14.856   6.315  11.220
54053W        W26478   2.028  37.004  13.863
54054W        W26479   2.924  12.943  12.043
54055W        W26480  20.075  33.846  12.714
54056W        W26481   0.072  29.184   4.040
54057W        W26482  44.307  37.943   0.604
54058W        W26483  18.935  36.339   2.252
54059W        W26484  29.355   2.512   1.747
54060W        W26485  11.754  12.422  13.871
54061W        W26486  11.810  32.883  14.906
54062W        W26487  36.999  24.164  12.101
54063W        W26488  12.094  42.836   2.841
54064W        W26489  22.567  29.612   0.380
54065W        W26490  34.745   1.255  12.016
54066W        W26491  40.015  37.923  14.353
54067W        W26492  14.944   8.215  11.570
54068W        W26493  32.110  10.382  14.876
54069W        W26494  23.983   9.224   4.760
54070W        W26495  11.671  39.752  13.854
54071W        W26496   0.886  18.279   1.775
54072W        W26497  37.405  31.730   4.091
54073W        W26498  13.393   6.863  10.743
54074W        W26499  21.466  31.641   3.240
54075W        W26500  37.894  13.015   2.322
54076W        W26501  12.655   2.516  11.142
54077W        W26502  11.339   3.854   2.268
54078W        W26503  43.989  11.193   2.636
54079W        W26504   7.635  26.374  11.516
54080W        W26505   7.007   0.331  12.791
54081W        W26506  38.827  13.399   2.458
54082W        W26507  44.920  20.682   3.926
54083W        W26508  19.140  37.428  13.339
54084W        W26509  25.056   7.897  12.103
54085W        W26510  30.346   1.541   1.908
54086W        W26511  42.018  13.829   4.477
54087W        W26512  12.126  44.515  12.762
54088W        W26513  20.584  21.074   4.033
54089W        W26514   0.227  21.191   2.674
54090W        W26515  10.838   5.118  10.687
54091W        W26516  24.146  22.537  13.632
54092W        W26517  41.720  18.948   9.702
54093W        W26518  28.418  24.030   5.488
54094W        W26519  20.200  44.805   1.663
54095W        W26520  10.929   7.795  12.815
54096W        W26521  32.981  17.319  13.884
54097W        W26522  39.335   1.910   1.353
54098W        W26523  43.006  19.313   4.646
54099W        W26524  24.296  36.109  11.127
54100W        W26525   7.909  28.471   3.684
54101W        W26526  38.831   9.699  11.736
54102W        W26527  19.296  26.513   3.826
54103W        W26528  17.696  22.955   3.371
54104W        W26529  19.611  12.043  14.732
54105W        W26530  32.008   6.437   2.682
54106W        W26531  25.276  33.550  14.149
54107W        W26532   5.275  10.338  13.146
54108W        W26533  14.878   2.850   3.759
54109W        W26534  16.647   3.716  13.388
54110W        W26535   1.479  18.728   2.307
54111W        W26536   2.199   3.876   2.403
54112W        W26537  42.380  12.155   1.329
54113W        W26538   6.904  19.094  14.694
54114W        W26539  33.827  19.486   1.686
54115W        W26540  41.557  32.194  12.123
54116W        W26541   8.416  33.110  12.453
54117W        W26542   6.217  17.599   1.160
54118W        W26543  34.208   3.316  14.998
54119W        W26544  11.740  17.118   0.685
54120W        W26545  37.599   6.180   2.125
54121W        W26546  18.160   7.770   1.001
54122W        W26547   4.109   6.848  13.870
54123W        W26548  24.147   3.724  11.475
54124W        W26549   4.516   3.365  12.387
54125W        W26550  24.162  25.296  10.852
54126W        W26551  14.233  22.887  14.047
54127W        W26552  14.368  20.511   3.389
54128W        W26553  44.506   8.252  11.180
54129W        W26554  41.348  18.249   0.737
54130W        W26555  11.376  28.642   3.182
54131W        W26556  29.891  14.514   1.280
54132W        W26557   8.200   5.724   3.689
54133W        W26558  40.105  13.947  11.421
54134W        W26559  16.222  39.843  11.669
54135W        W26560   9.890  21.796   3.555
54136W        W26561  26.163  42.589   9.999
54137W        W26562  30.500  10.496  10.296
54138W        W26563  33.563   5.931   4.741
54139W        W26564  23.656  16.627  11.069
54140W        W26565  28.544  44.002  10.983
54141W        W26566  36.969  39.909  10.754
54142W        W26567   4.059  11.811  13.516
54143W        W26568  24.736  13.153   4.581
54144W        W26569  43.801  40.776  11.435
54145W        W26570  29.971  20.922  10.804
54146W        W26571  14.087  18.553  14.791
54147W        W26572   8.844  20.226  13.420
54148W        W26573  14.843   9.598   2.377
54149W        W26574  12.148   5.495  11.439
54150W        W26575  44.232  30.736   0.756
54151W        W26576  11.781  17.109  12.557
54152W        W26577  21.669  38.498   1.805
54153W        W26578  27.102  14.839   1.978
54154W        W26579  44.460   1.447   0.755
54155W        W26580  12.372  41.053   1.762
54156W        W26581  29.666   5.724   3.705
54157W        W26582  23.599   3.170   2.226
54158W        W26583  28.960  15.094  13.428
54159W        W26584   7.727  36.780  11.535
54160W        W26585  42.931   9.382  14.667
54161W        W26586  19.130   4.347  13.973
54162W        W26587  35.536  18.082  12.840
54163W        W26588  40.392  38.741   1.567
54164W        W26589  31.151  25.235  12.025
54165W        W26590  21.658  24.248   4.684
54166W        W26591  39.907  21.801  14.915
54167W        W26592  44.750   6.175   1.405
54168W        W26593  33.187  23.505  10.714
54169W        W26594  18.144  32.520   2.107
54170W        W26595   7.521  17.134  12.527
54171W        W26596  11.617  38.585  12.947
54172W        W26597  40.029  10.162  13.886
54173W        W26598  14.771  15.830   1.758
54174W        W26599  17.758  42.101   2.822
54175W        W26600  18.533  33.619  10.135
54176W        W26601  40.944  44.343   2.338
54177W        W26602   6.313  28.498   1.461
54178W        W26603  39.425   8.638   1.782
54179W        W26604   6.524   3.226  10.690
54180W        W26605  21.617  35.953   0.053
54181W        W26606  31.118  38.393   4.369
54182W        W26607  15.165   7.956  13.268
54183W        W26608  11.404  10.356   3.373
54184W        W26609  23.581   3.668   2.335
54185W        W26610  38.759  31.853  14.962
54186W        W26611  23.602  26.449   3.751
54187W        W26612  39.554  19.721   2.684
54188W        W26613  41.863  40.029   2.236
54189W        W26614  41.791  26.470   1.392
54190W        W26615  10.608  34.524   3.660
54191W        W26616  27.884  24.740   1.532
54192W        W26617  16.166   7.057  11.088
54193W        W26618  27.673  17.804   0.858
54194W        W26619  36.303  15.271  12.154
54195W        W26620  27.021  32.177  11.523
54196W        W26621   4.037  26.325   0.841
54197W        W26622  37.932   7.218   3.216
54198W        W26623  24.751  21.369   4.339
54199W        W26624   9.921  37.884  11.253
54200W        W26625   0.556  43.422  11.568
54201W        W26626   0.811  27.916   4.128
54202W        W26627  31.769  33.567   0.367
54203W        W26628  22.042  20.350   0.428
54204W        W26629   3.943  37.119   0.222
54205W        W26630  36.577  11.827  11.154
54206W        W26631  12.927  37.939  14.001
54207W        W26632  41.644  28.511  13.067
54208W        W26633   7.245   0.777   4.392
54209W        W26634  17.063   5.767  14.128
54210W        W26635  11.821  23.623   3.971
54211W        W26636  43.568  24.562   0.312
54212W        W26637  12.531  22.704  13.931
54213W        W26638  39.909  44.067   1.421
54214W        W26639   9.746  29.068   0.379
54215W        W26640  31.915   2.545  14.622
54216W        W26641  17.182   8.852  12.749
54217W        W26642  29.324  24.782  13.310
54218W        W26643  19.147  28.080   1.499
54219W        W26644  13.691   7.236  13.748
54220W        W26645  44.784   1.553   1.233
54221W        W26646  44.942  13.561  12.462
54222W        W26647  43.263   7.359  13.298
54223W        W26648  33.188  38.063  13.882
54224W        W26649   8.342  31.141   4.343
54225W        W26650  23.926  23.232  14.954
54226W        W26651  28.283  35.442   1.863
54227W        W26652  44.364  18.294  13.537
54228W        W26653  37.848  24.188  10.657
54229W        W26654  35.217  12.568  11.106
54230W        W26655  23.030  33.143  14.489
54231W        W26656  42.482   4.129   2.269
54232W        W26657  23.392  15.659  12.414
54233W        W26658  10.108  40.780  11.674
54234W        W26659  33.164  26.673  11.144
54235W        W26660  15.284  31.040   3.031
54236W        W26661  13.632  26.653  12.328
54237W        W26662  21.946  15.412   0.357
54238W        W26663  25.237  24.007  11.584
54239W        W26664  35.364  14.218  11.649
54240W        W26665  34.951  37.778   2.367
54241W        W26666  34.384   0.383   4.908
54242W        W26667   0.441   8.795   4.815
54243W        W26668   9.853  17.570   3.752
54244W        W26669  44.860   1.040  12.403
54245W        W26670  21.302  43.282   2.701
54246W        W26671   8.916  10.679   2.974
54247W        W26672   1.026  27.075  10.837
54248W        W26673  20.630  22.054   2.424
54249W        W26674  23.040  13.297  13.425
54250W        W26675  34.054  23.517  10.862
54251W        W26676  11.164   6.808   3.641
54252W        W26677   1.963  13.279  11.450
54253W        W26678  39.713  35.178  13.999
54254W        W26679  19.748  17.693   0.691
54255W        W26680   5.234  35.270   1.410
54256W        W26681  41.281  39.076   3.255
54257W        W26682  29.390  37.961   2.533
54258W        W26683  37.656   0.664   5.084
54259W        W26684  14.310   8.893   2.373
54260W        W26685   1.303  13.280   4.573
54261W        W26686   1.672   5.336   0.451
54262W        W26687  35.136  21.711  14.144
54263W        W26688   3.987  32.449   1.863
54264W        W26689   2.748   2.948  13.589
54265W        W26690  29.781  32.650   0.708
54266W        W26691  25.971  22.566  10.428
54267W        W26692  27.251  26.995  14.388
54268W        W26693  41.936   5.786   1.033
54269W        W26694  33.335  29.985  10.333
54270W        W26695   0.766  30.777  13.323
54271W        W26696  24.347  19.625  14.115
54272W        W26697  27.214   0.366  12.380
54273W        W26698   2.939   1.400  11.174
54274W        W26699  44.683   6.895  13.381
54275W        W26700  31.932  30.260  11.038
54276W        W26701  13.883   5.343  13.062
54277W        W26702  36.628  35.720  10.919
54278W        W26703  23.988   6.676   4.679
54279W        W26704  41.584   8.623  14.052
54280W        W26705  15.762  35.331   2.843
54281W        W26706   8.434   3.025   3.186
54282W        W26707  33.129  44.455   1.843
54283W        W26708  16.447   6.138   0.011
54284W        W26709  10.980  10.218   0.798
54285W        W26710  14.587   0.519   0.030
54286W        W26711   6.158  26.673  13.407
54287W        W26712  37.351  26.029  14.471
54288W        W26713  20.171   4.326   3.144
54289W        W26714  20.117   0.330   0.305
54290W        W26715  14.671  28.029  12.118
54291W        W26716  27.630   6.779   0.417
54292W        W26717   7.429  15.547  12.916
54293W        W26718  11.510  14.352   2.803
54294W        W26719   0.839  12.761  11.785
54295W        W26720  18.725  16.647   0.445
54296W        W26721  22.232  16.733  11.428
54297W        W26722  18.079  32.707   3.679
54298W        W26723  11.559  35.007   2.320
54299W        W26724  37.157  36.042  11.929
54300W        W26725  30.912  39.994   2.792
54301W        W26726  35.947  41.647   4.191
54302W        W26727   2.466  19.646   1.972
54303W        W26728  34.087   2.736   3.650
54304W        W26729  20.161   7.576   3.645
54305W        W26730  36.401  20.326  14.277
54306W        W26731   2.363  11.392  12.662
54307W        W26732  22.685   2.608   2.106
54308W        W26733  22.270  32.991   2.328
54309W        W26734   9.485  16.562   2.699
54310W        W26735  29.957  25.434  13.891
54311W        W26736   8.990  30.156  12.477
54312W        W26737  26.806  28.017   1.929
54313W        W26738  34.695   8.971  14.494
54314W        W26739  18.592  35.605  11.681
54315W        W26740  16.307   7.010   3.514
54316W        W26741  28.603  41.042  14.645
54317W        W26742  41.282  23.515  13.972
54318W        W26743  41.743  28.557  13.563
54319W        W26744  15.013   2.050   0.758
54320W        W26745  40.850   5.627  13.076
54321W        W26746   7.794   1.029  11.522
54322W        W26747   2.764  40.828  13.378
54323W        W26748  39.282  29.714   1.361
54324W        W26749  42.965  37.589   4.078
54325W        W26750  18.317   9.632  12.581
54326W        W26751  23.018  30.235  13.024
54327W        W26752  16.616  20.268  13.023
54328W        W26753  18.325  19.713   0.231
54329W        W26754   4.873  31.298   2.422
54330W        W26755   2.732  43.203   1.356
54331W        W26756  28.601   4.216  13.943
54332W        W26757  44.265  39.557  12.907
54333W        W26758  40.397  31.593  12.079
54334W        W26759  14.577  30.872  14.753
54335W        W26760  42.229  36.033   2.142
54336W        W26761  16.644  13.193  14.913
54337W        W26762  35.913  34.221   0.485
54338W        W26763  43.998  30.199   2.811
54339W        W26764  26.157  33.493  11.496
54340W        W26765  27.121   4.952  13.939
54341W        W26766  20.629  34.465   0.132
54342W        W26767  17.704  31.399  11.115
54343W        W26768  14.563  32.653  11.163
54344W        W26769  34.042   1.873  12.170
54345W        W26770  30.559  34.759  11.279
54346W        W26771  13.956  34.409   3.368
54347W        W26772  37.368  19.343   3.528
54348W        W26773  40.475  18.838  13.492
54349W        W26774  15.982  40.300  13.977
54350W        W26775  29.718  16.188   4.791
54351W        W26776  29.676  14.567   2.857
54352W        W26777  36.053  18.687   4.266
54353W        W26778   5.488  10.711  12.340
54354W        W26779  44.569  28.633  11.136
54355W        W26780  30.621  30.011   3.270
54356W        W26781  41.697  38.900   5.108
54357W        W26782  10.692  38.628   3.850
54358W        W26783   4.398  37.084   0.856
54359W        W26784  44.908  40.009  10.527
54360W        W26785  37.970  33.959   3.928
54361W        W26786   6.159  44.821  14.450
54362W        W26787  38.604  41.202   2.184
54363W        W26788  39.261   4.066   3.248
54364W        W26789  15.706   2.396   2.367
54365W        W26790  26.614  11.115  14.368
54366W        W26791  19.118  25.296  11.986
54367W        W26792   7.629  38.365   1.619
54368W        W26793  25.837  40.312   2.117
54369W        W26794  28.255  27.641   1.848
54370W        W26795  40.907  19.207   4.468
54371W        W26796  29.444  32.178  13.967
54372W        W26797  24.072  34.115   3.871
54373W        W26798  10.081  24.788   2.664
54374W        W26799  29.297  44.136  10.218
54375W        W26800  39.445   9.058  13.433
54376W        W26801  39.986  43.887   2.399
54377W        W26802  12.605  17.429   0.780
54378W        W26803  41.515  41.208  10.535
54379W        W26804   7.401  11.889  13.493
54380W        W26805  31.876   3.965  12.069
54381W        W26806   2.978  32.470  12.138
54382W        W26807   9.592  17.664   4.618
54383W        W26808  19.098  21.286   1.399
54384W        W26809  43.417   6.250  11.601
54385W        W26810  29.596  24.069   3.536
54386W        W26811  12.211  26.808  14.416
54387W        W26812   5.817  39.100   4.227
54388W        W26813  20.250  19.784   2.218
54389W        W26814  31.889   4.933  10.712
54390W        W26815  41.427  14.218  13.034
54391W        W26816  34.981   7.681   4.059
54392W        W26817  41.925  41.994   1.082
54393W        W26818  14.042  28.826  13.319
54394W        W26819   1.046  30.240   1.768
54395W        W26820   3.293  11.690  13.099
54396W        W26821  14.391  43.446   0.051
54397W        W26822  28.318   5.648  12.984
54398W        W26823  13.839  42.437   0.266
54399W        W26824   4.584  43.946  12.071
54400W        W26825  33.192  27.660   4.091
54401W        W26826  30.923  13.581   4.671
54402W        W26827  25.549  10.752  12.998
54403W        W26828  31.017  14.080   4.632
54404W        W26829  41.953  26.231   4.169
54405W        W26830  18.619  30.072  11.108
54406W        W26831  39.844  12.719   2.265
54407W        W26832  34.420  24.629   0.196
54408W        W26833  20.139  24.016   3.619
54409W        W26834  22.529  11.574   2.707
54410W        W26835  41.822  37.643  13.970
54411W        W26836  37.471  35.688  12.144
54412W        W26837  24.664   9.340  12.392
54413W        W26838  20.582  39.557  13.032
54414W        W26839  38.621  27.752   3.690
54415W        W26840  36.576  18.517   1.189
54416W        W26841  13.406   4.612   9.966
54417W        W26842  36.424   3.751   1.189
54418W        W26843  15.638  25.219  12.992
54419W        W26844   1.786  10.555  10.754
54420W        W26845  18.217   8.563  11.334
54421W        W26846  21.274   0.288   0.946
54422W        W26847  41.950  15.821  13.390
54423W        W26848  19.686  14.323   2.823
54424W        W26849  38.894   6.887   1.868
54425W        W26850  26.379  35.345  11.478
54426W        W26851  39.194  28.849  11.509
54427W        W26852   3.991   3.487   1.429
54428W        W26853  35.978  21.256  13.812
54429W        W26854  15.635   6.354   3.313
54430W        W26855  44.562  40.772   2.223
54431W        W26856   7.869  39.886   3.748
54432W        W26857  30.548  26.143   1.328
54433W        W26858   6.436  34.214  14.853
54434W        W26859  11.654   7.475  14.451
54435W        W26860  14.654   1.964  10.162
54436W        W26861   4.580  20.360   0.858
54437W        W26862  40.476   3.696  13.912
54438W        W26863  32.372  39.804   4.580
54439W        W26864  26.725  21.486   1.249
54440W        W26865  31.103  14.302  10.178
54441W        W26866  16.127  27.131  11.935
54442W        W26867  10.100  44.899   4.699
54443W        W26868  16.432  28.692   2.819
54444W        W26869  15.709  39.921   1.941
54445W        W26870  36.915   0.048  11.967
54446W        W26871  19.450  35.228  11.116
54447W        W26872  20.809  12.666  10.960
54448W        W26873  44.048  25.393  11.040
54449W        W26874   0.837  36.042  12.964
54450W        W26875   9.242  18.497  12.550
54451W        W26876  10.223  23.602   4.696
54452W        W26877  44.921  40.274  10.964
54453W        W26878  30.435  37.303   3.184
54454W        W26879  13.730  14.911   2.239
54455W        W26880  12.685  32.037   4.725
54456W        W26881  21.623  12.670   2.625
54457W        W26882  17.525   9.162   0.429
54458W        W26883  30.978  37.622   0.872
54459W        W26884   9.346  26.594   1.319
54460W        W26885   7.122   9.648  13.468
54461W        W26886  35.624   1.405   2.282
54462W        W26887  16.033   2.813  13.800
54463W        W26888  32.992   4.035  13.118
54464W        W26889  24.450  35.920   3.094
54465W        W26890  24.689  17.710  11.082
54466W        W26891   8.249  18.233  11.603
54467W        W26892   4.482   6.931   4.523
54468W        W26893  40.758  29.452   1.458
54469W        W26894  14.068  16.184  14.501
54470W        W26895  43.472   9.645  11.536
54471W        W26896  44.857  42.803   1.929
54472W        W26897  30.820  41.441   3.645
54473W        W26898  11.137  21.232  11.112
54474W        W26899  14.195  38.906  11.630
54475W        W26900   4.921  18.761  13.881
54476W        W26901  30.983  18.778   2.211
54477W        W26902  24.686   5.781  13.768
54478W        W26903   1.041   3.511  11.517
54479W        W26904  20.140  43.897  12.936
54480W        W26905  23.739  11.230   0.828
54481W        W26906  14.107  20.513  13.034
54482W        W26907  29.587  20.057  11.582
54483W        W26908   6.082  19.501   4.527
54484W        W26909  41.354  15.063  13.593
54485W        W26910  35.671   6.468  11.865
54486W        W26911  17.344  12.071   3.147
54487W        W26912  21.491  29.010   1.346
54488W        W26913  20.164  44.776  14.436
54489W        W26914   6.162  21.136   2.654
54490W        W26915  37.088  35.094   2.338
54491W        W26916  26.620  30.092  13.104
54492W        W26917  14.539  39.447  11.986
54493W        W26918  33.654  10.814  10.107
54494W        W26919  28.878  35.415  11.584
54495W        W26920  13.693   6.914  12.752
54496W        W26921  40.343   1.964  11.610
54497W        W26922  17.676  23.381  14.946
54498W        W26923   2.006  11.383  11.919
54499W        W26924  39.934  17.857  11.971
54500W        W26925  15.784  12.165   2.113
54501W        W26926  16.814  33.020   0.426
54502W        W26927  43.459  20.608  14.225
54503W        W26928  35.621  16.777   4.290
54504W        W26929  35.440  29.368   0.491
54505W        W26930  19.924  37.401   2.924
54506W        W26931  17.113   5.837  11.970
54507W        W26932   1.024  43.852   4.325
54508W        W26933  24.067  10.325   4.572
54509W        W26934  23.204  35.050  11.993
54510W        W26935  40.338   6.647  14.540
54511W        W26936   0.573  25.627   2.859
54512W        W26937   4.501  43.021   0.136
54513W        W26938  26.118  35.932   1.862
54514W        W26939  42.950   2.386  14.720
54515W        W26940  38.041  39.552   2.778
54516W        W26941  42.577  39.935   2.811
54517W        W26942  19.662  23.043   0.454
54518W        W26943  43.417   3.149  12.910
54519W        W26944   5.912  13.698  14.638
54520W        W26945  36.381  11.517  14.751
54521W        W26946  12.113   7.997   4.489
54522W        W26947  18.800  37.737  14.519
54523W        W26948  23.006  32.404   2.365
54524W        W26949   2.802  11.439   3.691
54525W        W26950  29.468  27.633  12.241
54526W        W26951  28.759  20.952   3.933
54527W        W26952  28.426   7.397   2.452
54528W        W26953  30.193  18.143  14.145
54529W        W26954  28.003  29.957   0.472
54530W        W26955  40.934  24.922  11.260
54531W        W26956   5.370  41.764  10.736
54532W        W26957  35.108   4.690   3.195
54533W        W26958   9.230  42.567  13.140
54534W        W26959  16.842  12.951  12.424
54535W        W26960  28.633   2.274  14.060
54536W        W26961  24.811  22.734  12.817
54537W        W26962  39.010  33.594  12.148
54538W        W26963   7.488  34.948   2.287
54539W        W26964   9.605  20.804   0.478
54540W        W26965  10.246   7.240  13.365
54541W        W26966   1.977   0.431   2.911
54542W        W26967   2.049   0.718   4.150
54543W        W26968  42.459   2.385  12.982
54544W        W26969  36.954  17.615   3.390
54545W        W26970   1.231  27.142   1.390
54546W        W26971  13.294  10.306  12.755
54547W        W26972  13.161  24.702  11.035
54548W        W26973  22.197  38.974  10.992
54549W        W26974  34.198  24.601   3.896
54550W        W26975   2.762  44.266   0.421
54551W        W26976  23.890  24.421   0.722
54552W        W26977   5.766   7.922  10.496
54553W        W26978   7.218  23.694   2.438
54554W        W26979   8.369  37.722   0.793
54555W        W26980   3.193   6.594  13.550
54556W        W26981  39.557  41.034   2.581
54557W        W26982  39.401  17.222  14.926
54558W        W26983  11.131  28.132   1.464
54559W        W26984  41.517  42.944  12.549
54560W        W26985  27.322   0.789  10.650
54561W        W26986  18.983  44.050   0.740
54562W        W26987   8.788  28.144   2.085
54563W        W26988   5.487  21.103  11.533
54564W        W26989  21.847   7.390   4.203
54565W        W26990   0.413  25.016   2.329
54566W        W26991  30.775  17.407  14.428
54567W        W26992  27.900  28.960   0.699
54568W        W26993  17.542  41.279   3.156
54569W        W26994   1.731   4.304   4.112
54570W        W26995  22.198  30.173  11.486
54571W        W26996  26.129  22.918  11.369
54572W        W26997   3.410  13.728   4.465
54573W        W26998   2.321  15.174  14.042
54574W        W26999   1.548  39.762  13.426
54575W        W27000  19.743  14.658   4.623
54576W        W27001  15.476  42.701  10.718
54577W        W27002   2.550   7.314   3.220
54578W        W27003  22.182  14.668   1.452
54579W        W27004   8.892  24.153   2.855
54580W        W27005  41.969  10.708   1.641
54581W        W27006  34.442  27.914   0.757
54582W        W27007   6.155   3.815  14.909
54583W        W27008  29.048  22.211  12.606
54584W        W27009  43.671   3.732   0.028
54585W        W27010   9.899  40.953  10.478
54586W        W27011   1.360  22.413  14.176
54587W        W27012  33.612  34.271  14.594
54588W        W27013  38.792  31.342   3.393
54589W        W27014  28.133  43.430   2.405
54590W        W27015  18.557  32.333   0.393
54591W        W27016  20.179  10.652   2.745
54592W        W27017  43.905   5.400   4.717
54593W        W27018  15.723  43.537   2.618
54594W        W27019  14.796  18.896   2.664
54595W        W27020  20.785  31.891   5.191
54596W        W27021  21.572  13.193  13.563
54597W        W27022  22.103  31.200  14.458
54598W        W27023  25.660  38.190  12.126
54599W        W27024   2.716  24.140  14.548
54600W        W27025  32.534  16.190  12.957
54601W        W27026  14.142  13.811   3.420
54602W        W27027  11.904  36.674  14.359
54603W        W27028  11.619  17.533  11.631
54604W        W27029  38.977   2.400   0.893
54605W        W27030  16.651  11.221  13.005
54606W        W27031  44.259  42.847  14.932
54607W        W27032   6.165  26.185  12.733
54608W        W27033  13.537   2.344  14.285
54609W        W27034  18.239  39.841  13.904
54610W        W27035  12.652  28.549  13.109
54611W        W27036   7.220   4.304   0.310
54612W        W27037  36.281   9.259   2.641
54613W        W27038   7.219  23.138   4.774
54614W        W27039   6.144  43.881   5.001
54615W        W27040   7.083  41.891   3.380
54616W        W27041  31.734   9.825  13.320
54617W        W27042  31.975   8.338  14.280
54618W        W27043  41.853  23.524   2.109
54619W        W27044  42.497  44.595   0.125
54620W        W27045  40.986  27.225   3.828
54621W        W27046  31.003   0.365   4.300
54622W        W27047   7.260  44.779  11.218
54623W        W27048  41.064   3.232  14.872
54624W        W27049  29.972  40.502  13.234
54625W        W27050  29.125  37.371   4.582
54626W        W27051   7.728   4.568  14.552
54627W        W27052   0.466  33.667   3.253
54628W        W27053  15.635  38.750   1.464
54629W        W27054  43.262  27.540   3.173
54630W        W27055   3.395  29.162   4.607
54631W        W27056  25.151  17.077  11.886
54632W        W27057  13.226   2.262  11.113
54633W        W27058  17.742  11.689  14.303
54634W        W27059  13.250  10.043  10.040
54635W        W27060  23.587  25.730   2.341
54636W        W27061  20.608  43.468  10.689
54637W        W27062  14.320  18.707   2.690
54638W        W27063  11.204  29.639   1.631
54639W        W27064  21.086  43.451  13.905
54640W        W27065  18.591  37.656   0.727
54641W        W27066  18.391  21.138  10.744
54642W        W27067  21.968  23.501   0.864
54643W        W27068  37.961  30.923   0.201
54644W        W27069  29.977  42.106   3.420
54645W        W27070   9.788  16.819   4.603
54646W        W27071  28.411   1.909  12.023
54647W        W27072  23.752  14.221   4.552
54648W        W27073  10.329  42.013   0.437
54649W        W27074  25.585  33.873   4.770
54650W        W27075  23.266   3.298   3.369
54651W        W27076   3.833   2.506   2.905
54652W        W27077  18.672  28.990   4.730
54653W        W27078   0.839  43.205   0.721
54654W        W27079  23.604  21.279  13.399
54655W        W27080   7.931   2.287  13.510
54656W        W27081   6.172  41.876   4.374
54657W        W27082   5.369  12.403  10.783
54658W        W27083  19.878  41.879   4.621
54659W        W27084  18.791  33.834   3.486
54660W        W27085  14.592   9.187  14.065
54661W        W27086  44.467  12.582   4.607
54662W        W27087  23.008  38.399  10.672
54663W        W27088  16.794  36.378   4.345
54664W        W27089  12.561  27.642  13.320
54665W        W27090  14.074   0.790  12.867
54666W        W27091  29.536  24.579   3.649
54667W        W27092   3.525  18.542  12.558
54668W        W27093  19.678   5.362   0.205
54669W        W27094  19.047   9.482  12.635
54670W        W27095   5.086  22.844   5.017
54671W        W27096  29.952  22.254  12.428
54672W        W27097   3.185  40.551  13.720
54673W        W27098  22.026  23.077   1.805
54674W        W27099  41.621  13.515  11.088
54675W        W27100  29.182   9.738  12.050
54676W        W27101  13.137  12.350   3.416
54677W        W27102  34.423   8.652   2.654
54678W        W27103   5.417  18.619  10.700
54679W        W27104  29.378  24.940  12.132
54680W        W27105  41.169  16.667  13.818
54681W        W27106  40.769  37.288  13.326
54682W        W27107  42.440   0.941   4.452
54683W        W27108   0.777   5.528   3.276
54684W        W27109  33.960  23.156  12.204
54685W        W27110  28.251  44.745  11.530
54686W        W27111  14.383  29.093   4.797
54687W        W27112   2.403  32.962   0.046
54688W        W27113  13.626   2.714   2.194
54689W        W27114  36.974  24.754  10.803
54690W        W27115   6.734  17.744   2.291
54691W        W27116  34.993   6.593  14.246
54692W        W27117   6.722  33.716   2.749
54693W        W27118  34.732  34.422  13.982
54694W        W27119  33.055  34.358   1.709
54695W        W27120  40.020  30.561  13.890
54696W        W27121   5.262   8.921   0.769
54697W        W27122  12.601  36.300  13.816
54698W        W27123  17.932  38.415   0.706
54699W        W27124  11.312  11.532  14.732
54700W        W27125  33.167  38.349  14.399
54701W        W27126  38.224   0.414  12.933
54702W        W27127  32.485  26.939   1.905
54703W        W27128  21.144  16.196   4.994
54704W        W27129  37.093  43.830  14.804
54705W        W27130  11.519   4.756  13.983
54706W        W27131  20.717   6.395  14.244
54707W        W27132  40.342  42.381  13.877
54708W        W27133  32.880  16.548   0.921
54709W        W27134  29.139  25.481  12.984
54710W        W27135  44.215  12.680   2.678
54711W        W27136  35.792  37.100  14.998
54712W        W27137   3.187  20.496   4.768
54713W        W27138  20.994  34.995   3.139
54714W        W27139   9.577  23.340  14.395
54715W        W27140  24.736  35.827  11.117
54716W        W27141  41.400  37.346   2.424
54717W        W27142  17.167   1.796  10.554
54718W        W27143  22.735  43.758   2.701
54719W        W27144   1.299  38.422  12.160
54720W        W27145  35.758  26.886   4.613
54721W        W27146  37.892   4.843  12.189
54722W        W27147  18.022   9.171   0.234
54723W        W27148  18.362  16.752   4.590
54724W        W27149  16.102  41.795   4.601
54725W        W27150   3.929  39.538   2.308
54726W        W27151  39.024  40.735   3.249
54727W        W27152  12.515  40.948   2.769
54728W        W27153   4.603  44.638   5.173
54729W        W27154  35.871  15.011  14.324
54730W        W27155  27.636  22.312   4.559
54731W        W27156  30.185  41.460  10.075
54732W        W27157  38.443  39.558   3.102
54733W        W27158   0.561  28.967  14.299
54734W        W27159   0.620  30.660   9.959
54735W        W27160  44.840  30.248   2.966
54736W        W27161  37.049  32.786  11.005
54737W        W27162  12.794  35.348  14.083
54738W        W27163  33.195  11.314  13.966
54739W        W27164  26.032  10.612  13.146
54740W        W27165  24.082   9.486   4.301
54741W        W27166  32.545  13.211   2.436
54742W        W27167  37.292  16.625  14.508
54743W        W27168  39.112  15.752   4.623
54744W        W27169   8.864  24.129  11.956
54745W        W27170  41.446  10.141   5.188
54746W        W27171  20.446  33.362   2.225
54747W        W27172   7.836  34.139   1.110
54748W        W27173  36.020  20.230  13.061
54749W        W27174   2.426   1.456   3.650
54750W        W27175  39.601  43.860  11.419
54751W        W27176  42.449  33.096  12.314
54752W        W27177  30.945  41.796   2.704
54753W        W27178   3.677   2.879  12.016
54754W        W27179  38.390  42.926   5.020
54755W        W27180  43.073   2.552   2.944
54756W        W27181  43.840  43.013   2.037
54757W        W27182   3.388  26.485   1.471
54758W        W27183   1.924  20.976  14.909
54759W        W27184  32.983  37.996   0.724
54760W        W27185  36.414  10.165   3.382
54761W        W27186  23.309  34.502  14.107
54762W        W27187  22.023  17.728  13.767
54763W        W27188   9.911   2.731  13.001
54764W        W27189  14.086  35.562   2.870
54765W        W27190  40.519  20.874   3.577
54766W        W27191  16.255   7.377   1.350
54767W        W27192  41.341   3.710   1.414
54768W        W27193  14.316  30.380   2.718
54769W        W27194  34.000  39.194  13.531
54770W        W27195  39.298   6.585   1.131
54771W        W27196  14.110  33.418   3.296
54772W        W27197  41.483  29.863  13.570
54773W        W27198  24.544   5.426  14.108
54774W        W27199  28.775   3.537   4.636
54775W        W27200  16.015  41.516   2.140
54776W        W27201  10.777  22.277   0.321
54777W        W27202  25.003  17.997   4.207
54778W        W27203   6.929   1.989   1.847
54779W        W27204  19.425  28.434  10.561
54780W        W27205   6.599   6.192   4.560
54781W        W27206  29.190  34.470  11.181
54782W        W27207  21.481  36.570  11.552
54783W        W27208  28.931  18.205  14.290
54784W        W27209   4.407  33.893  10.527
54785W        W27210  41.755  18.841  11.898
54786W        W27211   3.577   5.447   4.132
54787W        W27212  33.187  35.378   2.938
54788W        W27213  37.824   4.438  12.539
54789W        W27214   1.958  37.950   3.654
54790W        W27215  43.657  28.672  11.448
54791W        W27216  16.187  23.032   2.127
54792W        W27217  13.331  29.025  10.928
54793W        W27218  26.843  18.428  13.370
54794W        W27219  32.458   4.226   4.425
54795W        W27220  21.901  37.046  14.027
54796W        W27221  38.509  39.473  10.559
54797W        W27222  33.931  35.119   0.760
54798W        W27223   6.834  12.571   4.796
54799W        W27224  38.748  39.511  14.306
54800W        W27225   4.118  41.446  14.406
54801W        W27226   9.196  33.546  13.521
54802W        W27227  21.552  23.167  10.348
54803W        W27228   9.188  17.604  13.900
54804W        W27229  15.788  14.688  12.886
54805W        W27230  20.314  34.231  12.478
54806W        W27231  28.049  31.972  14.259
54807W        W27232  29.629  27.341   0.317
54808W        W27233  21.407  40.950  11.021
54809W        W27234  14.040  34.598  12.054
54810W        W27235  40.363  41.049   3.337
54811W        W27236  27.909  18.247  14.380
54812W        W27237  29.529  41.715   2.657
54813W        W27238  33.070   2.160  12.571
54814W        W27239  13.623  27.528   3.828
54815W        W27240  15.283   9.614  11.443
54816W        W27241  43.820  34.976  11.178
54817W        W27242  12.569   2.666   2.236
54818W        W27243  30.673  30.871   2.200
54819W        W27244   4.306  28.956   2.806
54820W        W27245  44.862  19.015  14.909
54821W        W27246  29.638  21.034   0.514
54822W        W27247   1.382   6.722  14.379
54823W        W27248  15.904  38.125   4.056
54824W        W27249  40.166   4.029  14.303
54825W        W27250  43.828   1.426  10.895
54826W        W27251  31.346  43.088  12.511
54827W        W27252  19.603  44.566  13.659
54828W        W27253  28.137  29.595   4.072
54829W        W27254  42.798  13.192   3.657
54830W        W27255  11.536  18.182   4.139
54831W        W27256   0.732   9.693   0.961
54832W        W27257  13.422  15.208  10.551
54833W        W27258   1.524  26.722  12.337
54834W        W27259  15.510  19.600   2.341
54835W        W27260   3.907  28.173  14.580
54836W        W27261  16.594  28.643  12.607
54837W        W27262  38.101   4.785   1.671
54838W        W27263  29.039  10.333   1.510
54839W        W27264  16.173  19.591   1.078
54840W        W27265   5.362  38.196   3.541
54841W        W27266  14.258   4.293  11.028
54842W        W27267  44.026  34.638  10.230
54843W        W27268   5.283  43.858   0.476
54844W        W27269  44.454  15.309  13.422
54845W        W27270  44.708  39.791  12.805
54846W        W27271  27.678  35.030   0.743
54847W        W27272  12.359   1.662   0.415
54848W        W27273  29.027  20.631  14.576
54849W        W27274  26.268   3.404  11.876
54850W        W27275  43.490  39.674   2.594
54851W        W27276   0.993   4.821   3.816
54852W        W27277   3.033  15.087   3.189
54853W        W27278   2.068   8.735   0.325
54854W        W27279  31.045  20.626   1.805
54855W        W27280  12.635   0.761   0.016
54856W        W27281  12.219  20.660   3.320
54857W        W27282  41.427  24.278   0.755
54858W        W27283  17.702   9.185   1.400
54859W        W27284  31.392  11.989  12.441
54860W        W27285  12.896  32.856   3.089
54861W        W27286   2.706   5.692   1.012
54862W        W27287  28.465   0.797   0.910
54863W        W27288  25.972  21.111   2.627
54864W        W27289  20.748   9.821   9.658
54865W        W27290  19.127  42.597   3.818
54866W        W27291  38.460  36.817   0.822
54867W        W27292  14.914  23.691  12.897
54868W        W27293  32.805  41.910   2.686
54869W        W27294  39.468   2.222  14.288
54870W        W27295  25.814  37.124   0.581
54871W        W27296  20.776   3.902  10.724
54872W        W27297  42.874  34.056  13.036
54873W        W27298   6.876  16.294  14.409
54874W        W27299   2.024  41.635   4.600
54875W        W27300   6.333  41.246  11.974
54876W        W27301  36.471  22.026  12.000
54877W        W27302  11.347  28.723   0.568
54878W        W27303  44.759   4.919  13.933
54879W        W27304  22.707  40.406   4.568
54880W        W27305   2.998  30.117  10.665
54881W        W27306  44.082  13.329   4.194
54882W        W27307  18.781  22.585   5.105
54883W        W27308  39.341  39.894   3.666
54884W        W27309  10.880  21.134  10.673
54885W        W27310  41.254  37.661  14.979
54886W        W27311  20.126  37.134   1.648
54887W        W27312  36.505  42.806  12.405
54888W        W27313  38.027  21.043   2.127
54889W        W27314  39.209  27.716  12.298
54890W        W27315  31.438  25.207   0.915
54891W        W27316   0.984   1.508  10.464
54892W        W27317  13.543  26.532   3.743
54893W        W27318  14.556  35.903   0.878
54894W        W27319  44.471  28.207  12.566
54895W        W27320  35.929  36.090   0.352
54896W        W27321  25.484  18.032  13.350
54897W        W27322   9.152  37.163   3.997
54898W        W27323  15.696  44.358   1.136
54899W        W27324   0.810  10.646  12.607
54900W        W27325   6.196  42.396   2.167
54901W        W27326  37.539  12.887  14.687
54902W        W27327  27.366   9.929   5.044
54903W        W27328  21.012  29.897  13.896
54904W        W27329  32.115   3.303   2.833
54905W        W27330  33.644  38.140  13.000
54906W        W27331  10.391   3.349   3.241
54907W        W27332   8.664   8.836  13.479
54908W        W27333  43.958   0.870  14.548
54909W        W27334  29.295  33.944   3.743
54910W        W27335  29.394  16.979  10.462
54911W        W27336   8.810  19.208   2.904
54912W        W27337   3.697  39.331   1.881
54913W        W27338   1.976  35.898   1.746
54914W        W27339  25.558  44.433   0.830
54915W        W27340  31.085  20.755  14.297
54916W        W27341  20.170  26.091  12.504
54917W        W27342   4.857  19.207  11.029
54918W        W27343  24.494  37.654   3.260
54919W        W27344  12.535  43.451   2.033
54920W        W27345  27.225  17.067   3.803
54921W        W27346  10.244   8.751  14.296
54922W        W27347  44.431   7.472  10.661
54923W        W27348  38.358  13.893   0.795
54924W        W27349  15.326  13.412   0.872
54925W        W27350  42.261  13.222   2.317
54926W        W27351  32.422  17.164  13.312
54927W        W27352  17.599  20.155   0.497
54928W        W27353   0.411   4.929   2.406
54929W        W27354  38.600  10.703   0.697
54930W        W27355  41.259  10.203   2.414
54931W        W27356  23.470   8.836   4.250
54932W        W27357  15.157  17.314   3.119
54933W        W27358  42.556   1.148  13.524
54934W        W27359  37.800  38.855  12.806
54935W        W27360   2.193  25.452  13.944
54936W        W27361  24.386  21.683  13.992
54937W        W27362   0.456  24.904   3.879
54938W        W27363  19.700  13.657   3.800
54939W        W27364  24.178   0.225   2.002
54940W        W27365  22.104  43.273   3.818
54941W        W27366  26.202  21.594   3.541
54942W        W27367  41.075  36.431  14.280
54943W        W27368   2.255  11.927   4.117
54944W        W27369  41.448  38.505  12.168
54945W        W27370   1.439  35.451  11.152
54946W        W27371  39.038   8.712   5.205
54947W        W27372   1.899   2.280  10.701
54948W        W27373  37.098   0.855  12.221
54949W        W27374  44.956  41.307   1.483
54950W        W27375  17.219  41.279   3.591
54951W        W27376  15.584  25.717   2.171
54952W        W27377   0.698  19.177   2.134
54953W        W27378  15.743  31.524   1.669
54954W        W27379  18.304  26.706  11.467
54955W        W27380  19.857  10.818   3.137
54956W        W27381  20.924  16.028   2.862
54957W        W27382  38.886   7.171  13.540
54958W        W27383  43.893  40.830  12.360
54959W        W27384   1.464  29.131  14.783
54960W        W27385   4.908  32.157   0.386
54961W        W27386  23.147  42.696  14.565
54962W        W27387  22.609  26.636  12.052
54963W        W27388  24.928  10.918   0.387
54964W        W27389   7.397  18.033   4.773
54965W        W27390  22.696   5.280   3.751
54966W        W27391  17.145  27.382  14.634
54967W        W27392   9.231  14.617   4.065
54968W        W27393  12.210   9.884   1.820
54969W        W27394  27.117  28.894   1.309
54970W        W27395  31.924   0.234   3.352
54971W        W27396  37.151  10.207  11.123
54972W        W27397   6.826  36.891  14.820
54973W        W27398  30.585  34.840   2.847
54974W        W27399   5.783  21.526  13.959
54975W        W27400  41.546   8.785  12.173
54976W        W27401   7.431  30.268   3.173
54977W        W27402  26.226  30.409  12.992
54978W        W27403   9.275  10.832   1.727
54979W        W27404  18.858  27.577  14.368
54980W        W27405  18.642  11.649   5.051
54981W        W27406  37.340  18.531   0.050
54982W        W27407   6.445  33.670   5.229
54983W        W27408  31.497  44.604  11.974
54984W        W27409  41.272  22.034   2.873
54985W        W27410  15.724  37.110  12.072
54986W        W27411  37.167   8.183   0.476
54987W        W27412  18.381   6.244  11.908
54988W        W27413   8.859  28.694   0.072
54989W        W27414  40.799   9.222   0.735
54990W        W27415   9.462  27.376  11.674
54991W        W27416  43.782  32.078   3.701
54992W        W27417  32.831  23.540   3.789
54993W        W27418  32.939   5.779   2.709
54994W        W27419  35.947  21.743   3.279
54995W        W27420  22.174  22.780   2.792
54996W        W27421  26.560  31.425  11.566
54997W        W27422  27.419  32.529  12.585
54998W        W27423  18.715   8.505  11.455
54999W        W27424  36.401  25.493  13.017
55000W        W27425  25.613   5.928   4.836
55001W        W27426   0.001   4.609   2.331
55002W        W27427  10.885  16.296  10.642
55003W        W27428  38.400  17.304  14.710
55004W        W27429  10.194  16.678   1.645
55005W        W27430  11.635  38.958   2.743
55006W        W27431  10.012  14.947   0.521
55007W        W27432  21.738  40.989   3.750
55008W        W27433  16.112  15.139   0.808
55009W        W27434  33.152  27.470   1.400
55010W        W27435   2.267   4.430  12.908
55011W        W27436  32.044   8.712   0.847
55012W        W27437  36.999  41.991   3.762
55013W        W27438  11.923  43.274   0.681
55014W        W27439  30.948  25.278   3.199
55015W        W27440  40.885  42.280   0.019
55016W        W27441  14.261  21.270  10.581
55017W        W27442  40.494  22.290   4.627
55018W        W27443  13.483   9.705   0.453
55019W        W27444  26.015  37.868  14.869
55020W        W27445  41.012  19.553   0.813
55021W        W27446   5.536  22.032  10.652
55022W        W27447  18.120  29.363   2.938
55023W        W27448  30.475  40.472  11.903
55024W        W27449  14.126  37.941   0.929
55025W        W27450   4.207  21.649  14.923
55026W        W27451  33.940   1.805   1.391
55027W        W27452  26.365   2.978   3.329
55028W        W27453  32.415  33.057   4.534
55029W        W27454  29.967  41.867   2.443
55030W        W27455  16.242  15.837  11.985
55031W        W27456  23.606  15.879   0.950
55032W        W27457  44.360  26.092  11.981
55033W        W27458  37.844  40.122  14.365
55034W        W27459  14.153  20.711  13.532
55035W        W27460  27.999  12.380   3.764
55036W        W27461  33.366  19.726   1.799
55037W        W27462   6.426  44.893  12.646
55038W        W27463  29.924  35.877   2.761
55039W        W27464  25.009  43.329  13.467
55040W        W27465   5.025  40.699  13.788
55041W        W27466  14.156  28.523   3.281
55042W        W27467   5.583  21.947   2.255
55043W        W27468  14.716  22.697   1.072
55044W        W27469  12.145  20.535  14.281
55045W        W27470  25.269  22.488  13.493
55046W        W27471  15.632  19.843   0.855
55047W        W27472  43.219  39.978   0.362
55048W        W27473  20.243  27.567  11.953
55049W        W27474  37.446  23.047   2.303
55050W        W27475   3.897  10.878  11.574
55051W        W27476  30.602  25.983  10.359
55052W        W27477  15.640  18.162   0.334
55053W        W27478  27.620  13.083  13.012
55054W        W27479  29.923   1.019   0.865
55055W        W27480   5.343   4.092   0.964
55056W        W27481   1.307  41.624   0.722
55057W        W27482   9.261  39.290  12.013
55058W        W27483  15.666   4.713   5.045
55059W        W27484   1.527   7.400   0.894
55060W        W27485   1.719  42.321  13.910
55061W        W27486  31.570   1.074   2.157
55062W        W27487  37.601  17.098  13.535
55063W        W27488  14.872  34.240   2.774
55064W        W27489  16.269  35.502  14.830
55065W        W27490  35.551   8.786  11.533
55066W        W27491  27.475  17.277   3.267
55067W        W27492   8.367  44.042   1.260
55068W        W27493  37.795  44.132  10.153
55069W        W27494  21.739  37.892   4.328
55070W        W27495  39.107  12.838  11.127
55071W        W27496   9.736  40.824   1.629
55072W        W27497  43.473  28.880  11.914
55073W        W27498  21.854  15.172   4.522
55074W        W27499   4.630  25.084   2.586
55075W        W27500  28.370  31.714   1.304
55076W        W27501  28.578  10.243  12.848
55077W        W27502  42.399  25.937   0.494
55078W        W27503  17.707   2.033  10.611
55079W        W27504  21.137   1.453  10.800
55080W        W27505  29.916  30.799  11.843
55081W        W27506  24.545   0.207   0.350
55082W        W27507   9.845  25.071   3.715
55083W        W27508   7.784  32.512  14.717
55084W        W27509  35.395  26.087   4.878
55085W        W27510  36.520  20.770  14.864
55086W        W27511  26.278  44.540   4.653
55087W        W27512  40.606   1.850   0.297
55088W        W27513  20.980   3.173   2.742
55089W        W27514  23.253  10.303   0.703
55090W        W27515  20.649  36.374   0.722
55091W        W27516  15.167  18.809   0.791
55092W        W27517  41.846  32.844   2.225
55093W        W27518   1.311  38.815   1.733
55094W        W27519   3.237   9.876  14.778
55095W        W27520  16.746  24.740   0.908
55096W        W27521  24.339  38.338   0.505
55097W        W27522  39.407  30.979  12.158
55098W        W27523  26.958  40.041  14.678
55099W        W27524  34.375  39.896  12.050
55100W        W27525  37.432   4.261  11.604
55101W        W27526   0.813   8.216   2.894
55102W        W27527  42.041  40.208  13.565
55103W        W27528  27.074  17.396  12.904
55104W        W27529  44.882   0.017  12.666
55105W        W27530   5.197  18.139  10.766
55106W        W27531  41.789   5.849   2.542
55107W        W27532   8.665  37.640   4.645
55108W        W27533  32.190  42.060   1.826
55109W        W27534   0.892  22.943   4.310
55110W        W27535  13.509   8.103  13.752
55111W        W27536  13.430  12.728   0.806
55112W        W27537  34.842  14.460  12.918
55113W        W27538  11.891  20.112   3.527
55114W        W27539  20.025   6.472   0.788
55115W        W27540  19.059   2.864  10.611
55116W        W27541  32.893  25.260  11.070
55117W        W27542   5.455  13.576   1.786
55118W        W27543  37.429  17.017  11.905
55119W        W27544  19.242  21.453  14.864
55120W        W27545  39.361   1.175   2.177
55121W        W27546  38.811  19.803  11.691
55122W        W27547  27.989  31.448   0.446
55123W        W27548  29.574   8.191   4.543
55124W        W27549  13.851  12.703   3.210
55125W        W27550  17.824  31.720   9.790
55126W        W27551  24.761  21.035  10.595
55127W        W27552  25.000  11.829   0.818
55128W        W27553  38.431  15.245   0.286
55129W        W27554  10.207  29.551  13.955
55130W        W27555  27.943   9.801  10.710
55131W        W27556   0.867  17.036   2.417
55132W        W27557  24.728  35.325  12.952
55133W        W27558  25.653  32.991  13.553
55134W        W27559  29.520  32.568  10.684
55135W        W27560  43.282  27.273   2.221
55136W        W27561  17.531  28.204   5.036
55137W        W27562   2.784  36.629   2.077
55138W        W27563  37.952  43.591   0.771
55139W        W27564  14.665  42.295  12.121
55140W        W27565   8.025  29.388   0.239
55141W        W27566  15.093  19.328  14.852
55142W        W27567   5.165  33.136   4.389
55143W        W27568  10.216  30.471   3.226
55144W        W27569  25.730  17.881   0.288
55145W        W27570   4.938   6.168   2.366
55146W        W27571  25.448   1.341   3.320
55147W        W27572  10.225  41.910   3.603
55148W        W27573  10.212  37.582  10.974
55149W        W27574   2.423  30.961  11.700
55150W        W27575   0.076  27.626  12.836
55151W        W27576  41.107  20.816   3.202
55152W        W27577  11.981  35.002  14.101
55153W        W27578  39.406  26.208  11.447
55154W        W27579  22.005   7.690   2.909
55155W        W27580  39.937  42.553   2.545
55156W        W27581  22.217   9.960   4.203
55157W        W27582  38.210  34.839  14.055
55158W        W27583  32.714  18.494  13.534
55159W        W27584   6.145  31.077  13.583
55160W        W27585  42.191  39.057  13.774
55161W        W27586   6.551  19.453  11.110
55162W        W27587  41.537  32.993  12.405
55163W        W27588  29.514  30.064   3.187
55164W        W27589  44.727  32.030  11.985
55165W        W27590  17.464  17.178  12.759
55166W        W27591  39.401  34.594   3.239
55167W        W27592  30.073  16.846   0.275
55168W        W27593  33.859  25.753   2.689
55169W        W27594   0.309  25.378  12.580
55170W        W27595  35.847  21.403  12.305
55171W        W27596  27.071  42.012   0.352
55172W        W27597  11.280  32.618  11.621
55173W        W27598   1.035  27.112  13.367
55174W        W27599  39.677  25.557   0.390
55175W        W27600   8.110   6.191  13.399
55176W        W27601   1.493  10.644   3.193
55177W        W27602   2.927  27.704   1.761
55178W        W27603   5.714  17.316  11.515
55179W        W27604  15.337   1.363  13.550
55180W        W27605   6.377  29.988   3.134
55181W        W27606  21.030   7.344  11.222
55182W        W27607   8.802   3.246   1.275
55183W        W27608  41.926   5.961   0.318
55184W        W27609  37.112   9.374  13.673
55185W        W27610   8.396   6.763  12.473
55186W        W27611  28.015   6.286  10.745
55187W        W27612  21.970  44.081  11.017
55188W        W27613  42.839  32.509  10.189
55189W        W27614   5.530  42.811   4.035
55190W        W27615  26.992  17.331  13.862
55191W        W27616  31.735  14.737  14.729
55192W        W27617  41.712  20.025  10.632
55193W        W27618  19.734   9.980   3.712
55194W        W27619  38.219  24.628   4.110
55195W        W27620  20.799  16.098   1.936
55196W        W27621  44.050  30.652  10.285
55197W        W27622   5.729  24.963   0.802
55198W        W27623  28.553  17.839  12.354
55199W        W27624  38.781  39.809   2.817
55200W        W27625  31.932  26.234  10.969
55201W        W27626  22.443  40.541   2.388
55202W        W27627   6.779  40.019  11.063
55203W        W27628  39.706  42.256  10.868
55204W        W27629  40.564   6.901  14.954
55205W        W27630   7.249  32.211   3.291
55206W        W27631  36.116  18.754   3.332
55207W        W27632   3.257  16.683  12.978
55208W        W27633  12.403   9.627   0.672
55209W        W27634   4.733   3.623   3.076
55210W        W27635  36.865  37.158   1.320
55211W        W27636  16.136  27.037   1.049
55212W        W27637  36.973  22.037  12.147
55213W        W27638  38.855  40.808   3.749
55214W        W27639  26.056   8.714   2.638
55215W        W27640  18.974  43.430  11.457
55216W        W27641   3.472  34.997  13.462
55217W        W27642  32.925  13.383   4.147
55218W        W27643  15.126  16.071   0.715
55219W        W27644  20.148  23.538  12.410
55220W        W27645  15.082   3.333   3.740
55221W        W27646  19.160  13.851  14.284
55222W        W27647  28.331  18.751   2.250
55223W        W27648  36.424  29.128   3.818
55224W        W27649   2.891  34.923   0.260
55225W        W27650  34.140  31.534  14.326
55226W        W27651  12.690  37.775  14.859
55227W        W27652  37.830   9.064  12.828
55228W        W27653   6.406  33.186   3.349
55229W        W27654  23.744  30.943  13.454
55230W        W27655  11.118  37.346  10.945
55231W        W27656  29.515   5.010  13.482
55232W        W27657  22.033  20.603   4.844
55233W        W27658  10.307   2.294   4.211
55234W        W27659  20.505  12.201  14.898
55235W        W27660  10.895  34.072   3.359
55236W        W27661  17.652   5.877  10.395
55237W        W27662  16.109  29.931   4.096
55238W        W27663   7.259  19.984  12.154
55239W        W27664  21.082  38.375   3.312
55240W        W27665  22.503   5.756   1.889
55241W        W27666   6.487  33.063  14.586
55242W        W27667  15.725  39.473   4.220
55243W        W27668  36.101  40.169   0.514
55244W        W27669  21.024  17.077   4.554
55245W        W27670  16.758  41.903  14.838
55246W        W27671  30.556  12.418  13.367
55247W        W27672  18.208  18.021   1.084
55248W        W27673  17.851  41.553   1.800
55249W        W27674  37.967  20.613  13.968
55250W        W27675  24.022   9.092   0.463
55251W        W27676  15.667  15.705   4.534
55252W        W27677  40.860  21.562  10.682
55253W        W27678   7.766  36.107  14.399
55254W        W27679   5.181  31.614   2.683
55255W        W27680   7.696   5.790  10.676
55256W        W27681  30.828  12.897  12.518
55257W        W27682  23.364   4.225  11.654
55258W        W27683   3.836   4.663   0.758
55259W        W27684  39.986  38.839  13.379
55260W        W27685  43.880  39.093   2.386
55261W        W27686   9.530  24.727   1.341
55262W        W27687  35.048  28.472   3.380
55263W        W27688  31.870  40.786  13.877
55264W        W27689  18.566  30.587   1.422
55265W        W27690  28.883  20.464   9.983
55266W        W27691  42.598  28.649   0.928
55267W        W27692   4.500  24.656   2.889
55268W        W27693  32.962  44.718  12.106
55269W        W27694   0.368  17.186   4.613
55270W        W27695  32.361  30.556  11.109
55271W        W27696  40.382  36.257  11.961
55272W        W27697  30.830   1.739   1.072
55273W        W27698  12.147  22.979  12.933
55274W        W27699   2.136  17.983   1.307
55275W        W27700  25.202  14.207  14.755
55276W        W27701  33.637  18.215  12.739
55277W        W27702  41.373  44.646   2.397
55278W        W27703   6.168   1.274  11.495
55279W        W27704  41.879  15.305  11.389
55280W        W27705  41.580   7.740   4.972
55281W        W27706  16.077  23.921   4.207
55282W        W27707  23.063  26.343   0.878
55283W        W27708  42.525  26.878   1.298
55284W        W27709   6.029  22.542  12.914
55285W        W27710   9.173   7.758  14.296
55286W        W27711  13.310  15.957  11.016
55287W        W27712   2.395  26.388   5.018
55288W        W27713  40.048  43.567  13.368
55289W        W27714  44.834   4.990   0.378
55290W        W27715   4.786  19.196  11.951
55291W        W27716  35.584  17.950  14.914
55292W        W27717  28.537   1.260   4.340
55293W        W27718  10.285  37.660   9.602
55294W        W27719  41.744   2.289   3.836
55295W        W27720   8.813  31.945   0.703
55296W        W27721  28.508   5.388   2.285
55297W        W27722  42.959  37.585  13.579
55298W        W27723  43.914  21.528  12.407
55299W        W27724  24.973  25.983  14.914
55300W        W27725   2.876   4.501   2.721
55301W        W27726   3.882  38.840   1.809
55302W        W27727  34.331   4.335  12.394
55303W        W27728   2.946  34.003  11.868
55304W        W27729  34.386   1.166   0.730
55305W        W27730   8.111  24.105  12.602
55306W        W27731  41.547  44.254  13.459
55307W        W27732  14.854  13.862  11.852
55308W        W27733   6.269  28.048   2.967
55309W        W27734   6.459  16.143   3.980
55310W        W27735  15.268  14.177  14.541
55311W        W27736  15.948  31.091   4.231
55312W        W27737   8.163  38.553   3.857
55313W        W27738  23.506  17.121   1.851
55314W        W27739  17.486  38.969   4.089
55315W        W27740  34.367  21.644  13.170
55316W        W27741  21.389  21.542  12.947
55317W        W27742  43.511  37.980   1.255
55318W        W27743  11.206   6.714  14.310
55319W        W27744  20.760  41.486  14.763
55320W        W27745  11.648   7.377  12.626
55321W        W27746   6.128   6.902   3.863
55322W        W27747  30.165  11.685  13.574
55323W        W27748   4.017  15.848   3.424
55324W        W27749  17.979   7.701  11.909
55325W        W27750  28.810  41.853   3.751
55326W        W27751  17.553  40.090  13.241
55327W        W27752  13.702  11.784  11.620
55328W        W27753  15.319  43.259  11.519
55329W        W27754  33.550  38.738   3.323
55330W        W27755  26.424  30.629  10.753
55331W        W27756  10.229  11.252   3.933
55332W        W27757  31.689  41.065   4.119
55333W        W27758   1.020  10.155   4.173
55334W        W27759  23.672  37.523   4.206
55335W        W27760  28.203  32.557   4.593
55336W        W27761   3.819  44.923   1.369
55337W        W27762  15.261   8.044   0.236
55338W        W27763  11.748  25.695  13.733
55339W        W27764  25.701  10.239  13.026
55340W        W27765  22.796  36.506  12.052
55341W        W27766  35.592  36.796  13.493
55342W        W27767  36.124  33.975   3.612
55343W        W27768  29.492  40.146  14.982
55344W        W27769   7.423  13.122  10.698
55345W        W27770  38.528  16.034   9.923
55346W        W27771  42.483   7.852  12.593
55347W        W27772  26.622  22.139   3.158
55348W        W27773  43.056  24.553  12.098
55349W        W27774  25.714  20.310   1.814
55350W        W27775   5.838   0.366  11.522
55351W        W27776  44.965  23.020  14.879
55352W        W27777  24.435  32.655  11.471
55353W        W27778  11.854  38.060   0.686
55354W        W27779  15.130  37.496  11.904
55355W        W27780  34.799   0.983   1.661
55356W        W27781  41.394  31.926   2.273
55357W        W27782  30.963  25.738  10.655
55358W        W27783   3.847  12.629   1.297
55359W        W27784  16.981  31.620   3.145
55360W        W27785  43.073  35.783  10.732
55361W        W27786   4.409  19.880   4.254
55362W        W27787   1.713  37.518  11.620
55363W        W27788  44.162  14.789  13.879
55364W        W27789   9.443   9.724   3.962
55365W        W27790  40.599  35.173  14.355
55366W        W27791  39.531   2.696   0.202
55367W        W27792  39.219  18.212  11.605
55368W        W27793  35.166   1.861   0.148
55369W        W27794  19.826  26.682   1.037
55370W        W27795  22.449  15.071  14.005
55371W        W27796  43.572  28.398   3.308
55372W        W27797   1.845   6.151  11.956
55373W        W27798  29.552  18.151   3.282
55374W        W27799  13.229  10.109   0.797
55375W        W27800  38.478   5.757  13.479
55376W        W27801  40.560  10.974   4.640
55377W        W27802  34.582  15.677   4.672
55378W        W27803  32.880  29.420   3.705
55379W        W27804  22.178  37.798   1.375
55380W        W27805  10.833   6.171  11.095
55381W        W27806   9.663   7.828   4.159
55382W        W27807  21.133  42.301  13.397
55383W        W27808  32.487  25.944   1.359
55384W        W27809  35.140  14.417   3.112
55385W        W27810  26.196  12.865   2.943
55386W        W27811  34.115  42.610  14.264
55387W        W27812  31.643  22.928   9.615
55388W        W27813  32.946  31.673  12.084
55389W        W27814  18.096  39.916  12.455
55390W        W27815  28.592  35.949   0.929
55391W        W27816  12.043  15.798   4.749
55392W        W27817  13.658  41.512   1.499
55393W        W27818  18.311   6.903   1.023
55394W        W27819   1.015  35.745  11.137
55395W        W27820  43.738  39.964  13.871
55396W        W27821  31.676  16.197   2.912
55397W        W27822   3.429   1.243  12.016
55398W        W27823   2.208  10.542  13.729
55399W        W27824  24.293  36.994  11.969
55400W        W27825  11.252  12.566  14.819
55401W        W27826   5.945  24.001  11.113
55402W        W27827  37.035  28.025  14.337
55403W        W27828  35.874  29.498  12.826
55404W        W27829  13.138   9.192   2.615
55405W        W27830  43.898   6.620   1.842
55406W        W27831  22.175   9.146  13.075
55407W        W27832  14.626  18.048   2.408
55408W        W27833  14.538  24.602   4.757
55409W        W27834  41.836  13.889   0.491
55410W        W27835  23.262  44.026  10.790
55411W        W27836  43.512  10.923  11.966
55412W        W27837  16.151  20.939   0.424
55413W        W27838  23.588  23.457   1.846
55414W        W27839   7.217   6.621   2.680
55415W        W27840   8.761  14.718   1.762
55416W        W27841  43.561  15.016   4.144
55417W        W27842  23.980   1.954  12.011
55418W        W27843   5.476  22.674  13.798
55419W        W27844   8.358  30.064  13.003
55420W        W27845   2.359  36.348   1.862
55421W        W27846   3.889   8.151  11.431
55422W        W27847  35.473  36.377   4.078
55423W        W27848  29.141  23.305   4.329
55424W        W27849  15.308  26.608  14.790
55425W        W27850   1.939   2.409   2.745
55426W        W27851  28.483  34.362   4.932
55427W        W27852  41.846   2.679   0.758
55428W        W27853  17.572   2.072   3.336
55429W        W27854  36.225  41.438   4.601
55430W        W27855  12.274  24.042   1.762
55431W        W27856  22.781   1.427  14.162
55432W        W27857  22.229  31.690   0.227
55433W        W27858   3.650   2.996  12.559
55434W        W27859  36.982  22.447  14.819
55435W        W27860  20.092  15.326   2.710
55436W        W27861  37.562   2.137   2.901
55437W        W27862  26.509  26.066   2.399
55438W        W27863   7.786  16.238  12.998
55439W        W27864  19.084   1.426   2.760
55440W        W27865  43.786  27.517   3.424
55441W        W27866  25.667  32.015  12.470
55442W        W27867   6.165  15.598  11.644
55443W        W27868   6.220   0.669  13.570
55444W        W27869   9.836   8.722   4.652
55445W        W27870  40.366  39.338  11.548
55446W        W27871  39.055  26.062   1.255
55447W        W27872  34.144   7.423  12.181
55448W        W27873  36.049  40.295  12.114
55449W        W27874  10.264  30.444  11.513
55450W        W27875  39.229   1.619   3.106
55451W        W27876  40.411  12.167   0.360
55452W        W27877  41.797  30.439  11.071
55453W        W27878  43.031  13.809  10.371
55454W        W27879   6.961  15.140   1.548
55455W        W27880  25.966  43.664   2.924
55456W        W27881  15.580  41.801  12.978
55457W        W27882  25.562  39.693  10.216
55458W        W27883  39.057  34.712   4.682
55459W        W27884  29.501  37.869   3.033
55460W        W27885  35.450  29.699   0.942
55461W        W27886   5.670  30.628   0.827
55462W        W27887  22.180  42.559  10.588
55463W        W27888  26.635  31.527   4.030
55464W        W27889  35.196   6.277  11.926
55465W        W27890  40.183  25.538   0.438
55466W        W27891   2.989  10.893  12.804
55467W        W27892  20.829   1.946   0.372
55468W        W27893  38.883   2.837  11.458
55469W        W27894  15.347  11.364   0.866
55470W        W27895  27.514   5.740   1.529
55471W        W27896  23.802   3.613  13.852
55472W        W27897  24.148   7.074  11.442
55473W        W27898  30.063  28.127  14.770
55474W        W27899   6.687  28.489   0.662
55475W        W27900  18.835  37.344  13.911
55476W        W27901  17.498  12.791   2.411
55477W        W27902  11.061  27.059  14.750
55478W        W27903   6.214   9.113   2.853
55479W        W27904  15.219  32.461  11.871
55480W        W27905  12.132  41.725   0.907
55481W        W27906   0.580  38.388  10.610
55482W        W27907  44.453  16.058   0.046
55483W        W27908   9.929  43.095  12.370
55484W        W27909  10.338  30.727   0.904
55485W        W27910  29.757  40.506   2.882
55486W        W27911  12.591  37.000   0.899
55487W        W27912  13.620  25.774  11.877
55488W        W27913   2.824  31.182   2.054
55489W        W27914   2.336  36.066  12.830
55490W        W27915   5.923   4.105  11.867
55491W        W27916   9.695  26.201   4.288
55492W        W27917  35.144  33.786   3.717
55493W        W27918  27.685   0.553   3.203
55494W        W27919  27.445   4.208  11.273
55495W        W27920  24.701  39.942  12.409
55496W        W27921  25.128  40.715   0.065
55497W        W27922  40.579  34.422   3.571
55498W        W27923  24.270  43.469   1.808
55499W        W27924  35.425   7.924   4.229
55500W        W27925   1.794   9.604   2.910
55501W        W27926  24.812  44.239   3.711
55502W        W27927   5.859  10.785  13.951
55503W        W27928  22.833  32.770   1.308
55504W        W27929  19.059   3.244   0.837
55505W        W27930   2.869   6.149   4.320
55506W        W27931  22.978  16.863   3.306
55507W        W27932  25.013   9.832  14.886
55508W        W27933  42.490  22.528   2.849
55509W        W27934  14.088  44.666   3.144
55510W        W27935  13.723  16.123  13.108
55511W        W27936  29.656   0.461   0.483
55512W        W27937  12.673   1.848  11.536
55513W        W27938   5.949   4.716   0.785
55514W        W27939  18.566   0.448   2.481
55515W        W27940  37.888  40.358  13.911
55516W        W27941  30.867  13.310  13.035
55517W        W27942  33.576  19.984  10.846
55518W        W27943   1.168  33.430  13.131
55519W        W27944  39.899   9.123  10.724
55520W        W27945  39.050  14.885   4.222
55521W        W27946  34.586  29.519   0.977
55522W        W27947   9.142  34.426  11.948
55523W        W27948  42.373  17.704   0.823
55524W        W27949   6.538  17.646  14.297
55525W        W27950  13.726  18.057   2.264
55526W        W27951  33.962  30.642   1.929
55527W        W27952   0.390  10.584   1.407
55528W        W27953  11.155  41.998  12.336
55529W        W27954  11.669  32.559  14.420
55530W        W27955  19.275  40.418  12.421
55531W        W27956   1.265  18.664   4.656
55532W        W27957  32.704  27.408  11.834
55533W        W27958  14.077   2.962  14.023
55534W        W27959  15.855  19.258   3.210
55535W        W27960  20.151  17.511  12.865
55536W        W27961   3.224  35.069  13.914
55537W        W27962  22.594  19.506  11.590
55538W        W27963  42.060   8.834  13.979
55539W        W27964  28.866  35.406  13.092
55540W        W27965   5.753  32.605  12.873
55541W        W27966  25.177  42.818   3.983
55542W        W27967   8.328  18.734  13.468
55543W        W27968  43.064   2.322  12.304
55544W        W27969  34.327  12.318   3.636
55545W        W27970  30.023  20.023  14.122
55546W        W27971  32.673   7.938   4.211
55547W        W27972  16.768  18.797  10.980
55548W        W27973  17.096  15.361   5.409
55549W        W27974  43.813  35.238  11.625
55550W        W27975  16.175  11.521   3.941
55551W        W27976  27.211  22.278   0.798
55552W        W27977  35.863  19.381   1.112
55553W        W27978   2.291  20.509  10.950
55554W        W27979   8.135  18.038  10.677
55555W        W27980  32.017  10.833  14.597
55556W        W27981  35.275  43.179  12.937
55557W        W27982   7.367  44.829   2.581
55558W        W27983   8.713  20.751   3.248
55559W        W27984  17.144  11.166  10.171
55560W        W27985   6.775  11.397   4.318
55561W        W27986  28.256   6.895   2.375
55562W        W27987  35.876  14.166   0.758
55563W        W27988   4.229  40.533   4.772
55564W        W27989  30.131  25.677   3.842
55565W        W27990   2.469   8.165   4.752
55566W        W27991  26.611  24.666   1.243
55567W        W27992  41.069  32.290  11.961
55568W        W27993  33.916  26.127  11.502
55569W        W27994  12.690  22.239   5.462
55570W        W27995  17.313   8.742   2.237
55571W        W27996   7.377  31.038  14.468
55572W        W27997   1.213  42.367  13.906
55573W        W27998  38.489  33.883   4.505
55574W        W27999  21.216  16.818  11.668
55575W        W28000  32.786  43.825   0.800
55576W        W28001  11.924  33.908  14.201
55577W        W28002  28.049  14.080   1.846
55578W        W28003  32.061   4.796  12.577
55579W        W28004   8.376  39.677   2.250
55580W        W28005  26.427   6.802   1.848
55581W        W28006   1.826  43.537   2.673
55582W        W28007  20.169  27.518  12.482
55583W        W28008   6.929  32.101   0.158
55584W        W28009  42.438   7.325   0.869
55585W        W28010  12.681  12.822   4.683
55586W        W28011  15.160   1.082  10.856
55587W        W28012   7.857  42.883   0.039
55588W        W28013   8.703  33.538  14.375
55589W        W28014   0.538  22.983   2.645
55590W        W28015   0.707   3.184   1.422
55591W        W28016  16.139  31.953   9.707
55592W        W28017  22.889   0.218   0.685
55593W        W28018  44.199  39.294  10.984
55594W        W28019  43.976  37.925  12.824
55595W        W28020  11.749  11.881  11.555
55596W        W28021  40.525  44.952  10.662
55597W        W28022  38.114  23.207  14.770
55598W        W28023  27.202   8.829  10.761
55599W        W28024   6.374  11.737   0.251
55600W        W28025  11.612   3.277  10.657
55601W        W28026   9.059  40.961   0.595
55602W        W28027   4.977  23.640   4.826
55603W        W28028   0.998   8.989   1.888
55604W        W28029  25.953  23.658  14.747
55605W        W28030  17.044  19.966   3.193
55606W        W28031  12.726   2.313  10.658
55607W        W28032  20.200  42.454  13.916
55608W        W28033  27.946  35.052  11.622
55609W        W28034  20.359  30.371  14.872
55610W        W28035  21.943   4.414  14.691
55611W        W28036  36.318  14.141   2.911
55612W        W28037   1.831   8.887   4.882
55613W        W28038   4.011  32.192  12.908
55614W        W28039  12.661  42.033  14.201
55615W        W28040  29.148  27.083  10.697
55616W        W28041  38.604   1.228   0.510
55617W        W28042  23.524  32.345   3.776
55618W        W28043  15.991   6.780   2.159
55619W        W28044  21.585  43.344  13.767
55620W        W28045  16.533  26.935  12.361
55621W        W28046  14.833  37.350  12.450
55622W        W28047  17.845  28.420  12.000
55623W        W28048  23.098  20.397   4.298
55624W        W28049   2.956  13.456   3.643
55625W        W28050  18.631  39.951  10.783
55626W        W28051   4.615  19.107   2.400
55627W        W28052  37.932  17.496  13.947
55628W        W28053   8.605  21.648  10.551
55629W        W28054  21.502  43.911   1.468
55630W        W28055   2.359   5.846  11.703
55631W        W28056  11.656  12.202   1.240
55632W        W28057  18.571   6.274  12.508
55633W        W28058  27.904   9.629   4.435
55634W        W28059   2.200  35.354   4.114
55635W        W28060  43.149  10.454  12.816
55636W        W28061   2.363  13.179   2.783
55637W        W28062  37.363  23.666  13.944
55638W        W28063  23.818  19.321   3.192
55639W        W28064  41.519  14.633  13.356
55640W        W28065   9.607  30.977   3.934
55641W        W28066  29.682  13.187   5.043
55642W        W28067  43.379  32.176  14.441
55643W        W28068  17.780  41.022   1.828
55644W        W28069  22.072  30.918  11.891
55645W        W28070  30.128  31.590   1.344
55646W        W28071  39.977  10.670   2.334
55647W        W28072   9.909  40.937  13.560
55648W        W28073   6.888  41.335  13.905
55649W        W28074   5.318  17.617  11.615
55650W        W28075  35.306  34.080  11.402
55651W        W28076  43.548  42.997  11.982
55652W        W28077  41.426  30.102  11.638
55653W        W28078   7.913  11.756   4.514
55654W        W28079  23.702   0.391  12.501
55655W        W28080  33.036   6.975   0.297
55656W        W28081  20.357   4.897   0.898
55657W        W28082   1.509  11.185   3.209
55658W        W28083  40.566  17.799   4.153
55659W        W28084  43.964  35.561  14.471
55660W        W28085  26.514  11.437   4.883
55661W        W28086  37.609  23.145  14.947
55662W        W28087  20.040  19.540   4.737
55663W        W28088  41.260  23.489   4.088
55664W        W28089  30.900   9.269   3.368
55665W        W28090  26.215  15.257   4.857
55666W        W28091  10.263  10.352   2.582
55667W        W28092  13.816  22.137  13.473
55668W        W28093   7.831  27.513   0.452
55669W        W28094   3.777  40.973  10.775
55670W        W28095   4.912  34.334  11.262
55671W        W28096  13.729  38.430  11.053
55672W        W28097  43.687  39.343  11.693
55673W        W28098  35.833   3.841  10.645
55674W        W28099   1.015  25.225  11.250
55675W        W28100  22.714  11.077   0.780
55676W        W28101  21.028  26.572   0.327
55677W        W28102  28.554  41.588   2.775
55678W        W28103  14.322  17.891  11.291
55679W        W28104   1.185  14.866   1.513
55680W        W28105  40.400  42.045  12.078
55681W        W28106  16.742  29.545   3.195
55682W        W28107  22.215  18.154   0.367
55683W        W28108  10.770   9.321   3.674
55684W        W28109  37.784  36.390  11.445
55685W        W28110  40.976  43.102   0.412
55686W        W28111  33.631  11.140   4.338
55687W        W28112  24.994  13.588   4.385
55688W        W28113   1.698  44.898  11.212
55689W        W28114  17.503   1.023   1.828
55690W        W28115  27.891  23.775  14.533
55691W        W28116  36.292  10.195  11.451
55692W        W28117  33.873  39.601   0.296
55693W        W28118  17.359   6.404   2.252
55694W        W28119  38.532  39.274   1.737
55695W        W28120  22.125  15.159   1.644
55696W        W28121  18.814  27.600  11.595
55697W        W28122  43.975  37.304  10.641
55698W        W28123  22.171   5.357  11.136
55699W        W28124  42.368  23.996   3.035
55700W        W28125  21.579   8.607  14.949
55701W        W28126  30.820  41.423  10.213
55702W        W28127  13.163  38.432  13.947
55703W        W28128  14.127   9.269  13.818
55704W        W28129  32.143  22.537   4.051
55705W        W28130  20.949  33.553  12.429
55706W        W28131  21.044  27.512   1.220
55707W        W28132  32.191  43.849   1.429
55708W        W28133  29.271  23.480   3.868
55709W        W28134  16.312   9.189  10.763
55710W        W28135  13.120  21.755   2.176
55711W        W28136  13.098  29.730  13.076
55712W        W28137   5.170  31.094  13.876
55713W        W28138  37.942  33.220  12.923
55714W        W28139  20.672  10.563   1.625
55715W        W28140  34.962  18.124   3.208
55716W        W28141  28.014  38.908  14.333
55717W        W28142  31.206   7.087   4.009
55718W        W28143  32.606  32.597   0.314
55719W        W28144  43.084  42.558   4.160
55720W        W28145  28.109   0.905  13.558
55721W        W28146   6.792   8.237   3.936
55722W        W28147  21.213  23.149   4.188
55723W        W28148  23.664   7.605   3.774
55724W        W28149  13.560  19.773   4.792
55725W        W28150  13.368  28.562  11.658
55726W        W28151  44.409  27.609  14.739
55727W        W28152  21.558  16.690  14.113
55728W        W28153  23.988  24.689   2.823
55729W        W28154  37.272  34.997   4.064
55730W        W28155  19.593  18.131   3.789
55731W        W28156  40.254  30.111   1.832
55732W        W28157  24.603   3.186  11.213
55733W        W28158  26.478  34.800   5.029
55734W        W28159  32.375  26.989  10.448
55735W        W28160  12.892  39.911   2.991
55736W        W28161  14.136   7.520  14.339
55737W        W28162  11.783  10.175   0.121
55738W        W28163  27.472  38.975   4.148
55739W        W28164  32.966  38.388   4.566
55740W        W28165  11.218  37.149   5.213
55741W        W28166  13.839   8.637   2.339
55742W        W28167  32.291   2.607  12.863
55743W        W28168  34.105   7.905   0.374
55744W        W28169  21.565   6.797  12.099
55745W        W28170   3.074  10.649   0.710
55746W        W28171  11.377  21.343  10.660
55747W        W28172  33.467  32.595  13.547
55748W        W28173  38.087  30.562  13.860
55749W        W28174   2.629  24.477  13.791
55750W        W28175   6.819  31.169   4.063
55751W        W28176  25.189  43.405   3.296
55752W        W28177   9.487  33.654  13.982
55753W        W28178  41.010  10.359   2.889
55754W        W28179   9.920  30.335   0.973
55755W        W28180  11.669   5.377  12.176
55756W        W28181  18.764  35.822   1.891
55757W        W28182   8.158  38.474   2.434
55758W        W28183  32.959  39.549  12.106
55759W        W28184  37.056  31.663  12.418
55760W        W28185   6.100  25.766  11.623
55761W        W28186  19.708  22.323   2.853
55762W        W28187  43.365  33.250   2.295
55763W        W28188  31.981   8.352   4.491
55764W        W28189  38.131  37.024   1.189
55765W        W28190  16.834  24.028  10.776
55766W        W28191  27.960  27.689  14.295
55767W        W28192  40.575  12.297   3.229
55768W        W28193   0.389  13.615  11.505
55769W        W28194  17.714   7.971   3.623
55770W        W28195  26.180  23.642   2.586
55771W        W28196  22.967   8.962  11.443
55772W        W28197  11.837   5.746   2.286
55773W        W28198   6.172  24.420  13.861
55774W        W28199   0.762  37.135  11.717
55775W        W28200  11.672  36.066   2.441
55776W        W28201  28.159  27.500   0.690
55777W        W28202  22.235  14.475  14.436
55778W        W28203  11.473  32.194  12.606
55779W        W28204  31.193  18.589  12.042
55780W        W28205  37.302  29.384   4.133
55781W        W28206  42.954   5.740   4.113
55782W        W28207  17.735  34.442  13.733
55783W        W28208  44.842  12.118  12.357
55784W        W28209   1.938  34.312  12.044
55785W        W28210  32.330  38.702   3.787
55786W        W28211  25.105  29.240  13.408
55787W        W28212   2.284  35.713   2.178
55788W        W28213  10.790  19.984   0.860
55789W        W28214  10.613  11.219   3.023
55790W        W28215  32.506   1.984  10.497
55791W        W28216  17.424   2.033  12.860
55792W        W28217   4.220  41.370   1.452
55793W        W28218  25.015  24.107   0.284
55794W        W28219  44.345  40.924  11.274
55795W        W28220  39.009  30.608   4.988
55796W        W28221  38.888  29.519  13.975
55797W        W28222  35.643  28.057  13.002
55798W        W28223   8.397  22.485   4.603
55799W        W28224  37.580  36.006   2.329
55800W        W28225  11.621  31.019   1.507
55801W        W28226   1.606  28.573  11.245
55802W        W28227  23.491  30.682  11.939
55803W        W28228  19.720  35.013  10.700
55804W        W28229  40.988  21.594   4.113
55805W        W28230  31.978  17.848   3.379
55806W        W28231  22.741  20.094   4.097
55807W        W28232  33.917  43.915  12.272
55808W        W28233  14.151  31.075  12.803
55809W        W28234  10.508   7.920   2.455
55810W        W28235  18.664  35.526   4.126
55811W        W28236  27.420  34.273  13.822
55812W        W28237  25.265   2.363  14.019
55813W        W28238  27.721  23.691   3.973
55814W        W28239  19.009  26.938  13.918
55815W        W28240  32.096  32.341  14.381
55816W        W28241  31.467  42.485  10.519
55817W        W28242  16.721   1.815  13.346
55818W        W28243   6.369   4.659  13.548
55819W        W28244  29.266  22.190  10.165
55820W        W28245  43.052  39.013  14.691
55821W        W28246  13.658  43.747   3.652
55822W        W28247  40.511  36.252   2.419
55823W        W28248  18.195  26.631  14.746
55824W        W28249   0.883  42.514   3.822
55825W        W28250  36.400  24.639   3.010
55826W        W28251  21.506  26.509   2.921
55827W        W28252  15.797  31.491  14.742
55828W        W28253  44.667  23.088   2.311
55829W        W28254  40.119  41.431  13.813
55830W        W28255  32.160  34.432  14.453
55831W        W28256  33.855  26.582  14.238
55832W        W28257  29.700   3.269  12.072
55833W        W28258  36.465  18.392   0.291
55834W        W28259  13.534  19.668  13.106
55835W        W28260  41.314  39.732   4.432
55836W        W28261  20.054  31.457  13.478
55837W        W28262  34.483  15.108  11.148
55838W        W28263  43.479   6.895  13.369
55839W        W28264  35.038  43.473   1.725
55840W        W28265  23.084  27.365  12.944
55841W        W28266  17.635  28.719   4.144
55842W        W28267   0.805  29.959   1.359
55843W        W28268  27.559   3.539  12.803
55844W        W28269  32.523  23.028  11.384
55845W        W28270  17.742   4.937  14.285
55846W        W28271  37.305  21.548   0.892
55847W        W28272  44.575  43.312  13.334
55848W        W28273  42.394   2.155   0.382
55849W        W28274   9.456  34.124   2.266
55850W        W28275  41.852  20.981  10.685
55851W        W28276  17.902  26.576   3.362
55852W        W28277  37.498  42.509   3.346
55853W        W28278  14.422  34.259   5.704
55854W        W28279   8.128  32.179   5.050
55855W        W28280  38.103  35.424   0.720
55856W        W28281  17.017  16.665   1.411
55857W        W28282  43.393  10.334   4.272
55858W        W28283  36.499  19.792  11.584
55859W        W28284  41.917  18.069  12.350
55860W        W28285  20.165  19.713  11.634
55861W        W28286  32.720  20.601   4.055
55862W        W28287  13.087  12.290  14.937
55863W        W28288  41.839   3.598  14.238
55864W        W28289  40.958  39.995  14.882
55865W        W28290  10.604  27.265  14.573
55866W        W28291  13.411  31.200  14.330
55867W        W28292  25.775   1.767   2.279
55868W        W28293  18.112   2.088   0.610
55869W        W28294  35.115  13.887   0.176
55870W        W28295   6.812  36.481   4.072
55871W        W28296   4.325  29.441  13.613
55872W        W28297  34.151  26.119   3.517
55873W        W28298  31.808  12.409  13.415
55874W        W28299  10.699  36.124   0.838
55875W        W28300  43.832   8.906   2.687
55876W        W28301  29.370   9.561  13.647
55877W        W28302  36.972  18.171  13.289
55878W        W28303  23.714  40.508   3.633
55879W        W28304  24.101  20.176  12.942
55880W        W28305  43.367  33.858  11.762
55881W        W28306  32.565   4.820   2.636
55882W        W28307  27.391  33.410   1.524
55883W        W28308   6.429  12.254  14.921
55884W        W28309  25.677  33.023   3.299
55885W        W28310  14.861   1.106  13.385
55886W        W28311  26.175  26.219  11.139
55887W        W28312  22.658  41.503  12.693
55888W        W28313  25.787   6.970  14.484
55889W        W28314  38.276  14.765   0.427
55890W        W28315  32.854  33.540   3.306
55891W        W28316   8.958  11.540   1.311
55892W        W28317  38.315  44.987  13.943
55893W        W28318  23.635  21.788  13.563
55894W        W28319  34.684  11.069   1.684
55895W        W28320  11.912  41.808   2.802
55896W        W28321  38.071   1.006   4.964
55897W        W28322  38.490   5.884   1.177
55898W        W28323  33.016  25.580   2.874
55899W        W28324  41.333  21.820   2.363
55900W        W28325  11.176  33.714  12.450
55901W        W28326  11.623  40.716   2.370
55902W        W28327  13.316   5.248   0.996
55903W        W28328  18.982  30.356   4.588
55904W        W28329  10.319  40.338   4.786
55905W        W28330   9.067  27.251   3.707
55906W        W28331  21.610  32.914   4.111
55907W        W28332  44.959   6.415  14.793
55908W        W28333  38.824  17.733   2.238
55909W        W28334  27.613  15.535  14.897
55910W        W28335  35.309   1.759  13.898
55911W        W28336  18.141  44.319   2.740
55912W        W28337  41.247  28.536  13.410
55913W        W28338  20.095  27.105  14.599
55914W        W28339  37.087  26.020   4.003
55915W        W28340  17.027  22.669   3.780
55916W        W28341   3.418  29.462  13.573
55917W        W28342  29.703  12.352   1.884
55918W        W28343  25.633  41.605  10.787
55919W        W28344   6.722  33.496  14.376
55920W        W28345  39.656  20.554   3.160
55921W        W28346  18.495  43.252  14.480
55922W        W28347  14.775  40.605  13.526
55923W        W28348   6.635  29.960  10.656
55924W        W28349  19.559   8.681   3.267
55925W        W28350   2.492  27.149  10.474
55926W        W28351  24.584  19.060  14.762
55927W        W28352  32.203  28.472  10.996
55928W        W28353  38.903   4.217   0.955
55929W        W28354  17.001  27.616  13.369
55930W        W28355  37.056  21.502  14.706
55931W        W28356  26.735  39.449   4.208
55932W        W28357   4.900  20.122   0.510
55933W        W28358  26.736  30.558  12.886
55934W        W28359  26.161   2.784   3.805
55935W        W28360  28.072   2.720   4.043
55936W        W28361  31.894  30.066   4.397
55937W        W28362  39.083  35.125  14.853
55938W        W28363   2.739  21.862  11.186
55939W        W28364  31.982  29.470   3.862
55940W        W28365  37.468   8.702   1.895
55941W        W28366  15.719  14.181  10.184
55942W        W28367   8.580  11.222   0.569
55943W        W28368  43.742  17.648  14.193
55944W        W28369  33.819  19.100   2.426
55945W        W28370  15.539   6.234  12.489
55946W        W28371  13.216  27.461   4.918
55947W        W28372   6.008   2.010   4.630
55948W        W28373  41.293  13.754   3.287
55949W        W28374  21.243   9.285  10.049
55950W        W28375  43.073  12.123   0.883
55951W        W28376  28.952  21.525   0.749
55952W        W28377  21.327  12.208  14.282
55953W        W28378  42.838  34.378   0.984
55954W        W28379   9.774  42.631  10.502
55955W        W28380   6.443   1.250  12.802
55956W        W28381  23.536  26.687  12.111
55957W        W28382  17.464  17.293  11.399
55958W        W28383  28.527  29.186   3.830
55959W        W28384  35.612  43.074   2.614
55960W        W28385   7.660   3.463   3.860
55961W        W28386  34.403  30.700   1.679
55962W        W28387  24.475   9.152   4.548
55963W        W28388   9.692  42.284  12.382
55964W        W28389  21.123  33.674  13.279
55965W        W28390  34.026  38.099   0.313
55966W        W28391  34.041   8.373  14.447
55967W        W28392  15.192  34.027  12.163
55968W        W28393  21.628  42.937  13.467
55969W        W28394  16.695  29.583  11.191
55970W        W28395  17.699  10.724   1.761
55971W        W28396  13.503  36.921   4.543
55972W        W28397  23.266  19.699   3.613
55973W        W28398  39.808  35.276  13.259
55974W        W28399  14.771  31.460  14.834
55975W        W28400   1.922   2.947   2.725
55976W        W28401  30.012   5.994  13.019
55977W        W28402  27.543   6.058  13.308
55978W        W28403   3.943  41.768  10.401
55979W        W28404  14.329  13.839  11.592
55980W        W28405  21.493  17.506  12.000
55981W        W28406  37.716  10.392   2.724
55982W        W28407  44.217   6.137   3.305
55983W        W28408   9.798  39.057   4.331
55984W        W28409  14.839   5.230  12.185
55985W        W28410   2.204  28.948  10.785
55986W        W28411  35.070   7.388   5.457
55987W        W28412  16.639  21.689  13.000
55988W        W28413   6.344  11.674  14.246
55989W        W28414  12.898   4.097   2.568
55990W        W28415  25.543  18.080  10.218
55991W        W28416   1.762   1.800   1.890
55992W        W28417  15.379  41.890   0.500
55993W        W28418  44.040  24.497  12.032
55994W        W28419  24.245  16.382   1.718
55995W        W28420   4.526  30.975   4.156
55996W        W28421  20.432   9.188   4.129
55997W        W28422   7.847   7.017  10.712
55998W        W28423  21.343   1.962   0.351
55999W        W28424  24.956  28.939   1.256
56000W        W28425  33.292  35.175  14.942
56001W        W28426  41.737   2.550  10.697
56002W        W28427  10.078  41.207   1.689
56003W        W28428  42.567  37.000   2.669
56004W        W28429  31.555  36.555  10.446
56005W        W28430   6.303  43.390   3.646
56006W        W28431  31.717   8.782   2.673
56007W        W28432  25.595  28.394  11.031
56008W        W28433  24.200   1.408  14.282
56009W        W28434  44.783   7.207   0.422
56010W        W28435  41.236  12.057   4.548
56011W        W28436   2.825  35.382   3.190
56012W        W28437  30.814  40.014  10.151
56013W        W28438  44.263  17.929   3.215
56014W        W28439  15.183  44.422  14.321
56015W        W28440  21.514  29.994  10.679
56016W        W28441  13.401   8.935   2.232
56017W        W28442  39.538   2.841   2.817
56018W        W28443  37.473  12.738   0.690
56019W        W28444   3.519  26.911   1.839
56020W        W28445  31.390   0.166   3.542
56021W        W28446  18.166  16.787  11.245
56022W        W28447  26.557  28.483  14.926
56023W        W28448  20.005  13.262   3.916
56024W        W28449  37.515  35.168  11.378
56025W        W28450  23.601  34.292  12.009
56026W        W28451   3.200  42.350   3.562
56027W        W28452  19.836   1.439   3.311
56028W        W28453  21.988   5.292  10.659
56029W        W28454  24.961  25.753   1.236
56030W        W28455  25.666   9.794  13.291
56031W        W28456  44.386  28.866   3.676
56032W        W28457  43.761  20.648   1.952
56033W        W28458   3.490  30.014  12.389
56034W        W28459  22.646   1.238  13.276
56035W        W28460  42.469   4.967   1.874
56036W        W28461  10.192   2.530   1.148
56037W        W28462  25.739   1.749   3.164
56038W        W28463  39.507  43.436   2.675
56039W        W28464  37.955  16.242   2.622
56040W        W28465  15.139  12.073  11.983
56041W        W28466  15.434   0.195   4.130
56042W        W28467  39.208   5.347   0.879
56043W        W28468  12.642  30.323   1.340
56044W        W28469  19.054  13.295  12.569
56045W        W28470  11.143   8.790   0.789
56046W        W28471  40.182  38.969   4.902
56047W        W28472   8.914   0.839  14.795
56048W        W28473   7.967  13.235  14.356
56049W        W28474  32.395  32.182   3.981
56050W        W28475   4.729   7.708   0.771
56051W        W28476  31.340  22.301  13.019
56052W        W28477  41.842  42.409   1.415
56053W        W28478  42.567  28.953  12.050
56054W        W28479  22.092  39.752  12.334
56055W        W28480  37.450  27.991   0.246
56056W        W28481  37.043   5.857   4.164
56057W        W28482  12.089  18.838   4.176
56058W        W28483  44.482  12.839  14.493
56059W        W28484  14.047  10.657  12.416
56060W        W28485  14.324   9.683   2.774
56061W        W28486  20.071  41.961  14.396
56062W        W28487  29.135   6.895   1.414
56063W        W28488  38.106  20.120  11.288
56064W        W28489   2.761  34.050   4.944
56065W        W28490  36.463  21.997   4.195
56066W        W28491  42.850   1.156  11.944
56067W        W28492   8.441  26.242  12.501
56068W        W28493  10.772   9.845   3.567
56069W        W28494  21.695  40.534  14.747
56070W        W28495  31.090  38.389  13.381
56071W        W28496  15.174   2.541  12.455
56072W        W28497   0.430  35.827  11.761
56073W        W28498  44.179  19.142   0.490
56074W        W28499  44.824  37.291   0.688
56075W        W28500  33.236  21.173   1.097
56076W        W28501   5.141  14.585  13.258
56077W        W28502  23.045  44.845   1.372
56078W        W28503  23.246  26.433  13.918
56079W        W28504  27.787   3.504  12.358
56080W        W28505  41.952  32.950   3.407
56081W        W28506  12.091  40.988   3.082
56082W        W28507  15.297  31.472  14.887
56083W        W28508   2.894  12.607   3.290
56084W        W28509  16.017   1.826   4.317
56085W        W28510  16.826   9.710   0.041
56086W        W28511  11.350  40.090  14.336
56087W        W28512   3.218  16.196   0.771
56088W        W28513  30.396   8.322   2.213
56089W        W28514  15.301  40.960  14.011
56090W        W28515  11.789   3.712   0.399
56091W        W28516  16.572  20.284  12.071
56092W        W28517  40.268  16.682  14.368
56093W        W28518  13.744  43.648  12.488
56094W        W28519  10.391  12.740   1.668
56095W        W28520  42.949  27.225   2.857
56096W        W28521  18.396   5.322  13.290
56097W        W28522  21.047  32.862   4.074
56098W        W28523  39.768  18.071  14.989
56099W        W28524  40.973  18.383  12.364
56100W        W28525  18.752  10.227   0.204
56101W        W28526   6.228  36.526   3.878
56102W        W28527  35.984  26.094   3.180
56103W        W28528  15.404  25.653   3.670
56104W        W28529  15.568  23.679  11.254
56105W        W28530  13.175  32.044   2.124
56106W        W28531  29.606  30.667  12.993
56107W        W28532  25.701  44.444  14.409
56108W        W28533  31.008  32.436   4.110
56109W        W28534  23.710  11.635   4.354
56110W        W28535   4.846  14.842  12.839
56111W        W28536  25.629  16.831   4.442
56112W        W28537   9.911   7.220  10.555
56113W        W28538  28.906  34.963   3.050
56114W        W28539   9.378  12.388  13.943
56115W        W28540   5.394  21.405   4.226
56116W        W28541  36.692  41.806   0.487
56117W        W28542  24.507   6.688   0.718
56118W        W28543  44.282  21.167  11.082
56119W        W28544  10.742  38.444  14.054
56120W        W28545  39.835  22.672   0.035
56121W        W28546  14.488  16.745   0.404
56122W        W28547  23.702   3.340  11.430
56123W        W28548  43.967  33.029   0.248
56124W        W28549   9.565  23.696  12.896
56125W        W28550  25.737   4.445   4.588
56126W        W28551  25.059   3.567  10.221
56127W        W28552  23.654  21.854   2.695
56128W        W28553  35.025  38.311  13.077
56129W        W28554  35.115  16.818  13.451
56130W        W28555  25.511  16.671  12.651
56131W        W28556  31.958  13.126  11.171
56132W        W28557  10.511  24.290  12.804
56133W        W28558  28.983  21.936  13.070
56134W        W28559  16.689  20.462  14.855
56135W        W28560  35.418  22.084   2.693
56136W        W28561   4.058  38.184  14.483
56137W        W28562  28.558  28.913   4.254
56138W        W28563  44.215   2.860   5.047
56139W        W28564  24.433  19.122  14.280
56140W        W28565  15.512  35.122  13.454
56141W        W28566  16.660   8.481   2.679
56142W        W28567  36.115  27.699  11.110
56143W        W28568  31.033  13.972   0.865
56144W        W28569   7.183  37.348  12.467
56145W        W28570  24.937  26.402  11.133
56146W        W28571  37.425  10.132  11.586
56147W        W28572  34.706  25.154   4.318
56148W        W28573  15.076  27.078  13.848
56149W        W28574   1.501   5.767  12.019
56150W        W28575  37.459  17.889   4.520
56151W        W28576  35.698  41.575  12.428
56152W        W28577  38.999  24.177   2.541
56153W        W28578   4.838  34.374  14.869
56154W        W28579  35.554  41.443  13.606
56155W        W28580  14.150   7.838  14.739
56156W        W28581   1.824  24.741  14.329
56157W        W28582  16.614  19.647   4.391
56158W        W28583  36.293   7.153   2.857
56159W        W28584  17.987  30.009   2.995
56160W        W28585  34.649  38.021   0.458
56161W        W28586  28.641  38.070   3.296
56162W        W28587   1.396  38.912  12.371
56163W        W28588  33.641  33.168  12.483
56164W        W28589  32.646  24.436   2.403
56165W        W28590  12.725  19.469   4.223
56166W        W28591  34.851   9.259  14.884
56167W        W28592  36.335  12.153   4.803
56168W        W28593  39.550  35.840  11.503
56169W        W28594  38.297  26.944  11.969
56170W        W28595  39.326  19.047  13.948
56171W        W28596   4.630  36.759  12.544
56172W        W28597  29.955   6.326  11.132
56173W        W28598   4.449  16.576  13.982
56174W        W28599  37.199  33.354  13.362
56175W        W28600  30.178  34.590  10.955
56176W        W28601   2.274  32.552  14.717
56177W        W28602   6.980  31.533   3.732
56178W        W28603  44.653  44.607   0.787
56179W        W28604  26.210  35.038  13.889
56180W        W28605   2.808  43.357  12.978
56181W        W28606  15.874  18.171   0.798
56182W        W28607   7.079  31.414  12.637
56183W        W28608  44.694  43.011   2.425
56184W        W28609  27.583  20.005   1.428
56185W        W28610  20.439  21.140   2.770
56186W        W28611  23.199  41.290  11.533
56187W        W28612   8.757   3.985  12.873
56188W        W28613  37.024  28.381   0.834
56189W        W28614  14.216   6.349   1.196
56190W        W28615  11.967  21.173   4.924
56191W        W28616   7.336   4.137  12.135
56192W        W28617  20.323  22.579   4.016
56193W        W28618   1.203  15.366   1.345
56194W        W28619  20.663   8.178  13.895
56195W        W28620  33.760  11.420  13.044
56196W        W28621   8.743   0.208  14.268
56197W        W28622  44.434   8.923   1.915
56198W        W28623   9.896  20.969  12.479
56199W        W28624  19.498   9.247   1.791
56200W        W28625  38.962  44.798  14.513
56201W        W28626  23.965  19.274  13.412
56202W        W28627  17.608   0.515   1.720
56203W        W28628   8.100   4.511  13.859
56204W        W28629  10.420  25.685   2.841
56205W        W28630  27.096   5.983   1.350
56206W        W28631  11.647  23.369   2.264
56207W        W28632   3.277   4.927  11.123
56208W        W28633  43.925  15.223   1.971
56209W        W28634  12.843  33.396   0.300
56210W        W28635  19.306  38.416   4.039
56211W        W28636   5.700  37.610   1.232
56212W        W28637  27.656   1.690   0.949
56213W        W28638   9.876  24.461   4.418
56214W        W28639  29.194  30.660  14.455
56215W        W28640  29.199  14.654  14.113
56216W        W28641  43.267   6.877   3.364
56217W        W28642  44.997  27.687   2.693
56218W        W28643  13.929  22.039   0.288
56219W        W28644  17.802  18.197  13.247
56220W        W28645  34.619  10.794  10.677
56221W        W28646  13.800  35.427   1.894
56222W        W28647  12.693  18.151   3.644
56223W        W28648  20.238  24.654  11.472
56224W        W28649  41.313  25.006   3.972
56225W        W28650  29.907   2.635   1.217
56226W        W28651  18.708  12.576   0.284
56227W        W28652  37.189  35.909   1.057
56228W        W28653  22.219  21.037  11.524
56229W        W28654   2.065   1.441   0.798
56230W        W28655   6.181   0.585   3.260
56231W        W28656  10.692  35.815   1.349
56232W        W28657   1.426  33.947  11.046
56233W        W28658  33.965   0.083  13.621
56234W        W28659  12.074  41.006  12.471
56235W        W28660  27.600   4.308  11.760
56236W        W28661  17.589  15.687  11.535
56237W        W28662   4.452  10.920  11.355
56238W        W28663  28.215  30.844   3.295
56239W        W28664  42.629  12.380   0.935
56240W        W28665  20.799  35.862   0.053
56241W        W28666  15.750  26.383  10.231
56242W        W28667  34.481  19.652  10.907
56243W        W28668  18.300  36.969   0.001
56244W        W28669  19.060  42.972   4.173
56245W        W28670  10.031  26.189   1.856
56246W        W28671  19.614  34.608   2.348
56247W        W28672  11.688  12.462   1.952
56248W        W28673   2.474  23.888   0.967
56249W        W28674   6.919  42.998   0.481
56250W        W28675  13.863  40.962   4.601
56251W        W28676  39.438  10.691   1.737
56252W        W28677  37.796  28.770   4.644
56253W        W28678  19.449  23.647   1.423
56254W        W28679  44.076   5.759  11.719
56255W        W28680  42.351  37.061  14.986
56256W        W28681  10.222  21.633  12.330
56257W        W28682   9.759  37.950  14.990
56258W        W28683  19.305   1.034  14.413
56259W        W28684  39.286  28.722   1.039
56260W        W28685  35.010  29.645   0.697
56261W        W28686  30.148  22.163   0.888
56262W        W28687   1.003   0.057  12.060
56263W        W28688  17.618  38.573  14.007
56264W        W28689   3.547  36.578  11.173
56265W        W28690  13.467  41.790   1.920
56266W        W28691   0.437   7.578  11.891
56267W        W28692  25.203  26.501  11.861
56268W        W28693  32.459   8.811   3.269
56269W        W28694   3.427  37.917   4.061
56270W        W28695  31.758  29.631  11.633
56271W        W28696  29.683   0.520  11.961
56272W        W28697  38.856   2.774  14.331
56273W        W28698   8.988  37.550   3.061
56274W        W28699  29.556   6.423   2.111
56275W        W28700   6.258  28.183   3.992
56276W        W28701  29.087   7.288  10.654
56277W        W28702  22.466  14.598  12.945
56278W        W28703  31.839  31.530   1.931
56279W        W28704  16.924  14.336   0.019
56280W        W28705   0.076  37.632   3.355
56281W        W28706  18.441  26.130  12.961
56282W        W28707  34.155   6.925   4.132
56283W        W28708  33.557  26.369  11.228
56284W        W28709  11.025  41.133   0.496
56285W        W28710  15.648  39.999  11.083
56286W        W28711  14.285  34.812   3.356
56287W        W28712  44.840  29.550   4.348
56288W        W28713  32.940   2.277  13.427
56289W        W28714   6.103  21.911   2.101
56290W        W28715  11.003   2.864   0.329
56291W        W28716  24.195  25.077  13.341
56292W        W28717  14.584  27.601  13.362
56293W        W28718   3.165  38.346  14.607
56294W        W28719  30.455   7.328  13.359
56295W        W28720  38.387  20.129  12.470
56296W        W28721   4.612  11.690   4.161
56297W        W28722  17.731  34.990   1.555
56298W        W28723   7.338   8.174   2.682
56299W        W28724  13.163  14.660  10.649
56300W        W28725   4.696  37.738   4.435
56301W        W28726  37.838  40.945  10.853
56302W        W28727  34.381  30.462   2.146
56303W        W28728   6.688  11.417  14.962
56304W        W28729  12.652  24.164  11.628
56305W        W28730  11.777  23.081  10.401
56306W        W28731  35.388  22.589  12.074
56307W        W28732  41.390  43.014   3.203
56308W        W28733  17.376  44.095  14.786
56309W        W28734  17.242  42.087   2.645
56310W        W28735  31.257  34.032  12.724
56311W        W28736   9.761  20.138  14.487
56312W        W28737  30.022  31.406  11.465
56313W        W28738  30.709  44.825  14.553
56314W        W28739   2.470  18.737   2.486
56315W        W28740  18.747  16.703  13.217
56316W        W28741   5.284  18.324   2.279
56317W        W28742   3.652   8.943  11.142
56318W        W28743  36.341  17.618   1.366
56319W        W28744   1.318   1.568   1.751
56320W        W28745   0.837   5.467  14.499
56321W        W28746  12.659   0.500  11.163
56322W        W28747  42.603  16.886  14.767
56323W        W28748   9.114  37.708  13.795
56324W        W28749  24.799  41.683  13.886
56325W        W28750   2.722  37.916   1.762
56326W        W28751  11.398  19.421  10.389
56327W        W28752  25.611  13.143  10.681
56328W        W28753  25.067  35.381   0.404
56329W        W28754  40.743  33.921   1.292
56330W        W28755  17.705  25.230   3.323
56331W        W28756  27.185  33.637   4.687
56332W        W28757  33.392  11.749   4.176
56333W        W28758   1.414  31.874  13.506
56334W        W28759  26.884  18.993  13.336
56335W        W28760   6.141   4.333   3.281
56336W        W28761   7.660   1.770  12.380
56337W        W28762   8.078   9.147  10.890
56338W        W28763  15.588  21.033  12.071
56339W        W28764  33.620  27.885  12.390
56340W        W28765  25.689  16.168   3.084
56341W        W28766  37.985   3.475   3.777
56342W        W28767  14.639   4.868  12.827
56343W        W28768  40.507  35.131   1.229
56344W        W28769  14.071  24.188   1.660
56345W        W28770  15.254  18.280   4.096
56346W        W28771  15.902  22.626  13.745
56347W        W28772  44.770   3.556   2.289
56348W        W28773  43.927  13.792   4.385
56349W        W28774  38.895  24.638  13.288
56350W        W28775  12.937  12.656   0.507
56351W        W28776  15.046   1.640  10.113
56352W        W28777  27.923  10.706  12.462
56353W        W28778  18.885  37.331  12.183
56354W        W28779  40.098  21.782  11.584
56355W        W28780  12.110  16.326   3.042
56356W        W28781  44.749  43.090   1.105
56357W        W28782  31.352  24.071  11.495
56358W        W28783  11.645  35.481   3.791
56359W        W28784  25.657  14.090   0.931
56360W        W28785   1.425   7.711   1.731
56361W        W28786  26.153  26.023  12.476
56362W        W28787  23.284   9.266  14.936
56363W        W28788   8.067   6.973  11.708
56364W        W28789  10.656  16.092  14.327
56365W        W28790   0.462  20.866   4.172
56366W        W28791  27.057  23.235   0.736
56367W        W28792  32.797  29.369  13.530
56368W        W28793  16.800  12.766   1.836
56369W        W28794  19.351  32.101   4.766
56370W        W28795  30.806  33.798  14.776
56371W        W28796  12.198   7.481   4.612
56372W        W28797   4.902  38.507  12.412
56373W        W28798  10.866  21.200  12.436
56374W        W28799  35.853   1.653   3.814
56375W        W28800  38.435  11.460  14.879
56376W        W28801  19.085  42.426  12.561
56377W        W28802  37.342  22.268  11.494
56378W        W28803   5.989  13.441  13.375
56379W        W28804  41.873   8.682  12.577
56380W        W28805   0.300  10.182  14.362
56381W        W28806   4.893  19.587  11.590
56382W        W28807  26.860  15.798   3.695
56383W        W28808  26.299  44.877  14.871
56384W        W28809  11.593  10.755  11.435
56385W        W28810  17.270  41.636  12.570
56386W        W28811   0.923  27.022  12.869
56387W        W28812  41.810   2.042  10.648
56388W        W28813  32.803  35.360   4.308
56389W        W28814  11.833  18.535  11.398
56390W        W28815   1.753  39.342   0.789
56391W        W28816  18.149  38.990   3.529
56392W        W28817  42.256  19.788   4.044
56393W        W28818  43.065  16.385  13.474
56394W        W28819  31.533  20.384  11.987
56395W        W28820  33.011  10.469  13.869
56396W        W28821   9.825  26.679   3.526
56397W        W28822  33.000  43.827  12.340
56398W        W28823  37.392  36.126   3.622
56399W        W28824  19.075  10.744   2.692
56400W        W28825  21.626  22.560   0.704
56401W        W28826  25.302   7.049  11.150
56402W        W28827  26.897  25.073   4.306
56403W        W28828  16.528  30.484  12.885
56404W        W28829  38.335   4.239   4.596
56405W        W28830   2.275  23.132  11.216
56406W        W28831  31.053   0.974   3.316
56407W        W28832  43.424   1.308  14.981
56408W        W28833  19.939  22.448  12.138
56409W        W28834  24.037  37.901   4.648
56410W        W28835  31.109   7.964  14.124
56411W        W28836   8.833  10.778   4.710
56412W        W28837   8.917  27.207   2.782
56413W        W28838  16.119  17.255  10.236
56414W        W28839  19.509  32.562  13.836
56415W        W28840  19.234  14.042   1.845
56416W        W28841  22.953   1.511  12.211
56417W        W28842  12.541  16.169   1.740
56418W        W28843  21.271  25.478   1.889
56419W        W28844  13.695  22.734  12.321
56420W        W28845  30.519  19.545   4.529
56421W        W28846  28.045  12.287  13.955
56422W        W28847   4.406   8.798  10.645
56423W        W28848   2.533  33.914   2.047
56424W        W28849  26.024  13.360   1.937
56425W        W28850   2.288  34.455   4.319
56426W        W28851  44.755  24.106  10.742
56427W        W28852  19.937  31.011  12.242
56428W        W28853  39.956   0.468  14.522
56429W        W28854  22.900  32.386  11.560
56430W        W28855  28.708  32.305   2.687
56431W        W28856  35.359  42.241   3.677
56432W        W28857  19.043  21.142  11.587
56433W        W28858  11.754  21.327  14.865
56434W        W28859  28.186   4.700   1.390
56435W        W28860  24.970   1.897  12.322
56436W        W28861  27.570  14.168   1.685
56437W        W28862  15.677  40.260  14.785
56438W        W28863  10.210  42.233  14.974
56439W        W28864  42.362  10.699  12.406
56440W        W28865   4.754  14.556  12.414
56441W        W28866   8.803  10.151   4.072
56442W        W28867  40.831  44.237   0.939
56443W        W28868  20.864  32.948  11.613
56444W        W28869  31.644  13.138   2.258
56445W        W28870  42.574  35.253   4.531
56446W        W28871  38.628  24.441   3.717
56447W        W28872  24.589  19.660   4.607
56448W        W28873   7.203  38.082   2.781
56449W        W28874   3.996   7.691   2.479
56450W        W28875  19.478  43.919  11.212
56451W        W28876   7.192  22.625  11.057
56452W        W28877   5.640  19.655  14.428
56453W        W28878  36.142  38.509  14.725
56454W        W28879  14.381  31.966  11.205
56455W        W28880  35.486  20.461  11.161
56456W        W28881   9.688  27.195   3.258
56457W        W28882   0.836  14.109   2.912
56458W        W28883  11.597  13.656  11.869
56459W        W28884   5.295  29.090  12.296
56460W        W28885  37.425  21.231  14.980
56461W        W28886  31.137   7.130  14.706
56462W        W28887   6.395  24.975  11.667
56463W        W28888  16.622   6.985   1.326
56464W        W28889   5.267  36.272   0.303
56465W        W28890   2.747   4.763  12.877
56466W        W28891  39.336  29.859  11.430
56467W        W28892  44.694   8.724  13.331
56468W        W28893  43.865  41.997   3.750
56469W        W28894   0.389  40.774   2.816
56470W        W28895   5.190  29.462  11.969
56471W        W28896  19.120  27.512   2.342
56472W        W28897   5.258   3.244   2.665
56473W        W28898   3.464   8.274  14.504
56474W        W28899  32.580  10.115   4.172
56475W        W28900  31.074  44.425  13.578
56476W        W28901  11.674  33.441  12.549
56477W        W28902  37.365   4.558  14.581
56478W        W28903   0.407  18.332  14.281
56479W        W28904   2.906  23.858  11.898
56480W        W28905  31.857  22.151   3.878
56481W        W28906  11.101  12.936  10.480
56482W        W28907  39.892  37.584   3.772
56483W        W28908  19.523  38.385  13.139
56484W        W28909  20.056  43.508   1.401
56485W        W28910  17.297  36.915  11.584
56486W        W28911  24.676  34.575  11.622
56487W        W28912  33.453  14.330  12.086
56488W        W28913  13.916  29.158   2.739
56489W        W28914  19.456  20.173  14.501
56490W        W28915  14.657   1.293   3.629
56491W        W28916   8.055  14.523  14.284
56492W        W28917  21.295  41.078  11.526
56493W        W28918  35.491  14.554   3.489
56494W        W28919  26.550  17.692   2.638
56495W        W28920  15.795  35.677  11.981
56496W        W28921  30.222  34.154  12.578
56497W        W28922  14.094  27.620   1.271
56498W        W28923   5.250  37.477  10.839
56499W        W28924  14.516  27.917   1.271
56500W        W28925  33.767  23.503   2.577
56501W        W28926  23.604  26.166   0.833
56502W        W28927  41.314  30.738  12.940
56503W        W28928   0.324   3.445  13.595
56504W        W28929  38.000  19.303  14.876
56505W        W28930  11.623   5.011   1.881
56506W        W28931  34.970   7.967   3.625
56507W        W28932  20.561  10.268  12.192
56508W        W28933   6.501  36.178  11.132
56509W        W28934   0.768  38.661  11.608
56510W        W28935  22.732  43.829   4.547
56511W        W28936   4.009   6.848   1.850
56512W        W28937  40.784   5.794   0.905
56513W        W28938  35.474  11.549  12.805
56514W        W28939  31.459  29.573  12.060
56515W        W28940  10.698  36.909  11.021
56516W        W28941   3.421  24.138  13.012
56517W        W28942  16.620   6.647  11.980
56518W        W28943   2.385  13.116  11.225
56519W        W28944  26.247  19.718   2.748
56520W        W28945   1.448  23.683  12.781
56521W        W28946  31.085  19.751  10.426
56522W        W28947  34.493   8.995   3.025
56523W        W28948  42.536  41.326  11.469
56524W        W28949   6.549  27.773   2.595
56525W        W28950  13.146  29.632   2.809
56526W        W28951  27.007  21.526  11.892
56527W        W28952  33.751  13.775   3.334
56528W        W28953  36.922  18.354   0.797
56529W        W28954  43.983   1.013   2.090
56530W        W28955  24.474   4.871  10.960
56531W        W28956  34.089  23.698  13.545
56532W        W28957  38.211  22.517  11.136
56533W        W28958  26.216  15.039  14.519
56534W        W28959  30.730  23.566   1.165
56535W        W28960  35.383  13.371   2.025
56536W        W28961   2.843  44.862   0.484
56537W        W28962   3.590   0.402   4.320
56538W        W28963  28.416  34.329   0.590
56539W        W28964  17.256  39.934   1.758
56540W        W28965   4.341  10.325  12.068
56541W        W28966  22.233  40.291  13.772
56542W        W28967  42.451  27.240   4.526
56543W        W28968  25.422   6.616  12.603
56544W        W28969  16.272   2.757  13.355
56545W        W28970   3.015   6.164   3.258
56546W        W28971  19.162  29.722  14.357
56547W        W28972  21.501  13.849  10.718
56548W        W28973  27.711  27.508  14.748
56549W        W28974   0.199  18.214   4.356
56550W        W28975  42.424   4.346  14.123
56551W        W28976  42.810  39.372   1.945
56552W        W28977  32.825  31.084   3.236
56553W        W28978  44.289  19.921  11.609
56554W        W28979  37.873  11.248   0.651
56555W        W28980  40.821   7.198   3.002
56556W        W28981  24.979  27.258  14.545
56557W        W28982  34.730  31.702  11.551
56558W        W28983   7.371  39.835   3.838
56559W        W28984   1.895  16.363  13.549
56560W        W28985  34.544  16.051   3.708
56561W        W28986  31.439  27.041   4.386
56562W        W28987  35.833   6.436  11.274
56563W        W28988  13.092  24.175  11.091
56564W        W28989   8.622  26.178  11.199
56565W        W28990  10.309  27.476  10.882
56566W        W28991  41.865   3.444  10.669
56567W        W28992  42.369   2.746   2.775
56568W        W28993   3.656  20.157  11.222
56569W        W28994  16.126  43.679  11.194
56570W        W28995  27.442  19.019   0.397
56571W        W28996  17.786  30.376  13.450
56572W        W28997  32.914  29.057  12.416
56573W        W28998  14.745  13.152  13.792
56574W        W28999  33.136  38.100  10.897
56575W        W29000  29.120  18.227  11.782
56576W        W29001  28.450   3.205  13.803
56577W        W29002  11.831  17.294  13.336
56578W        W29003  25.923  32.608   3.711
56579W        W29004   2.019   7.675  12.880
56580W        W29005  27.004  35.950  14.495
56581W        W29006  24.182   9.352  12.126
56582W        W29007   7.811  20.823   1.173
56583W        W29008  34.938   4.812  13.464
56584W        W29009  11.929   6.617  13.557
56585W        W29010  33.933   6.832   3.197
56586W        W29011  33.854  32.354  13.824
56587W        W29012  42.220  10.407   2.295
56588W        W29013  19.098  26.536   1.232
56589W        W29014  38.273  17.645  14.337
56590W        W29015  37.048  19.439  13.522
56591W        W29016  21.108  42.923  12.801
56592W        W29017  37.246  16.639  13.974
56593W        W29018  37.834  32.941   2.822
56594W        W29019  23.156  15.404  11.024
56595W        W29020  40.075   1.502   3.313
56596W        W29021  29.889  15.507   1.228
56597W        W29022  18.113  16.432   2.634
56598W        W29023  28.666  31.491   1.675
56599W        W29024  11.175  15.768   2.748
56600W        W29025  38.447  43.010  12.641
56601W        W29026   6.953  15.674   3.230
56602W        W29027   0.409  30.604  14.005
56603W        W29028  30.430  38.916  14.356
56604W        W29029   1.457  33.460   2.407
56605W        W29030  38.425  29.616   0.797
56606W        W29031  15.311   2.712  14.789
56607W        W29032  23.754  38.842   3.994
56608W        W29033   6.853  37.341  13.540
56609W        W29034  38.894  28.388   4.230
56610W        W29035  15.524  19.169   2.841
56611W        W29036  21.650   5.163  12.501
56612W        W29037  26.351  14.794  13.284
56613W        W29038  19.715   4.490   2.312
56614W        W29039  23.927  21.657  11.697
56615W        W29040  22.727   0.463   1.619
56616W        W29041   9.724   0.707   4.582
56617W        W29042   4.507  25.997   1.713
56618W        W29043  35.512  41.875  11.692
56619W        W29044  37.565  30.168   2.612
56620W        W29045  38.863  35.443   1.228
56621W        W29046  28.264  30.887  12.088
56622W        W29047  21.554  39.947  10.285
56623W        W29048  29.504  34.375   4.672
56624W        W29049  16.740   1.969   1.709
56625W        W29050  10.847   5.957   0.646
56626W        W29051  27.546  35.866   1.244
56627W        W29052  41.848  44.876  13.546
56628W        W29053   7.679  16.190   2.351
56629W        W29054  34.547  38.624   3.182
56630W        W29055  35.043  24.734  13.068
56631W        W29056   7.719  36.063   3.135
56632W        W29057  22.357   7.356   4.368
56633W        W29058  13.638  31.107  12.646
56634W        W29059   5.409  31.509  10.597
56635W        W29060  12.587   6.236   5.365
56636W        W29061  41.177  39.567   3.955
56637W        W29062  33.153  34.190  12.143
56638W        W29063  26.457   2.543   1.978
56639W        W29064  21.758   9.967  12.326
56640W        W29065  17.249   0.413   2.113
56641W        W29066   7.739   7.163   3.338
56642W        W29067  31.099  10.985  12.509
56643W        W29068  22.159   8.522  14.429
56644W        W29069  26.130   9.478  14.871
56645W        W29070  42.682  34.988   4.956
56646W        W29071  20.893   9.122   0.807
56647W        W29072  42.471  29.511   1.710
56648W        W29073  30.566  34.459  13.514
56649W        W29074  43.979  10.315   3.544
56650W        W29075  32.616  28.640  12.260
56651W        W29076  10.910   6.114   4.174
56652W        W29077  18.549   8.635   2.523
56653W        W29078  36.163  23.616   0.960
56654W        W29079   7.192  23.804  10.397
56655W        W29080   3.239  26.619  12.393
56656W        W29081   4.266  34.356   0.460
56657W        W29082  31.978  22.982   3.879
56658W        W29083  11.150  27.472  13.905
56659W        W29084   6.287  26.017   3.689
56660W        W29085   7.171  42.479  11.571
56661W        W29086  24.559  41.384   3.357
56662W        W29087  25.513   2.128  13.620
56663W        W29088  10.880   8.252  11.439
56664W        W29089  25.917  34.112  12.122
56665W        W29090   8.683  40.042  14.579
56666W        W29091  39.561   9.165   0.980
56667W        W29092  16.031   7.742   1.046
56668W        W29093   5.461  19.086   2.784
56669W        W29094   9.389  40.763  11.942
56670W        W29095  10.295  34.834   0.508
56671W        W29096   4.496   9.415   1.342
56672W        W29097  12.264  22.829   0.403
56673W        W29098  36.081  19.849   2.027
56674W        W29099  24.130  18.285   2.675
56675W        W29100   6.841  30.316   1.890
56676W        W29101   0.478  40.424   0.173
56677W        W29102  33.586  21.429   3.667
56678W        W29103  12.764  40.461   1.422
56679W        W29104  16.743  29.405   1.871
56680W        W29105   1.678  19.748   0.328
56681W        W29106  29.484  34.251   2.534
56682W        W29107   7.101  40.901  12.107
56683W        W29108   3.305  21.785   2.305
56684W        W29109  28.036  16.140  13.857
56685W        W29110  43.949  10.161  10.937
56686W        W29111  12.777   9.941   3.087
56687W        W29112   6.131  22.193   0.954
56688W        W29113  36.599  12.837   2.713
56689W        W29114  28.557  33.893   2.804
56690W        W29115  11.161  39.335   1.918
56691W        W29116  29.542  13.908  13.052
56692W        W29117  33.518  27.273  12.057
56693W        W29118   4.326  18.896   0.774
56694W        W29119  12.264  43.323   0.283
56695W        W29120  34.136  24.821   1.478
56696W        W29121  15.148  14.862  11.438
56697W        W29122   6.784  33.163  11.164
56698W        W29123  17.432  34.961  11.972
56699W        W29124   6.722  38.435   1.706
56700W        W29125  38.526   1.969   1.879
56701W        W29126  23.857  29.033  14.327
56702W        W29127   5.787  23.825  10.634
56703W        W29128   2.555  30.601   4.595
56704W        W29129  42.510  42.375   2.776
56705W        W29130  31.953  37.586   1.360
56706W        W29131  40.522  27.254   0.830
56707W        W29132  10.882  34.147  13.508
56708W        W29133   4.843   6.209   0.313
56709W        W29134  10.122  36.389   4.009
56710W        W29135  38.421  24.133   4.818
56711W        W29136   8.139  34.043  11.663
56712W        W29137  30.968  27.484   0.746
56713W        W29138  12.068  27.510  10.659
56714W        W29139  13.502  16.017   4.049
56715W        W29140  15.154   8.153   0.739
56716W        W29141  23.214  40.304   1.170
56717W        W29142  13.340  37.037   2.818
56718W        W29143  25.980  20.777   0.918
56719W        W29144  25.479   3.150   3.192
56720W        W29145  17.742  32.993   1.593
56721W        W29146  33.607   0.942   2.434
56722W        W29147  35.224   6.612   9.810
56723W        W29148  28.525  25.901   0.053
56724W        W29149  27.368   6.738   0.958
56725W        W29150  43.478   9.660   1.673
56726W        W29151  28.013  24.147   2.728
56727W        W29152  39.571  37.109   2.808
56728W        W29153  16.801  35.890  14.797
56729W        W29154   6.913   3.009  13.946
56730W        W29155  20.263   3.485  12.600
56731W        W29156  40.031  33.640   4.113
56732W        W29157  23.581  19.546  12.530
56733W        W29158  13.155  23.102   4.730
56734W        W29159  34.648  37.318  14.550
56735W        W29160  39.918  40.542  13.760
56736W        W29161  35.412  24.532  10.690
56737W        W29162  12.157   0.552   0.893
56738W        W29163   2.723  28.572  14.088
56739W        W29164  33.080  31.021  12.851
56740W        W29165  14.683   0.336   1.817
56741W        W29166  41.308  26.517   4.635
56742W        W29167  14.339  39.266   2.721
56743W        W29168  23.983   5.364   1.327
56744W        W29169  32.684  44.434  13.984
56745W        W29170  21.700   3.459   1.241
56746W        W29171  14.429  41.307  10.678
56747W        W29172  41.497  18.068  11.088
56748W        W29173  13.996  43.751   3.266
56749W        W29174  42.060   2.562  11.594
56750W        W29175  28.242  13.969   5.465
56751W        W29176  32.115  11.816  10.899
56752W        W29177   3.297  19.731   4.709
56753W        W29178  43.853  24.345  14.874
56754W        W29179   3.657   1.290   4.412
56755W        W29180   0.922  15.668  14.055
56756W        W29181  30.724  19.558  12.034
56757W        W29182   9.237  43.437   1.373
56758W        W29183  35.412  30.196  12.926
56759W        W29184  40.290  14.052   3.771
56760W        W29185  27.505   3.199   0.928
56761W        W29186  28.384  17.768  10.959
56762W        W29187  20.987  29.177   3.997
56763W        W29188  29.599  19.694  13.568
56764W        W29189   1.371  25.091   4.433
56765W        W29190  15.168  31.936  12.910
56766W        W29191  41.032   0.791  12.863
56767W        W29192  35.490  11.627   3.259
56768W        W29193  28.768  32.029  11.800
56769W        W29194  15.427   1.938  11.041
56770W        W29195   5.393  43.974  12.449
56771W        W29196   5.321  35.519  12.685
56772W        W29197   7.445   2.394  13.331
56773W        W29198   5.578  41.607  12.889
56774W        W29199  12.234  26.234  14.425
56775W        W29200  26.068  27.009   1.412
56776W        W29201  36.188  32.003  14.882
56777W        W29202  20.247  30.051   4.861
56778W        W29203  34.753  23.889   3.536
56779W        W29204  36.490   0.707   2.386
56780W        W29205  44.064   0.453  11.522
56781W        W29206  23.113  12.739   0.258
56782W        W29207  16.794  14.383   2.835
56783W        W29208  20.462  21.487  13.874
56784W        W29209   0.425  43.318  10.715
56785W        W29210  31.520  38.555  12.618
56786W        W29211   5.734   7.886  11.007
56787W        W29212  43.270   9.937  12.901
56788W        W29213  12.264  13.764  12.631
56789W        W29214  17.995  18.480   0.997
56790W        W29215   0.479  27.733  13.956
56791W        W29216   7.387  33.536   4.344
56792W        W29217  41.351   9.192  11.893
56793W        W29218   7.819  28.721  14.223
56794W        W29219  20.761  21.009  14.446
56795W        W29220  19.696  37.514  13.444
56796W        W29221  21.573  42.412   1.319
56797W        W29222  32.824  36.367  12.454
56798W        W29223  22.256  31.204   3.443
56799W        W29224   2.714  26.117  11.741
56800W        W29225   3.634   5.518  12.861
56801W        W29226  15.319  38.421  12.845
56802W        W29227   3.833   4.962  12.174
56803W        W29228   2.516  20.415   3.896
56804W        W29229  14.074  42.286   4.224
56805W        W29230  19.376  12.343   4.222
56806W        W29231  37.893  27.042   1.825
56807W        W29232  42.551  10.728  12.893
56808W        W29233  33.153  15.292  12.891
56809W        W29234  29.050   2.030   2.726
56810W        W29235  14.862  20.622  12.579
56811W        W29236  22.922  41.960   4.188
56812W        W29237  16.401   0.889  13.802
56813W        W29238  43.305  26.626   4.566
56814W        W29239   0.221  14.816  11.038
56815W        W29240  33.655  32.655  11.712
56816W        W29241  39.276   9.869  14.083
56817W        W29242  19.536  29.047   1.057
56818W        W29243   2.855   0.401   3.584
56819W        W29244  39.521  16.023   2.877
56820W        W29245  33.185   4.340   3.631
56821W        W29246  15.167   5.703   2.678
56822W        W29247   2.858   7.241  10.629
56823W        W29248  42.856  33.973   4.141
56824W        W29249  41.266  17.255   3.994
56825W        W29250  32.750  22.292  11.177
56826W        W29251   1.623   8.223  13.995
56827W        W29252   4.867  10.687   1.646
56828W        W29253  34.898  36.600  14.872
56829W        W29254  23.692  31.145  10.154
56830W        W29255  43.504  32.973   0.012
56831W        W29256  22.149  16.971   4.154
56832W        W29257   1.472  43.573  13.384
56833W        W29258  13.161  24.637   1.353
56834W        W29259  10.792   6.268   1.931
56835W        W29260  14.087  16.608  11.912
56836W        W29261  44.499  24.091  11.383
56837W        W29262  44.896  16.614  13.404
56838W        W29263  41.877  41.436   1.320
56839W        W29264  21.700   6.914  10.613
56840W        W29265   3.534   1.400  13.775
56841W        W29266   1.690  11.738   3.907
56842W        W29267  41.511  36.104   2.971
56843W        W29268  31.321   2.718   3.647
56844W        W29269  41.930   6.835  14.392
56845W        W29270  40.030   9.862  13.285
56846W        W29271  43.584   5.767  11.468
56847W        W29272  11.383   8.145  11.503
56848W        W29273  33.620   1.305  14.885
56849W        W29274  37.578  33.851   1.421
56850W        W29275  22.455  39.102  12.653
56851W        W29276  20.752  32.302   1.747
56852W        W29277  27.595  22.068  12.459
56853W        W29278   3.938  28.042   2.350
56854W        W29279  21.288  19.813  14.219
56855W        W29280  14.088  13.210   3.113
56856W        W29281  18.695  20.524  11.911
56857W        W29282  35.828   6.760   5.292
56858W        W29283  30.878  43.914   1.864
56859W        W29284  17.841  33.542   3.663
56860W        W29285  32.740   8.208  13.473
56861W        W29286  32.613  11.339  14.776
56862W        W29287  15.179  37.054  12.194
56863W        W29288   2.833   5.254  10.895
56864W        W29289  20.775   6.248   2.247
56865W        W29290  29.176   2.770  10.680
56866W        W29291  30.297  26.518  13.443
56867W        W29292  39.560   6.256  13.804
56868W        W29293  21.643  36.005  13.067
56869W        W29294  43.381  42.082   2.719
56870W        W29295  43.086   4.328  12.985
56871W        W29296  28.297   3.767  14.999
56872W        W29297  10.837  14.731  14.014
56873W        W29298  38.135  35.877   0.970
56874W        W29299   8.846  24.776   0.216
56875W        W29300  37.064   1.780  13.285
56876W        W29301  16.550  13.235   3.997
56877W        W29302  15.158  32.669   1.293
56878W        W29303   7.799  21.986  14.747
56879W        W29304   7.283   0.873  11.197
56880W        W29305   0.822  28.705   2.649
56881W        W29306  29.254  24.654   5.126
56882W        W29307   9.199  30.426  11.449
56883W        W29308  14.199  30.478   4.216
56884W        W29309  35.864  39.915  10.653
56885W        W29310   9.933  34.575  13.275
56886W        W29311  41.901  12.908   4.423
56887W        W29312  44.711  42.864   0.263
56888W        W29313   6.922   0.202   0.361
56889W        W29314  30.300  38.575   1.873
56890W        W29315   3.665  13.744   0.243
56891W        W29316  28.417  24.923   4.288
56892W        W29317  10.933  22.426  14.619
56893W        W29318  26.752   0.345   4.829
56894W        W29319   5.725  28.946  12.588
56895W        W29320  16.818  37.757  11.483
56896W        W29321  24.948   4.730   0.987
56897W        W29322  42.275  13.223   3.680
56898W        W29323  11.293  31.225   4.413
56899W        W29324  30.963  43.511  13.370
56900W        W29325   3.301  39.248   4.364
56901W        W29326  37.007   0.965   2.369
56902W        W29327   7.835  31.082   4.750
56903W        W29328   3.728   0.909  10.716
56904W        W29329  10.383  12.014  14.803
56905W        W29330  38.928  13.381   3.753
56906W        W29331  12.184   7.905  13.398
56907W        W29332   2.732  41.548  12.389
56908W        W29333  34.032  32.849   3.813
56909W        W29334  24.998  12.880  12.509
56910W        W29335  13.819   4.276   1.373
56911W        W29336   3.659   5.705   4.602
56912W        W29337  33.390  32.443  14.056
56913W        W29338  36.009  15.289   3.554
56914W        W29339  15.678  20.481   1.305
56915W        W29340  22.488  24.199  14.363
56916W        W29341  40.969  44.521   3.716
56917W        W29342  15.045  36.574   4.228
56918W        W29343   2.018  31.028  11.252
56919W        W29344  33.398  43.898   4.188
56920W        W29345  21.436  29.690   5.081
56921W        W29346  28.123  42.386  10.530
56922W        W29347   1.214  44.984  12.542
56923W        W29348   4.950   9.933   4.538
56924W        W29349  14.411  13.152   0.044
56925W        W29350   0.807  31.587  12.956
56926W        W29351   7.257  34.430  11.476
56927W        W29352  17.077   3.526  12.381
56928W        W29353  26.617   2.436  10.941
56929W        W29354  24.443  26.708   0.407
56930W        W29355   0.360  11.378   0.232
56931W        W29356  35.478  41.397  10.960
56932W        W29357   3.355  20.070   3.914
56933W        W29358  21.053   4.826   4.058
56934W        W29359  11.816  20.111  14.451
56935W        W29360  43.466  42.318  10.683
56936W        W29361  44.547  17.707  11.526
56937W        W29362  27.084  24.168   4.632
56938W        W29363  13.201  23.701   2.746
56939W        W29364  33.335   0.471   2.422
56940W        W29365  21.630  24.591  14.036
56941W        W29366  37.510  21.856   3.776
56942W        W29367   9.583   6.380   2.626
56943W        W29368  42.410  12.773  10.634
56944W        W29369  33.607  10.640   0.818
56945W        W29370  26.143  28.084  14.302
56946W        W29371   4.397  20.346  13.823
56947W        W29372  26.135  28.764  12.110
56948W        W29373  34.945  39.325   0.372
56949W        W29374  24.758   2.803  12.499
56950W        W29375  43.723  43.363   4.130
56951W        W29376  21.315  31.992  13.538
56952W        W29377  15.794  28.938  12.537
56953W        W29378  24.435  30.082   1.411
56954W        W29379  31.429  36.213   3.740
56955W        W29380  13.730  32.621   4.335
56956W        W29381  22.199  25.905   4.953
56957W        W29382  15.352  15.737   2.306
56958W        W29383  18.323  15.567  12.369
56959W        W29384  35.277  25.039   0.331
56960W        W29385  25.622  40.475  11.524
56961W        W29386   7.869  20.670   0.217
56962W        W29387  11.231  19.296   3.318
56963W        W29388  14.375  44.920  10.482
56964W        W29389  32.023  40.922  11.496
56965W        W29390  27.390  32.897   0.432
56966W        W29391   7.292  13.238   2.880
56967W        W29392  22.127  13.344  10.658
56968W        W29393  30.736   7.928   2.200
56969W        W29394   1.155  40.206   5.048
56970W        W29395  43.026  17.740   1.906
56971W        W29396  37.571  29.863   4.046
56972W        W29397   1.831  41.221   1.418
56973W        W29398  35.060   2.356  13.877
56974W        W29399  17.116  26.874   4.584
56975W        W29400  38.867  21.703  10.902
56976W        W29401  12.257  11.905   4.607
56977W        W29402   9.345  44.823   3.773
56978W        W29403  21.350  40.360   1.274
56979W        W29404   7.371  13.349   2.379
56980W        W29405  38.684  20.509   2.220
56981W        W29406  13.455  42.020   2.822
56982W        W29407  22.197  43.532   0.795
56983W        W29408  19.031  19.267  10.604
56984W        W29409  17.568  24.834   0.876
56985W        W29410  10.521  22.654  12.418
56986W        W29411  14.256  27.670   9.986
56987W        W29412  43.234  16.655  11.791
56988W        W29413  13.251  40.383   1.786
56989W        W29414  34.204  17.540   0.245
56990W        W29415  22.783  39.801   3.315
56991W        W29416  13.210  11.687  14.305
56992W        W29417  40.504  10.214   4.085
56993W        W29418  35.900  35.962   1.577
56994W        W29419  28.678  44.493   0.766
56995W        W29420  29.462  12.886  12.683
56996W        W29421  42.405  38.925   0.922
56997W        W29422   5.679  12.813  11.481
56998W        W29423  34.726  27.118  13.653
56999W        W29424  43.999  40.516   0.265
57000W        W29425   6.244  24.918  13.831
57001W        W29426  36.054   1.258   4.730
57002W        W29427  16.118  33.297   2.323
57003W        W29428  44.506  32.534  12.018
57004W        W29429  29.574   5.749  11.936
57005W        W29430  23.466  38.418   4.194
57006W        W29431  12.155  43.406  14.781
57007W        W29432  11.056  42.976  14.319
57008W        W29433  32.170   0.221  13.926
57009W        W29434   3.011   3.143  14.789
57010W        W29435   6.390  29.127  10.276
57011W        W29436  12.170   1.374  13.568
57012W        W29437  14.611  20.795   4.459
57013W        W29438  35.900  41.118  12.611
57014W        W29439  16.730  30.212  10.974
57015W        W29440  26.574  21.984   2.666
57016W        W29441   4.443  10.685   4.939
57017W        W29442  26.985  29.328   3.660
57018W        W29443  32.051   7.880   2.351
57019W        W29444  31.052  19.717  11.585
57020W        W29445   0.868  44.715  10.220
57021W        W29446  31.038  20.297  14.506
57022W        W29447  35.936   6.016   9.969
57023W        W29448  29.114  35.451  12.066
57024W        W29449  33.137  43.474  12.682
57025W        W29450  19.995  25.576  12.536
57026W        W29451   2.821   7.324   0.274
57027W        W29452  12.105  36.842   2.308
57028W        W29453  43.293  43.547   2.893
57029W        W29454  12.716  16.251   4.304
57030W        W29455   5.879  18.981   1.104
57031W        W29456  26.463  26.674  11.089
57032W        W29457  16.581  34.394  14.280
57033W        W29458  10.778   6.649   3.284
57034W        W29459  32.976  25.873  13.169
57035W        W29460  42.219  11.024  11.135
57036W        W29461   3.128   4.268   2.313
57037W        W29462  22.926  43.321  13.123
57038W        W29463  29.118  40.728  13.786
57039W        W29464   1.288  25.074   0.356
57040W        W29465  23.587  13.572  12.830
57041W        W29466  27.599  26.663   2.214
57042W        W29467  34.879  23.532   0.032
57043W        W29468  37.477  34.943   1.364
57044W        W29469  22.147  19.005  10.911
57045W        W29470  19.726  39.434   1.859
57046W        W29471   0.808  10.855   2.699
57047W        W29472   0.257  15.617   1.583
57048W        W29473   3.154  41.254  10.853
57049W        W29474  16.697  30.007  13.073
57050W        W29475  18.191  31.572   2.368
57051W        W29476  38.917   5.467   3.205
57052W        W29477  25.727  43.316   3.312
57053W        W29478  12.253  19.731  13.648
57054W        W29479  19.687   9.579   4.600
57055W        W29480  19.321  30.280   1.212
57056W        W29481  33.122  30.644  14.742
57057W        W29482   7.017  17.054   3.609
57058W        W29483  22.031  39.031   4.333
57059W        W29484  10.897  14.662   2.342
57060W        W29485   4.390  13.044   3.125
57061W        W29486   1.733   4.196   3.249
57062W        W29487  26.465  21.138   0.241
57063W        W29488  30.024  21.601   4.969
57064W        W29489  14.040  34.660  10.694
57065W        W29490  28.281   1.106   2.256
57066W        W29491   7.547  17.093  11.346
57067W        W29492  11.808   7.167   3.042
57068W        W29493   1.971  19.311  13.609
57069W        W29494  26.280  17.646   2.162
57070W        W29495  25.977  33.459   3.244
57071W        W29496  18.668  37.865  14.036
57072W        W29497  28.055  12.847   3.552
57073W        W29498  13.726   2.371  11.125
57074W        W29499  20.749   8.351   3.697
57075W        W29500  10.419  16.674   3.744
57076W        W29501  42.302   3.458   0.830
57077W        W29502  25.980  11.778   2.315
57078W        W29503   4.229   2.243   2.679
57079W        W29504  18.039   0.415  13.878
57080W        W29505   2.728  36.565  14.900
57081W        W29506  40.891  44.592   0.564
57082W        W29507   3.731  43.774   2.234
57083W        W29508  17.904  16.646   4.322
57084W        W29509  27.753  25.662  14.411
57085W        W29510  21.324  29.447  13.897
57086W        W29511  32.692  28.184  14.000
57087W        W29512  25.968  10.751   2.278
57088W        W29513  28.116  28.357   3.730
57089W        W29514  13.751  33.967  12.899
57090W        W29515  42.404  42.768  14.006
57091W        W29516  42.286  28.010   1.628
57092W        W29517  42.360  13.061  11.192
57093W        W29518  19.041   9.090  13.482
57094W        W29519  24.162  19.635   4.041
57095W        W29520  19.949  20.092  14.352
57096W        W29521  41.140  25.304  14.050
57097W        W29522  31.474  16.238  13.468
57098W        W29523  10.251  37.131  14.041
57099W        W29524  27.664  21.693  13.966
57100W        W29525  34.259  17.279  11.143
57101W        W29526  34.865  15.138   1.744
57102W        W29527  12.946   7.687   3.384
57103W        W29528  18.893  31.222   4.485
57104W        W29529   4.313  17.381   4.083
57105W        W29530  30.625  41.143   0.104
57106W        W29531  10.650  30.589   3.708
57107W        W29532  24.933   2.795  13.799
57108W        W29533  15.558  25.148  11.691
57109W        W29534   0.684  22.098  11.601
57110W        W29535  18.066  33.403  10.262
57111W        W29536  15.236  30.250   1.248
57112W        W29537  31.324  31.479   4.089
57113W        W29538  44.415  34.954  13.445
57114W        W29539  27.056  15.949  11.066
57115W        W29540   0.952  17.805   2.232
57116W        W29541   6.016  11.811   4.118
57117W        W29542  41.862  27.647  11.598
57118W        W29543  42.491  27.035   2.674
57119W        W29544  34.544  22.789  10.652
57120W        W29545   9.350  41.495  12.649
57121W        W29546  15.154  18.737   2.255
57122W        W29547  42.489   2.200   1.243
57123W        W29548  39.021  31.255  13.411
57124W        W29549  28.720  21.437  14.984
57125W        W29550  15.954  18.360   2.246
57126W        W29551   6.430  26.628   2.447
57127W        W29552   1.156  37.642  13.464
57128W        W29553  32.425  26.594  12.922
57129W        W29554  38.409  29.685  13.709
57130W        W29555  28.685  11.015   0.359
57131W        W29556  21.660  12.122   2.571
57132W        W29557  30.967  16.790   2.728
57133W        W29558  19.746  26.602   3.579
57134W        W29559   3.262  15.086  13.877
57135W        W29560   9.650  24.605   2.894
57136W        W29561  18.060   4.271   1.678
57137W        W29562  32.459  14.977   1.257
57138W        W29563  32.371  10.101   0.465
57139W        W29564  22.659  28.603   5.138
57140W        W29565  20.225   5.364   1.453
57141W        W29566  43.134  28.223   0.919
57142W        W29567  26.050   9.890  14.028
57143W        W29568  43.934  31.920   5.039
57144W        W29569  28.735  37.495   1.299
57145W        W29570  43.945  39.393   2.796
57146W        W29571  18.732  17.123  14.169
57147W        W29572  10.081  27.615   4.621
57148W        W29573   6.399  22.683   2.224
57149W        W29574  23.969  19.392   2.242
57150W        W29575  44.175  27.377  11.399
57151W        W29576   5.721  30.814  14.009
57152W        W29577  31.231  40.804   2.814
57153W        W29578  39.318   6.864  12.828
57154W        W29579  36.498  42.895  11.407
57155W        W29580   7.675  11.243  13.873
57156W        W29581  30.658   6.225   0.850
57157W        W29582  24.724  42.538  12.774
57158W        W29583  15.186  22.297  11.636
57159W        W29584  15.954  32.888   1.554
57160W        W29585  31.087  16.407  10.404
57161W        W29586  12.674  17.611   0.303
57162W        W29587  31.746  21.125  13.003
57163W        W29588  10.800  17.363   2.154
57164W        W29589  40.965  27.755  11.611
57165W        W29590  16.613  20.060   4.122
57166W        W29591  24.046  19.724   0.414
57167W        W29592  19.825  37.885   2.805
57168W        W29593  20.238  18.764   2.463
57169W        W29594  24.505   1.258   3.806
57170W        W29595  17.690   7.234  10.670
57171W        W29596  29.392   4.752   0.949
57172W        W29597  43.352  16.670  12.683
57173W        W29598  17.518  30.921   1.477
57174W        W29599  17.399  10.229  11.698
57175W        W29600   9.862  11.788  14.418
57176W        W29601  36.983  39.247  12.064
57177W        W29602   9.723  41.451   3.581
57178W        W29603   0.369  14.455  13.889
57179W        W29604  42.059  23.369  13.411
57180W        W29605  11.981   4.691  10.323
57181W        W29606   7.831  16.688  12.709
57182W        W29607  43.931  10.330  10.445
57183W        W29608  13.271  37.143   1.761
57184W        W29609  14.830  42.454  11.661
57185W        W29610  17.742  34.289  10.202
57186W        W29611  34.969  37.796   1.377
57187W        W29612  15.306  30.521   0.756
57188W        W29613  42.363  27.211   3.685
57189W        W29614  32.438  16.282   0.844
57190W        W29615  26.897   9.322   2.620
57191W        W29616   1.680  23.402  13.955
57192W        W29617   4.085  43.244   3.606
57193W        W29618  40.035  19.723   1.750
57194W        W29619  37.626   7.851  12.388
57195W        W29620  26.492  42.816   2.707
57196W        W29621  44.448  10.537   3.237
57197W        W29622   4.450   1.818  13.470
57198W        W29623  39.284  42.932   0.728
57199W        W29624  30.506   3.297   1.906
57200W        W29625  10.078  30.692  12.042
57201W        W29626  41.002   0.529   1.531
57202W        W29627  15.381   8.442   4.104
57203W        W29628   3.678  21.074  11.378
57204W        W29629  25.403  21.791   2.888
57205W        W29630  32.744  10.431  10.767
57206W        W29631   7.844   7.225   0.528
57207W        W29632  12.627  42.067  12.905
57208W        W29633  24.654   4.481  14.877
57209W        W29634  43.520  19.976   0.456
57210W        W29635  30.371  19.575   2.560
57211W        W29636   7.720  22.475   0.683
57212W        W29637  31.905  28.497   3.600
57213W        W29638  15.735  25.426   4.054
57214W        W29639  39.497  33.847  11.461
57215W        W29640  27.786   9.644   4.939
57216W        W29641  32.532  24.777  11.560
57217W        W29642  11.657  15.622   1.930
57218W        W29643  23.233   6.280  12.926
57219W        W29644  33.962   6.638   2.723
57220W        W29645  22.116   5.394  14.309
57221W        W29646  34.807  14.604  11.138
57222W        W29647  15.054   5.182   0.354
57223W        W29648  15.108   1.504   3.799
57224W        W29649  28.407  30.373  12.122
57225W        W29650  39.765  40.808  14.986
57226W        W29651  20.866  21.075   0.823
57227W        W29652  26.080  31.543   4.841
57228W        W29653  39.017  39.323  13.827
57229W        W29654  12.427   2.999   5.475
57230W        W29655  22.755  26.547  13.312
57231W        W29656  19.282  23.442  11.582
57232W        W29657   9.734   2.875   0.333
57233W        W29658  13.348  25.666  12.580
57234W        W29659  37.011  32.088   1.324
57235W        W29660  36.643  21.535  12.844
57236W        W29661  44.834   8.429  14.781
57237W        W29662  43.071  40.027  11.501
57238W        W29663  13.238  42.274   1.323
57239W        W29664   6.406   0.296  10.784
57240W        W29665   4.937  38.869   1.836
57241W        W29666  17.523  20.753   2.840
57242W        W29667  42.463   2.182  13.472
57243W        W29668  28.486  32.522   3.238
57244W        W29669  28.123  15.476  10.055
57245W        W29670   7.382  28.696  12.575
57246W        W29671   2.373  19.638  14.047
57247W        W29672  32.442   3.451  14.340
57248W        W29673  29.969  14.145   4.358
57249W        W29674  19.570   8.353   1.168
57250W        W29675  12.625  13.218   3.466
57251W        W29676  38.298  10.797  13.847
57252W        W29677  10.113   2.342   2.493
57253W        W29678  36.753  23.466  11.701
57254W        W29679  13.323  44.316   2.205
57255W        W29680   6.489  25.148   2.263
57256W        W29681  33.715  21.590   4.156
57257W        W29682   1.831  19.374  12.652
57258W        W29683   8.877   5.659   0.504
57259W        W29684  20.666  42.439  10.610
57260W        W29685  35.295  40.647  14.238
57261W        W29686  39.127  33.098   9.890
57262W        W29687  13.744   5.670  13.563
57263W        W29688   2.856  11.394   2.847
57264W        W29689   7.529  10.704   2.353
57265W        W29690  30.072  34.982  10.617
57266W        W29691  14.829   3.825   4.928
57267W        W29692  23.101  15.030   1.314
57268W        W29693   3.892   5.970   0.725
57269W        W29694   1.731  13.580   3.397
57270W        W29695  37.599  21.711  13.388
57271W        W29696  18.734  34.397   3.345
57272W        W29697  41.290   4.872  13.099
57273W        W29698  12.902  41.536   3.818
57274W        W29699  32.328  38.311  13.029
57275W        W29700  20.770  11.706   4.532
57276W        W29701   4.734  29.459   4.154
57277W        W29702  42.429   1.818   4.719
57278W        W29703   6.674  44.434   2.262
57279W        W29704  32.427  17.287  11.927
57280W        W29705  26.943  13.282  11.698
57281W        W29706   1.175  17.347  14.992
57282W        W29707  40.647   6.157   1.449
57283W        W29708  40.038   7.224  11.922
57284W        W29709  27.361  26.501  11.266
57285W        W29710   3.976  35.131  10.776
57286W        W29711  27.598  37.568  10.986
57287W        W29712  25.392   3.735  14.800
57288W        W29713  18.833  44.488  14.369
57289W        W29714  38.061  32.344   1.890
57290W        W29715   7.722  11.288   4.438
57291W        W29716  26.479  41.029   2.881
57292W        W29717  25.955  35.068  13.406
57293W        W29718  38.965   0.403   2.968
57294W        W29719  39.967  15.917   1.120
57295W        W29720  37.937  23.798  12.057
57296W        W29721  37.254  29.479   0.735
57297W        W29722  14.623  18.431  13.394
57298W        W29723   5.195  28.098  10.574
57299W        W29724   1.900  12.106   2.148
57300W        W29725  38.901  20.637   4.279
57301W        W29726  23.145  18.541  11.949
57302W        W29727  29.862  34.286   2.869
57303W        W29728  38.323   1.292   4.175
57304W        W29729  15.553  34.657  10.264
57305W        W29730   4.936   1.849  11.217
57306W        W29731  32.967  40.067  12.022
57307W        W29732  31.691  18.726  12.088
57308W        W29733   2.767  20.717   3.341
57309W        W29734   8.398  43.010  10.679
57310W        W29735   3.051  14.224  11.842
57311W        W29736  36.485  22.052   3.676
57312W        W29737  11.258  42.937  10.709
57313W        W29738   0.709  42.429   1.788
57314W        W29739   1.285  17.173   3.662
57315W        W29740  40.608  21.313   2.835
57316W        W29741  26.923  15.747  10.609
57317W        W29742  28.145  31.701   2.213
57318W        W29743  21.774  31.943  13.166
57319W        W29744  43.801  11.688   4.261
57320W        W29745  29.893  36.633  11.156
57321W        W29746  44.391   6.462   3.673
57322W        W29747  41.172  22.923  13.399
57323W        W29748  29.703  19.319  14.800
57324W        W29749  28.589   5.058  10.568
57325W        W29750  24.043  16.181   0.818
57326W        W29751  16.358  34.661   1.844
57327W        W29752   4.661  33.823  11.208
57328W        W29753  35.578   7.254  11.824
57329W        W29754  38.085  20.063   1.154
57330W        W29755   1.037   1.684  11.191
57331W        W29756  34.445  30.184   0.258
57332W        W29757  21.148  24.659  13.802
57333W        W29758   0.455  31.598  14.775
57334W        W29759  32.355  10.870  11.160
57335W        W29760  29.065  20.256  13.752
57336W        W29761  18.651  43.655   4.797
57337W        W29762  35.319  44.834  13.060
57338W        W29763  44.715   2.006   2.827
57339W        W29764  14.556  35.547   2.661
57340W        W29765  18.729  40.557  14.853
57341W        W29766   5.877  16.715   3.215
57342W        W29767  13.057  33.112  11.302
57343W        W29768  35.878  27.690  11.910
57344W        W29769   7.308   0.829   3.892
57345W        W29770  38.402  38.219   0.817
57346W        W29771   3.186  30.246   4.938
57347W        W29772  36.190  21.014  10.515
57348W        W29773  13.406   5.091  10.136
57349W        W29774  31.906  42.440  14.408
57350W        W29775  12.080   2.780   5.165
57351W        W29776   4.961  15.108  10.313
57352W        W29777  43.680  41.853   1.420
57353W        W29778  19.618  23.999  12.958
57354W        W29779  30.469  18.598   2.266
57355W        W29780  38.423  44.187   2.461
57356W        W29781  41.887  29.476  10.135
57357W        W29782  33.145  18.608  11.108
57358W        W29783   3.806  22.835  10.904
57359W        W29784  16.630  18.214   2.862
57360W        W29785  28.317  14.712  14.840
57361W        W29786  43.991  36.054   2.667
57362W        W29787   3.173  26.126   0.026
57363W        W29788  36.595  16.066   2.832
57364W        W29789  21.430  34.627  13.124
57365W        W29790  36.606  32.095  13.382
57366W        W29791  15.880  41.737   4.115
57367W        W29792  38.111  21.380  12.247
57368W        W29793  14.723  13.392   4.402
57369W        W29794  36.835  31.424   1.769
57370W        W29795   3.460   6.821   2.849
57371W        W29796  44.345   6.980   3.609
57372W        W29797  11.035  30.336  12.028
57373W        W29798   4.241  11.607   0.061
57374W        W29799   2.663   1.694   2.023
57375W        W29800  25.127  37.346  13.745
57376W        W29801  22.108  18.821  12.874
57377W        W29802  22.466   9.883  10.593
57378W        W29803  29.937   7.820  12.335
57379W        W29804   2.302  17.791   4.728
57380W        W29805  38.859  36.652   1.699
57381W        W29806  28.969  36.473   2.697
57382W        W29807  36.962  19.605   1.563
57383W        W29808  22.681  42.780   0.807
57384W        W29809  14.307  14.821   3.657
57385W        W29810   4.038  10.733  10.608
57386W        W29811  31.774  38.129   4.072
57387W        W29812  20.880  37.370  10.269
57388W        W29813  12.448  18.111  14.387
57389W        W29814   0.344  29.687  14.966
57390W        W29815  24.386   4.218   4.415
57391W        W29816  22.518   5.000   0.294
57392W        W29817  37.921  39.062   0.896
57393W        W29818  21.423   2.342  14.308
57394W        W29819  36.349  15.680  11.823
57395W        W29820  39.275  36.474  11.231
57396W        W29821  29.485  35.842  11.933
57397W        W29822  34.359  38.070  11.629
57398W        W29823  10.705   4.863  14.385
57399W        W29824  42.044  33.400   0.746
57400W        W29825   8.912   3.694  11.021
57401W        W29826  39.333  40.369   2.802
57402W        W29827   0.788  26.688  10.527
57403W        W29828  28.395  28.198  11.645
57404W        W29829  21.189  33.971   1.357
57405W        W29830  24.896  40.618  13.857
57406W        W29831  42.904   3.873   2.422
57407W        W29832   6.769  22.335  12.601
57408W        W29833  35.634  13.674  12.141
57409W        W29834   2.359  38.330   1.197
57410W        W29835  10.718  24.995  14.491
57411W        W29836  25.909  18.624   3.315
57412W        W29837  20.147  15.068  11.833
57413W        W29838  20.579  13.122   2.905
57414W        W29839  41.143  31.164   1.884
57415W        W29840  27.670  17.318   1.912
57416W        W29841  29.970  39.995  14.776
57417W        W29842  16.103   3.433   3.750
57418W        W29843  28.558  14.292   4.192
57419W        W29844  16.583  26.127   3.144
57420W        W29845   4.890  11.632   0.424
57421W        W29846  21.710  21.102  13.609
57422W        W29847  40.548  18.091  11.088
57423W        W29848  10.913  33.338  12.026
57424W        W29849  25.896   7.196   1.432
57425W        W29850  39.311  42.178  10.445
57426W        W29851  15.231   3.672   2.397
57427W        W29852  24.634   2.387   2.313
57428W        W29853   6.790  20.417   2.697
57429W        W29854   5.354  18.037  11.939
57430W        W29855  27.967  28.609  14.771
57431W        W29856   8.875  43.184   3.809
57432W        W29857  30.565  27.179  10.920
57433W        W29858  24.567  36.579  10.730
57434W        W29859  34.125   4.989   9.929
57435W        W29860  38.945   6.189  11.489
57436W        W29861  25.040  20.179  14.471
57437W        W29862  15.348  41.004  10.774
57438W        W29863  38.554  25.608  13.098
57439W        W29864   1.911  41.945  14.276
57440W        W29865  38.341  12.918   0.732
57441W        W29866  17.588   4.438  13.359
57442W        W29867   8.877  32.145   3.865
57443W        W29868  44.818  41.008   3.022
57444W        W29869  13.224  25.386  10.223
57445W        W29870   6.784  16.781   2.701
57446W        W29871   4.825  39.561   3.854
57447W        W29872  38.271  27.577   0.299
57448W        W29873  33.125  38.089  12.980
57449W        W29874  27.914   7.002   4.246
57450W        W29875   9.255  23.774  13.303
57451W        W29876  28.184   1.287  10.588
57452W        W29877  43.467   4.337   3.728
57453W        W29878   9.833  19.758   2.328
57454W        W29879  23.518  20.772   3.606
57455W        W29880  20.806  15.218  13.518
57456W        W29881  32.683  29.960   0.190
57457W        W29882  20.287  38.042  10.485
57458W        W29883  19.152  12.195   3.644
57459W        W29884  35.533  40.313  13.909
57460W        W29885   0.984  25.789  11.998
57461W        W29886   8.618   7.866   4.019
57462W        W29887  37.916  10.000   4.537
57463W        W29888  19.004  25.709   3.249
57464W        W29889  18.204   2.354  12.343
57465W        W29890  30.132  41.812  13.998
57466W        W29891   3.968  21.975  12.555
57467W        W29892  25.377  37.860  11.605
57468W        W29893  32.541   0.989  14.140
57469W        W29894  14.133  14.626  13.598
57470W        W29895  41.899   4.480   2.630
57471W        W29896  37.447  30.797   0.244
57472W        W29897  38.958  13.124   0.988
57473W        W29898  31.676  18.772   4.999
57474W        W29899  36.123  11.922   2.028
57475W        W29900   2.524  29.052   3.227
57476W        W29901   4.225  24.128   2.287
57477W        W29902  38.304  12.183  11.093
57478W        W29903   7.626   8.285  13.957
57479W        W29904   3.142  13.582   3.180
57480W        W29905   3.777  36.725  14.540
57481W        W29906  18.614  32.860   0.328
57482W        W29907  37.045   9.218  14.456
57483W        W29908  35.037  39.037   4.698
57484W        W29909  43.791  39.124   0.384
57485W        W29910   2.382  19.734  14.590
57486W        W29911  13.532  34.675  12.130
57487W        W29912  39.098  24.051  11.105
57488W        W29913   6.987  27.986   2.785
57489W        W29914  39.209  43.569   1.875
57490W        W29915  43.292  20.291   2.575
57491W        W29916  40.074  33.639  10.749
57492W        W29917  41.838   3.484   2.332
57493W        W29918  34.897  14.217  11.897
57494W        W29919  30.351  38.889  10.920
57495W        W29920  42.236  24.515  11.925
57496W        W29921  17.711   9.449  13.162
57497W        W29922   9.994  36.242   3.521
57498W        W29923  14.057   2.746  12.653
57499W        W29924  20.468   7.264  14.830
57500W        W29925  22.736  26.514  11.153
57501W        W29926  31.711  22.284   1.714
57502W        W29927  21.270  12.182   0.305
57503W        W29928  23.430   6.741   2.302
57504W        W29929   4.631  37.053   3.731
57505W        W29930  31.372  14.807  10.655
57506W        W29931  36.866   7.277   1.321
57507W        W29932  20.656  13.633   0.768
57508W        W29933   8.315  14.999  12.933
57509W        W29934   4.199   0.910  10.491
57510W        W29935  43.785  12.927  12.569
57511W        W29936  11.950  36.365   3.583
57512W        W29937  35.399  22.613   0.511
57513W        W29938  19.157  12.581   3.260
57514W        W29939   2.294  39.943  11.608
57515W        W29940   8.614  17.846  10.656
57516W        W29941  19.767  27.682  12.140
57517W        W29942  17.890  25.025  11.537
57518W        W29943  25.502   2.471  14.466
57519W        W29944  11.356  16.076   1.241
57520W        W29945  22.231  24.658   3.836
57521W        W29946  13.595  21.902   5.657
57522W        W29947  14.252  18.660   4.518
57523W        W29948   1.707  39.929   2.722
57524W        W29949  21.878  42.329  11.499
57525W        W29950   4.408   7.407   4.786
57526W        W29951  34.843   2.475  14.387
57527W        W29952  26.439  28.726   4.265
57528W        W29953  29.520  19.817  14.969
57529W        W29954  44.166  36.398  14.518
57530W        W29955   3.972  39.000   0.455
57531W        W29956  37.310  33.698   2.344
57532W        W29957  26.932  39.017  10.824
57533W        W29958  32.684  25.756   2.291
57534W        W29959   2.290  22.726   3.898
57535W        W29960  22.309  37.001  11.777
57536W        W29961  30.173  17.609   2.244
57537W        W29962  21.737  32.940  13.292
57538W        W29963  30.644  39.133   2.151
57539W        W29964  14.481  40.158   2.973
57540W        W29965  18.657  28.244   2.765
57541W        W29966  35.006  16.212   0.823
57542W        W29967  20.387  37.540  11.156
57543W        W29968   2.361  11.512   2.828
57544W        W29969  17.903  27.201   1.645
57545W        W29970  41.563  33.965   1.665
57546W        W29971   9.158   9.198  13.018
57547W        W29972  18.648  14.835  10.664
57548W        W29973  20.004  28.031  11.828
57549W        W29974  17.720  23.112   3.864
57550W        W29975  38.975   1.485  11.593
57551W        W29976  17.283  14.684  12.820
57552W        W29977  16.019   8.876   2.812
57553W        W29978  17.593  44.311   2.905
57554W        W29979   9.610  15.753  11.617
57555W        W29980  11.863   8.777   2.411
57556W        W29981   6.868   6.076  11.515
57557W        W29982  25.229  13.173   2.208
57558W        W29983  10.779  28.111  14.354
57559W        W29984  36.589  39.782   0.903
57560W        W29985   8.069  34.990  13.183
57561W        W29986  41.492  23.119  14.878
57562W        W29987  44.207  30.012  13.766
57563W        W29988   6.740  25.527   3.005
57564W        W29989   8.410   9.731   2.009
57565W        W29990   8.159  16.272  14.928
57566W        W29991   6.381  14.650   0.947
57567W        W29992  28.898  29.904  11.439
57568W        W29993   8.307  42.566  12.692
57569W        W29994  23.998  15.089  10.954
57570W        W29995   3.516  28.809   0.365
57571W        W29996  33.821  29.455  12.187
57572W        W29997  30.048  10.453  12.954
57573W        W29998  20.414  43.007   0.064
57574W        W29999   5.458  17.604  10.688
57575W        W30000  43.834   4.273  13.579
57576W        W30001   6.039  39.451  12.721
57577W        W30002  36.601  15.215   3.131
57578W        W30003   6.539   3.069   2.584
57579W        W30004  10.050  42.843  11.569
57580W        W30005  34.844  37.991  12.128
57581W        W30006   6.393  41.451  10.280
57582W        W30007  35.902  30.571   1.189
57583W        W30008   2.555   6.952  12.829
57584W        W30009  41.031  33.368   5.066
57585W        W30010  27.484  12.720   1.142
57586W        W30011  10.761  25.299   1.410
57587W        W30012   5.351  31.510  12.414
57588W        W30013  21.248  30.917  14.853
57589W        W30014  23.559   9.418  13.893
57590W        W30015   4.288   3.436  11.291
57591W        W30016  32.422  31.495   2.808
57592W        W30017   2.833  37.598  13.635
57593W        W30018  43.809  32.880  10.988
57594W        W30019  24.263  30.528   2.190
57595W        W30020  11.297  33.677   1.242
57596W        W30021  13.189  20.748   1.713
57597W        W30022  12.195  21.658   2.749
57598W        W30023   8.748  19.030  13.138
57599W        W30024  16.315  17.114   2.749
57600W        W30025   9.295  27.973   2.666
57601W        W30026  38.321  39.833   0.971
57602W        W30027  10.837  35.998   5.067
57603W        W30028  18.630  12.388  13.541
57604W        W30029  15.279  22.476  11.161
57605W        W30030  36.356  38.919  12.517
57606W        W30031   4.364  44.728   1.866
57607W        W30032  36.546   1.178   2.182
57608W        W30033  14.615  19.919  13.440
57609W        W30034   6.720  10.825   3.681
57610W        W30035  31.187  24.529  11.721
57611W        W30036  35.573  24.514  13.973
57612W        W30037  24.472  26.093  14.736
57613W        W30038   7.785  15.304  14.485
57614W        W30039   2.254  35.800   0.372
57615W        W30040   0.855  25.632   3.657
57616W        W30041  44.568   6.086   2.902
57617W        W30042   8.658   6.782  10.636
57618W        W30043  37.125  11.814   2.045
57619W        W30044   7.275  15.124   2.707
57620W        W30045  32.163  34.278  11.196
57621W        W30046  41.589  32.674  11.974
57622W        W30047   4.235  17.217   4.557
57623W        W30048  39.089  40.775  13.476
57624W        W30049  18.703  11.737   1.756
57625W        W30050   3.728  29.143  11.602
57626W        W30051   1.944  23.538   3.565
57627W        W30052  34.024   2.436  13.014
57628W        W30053   9.295  36.602  14.717
57629W        W30054  36.480   8.817   3.887
57630W        W30055  37.319  15.110  12.371
57631W        W30056  13.576  28.205  14.303
57632W        W30057   9.609  15.801   4.528
57633W        W30058  41.840  28.408   4.706
57634W        W30059   1.273  27.130   4.520
57635W        W30060   5.881  41.988  10.741
57636W        W30061  13.654  18.264  12.479
57637W        W30062  24.636  38.550   3.557
57638W        W30063  30.316  26.232  11.485
57639W        W30064  12.829   6.023   4.192
57640W        W30065  36.096   8.235   0.788
57641W        W30066   0.904  40.763   2.197
57642W        W30067  28.366  10.474  10.528
57643W        W30068  15.135  32.512   0.379
57644W        W30069   7.992  24.959   2.106
57645W        W30070  27.943  16.109  13.330
57646W        W30071  24.541   9.130  11.033
57647W        W30072  17.879  16.278   1.248
57648W        W30073  30.615  33.495   1.771
57649W        W30074  38.388  34.472   3.184
57650W        W30075  35.162   0.305   1.309
57651W        W30076   8.641  21.583  14.397
57652W        W30077  40.542  13.081  12.523
57653W        W30078  43.011  21.898  12.057
57654W        W30079  13.821  30.517   1.824
57655W        W30080  30.362   8.710   1.337
57656W        W30081  11.122   1.377   4.063
57657W        W30082  23.054  28.451  13.833
57658W        W30083   6.331  18.498  14.017
57659W        W30084   2.233  19.629  12.465
57660W        W30085  43.522   6.174  10.146
57661W        W30086  40.435  23.125   4.060
57662W        W30087  39.794  28.145   2.785
57663W        W30088  31.274  11.183   4.605
57664W        W30089  34.348  40.253  12.467
57665W        W30090  12.781  37.570   0.773
57666W        W30091  43.366  21.464  13.946
57667W        W30092  21.983   7.265  14.926
57668W        W30093   9.672  22.067  12.674
57669W        W30094   5.311  42.393   3.845
57670W        W30095  30.635  26.674  11.013
57671W        W30096  43.335   6.482  14.380
57672W        W30097  44.181   4.388   1.313
57673W        W30098   3.230  17.148  12.069
57674W        W30099  10.917  17.215   0.545
57675W        W30100  31.700   2.728  12.885
57676W        W30101  12.777  35.602   0.481
57677W        W30102  27.569  22.879   5.439
57678W        W30103  36.383  44.627  10.705
57679W        W30104   8.548  12.167  14.265
57680W        W30105   3.263  43.445   4.041
57681W        W30106  32.482  34.648  12.537
57682W        W30107  16.805  41.955  11.211
57683W        W30108  39.848  25.057   0.334
57684W        W30109  25.410   7.354  12.935
57685W        W30110  39.155  11.633   0.779
57686W        W30111  23.236  19.640   2.120
57687W        W30112  32.849  13.089   1.582
57688W        W30113  37.448   9.151  10.261
57689W        W30114  28.088  13.339  13.064
57690W        W30115  22.198  11.765   4.057
57691W        W30116  35.408  15.286  14.490
57692W        W30117  41.741  29.015   0.031
57693W        W30118  39.464  15.433   4.821
57694W        W30119   8.367   9.233   0.699
57695W        W30120  43.696  41.056  11.909
57696W        W30121  14.139   6.940   0.754
57697W        W30122  26.123  32.538  10.480
57698W        W30123  12.183  14.342   4.564
57699W        W30124  15.066  34.807   2.557
57700W        W30125  13.595  20.188  10.617
57701W        W30126   9.535  14.560  13.612
57702W        W30127  40.267  38.923  12.048
57703W        W30128  10.735  11.171  12.034
57704W        W30129  30.826   1.856   0.571
57705W        W30130   2.148   3.381  12.073
57706W        W30131   8.558  12.377   3.769
57707W        W30132  38.088   2.524  13.844
57708W        W30133  34.993  33.008  13.424
57709W        W30134  41.971   8.423   3.430
57710W        W30135  20.636  24.258   1.453
57711W        W30136  44.859   5.931   0.559
57712W        W30137  34.547  36.340  11.151
57713W        W30138  10.693  24.214   3.640
57714W        W30139   2.705   4.629  13.756
57715W        W30140  37.078  28.916  14.935
57716W        W30141  22.771   3.269   3.748
57717W        W30142  15.789  27.414  12.526
57718W        W30143  13.775  14.995  11.295
57719W        W30144  18.609   4.870   3.376
57720W        W30145  24.150  32.621   4.379
57721W        W30146  32.656  32.055   2.004
57722W        W30147  33.521  18.677   1.344
57723W        W30148  24.294  12.501   4.929
57724W        W30149   5.648   1.170  11.113
57725W        W30150  21.057  30.089   1.502
57726W        W30151   2.877  39.798   0.314
57727W        W30152   0.480  25.665   0.304
57728W        W30153  10.103  39.381   5.256
57729W        W30154  11.718  15.563  11.085
57730W        W30155  40.427  41.552  12.325
57731W        W30156  15.289   6.762   4.617
57732W        W30157  16.227  30.225   2.160
57733W        W30158  30.493  21.799   5.087
57734W        W30159  33.447   4.893   4.186
57735W        W30160   7.680  17.215   2.834
57736W        W30161  37.993  39.044   2.810
57737W        W30162  37.482   6.808   1.484
57738W        W30163  30.554   7.180  13.913
57739W        W30164   3.039  17.042  13.320
57740W        W30165  15.329   3.378   1.024
57741W        W30166  21.568   0.985   0.287
57742W        W30167  42.038   5.426   2.373
57743W        W30168  38.042  20.747   0.761
57744W        W30169   1.236  24.478   2.276
57745W        W30170  30.076  18.167   0.980
57746W        W30171  14.656   4.623   3.077
57747W        W30172   2.321  35.747  11.100
57748W        W30173  15.190  26.044   1.407
57749W        W30174  36.967  33.547   4.294
57750W        W30175  42.204  11.677   3.442
57751W        W30176   1.121  22.084  11.329
57752W        W30177  13.495  33.712  12.096
57753W        W30178  32.578  41.398  13.952
57754W        W30179   2.804  30.161   2.223
57755W        W30180  31.131  10.713   2.345
57756W        W30181  17.797  28.201   2.885
57757W        W30182  39.296   5.395   1.903
57758W        W30183   5.899  24.775   2.671
57759W        W30184  27.450  15.087   2.398
57760W        W30185  10.615   9.816  13.434
57761W        W30186  12.391   1.808  12.383
57762W        W30187   9.550  33.602   0.689
57763W        W30188  24.591   9.168  13.145
57764W        W30189  35.550  15.027   3.701
57765W        W30190  10.680   5.904   3.590
57766W        W30191  39.069  29.504   3.184
57767W        W30192  44.953   9.475   0.471
57768W        W30193  22.315  32.561  14.805
57769W        W30194  17.550   6.503   4.005
57770W        W30195  41.596   5.537   1.902
57771W        W30196  39.912  22.082   0.772
57772W        W30197  36.988   4.836   0.905
57773W        W30198  21.719   1.230   2.388
57774W        W30199  41.730  25.744  11.622
57775W        W30200  42.761   6.134  14.771
57776W        W30201  33.953  14.406   3.087
57777W        W30202   4.182  27.481   4.683
57778W        W30203   8.803  38.318   0.371
57779W        W30204  33.141  14.921   0.664
57780W        W30205  26.529  14.874  12.344
57781W        W30206  42.363  10.072  12.415
57782W        W30207  14.401  40.374   1.984
57783W        W30208  39.536   1.892   3.764
57784W        W30209  19.953  27.128   0.824
57785W        W30210  42.943   8.573  14.687
57786W        W30211  37.519  38.935   4.569
57787W        W30212  11.414  24.504  10.020
57788W        W30213  14.037  22.320  12.155
57789W        W30214   2.754  13.868  11.590
57790W        W30215  42.780   6.197   0.321
57791W        W30216   6.809  34.963   2.337
57792W        W30217  12.102  11.700   0.441
57793W        W30218  24.325  36.100   5.210
57794W        W30219  27.963  15.873   1.560
57795W        W30220   6.285   7.306   0.394
57796W        W30221  42.429   3.603   2.272
57797W        W30222  24.645  23.144   0.790
57798W        W30223  14.373  40.128  11.084
57799W        W30224  22.626  17.851   0.453
57800W        W30225  19.249  12.512   1.863
57801W        W30226  25.534  37.582   4.622
57802W        W30227  21.997  25.670   3.069
57803W        W30228   5.912  25.523  12.092
57804W        W30229   1.526  41.944  12.988
57805W        W30230   4.350  21.448   2.346
57806W        W30231  34.519  44.268  12.148
57807W        W30232  31.081  27.573   2.805
57808W        W30233   2.725   1.420  12.566
57809W        W30234  10.180   9.373  11.135
57810W        W30235  35.042   6.150   3.135
57811W        W30236  22.283  11.763   1.395
57812W        W30237   2.022  24.902  14.780
57813W        W30238   5.175   7.114   0.381
57814W        W30239  30.466  43.223  13.816
57815W        W30240  37.997  13.564   2.138
57816W        W30241  21.593   5.075   9.916
57817W        W30242  18.973  24.599   1.353
57818W        W30243  43.454   2.401   4.219
57819W        W30244  30.008  19.268   3.689
57820W        W30245  13.491   0.840   3.129
57821W        W30246   1.059  31.324  14.075
57822W        W30247   3.252  28.621   0.806
57823W        W30248  35.071  43.407   0.713
57824W        W30249   6.934   0.479  10.985
57825W        W30250  33.267   5.770   0.477
57826W        W30251  33.675  33.169  11.156
57827W        W30252   3.335  30.968  14.419
57828W        W30253  42.243   7.005  10.138
57829W        W30254   6.280  24.193  13.368
57830W        W30255  18.179   0.257  12.327
57831W        W30256  39.801  26.640  14.055
57832W        W30257  16.260  24.860   0.104
57833W        W30258  29.412  21.425   2.387
57834W        W30259  23.963   0.519  14.026
57835W        W30260  29.225   5.767  11.060
57836W        W30261  40.012  36.324  12.548
57837W        W30262  41.230  24.739   3.542
57838W        W30263   7.645   1.932  10.511
57839W        W30264   5.165  40.143  13.684
57840W        W30265  38.544  39.010  11.699
57841W        W30266  24.233   6.221   1.482
57842W        W30267  20.253  33.863   0.428
57843W        W30268  12.066   8.810   0.333
57844W        W30269  15.467  26.003   0.586
57845W        W30270  16.975  36.168  14.389
57846W        W30271  18.274   3.183  10.818
57847W        W30272  29.703  41.498  13.877
57848W        W30273  33.058  42.016   4.466
57849W        W30274   2.807   9.097  13.363
57850W        W30275  17.239  13.497   4.598
57851W        W30276  14.746  17.372   0.933
57852W        W30277  26.549  21.217  14.315
57853W        W30278  11.197  27.739  13.449
57854W        W30279  33.573  16.391   4.873
57855W        W30280  27.426  17.104   2.337
57856W        W30281  33.630   6.884  12.988
57857W        W30282  44.738  18.495  14.938
57858W        W30283  18.017  20.289   0.258
57859W        W30284  11.745   2.914   1.805
57860W        W30285  27.743  36.358   3.431
57861W        W30286  26.274   4.539   3.753
57862W        W30287  14.315  33.879  10.295
57863W        W30288  38.919  38.895   2.402
57864W        W30289  39.596  22.231  12.861
57865W        W30290  28.043  29.490   2.190
57866W        W30291  38.474  35.571  10.606
57867W        W30292  25.491  24.760   5.060
57868W        W30293   2.283  20.149  11.799
57869W        W30294  33.461  44.143  13.619
57870W        W30295  18.559  23.987  10.586
57871W        W30296  40.979  33.835  12.750
57872W        W30297  24.293  42.957   1.750
57873W        W30298  13.645  35.959  12.058
57874W        W30299  11.855  40.113   1.311
57875W        W30300  12.881   5.171  12.963
57876W        W30301   2.052  34.661  14.859
57877W        W30302   2.319  12.915   1.383
57878W        W30303   2.708  41.651   2.689
57879W        W30304  41.617  31.278  11.570
57880W        W30305   5.889   8.589  12.595
57881W        W30306  17.834  12.410   3.333
57882W        W30307   8.076  33.476   0.630
57883W        W30308  17.980  42.085  13.963
57884W        W30309  11.872  16.879   3.987
57885W        W30310  13.402  14.468   4.911
57886W        W30311   7.591  32.349  14.276
57887W        W30312  34.151  21.705   2.834
57888W        W30313  37.642   2.043  11.039
57889W        W30314  30.462   8.964  13.640
57890W        W30315   9.330  22.482  10.663
57891W        W30316  14.210  38.799   4.115
57892W        W30317   8.273  34.180   1.430
57893W        W30318  22.326  30.769   3.151
57894W        W30319  31.622  10.073   4.159
57895W        W30320   9.211   8.469   2.824
57896W        W30321  12.656  12.576   0.076
57897W        W30322  37.832  38.889   4.110
57898W        W30323  28.536  29.576   0.187
57899W        W30324  34.076   5.497   1.272
57900W        W30325  40.373  28.961  14.646
57901W        W30326  25.476   8.310   4.286
57902W        W30327  36.935  30.376  14.721
57903W        W30328   3.850   7.425   3.998
57904W        W30329   1.357  23.684   1.938
57905W        W30330  40.272  35.001  10.644
57906W        W30331  22.783  32.647   4.459
57907W        W30332  18.591  27.069   4.860
57908W        W30333   9.432   6.796   3.257
57909W        W30334   0.784  23.419   0.639
57910W        W30335   5.717   1.553  14.956
57911W        W30336  43.742  18.714   1.676
57912W        W30337   8.019  21.620  12.632
57913W        W30338  36.141  16.050   1.967
57914W        W30339  24.538  27.711  13.865
57915W        W30340  35.865   9.179   0.773
57916W        W30341  15.002  16.785   0.400
57917W        W30342   3.713   6.056   1.750
57918W        W30343  12.697  14.473  13.923
57919W        W30344  33.184   1.009  11.089
57920W        W30345  30.452  39.555   3.477
57921W        W30346  26.029  39.114  13.578
57922W        W30347  17.192   6.008  12.451
57923W        W30348  14.780  33.454   4.681
57924W        W30349  37.817  27.364  14.432
57925W        W30350  27.588  37.744   1.807
57926W        W30351  32.128  40.911  13.402
57927W        W30352  32.090  19.622   4.652
57928W        W30353  27.423  30.540  14.347
57929W        W30354   6.207  19.109  13.562
57930W        W30355  29.541   1.368   4.585
57931W        W30356  43.746  19.738  13.023
57932W        W30357  26.013  30.219   1.963
57933W        W30358  18.130  25.010   0.409
57934W        W30359   3.414  44.735   1.886
57935W        W30360  29.872  21.634  10.451
57936W        W30361   7.092  42.343  13.698
57937W        W30362  19.173   3.372  10.677
57938W        W30363  16.132  27.796   3.043
57939W        W30364  25.531   1.335   2.483
57940W        W30365   4.857  25.657   0.776
57941W        W30366  22.279  31.858   4.233
57942W        W30367  38.256  39.808   3.720
57943W        W30368   0.416   8.243  13.367
57944W        W30369   1.099   3.467  10.183
57945W        W30370   8.498  43.027   4.769
57946W        W30371  37.261  10.516   5.354
57947W        W30372   1.045   9.468   3.688
57948W        W30373  25.335  34.179  12.641
57949W        W30374  15.405  37.276  13.611
57950W        W30375  37.157  11.336   2.884
57951W        W30376   7.331   6.129   0.385
57952W        W30377  24.582  12.297  13.562
57953W        W30378  44.334  44.503  14.366
57954W        W30379   0.340   9.391   0.798
57955W        W30380  39.579  23.518  13.325
57956W        W30381  29.001  22.072   4.654
57957W        W30382   6.482  31.531   3.729
57958W        W30383   1.438  34.239   0.628
57959W        W30384  26.191  39.726  11.524
57960W        W30385  23.558  35.646  13.549
57961W        W30386  38.576   9.858   2.630
57962W        W30387  30.824   2.184   5.180
57963W        W30388  17.172   1.435  13.800
57964W        W30389  16.675  21.838   1.273
57965W        W30390  37.807  30.468   1.479
57966W        W30391  21.129   4.783   1.335
57967W        W30392  22.868  17.343   3.102
57968W        W30393  19.244  38.837   0.386
57969W        W30394  44.001  44.553  13.539
57970W        W30395  38.061  29.447  11.718
57971W        W30396  24.427  44.572   1.408
57972W        W30397  17.673  44.825  11.202
57973W        W30398  43.778  22.765  14.916
57974W        W30399  42.765   6.923   0.997
57975W        W30400   6.190   3.918   1.889
57976W        W30401   5.467  11.106  13.851
57977W        W30402  22.820  26.902   2.160
57978W        W30403  30.752   4.463   1.228
57979W        W30404  28.075  27.125  14.807
57980W        W30405   3.357   5.720  13.254
57981W        W30406  16.185  34.687   5.406
57982W        W30407  10.667  18.876   4.111
57983W        W30408  34.671   6.973  11.435
57984W        W30409  17.428   9.066  11.448
57985W        W30410  18.171  43.295   2.774
57986W        W30411  36.113  37.976   0.488
57987W        W30412   2.011   5.672  12.008
57988W        W30413  14.804  30.558  10.753
57989W        W30414  29.690  32.390   0.272
57990W        W30415  38.562  40.811  13.482
57991W        W30416  31.688  37.814  13.759
57992W        W30417  16.922  12.358   2.944
57993W        W30418   8.255  14.075   2.523
57994W        W30419  11.766   3.042  11.492
57995W        W30420   4.398  22.083   3.660
57996W        W30421  16.203  17.001  14.782
57997W        W30422  21.260   0.531   3.736
57998W        W30423  26.590  28.463  14.008
57999W        W30424   5.209  36.195   1.220
58000W        W30425   4.201  13.879   4.416
58001W        W30426  35.144  13.441  13.731
58002W        W30427  37.582   2.973   4.134
58003W        W30428  36.636  22.514  11.931
58004W        W30429  35.540  10.257   4.421
58005W        W30430  37.115  18.358   1.294
58006W        W30431  33.582  29.403  12.633
58007W        W30432  29.479   2.488   2.234
58008W        W30433  30.678  29.545   2.398
58009W        W30434  10.341  19.577   0.394
58010W        W30435  43.937  39.565   3.662
58011W        W30436   8.373  25.735  12.610
58012W        W30437  16.613  37.077   3.697
58013W        W30438  21.649  33.781   2.857
58014W        W30439  15.562  28.068  14.528
58015W        W30440  36.032   7.865  11.966
58016W        W30441  40.976  38.975   2.781
58017W        W30442  29.757   4.830   3.346
58018W        W30443  28.944  30.458   4.570
58019W        W30444  23.459  24.655  12.507
58020W        W30445   5.656   3.950  12.829
58021W        W30446  20.474  24.331   2.851
58022W        W30447  36.624  25.082   3.155
58023W        W30448  23.547  18.089   4.907
58024W        W30449   7.867   9.573  12.559
58025W        W30450  12.833  19.976   2.233
58026W        W30451  22.005  16.535   3.241
58027W        W30452  11.627  35.781  13.457
58028W        W30453  16.900  24.048  14.252
58029W        W30454  39.100  28.974   3.671
58030W        W30455  31.587  10.838   0.377
58031W        W30456   2.853  33.551  11.008
58032W        W30457  41.346   6.635   2.305
58033W        W30458   7.889  44.659  14.463
58034W        W30459  14.788  31.837   1.233
58035W        W30460   4.937   5.342   2.220
58036W        W30461  41.851   3.198   0.710
58037W        W30462  20.487  21.640  10.933
58038W        W30463  37.106   3.807   1.877
58039W        W30464  28.151  18.597  12.241
58040W        W30465  30.181   3.470   4.971
58041W        W30466   3.522   3.117  11.567
58042W        W30467  11.478  12.706  11.957
58043W        W30468  34.824   1.402   0.995
58044W        W30469   6.372  18.614   1.920
58045W        W30470  17.205  41.428   4.077
58046W        W30471  43.442  18.241   1.641
58047W        W30472   5.375   2.599   4.455
58048W        W30473  34.723  13.424  12.072
58049W        W30474  30.198  10.820   0.761
58050W        W30475  18.622  15.671   4.952
58051W        W30476  40.546  41.088   0.377
58052W        W30477  25.103  24.021  14.383
58053W        W30478  38.014  22.239  11.996
58054W        W30479  29.427  17.588   0.646
58055W        W30480   6.094   7.700  13.446
58056W        W30481  38.036  38.716   3.199
58057W        W30482  15.774   8.357   3.747
58058W        W30483  23.301  39.514  13.508
58059W        W30484  27.082  14.722  11.622
58060W        W30485  44.501   5.355   2.752
58061W        W30486  44.255  10.270   1.795
58062W        W30487  34.421  11.335   1.315
58063W        W30488  44.535  20.054   4.064
58064W        W30489  24.070  43.037   4.662
58065W        W30490   0.725  18.722  12.511
58066W        W30491  14.527   6.948  13.397
58067W        W30492   0.766  22.428  11.164
58068W        W30493   3.275  13.046  12.904
58069W        W30494  43.689  19.284  12.794
58070W        W30495  35.177  24.145   1.160
58071W        W30496  12.396  27.006  11.418
58072W        W30497  43.902  13.485  11.490
58073W        W30498  39.287  28.700  14.949
58074W        W30499  30.542  21.519  12.621
58075W        W30500  43.364  23.074  14.941
58076W        W30501  39.398  32.681  12.834
58077W        W30502  35.394  23.204   3.523
58078W        W30503   5.845  22.896  11.816
58079W        W30504  43.468  37.084   0.871
58080W        W30505   5.687  25.585   4.256
58081W        W30506  43.789  13.689  13.050
58082W        W30507  21.865  44.957  11.180
58083W        W30508  13.265  41.787   4.623
58084W        W30509  25.471   1.432   4.552
58085W        W30510  40.307   8.601   2.770
58086W        W30511  10.832  32.035  12.066
58087W        W30512  37.981  21.292   2.577
58088W        W30513  28.193  38.856  11.864
58089W        W30514   1.958  22.967  13.910
58090W        W30515  32.157  14.336   4.593
58091W        W30516  11.261  35.874  12.334
58092W        W30517  28.688  39.610  13.477
58093W        W30518  28.671  13.121   4.731
58094W        W30519  28.628  41.213  10.418
58095W        W30520  18.086  35.001   5.092
58096W        W30521  13.792  10.983   3.877
58097W        W30522  18.160  29.046  12.652
58098W        W30523  22.579  28.072   0.265
58099W        W30524  42.230  21.202   0.998
58100W        W30525   2.260   1.893  14.975
58101W        W30526  43.471  44.819   3.398
58102W        W30527  37.534   6.692   5.471
58103W        W30528  34.518  42.152  12.479
58104W        W30529  40.530   6.433   2.911
58105W        W30530  22.495   6.168   1.277
58106W        W30531  28.489   6.723   1.820
58107W        W30532  42.877   8.892  11.576
58108W        W30533   0.729  17.152   0.796
58109W        W30534  22.687  39.256   2.546
58110W        W30535  13.435  23.949  13.833
58111W        W30536  28.367  29.948  12.891
58112W        W30537   5.390  29.188  13.898
58113W        W30538  38.746  42.925   0.788
58114W        W30539  38.996  35.378  12.560
58115W        W30540  12.100   2.892   4.651
58116W        W30541   3.242  14.954  13.308
58117W        W30542  37.441   9.251   1.933
58118W        W30543  19.967  40.550  14.288
58119W        W30544  37.958   0.042  14.971
58120W        W30545  26.930  36.843   1.460
58121W        W30546  40.210   5.562   1.762
58122W        W30547  36.016   7.675  13.891
58123W        W30548  12.262  19.773  10.777
58124W        W30549  15.590  15.594   3.617
58125W        W30550   4.434  25.992   0.805
58126W        W30551  23.659  41.960   4.730
58127W        W30552   5.990   8.411  12.116
58128W        W30553  43.460  22.320   0.674
58129W        W30554   7.198  25.316  12.138
58130W        W30555  10.710  42.397  14.921
58131W        W30556   4.829  27.220   1.734
58132W        W30557  28.490  40.900   2.753
58133W        W30558  26.413   2.954  12.109
58134W        W30559  34.467  38.506   2.295
58135W        W30560  36.842  27.501  14.479
58136W        W30561  23.632   7.320   2.904
58137W        W30562   3.234  35.607  14.095
58138W        W30563  28.638  12.142  11.237
58139W        W30564  31.996  33.074   1.085
58140W        W30565  28.905  11.024  13.329
58141W        W30566  35.488   1.963   4.077
58142W        W30567  39.838  14.872   3.721
58143W        W30568  38.353  38.912   4.160
58144W        W30569   0.697  41.013  11.098
58145W        W30570   8.082  14.254   1.365
58146W        W30571   2.439  40.941  13.961
58147W        W30572  39.795   0.848  14.223
58148W        W30573  32.128   0.403  13.417
58149W        W30574  13.027   7.383  12.465
58150W        W30575  25.177  33.032   0.883
58151W        W30576  10.923  36.610   1.700
58152W        W30577  32.185  18.000  11.319
58153W        W30578  28.305  19.679  12.021
58154W        W30579  18.917   2.009   5.053
58155W        W30580  33.904   9.801   1.271
58156W        W30581  30.740  29.618  11.436
58157W        W30582   3.447  14.300   3.549
58158W        W30583  41.417  43.913  13.080
58159W        W30584  12.226  21.976   0.047
58160W        W30585  19.573  12.324   1.502
58161W        W30586   4.845   2.890   1.465
58162W        W30587  37.681  18.880  14.858
58163W        W30588  35.896  30.024  12.865
58164W        W30589  17.873  17.681   3.177
58165W        W30590  18.685  26.078  13.546
58166W        W30591  27.720  10.926   2.658
58167W        W30592  38.265  20.539   1.249
58168W        W30593  32.646  29.739  11.699
58169W        W30594  30.562  11.292  14.854
58170W        W30595  23.526  20.080  11.998
58171W        W30596   9.504  21.127  14.313
58172W        W30597  23.154  16.564  12.826
58173W        W30598  43.131   0.712   5.076
58174W        W30599  28.025   7.283  10.694
58175W        W30600  43.997  10.809   3.293
58176W        W30601   8.270  40.750  10.600
58177W        W30602  18.235  32.642   1.588
58178W        W30603  32.978  38.041   2.217
58179W        W30604  30.248  23.700   2.756
58180W        W30605  19.548  20.775  11.668
58181W        W30606   8.750  38.805   2.427
58182W        W30607  37.045   9.728   5.114
58183W        W30608   8.445  11.349  10.565
58184W        W30609  34.847  20.066  12.539
58185W        W30610  35.145   3.715   2.315
58186W        W30611  31.991   9.414  12.061
58187W        W30612  24.911   5.653  12.468
58188W        W30613  20.056  16.544   3.617
58189W        W30614  17.524   8.445  14.975
58190W        W30615  16.169  14.622   0.736
58191W        W30616   9.134  17.685   0.255
58192W        W30617   1.818  38.919  12.656
58193W        W30618   9.899  25.878  11.726
58194W        W30619  34.476   4.466  11.027
58195W        W30620   7.849   6.703  13.127
58196W        W30621  39.445   7.136   1.791
58197W        W30622   6.382  23.645  14.021
58198W        W30623   8.900  22.042  11.461
58199W        W30624  22.086  17.639  10.783
58200W        W30625  38.322   8.837  13.915
58201W        W30626  15.057  32.891  12.112
58202W        W30627  11.433  37.319   0.101
58203W        W30628  44.620  36.757  12.978
58204W        W30629  13.226  30.086   3.764
58205W        W30630  16.651   0.000  12.947
58206W        W30631  11.754  12.267  12.038
58207W        W30632  28.007  22.647   3.747
58208W        W30633  29.181  30.204  11.988
58209W        W30634  41.874  10.325  10.736
58210W        W30635   1.701  30.746   3.831
58211W        W30636  29.005  11.293   0.663
58212W        W30637  28.776  27.713  12.810
58213W        W30638  24.296  37.399   2.826
58214W        W30639  27.070  29.636  12.629
58215W        W30640  10.086  27.278   1.533
58216W        W30641   4.283   7.229  13.553
58217W        W30642  21.147  24.016   4.535
58218W        W30643  24.636  16.191   3.631
58219W        W30644  17.816   7.725  10.543
58220W        W30645  12.660  16.075   2.238
58221W        W30646   3.257  22.523   0.953
58222W        W30647  14.178   6.589  12.169
58223W        W30648  28.514  34.954   3.818
58224W        W30649  39.013  44.943   2.715
58225W        W30650   7.406  43.752  13.820
58226W        W30651  11.657  25.279   3.594
58227W        W30652  25.502   7.539   0.298
58228W        W30653  32.012  33.455   1.419
58229W        W30654   0.309  12.091   4.159
58230W        W30655  14.137  23.192   0.023
58231W        W30656  36.905  14.862   0.724
58232W        W30657   8.728   0.497   3.202
58233W        W30658  24.349  28.164   3.781
58234W        W30659  31.548   3.112  11.186
58235W        W30660  17.156  14.000  13.579
58236W        W30661  32.021   4.781  13.105
58237W        W30662  38.397  16.181   3.555
58238W        W30663  32.216  27.679   2.971
58239W        W30664  14.483  13.936  11.041
58240W        W30665   1.806  31.247   4.214
58241W        W30666   3.956   1.719  12.579
58242W        W30667   7.555  27.977  13.771
58243W        W30668  15.347  30.673   0.255
58244W        W30669  30.365  44.944   4.094
58245W        W30670  11.787   3.957  11.782
58246W        W30671  28.541  43.224   4.525
58247W        W30672  14.081  32.203  10.832
58248W        W30673  22.645   8.701   4.621
58249W        W30674  12.398   1.152   0.281
58250W        W30675  17.310  16.600   3.416
58251W        W30676  10.427   7.307  10.628
58252W        W30677   2.513  30.399  14.478
58253W        W30678  26.606  25.791   0.440
58254W        W30679  24.598   3.390   3.687
58255W        W30680   0.348  16.045   2.823
58256W        W30681  43.593  23.934   2.747
58257W        W30682  28.518  35.413  12.697
58258W        W30683  42.974  22.985   0.261
58259W        W30684  30.078  29.730   1.729
58260W        W30685  35.544  36.014  13.770
58261W        W30686  11.313  44.346   2.694
58262W        W30687  31.795  28.252  14.390
58263W        W30688  20.621  19.572  13.524
58264W        W30689  10.217  18.917  13.422
58265W        W30690   3.865  44.372  14.152
58266W        W30691  12.444  39.009  11.457
58267W        W30692  44.759   8.957  11.124
58268W        W30693  10.784  43.480  13.491
58269W        W30694  10.641  19.926  11.275
58270W        W30695  24.217  10.392   0.931
58271W        W30696   2.664  39.503   0.790
58272W        W30697   1.830  12.551  12.882
58273W        W30698  39.181   5.743  11.299
58274W        W30699  26.165  25.531   0.406
58275W        W30700  43.432  36.383   4.190
58276W        W30701  15.128  32.479   4.564
58277W        W30702  29.950  30.874  11.285
58278W        W30703  39.473  33.574  11.922
58279W        W30704  39.811  18.287   4.521
58280W        W30705   3.430  20.642  14.805
58281W        W30706  35.633  25.740  11.251
58282W        W30707   0.695  27.430  12.654
58283W        W30708  18.461  25.114   0.793
58284W        W30709  14.506  44.254  14.782
58285W        W30710  37.373   8.458  12.481
58286W        W30711  25.575  43.130   3.805
58287W        W30712  41.931  18.050  11.396
58288W        W30713  42.954  27.444  12.330
58289W        W30714  40.805  40.808   1.993
58290W        W30715  20.664   1.474   2.337
58291W        W30716   4.190  36.612   0.897
58292W        W30717  22.949  13.381   4.621
58293W        W30718  35.027  34.849   4.635
58294W        W30719  21.116  24.551  14.831
58295W        W30720  34.878   6.911   3.601
58296W        W30721  25.120  16.311   3.788
58297W        W30722  36.792  28.581  12.508
58298W        W30723  22.147  13.600  11.579
58299W        W30724  37.833  40.859   4.429
58300W        W30725  21.100  19.301   4.054
58301W        W30726  14.234  19.197  11.580
58302W        W30727  13.229  22.863   0.935
58303W        W30728  14.941  22.929   0.447
58304W        W30729   5.847  16.623  13.671
58305W        W30730  22.310   4.327   3.264
58306W        W30731   8.586  17.331   3.802
58307W        W30732  35.543  34.140  10.939
58308W        W30733  13.894  36.970  14.287
58309W        W30734  42.183  40.393  10.639
58310W        W30735  32.367   1.465   2.568
58311W        W30736  27.875   6.058   0.861
58312W        W30737  24.529  17.268   2.789
58313W        W30738   0.491   0.729   0.281
58314W        W30739  20.508  42.803  12.571
58315W        W30740  13.601   6.531   1.391
58316W        W30741  36.426  27.586  14.147
58317W        W30742  35.337  20.250  11.629
58318W        W30743  12.227  20.339   0.292
58319W        W30744  13.006  36.288   2.231
58320W        W30745   1.367  11.700  14.450
58321W        W30746  26.486   1.615  14.819
58322W        W30747  24.432  35.322   0.934
58323W        W30748  39.279  15.361   4.310
58324W        W30749  33.997  13.448  11.640
58325W        W30750  11.893   7.942  13.833
58326W        W30751   4.848  29.380  12.344
58327W        W30752  44.509   6.664  14.878
58328W        W30753   1.538  10.415   3.702
58329W        W30754  17.240  23.173  11.888
58330W        W30755  38.577   5.303  10.824
58331W        W30756   5.400   4.856   0.444
58332W        W30757  32.915  43.251  13.539
58333W        W30758  19.032  11.183  12.569
58334W        W30759  24.713  15.851  13.280
58335W        W30760  25.533  39.975   3.589
58336W        W30761  11.425  31.142   2.079
58337W        W30762   5.681  19.385   0.260
58338W        W30763   4.580  14.405   2.709
58339W        W30764  38.036   0.269   2.743
58340W        W30765  14.667  32.889  10.713
58341W        W30766  26.891  27.165  11.707
58342W        W30767  10.107  15.586  10.706
58343W        W30768  41.777  32.126  13.485
58344W        W30769  19.011   9.727   1.503
58345W        W30770   1.874  18.898   0.121
58346W        W30771   6.341  18.395  10.252
58347W        W30772  19.486  42.841  12.807
58348W        W30773  25.953  33.094   9.832
58349W        W30774  37.571   9.134   2.442
58350W        W30775  27.526  18.510   0.350
58351W        W30776  15.238   6.967  10.696
58352W        W30777  32.243  40.112  14.395
58353W        W30778  37.853   5.049  10.357
58354W        W30779  30.105   6.825   1.410
58355W        W30780  20.113  39.835  12.565
58356W        W30781  29.594  11.163   3.245
58357W        W30782  36.092   4.267  11.372
58358W        W30783  37.484  40.439   2.815
58359W        W30784   8.603  31.639  11.617
58360W        W30785  27.800  21.321   0.532
58361W        W30786  32.483  33.297  10.111
58362W        W30787  34.060  27.188  11.358
58363W        W30788  24.268   6.348   3.147
58364W        W30789  30.192  41.916  14.979
58365W        W30790  12.093  34.403  11.253
58366W        W30791   0.821   3.935   3.352
58367W        W30792  27.434  36.943   1.401
58368W        W30793  21.403   3.086  13.818
58369W        W30794  39.257  41.574   0.223
58370W        W30795  40.180  13.422   2.742
58371W        W30796  39.850  43.170  13.052
58372W        W30797   7.677  11.162   3.132
58373W        W30798  33.597  39.554   2.894
58374W        W30799  38.971  26.871  14.574
58375W        W30800   1.012  44.409  12.426
58376W        W30801  26.572  19.184  11.086
58377W        W30802  28.053  26.266   2.302
58378W        W30803  29.830   3.399   4.593
58379W        W30804   7.297  28.350   1.614
58380W        W30805   3.312  33.305  11.988
58381W        W30806   6.400   0.870   2.887
58382W        W30807   8.419  32.988   3.221
58383W        W30808   3.855   1.792   3.690
58384W        W30809  40.278  17.451   4.510
58385W        W30810   6.853  26.180  10.375
58386W        W30811   1.027  29.204   1.674
58387W        W30812  25.416  11.310   2.704
58388W        W30813  19.315  38.344   2.266
58389W        W30814   4.347   8.275   0.224
58390W        W30815  38.826  40.300   0.339
58391W        W30816  39.595  41.422  12.402
58392W        W30817  24.804   7.237   4.437
58393W        W30818  37.260   2.200  12.892
58394W        W30819  25.470  23.190  13.912
58395W        W30820  43.274   6.064   0.334
58396W        W30821  34.079  43.357  11.485
58397W        W30822  41.749  10.348   1.947
58398W        W30823   6.136  15.704  10.929
58399W        W30824  30.897  21.032   5.176
58400W        W30825  13.177   2.896  12.330
58401W        W30826  42.899   4.631  13.436
58402W        W30827  38.100  28.021  14.069
58403W        W30828   0.719  36.112   2.441
58404W        W30829  34.157  38.582   1.337
58405W        W30830  15.618  19.767   3.259
58406W        W30831  29.376  21.080   3.885
58407W        W30832   3.756  17.145  11.192
58408W        W30833   1.542   4.648   1.173
58409W        W30834   7.410  14.575   3.711
58410W        W30835  25.684  17.375   0.332
58411W        W30836  39.274  43.301   1.412
58412W        W30837  27.780  21.752   3.198
58413W        W30838  42.397  37.058   4.283
58414W        W30839  17.987  25.532  12.405
58415W        W30840  30.058  11.842   2.721
58416W        W30841  37.863  28.752  13.525
58417W        W30842  19.718   0.979   2.255
58418W        W30843  43.722  34.911   1.245
58419W        W30844  41.354   5.821   3.880
58420W        W30845  23.394  25.467   1.932
58421W        W30846   9.937  37.446   2.687
58422W        W30847   4.461   0.289  12.153
58423W        W30848   1.310  33.153   9.727
58424W        W30849  16.632   1.217   2.271
58425W        W30850  21.507  44.688  14.849
58426W        W30851  10.173  31.850  10.201
58427W        W30852  37.463   2.860  13.129
58428W        W30853  38.482  32.189   3.831
58429W        W30854  16.269   4.654  13.012
58430W        W30855  18.362   8.726   2.037
58431W        W30856  21.893   2.508  14.452
58432W        W30857  35.781  13.199  12.009
58433W        W30858  33.445  26.603   4.789
58434W        W30859  44.310  11.013  12.696
58435W        W30860  17.191   4.763  10.487
58436W        W30861   3.179   9.854   4.133
58437W        W30862  11.795  40.014  10.556
58438W        W30863   6.328  23.597  10.391
58439W        W30864  43.904  35.428   0.348
58440W        W30865   0.847  30.038   2.252
58441W        W30866  42.545  26.489  12.860
58442W        W30867  14.963  34.397  11.058
58443W        W30868  37.824  12.735  13.005
58444W        W30869   3.759  29.043  14.168
58445W        W30870   0.049  29.450   3.271
58446W        W30871  36.377  29.733   0.924
58447W        W30872   0.359  30.947   2.789
58448W        W30873  40.010  17.250   0.354
58449W        W30874  25.668  38.589  14.329
58450W        W30875   2.518  34.058  10.579
58451W        W30876   6.288  34.504  13.511
58452W        W30877   6.207   9.651   4.631
58453W        W30878  28.468  29.617  11.171
58454W        W30879  15.555  33.729  11.948
58455W        W30880  10.734  27.545  13.624
58456W        W30881   7.956  21.000   2.354
58457W        W30882  29.796  18.256  14.466
58458W        W30883  24.736  21.772   1.924
58459W        W30884  17.562  31.333   1.160
58460W        W30885  11.139  17.536  14.963
58461W        W30886  34.092  16.647  12.295
58462W        W30887  42.998  15.291  11.218
58463W        W30888   1.372  19.555  12.496
58464W        W30889  33.590  19.171  14.919
58465W        W30890  41.863  44.935  14.077
58466W        W30891  18.827  22.657   4.034
58467W        W30892  31.312  42.883  11.647
58468W        W30893  14.326  14.272  14.504
58469W        W30894  13.695  10.350   2.726
58470W        W30895  30.454  18.981  10.698
58471W        W30896  31.124   6.223  13.127
58472W        W30897   1.732  24.376   1.281
58473W        W30898  27.958  29.979   1.990
58474W        W30899  26.222  32.321   4.054
58475W        W30900  41.156  22.847   5.104
58476W        W30901   1.434  18.520   0.869
58477W        W30902  28.721  17.996  10.640
58478W        W30903  37.575  29.259   4.626
58479W        W30904  23.023  12.797  14.313
58480W        W30905  22.237  10.311   0.977
58481W        W30906  44.462  27.548  14.227
58482W        W30907  29.138  20.273   2.655
58483W        W30908  42.776  21.126  14.306
58484W        W30909  30.578  11.707   0.557
58485W        W30910  43.731  12.657  11.253
58486W        W30911  18.119  40.880   2.787
58487W        W30912  28.803   7.872   1.276
58488W        W30913  19.772  18.382   5.075
58489W        W30914  25.744  27.229  10.651
58490W        W30915  36.945  18.220   0.287
58491W        W30916  27.550   0.380  11.441
58492W        W30917  17.548   0.525  11.181
58493W        W30918  35.839  21.693  13.536
58494W        W30919  41.521  23.140   4.859
58495W        W30920  17.176   9.452   1.893
58496W        W30921  35.634   9.609   0.976
58497W        W30922  37.473  14.649  12.633
58498W        W30923  28.933  23.100   3.879
58499W        W30924   7.452  25.086  13.453
58500W        W30925  17.067   5.417  11.695
58501W        W30926  42.992  41.397  14.871
58502W        W30927  37.104  28.921   3.962
58503W        W30928  23.744  20.048   0.914
58504W        W30929  22.177   8.454   3.503
58505W        W30930  23.282  44.195  13.718
58506W        W30931   6.429  23.191  11.148
58507W        W30932  41.278   1.931  13.894
58508W        W30933   1.934  33.000   2.875
58509W        W30934  35.478  23.422  13.086
58510W        W30935  26.650   8.488  14.068
58511W        W30936   2.468   8.361   0.275
58512W        W30937  19.717  30.374   2.299
58513W        W30938  37.073  27.210   2.760
58514W        W30939   9.817  19.146  13.742
58515W        W30940  18.442  24.545  11.182
58516W        W30941  40.492  40.014  12.228
58517W        W30942  36.823  21.067  11.624
58518W        W30943  43.786  27.668  13.400
58519W        W30944  42.589   6.700  13.679
58520W        W30945   9.586   4.326  14.986
58521W        W30946  44.047  15.809  10.937
58522W        W30947  44.406   9.758   4.889
58523W        W30948  22.990   7.850   2.544
58524W        W30949   5.195  21.527   3.604
58525W        W30950  21.459  36.918   4.128
58526W        W30951  42.234  34.828   3.340
58527W        W30952  37.662  27.201  13.227
58528W        W30953  27.479  41.013  12.743
58529W        W30954  10.263  30.881  10.666
58530W        W30955  42.212   3.827  14.901
58531W        W30956  42.703  21.147   4.322
58532W        W30957   7.224  29.236  14.823
58533W        W30958  36.681  25.922   0.709
58534W        W30959   3.447  12.341  11.940
58535W        W30960  22.625  42.481  10.933
58536W        W30961   6.267  11.583  12.518
58537W        W30962  42.908  10.793   3.658
58538W        W30963  11.637  27.459  13.313
58539W        W30964  10.707  39.888   0.040
58540W        W30965  15.089  30.021   1.846
58541W        W30966  23.633  17.828   1.950
58542W        W30967  25.791  44.174  10.008
58543W        W30968  12.398  22.142   3.981
58544W        W30969  31.577   2.192   1.483
58545W        W30970  22.618  24.623   1.157
58546W        W30971  44.190  43.691  13.416
58547W        W30972   2.882  42.051   0.247
58548W        W30973  37.344   1.723   4.688
58549W        W30974  25.607  30.018  13.539
58550W        W30975  15.733  23.251   0.798
58551W        W30976   4.783   7.271   3.598
58552W        W30977  34.442  35.939   1.534
58553W        W30978   3.191   2.368  11.509
58554W        W30979  34.301  13.107  12.023
58555W        W30980  21.551  28.503   1.305
58556W        W30981  40.358   3.865   4.685
58557W        W30982  17.362  20.284  11.548
58558W        W30983  17.737  10.412  12.842
58559W        W30984  32.619  43.593   1.264
58560W        W30985  27.958  37.932  12.383
58561W        W30986  11.865  18.325   1.834
58562W        W30987  16.049  29.036  12.115
58563W        W30988  26.502  20.601   1.526
58564W        W30989  26.729  14.049   1.726
58565W        W30990   2.503  32.582   3.273
58566W        W30991   0.966  39.553   2.847
58567W        W30992   7.780  12.831   0.182
58568W        W30993  35.638   7.849  11.640
58569W        W30994   7.754  39.522   3.362
58570W        W30995  12.288  30.585   1.838
58571W        W30996  32.545  43.479  14.845
58572W        W30997  23.415  44.295  14.278
58573W        W30998   6.854  12.938   1.772
58574W        W30999  18.920   2.477  11.814
58575W        W31000   5.844  35.554  10.920
58576W        W31001  21.608  44.828   4.872
58577W        W31002   5.186  22.648   2.633
58578W        W31003  27.727  36.819   3.141
58579W        W31004  25.863  14.246   3.983
58580W        W31005  15.556  18.251  14.310
58581W        W31006  15.675  40.024  14.324
58582W        W31007  30.068   4.128  10.803
58583W        W31008  37.818  19.324  12.108
58584W        W31009  12.683  33.597  11.956
58585W        W31010  39.382   4.637   0.309
58586W        W31011  19.474  14.987  12.508
58587W        W31012  41.921  24.201  14.026
58588W        W31013  14.719  28.702   0.874
58589W        W31014  18.431  41.513   0.859
58590W        W31015   1.896  11.716   4.385
58591W        W31016  40.025   3.934   3.302
58592W        W31017  37.331  27.483   2.395
58593W        W31018  42.869  14.184   1.723
58594W        W31019  32.613  34.351  11.516
58595W        W31020  20.600   9.222   4.607
58596W        W31021  42.577   1.690   0.460
58597W        W31022  25.579  21.523  12.476
58598W        W31023  41.762  10.055  13.005
58599W        W31024   6.731  30.588  12.410
58600W        W31025  24.102  35.766  10.806
58601W        W31026  32.816  26.968   2.905
58602W        W31027   1.066  11.609  11.201
58603W        W31028  28.542  19.689  14.985
58604W        W31029   7.218  44.531  12.127
58605W        W31030  35.060  37.565   3.283
58606W        W31031  39.426  33.553   2.384
58607W        W31032  39.668  31.396   3.599
58608W        W31033   3.202  20.165  11.479
58609W        W31034  24.885  40.403   1.911
58610W        W31035  41.907  36.446  14.560
58611W        W31036  33.974  44.496   3.704
58612W        W31037  43.359   8.631  10.470
58613W        W31038   3.775  41.835   1.837
58614W        W31039  11.900  13.346  11.581
58615W        W31040  19.339  17.052   1.781
58616W        W31041  11.809  18.092   4.584
58617W        W31042  38.436   2.811  11.216
58618W        W31043  13.211  31.539  12.912
58619W        W31044  19.082  13.824  13.400
58620W        W31045   1.258   2.782   0.204
58621W        W31046  32.439  14.863   2.618
58622W        W31047  18.127  43.838   1.516
58623W        W31048   6.372   6.428  14.015
58624W        W31049  26.015   1.556  13.863
58625W        W31050  38.334   4.491   2.654
58626W        W31051  42.828  21.256  10.642
58627W        W31052  31.472  12.319  12.898
58628W        W31053   1.262   8.911   0.757
58629W        W31054  10.107  29.383   4.117
58630W        W31055  10.754  26.545   0.234
58631W        W31056  41.539   0.004   1.005
58632W        W31057  35.618  42.818  11.372
58633W        W31058  32.351  25.112   0.550
58634W        W31059   0.555   2.396  13.877
58635W        W31060  10.114   3.262   3.688
58636W        W31061   1.394  27.165  12.655
58637W        W31062  10.610  29.572   4.856
58638W        W31063  29.504  38.589  11.893
58639W        W31064  41.306  22.996  10.291
58640W        W31065  39.131  25.100  14.797
58641W        W31066  13.611  24.620   5.336
58642W        W31067  19.071   5.981   4.179
58643W        W31068  11.872  42.914  13.557
58644W        W31069   1.571  11.676  14.938
58645W        W31070  22.298  29.064  12.554
58646W        W31071   4.446   5.636   3.917
58647W        W31072  12.111  32.926   0.907
58648W        W31073  35.615   7.129  10.551
58649W        W31074   5.859  33.713   1.230
58650W        W31075  17.204   5.791   4.271
58651W        W31076  14.106  16.357  11.447
58652W        W31077  38.899  26.482  14.234
58653W        W31078  14.615  29.427   1.191
58654W        W31079  34.543  44.882  11.556
58655W        W31080  36.771  29.496  10.684
58656W        W31081  36.304  13.288   2.731
58657W        W31082  39.495  19.059   1.444
58658W        W31083  31.125  29.021  10.427
58659W        W31084   6.174   7.982  13.904
58660W        W31085  31.390  26.411   0.438
58661W        W31086  41.284  11.296   2.745
58662W        W31087  36.142   8.750   0.794
58663W        W31088  15.198  28.973  13.104
58664W        W31089  26.874  21.526   2.741
58665W        W31090  17.473  36.291  14.359
58666W        W31091  24.060  37.367  13.521
58667W        W31092  14.106  36.969   0.654
58668W        W31093   0.293   5.752   0.323
58669W        W31094   6.189  10.055   4.990
58670W        W31095   4.810  32.607   3.334
58671W        W31096  34.598  21.781   1.887
58672W        W31097   1.231  38.362  11.664
58673W        W31098   1.918  25.247   5.086
58674W        W31099  40.916   0.016   3.732
58675W        W31100  14.022  34.792   4.198
58676W        W31101   3.296  20.127   2.882
58677W        W31102  25.439  12.386   1.354
58678W        W31103  39.656  44.968   4.580
58679W        W31104   4.343  26.180   4.191
58680W        W31105  34.900  22.783  13.988
58681W        W31106  30.709  13.803   2.838
58682W        W31107   7.213   7.384  12.646
58683W        W31108  16.626  41.830   0.349
58684W        W31109  38.865  33.071   3.680
58685W        W31110  18.329  10.338   2.619
58686W        W31111  11.303   0.208  14.043
58687W        W31112  36.488  26.003  13.034
58688W        W31113  23.661  44.654  11.093
58689W        W31114   9.860  24.565  13.342
58690W        W31115  35.521  31.780  13.562
58691W        W31116  36.879  37.977  10.593
58692W        W31117  20.302  16.896  12.326
58693W        W31118  21.458   3.643   4.430
58694W        W31119   1.320  39.951   3.104
58695W        W31120  36.364  24.956  13.008
58696W        W31121  22.866   8.980  14.844
58697W        W31122   0.037  14.811  14.605
58698W        W31123  27.412   5.300   0.309
58699W        W31124  14.910  15.076   3.034
58700W        W31125  30.334  21.255   4.066
58701W        W31126  23.285  19.982   4.034
58702W        W31127   3.688  23.686  13.029
58703W        W31128  29.594  18.439  13.483
58704W        W31129  24.332   1.082  14.862
58705W        W31130  15.367  34.357   3.327
58706W        W31131  14.197  36.291  10.569
58707W        W31132  15.478  29.628  10.652
58708W        W31133   4.828  18.011  10.414
58709W        W31134  13.818   0.179   2.222
58710W        W31135  44.762  33.495  14.264
58711W        W31136  40.947  36.273  12.586
58712W        W31137   3.594   2.235   4.558
58713W        W31138   7.747  34.160  12.027
58714W        W31139  32.162  21.019   4.603
58715W        W31140  23.535  39.323   0.916
58716W        W31141  29.780  24.649   5.129
58717W        W31142  30.728  44.868  10.972
58718W        W31143   9.722  24.906   4.713
58719W        W31144  30.093  39.210  12.161
58720W        W31145  33.392   6.921   3.135
58721W        W31146   8.132   1.390   1.806
58722W        W31147   0.228   1.210   0.317
58723W        W31148  36.412  23.944  13.940
58724W        W31149  21.065  19.874  12.162
58725W        W31150   0.908  39.322   4.166
58726W        W31151  17.852   9.673   3.538
58727W        W31152   5.737  29.469  12.770
58728W        W31153  14.184  28.191  14.959
58729W        W31154  23.660  21.278   3.603
58730W        W31155  18.097  19.616   4.308
58731W        W31156  36.146  15.194   4.477
58732W        W31157  15.333  14.317   4.589
58733W        W31158  16.323  18.467  13.933
58734W        W31159  35.344  32.891   1.695
58735W        W31160   8.402  18.292   4.923
58736W        W31161  17.245  35.782   1.471
58737W        W31162  22.619  21.137  13.718
58738W        W31163  37.448   9.339  14.982
58739W        W31164  33.493  31.690   5.034
58740W        W31165  44.736  34.909  13.871
58741W        W31166  34.134  32.356   3.862
58742W        W31167  23.152  11.076   3.135
58743W        W31168  15.676  29.185   4.018
58744W        W31169  31.139   8.426   3.903
58745W        W31170  26.954  21.889  13.536
58746W        W31171   0.487   0.999   0.744
58747W        W31172   3.215  26.879   4.634
58748W        W31173  39.720  21.063  11.665
58749W        W31174  13.078  26.803  12.728
58750W        W31175   6.879   6.790  10.463
58751W        W31176  23.688  37.018  12.827
58752W        W31177  30.707  11.893   5.124
58753W        W31178  28.415  41.867   0.303
58754W        W31179  37.112  28.773  12.122
58755W        W31180  13.187  41.957  12.106
58756W        W31181  18.355  16.468   1.263
58757W        W31182  27.849  11.872  12.843
58758W        W31183  21.779   1.524  11.103
58759W        W31184  33.587  13.298  13.344
58760W        W31185  19.876  34.121  13.607
58761W        W31186   2.793  38.976  13.592
58762W        W31187  36.560  42.492   2.188
58763W        W31188  26.538   6.595  12.160
58764W        W31189  43.145  37.829  10.545
58765W        W31190  13.217  29.038   0.720
58766W        W31191  18.174  42.012  11.504
58767W        W31192  26.052  10.411   4.248
58768W        W31193  25.787   3.395   9.918
58769W        W31194  18.294  28.128  14.718
58770W        W31195  36.439   4.561  14.915
58771W        W31196  24.250   2.292  13.950
58772W        W31197  21.026  39.944   1.236
58773W        W31198   2.031  15.256  10.415
58774W        W31199   8.940   3.428   1.752
58775W        W31200   3.359   9.600   1.517
58776W        W31201  28.584   0.173  11.536
58777W        W31202  44.539  16.748  12.002
58778W        W31203  31.213   4.312   2.158
58779W        W31204  35.375   4.888   1.932
58780W        W31205  31.154  24.218  13.062
58781W        W31206  14.577  25.781  12.919
58782W        W31207  20.021   8.489  13.423
58783W        W31208   8.558  17.781   1.909
58784W        W31209  12.819  21.442   4.281
58785W        W31210  19.155  30.155   3.643
58786W        W31211  17.378   8.095  13.043
58787W        W31212  31.793  21.255  14.432
58788W        W31213  42.361  39.783  14.878
58789W        W31214  22.058  43.701  14.423
58790W        W31215  10.600  37.866   0.396
58791W        W31216  21.199  29.081  11.084
58792W        W31217  15.148   0.235   2.713
58793W        W31218  39.838  22.699  12.993
58794W        W31219  41.944  33.750  12.429
58795W        W31220   7.332  21.464   4.673
58796W        W31221   8.218  23.045   4.474
58797W        W31222  25.225  11.589  14.307
58798W        W31223  41.366  34.976  12.478
58799W        W31224  30.692  43.019   2.713
58800W        W31225  39.448   9.623   1.878
58801W        W31226  26.138  42.417   1.730
58802W        W31227  10.540  41.018  11.573
58803W        W31228  44.229  21.294   2.589
58804W        W31229   3.351  23.824   3.861
58805W        W31230  43.404  41.203   2.203
58806W        W31231  14.325  21.065   1.411
58807W        W31232  10.849  28.617  14.466
58808W        W31233  32.584  30.886  13.082
58809W        W31234  23.020  28.474  10.532
58810W        W31235   9.933  26.648   1.276
58811W        W31236  22.152   4.438   0.949
58812W        W31237   0.726  29.385   4.124
58813W        W31238  38.964  22.304  13.396
58814W        W31239  31.268  18.659   0.826
58815W        W31240   8.198   6.775  14.398
58816W        W31241  16.095  26.628   3.737
58817W        W31242  43.877  35.272   0.857
58818W        W31243  40.625   3.701   2.768
58819W        W31244   5.904   1.040  12.910
58820W        W31245  15.827  22.044   9.607
58821W        W31246   8.108  32.398  14.328
58822W        W31247  14.182   6.405   0.690
58823W        W31248  11.251  18.837  10.731
58824W        W31249  16.596  35.409  10.907
58825W        W31250  37.419  36.026   0.599
58826W        W31251  21.794  15.743  13.591
58827W        W31252  22.182  25.632   0.514
58828W        W31253  36.163  32.988   3.741
58829W        W31254  31.586  20.743   1.816
58830W        W31255  42.883  16.055  13.869
58831W        W31256   8.805   1.223  10.601
58832W        W31257  23.182  39.449   1.288
58833W        W31258  38.973  20.764  10.795
58834W        W31259  20.133  23.194   1.664
58835W        W31260  39.786   6.850  11.626
58836W        W31261   9.208   3.408   2.717
58837W        W31262  27.631  14.619  13.058
58838W        W31263   4.994  34.833   3.732
58839W        W31264  13.824  43.530  11.593
58840W        W31265  44.774   3.921  14.013
58841W        W31266  25.408   0.769   0.702
58842W        W31267  27.694  17.097  13.601
58843W        W31268  41.731  29.606   0.455
58844W        W31269  27.430   0.894   3.652
58845W        W31270  27.137  19.149  14.945
58846W        W31271  37.404  17.694   3.640
58847W        W31272   6.942  20.713  13.360
58848W        W31273  17.180  23.494  13.335
58849W        W31274  41.690  15.064   0.897
58850W        W31275  37.970  35.051   2.738
58851W        W31276  12.317  41.490  11.538
58852W        W31277   6.780  35.319  13.532
58853W        W31278  31.603  41.402  10.614
58854W        W31279   1.968   1.883  13.457
58855W        W31280  38.345   1.759  11.537
58856W        W31281  28.530   8.710  14.318
58857W        W31282  41.493  15.133   4.189
58858W        W31283   0.322  25.077  11.567
58859W        W31284   0.855  34.489  14.803
58860W        W31285  39.336  26.687  11.242
58861W        W31286  36.665  42.807   4.319
58862W        W31287   9.817   5.991   2.308
58863W        W31288  17.590  27.597  14.787
58864W        W31289  19.706  16.583   2.398
58865W        W31290  14.173  21.001  12.903
58866W        W31291  33.759  41.997   1.884
58867W        W31292   6.912  16.613   4.752
58868W        W31293  11.670  37.345   9.968
58869W        W31294   4.647  42.202  14.286
58870W        W31295  25.579  31.198   0.818
58871W        W31296  25.177  34.507   2.074
58872W        W31297  40.724  24.688   4.553
58873W        W31298  12.393   7.701   4.171
58874W        W31299  22.367  13.842  12.066
58875W        W31300  13.613   5.720   1.737
58876W        W31301   9.665  22.129  11.160
58877W        W31302  19.927  17.660  14.793
58878W        W31303  12.869  21.125   0.224
58879W        W31304  26.468   2.832  14.410
58880W        W31305  23.160  12.611  14.776
58881W        W31306   5.645  36.109   0.660
58882W        W31307   9.757   5.619   3.861
58883W        W31308  36.165  18.293   1.783
58884W        W31309  14.555  41.629   1.415
58885W        W31310   6.996  24.040   1.530
58886W        W31311  28.956  14.040   2.776
58887W        W31312   6.664  37.660  14.526
58888W        W31313  37.541  18.060   1.411
58889W        W31314  15.141  41.031   2.313
58890W        W31315  39.101  31.502   3.794
58891W        W31316  38.601  26.948  11.110
58892W        W31317   5.855  34.377  14.779
58893W        W31318  33.409  39.540   0.534
58894W        W31319  27.057  26.740   2.163
58895W        W31320  21.133  29.148  13.527
58896W        W31321  44.804  35.472   2.669
58897W        W31322  31.179  39.413  13.434
58898W        W31323  34.501  30.951   2.306
58899W        W31324  14.619  39.742   0.391
58900W        W31325  16.626  36.988  10.700
58901W        W31326  40.568  11.911   2.768
58902W        W31327  27.513  10.827  11.631
58903W        W31328   2.377  38.042  12.080
58904W        W31329   9.649   3.644  11.861
58905W        W31330  20.753  39.690  14.535
58906W        W31331  17.627  25.463  11.547
58907W        W31332  44.465  40.979  13.816
58908W        W31333  32.051  13.361   4.064
58909W        W31334  38.055  15.863  12.178
58910W        W31335   5.974  39.569   2.344
58911W        W31336  10.376  31.646  13.060
58912W        W31337   0.257  25.933  12.548
58913W        W31338  39.509  34.475   4.567
58914W        W31339  39.040   2.470  12.425
58915W        W31340  20.685  30.894   1.664
58916W        W31341   8.933  27.700   2.958
58917W        W31342   4.869  34.071   4.093
58918W        W31343  37.581  15.230  14.887
58919W        W31344  18.195  32.935   4.169
58920W        W31345  42.825  42.031   0.260
58921W        W31346   9.609  41.363  13.872
58922W        W31347  17.063  20.111  11.977
58923W        W31348  17.010  43.571  12.989
58924W        W31349  10.691  10.827  14.804
58925W        W31350   8.431  39.085  14.380
58926W        W31351   4.440  10.606   0.781
58927W        W31352   8.657  42.862   1.741
58928W        W31353  36.971   6.372  12.956
58929W        W31354   6.164  16.625  12.584
58930W        W31355  44.774  29.178   3.597
58931W        W31356  11.107  16.064  14.046
58932W        W31357   7.896   9.904  11.079
58933W        W31358  18.250  34.613   1.752
58934W        W31359   4.825  19.791  10.180
58935W        W31360  28.017  15.175  14.916
58936W        W31361  14.903  27.989   4.260
58937W        W31362  21.496  30.158  12.024
58938W        W31363  44.806  39.879  14.257
58939W        W31364  12.131   8.149  12.878
58940W        W31365  37.413   6.662   9.772
58941W        W31366   5.564   5.846  14.059
58942W        W31367  21.211  28.257  12.471
58943W        W31368  16.404  11.768   0.107
58944W        W31369  37.854  15.707  14.865
58945W        W31370  15.034  40.160  12.395
58946W        W31371  28.038  44.406  14.867
58947W        W31372  15.061  32.625  10.410
58948W        W31373  30.397   5.459   1.404
58949W        W31374  21.858  39.905   3.338
58950W        W31375  27.594  23.006  14.896
58951W        W31376   2.478  42.034   1.030
58952W        W31377   0.926  41.507  11.288
58953W        W31378  20.967  35.148  14.917
58954W        W31379  35.949  38.442   0.212
58955W        W31380  36.383  42.405  13.735
58956W        W31381  42.824  30.923   2.333
58957W        W31382  29.026  43.781  12.597
58958W        W31383  30.695  10.943   0.684
58959W        W31384  30.139  21.085  11.778
58960W        W31385  12.948   9.390   1.988
58961W        W31386  43.273  17.295   1.841
58962W        W31387  30.018  32.527  14.890
58963W        W31388  39.955   8.851  14.262
58964W        W31389  34.595  16.834  11.098
58965W        W31390  29.549   9.637   3.507
58966W        W31391  17.094  18.272  12.015
58967W        W31392  21.525  13.139   2.841
58968W        W31393  21.576   9.334  12.564
58969W        W31394  39.980  23.539  10.768
58970W        W31395  20.462   2.482  14.387
58971W        W31396  30.395   2.372  13.091
58972W        W31397  35.940  18.258  12.025
58973W        W31398   6.580   8.232   0.713
58974W        W31399   4.362   5.123   4.330
58975W        W31400   3.491  18.156  13.413
58976W        W31401   1.467  44.929   0.484
58977W        W31402  25.647  23.449  14.359
58978W        W31403  42.371  42.719  11.576
58979W        W31404  44.449  37.480  11.630
58980W        W31405   0.646  39.151   1.203
58981W        W31406  32.117  22.605  10.186
58982W        W31407   0.177  10.670  11.632
58983W        W31408  38.361  32.401   3.117
58984W        W31409  40.374  12.021  11.698
58985W        W31410  22.183  12.215   0.303
58986W        W31411  24.182  13.856   0.800
58987W        W31412  36.508  15.772  10.067
58988W        W31413  35.776  10.911   1.469
58989W        W31414  42.754  36.482   0.133
58990W        W31415   1.273  26.462   3.186
58991W        W31416  35.005  44.965   1.980
58992W        W31417   7.943  44.801   0.804
58993W        W31418  23.141  19.299   4.958
58994W        W31419  22.273  14.927  13.521
58995W        W31420  43.983   0.029   1.735
58996W        W31421  33.986   4.198  11.113
58997W        W31422  24.981  17.885   0.880
58998W        W31423  23.062   6.621   1.383
58999W        W31424   1.529  30.765   2.395
59000W        W31425  21.476  11.849  10.083
59001W        W31426  40.181  30.919  14.299
59002W        W31427  26.422  23.303  13.063
59003W        W31428  38.366  31.986  12.469
59004W        W31429  37.384  16.529   4.569
59005W        W31430  42.739  23.059  10.477
59006W        W31431   2.041  16.827   2.279
59007W        W31432  41.322  23.517  11.566
59008W        W31433  23.165   7.563   3.994
59009W        W31434   2.736  15.584   0.232
59010W        W31435  41.038   8.778   1.733
59011W        W31436  14.577  17.670  14.820
59012W        W31437  17.297  15.828   0.997
59013W        W31438  11.595   8.889  14.336
59014W        W31439  29.192  20.839   3.414
59015W        W31440   0.418  21.297   4.468
59016W        W31441  28.562  10.777   2.734
59017W        W31442  17.618  44.374   0.919
59018W        W31443  21.724  36.907  12.596
59019W        W31444  37.310   9.857  14.908
59020W        W31445  33.542   0.170   4.648
59021W        W31446  15.279   9.060  10.816
59022W        W31447  43.857   5.213  13.693
59023W        W31448  17.055   5.778  13.620
59024W        W31449   0.012  15.838   3.174
59025W        W31450  27.756  11.477   3.522
59026W        W31451  28.547   9.482  13.412
59027W        W31452  35.831  39.530  13.850
59028W        W31453  41.874  24.874   0.948
59029W        W31454   2.774  13.409  11.380
59030W        W31455  21.471  21.359   4.259
59031W        W31456   7.320  36.443  14.318
59032W        W31457  19.184   8.169   2.589
59033W        W31458  17.158  42.379   4.184
59034W        W31459  31.141  20.293  13.507
59035W        W31460  31.091  17.627   4.615
59036W        W31461  39.298   2.935  12.508
59037W        W31462  39.241  22.653  11.112
59038W        W31463   1.977   4.927   0.609
59039W        W31464  20.602  11.405   4.933
59040W        W31465  20.993  16.536   2.734
59041W        W31466   8.906  28.368  11.066
59042W        W31467   4.258  26.144   1.274
59043W        W31468  17.621  12.324  10.653
59044W        W31469  10.500  20.760   0.357
59045W        W31470  24.573  32.658   1.228
59046W        W31471   5.870  38.011  12.569
59047W        W31472  44.857  10.605  13.712
59048W        W31473  21.254  13.661  11.152
59049W        W31474  38.964  32.514  10.664
59050W        W31475   5.467  25.027   1.255
59051W        W31476  16.848  13.707   1.748
59052W        W31477  33.476  30.356  11.046
59053W        W31478  14.859  40.987  11.037
59054W        W31479  28.815  15.418  11.203
59055W        W31480   5.792  27.548   3.114
59056W        W31481  38.611  36.386   3.577
59057W        W31482   7.628  28.627   2.407
59058W        W31483  24.065  43.749  12.120
59059W        W31484  21.516  27.676  13.096
59060W        W31485  22.085   6.116  11.890
59061W        W31486  37.056  26.983  11.608
59062W        W31487  20.588   0.314  14.788
59063W        W31488  29.503   3.438   1.778
59064W        W31489  30.222  32.369  12.644
59065W        W31490  18.204  12.601   3.689
59066W        W31491   7.333  22.176  14.032
59067W        W31492  17.575  36.113  12.312
59068W        W31493  43.946  29.219  13.536
59069W        W31494  30.953   8.806   3.124
59070W        W31495  16.585  39.794  12.434
59071W        W31496  20.025  14.901  10.526
59072W        W31497   8.215   6.660  10.866
59073W        W31498  14.333  28.872  11.715
59074W        W31499  18.161  19.109  13.004
59075W        W31500  12.711  41.774   2.367
59076W        W31501   6.907  27.021  10.758
59077W        W31502  36.545  40.252   2.207
59078W        W31503   4.412   5.202  14.392
59079W        W31504   0.226  31.430   2.793
59080W        W31505  16.926   8.203   3.540
59081W        W31506  38.168   6.508   4.821
59082W        W31507  31.742  44.917  14.043
59083W        W31508  24.928  11.860   4.999
59084W        W31509  26.026  23.930   2.178
59085W        W31510  37.977   1.755   2.726
59086W        W31511  30.893  25.193   0.956
59087W        W31512   3.369   7.354  10.616
59088W        W31513  35.997  29.100   2.195
59089W        W31514   9.799  25.434  11.464
59090W        W31515  30.041  42.689  12.433
59091W        W31516  19.525  25.726   3.242
59092W        W31517  31.079  29.512  11.053
59093W        W31518  33.969   8.687  11.488
59094W        W31519  29.294  21.205  10.182
59095W        W31520  17.117  37.617   3.388
59096W        W31521   0.441  40.777  10.662
59097W        W31522   4.018  43.209   0.918
59098W        W31523  20.551  17.441   0.385
59099W        W31524   8.898   1.030  11.070
59100W        W31525  43.314  38.057   4.650
59101W        W31526  34.683  33.545   3.589
59102W        W31527  17.278   4.749  13.051
59103W        W31528  13.342  18.012   1.816
59104W        W31529  34.028  22.054   2.258
59105W        W31530  38.038  21.979  13.523
59106W        W31531  44.863   8.717   4.103
59107W        W31532  20.697  30.396   0.268
59108W        W31533   4.281  38.507  13.588
59109W        W31534  34.625   0.943   3.143
59110W        W31535  22.864  30.498   4.204
59111W        W31536   1.359  41.473   1.230
59112W        W31537   5.192   8.583   2.149
59113W        W31538  41.562  39.265  10.826
59114W        W31539   1.496  22.518   4.714
59115W        W31540  17.109  25.523   4.784
59116W        W31541  31.489  10.251  14.073
59117W        W31542  12.268  34.151  14.529
59118W        W31543   9.669  17.556  14.955
59119W        W31544   9.303  16.025   2.907
59120W        W31545   4.740  27.936   0.544
59121W        W31546  32.237  24.551   3.206
59122W        W31547  43.362   5.950  10.618
59123W        W31548  18.184   1.485  14.837
59124W        W31549  10.969  23.138  13.496
59125W        W31550  31.852  15.601  11.056
59126W        W31551  20.706  21.143  12.607
59127W        W31552  22.930  40.124   5.064
59128W        W31553   4.023  33.965   1.713
59129W        W31554   1.327   3.831   3.548
59130W        W31555  32.847  12.767   2.408
59131W        W31556  26.188  44.408   1.911
59132W        W31557  38.862  26.063  14.527
59133W        W31558  44.586   0.786  11.115
59134W        W31559  36.771  31.107   3.092
59135W        W31560  19.688  25.732   0.799
59136W        W31561  24.685  15.690   4.083
59137W        W31562  44.746  27.592  13.393
59138W        W31563  33.067  18.893   0.831
59139W        W31564  42.310  35.535   1.669
59140W        W31565  16.420  14.380  13.476
59141W        W31566  22.241   1.360  10.921
59142W        W31567  20.528  44.705   3.606
59143W        W31568  35.385  14.192   3.845
59144W        W31569  39.261  22.039  11.610
59145W        W31570  26.103  40.749   4.477
59146W        W31571  26.688  42.360   2.459
59147W        W31572   0.540  27.681   4.711
59148W        W31573  19.772  35.804  14.926
59149W        W31574  39.168  18.077  12.478
59150W        W31575  41.740   8.978   0.371
59151W        W31576   5.791  17.644  14.941
59152W        W31577   8.891  28.147   4.420
59153W        W31578  21.803  32.581  14.705
59154W        W31579  44.841   9.191  13.505
59155W        W31580   9.907  31.409   4.389
59156W        W31581   1.003  22.056  12.985
59157W        W31582  26.478   8.359  10.819
59158W        W31583  36.139   2.947   3.144
59159W        W31584  43.311  36.913   0.388
59160W        W31585  31.069  24.004   4.869
59161W        W31586  22.554  37.929   1.029
59162W        W31587   4.890  21.009   3.158
59163W        W31588  10.147  11.244  11.358
59164W        W31589  37.359  29.018  14.501
59165W        W31590   5.311  36.492   0.805
59166W        W31591  12.058   0.449  13.371
59167W        W31592  20.673  36.532  11.092
59168W        W31593  11.137  24.380  12.031
59169W        W31594  34.259  18.101  10.608
59170W        W31595  22.980   1.305   1.812
59171W        W31596  33.685   1.098  11.123
59172W        W31597  31.383  37.548  10.995
59173W        W31598   4.274  39.412  11.135
59174W        W31599  29.006  40.361  14.945
59175W        W31600  37.826  30.570  14.839
59176W        W31601  39.549   9.874  13.050
59177W        W31602  20.592  32.789   2.726
59178W        W31603   8.516  18.542  13.949
59179W        W31604  18.798  19.144   4.118
59180W        W31605  14.310  28.625   4.567
59181W        W31606  39.810  31.044  13.942
59182W        W31607  15.907  23.434  14.935
59183W        W31608  42.243  17.242  13.494
59184W        W31609  12.626  15.743  11.445
59185W        W31610  39.399  27.890   1.803
59186W        W31611  27.406  21.329   3.311
59187W        W31612   1.202  42.109   3.721
59188W        W31613  38.181  34.358   2.723
59189W        W31614  44.690  38.007   3.396
59190W        W31615  17.375  26.453   4.164
59191W        W31616  29.928  13.102  11.331
59192W        W31617  29.931  17.775  11.885
59193W        W31618  23.003  36.054   1.352
59194W        W31619  16.077  24.908   2.702
59195W        W31620  21.504   0.404  10.470
59196W        W31621  10.425  17.805   2.917
59197W        W31622  35.474  35.819  11.498
59198W        W31623  20.321  36.370   1.319
59199W        W31624   3.648  21.671  11.149
59200W        W31625   7.461  30.581  10.694
59201W        W31626  19.313  19.158  11.886
59202W        W31627   7.424  44.973   0.763
59203W        W31628  25.707   8.745  10.846
59204W        W31629  42.983  24.274   4.605
59205W        W31630   8.617  32.957  13.062
59206W        W31631  21.118  39.697  13.008
59207W        W31632   5.659  42.344  14.127
59208W        W31633  10.250   7.612   2.789
59209W        W31634  11.560  40.017  13.417
59210W        W31635  27.563  25.595   1.811
59211W        W31636  23.685  13.818  14.979
59212W        W31637   0.958  43.760  13.554
59213W        W31638  14.352  10.270   1.897
59214W        W31639  43.235  37.444  11.103
59215W        W31640  22.626  12.063  10.764
59216W        W31641  17.054  43.330  10.770
59217W        W31642  17.802  21.490   3.269
59218W        W31643  26.199  16.631  12.965
59219W        W31644  12.072   2.000  10.503
59220W        W31645  10.564  40.996   0.306
59221W        W31646  21.168  20.220   0.365
59222W        W31647   9.139  14.575   3.194
59223W        W31648  12.179   9.128   2.180
59224W        W31649   4.740  24.051   1.828
59225W        W31650   8.749   8.794   1.270
59226W        W31651  20.236  28.184  10.822
59227W        W31652  14.105  27.201   2.736
59228W        W31653   7.380  31.893  12.453
59229W        W31654  36.425  28.728  12.831
59230W        W31655  34.334  35.890  11.167
59231W        W31656  26.054  29.250  10.345
59232W        W31657  29.289  24.290  12.370
59233W        W31658  36.380  11.251  13.232
59234W        W31659   2.766  11.682   2.255
59235W        W31660   0.764   6.101   1.350
59236W        W31661   3.024  30.159   1.732
59237W        W31662   4.194  36.579   4.357
59238W        W31663   2.470  11.719  13.061
59239W        W31664   2.502  10.945  12.913
59240W        W31665  31.593  44.355  13.529
59241W        W31666  43.788  25.202  13.288
59242W        W31667  14.794  38.239   4.295
59243W        W31668  39.959  21.686   5.133
59244W        W31669  22.122  20.582   1.711
59245W        W31670  44.874  26.124   3.814
59246W        W31671  21.060  17.143  11.280
59247W        W31672  19.008  35.841  11.493
59248W        W31673  30.159  13.688  11.917
59249W        W31674  26.876  34.101   1.439
59250W        W31675  17.083  30.613   1.443
59251W        W31676  21.045  19.235   2.817
59252W        W31677  13.712   7.360  10.676
59253W        W31678  30.240  28.754  11.485
59254W        W31679  22.051  10.375   2.362
59255W        W31680  11.274  17.693   2.379
59256W        W31681  40.378  13.597  13.989
59257W        W31682  26.116   7.068  14.881
59258W        W31683  31.934  32.111   2.721
59259W        W31684  41.336  23.413   1.767
59260W        W31685  24.316  27.750   4.570
59261W        W31686  36.104   9.244  12.114
59262W        W31687  25.990  32.293   4.515
59263W        W31688  36.104  23.665   4.071
59264W        W31689  20.700  11.940  11.629
59265W        W31690   8.665  42.468   4.967
59266W        W31691  24.747  35.532  14.981
59267W        W31692   6.123  15.138   4.155
59268W        W31693  34.932  43.697   2.608
59269W        W31694   5.263  31.402   0.726
59270W        W31695  28.114  21.601   0.808
59271W        W31696  14.842  19.238   4.759
59272W        W31697   3.020  38.769   0.351
59273W        W31698  16.928  25.578   2.752
59274W        W31699  25.419  24.124  11.104
59275W        W31700  12.542  37.483  11.902
59276W        W31701  26.065  25.984  13.409
59277W        W31702  26.617  10.432  11.193
59278W        W31703   0.450  22.603   3.015
59279W        W31704  15.462  11.660   0.449
59280W        W31705  29.331  32.722   0.119
59281W        W31706  31.566  19.112   2.010
59282W        W31707  29.659  21.213   1.774
59283W        W31708  39.764  16.288   1.402
59284W        W31709  11.887  31.596   2.168
59285W        W31710   1.062   0.365  14.809
59286W        W31711   5.286  25.194   3.359
59287W        W31712  44.352  10.036  11.637
59288W        W31713  15.298  35.797  13.934
59289W        W31714   4.297  26.697   4.260
59290W        W31715  32.091  17.053  10.752
59291W        W31716  20.913  37.370  14.655
59292W        W31717  42.300   2.676   1.307
59293W        W31718  20.690  26.659   0.782
59294W        W31719  26.397   3.395  14.399
59295W        W31720  22.931  26.476   2.686
59296W        W31721  16.858  38.802   2.329
59297W        W31722  29.641   0.463  13.931
59298W        W31723   6.475  27.823   0.502
59299W        W31724  19.581  44.707   1.019
59300W        W31725  10.283  17.075   4.646
59301W        W31726   7.565  21.998   2.252
59302W        W31727  24.459  32.121   0.062
59303W        W31728  17.749  13.858  13.010
59304W        W31729  28.645   2.564   2.341
59305W        W31730  38.531  19.239  14.880
59306W        W31731  42.866  42.719   1.967
59307W        W31732  19.550  40.722  12.739
59308W        W31733  22.778  38.389   3.776
59309W        W31734  36.542  15.129  14.758
59310W        W31735   6.291  22.474  12.453
59311W        W31736  19.358   3.202   0.324
59312W        W31737  41.261  27.565  14.222
59313W        W31738   8.692  42.706   1.230
59314W        W31739  23.043  33.925   4.046
59315W        W31740  41.478  26.384   1.880
59316W        W31741  29.160  18.152   2.293
59317W        W31742   2.834  30.632  11.541
59318W        W31743   2.539   9.271   4.099
59319W        W31744  44.761  34.492  11.426
59320W        W31745  20.572  20.705  11.424
59321W        W31746  20.590  34.096   1.442
59322W        W31747   4.628  33.910  12.130
59323W        W31748  17.595  43.823   2.680
59324W        W31749  40.325  32.132  13.324
59325W        W31750  22.659  42.567   9.964
59326W        W31751  33.992  38.879   2.701
59327W        W31752  24.269  10.114   3.683
59328W        W31753   9.785  37.134  12.608
59329W        W31754   8.322  28.176  12.596
59330W        W31755   9.636   6.828  10.888
59331W        W31756  31.380  36.172   0.285
59332W        W31757  37.625  44.920  10.766
59333W        W31758  23.949  21.963   1.363
59334W        W31759  34.821  13.983  14.693
59335W        W31760   1.655  22.200  11.130
59336W        W31761  25.691   2.455   1.490
59337W        W31762  34.017   7.792   3.172
59338W        W31763  17.176  41.378   5.001
59339W        W31764  16.233  23.092   2.621
59340W        W31765  15.270  13.755  10.624
59341W        W31766   2.997  28.947   0.002
59342W        W31767  38.879   6.739  11.551
59343W        W31768   7.131  34.820   1.399
59344W        W31769  28.052  37.354   0.004
59345W        W31770  29.272  31.942  13.535
59346W        W31771  34.663  30.665   3.111
59347W        W31772   2.136  17.164  14.758
59348W        W31773  26.842   7.721   4.667
59349W        W31774  44.231  39.344   1.352
59350W        W31775  28.103  18.250   3.149
59351W        W31776  43.471  19.454  14.022
59352W        W31777   4.693  33.083  14.348
59353W        W31778  42.794   8.205   1.440
59354W        W31779  13.746  26.441  10.345
59355W        W31780  11.377  21.289  12.410
59356W        W31781   8.621   2.293   0.403
59357W        W31782  23.225   7.621   3.479
59358W        W31783  23.504  17.311   4.461
59359W        W31784  41.705  28.512  10.801
59360W        W31785  10.223  38.450  13.960
59361W        W31786  33.721  41.027  11.229
59362W        W31787  35.271  12.282   2.814
59363W        W31788  34.908  19.030  14.458
59364W        W31789   3.250  42.516   4.706
59365W        W31790   3.208  35.833   4.731
59366W        W31791  39.012  33.202   2.423
59367W        W31792   0.388   1.361   3.878
59368W        W31793  39.240  26.580   9.916
59369W        W31794  24.379   2.813  14.491
59370W        W31795  27.137  16.589   1.707
59371W        W31796   7.841  10.831   1.114
59372W        W31797  18.824  13.580  13.947
59373W        W31798  35.049  16.282   3.701
59374W        W31799  14.193  35.116  14.448
59375W        W31800   0.894  30.705   3.847
59376W        W31801  31.925  30.768  10.968
59377W        W31802  17.618  36.072   3.854
59378W        W31803  42.410  10.281  10.757
59379W        W31804  18.085  11.958   4.244
59380W        W31805  36.949   3.003  12.290
59381W        W31806  20.713  42.083   4.874
59382W        W31807  22.987  22.552   3.222
59383W        W31808  41.408  36.422  10.705
59384W        W31809  30.482  25.793   0.220
59385W        W31810  40.964   7.900  11.173
59386W        W31811  35.559  33.475   3.138
59387W        W31812  26.137  17.617  10.632
59388W        W31813  22.285  33.425   4.520
59389W        W31814   1.476  38.001   3.400
59390W        W31815  35.621  18.722   4.607
59391W        W31816  29.680   5.899  13.464
59392W        W31817   4.821  31.964  13.998
59393W        W31818  44.111  44.495  12.426
59394W        W31819  11.229  32.228  14.446
59395W        W31820  24.054  39.175   0.941
59396W        W31821  30.036  42.124   4.388
59397W        W31822  44.524  15.867   3.754
59398W        W31823  11.861  39.772  11.940
59399W        W31824  14.682  24.260  14.935
59400W        W31825  41.092  38.768  12.452
59401W        W31826  25.849  31.990  12.998
59402W        W31827  21.056  13.282   4.748
59403W        W31828  20.599   4.329  12.378
59404W        W31829  32.317  31.225   3.259
59405W        W31830  27.030  22.379  13.659
59406W        W31831  21.438  15.228   0.294
59407W        W31832  34.147  34.227   4.091
59408W        W31833   1.748   4.388  14.277
59409W        W31834  12.768  15.662   3.303
59410W        W31835  24.706  27.133   1.282
59411W        W31836   5.786  34.071   2.292
59412W        W31837   5.390  22.673  11.678
59413W        W31838   7.298  23.803  13.060
59414W        W31839  10.428  17.718  12.495
59415W        W31840  40.515   7.278   0.780
59416W        W31841  43.847   5.431  13.235
59417W        W31842  21.513   8.886  10.207
59418W        W31843  37.029   0.932   4.344
59419W        W31844  28.085  29.452   0.784
59420W        W31845  25.665  40.857  11.179
59421W        W31846  44.833  28.356  12.949
59422W        W31847  10.087  44.398   0.336
59423W        W31848   7.082   4.421  13.959
59424W        W31849  30.506  23.983   1.416
59425W        W31850  43.779  28.807  13.142
59426W        W31851  15.568  42.535   4.230
59427W        W31852  34.116  29.233   4.009
59428W        W31853   8.420  18.775   4.626
59429W        W31854  25.012  38.012  12.547
59430W        W31855   2.536   8.912   1.243
59431W        W31856  22.431   4.323  14.760
59432W        W31857   5.386  36.216   3.085
59433W        W31858  16.510  42.725   0.199
59434W        W31859  38.251   0.497   0.794
59435W        W31860   0.439   1.679   0.209
59436W        W31861  41.280  33.432   3.682
59437W        W31862  21.025  18.073  11.546
59438W        W31863  38.472  38.571   0.403
59439W        W31864  28.621   0.493   1.746
59440W        W31865  20.610  11.450  10.127
59441W        W31866  42.575  33.983   1.826
59442W        W31867   6.292  11.165   3.599
59443W        W31868  19.951  28.972  11.417
59444W        W31869  25.713  37.100  14.320
59445W        W31870   4.957  13.856   3.545
59446W        W31871  10.387  34.811   2.831
59447W        W31872   0.744  35.087   5.000
59448W        W31873  30.738  22.534  10.596
59449W        W31874  42.237  33.559   2.744
59450W        W31875  11.081  34.428   0.741
59451W        W31876  38.988  41.498   3.317
59452W        W31877  20.654   6.788  12.411
59453W        W31878   4.424  44.346  13.306
59454W        W31879  38.539  11.421   2.770
59455W        W31880  16.640  33.493   1.166
59456W        W31881  36.125  41.801   3.556
59457W        W31882  25.197  36.021   5.097
59458W        W31883  27.444  40.497   3.265
59459W        W31884   5.402  17.558   3.749
59460W        W31885  39.974   0.488  13.466
59461W        W31886  13.616  20.734  11.441
59462W        W31887  41.500  28.602  11.281
59463W        W31888  39.773   1.305   4.434
59464W        W31889  27.089  28.973   0.383
59465W        W31890  32.442   0.750  11.577
59466W        W31891  20.204  37.620  14.450
59467W        W31892  25.674  36.787  11.202
59468W        W31893  20.082   1.922  14.878
59469W        W31894  17.350  29.432  12.441
59470W        W31895  41.036   6.186   2.288
59471W        W31896  18.106   3.902  14.363
59472W        W31897   2.216  16.184   0.935
59473W        W31898  36.961  33.302  14.506
59474W        W31899  19.249  30.062  10.661
59475W        W31900  13.544  44.421   0.015
59476W        W31901  26.238  29.713  14.737
59477W        W31902   6.819  15.179   1.028
59478W        W31903   4.227  16.855   2.223
59479W        W31904  36.943  32.606   4.217
59480W        W31905  11.682  30.919   4.881
59481W        W31906  14.642  25.281  14.680
59482W        W31907  23.802  21.184  11.513
59483W        W31908  42.837  38.385   4.699
59484W        W31909  39.038  22.801  13.512
59485W        W31910  37.063  42.978  13.604
59486W        W31911  17.916  19.076   2.157
59487W        W31912  40.474  43.305  13.706
59488W        W31913  38.440  34.472  14.819
59489W        W31914   3.226  25.718  12.569
59490W        W31915  37.259  39.589   3.975
59491W        W31916   7.631  37.607  12.368
59492W        W31917  16.325  37.340   1.422
59493W        W31918  10.722   0.443   4.687
59494W        W31919   1.225   4.262   3.231
59495W        W31920  42.868  17.941   2.364
59496W        W31921  12.069  20.349  11.599
59497W        W31922  34.968  25.653  13.566
59498W        W31923   8.958  11.289  10.513
59499W        W31924  24.369  11.340   4.279
59500W        W31925   7.481   6.862   0.680
59501W        W31926  16.116   2.848   1.731
59502W        W31927   9.111  34.083  11.419
59503W        W31928   6.914  31.086  13.896
59504W        W31929   2.852  38.381   1.940
59505W        W31930  32.864  17.470   1.966
59506W        W31931  18.951   3.745  11.908
59507W        W31932   4.374  12.602  12.386
59508W        W31933  24.126  29.316   3.795
59509W        W31934  12.144  27.721   2.337
59510W        W31935  31.957  44.414  10.595
59511W        W31936  43.021  32.480  14.696
59512W        W31937   3.832  11.825   0.791
59513W        W31938  28.291  29.552  10.701
59514W        W31939  28.016   1.782  10.482
59515W        W31940  19.169  32.568  10.677
59516W        W31941  38.383  44.667   2.249
59517W        W31942  40.018  35.696   1.715
59518W        W31943   4.468   0.819   0.748
59519W        W31944  39.490   3.393  14.531
59520W        W31945  16.667  44.319   0.894
59521W        W31946  39.026   3.310  14.743
59522W        W31947   2.424   9.258  11.712
59523W        W31948  16.439  16.723   4.485
59524W        W31949  11.156   3.702  12.568
59525W        W31950  11.859  38.536  14.379
59526W        W31951  16.007  36.290   1.263
59527W        W31952   0.425   0.026   1.774
59528W        W31953  37.956  13.151  10.547
59529W        W31954  15.273  32.635  11.387
59530W        W31955  28.232  22.493  12.017
59531W        W31956  12.705   9.671  12.434
59532W        W31957  13.802  15.954   4.734
59533W        W31958  11.331  15.879  11.229
59534W        W31959  36.663   5.127   4.525
59535W        W31960  16.619  38.120   0.982
59536W        W31961  19.305  20.704  14.581
59537W        W31962  13.640  41.088   2.784
59538W        W31963   7.163  29.114  13.397
59539W        W31964  18.170  14.112   1.026
59540W        W31965  19.724  24.442  11.671
59541W        W31966  19.592  35.488   4.111
59542W        W31967  27.546  28.741   2.451
59543W        W31968   9.277  42.944   2.220
59544W        W31969  30.362   1.805   2.716
59545W        W31970  29.687  29.508  11.606
59546W        W31971   2.054  34.091  10.326
59547W        W31972  17.209  32.417   1.453
59548W        W31973  21.118  20.991   3.091
59549W        W31974  30.923  12.418   0.854
59550W        W31975  34.050   6.204   4.682
59551W        W31976  10.191  29.251   2.772
59552W        W31977  16.206  27.641   0.520
59553W        W31978  11.717   1.727  12.981
59554W        W31979  18.190  34.599  11.757
59555W        W31980  44.769  38.148   0.783
59556W        W31981  36.068  41.257   1.807
59557W        W31982  17.558   0.974  10.840
59558W        W31983  33.468  35.995  11.250
59559W        W31984   5.200  43.175  12.175
59560W        W31985  22.062  23.283   3.727
59561W        W31986  17.151   0.760   4.121
59562W        W31987  13.184  17.835  12.894
59563W        W31988  21.502  11.674  11.427
59564W        W31989   5.190  43.857   1.804
59565W        W31990  43.318  10.202   3.305
59566W        W31991  10.679  30.582  10.670
59567W        W31992  34.911  30.493   0.544
59568W        W31993  24.276  19.397  12.001
59569W        W31994  29.740  26.875   1.235
59570W        W31995  25.093  41.406  11.734
59571W        W31996   2.787  26.938   1.203
59572W        W31997  24.758  31.950   3.785
59573W        W31998  25.907  40.907  12.932
59574W        W31999  37.658  39.271  11.642
59575W        W32000   9.740  41.602  10.409
59576W        W32001  38.092  10.925   1.762
59577W        W32002  31.349  34.951   3.659
59578W        W32003   7.683   9.209   1.737
59579W        W32004  35.614  27.098  13.864
59580W        W32005  10.625   1.552  12.500
59581W        W32006  32.592  26.426  14.693
59582W        W32007  16.887   0.293   1.240
59583W        W32008  19.917  35.334   4.509
59584W        W32009  36.584  37.414  13.498
59585W        W32010  20.027  20.570  14.105
59586W        W32011  43.811   1.028  12.812
59587W        W32012  44.992   4.487  12.626
59588W        W32013  22.619  39.122   0.333
59589W        W32014  19.631  33.777   2.229
59590W        W32015  40.845   0.892  14.767
59591W        W32016  17.199  25.727   3.737
59592W        W32017  43.296  42.514   2.354
59593W        W32018  19.048  26.002  14.010
59594W        W32019  40.355  29.327  14.280
59595W        W32020  17.796   1.623  12.653
59596W        W32021  37.361  13.293   2.868
59597W        W32022  10.336  26.190   2.307
59598W        W32023  17.673   2.878  11.445
59599W        W32024   4.659  21.219   2.736
59600W        W32025  16.929  36.400  13.515
59601W        W32026  29.550  15.599   1.988
59602W        W32027  17.407  24.821   3.171
59603W        W32028  11.769  42.900  10.583
59604W        W32029  22.186  37.162   2.901
59605W        W32030  41.930  24.346   0.895
59606W        W32031   4.234   0.888  14.333
59607W        W32032  27.200  13.880  12.099
59608W        W32033  19.599   2.869  10.651
59609W        W32034  38.060   2.864   1.833
59610W        W32035  18.669   0.428  12.641
59611W        W32036   0.408  21.328  14.331
59612W        W32037  18.687  23.030  13.022
59613W        W32038  41.284  22.060   4.252
59614W        W32039  42.185  42.119  12.546
59615W        W32040  43.881   3.425  14.164
59616W        W32041  36.163  22.743   3.203
59617W        W32042  21.081  25.941  14.063
59618W        W32043   9.185  42.767   0.329
59619W        W32044  39.809  39.385  12.540
59620W        W32045  42.739   4.498   3.229
59621W        W32046  11.285  38.504  13.396
59622W        W32047  18.217  26.062  14.484
59623W        W32048  10.022  43.417  11.078
59624W        W32049  31.522  28.996  12.158
59625W        W32050  21.215  26.253  14.935
59626W        W32051  44.572  20.582   2.336
59627W        W32052  38.322  39.488  12.381
59628W        W32053  23.642   8.502  12.657
59629W        W32054  27.286   0.272   1.768
59630W        W32055  19.497   0.509  13.002
59631W        W32056   8.139  41.368   0.720
59632W        W32057  20.699  20.539   2.320
59633W        W32058  31.650   4.706   3.660
59634W        W32059  28.092  25.243  14.520
59635W        W32060  42.295  35.393  10.569
59636W        W32061   7.410  11.792   1.622
59637W        W32062  28.141  32.310   9.958
59638W        W32063  19.124   5.938   0.484
59639W        W32064  22.041   9.853   1.383
59640W        W32065   3.979  11.281  10.635
59641W        W32066   9.343  25.082   3.487
59642W        W32067  35.339  33.984   4.869
59643W        W32068  26.498  21.642   3.121
59644W        W32069   3.159   7.835   2.810
59645W        W32070  31.972  32.766   0.669
59646W        W32071  38.509  36.294   1.689
59647W        W32072  36.796  18.658  13.151
59648W        W32073  37.430  25.685  12.294
59649W        W32074  27.010  43.320  11.168
59650W        W32075  15.331  17.613   0.399
59651W        W32076  28.001  23.607  10.765
59652W        W32077  43.478  29.442  14.210
59653W        W32078  20.682  14.145   0.698
59654W        W32079  17.240  37.122   3.235
59655W        W32080  43.382  35.080  12.407
59656W        W32081  20.201  32.647  11.584
59657W        W32082  16.581  22.713   2.693
59658W        W32083   9.830  16.109  13.668
59659W        W32084  10.705  37.337   2.154
59660W        W32085  21.670  20.057  14.468
59661W        W32086  15.105   9.748   2.807
59662W        W32087  21.538   9.221   1.769
59663W        W32088  18.439  36.017  12.964
59664W        W32089   6.272  25.164   3.701
59665W        W32090  16.121  43.309   2.342
59666W        W32091  30.474   1.379  11.568
59667W        W32092  28.697  20.376  12.371
59668W        W32093  13.260  36.554  12.773
59669W        W32094  22.823   4.420  13.369
59670W        W32095  12.694  10.178   4.388
59671W        W32096  11.667   5.083  12.634
59672W        W32097  30.684  21.667  13.104
59673W        W32098  11.899  14.300   3.190
59674W        W32099  39.920  22.057   1.309
59675W        W32100  38.045  26.887  14.586
59676W        W32101   6.821   0.941   4.017
59677W        W32102   2.970  28.594  10.656
59678W        W32103   9.285   6.460  13.896
59679W        W32104  17.851  17.540  14.456
59680W        W32105  24.211  29.210  13.463
59681W        W32106  37.712  28.168   5.312
59682W        W32107  14.143   6.289   0.173
59683W        W32108   0.277  38.531  14.052
59684W        W32109  35.916  37.174   5.107
59685W        W32110  14.030  23.224   2.276
59686W        W32111  38.745   2.218   3.642
59687W        W32112  18.120  26.035   4.179
59688W        W32113  29.441   4.974  10.857
59689W        W32114  14.085  38.597   1.290
59690W        W32115  14.604  43.368  14.034
59691W        W32116  29.390  29.085  13.955
59692W        W32117  16.113  24.022  11.035
59693W        W32118  15.800  42.025   1.323
59694W        W32119  25.004  39.309   2.290
59695W        W32120  26.981  23.049   2.046
59696W        W32121  20.634  25.022   4.484
59697W        W32122  29.245   3.381   2.700
59698W        W32123  32.098  21.674  11.992
59699W        W32124  38.053  37.760   0.426
59700W        W32125  13.235   1.070  13.986
59701W        W32126   1.200   3.310   1.215
59702W        W32127   3.282  24.773   3.866
59703W        W32128  20.051  16.190  14.141
59704W        W32129   7.623  31.195  13.450
59705W        W32130  20.279  36.654   1.817
59706W        W32131  23.648  32.441   4.298
59707W        W32132   0.401  22.175  13.592
59708W        W32133   3.248   3.704   2.785
59709W        W32134  26.705   9.672  12.091
59710W        W32135  35.748   3.126  14.962
59711W        W32136  42.337  17.224   3.835
59712W        W32137  35.798  32.137   4.708
59713W        W32138  29.338   7.158  11.103
59714W        W32139   3.564  42.954  10.700
59715W        W32140  21.353   9.766   4.636
59716W        W32141  20.837   7.495   3.142
59717W        W32142   0.078  25.388  11.117
59718W        W32143  43.927   9.176  14.737
59719W        W32144  22.794  28.451  14.985
59720W        W32145  10.838  38.592   2.616
59721W        W32146  26.049  21.990  11.557
59722W        W32147  35.778  27.974  13.511
59723W        W32148   7.592  44.284  10.291
59724W        W32149  36.511  37.362  11.711
59725W        W32150  16.527  23.063  12.165
59726W        W32151   4.392  21.227   0.932
59727W        W32152  30.557  33.786   3.275
59728W        W32153  27.162  15.966   2.931
59729W        W32154  35.647   5.997  11.703
59730W        W32155  24.113  30.235  13.025
59731W        W32156  15.069  12.072   3.270
59732W        W32157  18.408  41.559   4.530
59733W        W32158   2.387  40.770   4.487
59734W        W32159  27.761  12.223  12.470
59735W        W32160  17.193  33.873  10.687
59736W        W32161  18.810  22.792   1.336
59737W        W32162  39.932  34.748   1.787
59738W        W32163  33.427  24.389  12.338
59739W        W32164  16.589  22.605  10.743
59740W        W32165  37.388  42.633  13.814
59741W        W32166  27.575  26.990  14.815
59742W        W32167  40.173  35.509   2.988
59743W        W32168  16.254   1.352   4.182
59744W        W32169  31.818  18.558  10.718
59745W        W32170  34.676  33.109  12.227
59746W        W32171  19.169   7.495  12.547
59747W        W32172  23.760  15.396  13.173
59748W        W32173  32.080  27.004   0.123
59749W        W32174   7.421  25.407   4.177
59750W        W32175  10.424  21.098   3.386
59751W        W32176  31.108   1.505   3.283
59752W        W32177  38.181  40.510  14.570
59753W        W32178  25.136  44.762  13.336
59754W        W32179   3.693  22.962  12.489
59755W        W32180  15.373  37.007  13.167
59756W        W32181  35.484  32.575   4.238
59757W        W32182  20.731  19.075  13.542
59758W        W32183  43.828  35.336  14.034
59759W        W32184  38.313  20.608   0.285
59760W        W32185  26.208  10.851  14.562
59761W        W32186  29.085  12.112   2.771
59762W        W32187  27.024  26.191   2.335
59763W        W32188  31.959  29.085  11.815
59764W        W32189  31.074  16.845  13.293
59765W        W32190  19.647  10.681  13.927
59766W        W32191  33.887  11.925   2.231
59767W        W32192  15.113  33.384   0.023
59768W        W32193  25.804  14.772   2.418
59769W        W32194  27.070  11.111   0.007
59770W        W32195  33.595  44.960  13.954
59771W        W32196   3.403  10.283  13.955
59772W        W32197  15.788  40.103  10.587
59773W        W32198  33.944  34.487  13.631
59774W        W32199  23.100   2.871  14.309
59775W        W32200  21.134  33.101   1.799
59776W        W32201  25.480   6.664  14.763
59777W        W32202  42.881   8.964  13.418
59778W        W32203   5.761  38.536   0.362
59779W        W32204  28.285  11.730   4.080
59780W        W32205  42.743  43.373  11.043
59781W        W32206  19.680  15.035  12.997
59782W        W32207  24.806  20.786  11.078
59783W        W32208  23.930  39.680   0.978
59784W        W32209   5.226  27.880  12.895
59785W        W32210  11.216  11.350  13.400
59786W        W32211  10.235   1.139   2.869
59787W        W32212  40.794  11.060  11.116
59788W        W32213  12.585  38.411   3.178
59789W        W32214  30.979   6.427   3.507
59790W        W32215  10.427  17.263   0.371
59791W        W32216  27.694  31.101  13.518
59792W        W32217  22.241   2.466  12.996
59793W        W32218  27.864  19.140   1.554
59794W        W32219   0.293  40.138  14.366
59795W        W32220   2.416  30.659  13.393
59796W        W32221  11.793  18.412  12.449
59797W        W32222  41.497  36.848  14.825
59798W        W32223  39.539  17.343  14.433
59799W        W32224  28.145  40.327   1.912
59800W        W32225  14.630   1.475   4.128
59801W        W32226  15.965  28.075   0.369
59802W        W32227   1.914  37.594  10.354
59803W        W32228  30.481  31.906   3.652
59804W        W32229  44.732  25.446   2.394
59805W        W32230  36.882  30.147  11.923
59806W        W32231  41.775  14.866   0.414
59807W        W32232  39.925  36.527  12.051
59808W        W32233  34.818   5.850  13.716
59809W        W32234  36.095  36.169  14.851
59810W        W32235   2.954  37.019  10.601
59811W        W32236  33.129  42.314   2.733
59812W        W32237  37.434  39.596  12.573
59813W        W32238  16.621  41.856   4.677
59814W        W32239  31.032   3.214   1.194
59815W        W32240  16.171  38.538  14.883
59816W        W32241  21.559  19.684   2.402
59817W        W32242  42.446   5.952   4.108
59818W        W32243  41.243   4.741   5.125
59819W        W32244  36.956  20.553   0.101
59820W        W32245  12.628  29.689  14.046
59821W        W32246  13.478  40.413   4.554
59822W        W32247  11.284  32.636   4.081
59823W        W32248  31.592  33.513   1.743
59824W        W32249   1.201   5.143   1.233
59825W        W32250  10.627  39.357   1.741
59826W        W32251   9.195  15.671   0.537
59827W        W32252  40.485  30.642  13.314
59828W        W32253  39.511  30.467   0.723
59829W        W32254   9.924  35.973  11.885
59830W        W32255   2.755  11.235  11.486
59831W        W32256  14.655   1.814   2.846
59832W        W32257   7.946  14.444   3.745
59833W        W32258  19.591  36.514   4.139
59834W        W32259  23.787   9.627  13.438
59835W        W32260  16.175  23.029   4.898
59836W        W32261  23.497  27.191  12.081
59837W        W32262   0.301  11.590   3.278
59838W        W32263  22.632  32.140  12.899
59839W        W32264  32.136  42.097  13.877
59840W        W32265  32.291  26.834   4.554
59841W        W32266   9.707   6.787  13.961
59842W        W32267  21.038  24.299  12.455
59843W        W32268  38.424  11.264  10.617
59844W        W32269  29.691   1.068   4.162
59845W        W32270  37.064  26.859  14.968
59846W        W32271  33.484   9.586   3.119
59847W        W32272  41.396  41.915   3.186
59848W        W32273  10.256  20.334  14.554
59849W        W32274  27.959   2.140   4.519
59850W        W32275  27.414   9.816  11.543
59851W        W32276  29.740   2.978   2.894
59852W        W32277  35.006  44.285   9.988
59853W        W32278  39.894  25.575  13.115
59854W        W32279   3.850  20.722  11.929
59855W        W32280  32.915   3.522   4.969
59856W        W32281  41.000  41.628   4.410
59857W        W32282  36.537  26.322   2.394
59858W        W32283   2.424  32.929   3.827
59859W        W32284   0.875  25.777  13.369
59860W        W32285  41.523  28.285   2.297
59861W        W32286  28.467  15.164  14.586
59862W        W32287  25.052  33.197  12.406
59863W        W32288  18.664   4.293   0.964
59864W        W32289  35.356  26.193   4.210
59865W        W32290   7.137   8.575   1.451
59866W        W32291   3.458  35.600   4.338
59867W        W32292  23.015  31.348   1.302
59868W        W32293  31.547  43.867   1.793
59869W        W32294  17.857  27.370  14.385
59870W        W32295  25.090  11.621  11.141
59871W        W32296  18.338   4.382   3.557
59872W        W32297  14.397  20.152   3.785
59873W        W32298  16.070  43.434  14.424
59874W        W32299  35.918  16.851   2.633
59875W        W32300  42.960  37.422  12.517
59876W        W32301  42.284  19.236   1.924
59877W        W32302  15.873  24.638  13.082
59878W        W32303  17.515  14.534   0.928
59879W        W32304  28.932  11.936   3.336
59880W        W32305  16.773   4.454   1.658
59881W        W32306  38.091  27.112   2.391
59882W        W32307  22.171  28.594   4.998
59883W        W32308  11.624   1.250   0.821
59884W        W32309   3.980   7.856  13.891
59885W        W32310  16.540  34.578  10.551
59886W        W32311  29.178   9.377   4.133
59887W        W32312   3.316  25.602   0.062
59888W        W32313  14.458   4.782  11.118
59889W        W32314  32.689  27.543   4.118
59890W        W32315  16.416  39.470   2.733
59891W        W32316  42.796  28.913  14.058
59892W        W32317  43.303  16.322  14.454
59893W        W32318   4.546  16.728   4.592
59894W        W32319  16.113   3.165   0.031
59895W        W32320  16.826  24.518  12.844
59896W        W32321  10.851  30.492   1.883
59897W        W32322  15.669   8.872  11.135
59898W        W32323  43.580  25.547  12.971
59899W        W32324  30.649  28.698   0.346
59900W        W32325  29.636   6.967   1.238
59901W        W32326  41.407  29.030  12.362
59902W        W32327  39.322  30.634  13.013
59903W        W32328  31.509   1.798  11.420
59904W        W32329  43.675  18.328   2.450
59905W        W32330   4.342  24.797  14.849
59906W        W32331  15.170   3.497  10.070
59907W        W32332  30.951   0.520  13.002
59908W        W32333  12.873  11.781  10.737
59909W        W32334   5.741  31.911   4.296
59910W        W32335  35.986  32.372   2.971
59911W        W32336  23.189  14.824   3.232
59912W        W32337   7.225  16.710   2.403
59913W        W32338   5.454   2.231  10.658
59914W        W32339  17.816  15.742  14.263
59915W        W32340  38.562  31.452  13.665
59916W        W32341   7.734   3.033  14.828
59917W        W32342  33.565   1.788  12.514
59918W        W32343  27.112   3.773  12.632
59919W        W32344   1.821   3.836   2.058
59920W        W32345   3.272  35.603  12.402
59921W        W32346  33.433  40.180  14.523
59922W        W32347   6.445  11.771   1.800
59923W        W32348   4.275  38.031  13.403
59924W        W32349  40.791  28.021   2.727
59925W        W32350  20.868  21.327  10.099
59926W        W32351  20.080  11.374   0.568
59927W        W32352  24.129  22.035   2.831
59928W        W32353  29.457   8.637  12.704
59929W        W32354  41.394   0.293   1.763
59930W        W32355  27.962  20.940   4.491
59931W        W32356  33.682  37.136  13.203
59932W        W32357   4.427  42.794  12.453
59933W        W32358  27.488   9.365   0.293
59934W        W32359  24.064  16.392  14.245
59935W        W32360  23.882  35.082  14.727
59936W        W32361   6.188   6.655  12.047
59937W        W32362  15.706  12.636  12.559
59938W        W32363  43.342  27.238   0.904
59939W        W32364   9.337  10.153  12.081
59940W        W32365  37.504  27.604   3.582
59941W        W32366   4.088  38.965  11.929
59942W        W32367   2.663   6.888  14.073
59943W        W32368  32.847   0.729   3.123
59944W        W32369  21.239   5.505   1.993
59945W        W32370  12.778   6.623   2.703
59946W        W32371  44.987   5.249   1.718
59947W        W32372  37.039  27.706  12.593
59948W        W32373  15.893  42.550  10.984
59949W        W32374  40.402  28.457   3.878
59950W        W32375  18.205   4.244   1.185
59951W        W32376  32.895  15.746  12.905
59952W        W32377   5.988  10.646   1.446
59953W        W32378   9.318   5.765   1.351
59954W        W32379  13.799  22.082  14.380
59955W        W32380  11.360  29.514  10.355
59956W        W32381  44.883  20.188   3.113
59957W        W32382  13.605  29.427   4.525
59958W        W32383  15.709  43.775  13.376
59959W        W32384  11.611  39.433   3.314
59960W        W32385  27.454  22.782  14.442
59961W        W32386  32.211   3.482   4.725
59962W        W32387  30.016  18.482   3.441
59963W        W32388  13.850  14.922  10.665
59964W        W32389  42.492   4.736  14.952
59965W        W32390  16.876   8.229  14.441
59966W        W32391  29.589   0.389   3.629
59967W        W32392  36.367   7.411   9.984
59968W        W32393  38.485   1.300   1.328
59969W        W32394  10.595  41.405   4.095
59970W        W32395  20.698   1.732   2.787
59971W        W32396  30.208  21.533   3.645
59972W        W32397  11.737  35.840   0.683
59973W        W32398  18.990  16.525  13.775
59974W        W32399  40.313   1.268  11.983
59975W        W32400  33.142  19.298   2.858
59976W        W32401   4.245  43.913  13.057
59977W        W32402   3.984  40.106   3.268
59978W        W32403  36.626  31.950  12.094
59979W        W32404  42.216   2.830  13.094
59980W        W32405  40.733   7.840   0.431
59981W        W32406  40.469   4.014   1.911
59982W        W32407   1.589  11.596   1.344
59983W        W32408  42.102   1.767  10.277
59984W        W32409  36.858  30.547   1.656
59985W        W32410  27.423  40.932  14.329
59986W        W32411  32.689  41.465   2.378
59987W        W32412  37.945  40.941   1.244
59988W        W32413   6.105  12.202  14.504
59989W        W32414  23.148  10.683  11.470
59990W        W32415  33.335  33.809  13.326
59991W        W32416  34.302  23.619  12.670
59992W        W32417  42.586  22.053   3.774
59993W        W32418  10.024  33.506   0.870
59994W        W32419   0.280  19.729  11.658
59995W        W32420   6.368  14.979   2.729
59996W        W32421  22.587   2.729  12.624
59997W        W32422  15.372  33.933   3.050
59998W        W32423  13.215  16.766   3.740
59999W        W32424   6.824  15.579   4.585
60000W        W32425  36.470  41.934   1.718
60001W        W32426  21.066  26.601   4.110
60002W        W32427  32.158   7.229  11.643
60003W        W32428  24.431   3.854   0.970
60004W        W32429  28.649  25.508  14.247
60005W        W32430  28.760  10.468  10.146
60006W        W32431  44.906  12.837   4.679
60007W        W32432   0.486  14.592  14.860
60008W        W32433  36.313   3.949   3.052
60009W        W32434   6.758   2.227  11.227
60010W        W32435  11.881   8.690  14.771
60011W        W32436   0.453  36.396  14.322
60012W        W32437  40.683  41.583   4.827
60013W        W32438  34.107   5.783  14.782
60014W        W32439  31.394  32.036   4.677
60015W        W32440  11.811   2.455   4.528
60016W        W32441  18.083  24.075   1.768
60017W        W32442  13.553  40.954   3.640
60018W        W32443   7.657   4.739   3.172
60019W        W32444  20.919   6.358   4.137
60020W        W32445  25.596  32.681   1.423
60021W        W32446  36.465   1.769  12.437
60022W        W32447  17.507  17.079  13.293
60023W        W32448   0.211  39.363   1.364
60024W        W32449  15.754  28.334  14.957
60025W        W32450   9.796  23.433  11.610
60026W        W32451  24.882   9.610   1.220
60027W        W32452  43.547  20.709   3.343
60028W        W32453  24.080   2.786   3.330
60029W        W32454  16.351  31.567  11.651
60030W        W32455  32.129   2.787   0.456
60031W        W32456  36.605   9.699   0.885
60032W        W32457   4.324  41.938  13.466
60033W        W32458  17.255  44.745   0.777
60034W        W32459  36.605  30.315   3.331
60035W        W32460   3.043  15.174   0.452
60036W        W32461  17.081   7.717   2.649
60037W        W32462  18.018  39.947  14.902
60038W        W32463  24.002   6.226   4.051
60039W        W32464  21.557  19.133  11.575
60040W        W32465  26.428  32.344  12.119
60041W        W32466  27.943  21.711   5.406
60042W        W32467   4.095  16.373   2.097
60043W        W32468  15.083  17.703  10.444
60044W        W32469  28.429  40.447  13.030
60045W        W32470  20.200   3.735  14.935
60046W        W32471  28.201   0.380  12.543
60047W        W32472   6.020  34.562  13.936
60048W        W32473  39.943  44.308  13.052
60049W        W32474   6.776   1.466   4.206
60050W        W32475  13.310   8.308  10.736
60051W        W32476  28.946   5.794  10.635
60052W        W32477  12.723  40.143  10.486
60053W        W32478   9.256  10.064   1.296
60054W        W32479  29.928  26.412   4.982
60055W        W32480  12.902   3.297  12.500
60056W        W32481   9.800  12.678   2.714
60057W        W32482  27.927  16.328   3.061
60058W        W32483  11.165  37.811  14.570
60059W        W32484  19.675  10.628   4.596
60060W        W32485  36.940  17.818  12.206
60061W        W32486  24.324  12.755   4.476
60062W        W32487   4.960  19.219   2.769
60063W        W32488  17.536  13.793  14.381
60064W        W32489  11.264   0.893   2.795
60065W        W32490  12.096   1.631   1.871
60066W        W32491   4.448  23.477  11.994
60067W        W32492   9.576   6.787  11.388
60068W        W32493  34.597  16.045   1.917
60069W        W32494  14.474  22.446  11.598
60070W        W32495  19.687  13.399   4.294
60071W        W32496   3.201  24.253  12.050
60072W        W32497  32.116   0.480  12.574
60073W        W32498  19.749   0.945   3.191
60074W        W32499  38.899  37.826   0.247
60075W        W32500   0.746   2.934   3.592
60076W        W32501   2.654   8.672  14.894
60077W        W32502  16.982   7.432  10.996
60078W        W32503  33.092  36.453   0.098
60079W        W32504   4.218  28.583   3.747
60080W        W32505  27.718  41.659   4.577
60081W        W32506   9.824  31.626   3.385
60082W        W32507   3.790  14.616   2.214
60083W        W32508  33.256   7.898   1.388
60084W        W32509  15.957  29.652  12.976
60085W        W32510  36.041  38.741   2.328
60086W        W32511  28.549  38.807   2.862
60087W        W32512  26.379  24.077  11.957
60088W        W32513  11.645  14.517  10.230
60089W        W32514  32.707  17.276   4.709
60090W        W32515   3.808  36.298   4.600
60091W        W32516  42.355  31.397   4.257
60092W        W32517  37.040   5.697   3.194
60093W        W32518  26.051  28.605  14.924
60094W        W32519  29.715  15.941  12.117
60095W        W32520  42.029   5.699  14.901
60096W        W32521  23.238  30.236  11.110
60097W        W32522  12.619  15.596   2.480
60098W        W32523  16.985  14.210  10.247
60099W        W32524  24.532  39.426   1.837
60100W        W32525  15.785  16.827   0.893
60101W        W32526  44.965  41.525  11.539
60102W        W32527  34.122  33.514   2.810
60103W        W32528  25.683  25.528  12.571
60104W        W32529  11.148  19.691   1.335
60105W        W32530  43.317   6.146  11.105
60106W        W32531  13.724  29.948   3.774
60107W        W32532  11.635  44.000   3.730
60108W        W32533  27.462  26.140   3.277
60109W        W32534  23.735   5.359  11.998
60110W        W32535  29.149  23.501  13.034
60111W        W32536  13.658  38.551   2.082
60112W        W32537  41.945  40.753  11.615
60113W        W32538  29.140  26.681  11.039
60114W        W32539  37.647   2.458   5.001
60115W        W32540  34.386  39.265  14.691
60116W        W32541   0.314   6.402   4.199
60117W        W32542   7.740  38.928  14.933
60118W        W32543  36.963  11.119  12.648
60119W        W32544  10.175  32.663   2.898
60120W        W32545   7.894  25.453  11.183
60121W        W32546  29.933  40.958   2.653
60122W        W32547  22.799  26.096   0.338
60123W        W32548  32.975   8.701   3.372
60124W        W32549  24.070  44.007  11.219
60125W        W32550   1.769  13.792   2.908
60126W        W32551  20.542  41.936  14.588
60127W        W32552   7.610  12.228   3.245
60128W        W32553  24.078  22.096  11.442
60129W        W32554  36.991  37.022   3.154
60130W        W32555  42.955  18.167   0.340
60131W        W32556  32.129  23.727   4.573
60132W        W32557  27.518  30.691   1.134
60133W        W32558  38.015   5.126  11.521
60134W        W32559  16.568  43.825   0.927
60135W        W32560  13.223   6.664  12.002
60136W        W32561  25.941  36.015  12.608
60137W        W32562  17.856  36.915   3.078
60138W        W32563  33.277  27.684  13.472
60139W        W32564  20.467  39.839   1.982
60140W        W32565  26.645  32.031   4.138
60141W        W32566  35.124   5.761   4.950
60142W        W32567   7.680  40.543  13.989
60143W        W32568  22.248  33.945   1.369
60144W        W32569  33.947   4.810  13.434
60145W        W32570  44.128  27.167   0.468
60146W        W32571   9.848   7.232  12.484
60147W        W32572  29.640  38.874  12.961
60148W        W32573  29.329   1.587   2.703
60149W        W32574   0.208  42.875   2.286
60150W        W32575  22.686  19.260  14.845
60151W        W32576  23.107   5.609   3.860
60152W        W32577  39.766  29.079  12.903
60153W        W32578  36.418  30.241   2.406
60154W        W32579  39.732  32.359  14.020
60155W        W32580  37.549  36.388  10.566
60156W        W32581  28.261   9.304  12.097
60157W        W32582  44.381   2.889  12.121
60158W        W32583   3.772  42.968  10.217
60159W        W32584  26.164   4.262  11.224
60160W        W32585  43.864  16.149  11.688
60161W        W32586  31.037  40.299   1.591
60162W        W32587   3.686  40.036   1.228
60163W        W32588  32.889  10.419   3.140
60164W        W32589  18.128  18.349   1.488
60165W        W32590   7.686  32.122   3.662
60166W        W32591  34.435  44.368  11.171
60167W        W32592  42.608  30.641   3.282
60168W        W32593  27.152  14.387  12.977
60169W        W32594   1.346   4.688   4.888
60170W        W32595   9.257  41.973  11.878
60171W        W32596  30.912  14.189  12.198
60172W        W32597  26.683   6.302   1.653
60173W        W32598  34.061  28.706   1.156
60174W        W32599  12.221  26.694   4.461
60175W        W32600  37.665   8.551   9.759
60176W        W32601  18.162  34.115  14.536
60177W        W32602  24.113  22.524   1.691
60178W        W32603   4.309  10.124   3.971
60179W        W32604  10.079  10.389  10.523
60180W        W32605  19.401  31.585   0.699
60181W        W32606  44.313  29.943  11.173
60182W        W32607  24.962  20.469  13.931
60183W        W32608  29.186  10.860   3.849
60184W        W32609   4.716  20.265  10.490
60185W        W32610  22.544   2.964   1.728
60186W        W32611  16.641  41.056   1.162
60187W        W32612  36.285  43.759   0.181
60188W        W32613  35.495  34.350  13.035
60189W        W32614  30.690  33.961  13.656
60190W        W32615  32.987  23.747  13.823
60191W        W32616  16.590  10.530   3.730
60192W        W32617   9.697  20.960   5.081
60193W        W32618  43.739  24.076  11.123
60194W        W32619  39.915  28.085   0.882
60195W        W32620   9.277  41.306   4.468
60196W        W32621  22.812  21.729   1.957
60197W        W32622   0.482  13.451  13.867
60198W        W32623   0.788  15.897  12.598
60199W        W32624   8.927  35.562  13.396
60200W        W32625  42.847   5.397   4.949
60201W        W32626  11.769  15.309   3.792
60202W        W32627  29.575  28.087  14.589
60203W        W32628  21.166  39.438  12.547
60204W        W32629  25.471  37.352  11.631
60205W        W32630  20.192  41.997   3.366
60206W        W32631  39.404  20.780  11.971
60207W        W32632   3.945   2.426   1.377
60208W        W32633  17.990  39.236   4.860
60209W        W32634   7.239  39.799  13.203
60210W        W32635  14.823  29.179   5.086
60211W        W32636  10.356  33.927  11.308
60212W        W32637  21.914  36.427  14.319
60213W        W32638  26.748  15.740  14.321
60214W        W32639  41.441   5.505  11.587
60215W        W32640   1.880  24.276   4.727
60216W        W32641  28.517   0.430  14.406
60217W        W32642  40.704  35.996  11.648
60218W        W32643  30.870  38.995   1.394
60219W        W32644  29.973   0.915  10.551
60220W        W32645  14.237  30.075  12.559
60221W        W32646  32.747  17.965  12.621
60222W        W32647   1.921  41.087   4.548
60223W        W32648  33.617  27.613   2.738
60224W        W32649  34.644  31.722  10.718
60225W        W32650  10.305  28.752   2.743
60226W        W32651   9.333  19.402   0.826
60227W        W32652  16.534  28.923  13.952
60228W        W32653  22.532   0.910   4.594
60229W        W32654  39.435  27.123  11.586
60230W        W32655  14.600  30.041  10.636
60231W        W32656  34.481   9.255   4.053
60232W        W32657  35.966  41.536   0.828
60233W        W32658  42.423  18.548   4.601
60234W        W32659  19.725  11.738   0.199
60235W        W32660  27.938  41.105   0.357
60236W        W32661   5.656  10.254   1.444
60237W        W32662  21.992  41.939  13.093
60238W        W32663  33.097  24.262  11.199
60239W        W32664   8.442  32.540   1.805
60240W        W32665  33.288  26.129   0.351
60241W        W32666  23.972  42.319  13.864
60242W        W32667  23.178   0.309   3.677
60243W        W32668  37.993  19.111   2.181
60244W        W32669  42.419  35.656   3.770
60245W        W32670  17.253  41.240  13.524
60246W        W32671   1.825  42.730   1.283
60247W        W32672   5.699  32.443   2.221
60248W        W32673  36.485  35.378   2.758
60249W        W32674   3.751  21.686   2.050
60250W        W32675  32.563  21.250  14.255
60251W        W32676  28.808   9.224  12.860
60252W        W32677  24.126  23.954   1.263
60253W        W32678  44.885  13.051  12.548
60254W        W32679  17.026  17.755  12.009
60255W        W32680  29.184   3.781  10.741
60256W        W32681  41.606  12.327   0.888
60257W        W32682  31.156   6.165  14.921
60258W        W32683  42.771   5.926   2.657
60259W        W32684  18.808  43.453  12.524
60260W        W32685   2.838  28.397  11.861
60261W        W32686  31.036  34.982  11.180
60262W        W32687  44.362  14.000  12.993
60263W        W32688  26.445   8.078   4.618
60264W        W32689  34.898  24.518  10.667
60265W        W32690  13.041  38.973   2.604
60266W        W32691  20.294  16.988   1.676
60267W        W32692  39.490   3.883   4.507
60268W        W32693   5.142  29.986  13.311
60269W        W32694  34.288  39.680  13.930
60270W        W32695  25.469  25.420   2.446
60271W        W32696   0.519  27.092  13.383
60272W        W32697  11.859  13.495  14.287
60273W        W32698  26.559  13.723  14.439
60274W        W32699  26.892  43.458   0.033
60275W        W32700  37.825  29.701  13.023
60276W        W32701  38.863   7.934  14.545
60277W        W32702  34.537  38.863   2.694
60278W        W32703  42.034  36.098  13.983
60279W        W32704  10.179   1.826  11.516
60280W        W32705  26.514  35.171  12.377
60281W        W32706  21.737  35.868   4.665
60282W        W32707  26.995  33.936   2.446
60283W        W32708  44.383  43.298   0.249
60284W        W32709  23.065  21.623  11.128
60285W        W32710   1.765  16.691   4.197
60286W        W32711  14.955  12.294  13.391
60287W        W32712  43.487  29.385  11.976
60288W        W32713  24.120  31.570  13.698
60289W        W32714   7.840  34.936  12.438
60290W        W32715   0.393  38.931  12.902
60291W        W32716  35.921   9.903  14.735
60292W        W32717  22.621   6.205   2.698
60293W        W32718  43.851  21.064   1.669
60294W        W32719  16.362  43.727   1.403
60295W        W32720  21.297   1.834  14.402
60296W        W32721  33.192   2.096   3.430
60297W        W32722  11.659   3.303   2.355
60298W        W32723  19.728  11.534  14.699
60299W        W32724  36.887  33.479   4.846
60300W        W32725   2.084  10.879  10.514
60301W        W32726  12.082  21.350   1.305
60302W        W32727  25.946  23.644   1.723
60303W        W32728  37.968  37.053  11.905
60304W        W32729  30.048  42.515  11.398
60305W        W32730  31.946  27.205   3.719
60306W        W32731  29.225  31.543  12.441
60307W        W32732  11.698  37.831  14.684
60308W        W32733   7.443  36.912  12.621
60309W        W32734  27.648  17.810   4.154
60310W        W32735  40.103  26.448  10.215
60311W        W32736  14.057  13.090   1.384
60312W        W32737  11.220  19.068   2.783
60313W        W32738  43.392  16.718   3.348
60314W        W32739  11.695  11.367  10.772
60315W        W32740  29.858  21.898   0.335
60316W        W32741   6.512  26.022   3.229
60317W        W32742  20.223  27.140  11.628
60318W        W32743  42.912   7.150   1.861
60319W        W32744  26.061   8.647  13.033
60320W        W32745  18.237  34.137  11.568
60321W        W32746   2.091   0.403  11.299
60322W        W32747  31.125  40.072   3.281
60323W        W32748  31.597  29.006   3.242
60324W        W32749  18.641  34.838   4.686
60325W        W32750  22.661  29.171  12.010
60326W        W32751  25.380  37.785  13.808
60327W        W32752  17.614  17.041  14.840
60328W        W32753  10.362   2.938  10.607
60329W        W32754  15.085   5.977  10.881
60330W        W32755  10.988  34.304  14.348
60331W        W32756  24.958  19.974  11.122
60332W        W32757   5.227  41.899   3.065
60333W        W32758  27.417  31.968  12.907
60334W        W32759   2.546  42.356   2.303
60335W        W32760  31.542  12.306   3.415
60336W        W32761  25.561   4.134   2.313
60337W        W32762  35.958   8.907   0.282
60338W        W32763   8.294  22.916  11.600
60339W        W32764   8.784  27.050   4.914
60340W        W32765  35.582  39.597  12.738
60341W        W32766  23.039  30.976  11.929
60342W        W32767   8.204  18.220  13.115
60343W        W32768  44.227   8.432  12.451
60344W        W32769  27.377  33.610   3.806
60345W        W32770  27.582  25.155  14.354
60346W        W32771  24.984  36.414  11.619
60347W        W32772  44.336  22.212   3.905
60348W        W32773  39.325  36.007   4.341
60349W        W32774  24.286  11.815  12.365
60350W        W32775  33.557  11.852   1.378
60351W        W32776  12.117  25.709   4.117
60352W        W32777  39.827  23.121   0.313
60353W        W32778   0.427  44.731   0.158
60354W        W32779  20.667  20.706  12.349
60355W        W32780  18.795  19.786  10.705
60356W        W32781  23.059  35.370  12.454
60357W        W32782  20.295  26.492   1.840
60358W        W32783  33.145  15.715   2.288
60359W        W32784  19.074  23.105  14.342
60360W        W32785  22.706   6.913  14.934
60361W        W32786   3.677  30.575  13.536
60362W        W32787  22.050  37.361  12.796
60363W        W32788  15.154  29.775   2.316
60364W        W32789   3.814  39.055   3.215
60365W        W32790   7.270  25.170   3.729
60366W        W32791  43.966  12.221   2.272
60367W        W32792  29.620  22.921   2.844
60368W        W32793  22.771   9.752  12.002
60369W        W32794  33.860   9.961  11.981
60370W        W32795  13.319  24.046  14.322
60371W        W32796   2.521  24.679  12.381
60372W        W32797  13.348  22.863   5.176
60373W        W32798  36.851  25.063   5.040
60374W        W32799   7.883  12.139   4.119
60375W        W32800   6.944  34.123   1.187
60376W        W32801  16.862  21.034  12.500
60377W        W32802  34.154  26.198  14.515
60378W        W32803   0.460  23.192  13.498
60379W        W32804  36.430  15.611   1.870
60380W        W32805  19.682  15.745  10.412
60381W        W32806   4.439  19.271   2.888
60382W        W32807  34.012   5.986   3.801
60383W        W32808  16.182  28.612  14.818
60384W        W32809   6.977   6.598   1.353
60385W        W32810  34.140  17.692   3.409
60386W        W32811  40.773  40.195  11.149
60387W        W32812  34.398  20.201   2.354
60388W        W32813   0.088  35.898   1.889
60389W        W32814  14.762  36.728   2.275
60390W        W32815  12.191  17.794   0.209
60391W        W32816  15.712  41.710   1.737
60392W        W32817  16.178   3.388   0.486
60393W        W32818  27.691  22.286  11.080
60394W        W32819  11.133  26.692   0.577
60395W        W32820  43.790  44.293   4.123
60396W        W32821  26.609  26.432  14.731
60397W        W32822  38.849  18.285   4.125
60398W        W32823  30.914   5.317   0.502
60399W        W32824  29.587  34.553  12.130
60400W        W32825  14.419  29.987  11.139
60401W        W32826  15.827  39.605  13.373
60402W        W32827  32.510  21.341   4.905
60403W        W32828  30.910  28.466  14.426
60404W        W32829  44.119  35.328   4.717
60405W        W32830  26.533  41.699  10.460
60406W        W32831  39.465  29.421  11.672
60407W        W32832  26.645  29.616   4.132
60408W        W32833  30.184   2.898   0.271
60409W        W32834   2.854  21.171   1.710
60410W        W32835  43.520  35.584   4.656
60411W        W32836  16.681  22.858   4.774
60412W        W32837  12.778  24.061  14.369
60413W        W32838  36.067  29.605   0.157
60414W        W32839  25.266  13.264   1.280
60415W        W32840  24.577  34.969  13.933
60416W        W32841  29.339  22.478  14.888
60417W        W32842  41.047  27.736   3.696
60418W        W32843   0.476  24.999   4.400
60419W        W32844   5.380  44.825   4.212
60420W        W32845   6.768  41.454   0.550
60421W        W32846  40.396  36.742   4.635
60422W        W32847  14.538  34.453   0.742
60423W        W32848  28.512  42.484   1.402
60424W        W32849  11.304  29.182   1.370
60425W        W32850   1.246  19.137  13.847
60426W        W32851  43.825  10.174  14.335
60427W        W32852   2.977   4.260   1.789
60428W        W32853  19.956  10.916  13.399
60429W        W32854  38.962  38.584  10.226
60430W        W32855  16.221  12.825   2.229
60431W        W32856  41.548  23.523  14.440
60432W        W32857  13.336  22.925   2.736
60433W        W32858  17.187  18.114   1.954
60434W        W32859  25.120  26.557  13.812
60435W        W32860  34.978   7.250  11.135
60436W        W32861   2.928   1.910  12.500
60437W        W32862  38.603  15.348  14.824
60438W        W32863  34.883   2.952   2.672
60439W        W32864  18.707  25.597   0.831
60440W        W32865  41.769  36.412  13.667
60441W        W32866   4.501  40.957   2.336
60442W        W32867  23.425  15.336   1.626
60443W        W32868  17.278  36.970  13.083
60444W        W32869   0.316  16.839   0.901
60445W        W32870  17.688  10.342  13.810
60446W        W32871  20.071   0.070   1.202
60447W        W32872  12.877  25.654  11.273
60448W        W32873  30.682  13.944   4.253
60449W        W32874  15.072  23.916   1.686
60450W        W32875  24.131  13.298  11.946
60451W        W32876  20.086  28.933  10.463
60452W        W32877  15.890  41.230   0.901
60453W        W32878  13.730  14.658   3.255
60454W        W32879  40.698  24.701  13.063
60455W        W32880  22.062   2.389  11.009
60456W        W32881   7.313  26.987   4.097
60457W        W32882   4.097  19.805  11.062
60458W        W32883  22.556  44.274  10.397
60459W        W32884  32.511   7.723  14.232
60460W        W32885   1.573  25.876   3.416
60461W        W32886  39.084  32.103  14.648
60462W        W32887   6.579  31.708  12.794
60463W        W32888   4.026  28.124   0.071
60464W        W32889  40.809  16.500   4.535
60465W        W32890  31.996  41.018  10.605
60466W        W32891  11.380  15.554   1.336
60467W        W32892  42.501   9.252   2.829
60468W        W32893   9.821   0.258  14.522
60469W        W32894  35.867  40.797   1.782
60470W        W32895  26.493  16.792   4.464
60471W        W32896  36.317   1.001  14.851
60472W        W32897   5.739  28.498  12.338
60473W        W32898  31.661  30.934  13.010
60474W        W32899  11.106  42.322   3.875
60475W        W32900  19.113  24.333   2.624
60476W        W32901   4.872  17.628   4.623
60477W        W32902  32.811  21.033  11.532
60478W        W32903  32.262   6.817   1.381
60479W        W32904   8.809  36.643  14.523
60480W        W32905  14.083  28.303   0.464
60481W        W32906  32.412   0.454   3.142
60482W        W32907  18.581  31.434   4.886
60483W        W32908  16.530  42.351   2.264
60484W        W32909  27.529  34.715   4.902
60485W        W32910  35.953  44.285   0.037
60486W        W32911  39.735  37.109   3.620
60487W        W32912  30.058  11.316   2.646
60488W        W32913  32.843  15.954  13.380
60489W        W32914  28.841  37.428  12.339
60490W        W32915  29.823  16.132  11.641
60491W        W32916  29.078  38.338   3.218
60492W        W32917  40.945  20.154  11.651
60493W        W32918  21.753  25.580  10.934
60494W        W32919  42.505   1.494  14.871
60495W        W32920  36.477  12.271  14.015
60496W        W32921   5.961   9.207  11.086
60497W        W32922  41.225  43.369   4.079
60498W        W32923   8.691  15.369   3.338
60499W        W32924  41.511  36.770  14.307
60500W        W32925   7.956   5.871  14.379
60501W        W32926  44.131   4.053   3.578
60502W        W32927  43.335  33.478   1.830
60503W        W32928   2.418   6.010  12.933
60504W        W32929  41.304  35.100  11.439
60505W        W32930  25.525  17.081  13.993
60506W        W32931  19.087  44.209   2.085
60507W        W32932   6.662  36.144   0.339
60508W        W32933  10.156  41.830  10.641
60509W        W32934  27.737   6.788   2.370
60510W        W32935  33.911  20.619   2.284
60511W        W32936  37.536  21.015  14.007
60512W        W32937   6.415  15.591   4.095
60513W        W32938  25.156  30.926   0.930
60514W        W32939  18.147  35.119  14.564
60515W        W32940  22.158  40.382   4.574
60516W        W32941  19.722  25.984   0.321
60517W        W32942   3.717  28.137  10.703
60518W        W32943  44.895  31.483  14.040
60519W        W32944  31.958  21.964  14.098
60520W        W32945  41.113   9.636  12.151
60521W        W32946  35.026  17.764   1.968
60522W        W32947  29.822  31.827  11.062
60523W        W32948  16.717  17.132  14.817
60524W        W32949  26.915  12.340   2.243
60525W        W32950   8.400  37.217   0.857
60526W        W32951   1.766  43.456  11.159
60527W        W32952  38.516   7.561   0.317
60528W        W32953   5.751  29.849  13.736
60529W        W32954  40.073  19.815  12.927
60530W        W32955  21.147  37.900   0.383
60531W        W32956   2.940   9.600   2.780
60532W        W32957  23.426  25.070  13.812
60533W        W32958  17.594  42.336   2.381
60534W        W32959   5.430   6.673   4.472
60535W        W32960   1.565  19.684   1.875
60536W        W32961  41.466  25.127   1.264
60537W        W32962   9.828  35.869  10.889
60538W        W32963   8.747  32.929  11.817
60539W        W32964  15.525  15.247  13.185
60540W        W32965  16.715  11.318  12.442
60541W        W32966   9.146  33.604  12.559
60542W        W32967  31.537  36.017  10.379
60543W        W32968  31.976  17.775   3.909
60544W        W32969  35.970  30.438  14.230
60545W        W32970  35.611  20.305  13.412
60546W        W32971   8.800  31.906   2.476
60547W        W32972   4.762   6.851   3.189
60548W        W32973  23.609  31.668  10.113
60549W        W32974  16.603  29.387  14.884
60550W        W32975  24.084  37.945   3.522
60551W        W32976  39.483  18.080  12.922
60552W        W32977   0.336  31.468   0.369
60553W        W32978  10.839  14.374   0.252
60554W        W32979  21.778  21.564   1.744
60555W        W32980  14.614  31.096   4.704
60556W        W32981  43.933  19.056  14.261
60557W        W32982  22.494  14.527  11.111
60558W        W32983  19.316  44.219  12.086
60559W        W32984  17.012  44.543  12.137
60560W        W32985  20.683  23.802  13.525
60561W        W32986   0.459   8.677  11.190
60562W        W32987   3.482  34.993   1.655
60563W        W32988   1.469   3.197  10.422
60564W        W32989  23.114  40.769   0.897
60565W        W32990  44.257  36.465   1.776
60566W        W32991  15.269  22.532   0.441
60567W        W32992   5.509   0.469  13.187
60568W        W32993  35.951  14.698   0.732
60569W        W32994  11.795  40.494   1.683
60570W        W32995   0.741  11.634   4.138
60571W        W32996  30.032  14.190  11.995
60572W        W32997  25.049  32.222   4.178
60573W        W32998  37.194  22.205  12.979
60574W        W32999   6.924  19.050   0.211
60575W        W33000  20.685  34.382   1.875
60576W        W33001  21.566  18.748   4.720
60577W        W33002   3.155  18.304  14.398
60578W        W33003  10.933  24.720  13.653
60579W        W33004  29.552   6.228  14.737
60580W        W33005  14.211  22.699   4.894
60581W        W33006  11.673   1.192   3.843
60582W        W33007  22.516  20.501  10.652
60583W        W33008  11.798  34.541   4.223
60584W        W33009  32.885  26.870  11.577
60585W        W33010   9.211  19.613  11.195
60586W        W33011  34.537   7.888   4.335
60587W        W33012   5.252  21.219  13.319
60588W        W33013  18.571  13.877   3.354
60589W        W33014   0.754  11.336   2.010
60590W        W33015  31.352  39.837  11.537
60591W        W33016  32.967  34.585   2.212
60592W        W33017   2.364  33.512  13.647
60593W        W33018  28.634  36.351  10.633
60594W        W33019  20.605  19.658  14.871
60595W        W33020   3.299   0.791  11.422
60596W        W33021  44.989  37.032  13.916
60597W        W33022   6.181  13.265  14.751
60598W        W33023  11.160   2.808  10.271
60599W        W33024  18.531  14.758   3.194
60600W        W33025  30.853  18.037   0.290
60601W        W33026  22.475  39.775  13.102
60602W        W33027  43.440  19.577   4.376
60603W        W33028  19.489  40.846   1.283
60604W        W33029  43.351  33.640  14.273
60605W        W33030   4.441  28.507  10.840
60606W        W33031   9.257  27.467   1.726
60607W        W33032  40.393  11.785  14.349
60608W        W33033  35.535   9.876   3.451
60609W        W33034  35.448  18.815   2.279
60610W        W33035  42.893  38.857  12.050
60611W        W33036  24.099  11.628   9.720
60612W        W33037  38.005  18.723   2.827
60613W        W33038  43.986  15.238  13.713
60614W        W33039  37.541  29.001  10.916
60615W        W33040  20.312  32.468   1.055
60616W        W33041  40.289  11.447   2.636
60617W        W33042   2.767   2.332  11.234
60618W        W33043  35.578  42.389  11.661
60619W        W33044  40.045  25.992   2.666
60620W        W33045   7.214  42.346   2.166
60621W        W33046  30.431  38.513  12.836
60622W        W33047  40.358  34.383  12.534
60623W        W33048  17.384  33.371   5.249
60624W        W33049   8.618  23.202   2.816
60625W        W33050  36.927  26.260  13.845
60626W        W33051  24.517  12.844   2.409
60627W        W33052  35.037  35.291   2.801
60628W        W33053  17.693  31.398   1.665
60629W        W33054   9.318  20.484  11.039
60630W        W33055  40.821  16.687  12.057
60631W        W33056  30.887  24.318  10.664
60632W        W33057  38.530  18.188   2.254
60633W        W33058  41.909  43.660   3.868
60634W        W33059  32.988   7.950  14.091
60635W        W33060  26.180  22.486  13.737
60636W        W33061   0.302  22.240  12.031
60637W        W33062  41.435  20.569   1.029
60638W        W33063  44.341  30.977   2.783
60639W        W33064   6.308  25.640   2.208
60640W        W33065   2.695  33.257   1.536
60641W        W33066  38.349  22.189  11.585
60642W        W33067  34.313  43.872  14.252
60643W        W33068   9.641  33.113  10.347
60644W        W33069  19.424   7.772  10.647
60645W        W33070  18.633  22.226   1.526
60646W        W33071   3.508  28.466  11.208
60647W        W33072  32.405  18.587  13.945
60648W        W33073   9.587  22.710   1.722
60649W        W33074  21.074  39.970  12.513
60650W        W33075  29.181  37.128   4.129
60651W        W33076  13.540  11.401   2.686
60652W        W33077  23.562  43.232   4.692
60653W        W33078  21.603  30.225   3.324
60654W        W33079  42.778  37.392  14.945
60655W        W33080  32.578  10.762   3.682
60656W        W33081  18.306  28.134  12.417
60657W        W33082  11.057  32.932   4.661
60658W        W33083  34.317  32.915   2.871
60659W        W33084  26.252  39.548  13.436
60660W        W33085  38.076  33.562   4.289
60661W        W33086  30.151  29.548   1.248
60662W        W33087  31.681  19.851   2.263
60663W        W33088  21.401  20.784  13.363
60664W        W33089  40.855  12.581  12.070
60665W        W33090   3.266  38.768  14.903
60666W        W33091  29.484  36.648   1.837
60667W        W33092   3.955  20.994   1.215
60668W        W33093  26.016   9.235  14.011
60669W        W33094  19.616  22.989  13.021
60670W        W33095  24.766  19.226  12.080
60671W        W33096  20.342  11.883   2.991
60672W        W33097  12.891   3.933   4.170
60673W        W33098  15.150   1.837   2.601
60674W        W33099   4.939  41.391  14.750
60675W        W33100  10.733   9.959   4.065
60676W        W33101  38.754  12.675   3.070
60677W        W33102  35.911  40.325   2.896
60678W        W33103   0.557  32.086  11.137
60679W        W33104  27.074  17.891   2.742
60680W        W33105   9.846   0.448   3.211
60681W        W33106   9.403  33.633   9.940
60682W        W33107  27.019   3.010   4.094
60683W        W33108  13.439  15.289  12.418
60684W        W33109   4.225  20.712   3.379
60685W        W33110  43.923   7.983   4.214
60686W        W33111  19.542  22.772  12.134
60687W        W33112  17.048   3.300   1.380
60688W        W33113  11.599  31.363  12.432
60689W        W33114  21.077  14.338  10.219
60690W        W33115   2.733  19.131   0.557
60691W        W33116  41.819   1.226  11.922
60692W        W33117  19.634  28.646   2.081
60693W        W33118  42.054   5.412  14.466
60694W        W33119   7.257  25.489  11.636
60695W        W33120  17.765  32.185   4.135
60696W        W33121  36.167  32.495  13.024
60697W        W33122   0.322   0.919  10.707
60698W        W33123  40.268   7.833  12.361
60699W        W33124  14.451   1.806  12.522
60700W        W33125  29.295   8.040   1.469
60701W        W33126  19.086  30.810  11.186
60702W        W33127   3.694  42.503  10.460
60703W        W33128  26.514  21.685  13.346
60704W        W33129  11.157   2.787   3.091
60705W        W33130  15.549  43.938   1.392
60706W        W33131  36.982   5.305  14.264
60707W        W33132  43.867  21.243   5.174
60708W        W33133   1.374  20.316  11.476
60709W        W33134  44.460   1.830  14.397
60710W        W33135   9.198  13.521   3.415
60711W        W33136  18.911   6.902  11.928
60712W        W33137   2.677  37.473   4.235
60713W        W33138  20.692   6.366  14.767
60714W        W33139  43.015  17.608   2.808
60715W        W33140  25.109  12.766   4.453
60716W        W33141  21.064  43.886   0.763
60717W        W33142  37.312  38.790   3.721
60718W        W33143  32.618  23.736  13.468
60719W        W33144  21.596   2.929   3.024
60720W        W33145   0.740  15.609   4.545
60721W        W33146  23.799   2.899   4.290
60722W        W33147  26.503  13.764   3.201
60723W        W33148  28.669  34.909   4.316
60724W        W33149  20.515  20.239  11.672
60725W        W33150  16.844  31.479  11.483
60726W        W33151  35.026  39.192   5.212
60727W        W33152  27.584  24.329   2.246
60728W        W33153   7.358  26.566   2.327
60729W        W33154  28.500  14.656  10.322
60730W        W33155  38.515  16.707   0.336
60731W        W33156  42.976  35.836   0.850
60732W        W33157   6.903  18.285   3.205
60733W        W33158  15.691  34.638   3.050
60734W        W33159   4.603  17.746  13.076
60735W        W33160  18.295  35.858  10.649
60736W        W33161  24.292  35.498  14.008
60737W        W33162   5.659  31.653   1.782
60738W        W33163   8.299  25.104  12.323
60739W        W33164  27.549  23.484   9.901
60740W        W33165  16.762  16.852  11.555
60741W        W33166   7.279  42.072   0.869
60742W        W33167  28.677  34.077  12.569
60743W        W33168   9.628  37.851   2.845
60744W        W33169   8.312  13.708   3.253
60745W        W33170  29.953  13.231   2.563
60746W        W33171  39.896  33.864   3.146
60747W        W33172  31.329  20.173  10.621
60748W        W33173  20.654   0.807  13.899
60749W        W33174  27.418  30.003  14.044
60750W        W33175  27.623  21.428   2.538
60751W        W33176  14.346  32.088  10.398
60752W        W33177  30.136  14.681   4.632
60753W        W33178  41.035  43.356  10.684
60754W        W33179   0.306   1.841  13.953
60755W        W33180  27.646  28.899   3.347
60756W        W33181  44.298  16.556   1.347
60757W        W33182  37.586  10.796  13.352
60758W        W33183   1.583  18.313  11.177
60759W        W33184  36.055  27.075   2.807
60760W        W33185  24.080  12.469   3.262
60761W        W33186  26.149  10.438  11.442
60762W        W33187  33.396  27.496  11.155
60763W        W33188  22.948  22.554  11.572
60764W        W33189  18.160  29.082  10.669
60765W        W33190  11.916  16.273  10.531
60766W        W33191   1.311   3.943  12.132
60767W        W33192   6.287   7.219  13.480
60768W        W33193  23.771  38.788  10.631
60769W        W33194  37.709   5.361  11.157
60770W        W33195   1.898  28.576  11.711
60771W        W33196  19.239  20.785   2.269
60772W        W33197  42.836  29.189  13.565
60773W        W33198  34.331   2.961  12.531
60774W        W33199  34.363  41.768   4.501
60775W        W33200  38.920  28.307  14.924
60776W        W33201   0.774  29.219   2.696
60777W        W33202  18.557   7.820   3.310
60778W        W33203  25.197  24.493  11.382
60779W        W33204  30.375  22.622   4.639
60780W        W33205  24.623  35.131   0.296
60781W        W33206   7.222  40.053  11.299
60782W        W33207  12.598  37.474   0.281
60783W        W33208  24.035  13.916  12.982
60784W        W33209   5.813   3.714   0.879
60785W        W33210  23.773  25.429   4.073
60786W        W33211   4.764  26.293  10.558
60787W        W33212   1.416  31.954   1.756
60788W        W33213  32.666  26.182  13.584
60789W        W33214  12.088  12.035  14.821
60790W        W33215  17.216  21.747  10.706
60791W        W33216  13.103  39.554  14.770
60792W        W33217  31.233  41.770  13.072
60793W        W33218  29.052   3.680  13.402
60794W        W33219  39.916  12.362  12.433
60795W        W33220  27.998  26.761   1.432
60796W        W33221   5.303   5.790   0.462
60797W        W33222   5.202  43.890   4.064
60798W        W33223  39.850  40.814  10.732
60799W        W33224  12.663  34.511   0.780
60800W        W33225  29.251  39.071  11.443
60801W        W33226  33.480  13.765  14.295
60802W        W33227  21.781  13.735  11.129
60803W        W33228  44.806   7.490   0.000
60804W        W33229  32.618   4.893   1.717
60805W        W33230   8.245  37.489  13.628
60806W        W33231  36.629  25.901  11.243
60807W        W33232  38.338  18.820   4.647
60808W        W33233  16.438  28.941   0.611
60809W        W33234  36.099   7.819  10.617
60810W        W33235  14.845  33.461   0.943
60811W        W33236  34.479  24.238   0.539
60812W        W33237  43.867  25.448   0.802
60813W        W33238  26.062  16.840   4.145
60814W        W33239  38.933  11.674  14.849
60815W        W33240  33.372   0.537  11.999
60816W        W33241  38.285   5.467  13.886
60817W        W33242  36.466  27.008  12.852
60818W        W33243  38.354  23.138   0.255
60819W        W33244  23.075  44.659  14.495
60820W        W33245  11.317  18.235   3.203
60821W        W33246  19.367   1.549  14.467
60822W        W33247  30.672  28.096   3.134
60823W        W33248   5.025  35.998  14.419
60824W        W33249  25.929  44.744   4.168
60825W        W33250  18.826  31.962  12.481
60826W        W33251   9.744  18.621  13.440
60827W        W33252   3.335  18.179   1.316
60828W        W33253   5.194   5.281   0.213
60829W        W33254   2.865   1.048  11.590
60830W        W33255   3.716  13.108   2.461
60831W        W33256  35.109   7.674  10.277
60832W        W33257   0.902   2.957  14.530
60833W        W33258   2.180   1.673  11.922
60834W        W33259  40.107   6.479   3.834
60835W        W33260  18.678  37.241  14.414
60836W        W33261  18.884  13.015   0.477
60837W        W33262  27.642  43.737   0.341
60838W        W33263  19.096  36.604   1.810
60839W        W33264   2.420  19.172  13.829
60840W        W33265   1.974  22.999   2.327
60841W        W33266  12.229  34.591  13.905
60842W        W33267  24.285  36.378  14.954
60843W        W33268  38.466  25.037   2.302
60844W        W33269  43.858  42.914   4.358
60845W        W33270  14.415  29.052   2.811
60846W        W33271   5.157   8.705  11.086
60847W        W33272  13.753   1.926   9.877
60848W        W33273  24.183  11.324  10.913
60849W        W33274  20.168  33.542   4.464
60850W        W33275   2.425  23.947   1.761
60851W        W33276  43.742  13.232  11.915
60852W        W33277  27.745  40.699   1.728
60853W        W33278  37.078  27.043  14.497
60854W        W33279  34.376  30.463  12.519
60855W        W33280  32.026   1.374   3.353
60856W        W33281  28.925   7.887   0.078
60857W        W33282  30.176   9.357   2.170
60858W        W33283   4.631  32.889   3.736
60859W        W33284   6.743   1.195   4.973
60860W        W33285   5.175  28.453  10.146
60861W        W33286  19.794  12.229  12.408
60862W        W33287  30.002   3.795   0.201
60863W        W33288  34.864  33.429  11.072
60864W        W33289  16.054   2.641  12.100
60865W        W33290  14.798  11.768   2.875
60866W        W33291   8.091  19.457  13.992
60867W        W33292   1.452  39.929  12.902
60868W        W33293  11.206  42.494   0.171
60869W        W33294   2.940  37.357   4.678
60870W        W33295  29.527  31.832  14.359
60871W        W33296  14.920  31.328   1.171
60872W        W33297  33.842   2.308   3.517
60873W        W33298  16.527  10.780  13.648
60874W        W33299   8.859   3.972   4.969
60875W        W33300  26.907  28.892  14.904
60876W        W33301   0.966  28.521  13.005
60877W        W33302  43.403  10.749   2.370
60878W        W33303  30.835  10.205   0.464
60879W        W33304  21.973   6.430   0.475
60880W        W33305  14.772  16.689  14.924
60881W        W33306   5.903   2.497  10.689
60882W        W33307  23.700  28.641  11.214
60883W        W33308  16.596  20.800   1.426
60884W        W33309   2.215  39.976  14.045
60885W        W33310  44.872   4.147   3.118
60886W        W33311  39.083  18.703  12.980
60887W        W33312  35.088  27.158   0.735
60888W        W33313  30.407  10.225   2.103
60889W        W33314  16.850  14.248   2.302
60890W        W33315  35.879  22.534  11.361
60891W        W33316   2.980   6.152   3.795
60892W        W33317  11.247  14.334  12.440
60893W        W33318   7.967  18.751   0.958
60894W        W33319  41.321  21.319   2.330
60895W        W33320  19.296  10.743  14.305
60896W        W33321  21.220  26.444   2.116
60897W        W33322  14.166  34.905  13.560
60898W        W33323   5.204  15.934  11.198
60899W        W33324  15.768   3.975  13.351
60900W        W33325  18.818  10.311   2.785
60901W        W33326   8.303  11.696   1.429
60902W        W33327  12.048   3.525  12.434
60903W        W33328  13.261  22.701   3.818
60904W        W33329  29.974  15.696  10.835
60905W        W33330  42.809   0.276  12.067
60906W        W33331  26.857  16.784  10.395
60907W        W33332  18.074  23.932   0.776
60908W        W33333  22.027  31.634   2.766
60909W        W33334  13.215  13.600  14.394
60910W        W33335  35.029  12.780  11.523
60911W        W33336  38.003   9.163   3.067
60912W        W33337  12.053  39.078   2.319
60913W        W33338  37.978  43.879   1.757
60914W        W33339   4.461  32.247   3.206
60915W        W33340  43.986  26.356  13.923
60916W        W33341  36.446  27.871   4.019
60917W        W33342   8.351  11.845   4.201
60918W        W33343   6.776   8.271   4.443
60919W        W33344  43.023  23.684  12.112
60920W        W33345  34.167  36.872  13.045
60921W        W33346  19.115   8.979   3.301
60922W        W33347  35.136  19.216  14.905
60923W        W33348  17.896  17.337   3.567
60924W        W33349   3.754  27.032  11.715
60925W        W33350  42.973  10.171   0.169
60926W        W33351   0.685   7.820   2.127
60927W        W33352  18.491  39.384   4.712
60928W        W33353  34.767  14.539   9.954
60929W        W33354  42.760  32.664   0.699
60930W        W33355   2.266  28.433   0.070
60931W        W33356   8.437  24.640   0.469
60932W        W33357   8.686  37.773  14.491
60933W        W33358  23.679  43.568  14.919
60934W        W33359  30.757   5.941  11.194
60935W        W33360   1.011  18.748  11.181
60936W        W33361   2.454  38.018   2.704
60937W        W33362  38.032   6.966   3.681
60938W        W33363   8.431  18.891   2.781
60939W        W33364  13.797   2.496   2.659
60940W        W33365   9.164  37.938   0.302
60941W        W33366  27.061  30.576  12.447
60942W        W33367  38.458  15.497  11.685
60943W        W33368  18.933  41.656   4.626
60944W        W33369  36.591  16.820   4.313
60945W        W33370   0.431  15.113  11.570
60946W        W33371  38.538  16.123   0.821
60947W        W33372  17.514  21.603   4.534
60948W        W33373   1.001  30.944   1.032
60949W        W33374  13.762  12.856   0.386
60950W        W33375   3.708  31.327   0.863
60951W        W33376  18.503  20.463  14.966
60952W        W33377   5.331  20.141   4.873
60953W        W33378   7.210  37.536   0.262
60954W        W33379  25.623  10.186   0.405
60955W        W33380  28.442  13.496  14.208
60956W        W33381  14.984  40.312  11.596
60957W        W33382  35.225  19.849   0.245
60958W        W33383  11.740  25.197   1.489
60959W        W33384  16.265  10.862   0.325
60960W        W33385   6.817  28.823  10.364
60961W        W33386  20.728  29.412   3.603
60962W        W33387   0.223  25.382   4.148
60963W        W33388  12.137  40.129  12.656
60964W        W33389   8.066  10.672  11.689
60965W        W33390  23.611  29.179  12.120
60966W        W33391   2.483  13.708   2.734
60967W        W33392  28.969  16.115   2.293
60968W        W33393   5.202  40.958  13.339
60969W        W33394  35.446  38.017  12.850
60970W        W33395   0.237  10.288   1.861
60971W        W33396  17.567  20.557   2.363
60972W        W33397   7.643  18.785   3.122
60973W        W33398  40.776   6.802   4.295
60974W        W33399  26.286  38.286  11.554
60975W        W33400   1.390  21.773   3.794
60976W        W33401  42.625  22.695   5.523
60977W        W33402   4.024  39.034   2.277
60978W        W33403  21.125  20.251   2.349
60979W        W33404  26.446  25.032  11.057
60980W        W33405  28.367  19.692   5.037
60981W        W33406  28.150  13.887  11.314
60982W        W33407   6.038  43.947  11.468
60983W        W33408  15.137  10.708  13.929
60984W        W33409   2.509  23.490   0.189
60985W        W33410  21.867   0.887  14.874
60986W        W33411  33.428  42.695  11.078
60987W        W33412  20.317   9.338  13.247
60988W        W33413  31.945  37.546  14.953
60989W        W33414  19.754  35.104  14.434
60990W        W33415   5.371  16.640  12.704
60991W        W33416   7.833  30.542  10.303
60992W        W33417  10.417   3.882   4.770
60993W        W33418  24.419  44.097  12.894
60994W        W33419  20.251  24.502  12.468
60995W        W33420  38.792  28.753   0.136
60996W        W33421  29.160  24.564  11.478
60997W        W33422  28.425   1.003   1.765
60998W        W33423  20.612  19.809  11.423
60999W        W33424  10.898  22.028   2.634
61000W        W33425  12.393  12.406   4.612
61001W        W33426   5.693   8.709  11.121
61002W        W33427  27.993  16.491   1.651
61003W        W33428  15.132   4.489   2.261
61004W        W33429   9.874  44.409  10.714
61005W        W33430   1.973  38.768  11.124
61006W        W33431  14.416  39.964   3.448
61007W        W33432  21.727   0.071   2.541
61008W        W33433  18.037  34.726  10.119
61009W        W33434  10.656  14.345   2.660
61010W        W33435  21.236  15.015  14.790
61011W        W33436   1.458  21.288  14.269
61012W        W33437  38.177  43.222   3.644
61013W        W33438  27.470  39.561   9.994
61014W        W33439  32.613  15.738  11.488
61015W        W33440  35.777  32.893   0.847
61016W        W33441  38.609  11.463   0.386
61017W        W33442  19.508  28.030   0.944
61018W        W33443  16.739  18.753  14.031
61019W        W33444  32.910   6.754   0.760
61020W        W33445  21.510  38.113  14.575
61021W        W33446  10.312  44.260   1.877
61022W        W33447  38.352  25.616  12.104
61023W        W33448  30.632  17.227   3.567
61024W        W33449   0.487  34.797  10.008
61025W        W33450  32.159   4.522  10.932
61026W        W33451   6.333   3.710   4.845
61027W        W33452  31.118   1.658  11.117
61028W        W33453  39.417   7.174   4.217
61029W        W33454  27.367  43.297   4.163
61030W        W33455  29.688  27.650   2.368
61031W        W33456  33.047  20.644  12.465
61032W        W33457  29.970   7.839  14.771
61033W        W33458  43.758  33.174  11.457
61034W        W33459  28.712  40.551   5.141
61035W        W33460  32.405  20.142   4.799
61036W        W33461  43.848  33.980   0.367
61037W        W33462  37.493  38.871   1.149
61038W        W33463  41.542  21.202   1.777
61039W        W33464  42.688  44.687  11.514
61040W        W33465  26.570  44.298   2.867
61041W        W33466  43.539  44.678  13.735
61042W        W33467  35.553  18.679  14.220
61043W        W33468  23.406  21.958   1.897
61044W        W33469  23.224  42.381   3.160
61045W        W33470  29.156  11.797   0.754
61046W        W33471  42.130  22.692  10.072
61047W        W33472   4.764  22.445   4.808
61048W        W33473  12.847   4.607  11.278
61049W        W33474  40.593  37.394   0.769
61050W        W33475  10.735  19.603  10.841
61051W        W33476  24.010  18.775  13.550
61052W        W33477  39.380   5.170  14.665
61053W        W33478  21.093  31.625   3.621
61054W        W33479  21.573  14.751   4.653
61055W        W33480   3.124   6.227   2.722
61056W        W33481  35.654  27.069   3.838
61057W        W33482  30.042  16.205   3.184
61058W        W33483  12.231  29.405   0.588
61059W        W33484   4.876  43.027   4.354
61060W        W33485   1.740  37.754   2.594
61061W        W33486  12.320   4.416  12.884
61062W        W33487  13.052  13.594   4.906
61063W        W33488  26.614  18.677  11.058
61064W        W33489   8.095  40.924   1.003
61065W        W33490  15.587  25.705  11.533
61066W        W33491  43.970  35.519   2.238
61067W        W33492  30.209  33.879  13.891
61068W        W33493  13.407  38.817   0.256
61069W        W33494   9.813   1.224   3.742
61070W        W33495  44.300  16.158   4.155
61071W        W33496  36.939  18.793   1.490
61072W        W33497  20.853   7.995  11.852
61073W        W33498  34.820  37.848   3.643
61074W        W33499  27.982  32.464  13.444
61075W        W33500   2.892  25.548  11.104
61076W        W33501  17.167   5.730  10.213
61077W        W33502  27.654  37.758  11.988
61078W        W33503  15.738  35.465   0.953
61079W        W33504  13.692  25.026   3.409
61080W        W33505  36.653  36.846  14.696
61081W        W33506  16.232  28.628  11.863
61082W        W33507  38.553   7.271  11.801
61083W        W33508   0.062  27.063  11.161
61084W        W33509  17.723  20.718  13.825
61085W        W33510  27.135  42.606  10.653
61086W        W33511  19.544  35.127   3.682
61087W        W33512  26.199  18.284   3.596
61088W        W33513  42.430  38.745   4.637
61089W        W33514  15.773  12.737   1.713
61090W        W33515  43.797  38.893   4.754
61091W        W33516  23.990  38.148  12.512
61092W        W33517  37.042   3.584  13.540
61093W        W33518  39.278  41.075  13.857
61094W        W33519  27.127  34.088  13.341
61095W        W33520  15.787  12.816  11.162
61096W        W33521  42.051   5.319  10.499
61097W        W33522  19.174   9.329  10.658
61098W        W33523  38.016  10.762  14.305
61099W        W33524  12.060  30.410  13.011
61100W        W33525  39.752   1.918   3.200
61101W        W33526  16.944  15.417  10.348
61102W        W33527   1.229  12.325   4.634
61103W        W33528  42.915  14.185  13.028
61104W        W33529  21.711   9.947   2.336
61105W        W33530   1.439  33.022  11.042
61106W        W33531  12.682  37.650   3.630
61107W        W33532  42.769  17.768   3.229
61108W        W33533  18.853   7.783  13.879
61109W        W33534  17.096  28.954   2.006
61110W        W33535  29.423   5.412   0.482
61111W        W33536  13.860  30.264   2.957
61112W        W33537   5.842  19.138  14.410
61113W        W33538   5.918   0.188  11.051
61114W        W33539  11.826  38.858  12.433
61115W        W33540   3.692  37.999   0.405
61116W        W33541  44.581  37.064   1.310
61117W        W33542  29.581  23.783  10.232
61118W        W33543  10.907  15.100   0.772
61119W        W33544   3.781  42.872  13.040
61120W        W33545  35.344  28.574   4.816
61121W        W33546  18.055  21.533   2.779
61122W        W33547   8.609  35.088   1.665
61123W        W33548  33.016  27.641  12.647
61124W        W33549  16.968   7.459   0.886
61125W        W33550  39.593  38.961   4.124
61126W        W33551  43.411  40.308  13.637
61127W        W33552  21.156   1.622   2.330
61128W        W33553  37.075  34.647   1.484
61129W        W33554  36.668   9.307   2.995
61130W        W33555  17.890   4.125   0.273
61131W        W33556  22.721  44.072   1.483
61132W        W33557  29.171   8.321  12.399
61133W        W33558  44.933  30.129   0.871
61134W        W33559  34.853   2.015   1.002
61135W        W33560  12.368  14.517   3.762
61136W        W33561  24.116  13.786  12.108
61137W        W33562  14.526  42.510   4.113
61138W        W33563  34.528  36.537  12.018
61139W        W33564  20.939   3.067  11.101
61140W        W33565   7.903   7.858  13.964
61141W        W33566  39.575   8.303   1.006
61142W        W33567  10.852  14.220   4.771
61143W        W33568  23.773   4.833  13.936
61144W        W33569  35.584  33.485   3.671
61145W        W33570  20.127  24.738   2.437
61146W        W33571   2.969  34.825   3.852
61147W        W33572   4.966  16.336  11.436
61148W        W33573   7.379  28.685   4.591
61149W        W33574  13.873  32.155  13.368
61150W        W33575  27.110  35.041   4.750
61151W        W33576  26.621  24.476   1.763
61152W        W33577  26.471  41.938   4.099
61153W        W33578   9.766  35.967  13.831
61154W        W33579  39.826  44.582  13.480
61155W        W33580  32.540  10.912  11.902
61156W        W33581  39.541  18.226  14.139
61157W        W33582  25.927   3.114  10.547
61158W        W33583   2.246  12.671   4.642
61159W        W33584   1.436  38.801   2.275
61160W        W33585   4.410   7.465  10.685
61161W        W33586   8.145  21.262   1.262
61162W        W33587  40.426  33.381   1.878
61163W        W33588   9.381   7.834   1.790
61164W        W33589  38.341  20.542  14.367
61165W        W33590  31.428  22.535   0.616
61166W        W33591  19.543  22.149  10.892
61167W        W33592   2.118  15.121  11.936
61168W        W33593  22.525  20.015   2.756
61169W        W33594  27.084  43.414   3.728
61170W        W33595  23.593  13.390  14.694
61171W        W33596  14.814  18.562   4.202
61172W        W33597  30.598   5.872   3.086
61173W        W33598  26.546  31.083  12.673
61174W        W33599   4.117   3.456   3.711
61175W        W33600  28.255  39.575   4.427
61176W        W33601  35.411  13.352  10.744
61177W        W33602  15.254  31.564   2.940
61178W        W33603   1.805   2.286   0.672
61179W        W33604  21.109  39.024  13.719
61180W        W33605   8.200  25.048   4.610
61181W        W33606  38.825  40.206   2.020
61182W        W33607  30.427  11.369  13.244
61183W        W33608  10.118  17.671  11.544
61184W        W33609  11.084  16.774  10.789
61185W        W33610  24.706  37.789  12.046
61186W        W33611   9.867  22.972   2.263
61187W        W33612  15.148  28.515  12.001
61188W        W33613   5.803  16.026  13.955
61189W        W33614  10.420  20.605   4.098
61190W        W33615  34.449  12.654  10.694
61191W        W33616  16.732  28.546   3.363
61192W        W33617  23.374  19.593  12.075
61193W        W33618  28.729  30.414  14.924
61194W        W33619  34.481  43.747   2.836
61195W        W33620  25.113   6.442   3.409
61196W        W33621  44.008  32.067   1.261
61197W        W33622  35.539  30.557   3.961
61198W        W33623  31.971  33.604   2.421
61199W        W33624  27.619  22.962  10.269
61200W        W33625   0.705  31.524   9.552
61201W        W33626  30.775  39.843  10.661
61202W        W33627  32.197  18.670   0.904
61203W        W33628  26.975  33.139   2.891
61204W        W33629  37.893  11.785  11.094
61205W        W33630  40.595   2.869  12.881
61206W        W33631  31.005  27.114  12.679
61207W        W33632  22.996  21.335   2.863
61208W        W33633  41.018   0.555  13.315
61209W        W33634  31.577  31.468  10.593
61210W        W33635  18.677   4.133  12.522
61211W        W33636  18.097  13.581  14.872
61212W        W33637  39.582  26.407   1.842
61213W        W33638   4.710   9.893  13.998
61214W        W33639  20.100  42.524   3.230
61215W        W33640  35.180  10.367   0.347
61216W        W33641   2.189  32.540  13.359
61217W        W33642   4.675   8.682   3.672
61218W        W33643   1.709   7.688   1.296
61219W        W33644   2.795   8.267  11.942
61220W        W33645  12.549   3.777  14.046
61221W        W33646   5.242   2.757  13.488
61222W        W33647  34.001  15.262  11.372
61223W        W33648  21.604   1.515  13.547
61224W        W33649  26.202  17.868  12.094
61225W        W33650  41.065  34.635  11.651
61226W        W33651  39.370  39.071  12.867
61227W        W33652  17.590  14.176  10.757
61228W        W33653  27.622  12.330   3.381
61229W        W33654  18.197  25.912  13.595
61230W        W33655  13.671  44.970   4.693
61231W        W33656  25.837  25.616   2.112
61232W        W33657  31.651  20.276  12.477
61233W        W33658  42.624  14.250   2.183
61234W        W33659   9.340   1.935  12.916
61235W        W33660  15.311  27.530  11.213
61236W        W33661  18.087  26.921  13.129
61237W        W33662   0.265   6.714   3.782
61238W        W33663  37.381  38.391   0.913
61239W        W33664  36.651   6.274   1.737
61240W        W33665  20.165  40.206   1.729
61241W        W33666  31.192   4.695  11.052
61242W        W33667  20.104   5.391   4.363
61243W        W33668  20.465  31.879   0.828
61244W        W33669  44.871  17.021  12.812
61245W        W33670  42.850  29.263   0.797
61246W        W33671  41.027  30.216   2.323
61247W        W33672  42.480   9.624  12.126
61248W        W33673  10.983  28.736   0.181
61249W        W33674  30.227  19.951   0.419
61250W        W33675  24.538  14.074   0.444
61251W        W33676  31.212  29.050  13.403
61252W        W33677   8.820  19.585  11.512
61253W        W33678  23.912  25.652   1.894
61254W        W33679   9.611  21.425   3.804
61255W        W33680  37.892  19.635   2.823
61256W        W33681  30.456  19.386  11.055
61257W        W33682  21.708  10.560   1.758
61258W        W33683  44.269  30.173  10.169
61259W        W33684   1.270  23.106  10.696
61260W        W33685  43.412  18.098   3.159
61261W        W33686  41.580  30.663  12.482
61262W        W33687  44.745  36.192   4.786
61263W        W33688  27.243  40.548   1.517
61264W        W33689  42.052  40.352   1.323
61265W        W33690   0.410  12.776   3.443
61266W        W33691  10.323  20.778  13.775
61267W        W33692  30.893  42.583  13.874
61268W        W33693  44.831   4.810   1.505
61269W        W33694  24.010   7.139  12.649
61270W        W33695  29.432  35.665   2.844
61271W        W33696  10.670  35.578  13.154
61272W        W33697  12.315  30.018  14.406
61273W        W33698  40.341  34.886   4.486
61274W        W33699  25.164  39.373  10.904
61275W        W33700  31.355  23.484  13.598
61276W        W33701  41.576   3.933  10.620
61277W        W33702   5.086  14.312  12.073
61278W        W33703  21.451  17.668   3.931
61279W        W33704  24.555   9.211   4.052
61280W        W33705  32.216  38.976   1.893
61281W        W33706   7.793  29.590   3.787
61282W        W33707  19.508   5.427   3.611
61283W        W33708  35.715  10.426  14.025
61284W        W33709  42.166  42.829  11.085
61285W        W33710  10.582   3.289  14.368
61286W        W33711  22.783  33.714   0.986
61287W        W33712  12.057  17.641  13.663
61288W        W33713  37.086  25.262  10.775
61289W        W33714   7.195  35.371  11.113
61290W        W33715   6.545   5.294   4.562
61291W        W33716  21.008  15.170   2.787
61292W        W33717   2.806  23.882  11.158
61293W        W33718   0.773  34.368  12.533
61294W        W33719   2.071   9.431   2.524
61295W        W33720  25.478  21.769   4.097
61296W        W33721   8.335  24.193   0.824
61297W        W33722  17.056  12.795   1.383
61298W        W33723  39.893   4.996   2.389
61299W        W33724   0.817  39.928   0.842
61300W        W33725   2.844  22.876   4.765
61301W        W33726  21.511  31.091   3.174
61302W        W33727  25.217  38.809   0.056
61303W        W33728  39.204  28.413  10.273
61304W        W33729   1.715  36.321  13.008
61305W        W33730  37.160  25.145   1.794
61306W        W33731  28.726  36.375   0.160
61307W        W33732  20.827  10.901   0.327
61308W        W33733  10.827   4.173   4.269
61309W        W33734   7.354   4.847  12.183
61310W        W33735  15.819   0.200   2.389
61311W        W33736   2.993   6.298  12.381
61312W        W33737  38.604  11.993  13.540
61313W        W33738  12.321   8.847   1.762
61314W        W33739  18.329  44.874   1.861
61315W        W33740  14.127   4.332  13.405
61316W        W33741  21.983  12.215   4.314
61317W        W33742   6.375  28.989   3.347
61318W        W33743  19.283  19.331   1.074
61319W        W33744  25.942   0.590   5.074
61320W        W33745  22.236  44.595  11.103
61321W        W33746  20.528  30.479   3.825
61322W        W33747  19.196  44.374  13.058
61323W        W33748   3.432  42.869   5.226
61324W        W33749  43.712   2.515   3.787
61325W        W33750   3.634  12.706   4.576
61326W        W33751  10.746  29.424  12.025
61327W        W33752   5.109   6.198   1.856
61328W        W33753  31.707   9.661  12.433
61329W        W33754  44.934  30.161  13.425
61330W        W33755   2.376  41.632   5.049
61331W        W33756   2.450  25.531  12.977
61332W        W33757  42.026  30.502   3.286
61333W        W33758  12.666  42.259  13.626
61334W        W33759  44.027   6.822   2.701
61335W        W33760  43.869   3.908   0.498
61336W        W33761   1.554  25.029  14.921
61337W        W33762  39.215   5.407   3.632
61338W        W33763  16.271  39.036   1.947
61339W        W33764  12.559   6.786  14.400
61340W        W33765   4.412  40.116   1.880
61341W        W33766  11.204  14.295   1.941
61342W        W33767  17.042   2.406  13.551
61343W        W33768   6.738  31.982   1.635
61344W        W33769  33.589  22.488   4.143
61345W        W33770   2.146  24.460  12.817
61346W        W33771   8.583  19.138   1.755
61347W        W33772  25.419   8.643  11.741
61348W        W33773  26.535  27.111   5.124
61349W        W33774  41.409  37.605   0.497
61350W        W33775  33.911  44.831   3.260
61351W        W33776  36.562  10.254  13.772
61352W        W33777  29.849  12.083   2.311
61353W        W33778  24.627  35.584  11.563
61354W        W33779  34.160  25.492   4.768
61355W        W33780  18.587  21.525  10.443
61356W        W33781  29.271  30.143   2.306
61357W        W33782   9.347  15.332   4.579
61358W        W33783   5.775  20.211  14.907
61359W        W33784  25.448  38.184  11.212
61360W        W33785  15.043  42.454   4.133
61361W        W33786  30.510   9.273  12.335
61362W        W33787  11.705  21.477  14.348
61363W        W33788  31.295  20.671  12.545
61364W        W33789  25.985  32.448   5.448
61365W        W33790  25.477  35.030  12.648
61366W        W33791  36.324  34.687   2.736
61367W        W33792  21.223  37.015   0.569
61368W        W33793  26.182  17.541  13.286
61369W        W33794  11.572  28.152  11.122
61370W        W33795  12.378  35.413  14.972
61371W        W33796  35.300  32.982  11.552
61372W        W33797  13.615  13.534  11.296
61373W        W33798  22.401  41.231   0.469
61374W        W33799  21.944  24.971  14.268
61375W        W33800  16.166  30.026   4.587
61376W        W33801  15.312  17.289  13.821
61377W        W33802  15.672  20.386   2.694
61378W        W33803   3.079  41.477   2.314
61379W        W33804   1.875   6.515  11.142
61380W        W33805  23.094   2.764  10.690
61381W        W33806  43.248  32.193  12.695
61382W        W33807  19.339  42.073  10.737
61383W        W33808   0.333  11.712  10.702
61384W        W33809  37.198  13.242  13.269
61385W        W33810   2.026   3.284   3.615
61386W        W33811   5.857  42.627  12.190
61387W        W33812  25.636  19.187  12.107
61388W        W33813  27.534  44.356   0.053
61389W        W33814  39.408   6.425  11.563
61390W        W33815  36.882  12.171   0.317
61391W        W33816  23.021  25.678  14.412
61392W        W33817  29.523  12.937  14.907
61393W        W33818  21.586   6.225   0.194
61394W        W33819  18.649  33.596  11.439
61395W        W33820  20.066   3.753   2.406
61396W        W33821  34.356  42.355  11.180
61397W        W33822  36.526  10.624  14.453
61398W        W33823   6.359  16.288  11.564
61399W        W33824   0.635   8.938  10.765
61400W        W33825  22.793  27.702  13.432
61401W        W33826  44.925  41.744   1.780
61402W        W33827   9.647  30.521   3.644
61403W        W33828  20.748  18.912  10.749
61404W        W33829   9.250  28.955  14.837
61405W        W33830   6.162  32.162  13.954
61406W        W33831  38.556  25.265  13.965
61407W        W33832  24.943  31.069   0.480
61408W        W33833  40.409  14.354   4.190
61409W        W33834  17.958   6.313  12.208
61410W        W33835  25.547  16.075  13.983
61411W        W33836  13.563  33.075   4.809
61412W        W33837  10.143  22.046   3.143
61413W        W33838  41.854  41.011  12.056
61414W        W33839  14.705  14.907   0.312
61415W        W33840  22.990  34.200   1.218
61416W        W33841  38.598   4.662   1.722
61417W        W33842  41.453   7.626  11.123
61418W        W33843  33.198  21.026   3.223
61419W        W33844  20.983  36.038  13.763
61420W        W33845  23.525  26.491   1.818
61421W        W33846  23.459   4.085   3.832
61422W        W33847  20.560  17.904  11.026
61423W        W33848  13.095  11.380  10.966
61424W        W33849  33.472  38.591  11.683
61425W        W33850   8.151  24.548   3.735
61426W        W33851   8.759  38.626  13.893
61427W        W33852  35.441  30.577  13.276
61428W        W33853  15.640  26.543  12.564
61429W        W33854  15.293  32.402   3.669
61430W        W33855  24.192  18.119  14.419
61431W        W33856   9.159   8.346   0.068
61432W        W33857  23.525  25.177   1.207
61433W        W33858  36.190  11.863   3.699
61434W        W33859   8.382  37.948   1.265
61435W        W33860  43.165  25.388   3.792
61436W        W33861  17.312   2.595   3.712
61437W        W33862  37.481  28.212   1.142
61438W        W33863  10.769   0.937   4.534
61439W        W33864   0.275  34.859  13.311
61440W        W33865   7.162   2.074  10.642
61441W        W33866  22.111  17.482  13.299
61442W        W33867   5.704  36.460   4.052
61443W        W33868  11.150  25.420   2.878
61444W        W33869  34.864  37.293   1.409
61445W        W33870  27.434   5.789   0.989
61446W        W33871  23.880   2.799   1.647
61447W        W33872  26.187  30.170  10.619
61448W        W33873   2.809  27.530  13.947
61449W        W33874  13.304  13.779   0.298
61450W        W33875  36.022  21.607   0.832
61451W        W33876   5.724   0.806  12.456
61452W        W33877  37.266  17.793  14.273
61453W        W33878   4.951  19.240  14.087
61454W        W33879  37.416   7.204   0.866
61455W        W33880   4.792  40.783  10.709
61456W        W33881   5.660   2.299  12.026
61457W        W33882   4.270  23.679   0.214
61458W        W33883  23.080  16.704  14.230
61459W        W33884  26.692  27.956  13.537
61460W        W33885  12.279  10.070  12.392
61461W        W33886  36.501  14.753  14.371
61462W        W33887  10.318  18.168  10.539
61463W        W33888   8.270  33.523  13.500
61464W        W33889  23.290  19.102  11.045
61465W        W33890  17.873  23.000  13.443
61466W        W33891   5.970  23.794  14.299
61467W        W33892  26.541  39.976   2.513
61468W        W33893  42.877  32.541   0.178
61469W        W33894  25.124  22.241   0.762
61470W        W33895  16.147  15.534   1.874
61471W        W33896   6.478  14.393   0.496
61472W        W33897  23.282  18.643   0.845
61473W        W33898  25.914  23.127  14.843
61474W        W33899  12.483   0.252   0.061
61475W        W33900  40.552  39.115   1.862
61476W        W33901   0.242  19.783   3.147
61477W        W33902  29.430   7.420   0.509
61478W        W33903   8.097  30.884   0.447
61479W        W33904  22.656  38.364  11.978
61480W        W33905  25.778  32.218  10.238
61481W        W33906  19.753   3.360   3.269
61482W        W33907  37.849  17.788   3.193
61483W        W33908  42.615  42.446   0.996
61484W        W33909   7.422  20.557  13.425
61485W        W33910  39.449  28.129   4.135
61486W        W33911  36.574  30.969   1.704
61487W        W33912   3.381  19.231  12.026
61488W        W33913   6.620  16.522  11.966
61489W        W33914  36.018  14.967   1.200
61490W        W33915  35.339  12.555   4.702
61491W        W33916   9.870  13.764  12.412
61492W        W33917  23.624  19.471  10.716
61493W        W33918  33.308  37.370  12.594
61494W        W33919   1.453  19.329  14.728
61495W        W33920  21.838  34.128  11.684
61496W        W33921  11.826  41.786   4.106
61497W        W33922  35.968  16.558   3.094
61498W        W33923   5.892  36.393   1.662
61499W        W33924   6.725  27.925   3.283
61500W        W33925  29.290   8.870   4.982
61501W        W33926  33.807  42.842   2.780
61502W        W33927  10.727  10.933   4.301
61503W        W33928  28.744   0.842   0.477
61504W        W33929  11.505  20.133   2.840
61505W        W33930  37.071  38.063   1.293
61506W        W33931  27.626  43.818  11.660
61507W        W33932   9.178  29.480  13.853
61508W        W33933  12.029  24.982   1.862
61509W        W33934   1.498  38.423   4.188
61510W        W33935  42.586  40.798   3.731
61511W        W33936  30.946  28.559   3.094
61512W        W33937  12.058  26.004  12.501
61513W        W33938  15.429  11.201   3.673
61514W        W33939  27.666  13.594  11.261
61515W        W33940  42.249  27.315  11.814
61516W        W33941  32.891   9.215  13.375
61517W        W33942  24.077  16.277   2.217
61518W        W33943  26.939   6.914  13.513
61519W        W33944  33.344  15.068  13.815
61520W        W33945  30.240   8.103  12.647
61521W        W33946  18.181  22.607  14.905
61522W        W33947  22.718  14.711   0.062
61523W        W33948  22.956  34.597  14.997
61524W        W33949  36.872  28.579   4.585
61525W        W33950   3.811  32.406   0.029
61526W        W33951  18.512   2.448  11.064
61527W        W33952  38.247  27.895  11.995
61528W        W33953   8.293  25.932   3.585
61529W        W33954  32.118  40.791   3.290
61530W        W33955   9.462   6.192   3.611
61531W        W33956  14.773   9.059   0.790
61532W        W33957  17.286  14.149  13.082
61533W        W33958  40.821  37.105  12.192
61534W        W33959   3.903  32.914  14.893
61535W        W33960  42.770   6.918  11.702
61536W        W33961   6.293  13.874  13.344
61537W        W33962  13.842   4.749  14.917
61538W        W33963  15.685   1.877  10.608
61539W        W33964  19.417   2.375  11.909
61540W        W33965   0.959  19.108   4.595
61541W        W33966   3.967  22.310  13.043
61542W        W33967   2.812  42.547  10.920
61543W        W33968  16.614  10.207   3.325
61544W        W33969  37.806   6.203  11.964
61545W        W33970  10.753  21.018   0.769
61546W        W33971  10.269  43.769   0.983
61547W        W33972  32.744  28.878   1.859
61548W        W33973   6.536  29.430   0.467
61549W        W33974  16.567  41.857   3.331
61550W        W33975  24.980  44.028   1.447
61551W        W33976  19.830  10.483   3.812
61552W        W33977  35.564  19.500   1.567
61553W        W33978   8.323  15.995  14.520
61554W        W33979  32.074  22.758  10.684
61555W        W33980  16.321  16.041  14.384
61556W        W33981  16.671   2.558  11.647
61557W        W33982  23.963  15.031   1.924
61558W        W33983   7.472  37.425  12.888
61559W        W33984   7.281  22.114   0.531
61560W        W33985   6.699  17.742  12.490
61561W        W33986  22.314  15.517   4.984
61562W        W33987  41.226  15.044   3.739
61563W        W33988  24.931  14.061   4.565
61564W        W33989   7.433  28.232  12.350
61565W        W33990   4.291  12.522  12.887
61566W        W33991   7.668   3.717   2.926
61567W        W33992   2.550  18.401  10.338
61568W        W33993   1.886   2.346   1.208
61569W        W33994  14.852  20.703  14.994
61570W        W33995  13.769  29.088  14.903
61571W        W33996  38.507  20.598   4.615
61572W        W33997  21.687   4.484   1.184
61573W        W33998  33.135  15.817  11.570
61574W        W33999  21.178  34.346  11.066
61575W        W34000  41.964  34.354   3.386
61576W        W34001  31.105   4.331  14.844
61577W        W34002  23.008   4.673   1.425
61578W        W34003   5.716  22.768   4.635
61579W        W34004   5.024  36.123   4.325
61580W        W34005  36.526  36.053   2.433
61581W        W34006  43.497  15.100  11.111
61582W        W34007   8.764  40.748  10.780
61583W        W34008  30.138  37.577   1.891
61584W        W34009  40.344  26.644   2.866
61585W        W34010   6.411  15.550  14.479
61586W        W34011  28.156   3.465  13.448
61587W        W34012  32.052  44.364   0.273
61588W        W34013  19.817  39.038   5.108
61589W        W34014  29.437  13.359   2.557
61590W        W34015  23.266  36.755  12.982
61591W        W34016  11.749  14.165  12.577
61592W        W34017  17.257   0.224  12.444
61593W        W34018   8.881  33.060  14.348
61594W        W34019  30.362  17.958   4.477
61595W        W34020  26.415  25.021   3.205
61596W        W34021  17.361   0.452   0.342
61597W        W34022  26.907  38.756  13.653
61598W        W34023  23.037  36.528   1.160
61599W        W34024   4.555  31.254   3.402
61600W        W34025   8.357  28.124  14.381
61601W        W34026  23.013  12.204   2.315
61602W        W34027  29.906   5.339   3.283
61603W        W34028  15.611  35.616   3.262
61604W        W34029  40.340   2.853   3.274
61605W        W34030  37.614   8.892  12.344
61606W        W34031  35.079   3.876  13.091
61607W        W34032  19.654  14.531  13.752
61608W        W34033  35.253  32.288   4.799
61609W        W34034  15.526  20.349  11.397
61610W        W34035  28.213  36.529   4.944
61611W        W34036  14.615  41.093   2.127
61612W        W34037  32.090  12.327  14.823
61613W        W34038  30.616  44.952   0.530
61614W        W34039  43.412   5.570   0.416
61615W        W34040  11.124  28.237   2.306
61616W        W34041  15.176  33.066  10.708
61617W        W34042  41.012  15.621   1.154
61618W        W34043  23.249  31.757  13.773
61619W        W34044  10.732  30.861  14.040
61620W        W34045   3.296  24.579   1.765
61621W        W34046  34.617   5.742   4.717
61622W        W34047   6.001  13.360   4.176
61623W        W34048  22.263  15.775  12.957
61624W        W34049  35.498  30.706   3.484
61625W        W34050  29.662  30.053  14.769
61626W        W34051  27.486  24.665   1.218
61627W        W34052  21.486  30.683   3.643
61628W        W34053  42.085  38.921   0.206
61629W        W34054   0.179   9.467  12.454
61630W        W34055  15.378  24.769  13.096
61631W        W34056  26.534  40.480   2.753
61632W        W34057  32.859   9.331   1.699
61633W        W34058  10.642  36.080  13.959
61634W        W34059  13.185  29.166   0.217
61635W        W34060  28.774  31.957  14.746
61636W        W34061  13.028  13.203   3.134
61637W        W34062  19.589  15.617  10.901
61638W        W34063  18.292   7.790  14.867
61639W        W34064  22.997  36.035   4.553
61640W        W34065   0.024  34.472  13.014
61641W        W34066  44.610  40.609   0.419
61642W        W34067  24.167  19.241   0.158
61643W        W34068  25.699   6.228   1.429
61644W        W34069  22.289  17.118  10.167
61645W        W34070   8.349  12.670  12.569
61646W        W34071  12.276   1.278  10.224
61647W        W34072  37.366  12.202   4.634
61648W        W34073  33.475  20.186   2.100
61649W        W34074  21.061  40.363  11.098
61650W        W34075  31.356  30.542   2.813
61651W        W34076  15.990  36.808   1.321
61652W        W34077   3.972  15.222   1.446
61653W        W34078  23.493   4.770   2.421
61654W        W34079   1.597  13.617  11.319
61655W        W34080  27.205  37.426  11.382
61656W        W34081   6.643   6.259   0.866
61657W        W34082  23.602   6.139   0.738
61658W        W34083  18.703  27.455   0.574
61659W        W34084  44.376  10.436   2.269
61660W        W34085  43.439  35.627  13.932
61661W        W34086  23.759  35.852   3.571
61662W        W34087  21.467  19.494  13.853
61663W        W34088  18.167   4.676   2.636
61664W        W34089   1.327   9.912  14.954
61665W        W34090   0.765  40.474  13.246
61666W        W34091  34.110   3.931  11.635
61667W        W34092  39.775  43.959  10.522
61668W        W34093  30.644  30.542  14.789
61669W        W34094  37.406   8.063   4.807
61670W        W34095  11.337  37.838   0.050
61671W        W34096  11.323  32.450   0.928
61672W        W34097  27.442  28.573  11.435
61673W        W34098  14.831   1.428  12.945
61674W        W34099  37.978  23.754   1.860
61675W        W34100  12.890   4.302   0.704
61676W        W34101  19.329   6.414   3.778
61677W        W34102   0.746  39.274   2.450
61678W        W34103   8.354  19.096   2.282
61679W        W34104   6.136  16.773   1.571
61680W        W34105  17.983  10.283   3.429
61681W        W34106  42.493   2.256  14.442
61682W        W34107  39.449  15.548  12.049
61683W        W34108  34.403  16.714   4.725
61684W        W34109   1.370  38.464   3.682
61685W        W34110  28.034  20.159  13.564
61686W        W34111  11.644  11.090  13.509
61687W        W34112  29.902  21.709   3.277
61688W        W34113  21.276  37.335   3.332
61689W        W34114   4.347  10.427   4.446
61690W        W34115   3.940  30.908   0.703
61691W        W34116  38.455   3.377  10.379
61692W        W34117  10.289  38.987   4.563
61693W        W34118   5.415   3.694   3.930
61694W        W34119  17.810   7.823   4.584
61695W        W34120   4.657  24.921  14.450
61696W        W34121  34.017  26.601  10.016
61697W        W34122   7.615  18.994   1.885
61698W        W34123  27.586  11.518  12.043
61699W        W34124   4.481  31.589   3.812
61700W        W34125  36.570   8.952   5.233
61701W        W34126  26.649  21.561  13.836
61702W        W34127  34.542  22.522   4.124
61703W        W34128  16.152  34.760   1.242
61704W        W34129  38.302  37.342  13.099
61705W        W34130  13.095   5.657   1.663
61706W        W34131   8.264   2.165   2.215
61707W        W34132  35.319   5.976  13.676
61708W        W34133  35.077  18.327  10.353
61709W        W34134  36.974   8.855   3.730
61710W        W34135  17.790  29.137   0.737
61711W        W34136  14.295  35.536   1.346
61712W        W34137   4.130  19.147  14.335
61713W        W34138  36.314  44.398   2.266
61714W        W34139  43.065   0.979  13.370
61715W        W34140  21.171  12.689  14.481
61716W        W34141  27.458  37.997   0.966
61717W        W34142   3.898  43.960  14.480
61718W        W34143   2.450   3.717   2.825
61719W        W34144  36.531  35.936   0.207
61720W        W34145  17.257   4.978  11.871
61721W        W34146  44.154  16.329  14.369
61722W        W34147   9.664  28.136  13.084
61723W        W34148  36.042  12.699   0.043
61724W        W34149  24.556  23.519  11.374
61725W        W34150  39.263  24.901  13.027
61726W        W34151   9.797  38.278   1.335
61727W        W34152  33.339  25.168   4.612
61728W        W34153  23.477  41.196   0.752
61729W        W34154  22.970  17.106  14.568
61730W        W34155  32.316  29.538   3.115
61731W        W34156  17.085  12.271   1.237
61732W        W34157  37.510   4.403  14.111
61733W        W34158  42.411  20.364   2.784
61734W        W34159   4.280  36.860  12.950
61735W        W34160  11.557   8.826   0.499
61736W        W34161  11.628  35.140   1.367
61737W        W34162  20.320  26.588  12.587
61738W        W34163  15.196   5.138  10.581
61739W        W34164  44.521  13.912  14.015
61740W        W34165   1.227  32.958   0.748
61741W        W34166  43.016  10.926  13.017
61742W        W34167   4.536   9.426  13.837
61743W        W34168  33.584  13.314   3.118
61744W        W34169  27.063  35.862   4.066
61745W        W34170  35.187  40.484   2.410
61746W        W34171  10.849  20.638  12.421
61747W        W34172  30.532  11.541   1.915
61748W        W34173  39.165  25.628   0.401
61749W        W34174  37.535  39.290   1.780
61750W        W34175  31.500  22.610  14.316
61751W        W34176  29.510  37.892  13.993
61752W        W34177  36.193  11.708  12.071
61753W        W34178  13.115  20.283  10.443
61754W        W34179  13.212  16.824  13.116
61755W        W34180  10.273  17.134  14.159
61756W        W34181  17.711  23.897  10.775
61757W        W34182   9.422   7.046   0.742
61758W        W34183   0.272  43.471  12.083
61759W        W34184  29.863  15.892  13.896
61760W        W34185  38.253  25.199  12.965
61761W        W34186  40.524  24.287   0.931
61762W        W34187  14.238  34.666   1.692
61763W        W34188  21.443  23.012  12.161
61764W        W34189  18.086  42.527   2.330
61765W        W34190  27.888  17.013  11.626
61766W        W34191  19.734  21.506   3.169
61767W        W34192  29.094  16.351  14.514
61768W        W34193  13.328  38.951   1.160
61769W        W34194   8.324  40.543   2.694
61770W        W34195  43.301   3.254   2.131
61771W        W34196  26.192  35.049  11.886
61772W        W34197   1.736   6.670   0.860
61773W        W34198   8.440   1.305   2.233
61774W        W34199   0.122   5.423  13.362
61775W        W34200  14.169  44.208  13.453
61776W        W34201   4.341   7.470  12.101
61777W        W34202  21.786  35.485  10.959
61778W        W34203   4.217  14.785   1.371
61779W        W34204   0.451  23.188   3.828
61780W        W34205  16.492  20.746  13.370
61781W        W34206   9.706  39.569   4.534
61782W        W34207  42.797  42.289  14.814
61783W        W34208  20.591  21.933  13.305
61784W        W34209   7.051  29.456   0.413
61785W        W34210  43.672  26.212   0.360
61786W        W34211  35.611   2.229   2.760
61787W        W34212   5.914   5.475   3.611
61788W        W34213  33.111  14.719   0.127
61789W        W34214   3.777   6.914   4.122
61790W        W34215  28.079  41.816  13.045
61791W        W34216   7.318  23.012  12.153
61792W        W34217  25.582  22.441   4.607
61793W        W34218  11.206  11.437  12.883
61794W        W34219  11.611  41.156  12.596
61795W        W34220   9.939  31.931  11.471
61796W        W34221  30.421   6.430  14.468
61797W        W34222  36.300  16.130   0.461
61798W        W34223  15.177  19.100  11.514
61799W        W34224  15.135  31.012   3.520
61800W        W34225  41.009  31.578  11.600
61801W        W34226  27.645   7.013  10.494
61802W        W34227  23.897  13.066   0.957
61803W        W34228  10.703  36.055  13.415
61804W        W34229  15.291  24.672   3.597
61805W        W34230  19.626  30.647   3.692
61806W        W34231  10.859  11.865   4.177
61807W        W34232  14.187  18.168   0.888
61808W        W34233  17.572  27.432   0.810
61809W        W34234  44.071  41.249  11.591
61810W        W34235  33.864  33.821  13.749
61811W        W34236  41.736  34.154   0.308
61812W        W34237  13.582  27.551   1.519
61813W        W34238  29.899  39.388  13.837
61814W        W34239  21.747  28.938   4.551
61815W        W34240  33.557  22.675  13.794
61816W        W34241  33.669  36.999  12.703
61817W        W34242  31.586  17.754   2.725
61818W        W34243  14.323   3.421  14.025
61819W        W34244  18.741  25.682   3.686
61820W        W34245  30.252  26.579  12.321
61821W        W34246   6.232   4.789  12.374
61822W        W34247  17.460  33.030   3.118
61823W        W34248  26.776  17.692   3.120
61824W        W34249  20.778  34.836   2.700
61825W        W34250  35.438   8.159  14.462
61826W        W34251  12.058  25.610   4.995
61827W        W34252   8.562  40.521  14.427
61828W        W34253   7.723  39.820   4.238
61829W        W34254  27.302  31.379  12.026
61830W        W34255  25.570  22.459   0.971
61831W        W34256  28.040  22.788   9.671
61832W        W34257   6.310  35.156  13.740
61833W        W34258  18.684  41.377   1.290
61834W        W34259  32.096   7.321  10.669
61835W        W34260  41.798   6.395   3.316
61836W        W34261  24.723  17.569  10.585
61837W        W34262  16.609  22.580  13.202
61838W        W34263  22.116  21.274  11.991
61839W        W34264  44.220  42.288   4.994
61840W        W34265   2.998  31.053  13.090
61841W        W34266   7.726  24.083  14.082
61842W        W34267  29.495  13.312   3.205
61843W        W34268  26.902   0.854   3.696
61844W        W34269  17.569  16.754  12.468
61845W        W34270  12.626  30.967   3.077
61846W        W34271  17.657  33.077   2.641
61847W        W34272   4.893  43.326  11.021
61848W        W34273  33.191  26.099  13.588
61849W        W34274  17.246  36.277   1.631
61850W        W34275  36.922   9.809  12.107
61851W        W34276  24.267   2.837   0.070
61852W        W34277  13.094   9.820  13.953
61853W        W34278  32.418  28.715   2.229
61854W        W34279  26.146  31.346  12.459
61855W        W34280   8.621   3.270   3.688
61856W        W34281  37.456   0.031   4.097
61857W        W34282  27.883  17.111  14.894
61858W        W34283  26.711   0.931   3.235
61859W        W34284  22.151   4.080   4.096
61860W        W34285  41.216   0.002   4.140
61861W        W34286  37.555   1.465   1.312
61862W        W34287  10.804  40.250   3.186
61863W        W34288   2.979  13.757  13.557
61864W        W34289   6.245   2.929   2.165
61865W        W34290  20.113   1.194  10.750
61866W        W34291   3.683   8.491   2.412
61867W        W34292  24.785  18.540   1.032
61868W        W34293  24.258  16.377  11.193
61869W        W34294  32.305  13.104   1.563
61870W        W34295   5.044  28.095   5.140
61871W        W34296  15.036  40.164  13.572
61872W        W34297   8.792  15.855   2.679
61873W        W34298  24.111  38.306  13.126
61874W        W34299  38.523  21.557  10.388
61875W        W34300   3.688  30.917   1.890
61876W        W34301   2.326  18.134   4.336
61877W        W34302   3.472  43.778   3.294
61878W        W34303  15.869  26.092  12.803
61879W        W34304  21.867  39.019  13.592
61880W        W34305  34.895  22.614  14.482
61881W        W34306  27.720  21.491   3.670
61882W        W34307   6.591  13.068   1.351
61883W        W34308  31.579  36.893   1.879
61884W        W34309   4.492  42.294   4.215
61885W        W34310  22.688   9.598   0.845
61886W        W34311  21.675  10.788   2.651
61887W        W34312   3.006  44.978   0.978
61888W        W34313  26.944   9.923  11.698
61889W        W34314  16.645  10.124  14.773
61890W        W34315  11.457  10.142  10.307
61891W        W34316  10.610   2.656  13.319
61892W        W34317  40.826  38.347  13.499
61893W        W34318  30.281  41.463  10.965
61894W        W34319  10.204   5.946  13.993
61895W        W34320  17.571  38.860   1.379
61896W        W34321  16.892  37.811  14.819
61897W        W34322  20.343  19.529   0.327
61898W        W34323  25.515  43.451  13.385
61899W        W34324  34.581  20.596  14.762
61900W        W34325  21.556  17.990   2.219
61901W        W34326  34.013  35.831  12.576
61902W        W34327   6.272  25.590   3.388
61903W        W34328  32.173  26.694  11.003
61904W        W34329  16.326  10.221   2.644
61905W        W34330  29.026  43.342  12.873
61906W        W34331  43.751  37.530   1.364
61907W        W34332  12.842  13.414  11.762
61908W        W34333  23.168   7.717  12.861
61909W        W34334  33.096   9.741  14.427
61910W        W34335  33.295  13.353  10.577
61911W        W34336  40.860  22.307   5.465
61912W        W34337   9.838  18.712   2.190
61913W        W34338  24.389  11.144   4.852
61914W        W34339  44.283  24.678   2.405
61915W        W34340  32.926  29.438  12.031
61916W        W34341  27.017  36.597   4.624
61917W        W34342  31.457   3.271  11.672
61918W        W34343   6.196  15.654  14.004
61919W        W34344  24.858   5.904  11.054
61920W        W34345  27.062   3.832  10.709
61921W        W34346  28.400   3.671   1.873
61922W        W34347  14.836   4.881   4.786
61923W        W34348  37.438  25.084   3.674
61924W        W34349  29.096  43.076   1.843
61925W        W34350  12.609  19.100  11.130
61926W        W34351  31.100   3.507   2.596
61927W        W34352  16.230  11.935   3.301
61928W        W34353  16.596  24.649  12.403
61929W        W34354  15.688   5.590   3.169
61930W        W34355  29.038   4.950  11.270
61931W        W34356   9.362  23.525  12.448
61932W        W34357  38.374  37.929   4.634
61933W        W34358  21.024  29.593  12.574
61934W        W34359  25.782  17.608  14.853
61935W        W34360  32.945  38.788   3.160
61936W        W34361   9.281   4.827   1.872
61937W        W34362  40.084   5.251   3.429
61938W        W34363   6.330  38.807   2.251
61939W        W34364   4.205  38.471  11.639
61940W        W34365  33.323  13.084   1.802
61941W        W34366  29.145  21.106   1.682
61942W        W34367  13.876   7.021  12.053
61943W        W34368  31.722  26.012  14.695
61944W        W34369   8.389  28.670  14.470
61945W        W34370   5.609  13.113   4.397
61946W        W34371   8.568  20.188   2.709
61947W        W34372   2.519  16.967  13.326
61948W        W34373  26.553  35.451  14.545
61949W        W34374  34.805  14.626  10.624
61950W        W34375  24.238  26.935   3.315
61951W        W34376  20.283  16.323  14.604
61952W        W34377  22.618  36.491   2.470
61953W        W34378  15.052  39.952   4.067
61954W        W34379  29.112  18.754   1.505
61955W        W34380  40.435  31.203  13.321
61956W        W34381  13.852  29.820   3.230
61957W        W34382  36.597  38.369  13.848
61958W        W34383  42.079  22.187   2.233
61959W        W34384  12.513   3.921   3.796
61960W        W34385   1.261  31.452  13.236
61961W        W34386  36.408  12.532   2.342
61962W        W34387  30.384   9.356   4.709
61963W        W34388  16.497   6.779   2.324
61964W        W34389  17.096  11.081   3.226
61965W        W34390   0.981  33.631  10.318
61966W        W34391  24.725  18.668   2.447
61967W        W34392  33.384  34.991   3.764
61968W        W34393   4.057  10.657  13.424
61969W        W34394  15.671  30.891   0.952
61970W        W34395   3.540   9.251  14.034
61971W        W34396   2.596   1.479  11.646
61972W        W34397  42.265  39.742  13.708
61973W        W34398  23.795   6.952   0.514
61974W        W34399  27.048  39.575   4.682
61975W        W34400   6.999  18.825  12.993
61976W        W34401  38.393  19.101  10.528
61977W        W34402  25.734  22.101   3.802
61978W        W34403  14.148  36.533   1.552
61979W        W34404  27.124  39.728   3.124
61980W        W34405  43.942  41.377  13.981
61981W        W34406   0.215  30.653  14.878
61982W        W34407  24.847  20.976   0.340
61983W        W34408  37.404  28.693  11.679
61984W        W34409   0.853  27.989  12.116
61985W        W34410  39.075  34.859  14.392
61986W        W34411  15.803   9.030   1.852
61987W        W34412  20.065  30.418   3.593
61988W        W34413  38.039  24.577  14.062
61989W        W34414  25.942  22.424  14.724
61990W        W34415  14.017  19.462  12.421
61991W        W34416   5.768  31.518  10.201
61992W        W34417   7.831   5.299   3.144
61993W        W34418  22.262  44.439   3.409
61994W        W34419  25.279  18.149   1.654
61995W        W34420  29.309  23.621  14.393
61996W        W34421  44.236  15.693   1.852
61997W        W34422  26.707  24.102   3.210
61998W        W34423  33.094  20.093  13.815
61999W        W34424  41.332  28.960  14.710
62000W        W34425   2.786  33.922  13.779
62001W        W34426  30.516  24.724   4.524
62002W        W34427   2.317  31.524   0.445
62003W        W34428  43.394  11.409  11.096
62004W        W34429  32.886  22.252   2.943
62005W        W34430  40.860  18.224   1.265
62006W        W34431  10.400  14.869   0.927
62007W        W34432   0.352   6.235   1.820
62008W        W34433  11.348  25.250   0.758
62009W        W34434  21.477  34.117   3.214
62010W        W34435  44.347  39.116   5.149
62011W        W34436  20.458  21.693   1.194
62012W        W34437   7.726  11.811  10.791
62013W        W34438  22.998  19.011   2.178
62014W        W34439  11.074   3.310   3.786
62015W        W34440  13.858  18.627  10.859
62016W        W34441   7.159  18.722   3.342
62017W        W34442  38.900  15.569   1.456
62018W        W34443  15.621  28.994   2.177
62019W        W34444   0.299  44.764   1.334
62020W        W34445  26.172  33.866   0.923
62021W        W34446  32.307  33.365   3.176
62022W        W34447  22.392  17.687   2.383
62023W        W34448   6.694  41.009   2.333
62024W        W34449  26.007  17.729  14.384
62025W        W34450  44.332  17.993   4.170
62026W        W34451  14.888  30.145  11.049
62027W        W34452  28.942  39.758  13.962
62028W        W34453  30.369   1.689   1.305
62029W        W34454  21.114  20.756  12.584
62030W        W34455  24.382  41.350   2.427
62031W        W34456  33.974  25.064   1.958
62032W        W34457   9.445   2.095   0.054
62033W        W34458  12.316  44.864  10.688
62034W        W34459   3.207  14.259   9.873
62035W        W34460  12.150  31.733   3.204
62036W        W34461  19.962  14.242   4.836
62037W        W34462  26.523   7.719   5.089
62038W        W34463   2.787  28.131  10.743
62039W        W34464  10.726  11.538   0.495
62040W        W34465  27.859  43.333  11.547
62041W        W34466  38.450  13.201   4.695
62042W        W34467  32.341  43.913   3.673
62043W        W34468   7.923  22.404   0.218
62044W        W34469  22.198  38.521  11.269
62045W        W34470  15.521  20.484  13.506
62046W        W34471  27.030  20.525   4.313
62047W        W34472  32.679  25.541  14.843
62048W        W34473  23.646  26.489  11.402
62049W        W34474  31.470  33.489   4.570
62050W        W34475  23.023  10.634   1.035
62051W        W34476  17.285  17.603   4.885
62052W        W34477  38.127  23.951  11.054
62053W        W34478  11.101   1.776  12.522
62054W        W34479  28.621  17.014   0.344
62055W        W34480  15.806  21.734  13.921
62056W        W34481  20.824   5.910  14.534
62057W        W34482  17.570  30.441   1.257
62058W        W34483  42.498   9.709   1.292
62059W        W34484  36.057  40.377  14.448
62060W        W34485   2.663   6.675  14.979
62061W        W34486  31.564  31.003   4.840
62062W        W34487  27.695  39.363  10.430
62063W        W34488   5.452   7.289   0.790
62064W        W34489  32.949  38.392  11.932
62065W        W34490   6.588  21.718   1.997
62066W        W34491  29.621  28.206   3.750
62067W        W34492  34.393  12.185   4.650
62068W        W34493  12.950  24.124  13.896
62069W        W34494  32.078   1.075  13.378
62070W        W34495  18.366  17.879   2.286
62071W        W34496  26.524  11.332   4.369
62072W        W34497   7.934   4.473   3.514
62073W        W34498  37.905   4.161   4.330
62074W        W34499  16.613  26.151   4.226
62075W        W34500  40.020  38.332   2.364
62076W        W34501  35.501   7.463  13.907
62077W        W34502   5.637  18.257   0.750
62078W        W34503  22.729  16.124   0.749
62079W        W34504  41.105  41.061  10.835
62080W        W34505  25.886  31.916  13.919
62081W        W34506  11.638  42.883  11.506
62082W        W34507  41.346  22.605   1.364
62083W        W34508  32.200  16.064  11.488
62084W        W34509   7.210  44.359  10.649
62085W        W34510   1.969   0.496   1.780
62086W        W34511  42.654  25.205   3.859
62087W        W34512  26.207  31.502  14.843
62088W        W34513  13.824  17.149  12.953
62089W        W34514  19.758  42.943  11.799
62090W        W34515   0.677  33.608  11.715
62091W        W34516   9.970   2.284  11.595
62092W        W34517  28.602  24.656  12.932
62093W        W34518  43.096  15.755  10.990
62094W        W34519   6.510  29.751   0.879
62095W        W34520   1.504  15.850   3.114
62096W        W34521   8.598  43.988   4.782
62097W        W34522  24.985  27.449  11.540
62098W        W34523  21.177   5.431  13.463
62099W        W34524  43.065  39.257   1.477
62100W        W34525  19.271  30.676  13.895
62101W        W34526  17.199  44.058  12.038
62102W        W34527  15.711  40.401   4.430
62103W        W34528   7.386   0.044  10.802
62104W        W34529  27.451   9.086  14.852
62105W        W34530   9.687  37.681   3.788
62106W        W34531  41.027  19.027   0.824
62107W        W34532  17.862  22.545  12.629
62108W        W34533  30.386  41.729   3.654
62109W        W34534  40.043  24.421  11.144
62110W        W34535   0.039  11.940  11.056
62111W        W34536   1.350  25.685  14.407
62112W        W34537  38.354  11.175   3.558
62113W        W34538  12.761  23.313   3.448
62114W        W34539  35.049  40.883   3.868
62115W        W34540  14.334  11.654  12.431
62116W        W34541  42.998  27.072   3.351
62117W        W34542   7.383  41.184  14.784
62118W        W34543  10.879  42.299  11.677
62119W        W34544  13.302  25.460  11.601
62120W        W34545  32.516   9.691   1.819
62121W        W34546  21.694  38.147  13.022
62122W        W34547  41.500  10.215  14.342
62123W        W34548  30.418   5.766  14.824
62124W        W34549  19.564  17.726   0.203
62125W        W34550  10.946  13.353  11.619
62126W        W34551  38.731  40.744  11.036
62127W        W34552  35.431  31.594   2.338
62128W        W34553  14.884  15.231   1.367
62129W        W34554   3.859  32.606  11.992
62130W        W34555  35.896  27.167   3.290
62131W        W34556  20.828  24.010  14.843
62132W        W34557   2.380  11.625   4.559
62133W        W34558   3.681  41.989   3.289
62134W        W34559  42.954  21.543   1.716
62135W        W34560  39.007  38.956  10.627
62136W        W34561  15.689  38.637  13.169
62137W        W34562  33.339  23.132  11.081
62138W        W34563  21.482   9.328  14.513
62139W        W34564  32.901  28.973  10.476
62140W        W34565   8.340  16.046  12.588
62141W        W34566  42.320  26.439  11.482
62142W        W34567  17.066  31.993   2.149
62143W        W34568  17.023  14.708  12.378
62144W        W34569  21.748  25.370  11.919
62145W        W34570  20.913  20.245   3.681
62146W        W34571   8.705  16.348   3.192
62147W        W34572  26.221  36.411  14.054
62148W        W34573  39.344  24.209  11.957
62149W        W34574  32.404  42.531  12.120
62150W        W34575   6.340  19.233   0.993
62151W        W34576   6.472   1.342   3.529
62152W        W34577  10.893   5.395   1.381
62153W        W34578  11.427   4.526  10.666
62154W        W34579  27.011  40.051  14.175
62155W        W34580  23.905  15.790   2.163
62156W        W34581  20.273  20.049   0.249
62157W        W34582   5.660  13.138  12.037
62158W        W34583  27.526  30.342  12.576
62159W        W34584   5.478  34.879  13.407
62160W        W34585  12.132   6.645   2.352
62161W        W34586   6.150  34.210  11.406
62162W        W34587  38.704  34.416   2.687
62163W        W34588  39.803   6.723  13.619
62164W        W34589  24.329  12.197  11.628
62165W        W34590  24.510  19.589   2.078
62166W        W34591  42.746  34.861   1.225
62167W        W34592  38.735  15.716  12.595
62168W        W34593   6.709   1.779   3.661
62169W        W34594  13.758  28.613  14.655
62170W        W34595   0.998  25.193  12.677
62171W        W34596   0.766  32.991   9.803
62172W        W34597   0.832   7.110   1.311
62173W        W34598   1.941   9.378   3.359
62174W        W34599  17.101  12.198  12.034
62175W        W34600  44.683   4.109   3.586
62176W        W34601   6.454  20.555  10.292
62177W        W34602  41.763  10.166   0.967
62178W        W34603  26.446  26.587  10.587
62179W        W34604   7.791  21.104  13.492
62180W        W34605  26.239  15.005  11.382
62181W        W34606  41.814   0.180   3.780
62182W        W34607  18.345   4.835  11.999
62183W        W34608  42.718  36.963  12.471
62184W        W34609  30.842  24.655   4.111
62185W        W34610  39.512  43.469  10.605
62186W        W34611  36.575  40.028  13.320
62187W        W34612  13.973  17.322  13.428
62188W        W34613  32.370   1.885   3.275
62189W        W34614  11.359   5.938   3.061
62190W        W34615  40.547  19.282   0.848
62191W        W34616   7.692  20.649   1.649
62192W        W34617  28.488  20.492   1.302
62193W        W34618  11.161  27.894  14.962
62194W        W34619  12.485  17.246   3.396
62195W        W34620  20.822   9.429  13.316
62196W        W34621  16.632   9.724   4.268
62197W        W34622  24.944  34.192  12.972
62198W        W34623  21.999  17.621  14.795
62199W        W34624  25.957  11.235  11.388
62200W        W34625  19.519  12.607  14.901
62201W        W34626   0.846  35.624   0.316
62202W        W34627  29.244  31.429  13.999
62203W        W34628  23.269  10.259   0.183
62204W        W34629  26.777  37.923  14.401
62205W        W34630  42.700  10.314   2.074
62206W        W34631  42.427  10.579   1.443
62207W        W34632  41.779  20.028   0.414
62208W        W34633  17.458  40.881   1.424
62209W        W34634   1.206   1.860  13.967
62210W        W34635   2.461  32.467  13.803
62211W        W34636   4.936  42.298   2.681
62212W        W34637  13.807  27.776  14.120
62213W        W34638  36.568  28.177   0.000
62214W        W34639  37.555  27.981  11.025
62215W        W34640   0.760   9.469   0.381
62216W        W34641  24.246  41.872  14.606
62217W        W34642  21.499  11.849   2.172
62218W        W34643  33.573  41.714  12.346
62219W        W34644   9.686  14.629  10.747
62220W        W34645  31.717  44.538  12.445
62221W        W34646  11.962  28.037   2.687
62222W        W34647  29.030  31.418  10.416
62223W        W34648   9.921  28.407   2.807
62224W        W34649  32.405   7.221  14.430
62225W        W34650  30.993  25.909   1.739
62226W        W34651  30.631  25.513   0.647
62227W        W34652   3.150   4.964  12.492
62228W        W34653  26.706  11.269   1.250
62229W        W34654  25.983  32.389  10.951
62230W        W34655   7.879  27.710  11.988
62231W        W34656  41.940   7.152  12.070
62232W        W34657  43.300   1.693  13.016
62233W        W34658   0.240  30.561   0.823
62234W        W34659  12.566  20.978  10.952
62235W        W34660  43.008  33.076   2.672
62236W        W34661  34.614  16.338  14.625
62237W        W34662  32.378  29.142  14.948
62238W        W34663  18.232  42.912  10.407
62239W        W34664  44.791  40.296   2.270
62240W        W34665   2.170   1.915   3.732
62241W        W34666  12.783   8.900   1.945
62242W        W34667   8.166  39.556  11.965
62243W        W34668   6.107   8.775  13.440
62244W        W34669   8.461  15.195  12.495
62245W        W34670  12.362  41.778  11.957
62246W        W34671  36.861  39.021  12.503
62247W        W34672  23.260  44.319   0.449
62248W        W34673  39.330  31.017  14.875
62249W        W34674  14.076  29.692   0.458
62250W        W34675  40.527  35.680  13.017
62251W        W34676  34.055  21.705  11.480
62252W        W34677   7.136  17.836  12.957
62253W        W34678  42.520  32.753  11.383
62254W        W34679  10.100  26.149   0.363
62255W        W34680  30.600   1.945   1.681
62256W        W34681   2.736   7.950   5.153
62257W        W34682   8.688  28.137  11.469
62258W        W34683   4.754  15.059  14.815
62259W        W34684   7.651  37.038  11.973
62260W        W34685  36.933  26.014  13.395
62261W        W34686   2.443  43.916   1.436
62262W        W34687  28.105  33.937   1.420
62263W        W34688  23.045  36.940  12.294
62264W        W34689  14.655  37.739  14.669
62265W        W34690   3.672   8.840  12.068
62266W        W34691  24.080  32.009   9.732
62267W        W34692  13.806   2.361  10.147
62268W        W34693   5.285  29.020   2.624
62269W        W34694  32.455  25.043   1.596
62270W        W34695  26.533  15.140  14.924
62271W        W34696  14.165  39.697   2.512
62272W        W34697  21.080  19.997  10.735
62273W        W34698  12.153  38.651  13.937
62274W        W34699  37.781  16.701   2.467
62275W        W34700  28.074   1.440  12.151
62276W        W34701  20.523  11.792   2.148
62277W        W34702  10.676  44.227  11.089
62278W        W34703   4.075  22.172  14.911
62279W        W34704  14.576  12.577   2.778
62280W        W34705  31.570  44.536   2.241
62281W        W34706  31.347  21.056   0.131
62282W        W34707   8.253   4.887   4.566
62283W        W34708  13.265  43.279  13.734
62284W        W34709  32.387  36.120   1.389
62285W        W34710  42.864  13.699  12.786
62286W        W34711  19.537  18.471   3.359
62287W        W34712  11.953   0.176   0.155
62288W        W34713  36.415  11.579   0.991
62289W        W34714  20.876  12.483  14.038
62290W        W34715  37.737  14.255   2.865
62291W        W34716   4.927  14.203   2.328
62292W        W34717  19.349  22.937   2.269
62293W        W34718   4.792  25.815  10.740
62294W        W34719  18.983   6.491   4.163
62295W        W34720  36.492   4.500  13.037
62296W        W34721  31.814  24.247  12.021
62297W        W34722   4.432  43.062   4.613
62298W        W34723  31.740  23.041  12.112
62299W        W34724  32.539  26.952  11.986
62300W        W34725  24.686   6.892   0.242
62301W        W34726   3.703   5.505   3.633
62302W        W34727  40.336  11.304  11.093
62303W        W34728  39.719  19.640   4.957
62304W        W34729  40.956  20.574  10.685
62305W        W34730  22.291   4.951   3.705
62306W        W34731  19.997  40.011   2.176
62307W        W34732  20.245  34.047  14.461
62308W        W34733  36.411  39.350  13.260
62309W        W34734   8.747   3.726  14.495
62310W        W34735  24.959  40.830  13.008
62311W        W34736  15.731  14.570   4.133
62312W        W34737  12.639  34.474  11.921
62313W        W34738  14.086   3.937   0.012
62314W        W34739   2.451   1.088   4.128
62315W        W34740  24.326  24.330  12.501
62316W        W34741   6.222  23.757   3.258
62317W        W34742  36.525   7.797  10.310
62318W        W34743  23.056  41.432   1.660
62319W        W34744  26.589  19.287   4.517
62320W        W34745  14.530  19.011   3.081
62321W        W34746  43.885  31.390   5.094
62322W        W34747  33.938   2.354  13.530
62323W        W34748   3.496  16.053   0.347
62324W        W34749  43.777  42.483   3.263
62325W        W34750  13.863  44.322   2.334
62326W        W34751   9.167  33.223  13.941
62327W        W34752   0.458  41.494   2.162
62328W        W34753  11.400  44.269  11.570
62329W        W34754   4.973   3.904  11.112
62330W        W34755   6.227  32.508  10.789
62331W        W34756  13.075  23.454   4.308
62332W        W34757  31.725   0.447  14.098
62333W        W34758   3.461  34.395  11.054
62334W        W34759  21.132  40.262  10.210
62335W        W34760   7.279  15.748   4.430
62336W        W34761  40.165  14.950   1.072
62337W        W34762  41.843  16.106   3.215
62338W        W34763  26.953   1.489  11.164
62339W        W34764   0.789   4.525   3.292
62340W        W34765  26.051   0.015   2.709
62341W        W34766  15.811  34.834  13.840
62342W        W34767   6.530  16.838  12.919
62343W        W34768  34.054  29.563   1.674
62344W        W34769   9.298  28.518  14.264
62345W        W34770  32.250  21.091  12.884
62346W        W34771  10.033  40.905   0.257
62347W        W34772   1.917  19.405   0.027
62348W        W34773   7.407  22.730   2.871
62349W        W34774  38.753  14.397   2.799
62350W        W34775  29.063  31.017  11.745
62351W        W34776  10.150  43.002  12.866
62352W        W34777  42.042  12.044  14.898
62353W        W34778  23.528   2.039  14.349
62354W        W34779   1.976  44.681  14.454
62355W        W34780  21.602  32.714  11.918
62356W        W34781  16.164  40.428   1.286
62357W        W34782  15.354  12.477  11.239
62358W        W34783   1.918  23.532  10.787
62359W        W34784  23.259  20.652  14.010
62360W        W34785  43.799  17.326  12.325
62361W        W34786  24.087  16.306  14.788
62362W        W34787  41.393  25.442  12.445
62363W        W34788  33.109   7.796  13.485
62364W        W34789  34.527  21.534   0.946
62365W        W34790  41.398  22.065   1.521
62366W        W34791   3.510  26.470  13.288
62367W        W34792  42.997  20.852   4.618
62368W        W34793  33.717  24.235   4.405
62369W        W34794  30.469  22.520   2.742
62370W        W34795   0.980  22.625   5.237
62371W        W34796  14.086  40.977  13.463
62372W        W34797  13.344   7.669  11.116
62373W        W34798  36.024   4.906  13.902
62374W        W34799  43.944   7.105   3.951
62375W        W34800  33.224  17.249   3.493
62376W        W34801  34.369  31.133   3.268
62377W        W34802  28.737  18.597  14.562
62378W        W34803  24.747  30.707   2.236
62379W        W34804   3.115   2.018  14.437
62380W        W34805  43.716   4.769  11.676
62381W        W34806  19.647  11.548  14.184
62382W        W34807  13.652  18.711  13.126
62383W        W34808  24.094  28.938  14.776
62384W        W34809  31.067  13.488   3.433
62385W        W34810   0.872   7.775   4.586
62386W        W34811   2.415  30.638  14.940
62387W        W34812  22.350   6.785   4.907
62388W        W34813  39.105  43.254   3.326
62389W        W34814  10.904   9.730   4.495
62390W        W34815  37.733  37.977   4.981
62391W        W34816   1.357  19.250   3.564
62392W        W34817  18.199  24.764   2.534
62393W        W34818   5.234  37.135   4.654
62394W        W34819  17.590  32.194  12.763
62395W        W34820  17.556  19.552  11.779
62396W        W34821  24.220   7.747   0.178
62397W        W34822   9.612  15.651  14.434
62398W        W34823   1.378  24.150   4.227
62399W        W34824   5.414  40.010  14.598
62400W        W34825  17.622  10.055  12.479
62401W        W34826   1.804  41.026  11.176
62402W        W34827  12.746  28.494   1.434
62403W        W34828  16.872  31.946   5.515
62404W        W34829  23.771  30.439  13.458
62405W        W34830  14.834  14.685   0.800
62406W        W34831  19.275  38.800  13.854
62407W        W34832  21.119  15.320  12.525
62408W        W34833  31.223  11.860   2.672
62409W        W34834  36.396  40.287   1.689
62410W        W34835  14.440  26.926   3.273
62411W        W34836  38.212  42.007   3.082
62412W        W34837  15.273   1.286   0.371
62413W        W34838  35.814  27.097  12.549
62414W        W34839  30.905  20.766   4.709
62415W        W34840  21.230  34.071   4.557
62416W        W34841  10.425  22.051  13.908
62417W        W34842  17.611   8.334   2.294
62418W        W34843  37.840  19.747   1.482
62419W        W34844  25.103   7.764   3.812
62420W        W34845   7.217  37.468  10.546
62421W        W34846  27.748  40.764  10.216
62422W        W34847  44.275  19.587   4.152
62423W        W34848  11.899   9.795   2.747
62424W        W34849  30.093  36.515   0.980
62425W        W34850  39.303  41.794  14.338
62426W        W34851   7.282  25.166   1.879
62427W        W34852  36.526   6.259  10.738
62428W        W34853  17.040  10.774   2.809
62429W        W34854   0.265  22.531   1.970
62430W        W34855  18.976  23.972   0.828
62431W        W34856  18.827   9.339  11.178
62432W        W34857  39.494   8.705   0.183
62433W        W34858  24.486   1.573  14.949
62434W        W34859  30.423  19.588   3.610
62435W        W34860   1.305  30.975   4.039
62436W        W34861  19.753   7.147   4.175
62437W        W34862  17.496  18.466  12.922
62438W        W34863  34.988  20.132   1.716
62439W        W34864   8.917  39.592  13.878
62440W        W34865   1.852   7.020  11.147
62441W        W34866   3.696   9.333   1.822
62442W        W34867  23.472  43.768   3.186
62443W        W34868  33.516   8.834  12.220
62444W        W34869  27.675  24.794  12.989
62445W        W34870  21.051  26.108   1.725
62446W        W34871   8.566  19.571  13.794
62447W        W34872   8.883  18.985   4.673
62448W        W34873  40.553  39.529   2.196
62449W        W34874  37.669  28.231   0.661
62450W        W34875   4.420  28.527  10.322
62451W        W34876  28.225   4.240   4.290
62452W        W34877   5.060   2.834   2.942
62453W        W34878  35.092   7.690   4.555
62454W        W34879  33.402  41.244   0.943
62455W        W34880   5.249   3.113   4.451
62456W        W34881  14.631   4.006   4.487
62457W        W34882  34.587  27.312  11.445
62458W        W34883  35.198  40.928   3.378
62459W        W34884   0.134  36.822   2.702
62460W        W34885  32.475   8.834  13.260
62461W        W34886  17.508   1.496   1.603
62462W        W34887  39.795  21.726  12.051
62463W        W34888  18.037  17.110  13.186
62464W        W34889  10.343  25.103   2.322
62465W        W34890   0.549   6.408  10.022
62466W        W34891  38.513   5.319   2.373
62467W        W34892  16.069  37.389  11.711
62468W        W34893  28.955  14.254  11.511
62469W        W34894  17.508  30.190  13.017
62470W        W34895  17.953  32.059  14.559
62471W        W34896   4.029  26.488  11.096
62472W        W34897   3.676  28.468  12.614
62473W        W34898  29.708  34.367  11.177
62474W        W34899  21.041  39.749   4.859
62475W        W34900  43.451  27.130   4.109
62476W        W34901   6.123  22.109  14.303
62477W        W34902   4.316   4.164   4.635
62478W        W34903  43.980  39.883   2.710
62479W        W34904  32.387  35.558  12.403
62480W        W34905  44.297  35.928  11.192
62481W        W34906  13.923  30.715   2.700
62482W        W34907  33.576  38.082  11.697
62483W        W34908   1.423  33.660   3.399
62484W        W34909  36.046  38.646   4.081
62485W        W34910  17.326  27.044  14.959
62486W        W34911   6.768  25.669  11.072
62487W        W34912  23.225  22.938  14.292
62488W        W34913  15.625  18.844  11.523
62489W        W34914  10.417  21.553  10.617
62490W        W34915  13.392  21.767  10.637
62491W        W34916  30.955   6.319   4.520
62492W        W34917  16.285  37.449   4.107
62493W        W34918  32.475  37.504   2.292
62494W        W34919  40.790  36.098   4.142
62495W        W34920   4.375  25.139   2.138
62496W        W34921  17.732  19.827   1.857
62497W        W34922   0.655  20.442   4.795
62498W        W34923  39.990   2.374   1.092
62499W        W34924   7.246  18.965   2.829
62500W        W34925  26.838   8.146  11.127
62501W        W34926  24.681  17.251  14.477
62502W        W34927   0.873   3.016  11.513
62503W        W34928  13.265   8.195  12.017
62504W        W34929   3.577  38.931  11.919
62505W        W34930  26.276   5.747   3.078
62506W        W34931  43.209  25.759  12.457
62507W        W34932  14.720  15.243   1.859
62508W        W34933  27.735  15.861   2.786
62509W        W34934  20.808  38.327  11.062
62510W        W34935   0.470  29.616  12.001
62511W        W34936  21.989  19.074   3.612
62512W        W34937  11.169  44.205  12.394
62513W        W34938  36.119  35.133   0.424
62514W        W34939  41.985  24.564   1.378
62515W        W34940   2.402  31.597  14.249
62516W        W34941  19.231   2.249   3.304
62517W        W34942   6.148  12.265   3.613
62518W        W34943  39.601   0.924   2.746
62519W        W34944  41.998   3.103   2.675
62520W        W34945  13.166  37.924  10.593
62521W        W34946  38.099  30.526  10.318
62522W        W34947  34.651  35.349  14.867
62523W        W34948  14.881  26.152   1.833
62524W        W34949  18.043  41.989   4.466
62525W        W34950  30.581  14.194   0.992
62526W        W34951   4.229  33.985  11.009
62527W        W34952  27.429  40.097   1.165
62528W        W34953  37.821   3.823  14.421
62529W        W34954  19.114  12.435   2.745
62530W        W34955  36.428  19.287   3.664
62531W        W34956  39.426  28.918  14.458
62532W        W34957  13.227  35.927   3.339
62533W        W34958  40.149  44.346  14.868
62534W        W34959   7.390  20.273   4.952
62535W        W34960  24.718  36.411  13.988
62536W        W34961  11.221  27.476  12.949
62537W        W34962  26.162  21.059   2.145
62538W        W34963  29.736  20.212  12.936
62539W        W34964  19.990  16.702  14.833
62540W        W34965   5.399  32.972  13.013
62541W        W34966  11.083  27.314  12.467
62542W        W34967   2.438  21.787   2.323
62543W        W34968  43.872  19.765   4.615
62544W        W34969  23.027  39.938   4.583
62545W        W34970   8.757   1.807  11.451
62546W        W34971  27.899  15.808  10.923
62547W        W34972   6.856  27.379   1.381
62548W        W34973   5.382  20.563   0.012
62549W        W34974  42.871   1.508  14.219
62550W        W34975  40.740  26.477   4.680
62551W        W34976   5.413  11.761  14.048
62552W        W34977  26.155  25.387   1.743
62553W        W34978  33.894  31.116   4.152
62554W        W34979  37.561  31.369  12.576
62555W        W34980   5.265  38.407  10.652
62556W        W34981  23.889  12.267   3.716
62557W        W34982   1.283  41.448   4.144
62558W        W34983  23.682   2.230  14.834
62559W        W34984  44.535  39.566   2.740
62560W        W34985  31.177  21.707  13.203
62561W        W34986  18.782   0.429   1.459
62562W        W34987   8.638   2.021  10.982
62563W        W34988  30.622  16.652  13.101
62564W        W34989  36.819  25.204  12.987
62565W        W34990  33.565  20.255   1.154
62566W        W34991   0.710  29.726  11.505
62567W        W34992  39.848   8.590   1.465
62568W        W34993  18.249  29.655   3.844
62569W        W34994  20.605  13.496  14.012
62570W        W34995  36.626  37.939   0.497
62571W        W34996  16.545   1.462   1.779
62572W        W34997  44.400   7.689   2.235
62573W        W34998  18.771  10.148  14.143
62574W        W34999   3.879   3.452   4.223
62575W        W35000  16.734  12.655  11.012
62576W        W35001  17.504  41.533  13.009
62577W        W35002  43.328   8.356   3.965
62578W        W35003  30.910   4.382  13.779
62579W        W35004  29.459  44.620   0.427
62580W        W35005  13.973  27.343   2.237
62581W        W35006   6.402  26.608  12.449
62582W        W35007  28.978   3.271  11.537
62583W        W35008   8.285  19.958  13.972
62584W        W35009  26.928  40.087   2.189
62585W        W35010   3.218  23.526   0.786
62586W        W35011  15.838  25.315   3.335
62587W        W35012  20.494  41.439  11.910
62588W        W35013  40.865  14.138  11.862
62589W        W35014  13.936  12.417   0.170
62590W        W35015   3.960  27.901   1.459
62591W        W35016   7.832  32.916   4.074
62592W        W35017  26.618  12.094   3.716
62593W        W35018  28.572  26.181   2.364
62594W        W35019   0.471  16.101   0.045
62595W        W35020  43.536  43.752   0.246
62596W        W35021  40.487  18.263   0.913
62597W        W35022  10.688  32.186   2.322
62598W        W35023  14.647  14.775   1.284
62599W        W35024  21.465  16.430   0.998
62600W        W35025  26.397  13.116   3.761
62601W        W35026   3.199  12.304  10.718
62602W        W35027  14.582  33.357   3.088
62603W        W35028  23.632  43.045   2.731
62604W        W35029  28.196  41.023  10.202
62605W        W35030  40.943  20.813  13.846
62606W        W35031   9.349  19.325  11.988
62607W        W35032   3.202  35.024   4.630
62608W        W35033  44.433  25.675  11.209
62609W        W35034  29.014  10.396  14.026
62610W        W35035  42.211  35.904   0.325
62611W        W35036  43.062  22.293   5.052
62612W        W35037  39.097  19.622  13.851
62613W        W35038  39.933  37.849  12.519
62614W        W35039  24.101  28.543   3.098
62615W        W35040   1.760   0.223   3.321
62616W        W35041  10.804  33.402  10.285
62617W        W35042  22.925  38.402  13.881
62618W        W35043   7.217   5.713   1.987
62619W        W35044  36.401  36.471  11.993
62620W        W35045  21.758  22.109  12.592
62621W        W35046  19.618   5.698   4.917
62622W        W35047  11.757  27.073  12.061
62623W        W35048  15.589  35.173   2.215
62624W        W35049  18.982  11.978  11.633
62625W        W35050   8.591   6.957   1.028
62626W        W35051  32.693  34.536   3.765
62627W        W35052  19.336  14.752  11.612
62628W        W35053  14.578  10.804  14.062
62629W        W35054  39.888  21.531   0.860
62630W        W35055  25.572  30.447   4.041
62631W        W35056  17.837   1.054   3.123
62632W        W35057  13.367  34.393   1.509
62633W        W35058  18.472  36.985   3.852
62634W        W35059  23.002  20.552   1.827
62635W        W35060  25.153  28.951   3.800
62636W        W35061  20.480  32.438  11.003
62637W        W35062  24.696  12.424  14.569
62638W        W35063  20.540   2.123  13.470
62639W        W35064  33.362   1.732  14.595
62640W        W35065  36.903   8.900   5.642
62641W        W35066  33.740  28.164   0.344
62642W        W35067  40.483  17.706  14.751
62643W        W35068  24.461  26.714   2.797
62644W        W35069  24.559  24.514  11.006
62645W        W35070  36.151  42.342   4.592
62646W        W35071   4.173  42.040   0.538
62647W        W35072  36.578  29.087   4.691
62648W        W35073   9.757  24.661  10.904
62649W        W35074  44.343  38.407   0.957
62650W        W35075  27.870  34.724  10.696
62651W        W35076  34.429   7.584   0.655
62652W        W35077  43.835  10.896  12.420
62653W        W35078  13.199   8.125   0.693
62654W        W35079   7.895   8.869  14.794
62655W        W35080  33.909  20.812  11.130
62656W        W35081  33.392  28.482  14.445
62657W        W35082   9.765  31.418  14.023
62658W        W35083  33.401  26.707  14.455
62659W        W35084  25.144  17.337   3.658
62660W        W35085  36.445  40.509   0.297
62661W        W35086  28.735  41.579   0.842
62662W        W35087  15.595  13.309  12.277
62663W        W35088  37.800  42.384   3.774
62664W        W35089  43.083   8.272  14.285
62665W        W35090  38.313  40.022   1.893
62666W        W35091  38.856  42.315  12.595
62667W        W35092  15.869  44.249   3.330
62668W        W35093  39.754  28.604  14.686
62669W        W35094  42.401  39.348  12.478
62670W        W35095  29.669  15.084   3.599
62671W        W35096  14.401  43.822   2.932
62672W        W35097  33.511  44.409  11.214
62673W        W35098   3.231  21.559  12.469
62674W        W35099  27.616   3.225  14.968
62675W        W35100  23.290  23.807   4.074
62676W        W35101  24.593  34.846   0.800
62677W        W35102  36.660   1.870   2.891
62678W        W35103  33.363  28.901   2.272
62679W        W35104  41.870  14.973   2.299
62680W        W35105  25.482  38.414  11.675
62681W        W35106  32.457   2.349   1.989
62682W        W35107  41.263   4.425   0.342
62683W        W35108  24.657  12.848  12.927
62684W        W35109  30.125  27.006  12.627
62685W        W35110  17.515  19.256   4.731
62686W        W35111  43.278  10.942   2.831
62687W        W35112  31.538  17.245  13.891
62688W        W35113  17.082  14.488   3.264
62689W        W35114  28.998  44.904   2.397
62690W        W35115  24.451   7.730  10.987
62691W        W35116  25.281   5.662  11.643
62692W        W35117   4.855  35.546   3.198
62693W        W35118  18.683  12.410   3.072
62694W        W35119  10.292  33.936   0.711
62695W        W35120  41.237  41.434   3.419
62696W        W35121   6.252   6.565   4.677
62697W        W35122   0.252  12.099   0.800
62698W        W35123  29.186  29.293  13.505
62699W        W35124  20.970   7.986  13.524
62700W        W35125  25.727  17.272  14.425
62701W        W35126   9.932  21.264   3.440
62702W        W35127  35.769  22.502   2.807
62703W        W35128  43.201  36.831   4.383
62704W        W35129  30.930  44.257  13.114
62705W        W35130  14.374  13.733   1.749
62706W        W35131  36.852  13.174   1.796
62707W        W35132  42.491  34.696   4.498
62708W        W35133  42.653  44.193  11.402
62709W        W35134  37.066   1.551  11.105
62710W        W35135  32.643  37.897  13.008
62711W        W35136   2.931  20.729  13.893
62712W        W35137  14.215  36.591   0.080
62713W        W35138  12.432  20.723  11.541
62714W        W35139  16.369   0.592   2.387
62715W        W35140   0.664   9.273  11.427
62716W        W35141  15.096  36.486  11.735
62717W        W35142  19.532  39.783   2.176
62718W        W35143  21.054  43.986   4.309
62719W        W35144  32.918  17.763  12.203
62720W        W35145  26.050  18.892   0.858
62721W        W35146  42.943  10.024  13.650
62722W        W35147   0.564  37.435   3.259
62723W        W35148   1.389   4.260  13.914
62724W        W35149   8.663   1.786   2.302
62725W        W35150   7.496  24.184   1.329
62726W        W35151  19.746  26.145   2.264
62727W        W35152  36.537   4.123   4.505
62728W        W35153  15.797   3.237  11.633
62729W        W35154  20.133  39.098  14.294
62730W        W35155  34.013  37.454   4.413
62731W        W35156  26.760  18.656  11.919
62732W        W35157  22.264  16.525   1.702
62733W        W35158  18.607  18.386  13.753
62734W        W35159  22.627  21.944  14.789
62735W        W35160  13.662   4.848   1.740
62736W        W35161  34.115   3.895  10.687
62737W        W35162  22.616  38.616   3.350
62738W        W35163  25.133  14.466  10.725
62739W        W35164   6.449  14.718  12.848
62740W        W35165  19.942   0.276  12.934
62741W        W35166   0.481  16.344  12.614
62742W        W35167  32.179  30.007  12.954
62743W        W35168  21.220  12.034  12.961
62744W        W35169  28.011  23.197   2.830
62745W        W35170  30.504  35.873  14.854
62746W        W35171  21.967  28.240   1.454
62747W        W35172  43.092  14.717   4.290
62748W        W35173   8.969  38.453   1.708
62749W        W35174   3.178  23.062  12.468
62750W        W35175   7.287  36.473   1.442
62751W        W35176  10.804  19.271  14.100
62752W        W35177   5.418  41.554   0.847
62753W        W35178  28.199   1.047   1.279
62754W        W35179   7.926  15.694   4.217
62755W        W35180  15.550  28.090   2.201
62756W        W35181  40.524  21.524  11.594
62757W        W35182  13.492  30.344  11.216
62758W        W35183   5.915  39.265  11.596
62759W        W35184  20.873  38.577   2.870
62760W        W35185  11.976  18.703  14.851
62761W        W35186  25.499   9.108  11.945
62762W        W35187  41.043  18.145   3.562
62763W        W35188   5.392  11.194   0.867
62764W        W35189  14.086  30.346   2.246
62765W        W35190   8.069   8.031   4.815
62766W        W35191  10.615  29.698   3.347
62767W        W35192  44.492  28.352  11.612
62768W        W35193  18.798  33.873   0.342
62769W        W35194  30.606  19.465  11.541
62770W        W35195   4.434   9.121  14.887
62771W        W35196  27.989  10.918  12.938
62772W        W35197  32.106  26.309  14.840
62773W        W35198  42.978  42.100  10.623
62774W        W35199  23.546  31.718  14.870
62775W        W35200  30.425  31.474   0.911
62776W        W35201   9.646  12.847  12.754
62777W        W35202  44.779  19.184   3.614
62778W        W35203  40.979  40.528  14.942
62779W        W35204  35.488  39.092  12.864
62780W        W35205  24.986  17.129  13.309
62781W        W35206  34.537  14.102  12.703
62782W        W35207  31.539  34.039   3.623
62783W        W35208  32.862  30.521   4.615
62784W        W35209  24.704  23.090  14.452
62785W        W35210  27.401  27.228   1.027
62786W        W35211  35.392   6.530   1.194
62787W        W35212  22.743  24.679   2.315
62788W        W35213  22.819   6.873   3.336
62789W        W35214  11.814   0.729  13.007
62790W        W35215  40.863  43.218  12.894
62791W        W35216  12.266  21.567  11.451
62792W        W35217   2.786  23.839   1.379
62793W        W35218   8.031  17.211   2.459
62794W        W35219  28.166  16.599   4.024
62795W        W35220  13.080  22.749  13.966
62796W        W35221  27.199  21.111  10.513
62797W        W35222  16.617  37.809   1.397
62798W        W35223  23.975   5.743  11.170
62799W        W35224  15.161  38.897   4.500
62800W        W35225   5.271  22.211  11.906
62801W        W35226   1.964  20.783  13.548
62802W        W35227  40.006  31.856  14.810
62803W        W35228   0.032   8.807   5.112
62804W        W35229   3.547   9.229   2.313
62805W        W35230  16.251  12.350   4.577
62806W        W35231  28.803   5.831  12.938
62807W        W35232   0.777  31.378  11.563
62808W        W35233  20.092  17.158   1.231
62809W        W35234  19.614  43.823  13.058
62810W        W35235  44.838  33.180   3.573
62811W        W35236  12.980  22.991   1.454
62812W        W35237  13.264  22.056   0.468
62813W        W35238   1.879   2.702  13.107
62814W        W35239  21.024  43.101   4.671
62815W        W35240  28.548  28.284  10.852
62816W        W35241  23.452  36.185  12.322
62817W        W35242  32.318  27.152  12.987
62818W        W35243  39.795   1.219  11.988
62819W        W35244  19.737  17.649   2.935
62820W        W35245  43.681  22.091   1.102
62821W        W35246  34.027   5.933  14.295
62822W        W35247  34.601  44.227   3.689
62823W        W35248  35.072  44.389   3.911
62824W        W35249  14.332   4.294  11.523
62825W        W35250  33.987  22.969   1.821
62826W        W35251  12.348  34.857  10.659
62827W        W35252  20.035  39.027   3.186
62828W        W35253  27.053   1.549   4.334
62829W        W35254  16.099   9.264  14.692
62830W        W35255  14.020   5.381   2.400
62831W        W35256  24.034  38.989   3.166
62832W        W35257  40.207   7.908   4.592
62833W        W35258  21.718   5.681  14.305
62834W        W35259   8.921  12.533   1.520
62835W        W35260   4.219  16.624  14.460
62836W        W35261   4.816  31.501  11.162
62837W        W35262  12.661  42.224   0.021
62838W        W35263  19.270  26.070   4.852
62839W        W35264  23.445   0.245  10.700
62840W        W35265   0.024  42.844   0.722
62841W        W35266  26.457  32.161   0.460
62842W        W35267  29.119  40.955  14.864
62843W        W35268  39.895  10.653  10.667
62844W        W35269  17.163  42.943  13.805
62845W        W35270   0.660  30.572   1.820
62846W        W35271  20.077   4.079  14.015
62847W        W35272  25.948  38.078   3.272
62848W        W35273  37.130  16.600   0.741
62849W        W35274  40.752  29.885   0.601
62850W        W35275  10.712  23.214  11.446
62851W        W35276  42.618  27.402   1.377
62852W        W35277  38.859   1.265  14.775
62853W        W35278  21.186  22.460  12.299
62854W        W35279  24.134  41.681   4.939
62855W        W35280  23.435   7.612  11.166
62856W        W35281  37.871   3.288   0.812
62857W        W35282   2.463  24.364   2.727
62858W        W35283  22.111  44.473   2.371
62859W        W35284  21.458  20.482  11.481
62860W        W35285  22.683   5.747  13.631
62861W        W35286  34.714  43.156  12.552
62862W        W35287  10.225  42.420  12.983
62863W        W35288  39.777   6.809   0.394
62864W        W35289   8.325  43.986  12.529
62865W        W35290  15.142  33.926   5.011
62866W        W35291  33.647  28.236   4.815
62867W        W35292   2.128  39.186  10.118
62868W        W35293  40.854  32.661   3.094
62869W        W35294  28.162  12.190   4.725
62870W        W35295  24.510  28.866   0.566
62871W        W35296  35.449  16.533  14.907
62872W        W35297   3.398   5.722  11.483
62873W        W35298   8.555   7.909  14.017
62874W        W35299  35.097  37.595  14.818
62875W        W35300  20.568  34.960  13.058
62876W        W35301   9.149   9.737  13.631
62877W        W35302  21.773  33.709   2.361
62878W        W35303  23.614  17.765   0.450
62879W        W35304   4.309   3.232   1.723
62880W        W35305  27.475  43.959  13.824
62881W        W35306   7.088  28.963   3.796
62882W        W35307   1.666  40.239  12.131
62883W        W35308   7.419  34.069  11.146
62884W        W35309   1.265  34.836  11.163
62885W        W35310  20.696  25.528  11.059
62886W        W35311  21.714  23.170  12.622
62887W        W35312  33.488   4.586  12.630
62888W        W35313  18.547   2.742  10.634
62889W        W35314   8.800  42.342   3.653
62890W        W35315  24.180  32.650   3.448
62891W        W35316  37.567  26.024  13.981
62892W        W35317  10.792   3.492   1.072
62893W        W35318  23.801  32.457   1.368
62894W        W35319   7.823  21.993   0.524
62895W        W35320  33.541  13.540  11.868
62896W        W35321  26.296   3.655   1.014
62897W        W35322  44.218  33.668  11.212
62898W        W35323  14.015   9.513  14.262
62899W        W35324   3.692   4.634  12.543
62900W        W35325  37.106  43.990  11.160
62901W        W35326  10.268  16.102   2.319
62902W        W35327  26.734   4.742   0.020
62903W        W35328  20.229  23.233  13.865
62904W        W35329   2.251  44.797  12.941
62905W        W35330  13.571  34.883   0.067
62906W        W35331  18.685  39.878   4.639
62907W        W35332   6.115   3.798  14.319
62908W        W35333  15.602  23.888  14.898
62909W        W35334  32.846   1.301   2.739
62910W        W35335   1.801  34.995   0.176
62911W        W35336  26.687  19.786   0.507
62912W        W35337  20.635  20.667   2.833
62913W        W35338  30.438  14.887  11.172
62914W        W35339  28.605  34.426   1.619
62915W        W35340  31.014  36.349  12.484
62916W        W35341  27.640  31.063  11.264
62917W        W35342  44.789  32.914   3.150
62918W        W35343  33.010   6.468   0.201
62919W        W35344  12.503  10.902   1.743
62920W        W35345  27.069  11.367  14.303
62921W        W35346  25.639   5.249  14.839
62922W        W35347  17.762  16.038   0.799
62923W        W35348  16.310  31.041  12.031
62924W        W35349   2.675  14.679   1.216
62925W        W35350   1.210  42.852   2.401
62926W        W35351   0.645  44.423   0.507
62927W        W35352  35.824  21.591   1.352
62928W        W35353  32.166  42.603   1.831
62929W        W35354  13.636  29.402   0.340
62930W        W35355   0.734  43.163  11.159
62931W        W35356  33.071  42.429   4.135
62932W        W35357  15.278  31.398  14.372
62933W        W35358   2.942  35.010  10.736
62934W        W35359  31.949   2.475   4.725
62935W        W35360   7.857  23.739   1.316
62936W        W35361  20.463  20.695  12.819
62937W        W35362  13.797   4.981   2.685
62938W        W35363   7.651  39.997   5.154
62939W        W35364  25.542  37.453   2.317
62940W        W35365  25.818  13.919   1.853
62941W        W35366  32.413  16.858   4.656
62942W        W35367  15.362  28.866  11.640
62943W        W35368  32.656   0.772   4.562
62944W        W35369  13.860  31.412  14.424
62945W        W35370  34.918  32.103  11.943
62946W        W35371   3.291  15.589   0.256
62947W        W35372  20.133  17.377  12.381
62948W        W35373  43.470  18.711  12.599
62949W        W35374  32.590  34.903   0.347
62950W        W35375  11.429   5.026  10.864
62951W        W35376  11.319  34.352   2.701
62952W        W35377  11.925  22.989   2.497
62953W        W35378   7.246  27.561  13.970
62954W        W35379  36.906  25.659   4.336
62955W        W35380  19.105  29.658  12.440
62956W        W35381  31.652  14.221   3.691
62957W        W35382  28.909  42.081  11.787
62958W        W35383  41.119  30.571  14.486
62959W        W35384  44.366  33.126  12.948
62960W        W35385  16.204  14.048   1.769
62961W        W35386  44.415  30.537   1.206
62962W        W35387   1.898  14.508   2.267
62963W        W35388  25.923  15.726  10.744
62964W        W35389  41.536  11.773   4.252
62965W        W35390  24.267  12.391  10.759
62966W        W35391  32.485  37.540   1.298
62967W        W35392  22.255  30.462  11.891
62968W        W35393  16.787   7.815  12.458
62969W        W35394  40.992  26.130  13.050
62970W        W35395  33.617  21.992   3.289
62971W        W35396  19.224  25.631   1.683
62972W        W35397  24.125  32.024  13.496
62973W        W35398  17.271  34.681   4.152
62974W        W35399  35.582   2.903  14.522
62975W        W35400   5.787  26.123  13.888
62976W        W35401   5.891  30.320   3.978
62977W        W35402  18.927  42.319  14.326
62978W        W35403  12.779   4.260   1.218
62979W        W35404   5.714  30.715  13.444
62980W        W35405   7.670  39.963  13.457
62981W        W35406  44.368   0.082  12.405
62982W        W35407   1.623   6.797  12.998
62983W        W35408  38.424   9.711  14.244
62984W        W35409  28.535   2.899   0.943
62985W        W35410   6.283  37.595  14.865
62986W        W35411  31.388  27.045  14.981
62987W        W35412  21.031  21.299   4.023
62988W        W35413  30.237  18.607   0.800
62989W        W35414  22.983  13.265   1.854
62990W        W35415  18.011   3.497  11.749
62991W        W35416  14.740  42.023  12.607
62992W        W35417  43.276   5.741   1.211
62993W        W35418   1.855  28.878   4.572
62994W        W35419  44.438  15.217   1.809
62995W        W35420  25.561  23.485   3.604
62996W        W35421   0.370  21.156   0.354
62997W        W35422   2.981  43.011   0.919
62998W        W35423  10.150  44.975  14.107
62999W        W35424  28.421   0.814   3.659
63000W        W35425  35.962  43.415   2.835
63001W        W35426  37.961  19.225   4.672
63002W        W35427  34.457   7.394   1.663
63003W        W35428  30.642   8.645  11.097
63004W        W35429  16.590  36.578  13.153
63005W        W35430  31.965   5.394  10.953
63006W        W35431  18.787  28.005   4.539
63007W        W35432  32.070  39.068  12.634
63008W        W35433  29.711  39.894  12.549
63009W        W35434   0.940   3.527   4.913
63010W        W35435  33.815  35.466   1.229
63011W        W35436   0.285  18.745  13.468
63012W        W35437  12.829  43.321  14.418
63013W        W35438  23.221   5.697  10.737
63014W        W35439  35.776  26.281  12.636
63015W        W35440  21.596  13.046   4.739
63016W        W35441  41.906  21.810   1.791
63017W        W35442  29.868  21.058   4.174
63018W        W35443   7.680  15.057  11.626
63019W        W35444  17.049  34.501  12.360
63020W        W35445  39.824  38.622   1.778
63021W        W35446  39.950   5.141   2.897
63022W        W35447  28.105  13.855  13.013
63023W        W35448  42.811  24.234   3.213
63024W        W35449   8.367  37.415   3.378
63025W        W35450  37.793  21.991   2.190
63026W        W35451   2.138  23.947  11.565
63027W        W35452   2.814  18.647   4.839
63028W        W35453  28.003  11.216  10.620
63029W        W35454  41.486  26.056   4.841
63030W        W35455  31.407  16.743  14.081
63031W        W35456   6.799  22.573   1.117
63032W        W35457  11.837  20.211  12.062
63033W        W35458  38.478   4.428  10.589
63034W        W35459  35.547  28.569   3.203
63035W        W35460  38.965   0.523   0.460
63036W        W35461  26.723  13.351   2.989
63037W        W35462   7.210  14.080  13.978
63038W        W35463  18.236  42.913  10.964
63039W        W35464  37.537  42.974   2.167
63040W        W35465  20.540  36.656   2.324
63041W        W35466  15.594  40.903  11.547
63042W        W35467  35.017   4.191   3.139
63043W        W35468   4.433  20.882   2.404
63044W        W35469  35.476   0.970   3.052
63045W        W35470  27.131  38.407   0.311
63046W        W35471  20.547  31.385  11.138
63047W        W35472  13.861  35.400  12.735
63048W        W35473   5.790  19.193   1.573
63049W        W35474  16.439  25.286  14.334
63050W        W35475  28.072   9.322   3.874
63051W        W35476  43.474   8.834   1.907
63052W        W35477  35.464  20.115   3.642
63053W        W35478   0.016  14.686  12.156
63054W        W35479   1.682  32.639  13.323
63055W        W35480  42.818  41.048   1.494
63056W        W35481   9.678  37.142   4.541
63057W        W35482   0.428  42.743  13.965
63058W        W35483  41.782  17.680  11.996
63059W        W35484  25.989  35.567  11.734
63060W        W35485  13.900  29.488   3.661
63061W        W35486  23.213   6.767  13.935
63062W        W35487   3.314  40.899  12.468
63063W        W35488   9.702  43.031  11.914
63064W        W35489  44.031  12.992   3.807
63065W        W35490   9.241  42.442   2.282
63066W        W35491   3.207  20.760   0.247
63067W        W35492  39.929  16.490  14.841
63068W        W35493  36.104  27.487  12.407
63069W        W35494   4.740  37.644  12.971
63070W        W35495  13.683  25.090  12.314
63071W        W35496  33.392  11.297   1.207
63072W        W35497  44.774  26.927  13.880
63073W        W35498  30.360  16.061  14.864
63074W        W35499   7.859   5.775  12.206
63075W        W35500  28.499  28.092  12.605
63076W        W35501   5.427   1.768   1.715
63077W        W35502  44.845  41.093  10.627
63078W        W35503  43.107  11.782   1.745
63079W        W35504  10.226  19.328   4.968
63080W        W35505   7.161  28.494  10.607
63081W        W35506   4.317  23.133   0.974
63082W        W35507   8.153  37.465  12.250
63083W        W35508  33.956   4.150   1.814
63084W        W35509  29.170  20.188   1.714
63085W        W35510  12.134  15.350   1.873
63086W        W35511  27.610  10.917   1.734
63087W        W35512  15.199  22.580   1.899
63088W        W35513  17.103  41.799   3.450
63089W        W35514  34.570   3.250   0.834
63090W        W35515   2.978  12.532   0.804
63091W        W35516  36.512  42.240   0.262
63092W        W35517  11.106  38.019  11.966
63093W        W35518  42.811  11.408   1.443
63094W        W35519  16.125  10.111  11.749
63095W        W35520  43.601  40.815   4.842
63096W        W35521  14.645  34.219  10.064
63097W        W35522  38.832  14.020   1.213
63098W        W35523  23.631  10.247  10.449
63099W        W35524  17.253  35.202   9.594
63100W        W35525   2.723   8.387   2.260
63101W        W35526  17.807  38.144   2.777
63102W        W35527  40.543   6.313   2.412
63103W        W35528   1.032   8.314  14.245
63104W        W35529  41.767   7.908   0.324
63105W        W35530  20.711  41.926  10.865
63106W        W35531  40.886  26.225  12.539
63107W        W35532   6.740  32.350  12.422
63108W        W35533   6.857  33.660  12.059
63109W        W35534  27.247  40.906   5.023
63110W        W35535  25.862   8.869  11.582
63111W        W35536   8.217  41.625   3.629
63112W        W35537  32.073   5.237  13.336
63113W        W35538  25.100  25.604   0.254
63114W        W35539   1.302  24.479  10.789
63115W        W35540  42.037  12.126  12.548
63116W        W35541  18.992  29.154  14.796
63117W        W35542  35.356  32.883  12.859
63118W        W35543  29.923  38.308  14.517
63119W        W35544  39.845  17.868   2.264
63120W        W35545  27.631  20.520   3.704
63121W        W35546  22.652  24.682  13.971
63122W        W35547  25.151  42.529   1.789
63123W        W35548  35.093  31.011  11.071
63124W        W35549  43.198   1.070   0.483
63125W        W35550  22.597   1.848  12.446
63126W        W35551  23.762  33.639  13.764
63127W        W35552  18.589   0.941  13.882
63128W        W35553  13.349  32.599   0.327
63129W        W35554  38.803   4.371   4.166
63130W        W35555  13.279  43.382  11.671
63131W        W35556   5.022  25.400   4.958
63132W        W35557  31.744   3.248  14.839
63133W        W35558  34.726  15.610   3.436
63134W        W35559  34.977  41.605  11.626
63135W        W35560  27.981  33.888   5.028
63136W        W35561  16.162  32.557  14.548
63137W        W35562  20.126  24.180   0.265
63138W        W35563  39.322  42.935  11.353
63139W        W35564  34.158  29.547   0.182
63140W        W35565  36.868  41.071   1.730
63141W        W35566  33.592  30.208  13.003
63142W        W35567  19.542  40.507   4.708
63143W        W35568  17.451   3.326   1.043
63144W        W35569  23.054   5.186  12.653
63145W        W35570  44.822  37.728   4.286
63146W        W35571   7.075   5.351   4.514
63147W        W35572  35.060   7.371   4.955
63148W        W35573  37.096  27.951   2.332
63149W        W35574   7.174  16.228   2.206
63150W        W35575   9.748   8.753   4.130
63151W        W35576  12.699  44.421  10.621
63152W        W35577  10.808  11.814  13.008
63153W        W35578  41.898  11.244  14.964
63154W        W35579  20.240  21.836  11.498
63155W        W35580  10.845  22.291   1.227
63156W        W35581  10.317  31.895  13.497
63157W        W35582   6.707  22.800  13.395
63158W        W35583  36.775  10.681  14.007
63159W        W35584  14.553  24.979  11.541
63160W        W35585   1.512  36.506   4.534
63161W        W35586  15.871  22.127   1.891
63162W        W35587  39.198  35.080   3.843
63163W        W35588  29.007   1.234   0.683
63164W        W35589  19.511   8.224  10.873
63165W        W35590  33.396  39.901   4.264
63166W        W35591  43.313  15.435  12.861
63167W        W35592  26.629  20.735  14.103
63168W        W35593  41.513  28.909  11.880
63169W        W35594  44.475  44.722  13.379
63170W        W35595  30.996  28.421   4.136
63171W        W35596  43.200   4.717  13.875
63172W        W35597   5.986   7.501   2.682
63173W        W35598  21.462   1.815   3.785
63174W        W35599   1.165  11.801   3.906
63175W        W35600   8.808  42.270  13.179
63176W        W35601  33.377  37.873  14.801
63177W        W35602  33.632  27.295  10.158
63178W        W35603  10.292  12.706  11.074
63179W        W35604  10.053  44.921   0.145
63180W        W35605  22.497   1.046  11.975
63181W        W35606   1.373  29.475   1.975
63182W        W35607  26.331   5.664   0.865
63183W        W35608  32.045  32.950  11.228
63184W        W35609  19.084  35.577  11.054
63185W        W35610  10.217  41.421  12.969
63186W        W35611   5.193  33.467   3.661
63187W        W35612  14.393   1.770  13.375
63188W        W35613  32.058   7.865   0.538
63189W        W35614  22.163  28.980  12.041
63190W        W35615   9.282  10.854   4.401
63191W        W35616  15.076   8.467   1.706
63192W        W35617  26.124  34.173  11.622
63193W        W35618  38.425  20.236  13.945
63194W        W35619  16.008   8.694  10.751
63195W        W35620  36.694  13.276  13.991
63196W        W35621  39.866  40.261   3.066
63197W        W35622   7.327  12.270   4.120
63198W        W35623   5.679   1.760   0.825
63199W        W35624  36.557   9.604   1.896
63200W        W35625  39.463  41.283   3.259
63201W        W35626  31.878  21.665   2.249
63202W        W35627  35.439  20.772  11.573
63203W        W35628   1.459  44.514   0.860
63204W        W35629  16.454   0.564   3.171
63205W        W35630  32.596  24.447  11.177
63206W        W35631  21.555  38.322   4.107
63207W        W35632  38.429   1.360   3.277
63208W        W35633   8.347  37.520  13.111
63209W        W35634   1.307  21.879  14.256
63210W        W35635  26.777  37.668   2.834
63211W        W35636  32.344   3.498  12.949
63212W        W35637   3.118  18.000  11.633
63213W        W35638  11.852  41.574  13.395
63214W        W35639  14.336  38.776   0.267
63215W        W35640  32.729  36.437   4.826
63216W        W35641  43.017   1.462  11.199
63217W        W35642  23.650  24.835  12.061
63218W        W35643   8.206  34.641   4.293
63219W        W35644   4.838  40.784   4.227
63220W        W35645  35.076  25.554   1.625
63221W        W35646  37.050   4.057  13.343
63222W        W35647  14.939  35.577   0.627
63223W        W35648  29.661  16.789  13.932
63224W        W35649  12.838  34.026  11.711
63225W        W35650   5.259  25.923   2.159
63226W        W35651  24.657  25.542  13.889
63227W        W35652   7.899   7.858   4.086
63228W        W35653  21.388  35.507   1.784
63229W        W35654   2.945  31.983  11.625
63230W        W35655   9.956  33.804  12.612
63231W        W35656  40.284  27.316   1.777
63232W        W35657   7.581   5.250  12.842
63233W        W35658   5.279  16.735   3.854
63234W        W35659  23.694  12.597   0.913
63235W        W35660   9.495   4.903  13.884
63236W        W35661   3.726  31.154   0.289
63237W        W35662   7.943  42.316   1.850
63238W        W35663  37.843  23.561   4.530
63239W        W35664   6.430  23.642  10.897
63240W        W35665  12.249  38.179  12.531
63241W        W35666  31.933   1.718   1.889
63242W        W35667  18.750   5.365   1.511
63243W        W35668   8.214  36.044   1.903
63244W        W35669  32.084   9.855  14.482
63245W        W35670  12.622  24.132   0.979
63246W        W35671   4.873  40.382  14.679
63247W        W35672  13.176   7.889  14.762
63248W        W35673   6.487  29.618  10.078
63249W        W35674  14.533  33.567  11.941
63250W        W35675  18.087  27.061   0.363
63251W        W35676  14.795  25.696  11.985
63252W        W35677  17.830  25.727  11.945
63253W        W35678  44.064  26.171   1.301
63254W        W35679  16.925  21.269  10.800
63255W        W35680  38.856  13.887   3.623
63256W        W35681   5.212  20.546   0.513
63257W        W35682  44.194   3.663   0.057
63258W        W35683   6.658  41.798  11.190
63259W        W35684  31.512  20.815   3.130
63260W        W35685  19.375  33.691   0.485
63261W        W35686  29.994  26.418  10.941
63262W        W35687  28.870   5.714   0.901
63263W        W35688  44.832  30.813   1.652
63264W        W35689  23.631  14.766   3.906
63265W        W35690  15.178   5.418   3.115
63266W        W35691  39.838  24.645  11.957
63267W        W35692  42.497  15.056  14.292
63268W        W35693   0.186  22.286   3.358
63269W        W35694  33.173   6.248   0.643
63270W        W35695  42.518  41.294   3.730
63271W        W35696  42.935  30.120   4.611
63272W        W35697  29.632  43.465  12.917
63273W        W35698  17.805  16.266   0.326
63274W        W35699  44.292  24.592   0.886
63275W        W35700  17.331  28.338  11.968
63276W        W35701  10.589  37.080  14.906
63277W        W35702  44.778  35.005  11.333
63278W        W35703  40.951  12.263   2.727
63279W        W35704  39.493  40.259   4.836
63280W        W35705  34.361  13.200  10.822
63281W        W35706  15.320  40.241   3.653
63282W        W35707  18.226   9.237  12.934
63283W        W35708  31.568  10.660  14.387
63284W        W35709  33.946  14.322  10.367
63285W        W35710  26.784  31.378  12.021
63286W        W35711  32.446  39.295  10.961
63287W        W35712  24.774   7.101  12.248
63288W        W35713  25.267  28.443  12.261
63289W        W35714  29.359   9.665   0.063
63290W        W35715   7.213   3.425  13.939
63291W        W35716   0.955  40.269   4.564
63292W        W35717  20.198   6.075  12.136
63293W        W35718  19.987  21.937  14.892
63294W        W35719  21.972   1.876   3.671
63295W        W35720  28.000  28.719   2.738
63296W        W35721  44.365  42.517   4.558
63297W        W35722  37.396  44.092  13.355
63298W        W35723  23.118  37.280   3.297
63299W        W35724   6.338  17.545  13.511
63300W        W35725  18.167  11.598   3.363
63301W        W35726  28.856  41.006   4.930
63302W        W35727  21.033  27.280  14.808
63303W        W35728   7.747  14.321  12.087
63304W        W35729  29.101  26.005  13.921
63305W        W35730   8.775  26.670  13.445
63306W        W35731   3.926  30.986  11.313
63307W        W35732   2.066  12.039  12.350
63308W        W35733  40.068  23.021  10.619
63309W        W35734  26.404  22.660   4.641
63310W        W35735  23.716  14.711   0.164
63311W        W35736  10.906  35.897   3.070
63312W        W35737  38.671  40.542   4.882
63313W        W35738  19.164   5.657   3.195
63314W        W35739   7.126  38.239  13.955
63315W        W35740  39.813   1.888  13.491
63316W        W35741   1.979  40.632  11.576
63317W        W35742  32.573   8.483   1.232
63318W        W35743  21.218  28.171   1.538
63319W        W35744  23.714  15.214   3.174
63320W        W35745  15.272   1.037   1.631
63321W        W35746  16.754  33.281   1.623
63322W        W35747  21.008  18.821   4.165
63323W        W35748  38.112  25.103  14.819
63324W        W35749  38.070  13.845  12.096
63325W        W35750  28.061  41.595  11.027
63326W        W35751  13.558  23.529  13.567
63327W        W35752  40.982  12.879  14.105
63328W        W35753  32.600  28.339   1.272
63329W        W35754  11.223  17.313  11.013
63330W        W35755  40.829   0.980   1.336
63331W        W35756  38.066   9.950   2.746
63332W        W35757  25.979   2.598   3.354
63333W        W35758   1.947  15.693   1.842
63334W        W35759  35.541  15.541  12.336
63335W        W35760  40.488  22.546  11.234
63336W        W35761  42.850   0.014  11.180
63337W        W35762  11.870  23.421  12.951
63338W        W35763   3.822  13.637   4.157
63339W        W35764  21.180  15.599   1.934
63340W        W35765   3.242  39.850  10.689
63341W        W35766  17.624  22.720   0.902
63342W        W35767  44.675  18.241   4.470
63343W        W35768  43.973  19.831   2.258
63344W        W35769  21.110  39.264   0.959
63345W        W35770  15.177  28.963   1.864
63346W        W35771  29.011  10.590   2.881
63347W        W35772  32.074   1.817  10.188
63348W        W35773  27.631  38.774   4.639
63349W        W35774  35.984   8.958  12.768
63350W        W35775  28.826  13.408   3.773
63351W        W35776   1.898  21.654   3.727
63352W        W35777  20.737  44.311   3.370
63353W        W35778   4.052  10.750   0.466
63354W        W35779  17.717   8.886  10.655
63355W        W35780  19.113  16.990   0.807
63356W        W35781   4.309   1.304   0.934
63357W        W35782  24.436  35.972  12.431
63358W        W35783   6.697   4.021  10.904
63359W        W35784   9.813  36.800  12.998
63360W        W35785   7.798  10.759   4.620
63361W        W35786  17.198  30.417   0.424
63362W        W35787  40.220  42.707   4.618
63363W        W35788  41.787   6.911  13.453
63364W        W35789   1.805   9.422  13.807
63365W        W35790  32.882  18.853   2.155
63366W        W35791  42.894  33.786  12.050
63367W        W35792  29.209  31.850  11.595
63368W        W35793  22.773  25.219   3.205
63369W        W35794  12.637   4.670  11.761
63370W        W35795   9.135   5.709  11.036
63371W        W35796  17.799  27.559  11.597
63372W        W35797   1.310  27.712   3.685
63373W        W35798  23.558  25.046  11.555
63374W        W35799  11.770  32.038   0.987
63375W        W35800  28.142  14.330  12.025
63376W        W35801   5.255  19.482   4.461
63377W        W35802   3.747  22.798  12.986
63378W        W35803  43.628  44.402   3.663
63379W        W35804   5.636  43.362  12.554
63380W        W35805  32.155  41.084  12.889
63381W        W35806  31.661  23.684  13.240
63382W        W35807  42.868   8.309   2.603
63383W        W35808  18.248  33.162  11.559
63384W        W35809  16.273  30.446   0.432
63385W        W35810  42.100  17.755  13.580
63386W        W35811  28.622  13.379   4.278
63387W        W35812   0.376  36.962   3.149
63388W        W35813  16.569  20.812   0.198
63389W        W35814  34.094   0.887   2.920
63390W        W35815  32.699   9.894  12.488
63391W        W35816  37.494   5.500   3.352
63392W        W35817  18.325  12.745  11.668
63393W        W35818   2.570  18.071  12.445
63394W        W35819  14.514  42.957  13.297
63395W        W35820  43.425   5.747   3.855
63396W        W35821  42.979  34.096  14.484
63397W        W35822  38.717  34.952  13.991
63398W        W35823  30.413  25.239   1.663
63399W        W35824  37.196  10.099  10.213
63400W        W35825   0.182   7.807  14.858
63401W        W35826  15.878  44.342  12.887
63402W        W35827  37.347  31.370   1.887
63403W        W35828  42.116   7.295   2.198
63404W        W35829  27.156   1.162   0.277
63405W        W35830  17.048  17.199   4.081
63406W        W35831   1.452  34.895   2.679
63407W        W35832   5.267  22.952  14.931
63408W        W35833   4.016  15.837   2.899
63409W        W35834  25.181   8.836   1.668
63410W        W35835  11.321   7.286   2.883
63411W        W35836   7.606  26.543  10.485
63412W        W35837  18.564  28.899  11.450
63413W        W35838  17.836  27.152   3.914
63414W        W35839  25.661  42.947  12.561
63415W        W35840  35.817  40.689  13.349
63416W        W35841   6.343  28.381   1.981
63417W        W35842   3.224   1.407  12.466
63418W        W35843  10.921  31.879   0.417
63419W        W35844  27.589   1.256   0.663
63420W        W35845  40.451  31.558  14.824
63421W        W35846  18.805  19.046  11.838
63422W        W35847  29.549   4.221  10.789
63423W        W35848   3.765  17.707  13.364
63424W        W35849  36.618   1.324   3.198
63425W        W35850  17.818  23.908  13.486
63426W        W35851  34.901  34.464   1.325
63427W        W35852  40.248  33.864  11.877
63428W        W35853  43.486  36.080  12.485
63429W        W35854  27.046  23.474  14.413
63430W        W35855   9.352  32.128   0.890
63431W        W35856  36.212  14.129   1.177
63432W        W35857  24.887  37.528   1.969
63433W        W35858  10.484  28.617   3.605
63434W        W35859   3.914  10.122   4.284
63435W        W35860   3.115  13.123  11.625
63436W        W35861  32.346  39.481   3.122
63437W        W35862   4.933  33.857  13.035
63438W        W35863  32.881  38.217   3.242
63439W        W35864  22.657  35.760   4.802
63440W        W35865  12.088   8.414   2.708
63441W        W35866  16.841  15.161   2.251
63442W        W35867   9.640  44.754   2.302
63443W        W35868   5.478  42.222   3.394
63444W        W35869  22.909   5.371   4.277
63445W        W35870  14.817  23.675   4.198
63446W        W35871  36.099   7.179  13.491
63447W        W35872   7.978  22.982  10.817
63448W        W35873   2.210  20.836   3.837
63449W        W35874   7.539  41.112   4.266
63450W        W35875   3.737  30.343   4.078
63451W        W35876  32.663  37.431  14.383
63452W        W35877  16.521  25.786   0.862
63453W        W35878  19.274  14.320  13.423
63454W        W35879  36.571  13.652   3.229
63455W        W35880  36.257  16.774   3.464
63456W        W35881   8.845  19.860   2.373
63457W        W35882  28.141  18.828  11.065
63458W        W35883  43.559   2.017   0.183
63459W        W35884  16.249   6.656  14.306
63460W        W35885  37.684  40.773  11.595
63461W        W35886  20.031  16.633  11.084
63462W        W35887  25.484   3.413   3.643
63463W        W35888   6.275  14.124  14.016
63464W        W35889  29.427  13.778  12.584
63465W        W35890  43.230  25.724   3.128
63466W        W35891  19.269  23.668   0.486
63467W        W35892  19.355  10.691   3.158
63468W        W35893  24.716   5.647   4.275
63469W        W35894  28.374   8.784  11.989
63470W        W35895  27.013   3.889  11.227
63471W        W35896  10.076  36.385  11.047
63472W        W35897  20.112   3.249  10.664
63473W        W35898  29.877   1.541  14.732
63474W        W35899   3.774  28.613   1.022
63475W        W35900   0.182  14.658   1.932
63476W        W35901  40.914  31.797  12.037
63477W        W35902  38.021  38.297  12.459
63478W        W35903  42.550   3.224  13.572
63479W        W35904  27.690  16.730  12.388
63480W        W35905  10.342  20.794  14.833
63481W        W35906  29.539   6.658  12.055
63482W        W35907   5.040  44.065   2.848
63483W        W35908  41.344  12.118  12.841
63484W        W35909  23.204  37.560  14.546
63485W        W35910   5.635   6.303   4.151
63486W        W35911  20.071  11.166   3.569
63487W        W35912  35.535   7.440   4.716
63488W        W35913  33.197   8.115  12.189
63489W        W35914  38.815  24.227   1.666
63490W        W35915   5.224  24.246   3.190
63491W        W35916   8.793  28.038   1.168
63492W        W35917  34.311  43.514  10.693
63493W        W35918  23.728  43.591  12.528
63494W        W35919  30.278  33.200   4.953
63495W        W35920  40.023  18.835  13.158
63496W        W35921  44.905   8.491   2.366
63497W        W35922   9.837  37.638  11.700
63498W        W35923  27.729  25.305  12.884
63499W        W35924  12.391  30.916  12.967
63500W        W35925   0.336  13.286  14.321
63501W        W35926  25.915  14.018  11.792
63502W        W35927   5.900   2.807  12.802
63503W        W35928  43.007  41.686  12.064
63504W        W35929   8.992   8.855   4.040
63505W        W35930  12.198  35.320   2.638
63506W        W35931   3.836  11.229  13.044
63507W        W35932   2.350  32.531   1.194
63508W        W35933  14.829  24.644   3.803
63509W        W35934  20.682  44.928   2.710
63510W        W35935   6.286  25.212   0.931
63511W        W35936   8.868  39.781   2.425
63512W        W35937  42.865   8.227   3.667
63513W        W35938  26.487  44.512  13.984
63514W        W35939  12.457  27.928   4.134
63515W        W35940  41.454  10.108   4.658
63516W        W35941  39.999  22.981   1.341
63517W        W35942   9.591  17.625  11.528
63518W        W35943   1.705   8.223   1.275
63519W        W35944   9.148  33.523   4.149
63520W        W35945  26.732  38.108  11.112
63521W        W35946  19.024  15.568   1.978
63522W        W35947  40.310   4.615   5.067
63523W        W35948   8.386  24.111  12.156
63524W        W35949   6.525   1.439  11.161
63525W        W35950  24.393   5.197   2.314
63526W        W35951   0.297  28.468  11.587
63527W        W35952  18.966  16.625  14.853
63528W        W35953  31.677   5.927   1.252
63529W        W35954  36.361  36.972   4.735
63530W        W35955  42.424  22.752   3.317
63531W        W35956  39.942  33.223   1.727
63532W        W35957  32.479  24.737   2.774
63533W        W35958   2.355  30.452   4.145
63534W        W35959  24.005  38.411   3.279
63535W        W35960   3.040  44.017   0.057
63536W        W35961  34.106   3.935   1.183
63537W        W35962  17.962   5.365   3.320
63538W        W35963  31.153   1.838  12.673
63539W        W35964  41.633   5.433   4.109
63540W        W35965   5.225  12.131   1.819
63541W        W35966  40.375  12.049  12.559
63542W        W35967  36.461  41.971   4.886
63543W        W35968  25.583  12.871   1.276
63544W        W35969  31.093   7.927   3.784
63545W        W35970  27.883  20.525  11.967
63546W        W35971  34.555   1.794  12.011
63547W        W35972  44.381  15.276  14.038
63548W        W35973   1.268  18.838  13.062
63549W        W35974  20.674  14.787  12.159
63550W        W35975   2.238   0.481  13.433
63551W        W35976  31.493  17.237   4.007
63552W        W35977  21.044  29.953  12.984
63553W        W35978  29.590  37.749   0.725
63554W        W35979  44.442  27.095  10.434
63555W        W35980  16.235  27.585   1.019
63556W        W35981  35.852  19.114  12.196
63557W        W35982   7.857  26.465   0.361
63558W        W35983  24.074   7.614  11.306
63559W        W35984  35.865  10.062   0.898
63560W        W35985   6.026  42.993  14.219
63561W        W35986   7.915   2.341  12.172
63562W        W35987  28.383   4.190   1.769
63563W        W35988  36.578  22.305  14.424
63564W        W35989  37.966   8.770   4.232
63565W        W35990  44.664  29.899   0.484
63566W        W35991  19.662  39.460  13.543
63567W        W35992  18.233  15.125  13.008
63568W        W35993  25.709  35.950  14.773
63569W        W35994  33.452  28.089  13.725
63570W        W35995   4.791  20.920   4.923
63571W        W35996  32.152   9.686   0.858
63572W        W35997  34.521  28.417  11.098
63573W        W35998  28.495   7.118   0.294
63574W        W35999  37.625  10.357  10.164
63575W        W36000   1.110   9.906  13.358
63576W        W36001  44.800  37.013  14.832
63577W        W36002  25.096   0.785  13.059
63578W        W36003  37.751   8.251   1.309
63579W        W36004  25.353  13.790  13.501
63580W        W36005  39.605   1.695  12.089
63581W        W36006  30.419   7.005   3.882
63582W        W36007  40.903  33.475   1.679
63583W        W36008  29.970  26.505  10.433
63584W        W36009  30.079  33.119   1.236
63585W        W36010  34.750  20.548  12.259
63586W        W36011  40.444  15.012   2.802
63587W        W36012   3.208   1.231   3.376
63588W        W36013  34.680   3.972   0.416
63589W        W36014   4.313  27.680   3.269
63590W        W36015  34.865   2.753  11.145
63591W        W36016  19.600  26.925  12.290
63592W        W36017  14.146  36.110  14.457
63593W        W36018   9.137  33.627  14.914
63594W        W36019  34.444  31.111  13.913
63595W        W36020   4.131  39.504   4.084
63596W        W36021  38.619  22.901   0.915
63597W        W36022  42.423  15.148   3.410
63598W        W36023  19.011  44.981   4.536
63599W        W36024   1.024  36.811  12.616
63600W        W36025  14.704  42.480   3.127
63601W        W36026   3.891  35.132  10.273
63602W        W36027  34.141  20.102   3.258
63603W        W36028  42.998  36.860   0.814
63604W        W36029   7.141  20.679   2.388
63605W        W36030  21.522  15.773  12.019
63606W        W36031  19.254  41.367  14.218
63607W        W36032   8.316  10.831   4.574
63608W        W36033   1.275   9.474   2.898
63609W        W36034  21.536   1.001  13.495
63610W        W36035  42.565  24.960   4.304
63611W        W36036  36.470  38.902  13.510
63612W        W36037  34.872  20.050   2.548
63613W        W36038   2.297  35.973  13.337
63614W        W36039   3.908   5.634   1.111
63615W        W36040   8.096  17.674  12.439
63616W        W36041  12.045  22.566  10.034
63617W        W36042  15.595  13.703   3.226
63618W        W36043  22.529  36.360  10.735
63619W        W36044  13.113   2.761   3.074
63620W        W36045   6.975  19.196   3.203
63621W        W36046  23.570  30.590  10.194
63622W        W36047  25.668  37.564   9.872
63623W        W36048  44.981   8.915  12.069
63624W        W36049  17.564  43.947  11.177
63625W        W36050  33.134  14.528   3.566
63626W        W36051  26.056  22.287   4.748
63627W        W36052  44.530  15.532   2.296
63628W        W36053  18.483   0.738   1.751
63629W        W36054  10.903   8.817  12.594
63630W        W36055   6.228  13.624   2.176
63631W        W36056  26.137  10.204   0.831
63632W        W36057  30.218   3.061   1.351
63633W        W36058   6.450  12.052   3.964
63634W        W36059  19.692  43.817  10.735
63635W        W36060  24.658  15.019  12.057
63636W        W36061  17.620  28.549   1.885
63637W        W36062   4.827   5.672   0.259
63638W        W36063  22.302  13.956  14.419
63639W        W36064  36.427  20.544  11.137
63640W        W36065   3.954   0.456   2.754
63641W        W36066  17.323  27.736   4.891
63642W        W36067   4.725  37.865  11.209
63643W        W36068  31.161   2.861   2.860
63644W        W36069  19.548  41.638   0.500
63645W        W36070  44.425  36.986   3.293
63646W        W36071  14.995  37.581   0.627
63647W        W36072   5.984  20.789   0.574
63648W        W36073  15.625  12.109  14.082
63649W        W36074   1.300  18.135   4.753
63650W        W36075   0.016  37.022   1.605
63651W        W36076  42.982  34.518   3.704
63652W        W36077  24.788  19.241  11.147
63653W        W36078  16.843   8.349  13.952
63654W        W36079  41.225  29.484   3.690
63655W        W36080   2.392  21.554   3.277
63656W        W36081  33.422  28.143  13.220
63657W        W36082  29.690  12.733   0.353
63658W        W36083  12.383  15.194  11.760
63659W        W36084  35.000   4.426  10.583
63660W        W36085  13.315  24.641  14.756
63661W        W36086   6.895  43.471  14.441
63662W        W36087  25.045  32.622  12.846
63663W        W36088  25.622  18.041   2.665
63664W        W36089  21.492   4.718   3.720
63665W        W36090  35.168   6.971  10.758
63666W        W36091   4.981  14.244  10.387
63667W        W36092   8.469  36.154  13.748
63668W        W36093  17.518  37.147   0.273
63669W        W36094   9.807   0.707   3.681
63670W        W36095  21.072  18.748   1.847
63671W        W36096   2.339  29.643   1.420
63672W        W36097  20.785  38.508   2.372
63673W        W36098  21.953  39.437  13.873
63674W        W36099  25.496  28.532  13.639
63675W        W36100   7.753  21.647   0.141
63676W        W36101  35.445  22.161  14.805
63677W        W36102  19.266  39.325  12.394
63678W        W36103  24.201  43.971   1.782
63679W        W36104   3.252  14.526   0.404
63680W        W36105  22.422  34.322  14.437
63681W        W36106  38.890  16.620  12.595
63682W        W36107   4.699  37.424  11.493
63683W        W36108  12.884  41.016  11.071
63684W        W36109  12.933  34.863  12.080
63685W        W36110  30.133  35.562  11.176
63686W        W36111  38.766  34.154   2.165
63687W        W36112  34.415  18.328  14.741
63688W        W36113  21.089  22.493   3.580
63689W        W36114   1.663   8.762  10.793
63690W        W36115  43.876   0.397  14.308
63691W        W36116  34.697  30.678   4.141
63692W        W36117  42.243  21.706   2.190
63693W        W36118  25.085  42.314  13.392
63694W        W36119  25.659  14.706   0.797
63695W        W36120   3.894  41.451   3.163
63696W        W36121  19.185  34.375  12.148
63697W        W36122  30.349  16.517   4.506
63698W        W36123  38.984  12.703   4.246
63699W        W36124   7.771   1.310  12.997
63700W        W36125  18.939  10.402  10.262
63701W        W36126   6.691   7.471   1.320
63702W        W36127   5.454  20.750   2.781
63703W        W36128  30.352  34.830   4.461
63704W        W36129  14.853  36.918  14.426
63705W        W36130  27.945  11.163  11.149
63706W        W36131   5.737  35.279  13.630
63707W        W36132  19.170   6.014  13.891
63708W        W36133  24.526  40.815   1.187
63709W        W36134  30.443   9.675  12.650
63710W        W36135  27.894  23.692   4.535
63711W        W36136  10.595   5.911   1.631
63712W        W36137   5.916  37.346   2.104
63713W        W36138  23.965   1.453  11.918
63714W        W36139  22.052  10.774   3.656
63715W        W36140   2.880   3.228   3.373
63716W        W36141   2.400  14.195  12.489
63717W        W36142  22.645  31.481   4.204
63718W        W36143  38.117  41.485   4.948
63719W        W36144  17.324  31.568   5.064
63720W        W36145   4.713  25.023   4.753
63721W        W36146   4.698   6.995   1.418
63722W        W36147  26.216  10.265  14.370
63723W        W36148  30.562  28.199   0.388
63724W        W36149  18.513  42.427  11.630
63725W        W36150   2.614  27.944  11.712
63726W        W36151  38.569  36.097   2.168
63727W        W36152  23.969   6.442   0.455
63728W        W36153  30.654   4.284  11.649
63729W        W36154  17.586  12.412   0.765
63730W        W36155  19.596   7.451  12.896
63731W        W36156  18.505  13.238  11.671
63732W        W36157  12.588  27.698   3.714
63733W        W36158  11.192  17.398   1.801
63734W        W36159  21.378  20.966   0.686
63735W        W36160  30.477  10.550   1.689
63736W        W36161  14.745  44.409   2.788
63737W        W36162  21.355  20.614   1.101
63738W        W36163  10.650  15.769   2.921
63739W        W36164  30.115  14.082  11.507
63740W        W36165  26.715  17.801  13.873
63741W        W36166  18.805  41.843  11.612
63742W        W36167   0.493  20.573  13.502
63743W        W36168   0.051  20.743  10.671
63744W        W36169  17.683  39.952   0.431
63745W        W36170  24.019  35.509   2.757
63746W        W36171   1.953  23.728   0.864
63747W        W36172  30.532  43.944   3.551
63748W        W36173  35.080  18.724   1.331
63749W        W36174   4.450  24.816   4.116
63750W        W36175  31.811  23.236  13.539
63751W        W36176   1.269  37.131  13.452
63752W        W36177  15.638  21.411   2.786
63753W        W36178   2.289  26.353  11.538
63754W        W36179  30.002   0.094  13.039
63755W        W36180  38.733   3.898  12.526
63756W        W36181  36.145  25.657  11.223
63757W        W36182  38.727  33.563   2.742
63758W        W36183  13.299   1.244   5.517
63759W        W36184  42.869   9.516  13.492
63760W        W36185  23.919  42.027   2.705
63761W        W36186  35.576  12.252  14.204
63762W        W36187  20.987  31.439   3.132
63763W        W36188  43.906   1.058  14.055
63764W        W36189  24.019  26.515  14.414
63765W        W36190  41.556  19.411  10.596
63766W        W36191  36.061  41.055  13.952
63767W        W36192  38.704  21.120  11.574
63768W        W36193   7.136  26.522  11.395
63769W        W36194   1.221  44.490   0.388
63770W        W36195   4.467  13.365   3.595
63771W        W36196  28.040  23.723   9.799
63772W        W36197   9.905  14.239  12.599
63773W        W36198  29.238  41.743  11.012
63774W        W36199  15.239  40.264  14.510
63775W        W36200  33.317  12.268  10.361
63776W        W36201  17.828   2.682   2.438
63777W        W36202  38.487   0.815   4.614
63778W        W36203  43.485  15.181  13.900
63779W        W36204  33.693  13.828   2.217
63780W        W36205  41.715  11.202  12.585
63781W        W36206   4.142  14.816  11.737
63782W        W36207   5.401  42.097  13.778
63783W        W36208   6.348  23.088  14.559
63784W        W36209  43.788  24.210   3.218
63785W        W36210  34.656  10.363   0.353
63786W        W36211   3.579   2.379  11.891
63787W        W36212   8.156  43.798  12.049
63788W        W36213  20.972  20.110  13.945
63789W        W36214   5.091   0.278  12.906
63790W        W36215  44.569   1.982  12.365
63791W        W36216   1.319  39.353  12.621
63792W        W36217  23.043  23.780  11.954
63793W        W36218  21.050  42.276  11.974
63794W        W36219   3.208   4.118  11.627
63795W        W36220  19.504  29.039  11.192
63796W        W36221  12.688  13.751   4.536
63797W        W36222   6.827   8.848  12.555
63798W        W36223  10.304  42.353   3.992
63799W        W36224  41.314  44.475   4.150
63800W        W36225  21.757  19.788  14.913
63801W        W36226  43.317  26.641  13.815
63802W        W36227  20.641  27.119   3.244
63803W        W36228  22.302  44.424  13.298
63804W        W36229   7.635  11.173   0.776
63805W        W36230  14.280   2.694  10.790
63806W        W36231  26.254  17.226  10.968
63807W        W36232  17.135   5.761  13.115
63808W        W36233  27.691  27.155   4.228
63809W        W36234  10.826  18.040  14.932
63810W        W36235  19.332  16.789   5.033
63811W        W36236  35.420  28.035  11.202
63812W        W36237   1.021   7.920   0.833
63813W        W36238  13.529  21.287   4.003
63814W        W36239   3.679  13.922  10.705
63815W        W36240   9.851  14.147  12.089
63816W        W36241  39.263  10.126   4.504
63817W        W36242   7.882  30.467   3.345
63818W        W36243   2.384  15.617   1.576
63819W        W36244  40.637  12.995   5.098
63820W        W36245  30.615  15.715   0.595
63821W        W36246  30.314  36.523   2.962
63822W        W36247  42.044  13.392   3.080
63823W        W36248  27.033  34.649  11.507
63824W        W36249  28.399  38.898   0.496
63825W        W36250  28.309  17.693   3.294
63826W        W36251  20.166  11.389  13.455
63827W        W36252  41.919   7.966   1.202
63828W        W36253   1.954  29.316   1.265
63829W        W36254   3.912  35.632   0.262
63830W        W36255  36.092  15.345  14.680
63831W        W36256  20.852  12.264  14.504
63832W        W36257  16.335   7.534  10.985
63833W        W36258  29.987  28.635  12.013
63834W        W36259   2.417  26.761   0.077
63835W        W36260  31.112   9.579  11.181
63836W        W36261  39.773   0.976  13.332
63837W        W36262  35.490  32.513  14.285
63838W        W36263   2.871  30.765  14.624
63839W        W36264  19.673  34.797   1.842
63840W        W36265  23.968  33.910  11.387
63841W        W36266  37.932  41.311   0.250
63842W        W36267   9.914  27.144   1.082
63843W        W36268  10.192   4.629  13.064
63844W        W36269  38.329  33.079   0.739
63845W        W36270  13.761  21.067  14.247
63846W        W36271  44.929  34.589   3.931
63847W        W36272  44.326  10.693  12.295
63848W        W36273  22.274  25.623  13.657
63849W        W36274   8.221  28.393  11.614
63850W        W36275  24.550  17.683   1.490
63851W        W36276  18.735  35.229  12.553
63852W        W36277  42.247  34.917  12.875
63853W        W36278   3.224  43.759   2.339
63854W        W36279  35.053  12.910   3.189
63855W        W36280   8.347  24.336   3.316
63856W        W36281  27.585  22.023  11.498
63857W        W36282  40.973  23.563  12.368
63858W        W36283  29.966  14.071   4.873
63859W        W36284  34.414  28.502  14.531
63860W        W36285   7.143   0.253  13.483
63861W        W36286  36.834  18.194  11.888
63862W        W36287  13.451  19.453  11.165
63863W        W36288  37.818  26.346  10.628
63864W        W36289  19.490  29.040  14.828
63865W        W36290   1.666  39.716  10.841
63866W        W36291  28.445  28.925  14.447
63867W        W36292   5.314  24.075  10.461
63868W        W36293  44.943  14.922  11.642
63869W        W36294  15.554  28.184  12.123
63870W        W36295  11.596  23.666  12.523
63871W        W36296  41.432  20.071   5.400
63872W        W36297  31.120  27.506   4.189
63873W        W36298  29.330  30.686  12.034
63874W        W36299  37.488  25.959   2.256
63875W        W36300  15.571  33.300  13.806
63876W        W36301  26.750   9.733   2.313
63877W        W36302  10.580  43.726  14.004
63878W        W36303  11.864  20.186   4.794
63879W        W36304  25.129  22.180   4.605
63880W        W36305   4.201  38.447  13.071
63881W        W36306  35.985  44.235  13.429
63882W        W36307   9.843   3.547  13.551
63883W        W36308  15.356   4.298  14.516
63884W        W36309   9.829   6.371  10.764
63885W        W36310  34.401  14.852   4.245
63886W        W36311   3.348  32.376   2.665
63887W        W36312   1.563  32.054  11.129
63888W        W36313  34.948  22.629   1.490
63889W        W36314  11.593  30.511   1.330
63890W        W36315   7.940  35.478   2.753
63891W        W36316  41.050  43.518   3.624
63892W        W36317   3.076  40.985   3.189
63893W        W36318  32.043   4.096  10.672
63894W        W36319  11.212   4.272   2.586
63895W        W36320  20.420  27.180  12.876
63896W        W36321   0.402  44.284   3.842
63897W        W36322   1.987   2.080   5.054
63898W        W36323  33.436  37.052  11.406
63899W        W36324  37.126  43.801  12.498
63900W        W36325  22.615  41.044   4.175
63901W        W36326  43.597  19.497  11.257
63902W        W36327  25.797   1.299   2.933
63903W        W36328  42.344  24.189   0.517
63904W        W36329   7.775  39.133   0.978
63905W        W36330  40.953   8.580   3.147
63906W        W36331   7.310  14.398   4.925
63907W        W36332  43.802   9.405   3.560
63908W        W36333   4.759  34.830  11.284
63909W        W36334  40.471  21.010  13.317
63910W        W36335  22.779  15.830   0.326
63911W        W36336  34.244  24.426  11.931
63912W        W36337   7.432  14.169  13.519
63913W        W36338  19.555  10.204   0.829
63914W        W36339  21.261   4.344   4.020
63915W        W36340  38.064  19.631   5.000
63916W        W36341  19.528  27.259  11.425
63917W        W36342  28.074   0.621   4.613
63918W        W36343  17.086  19.490   4.530
63919W        W36344  38.091  15.785   3.808
63920W        W36345  42.384  18.195   3.558
63921W        W36346  31.989  18.194  12.987
63922W        W36347  40.877   4.084   3.911
63923W        W36348   0.923  26.329   4.960
63924W        W36349  18.170  27.608   3.786
63925W        W36350  30.943   2.742   4.899
63926W        W36351  19.608  25.854  11.657
63927W        W36352  31.327  28.596  10.704
63928W        W36353  32.478  43.807   4.175
63929W        W36354  42.901  18.602  14.002
63930W        W36355  18.155  13.624   4.508
63931W        W36356   5.632  15.905  12.281
63932W        W36357  36.550   7.899   3.044
63933W        W36358  36.929  36.919   0.861
63934W        W36359  32.236  33.488   0.130
63935W        W36360   5.683  34.444   1.873
63936W        W36361   9.656  24.673  10.395
63937W        W36362  33.799   7.913   1.380
63938W        W36363  18.056  22.885  14.366
63939W        W36364   5.186  28.563  13.421
63940W        W36365  16.775  10.358  12.837
63941W        W36366   5.693  18.766   3.426
63942W        W36367  37.647   1.349   4.880
63943W        W36368  25.179   3.153  12.409
63944W        W36369  22.984  38.824   1.239
63945W        W36370  32.503  20.956  13.309
63946W        W36371  27.015  17.720  13.345
63947W        W36372  42.880  27.257   1.836
63948W        W36373   0.324   5.883   4.132
63949W        W36374  28.541  13.702   2.528
63950W        W36375  18.926  32.886   3.358
63951W        W36376  17.146  30.498   0.940
63952W        W36377  32.594  33.405  10.699
63953W        W36378  20.346  35.088   2.803
63954W        W36379  11.562  25.605   4.089
63955W        W36380   2.737   4.759   4.981
63956W        W36381   5.404  30.564  12.510
63957W        W36382  17.656   4.195   2.030
63958W        W36383  13.753  29.878  14.129
63959W        W36384  40.834   7.598  11.609
63960W        W36385  23.364   5.203   2.148
63961W        W36386  28.462  23.690   2.216
63962W        W36387  40.278  33.412   3.688
63963W        W36388   4.719  30.520   0.319
63964W        W36389   7.208  28.514   2.101
63965W        W36390   2.729   5.776  14.111
63966W        W36391  38.642  30.426  10.314
63967W        W36392  20.656   7.439  13.039
63968W        W36393  21.700  18.015   3.050
63969W        W36394  25.626  30.536  13.746
63970W        W36395  12.078  30.427   0.451
63971W        W36396  15.757  22.805   5.080
63972W        W36397  36.705  11.886   3.656
63973W        W36398   8.948  17.731  11.983
63974W        W36399   7.001   9.971  11.166
63975W        W36400  15.547  11.905  12.908
63976W        W36401  31.455   8.257  14.473
63977W        W36402  12.048   3.869   0.835
63978W        W36403  44.021  36.333   3.113
63979W        W36404  31.969  25.064   4.828
63980W        W36405   0.616  13.747   2.434
63981W        W36406  32.302  38.996   0.940
63982W        W36407  11.302  10.342  12.305
63983W        W36408   1.981  36.647   2.197
63984W        W36409  16.592  12.170  11.176
63985W        W36410  21.146  12.844  13.312
63986W        W36411  13.243  13.736  11.660
63987W        W36412  21.490  26.165  13.370
63988W        W36413  30.854  27.369   3.767
63989W        W36414  37.487   5.341  14.375
63990W        W36415  21.175  25.936   4.568
63991W        W36416   7.484  35.192   2.740
63992W        W36417  39.307  27.664   3.327
63993W        W36418  33.094   8.225  14.973
63994W        W36419  22.132  38.063  13.994
63995W        W36420  37.934  12.645   0.951
63996W        W36421  43.693  18.079  11.684
63997W        W36422  19.226  41.150  13.742
63998W        W36423   9.209  17.179   3.815
63999W        W36424  43.331  31.404   3.151
64000W        W36425   0.926  34.392  11.577
64001W        W36426  11.256  11.340  11.052
64002W        W36427  42.440  17.096   4.331
64003W        W36428  19.285   3.440  12.179
64004W        W36429  38.788  33.142  12.345
64005W        W36430  40.818  32.845   3.641
64006W        W36431  34.504   7.846   1.920
64007W        W36432  10.641  33.969   2.908
64008W        W36433   0.282   3.098   3.365
64009W        W36434  36.826  16.020   4.972
64010W        W36435  16.597  36.076  12.024
64011W        W36436  29.599  26.599   4.579
64012W        W36437  35.055  27.490   4.105
64013W        W36438  43.512  33.438  10.255
64014W        W36439  29.167  41.448  12.580
64015W        W36440   6.265  31.994  12.517
64016W        W36441  26.138  19.636  13.862
64017W        W36442   7.194  28.953   2.723
64018W        W36443  25.039  12.579  11.145
64019W        W36444  22.012  26.532   4.174
64020W        W36445   5.642  44.706  14.430
64021W        W36446  21.499  15.566   4.603
64022W        W36447   7.755  42.377  11.549
64023W        W36448   6.858  41.417   3.316
64024W        W36449  11.150  28.993  13.197
64025W        W36450  17.191  30.060  11.717
64026W        W36451  14.671   0.255   3.756
64027W        W36452  26.982  16.627   4.529
64028W        W36453  27.928  36.633   0.663
64029W        W36454  31.374  15.647   1.217
64030W        W36455  40.366   6.375   4.704
64031W        W36456   0.758  30.557   0.806
64032W        W36457  21.158   8.591  10.773
64033W        W36458  10.243   8.799  10.921
64034W        W36459  34.066  28.548  12.173
64035W        W36460  40.407  43.386  14.223
64036W        W36461  15.253  38.438   3.113
64037W        W36462  42.044  22.242  10.300
64038W        W36463  33.829  14.742   0.267
64039W        W36464   5.711  17.291  13.805
64040W        W36465   6.268  21.068   1.770
64041W        W36466  42.508  42.909   2.306
64042W        W36467   9.176  13.066  10.346
64043W        W36468   8.121  43.288  14.824
64044W        W36469  40.773   4.130   4.521
64045W        W36470  41.757  21.827   1.038
64046W        W36471  33.222  32.940  11.200
64047W        W36472  27.479   1.378  11.183
64048W        W36473  26.782  27.628  11.126
64049W        W36474  36.879  44.723  10.709
64050W        W36475  19.083  27.076   1.277
64051W        W36476  10.633   6.233  14.004
64052W        W36477   5.420  31.874   3.074
64053W        W36478  15.799  37.278   1.429
64054W        W36479  36.277   7.650  11.060
64055W        W36480  14.055  28.242  14.447
64056W        W36481  19.168  17.092  10.651
64057W        W36482   9.724  10.308  13.456
64058W        W36483  20.041   7.980  13.407
64059W        W36484  27.017  40.935   1.236
64060W        W36485   2.399   4.439   4.367
64061W        W36486  41.033  31.051  14.641
64062W        W36487  44.321  12.622  14.955
64063W        W36488   9.794  22.227  10.646
64064W        W36489  36.517  17.691   4.595
64065W        W36490  25.669  26.706   4.116
64066W        W36491  26.853  32.930  11.215
64067W        W36492  21.697  44.714  13.965
64068W        W36493  11.768   0.800   4.204
64069W        W36494   0.993  36.958   3.582
64070W        W36495   6.286  15.482  10.472
64071W        W36496  30.160  42.952   4.178
64072W        W36497   6.420  44.437   3.714
64073W        W36498  14.796   8.260   0.326
64074W        W36499  25.514   3.938   1.475
64075W        W36500  32.984  24.678  13.839
64076W        W36501  17.765   2.015  14.515
64077W        W36502   3.331   1.159  14.266
64078W        W36503  10.793   3.763   2.270
64079W        W36504  10.647   1.764   1.348
64080W        W36505   5.210   5.253  13.339
64081W        W36506   8.962  26.602   4.711
64082W        W36507   8.431   2.918  12.851
64083W        W36508  38.529  41.553  13.895
64084W        W36509   3.702   2.571   1.948
64085W        W36510  16.246  31.578   4.151
64086W        W36511  21.375  32.214   4.520
64087W        W36512  29.519  31.799   1.804
64088W        W36513  32.456   0.539   2.301
64089W        W36514  23.888  11.231   4.101
64090W        W36515  43.773   3.463   1.398
64091W        W36516  15.532   9.748   3.340
64092W        W36517  42.503  10.267   4.192
64093W        W36518  12.127  35.685  11.783
64094W        W36519  23.628   9.670   0.792
64095W        W36520  15.617   9.132  14.858
64096W        W36521  23.110  35.421  10.633
64097W        W36522   9.373  10.033  10.174
64098W        W36523  25.623   2.190   3.371
64099W        W36524  41.188   1.916   1.785
64100W        W36525   1.892  36.963   1.786
64101W        W36526  25.039  41.477  14.360
64102W        W36527   2.552   6.121  11.331
64103W        W36528  13.346   4.430  12.959
64104W        W36529   9.376  33.810  11.067
64105W        W36530   1.470   9.613   3.347
64106W        W36531   5.815  27.027   3.023
64107W        W36532  36.051  41.054  11.692
64108W        W36533  13.865  11.308  13.568
64109W        W36534  33.654  23.907  10.076
64110W        W36535   9.923  25.410  11.956
64111W        W36536  44.737  39.590   0.480
64112W        W36537   9.761  28.125   4.764
64113W        W36538   4.287  33.501  10.857
64114W        W36539  23.170  33.768  10.600
64115W        W36540  23.187   7.173  10.571
64116W        W36541  29.695  39.499   4.419
64117W        W36542  43.417  12.777  12.215
64118W        W36543  14.545  29.967   0.264
64119W        W36544   4.472  26.141   2.691
64120W        W36545  15.303  31.573   0.867
64121W        W36546  41.119  34.251  11.990
64122W        W36547  25.944  16.782  14.501
64123W        W36548  37.697   8.203   0.484
64124W        W36549  17.676   6.556  13.812
64125W        W36550  37.603  41.303   2.394
64126W        W36551  17.650  35.539   0.253
64127W        W36552  17.966  43.592   2.373
64128W        W36553  37.391  34.586   4.351
64129W        W36554  24.680  35.262  11.989
64130W        W36555  34.849  36.318  13.327
64131W        W36556  17.175  26.668   2.793
64132W        W36557  18.650  20.799  12.330
64133W        W36558  24.745  22.609  12.264
64134W        W36559  29.289  25.131  10.443
64135W        W36560  24.530  23.210   4.165
64136W        W36561  12.294   3.647  11.014
64137W        W36562  18.086  22.243   4.495
64138W        W36563  30.448  16.348   1.907
64139W        W36564  40.343  16.663  13.846
64140W        W36565  15.617  30.128  10.577
64141W        W36566   9.361  26.619  12.699
64142W        W36567  28.920  22.300   0.431
64143W        W36568  38.746  12.198   1.790
64144W        W36569  34.484  33.860   4.308
64145W        W36570   9.300  41.964  12.404
64146W        W36571  43.549   0.962  13.658
64147W        W36572  22.702  10.112   0.969
64148W        W36573  17.578  26.668   4.660
64149W        W36574  25.497  21.451   1.009
64150W        W36575   9.804   5.429  13.420
64151W        W36576  25.120   7.853  12.956
64152W        W36577  13.703   1.253   3.535
64153W        W36578   8.132  16.255   0.853
64154W        W36579  42.254  42.596   3.174
64155W        W36580  32.817  10.380  12.620
64156W        W36581  31.916  26.546  11.421
64157W        W36582   9.187  39.306   2.666
64158W        W36583  35.321  38.377  12.119
64159W        W36584  22.438   0.933   2.868
64160W        W36585  24.518  27.186  14.779
64161W        W36586   6.149  35.809  12.929
64162W        W36587  36.926  33.066   4.498
64163W        W36588  14.122  14.171  10.777
64164W        W36589  40.837   7.384  12.441
64165W        W36590  32.505  13.547   0.014
64166W        W36591  29.550   4.900   4.290
64167W        W36592  22.494  12.013  13.410
64168W        W36593   3.227  30.482   1.350
64169W        W36594   9.280  37.124   3.188
64170W        W36595  43.699  27.939   1.677
64171W        W36596  31.203  43.832  12.989
64172W        W36597   0.857  16.654   3.470
64173W        W36598  43.179  29.593  11.586
64174W        W36599  27.261  41.730  11.086
64175W        W36600  41.062  28.467   1.676
64176W        W36601  44.342  39.927  12.095
64177W        W36602  18.367   1.302  14.386
64178W        W36603  39.440   4.475   3.557
64179W        W36604  44.051  42.525   1.390
64180W        W36605  29.094  18.449   4.734
64181W        W36606  20.226  26.416   0.797
64182W        W36607  28.132   6.345   3.736
64183W        W36608  26.136  44.134   3.167
64184W        W36609   4.719   9.051   0.876
64185W        W36610  42.903  39.591  10.701
64186W        W36611  26.300  41.221  13.058
64187W        W36612  39.727  29.498  12.581
64188W        W36613  20.555  32.115  13.932
64189W        W36614  35.501  31.317  13.763
64190W        W36615  13.288  16.808   3.200
64191W        W36616  29.369   8.853   4.098
64192W        W36617  44.847  11.548   0.312
64193W        W36618   0.674  41.874   3.727
64194W        W36619  20.298  21.499  13.345
64195W        W36620   6.321  34.498   0.706
64196W        W36621  21.171  40.752   5.024
64197W        W36622   6.276   1.653  10.733
64198W        W36623  38.780  30.232  12.392
64199W        W36624  42.253  19.286  13.534
64200W        W36625  17.516  42.501   3.065
64201W        W36626  19.908  12.311  11.917
64202W        W36627  20.821  18.835   1.279
64203W        W36628  37.852  15.317   3.738
64204W        W36629  26.160  21.220   4.713
64205W        W36630  12.236  25.483  13.848
64206W        W36631  26.958   4.433   0.370
64207W        W36632  26.035  17.765   1.720
64208W        W36633  36.558  38.853   2.234
64209W        W36634  29.467  41.840   9.713
64210W        W36635   3.316  18.316  10.778
64211W        W36636  34.960   6.057  14.179
64212W        W36637   9.368   4.886  14.771
64213W        W36638  21.503  36.452   2.226
64214W        W36639  34.655  25.345   4.850
64215W        W36640   1.719  34.315   2.130
64216W        W36641  40.472  24.303  12.423
64217W        W36642   8.265   5.304  14.859
64218W        W36643  26.036  15.318  14.930
64219W        W36644  33.968  24.149  11.597
64220W        W36645  27.091  22.430  14.204
64221W        W36646   4.780  29.960  11.172
64222W        W36647  17.283  42.547  12.120
64223W        W36648   1.167  17.696  11.141
64224W        W36649  14.328   0.653   3.034
64225W        W36650  17.554  18.806   4.442
64226W        W36651  20.071  42.962   0.940
64227W        W36652  41.382  34.886  14.897
64228W        W36653  16.188   9.869  11.331
64229W        W36654  36.637   7.635  14.268
64230W        W36655  37.097  27.287   3.588
64231W        W36656  41.957   0.642   4.012
64232W        W36657  13.074  21.574   0.361
64233W        W36658  38.484  15.230   2.157
64234W        W36659  39.544  28.193  13.000
64235W        W36660  33.386  44.976   4.170
64236W        W36661  17.219  44.968   4.588
64237W        W36662  16.856  31.631  12.517
64238W        W36663   2.123  27.303  11.154
64239W        W36664   7.892  26.490   1.427
64240W        W36665   9.526  39.410  12.755
64241W        W36666  12.724  10.142   1.396
64242W        W36667  38.731  22.555  11.101
64243W        W36668  44.720  13.778  11.976
64244W        W36669  27.153  34.512   1.200
64245W        W36670  14.768   4.778  13.899
64246W        W36671  40.524  19.616   2.948
64247W        W36672   2.780  35.948  14.121
64248W        W36673  32.485  13.229  11.189
64249W        W36674  19.801  44.015   3.204
64250W        W36675  21.178   8.156   2.635
64251W        W36676   4.817  41.460  10.323
64252W        W36677  19.100  23.197  12.404
64253W        W36678  26.039  36.597   1.444
64254W        W36679  16.557  25.105  13.866
64255W        W36680   5.365   5.324  11.214
64256W        W36681  14.935  22.723  11.546
64257W        W36682  25.932  29.455   4.864
64258W        W36683   5.409  42.518   1.938
64259W        W36684  18.504  34.636   9.856
64260W        W36685  27.411   8.165   4.529
64261W        W36686   1.548  13.562   2.252
64262W        W36687  12.777  44.291  11.147
64263W        W36688  19.075  13.292  11.686
64264W        W36689   2.689  26.699   3.412
64265W        W36690  11.136  20.602   4.477
64266W        W36691  22.123  32.269  12.842
64267W        W36692   2.062  32.516   4.628
64268W        W36693  44.353  27.131  14.503
64269W        W36694  15.496  15.596  12.531
64270W        W36695  12.208  43.940   1.263
64271W        W36696   3.963  38.863  10.459
64272W        W36697  26.719   9.440   4.130
64273W        W36698  30.196  41.851  13.081
64274W        W36699  31.439  43.871   4.911
64275W        W36700   9.426  17.322  12.414
64276W        W36701  22.735  20.680  14.034
64277W        W36702  42.374  23.698  10.877
64278W        W36703  14.362  42.109   3.770
64279W        W36704  39.310  20.598  11.163
64280W        W36705  35.978  32.425   0.985
64281W        W36706  42.481  22.147   0.039
64282W        W36707  27.665  24.558   3.602
64283W        W36708  18.914   7.464   3.190
64284W        W36709  36.580  13.799  12.900
64285W        W36710  23.267  25.253  11.989
64286W        W36711  19.473  21.625   1.229
64287W        W36712   9.331   5.152  14.331
64288W        W36713   3.251   3.953   1.411
64289W        W36714  20.142  27.938   4.291
64290W        W36715  21.392   6.743   2.751
64291W        W36716  31.626   5.685   2.678
64292W        W36717  21.562   3.737  11.200
64293W        W36718  36.876   1.893  14.323
64294W        W36719  25.694  16.916   3.623
64295W        W36720  14.038  39.355  10.378
64296W        W36721   1.971   0.995   0.453
64297W        W36722  23.545  37.692   4.844
64298W        W36723   0.453   1.550  13.533
64299W        W36724   3.037  44.629   2.876
64300W        W36725  17.607  32.212   9.845
64301W        W36726   0.866  24.974  13.977
64302W        W36727  13.428  34.961   2.753
64303W        W36728  25.352  16.681  11.659
64304W        W36729  16.298  44.278   0.461
64305W        W36730  11.294  17.772  11.921
64306W        W36731   0.245   5.892  12.243
64307W        W36732   1.822  19.305   0.547
64308W        W36733   5.100  29.228   3.822
64309W        W36734  33.467  12.356   3.621
64310W        W36735  38.608  44.938  10.407
64311W        W36736  41.038  34.462  10.746
64312W        W36737  36.532  19.771  12.434
64313W        W36738  25.195   0.796   4.085
64314W        W36739  24.949  32.503   0.023
64315W        W36740  21.703  21.521   4.720
64316W        W36741  24.025   3.474   1.324
64317W        W36742   7.289   1.979  11.139
64318W        W36743  31.864  22.273  13.025
64319W        W36744  36.068   6.961  10.051
64320W        W36745   9.773   5.291  14.083
64321W        W36746  33.919  17.637   1.875
64322W        W36747   6.265  27.059   2.712
64323W        W36748  16.887  32.526  10.177
64324W        W36749   3.644   3.617   3.772
64325W        W36750  22.161  24.292  12.147
64326W        W36751  19.022  30.731   1.167
64327W        W36752  27.942  30.517  14.351
64328W        W36753  22.527  14.587  13.779
64329W        W36754  27.446   6.300   0.683
64330W        W36755  11.297  13.053  14.962
64331W        W36756  24.625   7.588  12.133
64332W        W36757   9.799  37.856  10.757
64333W        W36758  33.941  35.938   1.474
64334W        W36759  16.844   7.821   3.156
64335W        W36760  40.091   2.716   1.940
64336W        W36761   1.406  37.431   2.845
64337W        W36762  11.845  13.230   1.264
64338W        W36763  35.955  24.736   1.296
64339W        W36764  42.330   0.405   0.758
64340W        W36765  41.024  14.048  14.501
64341W        W36766  16.634  19.311   1.782
64342W        W36767  23.202  17.248  14.132
64343W        W36768  28.105  42.983   4.663
64344W        W36769   5.920   2.010   1.250
64345W        W36770  15.227   4.636  10.693
64346W        W36771  31.605  11.678  11.594
64347W        W36772  38.560   7.343   4.517
64348W        W36773   4.901   6.534   1.277
64349W        W36774   8.747  26.524   1.717
64350W        W36775  40.554  24.797   0.891
64351W        W36776  21.506  15.815   0.003
64352W        W36777  40.516  34.189  13.324
64353W        W36778   1.427   2.436   0.982
64354W        W36779  18.222  12.566   5.038
64355W        W36780  40.936  14.419   0.334
64356W        W36781  38.035  34.802  14.576
64357W        W36782  10.777  18.101  12.586
64358W        W36783   4.432   5.549  10.714
64359W        W36784  14.881  16.197  13.519
64360W        W36785  36.115   5.753  14.317
64361W        W36786  14.727  27.604  14.611
64362W        W36787  41.752  43.191   5.071
64363W        W36788  11.252  20.762   0.749
64364W        W36789  18.296  31.969  12.421
64365W        W36790  43.965   5.714  14.118
64366W        W36791  23.443   8.209   4.814
64367W        W36792   4.883  22.727   3.852
64368W        W36793  11.610  22.447  12.959
64369W        W36794  19.492   7.186  11.171
64370W        W36795  43.042   8.154   0.035
64371W        W36796  13.901  16.395   2.794
64372W        W36797  11.838  39.668  10.936
64373W        W36798   9.756  41.435   4.651
64374W        W36799   1.870  21.605   2.281
64375W        W36800  29.992  42.295   1.499
64376W        W36801  36.971   6.378   4.161
64377W        W36802  20.610  38.481   1.886
64378W        W36803   6.369   4.243  10.577
64379W        W36804  20.035   1.213   1.793
64380W        W36805   3.001   9.798   4.632
64381W        W36806   2.510   6.960  11.955
64382W        W36807  10.249  20.635   3.210
64383W        W36808  39.466   5.736  12.632
64384W        W36809  23.642  27.124   0.490
64385W        W36810  28.218  38.402   9.672
64386W        W36811  19.376  40.947   0.019
64387W        W36812  18.653  10.586   1.791
64388W        W36813   3.748  17.135   3.256
64389W        W36814  32.646  42.568  12.582
64390W        W36815   6.957  39.813   0.854
64391W        W36816   2.881   9.700  10.673
64392W        W36817  12.887  14.135  13.533
64393W        W36818   0.723  37.590  14.007
64394W        W36819  40.769   8.384   2.674
64395W        W36820  16.539   4.313   3.057
64396W        W36821  21.212  11.419  12.206
64397W        W36822  39.631   5.942  11.523
64398W        W36823  38.294  15.702  11.253
64399W        W36824   0.402   2.882  11.756
64400W        W36825  30.114   9.303   1.374
64401W        W36826  25.989   9.346   1.305
64402W        W36827   1.501  18.204  13.853
64403W        W36828   2.408  41.900  13.504
64404W        W36829  27.658  26.299  13.859
64405W        W36830   3.893  36.133   2.787
64406W        W36831  16.783  16.616  14.804
64407W        W36832   6.672   9.642   2.341
64408W        W36833  32.023  24.046  13.157
64409W        W36834  22.168  41.926  11.616
64410W        W36835   9.269  20.334   4.576
64411W        W36836  10.780  35.425   3.220
64412W        W36837   8.726   2.626  13.271
64413W        W36838  12.315   8.958  14.901
64414W        W36839   3.728  25.941  11.777
64415W        W36840   3.054  24.882  13.430
64416W        W36841  14.060  10.844  13.798
64417W        W36842  41.929  26.586  14.506
64418W        W36843  25.993  39.269   3.680
64419W        W36844  29.653  42.964   3.214
64420W        W36845   4.427  27.473  12.017
64421W        W36846  25.261   2.491   1.747
64422W        W36847  43.266  20.992   5.511
64423W        W36848  23.347  36.441   3.673
64424W        W36849   6.466  23.930   2.831
64425W        W36850  15.792  10.239  11.340
64426W        W36851  29.302   2.332   4.259
64427W        W36852  12.324  42.933  14.919
64428W        W36853  39.446  33.970  14.931
64429W        W36854  33.140  33.152   3.824
64430W        W36855   4.906  17.186  13.275
64431W        W36856  44.903  15.791   4.711
64432W        W36857  44.065  40.776   2.296
64433W        W36858  42.819   8.639   2.193
64434W        W36859  31.140  34.649   9.878
64435W        W36860   7.876  44.139   2.700
64436W        W36861  41.163   3.708  13.089
64437W        W36862  25.064   1.877  13.892
64438W        W36863  20.348   1.777   0.311
64439W        W36864  21.023  21.975  14.903
64440W        W36865  29.017  42.831  10.602
64441W        W36866   6.594  33.897  11.676
64442W        W36867   2.764  16.772  13.723
64443W        W36868  19.366  12.623  13.975
64444W        W36869  27.325   8.416  11.072
64445W        W36870  15.138  31.980   4.677
64446W        W36871  43.601   1.748  10.387
64447W        W36872  24.083   4.160  14.279
64448W        W36873  38.794  34.418  11.119
64449W        W36874   1.459   0.383   4.665
64450W        W36875  23.945  13.223   3.602
64451W        W36876  44.744  32.580   1.436
64452W        W36877  25.179  12.737   3.423
64453W        W36878  35.276  10.817  13.998
64454W        W36879  12.108  25.639  13.351
64455W        W36880  32.476  39.468   0.774
64456W        W36881  17.435  31.813   3.011
64457W        W36882  19.253   3.817  13.752
64458W        W36883   6.197  32.993  13.460
64459W        W36884  12.979  35.566  12.799
64460W        W36885  40.307  43.734   1.466
64461W        W36886   9.200  32.900   2.757
64462W        W36887  11.622  24.311   5.193
64463W        W36888  27.998   1.040  14.408
64464W        W36889  20.684  26.903  14.991
64465W        W36890  30.383  30.070   4.180
64466W        W36891   8.152   7.892  11.653
64467W        W36892   9.116  40.002   0.429
64468W        W36893  10.356  10.318   2.086
64469W        W36894  31.068   0.074  14.282
64470W        W36895  37.214   8.915   4.643
64471W        W36896  27.998  31.466  14.475
64472W        W36897  41.559   1.014   4.614
64473W        W36898  12.348  27.601   0.865
64474W        W36899  30.072  39.280  14.317
64475W        W36900  38.924  15.279   2.430
64476W        W36901  14.604  41.692   4.626
64477W        W36902  33.435  10.894  12.542
64478W        W36903   1.831  41.577   4.109
64479W        W36904  35.885  21.773   1.837
64480W        W36905  21.432  38.955   3.598
64481W        W36906   2.040  34.861  10.912
64482W        W36907  26.555   9.575  11.591
64483W        W36908   5.665  14.844   3.339
64484W        W36909  25.644  32.452  14.528
64485W        W36910  14.645  18.269   4.645
64486W        W36911  28.057  17.152   4.540
64487W        W36912  15.514  38.520   2.662
64488W        W36913  32.598   4.346  14.964
64489W        W36914  17.140   4.382   4.928
64490W        W36915   2.165   6.567   1.801
64491W        W36916  38.285  40.438   0.079
64492W        W36917   8.737  43.508   2.246
64493W        W36918  13.543   3.382   3.713
64494W        W36919  16.904  16.140   1.315
64495W        W36920   8.324  16.230  11.567
64496W        W36921  42.022  11.051  13.331
64497W        W36922  27.257   5.929  14.107
64498W        W36923   5.358   6.294   1.407
64499W        W36924  38.992  20.207  12.496
64500W        W36925  43.857   9.397  12.437
64501W        W36926  24.445  11.164   2.917
64502W        W36927  40.841   4.624   4.741
64503W        W36928  31.056  24.174   2.348
64504W        W36929  36.592   8.557   1.651
64505W        W36930   9.604  36.634   0.117
64506W        W36931  14.699  28.069   2.712
64507W        W36932  20.135  10.173  14.542
64508W        W36933  24.529  30.636  10.271
64509W        W36934  11.033  13.618   2.932
64510W        W36935  31.511  11.004   3.186
64511W        W36936  41.871  10.305  14.932
64512W        W36937   1.353  31.870   3.068
64513W        W36938  29.527   7.218  13.046
64514W        W36939  39.301  25.689  12.517
64515W        W36940  11.212  27.644   4.368
64516W        W36941  15.334  43.317   3.835
64517W        W36942  24.512   1.404   2.500
64518W        W36943  26.600  36.146   1.918
64519W        W36944  36.600  14.586   2.957
64520W        W36945  26.576   6.879   3.078
64521W        W36946  15.092  35.498  10.494
64522W        W36947  21.014  40.295   0.824
64523W        W36948   3.801  12.761   3.653
64524W        W36949  19.583  31.378   3.355
64525W        W36950   2.417  26.608  14.574
64526W        W36951  22.673  40.605   5.047
64527W        W36952  20.657   6.293  12.262
64528W        W36953  36.428  31.904  11.156
64529W        W36954  29.360  16.068   1.964
64530W        W36955   4.455  17.635   1.258
64531W        W36956  31.932  10.020  12.804
64532W        W36957  15.043  35.187  13.119
64533W        W36958  10.786  40.365   3.679
64534W        W36959   5.107  26.883  13.114
64535W        W36960  17.502  19.349  13.765
64536W        W36961   7.010  17.417   3.230
64537W        W36962  10.139  26.435   0.817
64538W        W36963   5.294   0.661  14.653
64539W        W36964   7.488   9.941  12.511
64540W        W36965   8.900  44.305  13.355
64541W        W36966  41.032   9.286  13.295
64542W        W36967  30.689   2.366   0.671
64543W        W36968  42.490  29.069   4.362
64544W        W36969  43.387   0.358   4.736
64545W        W36970   4.137  38.383   0.890
64546W        W36971  11.920   2.736  13.118
64547W        W36972  22.624  30.340   3.764
64548W        W36973  38.521   3.730   2.273
64549W        W36974  44.911  40.297  13.321
64550W        W36975   1.488  22.043   0.144
64551W        W36976  18.181  11.220  13.601
64552W        W36977  34.371  27.670   4.617
64553W        W36978  14.766  16.806   2.838
64554W        W36979  17.251  39.908  11.033
64555W        W36980  26.297  38.971   2.319
64556W        W36981  44.037  12.905   0.328
64557W        W36982   5.205  20.817   0.946
64558W        W36983  43.415  28.956  10.969
64559W        W36984  35.069  41.524  13.410
64560W        W36985  21.729   6.370   2.593
64561W        W36986  32.652  18.668  11.928
64562W        W36987  26.507   8.670   4.559
64563W        W36988  13.884  29.014  13.790
64564W        W36989  41.633  24.951   2.574
64565W        W36990  23.097  15.351   2.694
64566W        W36991   6.930  34.633   2.762
64567W        W36992  40.902   0.203  14.289
64568W        W36993  11.110  22.298  12.947
64569W        W36994   0.784  44.310   1.598
64570W        W36995  18.145  27.940   1.223
64571W        W36996  16.584   6.482   1.465
64572W        W36997   3.098  10.310   2.836
64573W        W36998   4.652  34.420   1.508
64574W        W36999  34.103  35.975  13.055
64575W        W37000   8.760  43.839  11.397
64576W        W37001  25.003  12.697  12.017
64577W        W37002  16.351  26.581   3.290
64578W        W37003  40.683  31.493   1.827
64579W        W37004   8.682  31.054   3.619
64580W        W37005  17.817  40.421  13.564
64581W        W37006  42.849  17.644   1.408
64582W        W37007  24.132  17.295   3.642
64583W        W37008  13.513  20.793   2.127
64584W        W37009  42.501   9.836   2.159
64585W        W37010  17.919  27.919  13.474
64586W        W37011   7.029  11.616  11.344
64587W        W37012   7.391  28.750  14.505
64588W        W37013  12.770  33.594  12.504
64589W        W37014  16.806  44.736  14.415
64590W        W37015  35.831   4.102   2.676
64591W        W37016  16.291  25.558  12.036
64592W        W37017  37.930   7.281  10.190
64593W        W37018   6.219  19.012  11.107
64594W        W37019  15.740  32.477   3.996
64595W        W37020   6.868   9.193  13.475
64596W        W37021  38.925  17.170   1.841
64597W        W37022   9.897  32.436  12.248
64598W        W37023  26.762  14.800  10.508
64599W        W37024  28.420  41.381   3.235
64600W        W37025  14.715  14.631  11.588
64601W        W37026   5.950   1.790   1.772
64602W        W37027   4.301  26.468  10.674
64603W        W37028  26.087  26.544  13.395
64604W        W37029  43.316  18.660   1.344
64605W        W37030   0.261  24.656   4.728
64606W        W37031  39.592   3.390  11.711
64607W        W37032  30.536  42.464   1.680
64608W        W37033  26.531  26.323   4.364
64609W        W37034  28.496  38.479   1.466
64610W        W37035   6.653  22.842   4.172
64611W        W37036  37.935   8.026  10.653
64612W        W37037  38.169  23.345  12.119
64613W        W37038  27.106  44.246   4.078
64614W        W37039  36.501  34.192  12.889
64615W        W37040  13.624   3.737  10.288
64616W        W37041  42.754  44.345  11.891
64617W        W37042   9.603  21.231   2.882
64618W        W37043  30.471  24.134  11.453
64619W        W37044  32.481  25.793  11.345
64620W        W37045   5.957  30.508  11.700
64621W        W37046  44.787   3.170   3.163
64622W        W37047   2.928  12.761  10.678
64623W        W37048  12.238   9.206   1.414
64624W        W37049  29.183  15.273  10.847
64625W        W37050  17.705  15.241   4.114
64626W        W37051   1.658  15.748  10.777
64627W        W37052  12.111  35.314  10.577
64628W        W37053   5.726  11.222  11.628
64629W        W37054  23.602  22.200  11.161
64630W        W37055  15.378  28.086   4.028
64631W        W37056  21.026  26.856  11.165
64632W        W37057   7.170  36.508   0.464
64633W        W37058  37.065   6.959  10.046
64634W        W37059  26.964  21.150  10.076
64635W        W37060  30.812  34.324  14.838
64636W        W37061   6.891  10.088   0.158
64637W        W37062  44.573   9.447   3.675
64638W        W37063  14.163  20.243   1.749
64639W        W37064  31.793  40.788   3.696
64640W        W37065  34.459  23.251  10.395
64641W        W37066  43.527   5.932   1.653
64642W        W37067  21.136  15.576   4.224
64643W        W37068  20.838   6.907  13.477
64644W        W37069  31.430  31.903   3.725
64645W        W37070  33.943  14.197   3.549
64646W        W37071   4.645  33.827   5.042
64647W        W37072  41.586  33.346   3.271
64648W        W37073   0.935  15.594   3.657
64649W        W37074  18.089  14.076  13.947
64650W        W37075  24.738  16.707   4.419
64651W        W37076  27.921  32.461  12.537
64652W        W37077  38.503   4.375   1.268
64653W        W37078  16.389  38.853  10.784
64654W        W37079  36.157  32.010   2.641
64655W        W37080  15.610  31.321  12.550
64656W        W37081  18.779  15.719  12.115
64657W        W37082  22.272  43.399  10.497
64658W        W37083  28.892  28.821  11.119
64659W        W37084  13.900   2.709  14.435
64660W        W37085  18.843  31.151   1.718
64661W        W37086  19.372  39.095   1.684
64662W        W37087   6.263  12.019  13.397
64663W        W37088  27.514  39.768   1.866
64664W        W37089  34.451  31.382   2.686
64665W        W37090  15.200  28.553  11.112
64666W        W37091  33.848   1.416  11.693
64667W        W37092   1.230  33.187   3.344
64668W        W37093  21.295  28.941   0.174
64669W        W37094   5.910  14.335  10.705
64670W        W37095  10.644  30.382   5.089
64671W        W37096  26.036  28.876   2.441
64672W        W37097  34.880  34.800  10.783
64673W        W37098  14.722  18.221   0.967
64674W        W37099   8.697  27.622  10.579
64675W        W37100  19.704  16.223  12.043
64676W        W37101  15.781  39.609  10.736
64677W        W37102  27.764  24.447  14.937
64678W        W37103   2.188  24.489   3.152
64679W        W37104   3.214  18.117   4.563
64680W        W37105  24.439   2.709   0.854
64681W        W37106  26.660  36.525  12.115
64682W        W37107  39.367  33.362  14.228
64683W        W37108  39.886  39.432  14.882
64684W        W37109   4.847  14.523   4.308
64685W        W37110  15.903   1.634   2.172
64686W        W37111   8.763   2.293   2.189
64687W        W37112  26.179  23.588   3.792
64688W        W37113   5.054  30.417   4.412
64689W        W37114  35.373  27.952  10.054
64690W        W37115  11.233  25.367  11.175
64691W        W37116  20.704  26.403   3.799
64692W        W37117   5.844  20.150   1.856
64693W        W37118   8.845  37.541  11.682
64694W        W37119  16.495  13.143  12.772
64695W        W37120  44.386  40.421   4.992
64696W        W37121  37.807   2.768  14.217
64697W        W37122  14.793  22.207   4.104
64698W        W37123  10.179  13.045   2.764
64699W        W37124   8.924   9.779   1.951
64700W        W37125  24.222   5.285  11.107
64701W        W37126   5.149  15.928   4.086
64702W        W37127  27.237  38.489  12.508
64703W        W37128  36.584  26.796   0.204
64704W        W37129   5.954  16.187  13.432
64705W        W37130  11.729  41.908   3.634
64706W        W37131   5.623  35.539  14.958
64707W        W37132  18.192  34.256   5.084
64708W        W37133  30.469  42.795  13.003
64709W        W37134   7.683  14.346  10.872
64710W        W37135   8.703  12.627  14.061
64711W        W37136  23.838  20.613   4.364
64712W        W37137  12.642   9.468  11.960
64713W        W37138  30.964  15.777  12.680
64714W        W37139  11.810  30.905   3.756
64715W        W37140  12.513  18.614   3.950
64716W        W37141  41.722  37.597  11.134
64717W        W37142  25.400  44.694   4.232
64718W        W37143  26.696  17.345   0.417
64719W        W37144  31.356  22.272  12.122
64720W        W37145  22.233   2.668   3.283
64721W        W37146  14.617   1.135   2.192
64722W        W37147   0.690  12.878  12.702
64723W        W37148  41.290  28.819  12.839
64724W        W37149  31.966  20.745   0.415
64725W        W37150  38.532  36.967  14.038
64726W        W37151  37.067  39.948  13.257
64727W        W37152  14.625  35.876  14.386
64728W        W37153  30.450   6.340   4.248
64729W        W37154  25.692  41.928  10.392
64730W        W37155  35.917  33.696   0.435
64731W        W37156  33.376  23.583   0.799
64732W        W37157  25.940  26.503  14.311
64733W        W37158  30.719   3.795   4.315
64734W        W37159  32.148  18.295  14.807
64735W        W37160  42.181   0.746  14.414
64736W        W37161  18.736  44.967  10.498
64737W        W37162  38.495   8.033   5.483
64738W        W37163   6.470  36.814   2.555
64739W        W37164  27.112  42.464  11.520
64740W        W37165  37.317  15.497   1.368
64741W        W37166  42.245  18.800  13.301
64742W        W37167  18.380  31.082   4.504
64743W        W37168   0.551  34.249   1.293
64744W        W37169   6.716   4.959  12.418
64745W        W37170   5.229  22.104   0.298
64746W        W37171  23.520  18.398   3.928
64747W        W37172  26.257  34.640  13.530
64748W        W37173  16.116  16.715   4.091
64749W        W37174  12.931  16.263  13.432
64750W        W37175  30.427  38.380  11.995
64751W        W37176  42.080  39.081  14.331
64752W        W37177  19.032  11.810  11.150
64753W        W37178   5.002  41.827   0.915
64754W        W37179  17.601  17.837   1.810
64755W        W37180  22.519   5.584  14.606
64756W        W37181  30.698  33.854  11.926
64757W        W37182  18.271  10.404  13.568
64758W        W37183  10.460  41.094   3.575
64759W        W37184  35.717  41.788  11.224
64760W        W37185   4.034  42.474   2.633
64761W        W37186  18.023  34.183  14.047
64762W        W37187  35.999  15.415  12.543
64763W        W37188  33.039  17.016   4.327
64764W        W37189  14.779  27.577  11.864
64765W        W37190  33.663  21.191   0.076
64766W        W37191  26.594  31.087   4.743
64767W        W37192  11.171  21.673  12.678
64768W        W37193  20.269   6.693  14.283
64769W        W37194  39.314  35.308   2.736
64770W        W37195  24.463  38.490   4.548
64771W        W37196  15.924   8.835  13.956
64772W        W37197  36.014  18.883   0.897
64773W        W37198  22.138  24.050   4.582
64774W        W37199  42.970  28.621  12.037
64775W        W37200   0.757  33.751   2.171
64776W        W37201   5.913  23.027  13.074
64777W        W37202  24.003  30.351   1.264
64778W        W37203  14.535  23.600   4.988
64779W        W37204  10.267   0.531  12.905
64780W        W37205  24.932  26.512   0.911
64781W        W37206  30.089   5.323  12.587
64782W        W37207  33.951  38.331  11.976
64783W        W37208   3.892  30.644   0.262
64784W        W37209   6.861  26.478   1.172
64785W        W37210  19.200  10.261  14.962
64786W        W37211  34.116  30.958   0.556
64787W        W37212   2.224  30.977   3.478
64788W        W37213  23.507  25.998  14.067
64789W        W37214  32.134  22.173  12.600
64790W        W37215  35.063  21.158  13.310
64791W        W37216   5.162  12.196  14.553
64792W        W37217  42.991   7.882  12.555
64793W        W37218  14.724  38.122   3.783
64794W        W37219  25.850   5.791  10.478
64795W        W37220  38.131  43.305   2.739
64796W        W37221   4.626  38.332   1.895
64797W        W37222  20.558   4.738  13.628
64798W        W37223  12.229  16.485  12.086
64799W        W37224  29.902   6.397   4.194
64800W        W37225  13.713  35.049   3.197
64801W        W37226  37.458   3.990   4.174
64802W        W37227  35.841  31.625  14.720
64803W        W37228  28.141   0.285  13.943
64804W        W37229  40.389  22.213  13.925
64805W        W37230  20.868  27.917   5.057
64806W        W37231  24.734   9.945  11.560
64807W        W37232  24.914   4.032  11.099
64808W        W37233  22.295  33.335  10.490
64809W        W37234  36.307   1.682   4.576
64810W        W37235  23.247  30.480   1.177
64811W        W37236  15.735  19.113  14.968
64812W        W37237  36.471  12.766  13.509
64813W        W37238  29.141  26.032   2.631
64814W        W37239   0.376  11.192  13.525
64815W        W37240  16.362  17.721  14.406
64816W        W37241  31.565  34.144  11.885
64817W        W37242   9.902  10.233   0.705
64818W        W37243  28.848  34.312  13.790
64819W        W37244  29.162  25.766  13.434
64820W        W37245   7.829  36.612   3.335
64821W        W37246  16.850   6.757  10.548
64822W        W37247  26.243   6.766  12.932
64823W        W37248  35.736   7.922   4.684
64824W        W37249  12.134  42.339   0.614
64825W        W37250  11.828   5.341   3.247
64826W        W37251   3.347  15.777  12.881
64827W        W37252  11.603  29.147   3.306
64828W        W37253  42.858  23.634  13.042
64829W        W37254   8.495  39.350   4.572
64830W        W37255   1.295  22.577  12.031
64831W        W37256  39.295  34.165   1.338
64832W        W37257  36.659  32.628  13.199
64833W        W37258   6.114   1.249   1.701
64834W        W37259  21.370   2.908   2.534
64835W        W37260  16.541  27.623  11.152
64836W        W37261   4.821  19.189  12.914
64837W        W37262  21.896  40.083   1.308
64838W        W37263  32.460  43.491   2.367
64839W        W37264  15.689  24.687  13.924
64840W        W37265  13.493  16.626   0.946
64841W        W37266  14.410  30.902  10.690
64842W        W37267  13.816   2.257   1.276
64843W        W37268  23.744   7.211   2.341
64844W        W37269  25.404   2.487   3.717
64845W        W37270  10.290  44.766   0.946
64846W        W37271   3.935  12.101   2.789
64847W        W37272  43.017  22.099  10.615
64848W        W37273   1.730  44.855  13.093
64849W        W37274  11.725  15.031   4.238
64850W        W37275  30.633  23.431  11.654
64851W        W37276  14.958  32.805   1.741
64852W        W37277  22.124  39.490  12.852
64853W        W37278  30.312  34.995   3.517
64854W        W37279   3.636  36.230  13.149
64855W        W37280  15.678  42.217  10.648
64856W        W37281  23.772   7.825   1.069
64857W        W37282  25.473  24.998   0.414
64858W        W37283  24.300  40.639  11.071
64859W        W37284  13.777  30.172   4.233
64860W        W37285   1.609  20.119   3.748
64861W        W37286  43.752   9.823  10.540
64862W        W37287  37.587   8.277  13.425
64863W        W37288  13.340  31.570   3.679
64864W        W37289  21.798  37.900   2.675
64865W        W37290   8.317  13.209   2.693
64866W        W37291   6.663  14.828  11.485
64867W        W37292  43.345  32.627  11.087
64868W        W37293  33.434  26.778  13.937
64869W        W37294  41.745   1.585  11.560
64870W        W37295  16.160  35.661   4.361
64871W        W37296  17.354  25.200   2.444
64872W        W37297  17.295  38.863   4.570
64873W        W37298   3.365   8.568   4.840
64874W        W37299  36.619  25.213   0.818
64875W        W37300  20.101  42.448   4.197
64876W        W37301  44.243  12.914  14.022
64877W        W37302   2.083  31.319  14.557
64878W        W37303  39.291  25.736   4.470
64879W        W37304   0.699  30.177   2.989
64880W        W37305  13.802   7.046   3.617
64881W        W37306  42.865  29.384  12.497
64882W        W37307  40.999  11.281   0.254
64883W        W37308  15.827  44.984   3.876
64884W        W37309   7.203  41.531   1.725
64885W        W37310  36.004   6.613  13.482
64886W        W37311  31.530  38.330  14.959
64887W        W37312  43.067  25.406   0.455
64888W        W37313   6.589   9.662  13.448
64889W        W37314  12.851  43.416  12.880
64890W        W37315  18.484  40.082  14.700
64891W        W37316  30.173  40.922  14.952
64892W        W37317  24.581  34.353   3.685
64893W        W37318  39.342   3.289   3.881
64894W        W37319  33.775  24.465   1.574
64895W        W37320   8.727  19.631  10.969
64896W        W37321  17.606  18.270  11.107
64897W        W37322   3.359  41.480   0.478
64898W        W37323  17.053  24.641  13.781
64899W        W37324   5.385  14.208  11.664
64900W        W37325  35.570  37.324   1.735
64901W        W37326  32.619  18.639   2.917
64902W        W37327  20.438   0.343  12.978
64903W        W37328  17.053  37.344   3.819
64904W        W37329   9.184  29.435  10.731
64905W        W37330  20.083  44.529  14.910
64906W        W37331   3.068  29.156  13.356
64907W        W37332  27.255  30.394   4.264
64908W        W37333  32.757   8.966   4.809
64909W        W37334  30.131   5.356  14.919
64910W        W37335  43.238   7.912  11.727
64911W        W37336  42.109  31.410  11.588
64912W        W37337  35.603   1.450  13.595
64913W        W37338  41.816  20.128   4.306
64914W        W37339  17.269  44.023  13.917
64915W        W37340  34.978   9.514  13.385
64916W        W37341  10.244  32.316  11.175
64917W        W37342   2.314  17.617  12.263
64918W        W37343  12.285  24.419  13.268
64919W        W37344   5.999  14.333   4.390
64920W        W37345  31.007  31.876  12.134
64921W        W37346  30.222  38.259   2.297
64922W        W37347  41.382  21.682  10.017
64923W        W37348  19.013   9.361   0.506
64924W        W37349  19.621  29.917   0.959
64925W        W37350  31.360  28.849   1.493
64926W        W37351   0.343  26.571   2.185
64927W        W37352  35.098  34.503  11.630
64928W        W37353  23.166  33.574   2.299
64929W        W37354   0.943  23.869   4.861
64930W        W37355  24.583   5.914   1.839
64931W        W37356   0.018   9.812   1.736
64932W        W37357  40.731  20.576  13.467
64933W        W37358  12.549  41.402  11.076
64934W        W37359   6.278  24.296   3.246
64935W        W37360  43.706   7.695  10.468
64936W        W37361  36.631  30.143   0.053
64937W        W37362  22.174   1.921   2.356
64938W        W37363  29.119  43.169  11.011
64939W        W37364  21.143   6.717  13.888
64940W        W37365  18.245  40.528  14.545
64941W        W37366  16.769   1.893   1.188
64942W        W37367  44.075  23.586   1.999
64943W        W37368  13.600   8.701   0.466
64944W        W37369   5.955  36.142  11.104
64945W        W37370  13.159  30.675  14.992
64946W        W37371  16.203  40.441  14.432
64947W        W37372   7.880   1.601   2.839
64948W        W37373  36.452  10.404   2.840
64949W        W37374   1.322  10.119  11.450
64950W        W37375  35.013   6.468  14.806
64951W        W37376   5.248   5.482  12.036
64952W        W37377  16.247  17.289  10.769
64953W        W37378  32.823  22.172   0.256
64954W        W37379  29.154  38.973  12.995
64955W        W37380  17.711  35.663  11.719
64956W        W37381   7.172  20.027  11.163
64957W        W37382  38.823   1.330   2.892
64958W        W37383  36.046  19.790   0.872
64959W        W37384   6.750   6.336  14.764
64960W        W37385  39.508  35.062   1.852
64961W        W37386  29.024  44.720   4.338
64962W        W37387  24.065  28.580   2.188
64963W        W37388  12.914  19.903   0.267
64964W        W37389  15.733   4.833  10.585
64965W        W37390  29.537  36.887  10.894
64966W        W37391   6.274   3.831   2.391
64967W        W37392  12.322  39.700   3.652
64968W        W37393  20.180  17.299   3.145
64969W        W37394  16.066  28.021   2.151
64970W        W37395   9.806  11.451  13.935
64971W        W37396  12.601  44.798  14.735
64972W        W37397  38.352  20.720  13.056
64973W        W37398   8.592  38.481   4.122
64974W        W37399   7.362   3.965  13.041
64975W        W37400  36.238  42.037  12.906
64976W        W37401  24.117  23.486  12.112
64977W        W37402  16.076  23.876  11.968
64978W        W37403  38.185  25.404   3.657
64979W        W37404  34.996  27.597   0.431
64980W        W37405  42.904  32.951  12.481
64981W        W37406  10.647  25.968   3.292
64982W        W37407   2.023  17.127   1.865
64983W        W37408  41.545  22.125  10.514
64984W        W37409  43.910  11.172  11.124
64985W        W37410  21.051   8.730  11.650
64986W        W37411  23.668   9.321   3.606
64987W        W37412  41.849  36.280  11.050
64988W        W37413   6.690  13.379  14.052
64989W        W37414  43.891   3.433  12.506
64990W        W37415  14.182  34.579  14.369
64991W        W37416  10.163  27.475  14.392
64992W        W37417  23.422  34.954   2.364
64993W        W37418  33.543  19.174  11.437
64994W        W37419  41.506   3.968  14.027
64995W        W37420  39.517  16.337  13.457
64996W        W37421  14.708  21.717  14.286
64997W        W37422  26.098  32.575   1.519
64998W        W37423   5.298  12.616   3.170
64999W        W37424   3.781  25.525  11.467
65000W        W37425  29.987   9.578   3.794
65001W        W37426  15.266   8.244   3.623
65002W        W37427  32.299  30.624  14.835
65003W        W37428  33.950   4.408   0.353
65004W        W37429  21.126  14.697   4.036
65005W        W37430  21.675  30.999  10.939
65006W        W37431  25.021  43.876  11.185
65007W        W37432  21.072  12.915   2.707
65008W        W37433  15.536   7.826   0.960
65009W        W37434  42.002   2.966   0.249
65010W        W37435   2.065   1.028  13.942
65011W        W37436  35.614   7.642  10.547
65012W        W37437  38.383  28.324  10.788
65013W        W37438   9.470  11.256  10.432
65014W        W37439  38.448  19.467  12.521
65015W        W37440   0.600  32.588   1.740
65016W        W37441  25.941  34.341  14.512
65017W        W37442  44.425  29.615  12.940
65018W        W37443  22.141  15.017   5.017
65019W        W37444  15.332   5.360  13.851
65020W        W37445  31.637  41.545  12.836
65021W        W37446  38.618  41.437  11.728
65022W        W37447  23.668  35.355   1.435
65023W        W37448  37.946  11.089  10.473
65024W        W37449  25.162   9.626  11.567
65025W        W37450  26.424  24.070   0.840
65026W        W37451  21.675  18.675  10.731
65027W        W37452  26.527  23.226   3.977
65028W        W37453  17.554  37.503   4.784
65029W        W37454  36.692  10.676  12.518
65030W        W37455  38.812  22.947   0.429
65031W        W37456  21.270  22.836  12.645
65032W        W37457  22.103  22.353   0.504
65033W        W37458  40.990   1.348  14.568
65034W        W37459  17.094  39.328   4.535
65035W        W37460  20.287  36.374   2.680
65036W        W37461  25.235   5.379  12.070
65037W        W37462  44.229  37.949  13.315
65038W        W37463  31.096  40.980  14.785
65039W        W37464  13.861   0.935   0.305
65040W        W37465  10.947   5.919   2.744
65041W        W37466  24.245   7.480  13.490
65042W        W37467  33.889  27.972  13.940
65043W        W37468  40.230   6.130  10.038
65044W        W37469   2.390  10.190   3.040
65045W        W37470   0.842  11.305   0.480
65046W        W37471  39.076  44.525   3.727
65047W        W37472  18.621  15.448   1.187
65048W        W37473   6.190  30.965  10.945
65049W        W37474  29.955  22.504  11.150
65050W        W37475  33.560  25.455  14.704
65051W        W37476  34.621  41.752  14.833
65052W        W37477  10.377  44.264  10.604
65053W        W37478  34.149  41.968   3.925
65054W        W37479  14.182  13.098  12.522
65055W        W37480  27.616  38.415   3.167
65056W        W37481  42.777  20.701  13.004
65057W        W37482  31.336  32.426  11.161
65058W        W37483   6.655  15.132  12.552
65059W        W37484   5.701  23.566  11.164
65060W        W37485   0.494  43.722  10.395
65061W        W37486  44.992  39.910  14.736
65062W        W37487   6.697  14.640  12.377
65063W        W37488  30.506   5.833   4.058
65064W        W37489  39.045  16.180  13.307
65065W        W37490   9.779  20.059  13.450
65066W        W37491   1.714  32.027  12.096
65067W        W37492  20.510   6.467   3.161
65068W        W37493  25.783  36.208  14.322
65069W        W37494  36.076  20.228   4.758
65070W        W37495  19.180  40.038  14.457
65071W        W37496  12.338  19.736   1.249
65072W        W37497  11.272  15.077  14.933
65073W        W37498   7.358  15.777   2.405
65074W        W37499  10.034  38.349   0.875
65075W        W37500  40.884  36.780  12.582
65076W        W37501  19.225  21.298   3.171
65077W        W37502  39.831   9.712   0.390
65078W        W37503  27.576  14.681  11.424
65079W        W37504   9.965  31.189  13.586
65080W        W37505  13.099  30.739   0.501
65081W        W37506  44.360  16.040   3.100
65082W        W37507  18.765  33.339   3.695
65083W        W37508  17.369  31.669  12.417
65084W        W37509  11.185  23.957  11.208
65085W        W37510  35.008   7.156   4.041
65086W        W37511  25.013  39.642   4.688
65087W        W37512   0.416  39.762  12.592
65088W        W37513  13.004  21.501   5.176
65089W        W37514  23.727   8.733   4.672
65090W        W37515  26.953  39.088   4.533
65091W        W37516  29.682   1.052   3.346
65092W        W37517  16.778   2.808  13.361
65093W        W37518  36.536  18.792  11.696
65094W        W37519  14.198  30.019   3.972
65095W        W37520  17.611  29.847  11.922
65096W        W37521  20.811  27.087  13.228
65097W        W37522  25.005  40.883   4.206
65098W        W37523  13.358  22.634   1.372
65099W        W37524  34.197  19.623  13.248
65100W        W37525   8.363  15.318  12.019
65101W        W37526  18.489  40.917   0.404
65102W        W37527  30.684  13.806  14.972
65103W        W37528  21.807  26.120  12.361
65104W        W37529  40.422  39.875   2.830
65105W        W37530   0.474  35.486   4.243
65106W        W37531  28.424  43.284   0.021
65107W        W37532  20.444  33.900   3.358
65108W        W37533   8.748  26.038   3.344
65109W        W37534  23.220  38.225  13.078
65110W        W37535  38.926  42.790  11.062
65111W        W37536   2.813  30.127  12.445
65112W        W37537   4.729   9.711  12.511
65113W        W37538  16.644  31.598   2.745
65114W        W37539   7.004  35.469  13.980
65115W        W37540  21.853  29.228   2.196
65116W        W37541  17.653   0.870   0.495
65117W        W37542  35.595   9.987  10.339
65118W        W37543  39.013   6.181   0.452
65119W        W37544   2.687   6.436  11.953
65120W        W37545  36.749  33.154  13.145
65121W        W37546  12.001   7.971   3.981
65122W        W37547  34.319  26.472  14.918
65123W        W37548  16.992  41.473  13.968
65124W        W37549  20.195  17.622  10.765
65125W        W37550  37.508  10.369  14.801
65126W        W37551  22.438   1.370   1.762
65127W        W37552  39.129  39.814  14.105
65128W        W37553  26.084   1.241  10.427
65129W        W37554  41.789  38.578   1.424
65130W        W37555   5.607  18.686   1.433
65131W        W37556  26.393  19.774  14.436
65132W        W37557  34.529  39.284   1.814
65133W        W37558   1.707   1.784  13.895
65134W        W37559  19.587   8.327   2.888
65135W        W37560  15.575  22.803  12.856
65136W        W37561  16.689  43.524  13.579
65137W        W37562   4.448  21.241   4.102
65138W        W37563   8.192  34.411   3.433
65139W        W37564  28.335  10.290   2.667
65140W        W37565  34.889  10.464   5.075
65141W        W37566  27.962  34.897   1.170
65142W        W37567  22.116  26.214  12.792
65143W        W37568  29.330  29.964   0.714
65144W        W37569   2.997   3.017   4.051
65145W        W37570   8.429  35.432  14.888
65146W        W37571  43.490  35.903   2.734
65147W        W37572  44.249  17.574  14.285
65148W        W37573  10.827  28.437   4.576
65149W        W37574  33.080   4.083   1.728
65150W        W37575  19.129   0.921  13.839
65151W        W37576  31.722  39.532   5.820
65152W        W37577  34.310   0.861   1.800
65153W        W37578  27.125  35.386  11.179
65154W        W37579  33.748  19.994  12.640
65155W        W37580  25.503   2.716  11.168
65156W        W37581  26.600  28.757   0.363
65157W        W37582   6.847  26.742   2.166
65158W        W37583  22.704  37.175  12.630
65159W        W37584   9.824   9.882   1.493
65160W        W37585  32.638  29.683   4.072
65161W        W37586  12.683  20.584  12.877
65162W        W37587  42.529  13.575  13.877
65163W        W37588  36.816  35.613   2.346
65164W        W37589  14.364  13.395  11.108
65165W        W37590  14.920  26.076   2.815
65166W        W37591  22.648  28.088   3.898
65167W        W37592  11.988   2.839   0.289
65168W        W37593  35.194  30.768   4.249
65169W        W37594  14.672  14.200   1.589
65170W        W37595  17.581  27.133   1.243
65171W        W37596  37.886  22.846   5.005
65172W        W37597  10.238  19.789   4.620
65173W        W37598  28.026  25.935   1.833
65174W        W37599  11.806  30.967   4.374
65175W        W37600  31.845  14.770   3.601
65176W        W37601  44.330   6.151   5.016
65177W        W37602  16.375   4.361   0.328
65178W        W37603   1.976  30.386  10.686
65179W        W37604  22.047  12.478  14.008
65180W        W37605   9.275  38.811   2.469
65181W        W37606   9.464  35.797  12.088
65182W        W37607   6.648   8.242  14.838
65183W        W37608   0.779  20.909   4.597
65184W        W37609  18.224   2.792   4.132
65185W        W37610  30.154   4.803  11.053
65186W        W37611  40.625  30.547  14.746
65187W        W37612  16.687  13.299  10.458
65188W        W37613  10.848  15.115  14.406
65189W        W37614  41.294  37.048  12.459
65190W        W37615  27.702  27.134  10.608
65191W        W37616  21.844  30.439   0.303
65192W        W37617   6.785  29.160   0.094
65193W        W37618  15.358  44.414  12.898
65194W        W37619  25.906  43.011   0.310
65195W        W37620  18.515  31.863   0.191
65196W        W37621  31.325   6.068   3.642
65197W        W37622  13.540  19.096  14.132
65198W        W37623  33.654  41.310   2.607
65199W        W37624  24.127  33.425  13.414
65200W        W37625  36.284  20.048   1.228
65201W        W37626   3.556  19.042  12.467
65202W        W37627   9.383  38.818  13.495
65203W        W37628  36.576  22.932  10.744
65204W        W37629  44.017  28.893   1.026
65205W        W37630  13.145   4.181   2.116
65206W        W37631  11.996  24.014   3.082
65207W        W37632   5.525  29.920   3.172
65208W        W37633  41.895  37.124  11.144
65209W        W37634  34.113   7.352  13.646
65210W        W37635  31.580   3.275   2.902
65211W        W37636   9.255  36.898   0.368
65212W        W37637  30.896   1.236   0.804
65213W        W37638  37.376  30.956  14.292
65214W        W37639  17.544  17.251   2.227
65215W        W37640  34.474  44.962  13.836
65216W        W37641  18.667   6.089  11.486
65217W        W37642  15.009   3.484   1.417
65218W        W37643  18.223  24.043   4.231
65219W        W37644  44.877  20.203  12.444
65220W        W37645  29.928  34.491   2.366
65221W        W37646   4.437  27.991   2.484
65222W        W37647  40.885  18.845  12.890
65223W        W37648  10.787  13.671   4.758
65224W        W37649  43.274  13.309  14.342
65225W        W37650  43.251  28.621  13.806
65226W        W37651   8.069  44.560  11.657
65227W        W37652  40.984  27.479   0.587
65228W        W37653  12.387  11.614   4.202
65229W        W37654  37.081  28.207  12.721
65230W        W37655  15.778   1.263  14.477
65231W        W37656   7.342  12.414   2.706
65232W        W37657  35.476   0.775  14.216
65233W        W37658   6.781  14.713   1.278
65234W        W37659  18.966  11.752  13.394
65235W        W37660  33.444  21.497  12.063
65236W        W37661   7.774  25.442   4.612
65237W        W37662  28.091  26.910  11.924
65238W        W37663  13.373  23.548  11.196
65239W        W37664  42.413   1.247   2.567
65240W        W37665   5.429   9.788   0.814
65241W        W37666   7.394  12.401  12.473
65242W        W37667  44.318  35.915  14.564
65243W        W37668  26.213  27.982  11.470
65244W        W37669   7.675  32.901   2.677
65245W        W37670  20.372  24.583  10.467
65246W        W37671   9.899  10.140  14.798
65247W        W37672  27.754  27.011   2.868
65248W        W37673   3.667  28.553   3.018
65249W        W37674  44.879  15.609  13.156
65250W        W37675  39.864  37.726  10.674
65251W        W37676  15.738   9.125  14.334
65252W        W37677  37.341  23.129  13.851
65253W        W37678  42.221  35.004   0.224
65254W        W37679  10.431   3.025  11.232
65255W        W37680   3.867  20.115   4.064
65256W        W37681   0.743  37.338   1.087
65257W        W37682  17.604  41.882   1.129
65258W        W37683  35.700  26.747  11.107
65259W        W37684  14.171  44.857   4.827
65260W        W37685   7.377   6.279   1.266
65261W        W37686   9.208  26.500   2.836
65262W        W37687  34.462  29.135   0.275
65263W        W37688   7.171  24.505   3.133
65264W        W37689  33.753  20.786   2.781
65265W        W37690  22.208   5.470   3.687
65266W        W37691  29.560  37.206   5.029
65267W        W37692   6.702  30.864   0.847
65268W        W37693  15.613  26.721   1.155
65269W        W37694  44.423  23.165   1.842
65270W        W37695   9.710  13.722  13.768
65271W        W37696  12.884   5.343   1.278
65272W        W37697   9.260  10.097  13.263
65273W        W37698  34.339  33.895  11.689
65274W        W37699   1.776   4.914  12.365
65275W        W37700  12.319  18.005   4.575
65276W        W37701  41.865  26.687  11.681
65277W        W37702   5.161  29.670   3.451
65278W        W37703  15.805  30.454   5.192
65279W        W37704   8.168  27.392   1.234
65280W        W37705   3.188  16.687  14.381
65281W        W37706  26.268  11.733  14.832
65282W        W37707  30.094   1.418  10.508
65283W        W37708   5.458  42.904   0.169
65284W        W37709  34.309  37.839  13.431
65285W        W37710  18.555   1.472   2.698
65286W        W37711   1.702  30.942  13.476
65287W        W37712  32.816  25.749  10.962
65288W        W37713   1.167  42.903  10.123
65289W        W37714  12.816  18.971  13.972
65290W        W37715  35.209  35.637  13.742
65291W        W37716  41.459  21.962  11.446
65292W        W37717  38.563  29.104   3.889
65293W        W37718  29.652  14.181   1.583
65294W        W37719  12.641  21.079  13.040
65295W        W37720  44.691  42.803   3.352
65296W        W37721  23.570   6.952   0.059
65297W        W37722  29.069   5.918   3.260
65298W        W37723   9.375  23.630   4.054
65299W        W37724   1.181  32.609   4.150
65300W        W37725   4.727  20.852   0.768
65301W        W37726  25.849  38.755  11.475
65302W        W37727  39.065   0.815   5.137
65303W        W37728  39.102  27.874   0.756
65304W        W37729  13.116   0.678  11.939
65305W        W37730  44.534  13.194  10.664
65306W        W37731   5.133  30.512  13.427
65307W        W37732  25.041  19.767  12.978
65308W        W37733   1.452  19.572  11.999
65309W        W37734  34.429  36.390  12.988
65310W        W37735   3.836   3.542  11.512
65311W        W37736  16.565  35.856  11.147
65312W        W37737   0.208  15.289  12.906
65313W        W37738  24.010  28.015   0.490
65314W        W37739   3.581  26.124   2.636
65315W        W37740  18.296  27.721   4.667
65316W        W37741  37.699  11.860  13.493
65317W        W37742  40.872  44.684  14.350
65318W        W37743  33.390   4.456   1.193
65319W        W37744  22.851  35.013  11.598
65320W        W37745  41.929  32.492  13.859
65321W        W37746  31.221   7.619  14.509
65322W        W37747  31.492  43.521  13.304
65323W        W37748  30.476  23.482  10.733
65324W        W37749  30.437  40.761   0.447
65325W        W37750  10.919   9.727  11.726
65326W        W37751  43.229  13.603  13.162
65327W        W37752  11.160  13.748   3.434
65328W        W37753  42.250  27.560  14.444
65329W        W37754  17.585  34.688   2.245
65330W        W37755  27.468  35.582  14.816
65331W        W37756   6.643  32.363   2.366
65332W        W37757  38.420  28.211   3.586
65333W        W37758  21.701  27.756  12.633
65334W        W37759  33.370  24.198  14.995
65335W        W37760  19.541  20.596   0.030
65336W        W37761   1.765  20.295  11.058
65337W        W37762  21.586   8.707  11.690
65338W        W37763  11.083  36.902   1.279
65339W        W37764   3.996  11.262   2.194
65340W        W37765  38.769   2.266   3.137
65341W        W37766  36.634  18.049  11.439
65342W        W37767   1.660  37.392  10.760
65343W        W37768  21.241   2.839   3.952
65344W        W37769  44.973  42.220   1.378
65345W        W37770   7.745  20.589  14.330
65346W        W37771  13.997   3.345   4.592
65347W        W37772  12.947  16.243   4.764
65348W        W37773   8.817  33.243  11.433
65349W        W37774  42.372  25.654   2.765
65350W        W37775  20.266  10.741  12.994
65351W        W37776   4.562  12.165  12.604
65352W        W37777  23.683  38.428  12.818
65353W        W37778  26.157  37.140  12.594
65354W        W37779  18.723   5.644   4.377
65355W        W37780  21.189  21.426  10.505
65356W        W37781  40.925  35.500  11.557
65357W        W37782   3.423   1.939  13.463
65358W        W37783   0.418   4.203   0.663
65359W        W37784  42.640  26.143   3.925
65360W        W37785   7.905  14.855  12.068
65361W        W37786  44.568   5.212   3.971
65362W        W37787  22.276  26.318  11.382
65363W        W37788  44.787   1.801   4.589
65364W        W37789  43.918   4.217   0.915
65365W        W37790   7.648   5.719  13.051
65366W        W37791  12.449  18.378  11.023
65367W        W37792  38.648  38.107  11.857
65368W        W37793   9.571  24.986  12.650
65369W        W37794   3.415  12.096   0.670
65370W        W37795  43.220  32.058   0.811
65371W        W37796  20.108  35.131   1.952
65372W        W37797   1.702   4.797  11.864
65373W        W37798  32.634  29.140   4.550
65374W        W37799  40.886  37.624  12.121
65375W        W37800  40.922  32.095  11.495
65376W        W37801  30.062  43.701  10.656
65377W        W37802  40.413  35.660  14.410
65378W        W37803  38.105  44.139   3.613
65379W        W37804  15.344  37.914   1.882
65380W        W37805  37.887   6.459  12.412
65381W        W37806  37.334  16.486  11.576
65382W        W37807  24.317  18.682  13.111
65383W        W37808  43.362  31.701  12.570
65384W        W37809  37.592  16.554  13.542
65385W        W37810  21.515  33.634   4.467
65386W        W37811  10.441  34.216  14.876
65387W        W37812  34.867  17.805  10.694
65388W        W37813  12.582   1.548  11.118
65389W        W37814  11.760  33.120   1.714
65390W        W37815  31.018  22.614  13.355
65391W        W37816  44.841  35.271  13.495
65392W        W37817   9.752  24.270   0.353
65393W        W37818  24.281   9.395  13.489
65394W        W37819   6.304   3.587   3.905
65395W        W37820  33.587   4.087  11.865
65396W        W37821  42.580  34.393   1.424
65397W        W37822  19.426  39.872   3.030
65398W        W37823  23.951   4.010   3.841
65399W        W37824  36.546   5.284  14.556
65400W        W37825  42.290   2.939   0.802
65401W        W37826  36.394   6.994  13.107
65402W        W37827  26.724   0.452   3.431
65403W        W37828  23.597  23.994   3.251
65404W        W37829   8.198  42.057   3.306
65405W        W37830  27.675   9.590  11.154
65406W        W37831   0.567  10.636   0.899
65407W        W37832  39.512  24.139   2.683
65408W        W37833  11.650  40.646  12.425
65409W        W37834  20.693  41.853   3.348
65410W        W37835  42.823  24.229  13.802
65411W        W37836  14.630  19.668   0.912
65412W        W37837  39.250  38.825  14.851
65413W        W37838  40.934  27.985  14.828
65414W        W37839   5.772  21.009   3.151
65415W        W37840  24.759   8.469   0.365
65416W        W37841   1.140  34.950  14.959
65417W        W37842  11.733  10.877   0.860
65418W        W37843  15.310  13.317  14.953
65419W        W37844  22.439  10.638  13.756
65420W        W37845  23.995   4.754   5.064
65421W        W37846  20.394   5.828  14.993
65422W        W37847  22.775  13.183  12.418
65423W        W37848  22.220   4.877  13.950
65424W        W37849  22.974  22.537  10.684
65425W        W37850  18.146  39.722   0.355
65426W        W37851  28.008  34.467  12.043
65427W        W37852  35.497  37.503  13.009
65428W        W37853  30.204   3.465   0.979
65429W        W37854  18.128   1.860   1.085
65430W        W37855  39.522  30.050   2.426
65431W        W37856  33.796  18.729   4.087
65432W        W37857  24.808  17.571   2.431
65433W        W37858   0.700  30.073  14.104
65434W        W37859  38.563  17.570   1.796
65435W        W37860  35.629  36.415  12.467
65436W        W37861  13.896  15.727   3.899
65437W        W37862  35.096   8.547  14.318
65438W        W37863  26.655  40.880   3.335
65439W        W37864   0.423  44.344  11.488
65440W        W37865   1.347  36.661   0.854
65441W        W37866   7.559  44.643  13.936
65442W        W37867  43.264  21.532   2.241
65443W        W37868  27.003  32.312   3.300
65444W        W37869  44.007   2.386  12.841
65445W        W37870   3.497  17.570  11.064
65446W        W37871   6.729  32.865  12.491
65447W        W37872  42.412   2.521   3.247
65448W        W37873  21.164  44.094   3.599
65449W        W37874  26.520   6.924   4.428
65450W        W37875   7.226  21.210   4.125
65451W        W37876  14.144   4.341   2.509
65452W        W37877  19.583   2.902   3.382
65453W        W37878  32.984  32.913  12.441
65454W        W37879  28.458  13.054   1.922
65455W        W37880  35.434  12.067   4.559
65456W        W37881  33.998   7.821  10.553
65457W        W37882  29.632   3.774  14.270
65458W        W37883  26.100  12.524  12.636
65459W        W37884  25.630  24.115  12.633
65460W        W37885  20.222  22.635   1.769
65461W        W37886   9.177  27.320   3.219
65462W        W37887  39.820   1.315  10.976
65463W        W37888  44.729  22.531  14.869
65464W        W37889  44.857  23.906  14.858
65465W        W37890  17.726  31.545  13.815
65466W        W37891  42.332  22.795   4.673
65467W        W37892  43.082  18.109   1.267
65468W        W37893  34.558  29.553   2.493
65469W        W37894  29.807  21.453  13.404
65470W        W37895  34.332  26.410  14.049
65471W        W37896   9.155   5.903   3.281
65472W        W37897  26.052  23.491   0.226
65473W        W37898  38.515  31.348   1.225
65474W        W37899  20.840  37.726   4.121
65475W        W37900  10.455  32.326   4.742
65476W        W37901  41.496  32.167  12.637
65477W        W37902  32.631  20.356  12.383
65478W        W37903   3.880   8.906   1.101
65479W        W37904  14.514  38.140  13.714
65480W        W37905  21.044  26.249   3.021
65481W        W37906  19.782  24.897  11.400
65482W        W37907  44.170  19.223  13.003
65483W        W37908  26.391  37.286  11.539
65484W        W37909  30.515  16.397  10.766
65485W        W37910  15.537   6.440   4.286
65486W        W37911   5.891  44.333   2.948
65487W        W37912  18.769   6.148   4.625
65488W        W37913  28.988  17.807   2.673
65489W        W37914   9.639  26.644   2.590
65490W        W37915  31.118   8.273  13.691
65491W        W37916  12.394  30.596   0.921
65492W        W37917  39.521  34.727  14.174
65493W        W37918  33.213   4.856   3.699
65494W        W37919   3.104  24.437   2.609
65495W        W37920  40.325  36.550  12.887
65496W        W37921  24.321   6.582  11.443
65497W        W37922  43.826  14.788   1.241
65498W        W37923  16.610  16.899   4.037
65499W        W37924  38.018  17.600   0.355
65500W        W37925  37.978  22.936  14.322
65501W        W37926  13.276  38.048   1.246
65502W        W37927   4.427  21.693   4.892
65503W        W37928  31.847  26.903   3.245
65504W        W37929   7.941  20.352  13.922
65505W        W37930  37.754  35.293  11.859
65506W        W37931  38.430  35.901   3.633
65507W        W37932  21.087  27.206   2.868
65508W        W37933  44.942  31.133  13.116
65509W        W37934  30.032  14.952   2.778
65510W        W37935  27.052  29.866   1.582
65511W        W37936  37.869   9.652  11.913
65512W        W37937  10.177  33.575   3.235
65513W        W37938  25.371  17.185  10.991
65514W        W37939  19.218  10.787  10.475
65515W        W37940  36.619  32.263   4.961
65516W        W37941   8.399  31.976   4.659
65517W        W37942  17.445  25.457  14.183
65518W        W37943  26.922  14.175  10.819
65519W        W37944  37.608  16.771   0.854
65520W        W37945  32.370  26.132   2.456
65521W        W37946  44.778   1.862   0.793
65522W        W37947  19.680  13.220  10.454
65523W        W37948  44.314   9.234  14.324
65524W        W37949   6.792  22.845  11.280
65525W        W37950   8.957   5.421  10.498
65526W        W37951  34.854  35.011  14.012
65527W        W37952  34.880  14.523  14.504
65528W        W37953  38.382  40.085   9.971
65529W        W37954  41.669  34.024  14.525
65530W        W37955  13.163  21.742  13.991
65531W        W37956   6.187  39.323   2.829
65532W        W37957  12.284  12.947   1.379
65533W        W37958   5.955   0.502  10.639
65534W        W37959  41.917  22.126   5.030
65535W        W37960  27.216  15.268   0.811
65536W        W37961  15.285  36.006  14.906
65537W        W37962  42.662  28.034  12.088
65538W        W37963  18.656  24.965   0.333
65539W        W37964   7.733  33.803  14.368
65540W        W37965   6.824  31.042   3.559
65541W        W37966  36.420  23.387  12.992
65542W        W37967   4.357  14.229  12.379
65543W        W37968   6.137  10.292  13.858
65544W        W37969  25.227   6.183  12.409
65545W        W37970   4.892  20.498   1.267
65546W        W37971  33.735  14.392  12.912
65547W        W37972  20.670  29.420   2.771
65548W        W37973  38.926  30.997   1.196
65549W        W37974  29.989  18.545   5.289
65550W        W37975   2.339  10.307   0.048
65551W        W37976  43.483  25.470   1.797
65552W        W37977   8.084  43.983   4.686
65553W        W37978  19.164   3.834  14.251
65554W        W37979  13.151  22.261   2.160
65555W        W37980  11.749  22.127  10.036
65556W        W37981   6.256   1.972  13.081
65557W        W37982  40.128   1.944  12.958
65558W        W37983   7.344  32.876  11.969
65559W        W37984  15.359   5.380  13.326
65560W        W37985  15.160  36.109  11.385
65561W        W37986   7.608  14.746  11.200
65562W        W37987  39.057   1.828   3.548
65563W        W37988  13.348   4.496  11.449
65564W        W37989   1.418  14.863  10.934
65565W        W37990   4.000   5.406  11.518
65566W        W37991  31.912  24.965   3.144
65567W        W37992  17.027  23.763   1.513
65568W        W37993  30.906  22.572   4.538
65569W        W37994   0.320  21.095   1.255
65570W        W37995  12.591   5.252   3.932
65571W        W37996  13.962  40.395   2.236
65572W        W37997  42.005  11.083   4.626
65573W        W37998  25.126  29.985   4.703
65574W        W37999  11.702  26.407  10.596
65575W        W38000   2.697  31.417   2.944
65576W        W38001  29.588  14.242  11.668
65577W        W38002  41.670   1.502   3.375
65578W        W38003  33.948  34.418  11.129
65579W        W38004  26.734  22.620   1.708
65580W        W38005  16.580  44.406  11.093
65581W        W38006   9.186  21.531   1.999
65582W        W38007  38.021  33.589  12.350
65583W        W38008   3.996  42.618  11.448
65584W        W38009   1.918  43.822   1.335
65585W        W38010  11.848   7.286  13.972
65586W        W38011  20.052  32.709   2.767
65587W        W38012   2.465   9.933  12.505
65588W        W38013  35.807  33.510  13.301
65589W        W38014  22.963  23.227  12.006
65590W        W38015  33.000  42.937  10.316
65591W        W38016   1.900  29.269  14.016
65592W        W38017  22.095  27.145   3.206
65593W        W38018  21.534   4.855   2.346
65594W        W38019   1.560  16.045  11.611
65595W        W38020  38.057  35.403   1.949
65596W        W38021  17.070   6.727   0.465
65597W        W38022  14.873  40.277   1.814
65598W        W38023  24.754  41.338   0.355
65599W        W38024  23.742  21.701  14.546
65600W        W38025  36.392  16.892   2.934
65601W        W38026  41.798  31.435  10.485
65602W        W38027  29.289  16.535   2.266
65603W        W38028  18.301  38.740   3.054
65604W        W38029   4.905  13.998   3.043
65605W        W38030  22.507  10.226   2.040
65606W        W38031  23.084  26.437  10.756
65607W        W38032  39.795  28.569   0.685
65608W        W38033  42.399   2.575  12.021
65609W        W38034  11.244  41.455   2.907
65610W        W38035  19.011  10.750  12.259
65611W        W38036  37.401  34.140   4.612
65612W        W38037  28.029   8.517  11.740
65613W        W38038  39.495  39.575  13.834
65614W        W38039  32.895  42.870   2.431
65615W        W38040  16.246  36.941  11.879
65616W        W38041  16.584  34.609  12.155
65617W        W38042   7.762  25.914  11.019
65618W        W38043  43.486   0.674  14.085
65619W        W38044  24.521  10.617   3.656
65620W        W38045  31.578  43.094   3.230
65621W        W38046  37.403  24.434  10.737
65622W        W38047   4.425  42.352  11.500
65623W        W38048  39.511  25.085   4.554
65624W        W38049   8.742  32.880  13.877
65625W        W38050   1.977  10.973  11.037
65626W        W38051  25.938  12.257   1.387
65627W        W38052   6.921  39.122  12.498
65628W        W38053  34.896   1.349   4.519
65629W        W38054  10.645  22.771   0.313
65630W        W38055  12.278   5.357   4.959
65631W        W38056  34.608  30.711   5.002
65632W        W38057  23.689  11.741   1.996
65633W        W38058  15.585  33.178  14.791
65634W        W38059  29.085  19.490   2.862
65635W        W38060  14.256  40.519  12.242
65636W        W38061  30.589   4.426   0.734
65637W        W38062  26.433  37.423   1.915
65638W        W38063   1.513  29.047   4.239
65639W        W38064  21.290   7.227  12.151
65640W        W38065  17.040  11.364   4.080
65641W        W38066   3.254  43.898   9.935
65642W        W38067   2.028   1.191  14.916
65643W        W38068  38.526  25.378  11.236
65644W        W38069  39.975  42.727  14.802
65645W        W38070   4.425  32.609  13.797
65646W        W38071  11.154  40.540   2.901
65647W        W38072  17.371   6.903  12.419
65648W        W38073  29.902  11.829  14.346
65649W        W38074  39.538  17.367   4.696
65650W        W38075   0.681  41.455   2.629
65651W        W38076  16.221  23.350  11.847
65652W        W38077  41.649   4.868  14.563
65653W        W38078   0.619  32.536   5.500
65654W        W38079   8.807  26.705   1.206
65655W        W38080  21.012  15.284   1.208
65656W        W38081  28.473   0.636  11.313
65657W        W38082  38.959  31.608   1.100
65658W        W38083  11.771  21.217  10.161
65659W        W38084  33.042  22.985  10.681
65660W        W38085  32.915  16.487   2.895
65661W        W38086  18.685  31.033   0.182
65662W        W38087  39.435  30.315   2.867
65663W        W38088  15.298  20.213   1.059
65664W        W38089   6.667  12.435  12.800
65665W        W38090  27.729  41.263  10.373
65666W        W38091  16.562  44.408  10.567
65667W        W38092  18.862  15.264   4.205
65668W        W38093  43.307  28.612  10.604
65669W        W38094  22.700  14.599   2.946
65670W        W38095   7.386  34.036   0.824
65671W        W38096  38.429  14.849   0.916
65672W        W38097  17.090  22.640  11.960
65673W        W38098  19.735  38.793  14.116
65674W        W38099  41.851  13.405  11.822
65675W        W38100  44.415  23.740   4.528
65676W        W38101   2.801  30.421   3.183
65677W        W38102   8.765  21.945   0.910
65678W        W38103   4.295  30.689  11.141
65679W        W38104  30.421   1.472  12.267
65680W        W38105  35.879  42.726   3.681
65681W        W38106  21.620   3.297  13.403
65682W        W38107   5.965  16.000  11.334
65683W        W38108  14.753   5.428   4.576
65684W        W38109   4.642  36.581   2.566
65685W        W38110  35.810  15.235   0.289
65686W        W38111  29.408  29.125   2.315
65687W        W38112  12.517   3.402   3.584
65688W        W38113   7.266  24.472  11.513
65689W        W38114  20.270  18.407  14.261
65690W        W38115  22.589  15.854  11.483
65691W        W38116  42.085  11.575   2.954
65692W        W38117  24.851  20.946   4.018
65693W        W38118  21.888  40.442   4.104
65694W        W38119  42.234  44.002   2.178
65695W        W38120  12.878   8.323  14.918
65696W        W38121   5.772  18.645   2.893
65697W        W38122  19.773   8.966   3.660
65698W        W38123  12.026   5.727  12.146
65699W        W38124   2.436  37.479  10.392
65700W        W38125   1.459  16.234  12.955
65701W        W38126  26.021  24.573   4.054
65702W        W38127   5.919  10.116  12.375
65703W        W38128  21.785  27.528  13.501
65704W        W38129  29.870  24.669   2.823
65705W        W38130  13.819  32.659   0.585
65706W        W38131  11.565  28.769   3.646
65707W        W38132  15.512  44.000   0.779
65708W        W38133  35.198  38.965  11.601
65709W        W38134  36.378  14.763   0.094
65710W        W38135  16.118  13.590   0.842
65711W        W38136  23.776  16.273  10.322
65712W        W38137   6.102  40.640  11.977
65713W        W38138  32.639  36.587   1.276
65714W        W38139  10.680  29.142  14.434
65715W        W38140   3.888   3.667   3.300
65716W        W38141  44.716  11.334  14.518
65717W        W38142  32.085   7.807  10.872
65718W        W38143  14.870  21.249   4.560
65719W        W38144  28.114  34.303  11.092
65720W        W38145  12.111  13.646   3.964
65721W        W38146  30.201  19.240  14.679
65722W        W38147  38.453  14.647  11.275
65723W        W38148   0.506  10.101   4.117
65724W        W38149  29.198  44.514   2.761
65725W        W38150  16.840  43.856  10.573
65726W        W38151   9.309   3.378   2.179
65727W        W38152  25.298  28.213  14.761
65728W        W38153  27.928   5.399   3.350
65729W        W38154  18.340  15.243  13.525
65730W        W38155   8.167  14.115   0.031
65731W        W38156   5.307  26.885   4.109
65732W        W38157  42.962  12.341   3.262
65733W        W38158  21.682   5.946  14.746
65734W        W38159   6.371  34.497   3.995
65735W        W38160  13.757  24.118   1.224
65736W        W38161  11.795  24.170   0.396
65737W        W38162  42.965  26.177   3.230
65738W        W38163  32.820  41.201   4.659
65739W        W38164  26.634   9.188   3.691
65740W        W38165   0.280  31.497   9.892
65741W        W38166  40.352  11.848  14.897
65742W        W38167  20.532  14.260  11.416
65743W        W38168  35.552  10.187  14.458
65744W        W38169   2.248  43.064   4.048
65745W        W38170  15.377  33.227   4.177
65746W        W38171   3.799  17.718  12.061
65747W        W38172  20.023   9.218  14.854
65748W        W38173  42.312   2.019   3.210
65749W        W38174  38.894  10.623  14.780
65750W        W38175  44.095   2.104   0.232
65751W        W38176  18.544   3.628  11.431
65752W        W38177  19.641  12.693   0.605
65753W        W38178  16.021  27.972   1.280
65754W        W38179  18.184  24.163  10.918
65755W        W38180  24.039  33.611   3.740
65756W        W38181  35.476  12.543   2.420
65757W        W38182  26.691  23.584  13.545
65758W        W38183  10.944  36.685   2.648
65759W        W38184  44.848  32.109   2.582
65760W        W38185  25.945  25.076  12.558
65761W        W38186  26.569  30.125   4.084
65762W        W38187  25.141  43.837  14.740
65763W        W38188  31.434  36.006  14.279
65764W        W38189  34.562   4.297   1.034
65765W        W38190  26.016  24.876   1.776
65766W        W38191   0.431  37.905  11.289
65767W        W38192  14.098  20.675   0.464
65768W        W38193  25.791  13.500   4.780
65769W        W38194  13.398  25.618   0.042
65770W        W38195  21.461  44.834   0.792
65771W        W38196  38.503  21.239  14.139
65772W        W38197  18.096  18.720   3.767
65773W        W38198  23.919  41.016  10.970
65774W        W38199  10.462   5.159  11.664
65775W        W38200  40.529   1.424   2.838
65776W        W38201  22.116  21.046   1.945
65777W        W38202  24.023  16.508  10.735
65778W        W38203  15.969  26.588  14.063
65779W        W38204  34.523  44.316  14.504
65780W        W38205  37.881  20.905  12.973
65781W        W38206  21.207  16.075  10.517
65782W        W38207  41.834  20.710  11.626
65783W        W38208  20.262   8.799  13.068
65784W        W38209  10.942   9.296   0.882
65785W        W38210   1.214  31.033  10.676
65786W        W38211   9.283  22.475   2.690
65787W        W38212   3.750  10.665   0.019
65788W        W38213  15.220   4.493  11.192
65789W        W38214  30.928  33.190  11.573
65790W        W38215  17.690  43.902   3.196
65791W        W38216  31.136  18.255  14.923
65792W        W38217  13.975  19.388  11.146
65793W        W38218  41.767   0.912   1.278
65794W        W38219  37.935   9.434   1.891
65795W        W38220   0.071  23.700  10.662
65796W        W38221  22.589  28.084   4.401
65797W        W38222  22.792  14.592   2.396
65798W        W38223  40.460  28.715   2.857
65799W        W38224  42.867   7.863   2.843
65800W        W38225   9.032  40.592   9.910
65801W        W38226  39.116  13.114   1.499
65802W        W38227  32.635  35.351  14.466
65803W        W38228  43.509  38.447  11.505
65804W        W38229  29.051  26.614   4.754
65805W        W38230  17.981  32.187   3.656
65806W        W38231  26.235  44.799  11.822
65807W        W38232   4.323  14.196  11.019
65808W        W38233  12.241  18.685   0.687
65809W        W38234   6.728   4.295   0.746
65810W        W38235  12.757   5.039  10.997
65811W        W38236  24.091  14.125  13.557
65812W        W38237  41.021  26.126   3.302
65813W        W38238  27.145  34.756  14.938
65814W        W38239  26.239   1.043  12.957
65815W        W38240  44.198   1.195   0.347
65816W        W38241  17.098  28.484  14.844
65817W        W38242  42.550  18.102  14.453
65818W        W38243  26.231  25.864   4.178
65819W        W38244  17.201   2.092   3.724
65820W        W38245  34.030  12.083  12.314
65821W        W38246  17.890   0.512  14.433
65822W        W38247  37.097  19.784   4.165
65823W        W38248  12.781  43.045  10.773
65824W        W38249   8.069   2.781   4.536
65825W        W38250   4.740  25.939   3.370
65826W        W38251  23.897  40.365   3.165
65827W        W38252  12.270  44.852  11.614
65828W        W38253  32.556  13.351   1.935
65829W        W38254   4.759  12.917  12.099
65830W        W38255  14.756  35.745  13.708
65831W        W38256  33.173  29.812  14.427
65832W        W38257  14.548  30.064  13.797
65833W        W38258  23.548  38.317   4.830
65834W        W38259  13.165  36.880   1.336
65835W        W38260   9.388  15.257  13.330
65836W        W38261   9.723  37.132  14.100
65837W        W38262  40.273   9.714  13.911
65838W        W38263   2.756  43.307   0.453
65839W        W38264  38.317  32.595   4.105
65840W        W38265  44.665  39.009  10.438
65841W        W38266  11.253  35.261  11.505
65842W        W38267  17.348   3.184  13.875
65843W        W38268  24.751   8.216   1.187
65844W        W38269  15.821  19.272   2.102
65845W        W38270  27.017  11.870   0.640
65846W        W38271  25.627  22.300  12.544
65847W        W38272  36.820   8.763  11.025
65848W        W38273   7.500   0.539  12.170
65849W        W38274   3.891   6.160   1.252
65850W        W38275   1.974   9.782  12.457
65851W        W38276  20.492   4.170  13.561
65852W        W38277  25.482  39.315   3.098
65853W        W38278  19.687   2.021  11.659
65854W        W38279  44.867  41.936   2.649
65855W        W38280  38.867  38.988  14.210
65856W        W38281  29.183  31.496   1.558
65857W        W38282  20.772   2.828   0.183
65858W        W38283  31.152  25.572  14.755
65859W        W38284  29.102  32.657  14.086
65860W        W38285  21.242  41.968  11.605
65861W        W38286  11.367  21.336   0.874
65862W        W38287  28.384  23.647   4.714
65863W        W38288   8.898  41.457   4.822
65864W        W38289  11.829  18.071   2.278
65865W        W38290  35.614   6.838  11.530
65866W        W38291   0.270  38.601  14.998
65867W        W38292  35.631   7.881  13.580
65868W        W38293   5.492   6.939  12.866
65869W        W38294  30.122  37.943  12.420
65870W        W38295  40.714  29.882   4.107
65871W        W38296  28.475  22.974  13.388
65872W        W38297   1.910  25.714  14.503
65873W        W38298  19.845  35.035   4.098
65874W        W38299   1.890  23.053   3.770
65875W        W38300  40.891  23.376   3.700
65876W        W38301  38.906  29.009   3.160
65877W        W38302  37.031  17.758   2.913
65878W        W38303   8.197   2.304  11.163
65879W        W38304  29.210   0.351  11.986
65880W        W38305  22.039   6.737  13.049
65881W        W38306  24.583   6.222  10.762
65882W        W38307  42.261  21.221  14.069
65883W        W38308  10.408  23.939   1.777
65884W        W38309  29.494  16.049  14.323
65885W        W38310  16.119  29.628   1.977
65886W        W38311   8.471  35.287  13.378
65887W        W38312  16.263   0.484  11.506
65888W        W38313  23.516   1.155   0.456
65889W        W38314  41.426  14.314   0.441
65890W        W38315  24.988   1.683  14.835
65891W        W38316  37.407  23.181   2.807
65892W        W38317  41.886  37.303   0.431
65893W        W38318   4.239  33.719  11.851
65894W        W38319  17.832  44.862  12.205
65895W        W38320  34.820  37.992  13.509
65896W        W38321  12.643   3.190   1.334
65897W        W38322   8.351   2.895   0.636
65898W        W38323   3.323  40.268  14.788
65899W        W38324  33.885  32.604  12.926
65900W        W38325  29.442   8.933  10.664
65901W        W38326   7.988   3.194  10.155
65902W        W38327  17.718   2.424   2.895
65903W        W38328   0.329  29.152   0.002
65904W        W38329  15.160  42.500  12.074
65905W        W38330  22.765  11.306  12.543
65906W        W38331  29.869  29.628  10.620
65907W        W38332  12.734  18.778   4.786
65908W        W38333  31.968  34.576  12.576
65909W        W38334  22.254  35.356   4.210
65910W        W38335   1.277  14.428   2.913
65911W        W38336  16.838  28.049   1.697
65912W        W38337  33.259  22.590   1.543
65913W        W38338  10.658   7.891   0.699
65914W        W38339  31.079   2.073  13.660
65915W        W38340  35.342  44.365  10.435
65916W        W38341  27.654  35.992  12.117
65917W        W38342  27.686  25.895   3.667
65918W        W38343  27.856  16.651   4.473
65919W        W38344  12.851  13.998  10.112
65920W        W38345  37.704  10.572   0.341
65921W        W38346  40.056  27.447  11.941
65922W        W38347   3.273  36.998   2.555
65923W        W38348  20.702  23.271  13.533
65924W        W38349  30.535  37.514   5.062
65925W        W38350  29.930  29.059   4.156
65926W        W38351  25.904  31.090  14.751
65927W        W38352  17.627   5.687  12.922
65928W        W38353  13.705  18.410   0.956
65929W        W38354  29.010   8.793   0.060
65930W        W38355  20.690  37.843   0.642
65931W        W38356  43.462   4.199  11.013
65932W        W38357  14.264  44.893  12.496
65933W        W38358   4.767  24.456  12.566
65934W        W38359  10.051  33.067  12.065
65935W        W38360  14.776  43.408   1.835
65936W        W38361   1.311  42.464   4.097
65937W        W38362  24.292  43.720  12.576
65938W        W38363   5.152  34.373   0.310
65939W        W38364  16.274  20.153   4.852
65940W        W38365  20.119   3.292  11.597
65941W        W38366  21.030  34.549   4.557
65942W        W38367  28.186  37.463   2.606
65943W        W38368  21.236  30.935   1.353
65944W        W38369  26.768  11.372  12.144
65945W        W38370  23.482  36.013  14.886
65946W        W38371  22.241   5.352  12.956
65947W        W38372  30.397   7.960  12.154
65948W        W38373  31.940  21.674  12.497
65949W        W38374   7.660  23.883   1.783
65950W        W38375  32.900  37.947   2.740
65951W        W38376  34.041  20.250   4.597
65952W        W38377  35.807  18.173  13.591
65953W        W38378  29.871  21.655   2.294
65954W        W38379  35.435  34.078  11.903
65955W        W38380  29.570  38.103  10.284
65956W        W38381   9.455   5.259  11.669
65957W        W38382   7.270  21.314   3.255
65958W        W38383  12.426  24.228   9.705
65959W        W38384  18.382   6.878   2.447
65960W        W38385  13.252  19.894   1.231
65961W        W38386   2.860  44.172  12.647
65962W        W38387   2.186  19.685  11.524
65963W        W38388  44.500   8.301  10.306
65964W        W38389  39.519  33.875   0.958
65965W        W38390  31.335   3.748   5.098
65966W        W38391  38.891  22.130   1.236
65967W        W38392  26.864  21.587   4.113
65968W        W38393  41.070  24.630  14.844
65969W        W38394  14.050   3.493   3.737
65970W        W38395  32.114  20.959  11.098
65971W        W38396  23.810   4.326   1.199
65972W        W38397  27.017   7.198  12.355
65973W        W38398   9.804  41.485   3.069
65974W        W38399  10.935  32.186  11.588
65975W        W38400  20.683  39.424   4.700
65976W        W38401  12.575  34.913  14.931
65977W        W38402  39.547  39.794   0.047
65978W        W38403  22.940  44.789   3.810
65979W        W38404  13.698  36.290  10.338
65980W        W38405  11.739   4.928   0.993
65981W        W38406  11.671  15.765   0.950
65982W        W38407  34.873  38.359   3.622
65983W        W38408  35.875   0.049   4.070
65984W        W38409  28.876   4.749   0.915
65985W        W38410  11.125   2.348   0.395
65986W        W38411   9.789  39.339  14.418
65987W        W38412  33.807   9.441  11.931
65988W        W38413  37.540  42.614  13.315
65989W        W38414  14.558  16.823  12.013
65990W        W38415  22.810   0.002  12.921
65991W        W38416  34.590   4.506   3.058
65992W        W38417  39.283  23.486  12.884
65993W        W38418   5.030  35.724   1.228
65994W        W38419  31.057   7.126  13.084
65995W        W38420  24.184  10.732  13.789
65996W        W38421  32.400  35.883   2.281
65997W        W38422  27.106  26.377   0.037
65998W        W38423  33.141   4.375   2.145
65999W        W38424   9.627  23.941  14.892
66000W        W38425  27.245   8.902  11.653
66001W        W38426  42.918  15.663   1.894
66002W        W38427  21.239  25.698   3.669
66003W        W38428   5.275  30.765  11.157
66004W        W38429  11.340   7.774   0.296
66005W        W38430   3.440   6.713  11.700
66006W        W38431  11.050  18.014   4.200
66007W        W38432  34.121  12.274  12.777
66008W        W38433  19.165  28.422   0.954
66009W        W38434  32.076  12.066   4.643
66010W        W38435  43.852  24.971  10.693
66011W        W38436  13.652  19.182   1.546
66012W        W38437  24.951  36.004   3.242
66013W        W38438  39.055  21.161   3.579
66014W        W38439  22.849   5.293  13.865
66015W        W38440  13.128  41.483   2.219
66016W        W38441  16.049   6.954  13.709
66017W        W38442   0.987  41.912  13.820
66018W        W38443  12.091  19.753  12.092
66019W        W38444   3.726  28.521  14.974
66020W        W38445  42.598  43.138   5.129
66021W        W38446  32.265  24.305  12.806
66022W        W38447  21.672  37.461   0.749
66023W        W38448  30.712   1.982  11.031
66024W        W38449  15.617  14.708  12.360
66025W        W38450  16.183   7.087   4.010
66026W        W38451  22.288  13.164   4.104
66027W        W38452  34.577  28.422   2.438
66028W        W38453  23.481   2.165   2.098
66029W        W38454  32.093  24.922  13.810
66030W        W38455   0.155  19.784  10.696
66031W        W38456  43.981  24.226  11.572
66032W        W38457  36.738  41.540   4.686
66033W        W38458  13.798  18.207  12.981
66034W        W38459  15.174  24.024   0.835
66035W        W38460  41.586   8.318   2.794
66036W        W38461  24.062  25.858   1.416
66037W        W38462   5.956  15.510   3.835
66038W        W38463  26.666  39.843   3.351
66039W        W38464  31.551  13.929  12.921
66040W        W38465  41.423  22.479  14.115
66041W        W38466  33.852   9.270  10.583
66042W        W38467  21.971   2.260   1.645
66043W        W38468  33.197  24.468   3.628
66044W        W38469  24.897   8.468   2.433
66045W        W38470  16.594   4.620   2.610
66046W        W38471   4.466  37.036  14.427
66047W        W38472  28.255  41.559   1.319
66048W        W38473  20.221  32.167  14.342
66049W        W38474   8.280  31.381   0.461
66050W        W38475  32.258   8.015  13.482
66051W        W38476   5.693  20.766   4.846
66052W        W38477  12.612  36.455   3.128
66053W        W38478   7.060  24.209  13.821
66054W        W38479  23.911  11.931   5.511
66055W        W38480  17.099   9.869   4.025
66056W        W38481  14.021  16.693   1.179
66057W        W38482  29.219  25.142   3.177
66058W        W38483  26.069  35.404  12.235
66059W        W38484  13.125  30.063  13.500
66060W        W38485  30.818   9.810   3.577
66061W        W38486  22.199  40.707   3.737
66062W        W38487   1.915   1.649   3.366
66063W        W38488  30.938  15.795   3.559
66064W        W38489  18.341  38.827  11.996
66065W        W38490  26.160  37.866   1.800
66066W        W38491  41.006  20.980  12.013
66067W        W38492   0.274  16.820  12.473
66068W        W38493  30.946   6.672  10.747
66069W        W38494  34.300  20.771  12.355
66070W        W38495  21.048   6.279  12.582
66071W        W38496  35.790  29.880  10.349
66072W        W38497  41.443  37.947  10.437
66073W        W38498  36.014   7.222   2.424
66074W        W38499   4.227  19.308   4.544
66075W        W38500  18.852  36.816  11.428
66076W        W38501  15.760   6.397  14.396
66077W        W38502  21.792   9.574  11.015
66078W        W38503  38.303  41.376   3.635
66079W        W38504  32.856   4.825  14.384
66080W        W38505  30.607   4.335   3.538
66081W        W38506  21.578  17.225   3.587
66082W        W38507  24.286  33.527  10.612
66083W        W38508  19.987  37.411   2.416
66084W        W38509  31.978   5.481  11.988
66085W        W38510   5.934  29.955   1.237
66086W        W38511   4.846   8.276   1.746
66087W        W38512  36.537  38.600  10.566
66088W        W38513   3.758   2.639   3.423
66089W        W38514  37.864  38.469  11.973
66090W        W38515  30.567  29.621  11.916
66091W        W38516  40.695  40.969  14.857
66092W        W38517  39.295  43.786  11.861
66093W        W38518  37.972   3.899   0.364
66094W        W38519  20.934   9.882  14.947
66095W        W38520  39.296   8.844  13.883
66096W        W38521  34.200  15.888   3.334
66097W        W38522  35.051  42.728   2.403
66098W        W38523  11.157   2.297  14.415
66099W        W38524  39.591  28.488  11.458
66100W        W38525   2.821  16.591   4.330
66101W        W38526  29.686  29.132  13.526
66102W        W38527  30.002  44.324  14.568
66103W        W38528  21.749  25.131   2.270
66104W        W38529  21.521  26.946   3.691
66105W        W38530  15.767  37.910   0.501
66106W        W38531  21.480  16.779   2.756
66107W        W38532  27.027  31.170  12.460
66108W        W38533  39.094  31.100   2.359
66109W        W38534  35.818  10.838  13.121
66110W        W38535  36.022  24.432  12.549
66111W        W38536  22.349  39.980   2.401
66112W        W38537  24.572   7.679   0.743
66113W        W38538  15.378  15.350   4.243
66114W        W38539  10.828  33.019  14.690
66115W        W38540  28.436  36.864   4.638
66116W        W38541  36.849  22.424   4.107
66117W        W38542  15.602  21.161  10.720
66118W        W38543  39.094   5.261   4.541
66119W        W38544  39.371  15.139   3.717
66120W        W38545  44.280  24.202  10.952
66121W        W38546  30.859  26.615   0.499
66122W        W38547  24.016  14.597  13.756
66123W        W38548   4.675   5.171   0.300
66124W        W38549  31.463  23.554  12.725
66125W        W38550   3.252  15.608  13.798
66126W        W38551  28.613  17.323  12.358
66127W        W38552  19.979  42.871  12.658
66128W        W38553  40.091  12.586  14.169
66129W        W38554  16.544  29.874   3.817
66130W        W38555  25.963  24.838  11.152
66131W        W38556   9.294  16.134   1.871
66132W        W38557  43.935   1.496   0.770
66133W        W38558   3.724  31.762  10.723
66134W        W38559   8.143  20.442   2.884
66135W        W38560  22.032  10.249   3.823
66136W        W38561  27.004  23.270   3.758
66137W        W38562  34.941  17.996  11.182
66138W        W38563  11.148  33.268  14.364
66139W        W38564  28.901  26.543   0.368
66140W        W38565  42.410  34.069  12.747
66141W        W38566  35.778  13.912  11.721
66142W        W38567  20.645  17.872   2.875
66143W        W38568   8.046  37.578   4.562
66144W        W38569  24.187   3.892   4.761
66145W        W38570  39.845   9.652  10.692
66146W        W38571  39.978  33.329  13.190
66147W        W38572  22.921  11.781  12.701
66148W        W38573  22.008   2.429   0.639
66149W        W38574  37.773  40.916  12.076
66150W        W38575   9.407   8.675   3.716
66151W        W38576  25.972   6.357   0.506
66152W        W38577  30.088  41.241   1.314
66153W        W38578  11.633  41.021  14.741
66154W        W38579  35.388  34.012  14.362
66155W        W38580  18.041  11.298   2.308
66156W        W38581  36.263   5.484  11.108
66157W        W38582   4.927  18.744  10.758
66158W        W38583  42.686  11.066   4.547
66159W        W38584  37.091  10.502  12.868
66160W        W38585  16.345  12.377  11.612
66161W        W38586  42.078  25.968   3.724
66162W        W38587  22.257   3.179  11.456
66163W        W38588   6.240  34.476   2.638
66164W        W38589  42.865   6.483   1.282
66165W        W38590  32.863  40.069  12.898
66166W        W38591  10.633  16.836  13.878
66167W        W38592  24.622   7.807   3.631
66168W        W38593  44.723  28.249   1.867
66169W        W38594   4.776   0.881  14.415
66170W        W38595  38.828  26.899   1.755
66171W        W38596  30.953  42.246   1.442
66172W        W38597  24.676   0.666  14.761
66173W        W38598  41.356  18.029  12.984
66174W        W38599  15.183  31.636  13.409
66175W        W38600   2.703  28.758   0.382
66176W        W38601  11.877  29.904  12.423
66177W        W38602   1.829  43.345   0.404
66178W        W38603   1.570   2.669  12.637
66179W        W38604  37.887  32.505   2.357
66180W        W38605  31.030  32.431   2.616
66181W        W38606  26.969  35.337   1.764
66182W        W38607  22.989  24.209   3.288
66183W        W38608   8.167  34.256   3.918
66184W        W38609  19.680  38.080   4.158
66185W        W38610  33.204  39.530   1.312
66186W        W38611  37.815   8.689   2.310
66187W        W38612  42.472  31.498   1.046
66188W        W38613   9.593  17.689   0.471
66189W        W38614  27.545   9.804   2.704
66190W        W38615  32.248  33.636  14.617
66191W        W38616  15.230  31.948  11.936
66192W        W38617  44.132   2.311   5.047
66193W        W38618   5.843   4.215   0.825
66194W        W38619   0.718   6.392   3.328
66195W        W38620  44.276  40.324   2.156
66196W        W38621  13.090  31.108  14.723
66197W        W38622  44.862  13.363   4.677
66198W        W38623  15.484  19.047   1.116
66199W        W38624  44.718  19.159   0.423
66200W        W38625  28.722  16.873  13.399
66201W        W38626  26.234  14.317  13.996
66202W        W38627  40.203  39.879  11.698
66203W        W38628   1.354   9.638   4.823
66204W        W38629   9.911   0.865  12.162
66205W        W38630  10.868  23.685   9.651
66206W        W38631  15.124  12.742   4.946
66207W        W38632  17.730  44.824   3.132
66208W        W38633  38.266  29.496  13.237
66209W        W38634  18.875   1.704   4.627
66210W        W38635  33.467  13.199  11.029
66211W        W38636   2.406  39.179   2.338
66212W        W38637   5.877  43.752   3.663
66213W        W38638   0.299   7.181  12.166
66214W        W38639   1.697  26.379   2.420
66215W        W38640  35.808   5.905   3.742
66216W        W38641  22.565  36.526  11.594
66217W        W38642  13.230  13.612   2.199
66218W        W38643   7.917   2.923  12.982
66219W        W38644  29.583   4.829   2.850
66220W        W38645  16.027  44.005   0.873
66221W        W38646  18.769  23.532   0.660
66222W        W38647  23.534  22.277   3.637
66223W        W38648  40.484   3.581  14.805
66224W        W38649  32.182  12.670  11.040
66225W        W38650  21.567  33.383  12.434
66226W        W38651  41.710  42.894  14.731
66227W        W38652  13.715  28.465   1.267
66228W        W38653  39.417  30.702   1.513
66229W        W38654   9.625  31.995   1.336
66230W        W38655  28.658   4.424   3.113
66231W        W38656  15.558   2.206   3.294
66232W        W38657  15.836  15.511   3.180
66233W        W38658  10.092  16.877  14.585
66234W        W38659  27.043  17.641  10.735
66235W        W38660  23.585   9.352   1.236
66236W        W38661  19.237   2.692   2.274
66237W        W38662  22.387  10.176  10.174
66238W        W38663   5.272  41.863  12.405
66239W        W38664   2.146  40.388  11.161
66240W        W38665  43.795  21.538   2.346
66241W        W38666   1.118   2.315  12.811
66242W        W38667  21.609  28.088  13.394
66243W        W38668  38.330   3.788  12.883
66244W        W38669  38.209   0.426   1.769
66245W        W38670   8.578   1.310  13.421
66246W        W38671   8.580  17.097   2.587
66247W        W38672  25.579  44.576  12.454
66248W        W38673  15.335   7.491   0.049
66249W        W38674   2.412   4.891   4.120
66250W        W38675   0.207  41.779  14.805
66251W        W38676   4.468   3.680   4.774
66252W        W38677   0.245  41.634   4.140
66253W        W38678  11.871  36.144   0.248
66254W        W38679   1.770  42.707  14.826
66255W        W38680   5.021  10.827   4.146
66256W        W38681  19.687  41.395  12.917
66257W        W38682   8.152  10.082  10.672
66258W        W38683  40.830  11.233  14.735
66259W        W38684  31.825   6.889   3.282
66260W        W38685  19.661  35.313   1.767
66261W        W38686  44.468  22.665  13.607
66262W        W38687   4.608   0.421   1.344
66263W        W38688  31.133  20.488   0.899
66264W        W38689   2.369   2.948  12.993
66265W        W38690  25.968  44.891   3.665
66266W        W38691  20.541  25.009   0.932
66267W        W38692   7.439   9.127  14.358
66268W        W38693  27.670   8.312  12.466
66269W        W38694  16.830   7.241  13.168
66270W        W38695  13.602  11.404   1.932
66271W        W38696  10.345  37.308  14.517
66272W        W38697  21.928  18.025   4.869
66273W        W38698   2.359  26.951   2.815
66274W        W38699  17.012   2.885  12.901
66275W        W38700  19.158  28.054   3.225
66276W        W38701  27.624  34.300  10.835
66277W        W38702  13.744   9.984   0.957
66278W        W38703  38.557  14.237   3.257
66279W        W38704  22.035  27.577  13.963
66280W        W38705  42.913  27.669  14.441
66281W        W38706  20.260   8.349   1.004
66282W        W38707   4.841   9.628  10.166
66283W        W38708  30.084  10.891   0.252
66284W        W38709  16.516  38.542  11.823
66285W        W38710  25.708  18.602  12.041
66286W        W38711   3.756  21.238  13.806
66287W        W38712  10.154  22.276  11.071
66288W        W38713  23.081  28.669  14.622
66289W        W38714  29.823  34.779   4.547
66290W        W38715  12.803   8.301  10.663
66291W        W38716  41.830  19.999   3.815
66292W        W38717  14.524  33.636   3.532
66293W        W38718  26.061  22.443  11.859
66294W        W38719   4.720  43.201   2.780
66295W        W38720  33.497  39.049   4.875
66296W        W38721  19.842  23.112   2.456
66297W        W38722  24.423   0.852   2.724
66298W        W38723  13.310  22.022   5.019
66299W        W38724  26.773  40.754  10.647
66300W        W38725  41.543  12.393   5.103
66301W        W38726   8.931  10.935   2.520
66302W        W38727  25.696  44.046  11.568
66303W        W38728  17.858  19.597   3.400
66304W        W38729  32.706  23.174   2.041
66305W        W38730  32.370  23.452   3.312
66306W        W38731  17.030  39.962  13.299
66307W        W38732  43.405   1.919  11.561
66308W        W38733  28.178  14.272   3.316
66309W        W38734  38.819   8.918   2.036
66310W        W38735  36.829   1.260  11.983
66311W        W38736  22.560  21.984   1.200
66312W        W38737  37.821   0.929  14.652
66313W        W38738  30.151  24.188  10.174
66314W        W38739  31.171  25.647  12.456
66315W        W38740  14.771  38.974  10.655
66316W        W38741  43.015  30.315   0.911
66317W        W38742   2.330  30.833   0.839
66318W        W38743  40.401  17.987   1.396
66319W        W38744  25.638  26.813  13.290
66320W        W38745  42.887  24.121   1.790
66321W        W38746  23.026  10.192  13.013
66322W        W38747  17.569  31.460   4.617
66323W        W38748  12.169  18.385   3.602
66324W        W38749  40.467  22.941   2.208
66325W        W38750   2.267   5.713  12.516
66326W        W38751  18.641  23.597   3.603
66327W        W38752  41.539   7.146  13.027
66328W        W38753  13.623  24.917  10.912
66329W        W38754   8.410  33.195  14.090
66330W        W38755  36.853   6.519   9.863
66331W        W38756  14.256  25.431   2.262
66332W        W38757  39.274  12.356  14.515
66333W        W38758  32.407   0.158  14.419
66334W        W38759  14.130   2.873   3.148
66335W        W38760   2.521   5.960  10.844
66336W        W38761   1.679  27.655   4.066
66337W        W38762   8.647  31.064   0.268
66338W        W38763   4.308  27.608   0.656
66339W        W38764  42.567  15.359   4.074
66340W        W38765  33.553   8.364   3.586
66341W        W38766  28.224   7.749  14.544
66342W        W38767  22.068  30.826  12.851
66343W        W38768  27.107  37.265   3.724
66344W        W38769  12.504  36.091  14.499
66345W        W38770  23.202  15.029   2.276
66346W        W38771  15.382  35.965  10.406
66347W        W38772  27.890  44.545   1.144
66348W        W38773  44.424  23.286   3.363
66349W        W38774  15.634   5.934   2.729
66350W        W38775  42.504  16.586   0.586
66351W        W38776  40.669  15.770  10.676
66352W        W38777   3.939  40.092  10.466
66353W        W38778  14.934  19.090  11.977
66354W        W38779  12.123   4.413  11.843
66355W        W38780  27.871  43.901   2.423
66356W        W38781  28.815  26.710  11.454
66357W        W38782  42.548  13.094   4.115
66358W        W38783  34.437  12.664   4.440
66359W        W38784  23.715  10.780  13.560
66360W        W38785  25.158  14.106   0.785
66361W        W38786  21.609  42.859  14.534
66362W        W38787   4.889   2.377   1.305
66363W        W38788  18.826  31.926  14.220
66364W        W38789  43.273  21.767   0.775
66365W        W38790  38.413   4.174  14.393
66366W        W38791   6.501  16.327  12.828
66367W        W38792  40.359   9.587   4.141
66368W        W38793  43.958  41.012  13.597
66369W        W38794  33.610   0.146   2.718
66370W        W38795  23.971   4.899  12.115
66371W        W38796  33.149  23.565  13.343
66372W        W38797  18.712   9.726   0.041
66373W        W38798  18.845  44.700  10.069
66374W        W38799  17.245  37.899   4.616
66375W        W38800  31.402  12.251  14.295
66376W        W38801  12.413  27.073   4.156
66377W        W38802  12.210  21.655   1.817
66378W        W38803   7.896  40.377  10.602
66379W        W38804  19.116  24.751   0.413
66380W        W38805  19.669  14.064   2.353
66381W        W38806  42.465   1.487  10.559
66382W        W38807  16.186  12.730  12.900
66383W        W38808   4.366   1.485   2.238
66384W        W38809  19.146  26.602  13.490
66385W        W38810  34.358  14.509   3.385
66386W        W38811   2.957  14.255  11.333
66387W        W38812  40.329  10.650   1.948
66388W        W38813  13.332  31.709   0.327
66389W        W38814  23.781   3.600   4.658
66390W        W38815   9.671   7.317  14.925
66391W        W38816  20.353  15.901  13.850
66392W        W38817  36.107   5.701  13.437
66393W        W38818  44.962  10.375   3.597
66394W        W38819  40.399  13.263   2.272
66395W        W38820  34.530  39.381   0.680
66396W        W38821  35.844  30.891  13.332
66397W        W38822   3.320   2.092   4.980
66398W        W38823  23.265  43.289   3.123
66399W        W38824  41.075  23.268   4.584
66400W        W38825   4.018  31.475  12.039
66401W        W38826   6.654  11.102  11.695
66402W        W38827  42.945   8.890   3.162
66403W        W38828   9.243   1.372   0.728
66404W        W38829  33.079  29.103  13.922
66405W        W38830  22.448  16.853   0.206
66406W        W38831  22.583   2.462  11.716
66407W        W38832   6.411   4.223  14.424
66408W        W38833   0.966  33.090   2.890
66409W        W38834  38.943  29.279   5.186
66410W        W38835  18.192   5.360  14.958
66411W        W38836   2.710  31.207  14.381
66412W        W38837   5.979   8.776  11.552
66413W        W38838  12.776  37.612   4.510
66414W        W38839   7.481  24.105   3.596
66415W        W38840   4.693  35.534  13.336
66416W        W38841  43.767  16.748  10.666
66417W        W38842   5.725   4.292  13.637
66418W        W38843   8.722  39.989   1.939
66419W        W38844   2.486  11.152  11.996
66420W        W38845  16.821  11.358  14.480
66421W        W38846  33.753  11.591  11.600
66422W        W38847  32.370   6.256  14.300
66423W        W38848  24.387  37.788   1.903
66424W        W38849   6.009  17.480  10.604
66425W        W38850  23.347  34.643  11.129
66426W        W38851  42.623  37.248  12.879
66427W        W38852  14.805  34.887  11.062
66428W        W38853  23.624  33.676   0.626
66429W        W38854   8.533  33.890  11.971
66430W        W38855  35.880  41.263  11.240
66431W        W38856  21.706   6.717  12.590
66432W        W38857  26.249   6.761   2.691
66433W        W38858  40.103   1.567  14.494
66434W        W38859  29.560  14.734   4.557
66435W        W38860   7.312  32.413  11.739
66436W        W38861  40.469  14.472   2.835
66437W        W38862   3.220  21.021   2.989
66438W        W38863  30.687  16.884   3.182
66439W        W38864  39.062  42.788  13.076
66440W        W38865  26.640  24.775   0.310
66441W        W38866  17.615  23.154  14.476
66442W        W38867  33.480  24.211   1.933
66443W        W38868  33.936  19.944   3.697
66444W        W38869   5.810  42.193   1.263
66445W        W38870  22.555   5.170  14.276
66446W        W38871   6.934   2.158   4.577
66447W        W38872   7.237  41.362   4.632
66448W        W38873  11.226  39.292  10.683
66449W        W38874  10.665   6.792   1.245
66450W        W38875  12.470  24.807   5.464
66451W        W38876  18.565  42.173   1.799
66452W        W38877  41.338   3.604  11.216
66453W        W38878  44.211  41.402   3.106
66454W        W38879  30.849  36.788   3.519
66455W        W38880  26.450  11.907   5.096
66456W        W38881   1.435   8.217   1.735
66457W        W38882  34.583  14.639  11.921
66458W        W38883  29.858  38.228  12.767
66459W        W38884  25.047  38.960   4.148
66460W        W38885   7.873   6.918   2.008
66461W        W38886   6.419  41.968   3.861
66462W        W38887   8.072  31.922   1.372
66463W        W38888  12.842  20.535   2.742
66464W        W38889   6.186  11.489  13.267
66465W        W38890  31.982   3.241   0.288
66466W        W38891   9.827  33.117   4.143
66467W        W38892  41.392  43.590   4.525
66468W        W38893  22.242  35.819   0.353
66469W        W38894   7.079  28.975  12.903
66470W        W38895  39.462  38.292   3.747
66471W        W38896  25.188   6.729   3.834
66472W        W38897  41.408  39.865   0.886
66473W        W38898  38.960  33.104  13.227
66474W        W38899   8.391  18.145  14.762
66475W        W38900   3.902   2.198  12.772
66476W        W38901  12.626  13.647   4.013
66477W        W38902  41.024  40.947   0.262
66478W        W38903  44.977  20.177   1.020
66479W        W38904  18.242  27.868   2.887
66480W        W38905   3.838  15.824  12.607
66481W        W38906  19.601   6.874  10.775
66482W        W38907   3.222  21.113  14.867
66483W        W38908  19.684  20.012   4.032
66484W        W38909  37.534  21.243   1.402
66485W        W38910  17.296  34.452  11.502
66486W        W38911  25.685  37.196  12.073
66487W        W38912  36.852  19.917  13.529
66488W        W38913  43.289  25.569   4.786
66489W        W38914  12.355  20.060  14.478
66490W        W38915  37.332  23.497  13.454
66491W        W38916  34.645  14.089   4.539
66492W        W38917  12.569  11.201  14.799
66493W        W38918  35.787   1.718   4.686
66494W        W38919  39.510  19.702  14.797
66495W        W38920  10.745  36.901  12.859
66496W        W38921  16.817   8.456  11.824
66497W        W38922  16.350  38.180   1.727
66498W        W38923  39.999   3.774  14.730
66499W        W38924  37.770  22.558   4.561
66500W        W38925  12.547  13.107  13.962
66501W        W38926  18.774  13.412   3.467
66502W        W38927  38.594  15.150  10.412
66503W        W38928   4.734  23.573   2.866
66504W        W38929  27.553  21.697   4.120
66505W        W38930  39.280  35.984   0.860
66506W        W38931  34.044   5.168   1.875
66507W        W38932  36.885   5.333   4.086
66508W        W38933  14.870  24.156  11.538
66509W        W38934  30.962  18.072   3.358
66510W        W38935  41.537  26.567   4.145
66511W        W38936  41.642  10.120  12.005
66512W        W38937  27.954  38.371   4.765
66513W        W38938  18.163   4.665   0.188
66514W        W38939  15.823  18.627   0.164
66515W        W38940  12.172  14.989   1.450
66516W        W38941  24.604  35.884   1.783
66517W        W38942   7.082  22.539   4.197
66518W        W38943  30.772  27.676   1.233
66519W        W38944  29.964  14.149   3.837
66520W        W38945  26.083  28.433  13.019
66521W        W38946  21.817  14.873   0.230
66522W        W38947  44.015  43.147  14.547
66523W        W38948  21.985  13.823   4.635
66524W        W38949  43.299  26.743   2.275
66525W        W38950  37.887   8.045   2.786
66526W        W38951  41.385  10.547  10.727
66527W        W38952  25.731  34.310  14.020
66528W        W38953  12.607   1.872   1.767
66529W        W38954  43.764  29.594   2.349
66530W        W38955  38.444  37.586   0.089
66531W        W38956  10.263  35.898   3.829
66532W        W38957  23.535  34.192   0.526
66533W        W38958  21.753   1.388   3.696
66534W        W38959  25.216  38.949   1.484
66535W        W38960   5.103  43.555   2.755
66536W        W38961  29.232  10.023   3.718
66537W        W38962   7.185  35.115   4.028
66538W        W38963  33.365  15.006   3.578
66539W        W38964  26.481  21.480  11.910
66540W        W38965  33.872  13.535   4.713
66541W        W38966   9.693   5.727   0.956
66542W        W38967  12.579   8.195  11.104
66543W        W38968  44.561  31.641  11.064
66544W        W38969   8.636  20.506  13.051
66545W        W38970  30.052  21.156   4.658
66546W        W38971  38.990   5.782  13.549
66547W        W38972  26.453   1.182  13.825
66548W        W38973  20.480  42.056   2.917
66549W        W38974  41.345  26.702   1.329
66550W        W38975  35.496   6.650  14.432
66551W        W38976  37.440  26.691  11.452
66552W        W38977  25.322  32.606   5.007
66553W        W38978  33.597  26.767  12.085
66554W        W38979  23.513  21.835  14.997
66555W        W38980  29.191  10.217  13.448
66556W        W38981  31.470  29.147   4.450
66557W        W38982  38.758  37.804  14.032
66558W        W38983   5.413  24.503  11.641
66559W        W38984  41.898  36.110   5.018
66560W        W38985  41.415  20.314   3.678
66561W        W38986   2.182   7.740  13.387
66562W        W38987  40.742  36.874   0.791
66563W        W38988  36.126  28.543  11.924
66564W        W38989  24.151  27.964  11.805
66565W        W38990  40.218  42.282   4.288
66566W        W38991  35.860  20.734   2.264
66567W        W38992  37.580   2.780  11.723
66568W        W38993  26.910  27.416   1.074
66569W        W38994  35.105  41.774   3.628
66570W        W38995   2.501  34.340  10.153
66571W        W38996  25.275  30.438  10.593
66572W        W38997  43.871   3.278  13.210
66573W        W38998  26.754  21.047  12.030
66574W        W38999  30.036  36.092   4.507
66575W        W39000  20.393  14.913  13.495
66576W        W39001  31.076  29.572   2.748
66577W        W39002  35.244  11.549  11.102
66578W        W39003  19.020   5.222  11.247
66579W        W39004   6.413   6.505   3.018
66580W        W39005  41.760  13.856  14.954
66581W        W39006   0.057  13.416   1.165
66582W        W39007  42.915  18.142   2.887
66583W        W39008  44.208  32.065  14.732
66584W        W39009  12.090  29.528   1.996
66585W        W39010  20.295  35.816  14.980
66586W        W39011  44.265  27.662   0.228
66587W        W39012  32.133   6.331   4.773
66588W        W39013  24.770  38.866  14.800
66589W        W39014  30.872  25.418   1.779
66590W        W39015  22.154  23.772  11.976
66591W        W39016   3.747  42.558  11.989
66592W        W39017  36.399  41.615  11.916
66593W        W39018  17.198  44.178   4.138
66594W        W39019   2.999  17.002   4.071
66595W        W39020  15.767   3.884   1.269
66596W        W39021  16.078  32.163   5.032
66597W        W39022  14.154  11.150   0.426
66598W        W39023  12.205  29.434   4.108
66599W        W39024  15.625  43.518   4.244
66600W        W39025  12.734  24.564   1.915
66601W        W39026  24.107  13.088   4.081
66602W        W39027  14.347  37.459   0.959
66603W        W39028  25.443  30.951   0.375
66604W        W39029  40.419  28.814  12.084
66605W        W39030  44.239  29.331  14.318
66606W        W39031  33.060  24.756   2.259
66607W        W39032  24.239  37.862  12.866
66608W        W39033  21.523  10.306   4.629
66609W        W39034  28.340  32.206   0.841
66610W        W39035  22.543  31.162  12.067
66611W        W39036  21.023  11.796  11.241
66612W        W39037   0.053   0.026  14.111
66613W        W39038  18.117  21.030   4.994
66614W        W39039  24.053  40.839   3.272
66615W        W39040  22.821  31.849   1.277
66616W        W39041  14.618  33.644  13.801
66617W        W39042  22.660  12.784  10.217
66618W        W39043  18.815  32.554  12.017
66619W        W39044  26.889  38.489   3.939
66620W        W39045  33.826  16.010  12.558
66621W        W39046  35.395  21.770   1.587
66622W        W39047  43.959  22.538  13.399
66623W        W39048  36.269   6.188   5.204
66624W        W39049  18.123  27.991   0.232
66625W        W39050  14.211  31.617  11.943
66626W        W39051   8.630  23.590   0.976
66627W        W39052  25.342  19.534   1.651
66628W        W39053  17.613   3.797  11.554
66629W        W39054  31.634  12.316   1.244
66630W        W39055  20.060  26.450   5.051
66631W        W39056  38.099  12.580   2.513
66632W        W39057   8.792  29.137   3.086
66633W        W39058   8.480  14.680   0.756
66634W        W39059  20.242  11.794  10.305
66635W        W39060  27.959  26.508   0.513
66636W        W39061  22.304  37.638  13.472
66637W        W39062   4.476  30.173  12.451
66638W        W39063  40.887  43.382   4.481
66639W        W39064  35.033   8.193   1.171
66640W        W39065   0.037   2.679   2.276
66641W        W39066  14.570  31.023  12.498
66642W        W39067  13.646  22.127  11.883
66643W        W39068  27.300  34.562  13.410
66644W        W39069  37.323  35.487   3.189
66645W        W39070  28.166   6.753  14.551
66646W        W39071  34.558  14.713   1.951
66647W        W39072  14.067   9.723  10.625
66648W        W39073   6.824  31.983   1.096
66649W        W39074  20.700  37.646  14.239
66650W        W39075  21.294  28.193   3.032
66651W        W39076  36.581  35.782  10.384
66652W        W39077  11.807  24.560   1.390
66653W        W39078  40.381  29.584   0.387
66654W        W39079  44.583  21.515   3.221
66655W        W39080  37.986  28.604   0.856
66656W        W39081  35.087  20.118  12.991
66657W        W39082  33.506  40.420   3.128
66658W        W39083  33.480  25.937  14.915
66659W        W39084  26.434  19.988  10.974
66660W        W39085  24.595  39.374  14.747
66661W        W39086  17.233  28.492  14.323
66662W        W39087   5.205  11.681   2.946
66663W        W39088   8.660  29.108  14.287
66664W        W39089  32.505  19.041   4.120
66665W        W39090  32.009  19.485   2.814
66666W        W39091  23.366  26.377  10.020
66667W        W39092  34.131  40.955   0.469
66668W        W39093  29.143  26.704   4.254
66669W        W39094  37.568   1.501  12.466
66670W        W39095  40.309  32.106   2.071
66671W        W39096   9.377  17.532  13.416
66672W        W39097  40.564  41.891   3.540
66673W        W39098  12.936  15.778   2.840
66674W        W39099   4.701  30.449   3.456
66675W        W39100   7.168  33.653  13.296
66676W        W39101  25.243  12.719  13.995
66677W        W39102  21.722  25.883  11.844
66678W        W39103  29.904  13.220  14.505
66679W        W39104  14.972  12.186  14.268
66680W        W39105  16.557  12.816  14.552
66681W        W39106   6.546  21.450  12.507
66682W        W39107  42.436  22.540   3.787
66683W        W39108  17.809  36.873  13.005
66684W        W39109  10.211  31.581   1.772
66685W        W39110  13.126  34.508  10.494
66686W        W39111  31.669  19.207  11.446
66687W        W39112  10.774  11.701   2.311
66688W        W39113  28.088  30.163  13.548
66689W        W39114  35.065  12.455   0.050
66690W        W39115  15.833   7.715   3.231
66691W        W39116  25.983  36.404   4.623
66692W        W39117  30.412  36.024  14.347
66693W        W39118  19.412  30.848   0.330
66694W        W39119  36.526  31.078  10.764
66695W        W39120  37.080   2.768  14.879
66696W        W39121  20.175  40.648  14.814
66697W        W39122  21.422  39.379   4.853
66698W        W39123   6.773  37.650  12.433
66699W        W39124  35.077  11.806  13.824
66700W        W39125  20.767  42.863   3.124
66701W        W39126   6.699   9.130   2.304
66702W        W39127  30.435  11.884   1.549
66703W        W39128  41.572   7.385  13.488
66704W        W39129  38.868  24.206  14.448
66705W        W39130  27.479  21.528  10.693
66706W        W39131  30.067  37.477  11.666
66707W        W39132  38.874  27.256  12.196
66708W        W39133  15.053  17.699  13.967
66709W        W39134   1.173  37.760   0.328
66710W        W39135  40.907  38.013   1.227
66711W        W39136   7.784   7.959   2.866
66712W        W39137   9.681  35.652   2.252
66713W        W39138  32.005  28.485  13.557
66714W        W39139  13.129   4.909  12.161
66715W        W39140  19.560  19.984  13.453
66716W        W39141  20.526  33.094  14.687
66717W        W39142   4.323  43.267  12.922
66718W        W39143  29.449   4.475   3.626
66719W        W39144  21.084   0.306  14.533
66720W        W39145  23.814  38.511   1.745
66721W        W39146  26.942  32.071   5.408
66722W        W39147  42.292  42.523  13.545
66723W        W39148  32.666  31.336   3.668
66724W        W39149  19.484  43.849   4.062
66725W        W39150  40.503  33.997  12.854
66726W        W39151  30.998  10.398  10.647
66727W        W39152   9.308  29.284   4.438
66728W        W39153  30.613  18.987  11.664
66729W        W39154   9.718  37.772   1.334
66730W        W39155  37.366  41.245   0.463
66731W        W39156  31.242  41.882  14.406
66732W        W39157  20.800  28.190  14.435
66733W        W39158  12.099   2.415  14.966
66734W        W39159  29.630  16.554  11.312
66735W        W39160  41.649  22.615  10.226
66736W        W39161  13.490  24.945  13.976
66737W        W39162   6.633  40.471  12.825
66738W        W39163  23.161  14.097  13.517
66739W        W39164   2.765  21.777  12.464
66740W        W39165  39.517  34.808   2.757
66741W        W39166  27.603  13.685   0.402
66742W        W39167  31.636  26.610   2.831
66743W        W39168  28.877  43.484  14.404
66744W        W39169  30.273  21.597   4.511
66745W        W39170  30.867   4.397   0.297
66746W        W39171   4.008  13.717   2.732
66747W        W39172  41.087   9.458  14.311
66748W        W39173  12.759  35.885   3.067
66749W        W39174  35.441  40.593   4.169
66750W        W39175  10.698  23.826   2.290
66751W        W39176  41.467   8.435  10.764
66752W        W39177  35.596  39.935   1.824
66753W        W39178  29.855  22.591   4.645
66754W        W39179  31.164  17.512  13.062
66755W        W39180   6.923   9.814  14.746
66756W        W39181  10.745  20.574   2.982
66757W        W39182   5.844  19.878   1.414
66758W        W39183  19.661  21.814   2.766
66759W        W39184  24.327  28.580  12.410
66760W        W39185  39.950  20.590   1.160
66761W        W39186  39.862  19.671  12.501
66762W        W39187  36.088  12.324   3.926
66763W        W39188  16.936  33.462  13.389
66764W        W39189  31.335   5.151  13.794
66765W        W39190  12.642   3.015   3.968
66766W        W39191   1.254  12.333   4.042
66767W        W39192  29.963  37.850  14.250
66768W        W39193  41.093  19.184  14.484
66769W        W39194   8.841  34.617   5.071
66770W        W39195   2.468  26.562  11.109
66771W        W39196  22.174  37.150  13.618
66772W        W39197  15.044  30.706   2.320
66773W        W39198  17.491   7.764   0.456
66774W        W39199  13.339   1.491   1.318
66775W        W39200  21.166  44.628   4.664
66776W        W39201  31.850  33.271   3.410
66777W        W39202   7.633  23.518   0.820
66778W        W39203  14.070  20.116   0.750
66779W        W39204  40.628   7.906   3.728
66780W        W39205  40.342  42.747   1.400
66781W        W39206  24.305   3.024   1.426
66782W        W39207  28.256  38.513   2.442
66783W        W39208  25.629  24.436   2.199
66784W        W39209   1.538  34.915   1.530
66785W        W39210  27.932  43.497  12.019
66786W        W39211   4.655   2.050   1.959
66787W        W39212  10.871  24.080  12.504
66788W        W39213  44.319  21.611   5.049
66789W        W39214  43.316  40.941  14.211
66790W        W39215  10.783  18.397  13.024
66791W        W39216  38.924   5.385  14.482
66792W        W39217  41.343  12.647  13.759
66793W        W39218  21.893  38.011  10.641
66794W        W39219  41.448  23.994  14.237
66795W        W39220   9.737   7.738  12.513
66796W        W39221  37.493  31.118  11.698
66797W        W39222  40.778  43.460   1.287
66798W        W39223   0.637  17.028   1.299
66799W        W39224  20.263  24.725  14.334
66800W        W39225  35.771  20.841  13.519
66801W        W39226  44.882  11.996   3.377
66802W        W39227  29.770  31.004   2.285
66803W        W39228  23.069   4.531   0.897
66804W        W39229  14.478  39.225   0.471
66805W        W39230   2.406  30.715  10.882
66806W        W39231  24.625  12.743   1.058
66807W        W39232  23.801   6.731   4.176
66808W        W39233   6.450   0.791   4.772
66809W        W39234  19.398  30.673  14.815
66810W        W39235   6.292  17.036  10.556
66811W        W39236   1.364   0.231   3.663
66812W        W39237  35.629  40.368   0.287
66813W        W39238  17.769  35.629   3.553
66814W        W39239  21.695  41.717   3.210
66815W        W39240  17.216   8.738   0.304
66816W        W39241  31.640  35.692   1.133
66817W        W39242   8.372   4.511   4.190
66818W        W39243  43.916  43.016   3.790
66819W        W39244  32.866  43.918   3.744
66820W        W39245  36.157  44.155  10.737
66821W        W39246   2.354  30.195  13.594
66822W        W39247  14.173   0.542  13.864
66823W        W39248  41.809   4.000  13.288
66824W        W39249  18.229  38.966  12.935
66825W        W39250  39.040  29.568  10.595
66826W        W39251  27.062  35.895  11.098
66827W        W39252  40.909  14.828   4.610
66828W        W39253  38.211   1.797  12.866
66829W        W39254  37.124  23.956  11.153
66830W        W39255  32.979  29.838  13.421
66831W        W39256  44.487  24.749  14.328
66832W        W39257  38.523  32.881   1.190
66833W        W39258  36.413  12.023   2.431
66834W        W39259  18.829  26.549   4.090
66835W        W39260  32.844  12.627  12.893
66836W        W39261   1.275  26.575  10.426
66837W        W39262  40.595  21.215   1.904
66838W        W39263  23.535  25.152   2.344
66839W        W39264   1.733   6.281   3.307
66840W        W39265  42.532  24.966  13.678
66841W        W39266  44.891   8.185   4.177
66842W        W39267   9.749  11.452   3.893
66843W        W39268   5.430   4.728  10.849
66844W        W39269  12.738  29.629   3.977
66845W        W39270  27.013  17.949  11.142
66846W        W39271  16.803  36.314  12.446
66847W        W39272  15.998  34.906  11.663
66848W        W39273  41.331   5.273   3.726
66849W        W39274  13.294   8.764  10.158
66850W        W39275  21.898  14.528   3.591
66851W        W39276  29.191  34.436   3.221
66852W        W39277  43.567  34.915   3.599
66853W        W39278  18.410  11.708  12.102
66854W        W39279  37.057  13.215  12.426
66855W        W39280  14.787  13.328  13.308
66856W        W39281  32.173  27.455   4.121
66857W        W39282  23.210  22.570  11.139
66858W        W39283  21.147  39.033   4.069
66859W        W39284  40.497  33.395  11.623
66860W        W39285   3.823  22.551  14.382
66861W        W39286  14.410  40.287  12.681
66862W        W39287  17.276  15.347  14.585
66863W        W39288  43.689  42.296  13.480
66864W        W39289  43.415  39.472  12.539
66865W        W39290  24.130  39.506   2.343
66866W        W39291   0.258  19.095   1.867
66867W        W39292  27.010   0.258  12.856
66868W        W39293   8.412   6.914   3.305
66869W        W39294  24.873  15.185  11.003
66870W        W39295  16.245   3.163  13.000
66871W        W39296  31.292  21.130  14.597
66872W        W39297   1.928   3.340  10.635
66873W        W39298   2.317   9.769  12.969
66874W        W39299  22.621  27.676  11.965
66875W        W39300   1.679  37.774   0.328
66876W        W39301  22.132   3.300   4.572
66877W        W39302  43.489   4.924  13.475
66878W        W39303  21.079  26.937  14.391
66879W        W39304  27.592  29.345  12.306
66880W        W39305  24.776   3.057   1.194
66881W        W39306  37.038   6.686  13.411
66882W        W39307   2.824  24.701   1.637
66883W        W39308  13.718  17.755   4.606
66884W        W39309  29.532  18.162   4.740
66885W        W39310  18.977   8.882  14.672
66886W        W39311   3.981  40.523   2.840
66887W        W39312   6.189  33.571   3.623
66888W        W39313  25.407  41.852  11.949
66889W        W39314  12.891  35.457   4.128
66890W        W39315  12.042   7.065  13.338
66891W        W39316  37.093  22.312   0.328
66892W        W39317  11.863  21.695  11.919
66893W        W39318  23.523  19.082   2.212
66894W        W39319   3.960   3.284   0.916
66895W        W39320   6.673  12.259   3.463
66896W        W39321  13.361   3.390  13.827
66897W        W39322   2.219  18.400   1.679
66898W        W39323  15.556  24.953   1.401
66899W        W39324   9.649  29.426   2.775
66900W        W39325  30.693  19.986  14.319
66901W        W39326   8.274  13.287   4.645
66902W        W39327   3.022  19.327  10.734
66903W        W39328  44.288   6.634   0.898
66904W        W39329  20.052  26.278   1.359
66905W        W39330   5.884  36.390  14.786
66906W        W39331  32.570  29.223  13.997
66907W        W39332  26.529  17.184  14.029
66908W        W39333  29.884   0.411  10.697
66909W        W39334  26.544  29.564   2.275
66910W        W39335  11.843  14.660   1.665
66911W        W39336  23.452  16.583   2.492
66912W        W39337  31.339  34.636  11.994
66913W        W39338  38.003  27.135   4.078
66914W        W39339  42.714  20.175   5.152
66915W        W39340  16.673  35.906   1.136
66916W        W39341  17.213  23.720  11.048
66917W        W39342  25.834  38.006   4.677
66918W        W39343  40.953  27.588  12.105
66919W        W39344  28.345  39.416   0.430
66920W        W39345   7.852  18.801   2.302
66921W        W39346  35.871  11.254   0.608
66922W        W39347  11.282  43.932  10.994
66923W        W39348  42.908  15.383  11.723
66924W        W39349  16.650  39.146  13.218
66925W        W39350   0.666  19.574   2.893
66926W        W39351  22.494  20.112   0.449
66927W        W39352  37.143  33.660   5.287
66928W        W39353  27.962  15.063   3.798
66929W        W39354  44.884  27.363  14.976
66930W        W39355  29.129  34.793   0.783
66931W        W39356  22.839   0.231   4.933
66932W        W39357  40.239  32.839  14.958
66933W        W39358   3.297  20.522  13.604
66934W        W39359  29.162   8.319  14.922
66935W        W39360  34.498  26.165   4.382
66936W        W39361  44.855   7.620  12.449
66937W        W39362   6.975  41.981  10.747
66938W        W39363   4.701  41.806  12.482
66939W        W39364   5.215  28.888  10.811
66940W        W39365  43.380  18.423  13.949
66941W        W39366   1.531  29.031  12.427
66942W        W39367   8.855  18.556  14.404
66943W        W39368  37.333  16.827   2.720
66944W        W39369  38.321   7.358   1.265
66945W        W39370   7.718  19.302  11.535
66946W        W39371  39.412   4.851   4.478
66947W        W39372  35.367  31.114  13.321
66948W        W39373  40.879  20.481   3.579
66949W        W39374   0.924  38.979  12.195
66950W        W39375   8.908  24.518  12.957
66951W        W39376  16.072   6.396   1.434
66952W        W39377   6.874  31.888   3.064
66953W        W39378  14.674  11.544   4.989
66954W        W39379  29.610  29.896  11.977
66955W        W39380  39.470  41.485   1.582
66956W        W39381  21.457   3.878  12.550
66957W        W39382  34.614  26.734  11.811
66958W        W39383  29.200  36.093  10.753
66959W        W39384  34.493  20.110  10.654
66960W        W39385  21.935  25.248  12.405
66961W        W39386   0.818  40.493  14.788
66962W        W39387  17.687  37.100  13.465
66963W        W39388  15.841  10.550  14.506
66964W        W39389  25.010  21.002   1.857
66965W        W39390  36.360  31.596   1.905
66966W        W39391  22.974   5.418   1.888
66967W        W39392  42.931   1.853   4.593
66968W        W39393  12.089  38.496   4.494
66969W        W39394  25.271  14.185  13.835
66970W        W39395   4.984  31.926  13.000
66971W        W39396   1.804  11.116   0.682
66972W        W39397  37.400   6.398   1.196
66973W        W39398   9.181  24.587   0.566
66974W        W39399  36.938  38.244  14.293
66975W        W39400  16.165  18.739   4.254
66976W        W39401  15.396   1.666  12.877
66977W        W39402  24.680  44.691   0.981
66978W        W39403   4.944   4.440  14.743
66979W        W39404  17.209   0.917   5.060
66980W        W39405   2.339   7.987  11.938
66981W        W39406   2.900   8.794   4.932
66982W        W39407  20.397   2.836  13.861
66983W        W39408   4.415  17.625   4.856
66984W        W39409  23.249  36.237  13.037
66985W        W39410  41.971  10.553  13.242
66986W        W39411  41.416  24.184   2.130
66987W        W39412   5.624  42.576   0.922
66988W        W39413  30.580  32.922  11.863
66989W        W39414  10.753  21.081  13.268
66990W        W39415  38.378  22.108   1.313
66991W        W39416  19.847  28.582  14.002
66992W        W39417  18.963  43.427  13.184
66993W        W39418  14.785  40.436   2.691
66994W        W39419  21.755  38.628   4.533
66995W        W39420  35.066  28.507   2.256
66996W        W39421  38.030  16.530   4.896
66997W        W39422   4.745  17.742   4.137
66998W        W39423   3.213   2.779  11.792
66999W        W39424  15.111  14.741  12.405
67000W        W39425   6.138  33.678  11.306
67001W        W39426   7.331   5.847  11.614
67002W        W39427  27.794  42.235  12.418
67003W        W39428   8.369  33.831   1.796
67004W        W39429  16.727   3.700   2.946
67005W        W39430  27.018  39.916   4.293
67006W        W39431  22.724   3.057  11.217
67007W        W39432  11.079  43.217  13.098
67008W        W39433   8.779  15.387   4.613
67009W        W39434   8.773  41.388  11.590
67010W        W39435  20.975  40.538   0.340
67011W        W39436  20.211  39.986  10.652
67012W        W39437   5.476  34.913  11.551
67013W        W39438  20.591  18.602   1.690
67014W        W39439  39.246  20.991  11.506
67015W        W39440  15.176  34.860   0.420
67016W        W39441   5.882  21.999  11.180
67017W        W39442  20.640  36.834   2.810
67018W        W39443   4.381  20.017   0.503
67019W        W39444  13.506  42.530  10.712
67020W        W39445  12.597  10.016  11.177
67021W        W39446  11.611  29.940  13.884
67022W        W39447  19.230  44.940  14.833
67023W        W39448  16.327  35.147   5.223
67024W        W39449   6.196  31.747  14.371
67025W        W39450  35.988  18.698   2.746
67026W        W39451   0.274   0.294  11.262
67027W        W39452  33.133   6.267   1.151
67028W        W39453  39.845   6.915   3.925
67029W        W39454  18.563   7.965  13.418
67030W        W39455  27.584  11.393  14.405
67031W        W39456  12.201  37.133  13.451
67032W        W39457  42.815  18.861  10.638
67033W        W39458  43.268   8.565   2.799
67034W        W39459  34.661  11.765   4.893
67035W        W39460  21.516  25.089  13.962
67036W        W39461   7.839  33.305   1.359
67037W        W39462  14.652  23.929  14.530
67038W        W39463  34.480   8.156  12.204
67039W        W39464   6.557  23.110   3.750
67040W        W39465  44.953   6.772  12.049
67041W        W39466  12.130  32.471  10.212
67042W        W39467  26.072  18.754   2.839
67043W        W39468  41.351   0.594   3.312
67044W        W39469  15.199  24.272  13.058
67045W        W39470  39.060  41.145  11.749
67046W        W39471  10.431  32.065  11.587
67047W        W39472  18.592  24.088   2.856
67048W        W39473  30.175   2.716  14.353
67049W        W39474  37.517  36.244   2.785
67050W        W39475  43.967  30.153  13.322
67051W        W39476  34.804  33.032  11.704
67052W        W39477  14.335  30.587   1.788
67053W        W39478  25.828  24.466  14.741
67054W        W39479  24.738  34.224   1.971
67055W        W39480  31.655  26.914   0.416
67056W        W39481  15.833   0.754   0.350
67057W        W39482  30.502  27.749   1.840
67058W        W39483  41.695  35.036   2.487
67059W        W39484  39.031   9.678   2.375
67060W        W39485  13.608  14.563  14.331
67061W        W39486   6.870   1.119   1.293
67062W        W39487  22.535  10.690   1.229
67063W        W39488  15.653   9.827   1.794
67064W        W39489  36.742  10.866   2.806
67065W        W39490  32.196  23.146   1.911
67066W        W39491  28.469  23.897   9.540
67067W        W39492  20.928  20.576   1.790
67068W        W39493  42.906   5.669   0.333
67069W        W39494  23.998  28.425  13.839
67070W        W39495  17.592  42.296   0.335
67071W        W39496   6.885  18.555   1.948
67072W        W39497  15.258  12.859   2.192
67073W        W39498   8.896  16.633   1.285
67074W        W39499   1.781  24.949   1.249
67075W        W39500  14.025   8.244   1.551
67076W        W39501  35.175  36.325   1.258
67077W        W39502  16.916  26.211   1.610
67078W        W39503  35.059   6.854   4.960
67079W        W39504  14.400   9.434   4.599
67080W        W39505  20.954  38.508  12.620
67081W        W39506  25.251   9.354   0.899
67082W        W39507  32.415   0.729   4.104
67083W        W39508  28.469  18.241  12.057
67084W        W39509   6.843  43.901  14.702
67085W        W39510   6.312  13.300   2.816
67086W        W39511   4.321  37.358  12.835
67087W        W39512  13.622  35.126   2.291
67088W        W39513   9.668  22.482  11.989
67089W        W39514  24.412  37.787   0.455
67090W        W39515  43.537  38.802  13.348
67091W        W39516   5.962   0.961  13.906
67092W        W39517  39.446  43.466   0.961
67093W        W39518  32.030  22.496   2.115
67094W        W39519  29.543   9.712   4.017
67095W        W39520  37.320   3.650  12.000
67096W        W39521  30.140  43.840  12.092
67097W        W39522  33.458  15.600   0.330
67098W        W39523  20.325   5.119  14.469
67099W        W39524  17.533   4.272  11.343
67100W        W39525   8.740  18.339   1.344
67101W        W39526  16.702  41.249  11.049
67102W        W39527  40.075   9.739  11.968
67103W        W39528  14.534   1.762  11.140
67104W        W39529   0.939   7.700  11.958
67105W        W39530  34.443   3.467   3.285
67106W        W39531   5.243  40.744   0.350
67107W        W39532  35.389  11.528   2.264
67108W        W39533  44.729  23.043  12.810
67109W        W39534  21.065  17.065  12.609
67110W        W39535  33.593   5.723  10.083
67111W        W39536  28.206  16.304   0.794
67112W        W39537  30.134  10.129  12.065
67113W        W39538  13.267  22.069  11.050
67114W        W39539  17.861  25.437  10.685
67115W        W39540  28.926   6.273  12.354
67116W        W39541   0.941   4.277   2.242
67117W        W39542  18.309   5.866   4.585
67118W        W39543   2.517  35.869   1.724
67119W        W39544  19.617  41.397  11.893
67120W        W39545  27.664  37.415   1.392
67121W        W39546  35.475  41.550   0.687
67122W        W39547  37.558   7.121   1.878
67123W        W39548  29.143   0.181   3.454
67124W        W39549  24.127  43.139   5.150
67125W        W39550  39.379  15.781  11.600
67126W        W39551  32.593  37.599   4.183
67127W        W39552  11.553  12.639   3.890
67128W        W39553  12.215  38.009  14.742
67129W        W39554  13.163   8.919   4.588
67130W        W39555   4.504  26.204  14.846
67131W        W39556  28.169  40.375   3.813
67132W        W39557  27.880   0.096   1.271
67133W        W39558  30.145  14.888   3.738
67134W        W39559  33.181  29.677   4.049
67135W        W39560  23.762  29.454  13.436
67136W        W39561  33.110  13.343  13.515
67137W        W39562  43.476  10.689   3.266
67138W        W39563  22.135  25.649   3.588
67139W        W39564   6.168  35.592   3.231
67140W        W39565  39.583  44.633  12.564
67141W        W39566  34.607   3.210  11.230
67142W        W39567  21.592   8.306   4.162
67143W        W39568  15.466   7.098   1.915
67144W        W39569   9.143  11.330   1.757
67145W        W39570   5.348  26.623   4.564
67146W        W39571  22.860  29.597   0.820
67147W        W39572  20.201  16.791   2.186
67148W        W39573  18.990  23.733  10.776
67149W        W39574  29.038   2.419  11.598
67150W        W39575  39.408   7.048  13.509
67151W        W39576   4.652  14.148  14.246
67152W        W39577   3.376   7.241  11.570
67153W        W39578  35.636  32.852  11.937
67154W        W39579  20.858  21.498  14.629
67155W        W39580  29.945  20.221  11.254
67156W        W39581  38.294   7.934  11.668
67157W        W39582   1.816  15.291  11.499
67158W        W39583  21.050  12.091   2.343
67159W        W39584  26.290  27.554   4.941
67160W        W39585   2.022  41.341   3.643
67161W        W39586  20.796  30.097  13.452
67162W        W39587   6.144  27.443   1.854
67163W        W39588  30.187   0.820  14.026
67164W        W39589  25.140  25.918  10.955
67165W        W39590  22.218  21.622   4.682
67166W        W39591  27.943  31.542   5.408
67167W        W39592  42.952  10.703   3.133
67168W        W39593  15.786  11.679  13.298
67169W        W39594   0.157  27.510   3.903
67170W        W39595  25.188  39.110   2.732
67171W        W39596  31.893  42.732   2.270
67172W        W39597  43.700  31.020   2.577
67173W        W39598  40.816   8.381  11.226
67174W        W39599  32.161   2.123  12.954
67175W        W39600  18.733  29.902  11.576
67176W        W39601  16.364  18.042   0.830
67177W        W39602   5.169   8.717   5.400
67178W        W39603  17.854  13.177  12.348
67179W        W39604  11.222  15.324   1.779
67180W        W39605  27.307  17.064  12.565
67181W        W39606  38.974   7.898   0.456
67182W        W39607  39.413   9.216  12.247
67183W        W39608  33.960  32.356  10.904
67184W        W39609  26.014   4.686  10.947
67185W        W39610  38.104  27.760  10.201
67186W        W39611   6.175   6.329  11.609
67187W        W39612   5.735  38.011   0.343
67188W        W39613  42.007  10.730   2.654
67189W        W39614  19.130  33.628   3.162
67190W        W39615   8.755  17.810   1.422
67191W        W39616   5.730  25.515   3.342
67192W        W39617  37.989  35.549  12.235
67193W        W39618  27.578  32.458  11.566
67194W        W39619  34.373  10.604   4.156
67195W        W39620  19.821   9.811   1.877
67196W        W39621  16.058   8.377  14.881
67197W        W39622  17.032  10.261   3.682
67198W        W39623  26.908  34.021   0.480
67199W        W39624  38.141  20.520   2.121
67200W        W39625   8.155  38.350  13.682
67201W        W39626  21.604  20.551   4.496
67202W        W39627  37.928  14.667  14.281
67203W        W39628  34.430  14.216  10.633
67204W        W39629   8.769  38.406  12.968
67205W        W39630  13.934  26.913   3.283
67206W        W39631  17.767  25.218   2.800
67207W        W39632  11.858  38.538  10.724
67208W        W39633   6.451  27.959  12.850
67209W        W39634  11.417  29.701   0.723
67210W        W39635  27.015  23.997   0.502
67211W        W39636  27.477  29.433  10.987
67212W        W39637  25.537  44.933  10.670
67213W        W39638  14.277  39.273  14.457
67214W        W39639  12.366  11.723  10.770
67215W        W39640  27.764  37.062  10.710
67216W        W39641  16.743  30.538  13.361
67217W        W39642  20.916  24.995  10.375
67218W        W39643   1.001   7.393   0.872
67219W        W39644  29.557  39.266  10.891
67220W        W39645   6.989   6.418   3.652
67221W        W39646   9.629  32.976  13.945
67222W        W39647   8.390  40.857  12.482
67223W        W39648  26.690  38.187   2.744
67224W        W39649  34.007  15.605  14.568
67225W        W39650  18.537   5.007  11.093
67226W        W39651  23.110  11.608   3.174
67227W        W39652  17.274  24.423   4.113
67228W        W39653  37.288  38.291   3.758
67229W        W39654  39.335   4.393  10.893
67230W        W39655  31.889  36.357  12.607
67231W        W39656  28.645  33.661  10.465
67232W        W39657  23.230  21.645   2.262
67233W        W39658   6.191  27.168  11.581
67234W        W39659   6.263   4.422   4.261
67235W        W39660   3.250  29.959   1.291
67236W        W39661  35.369  12.649   4.194
67237W        W39662   5.159   6.224   4.376
67238W        W39663  37.123  42.415   1.689
67239W        W39664  13.435  24.695  12.525
67240W        W39665  44.583  13.280   4.252
67241W        W39666  19.079   5.765   2.151
67242W        W39667  19.025  23.345  13.887
67243W        W39668  34.140  33.299  10.995
67244W        W39669   3.368  24.956  11.585
67245W        W39670   0.981   9.261   2.374
67246W        W39671  20.620  17.584   3.363
67247W        W39672  38.720  37.472   1.678
67248W        W39673  23.570  37.545   3.170
67249W        W39674  10.348  33.035  14.528
67250W        W39675  28.982  25.611  14.977
67251W        W39676   8.192  16.779   0.744
67252W        W39677  27.869  17.086   0.907
67253W        W39678  31.149  23.040   4.525
67254W        W39679   7.690  23.806  10.698
67255W        W39680  15.138   6.936  12.148
67256W        W39681  36.034  42.287  14.331
67257W        W39682  38.238  35.920  12.501
67258W        W39683  14.098  41.406   1.239
67259W        W39684  20.526  39.933   3.841
67260W        W39685   6.585  14.594   2.358
67261W        W39686  20.815  30.486   4.278
67262W        W39687  36.793   2.688  13.832
67263W        W39688  15.924  34.532   4.975
67264W        W39689  16.720  31.379  12.967
67265W        W39690  37.257   8.742   2.379
67266W        W39691  16.141  41.401  12.059
67267W        W39692  41.931  44.694  12.611
67268W        W39693  19.455   0.491  13.944
67269W        W39694  22.438   9.199   4.612
67270W        W39695  28.287  41.533   5.427
67271W        W39696  25.127   3.658  12.526
67272W        W39697  42.339  25.186  12.664
67273W        W39698  29.724  31.246   5.047
67274W        W39699  41.027  44.428   4.582
67275W        W39700  19.752   5.778  13.548
67276W        W39701  19.106   4.952   3.849
67277W        W39702  37.509   9.477  12.932
67278W        W39703  23.482  31.551   2.698
67279W        W39704  10.510  39.947   3.786
67280W        W39705  11.319   2.418  12.800
67281W        W39706  21.443  29.305   0.923
67282W        W39707  38.747  24.483   2.915
67283W        W39708  28.915  18.330   1.785
67284W        W39709  24.666  29.201   4.654
67285W        W39710  42.014  24.468   3.735
67286W        W39711  36.563   1.438  11.130
67287W        W39712  38.890  23.845  11.552
67288W        W39713  19.809  32.563   0.931
67289W        W39714  24.336   7.706  10.499
67290W        W39715  15.525   4.883  13.450
67291W        W39716   2.924  37.878  11.464
67292W        W39717   2.318  31.430  12.571
67293W        W39718  43.373  15.918  10.570
67294W        W39719  13.797  27.258  13.944
67295W        W39720  44.855  12.723   4.167
67296W        W39721   9.624  36.954   4.044
67297W        W39722  20.592  21.631  12.386
67298W        W39723  22.625  32.104  10.676
67299W        W39724  33.112  34.462   0.276
67300W        W39725   5.977  11.061  13.530
67301W        W39726   8.172  11.380   3.179
67302W        W39727  18.950  24.045  12.360
67303W        W39728  10.709  11.298  13.074
67304W        W39729   6.764  16.359   0.447
67305W        W39730  36.068  18.506   4.799
67306W        W39731  23.963  39.347   1.845
67307W        W39732  21.068  17.001  14.281
67308W        W39733  11.154  42.528  13.458
67309W        W39734  40.419  14.328  11.178
67310W        W39735  24.496  43.256   0.996
67311W        W39736  31.290  43.936  13.517
67312W        W39737  42.285  34.059   1.134
67313W        W39738  37.745  20.575  14.453
67314W        W39739  36.548   8.811  12.427
67315W        W39740   5.081   2.485   0.832
67316W        W39741  41.918  16.623  10.715
67317W        W39742  17.244  38.404   2.345
67318W        W39743  38.128   7.569   2.827
67319W        W39744  23.581  11.253   1.751
67320W        W39745  15.980  19.936  10.728
67321W        W39746  25.059  27.754  13.071
67322W        W39747  24.492  26.357  14.287
67323W        W39748  44.880  29.973   1.379
67324W        W39749  40.436  34.374   2.542
67325W        W39750  39.862  44.356   1.871
67326W        W39751  37.411  23.543  10.946
67327W        W39752  26.109   9.902   4.149
67328W        W39753   3.838  29.860   4.250
67329W        W39754   5.749  41.712   4.635
67330W        W39755  16.339  35.632   5.522
67331W        W39756   2.924  36.906  11.639
67332W        W39757   2.550  29.234  13.344
67333W        W39758  40.423  19.057   1.334
67334W        W39759  18.443   0.831  11.748
67335W        W39760  34.134  25.979   4.036
67336W        W39761   4.377   8.938  13.898
67337W        W39762  14.299  41.821  10.562
67338W        W39763  22.629  41.340  13.175
67339W        W39764  14.304  27.531  12.927
67340W        W39765  44.756  16.801  11.531
67341W        W39766   4.887  24.257  10.776
67342W        W39767  27.698  22.412   0.933
67343W        W39768  19.256  17.098  13.820
67344W        W39769  22.725  22.749  11.121
67345W        W39770  19.013  30.097  12.149
67346W        W39771   8.387  43.800   4.313
67347W        W39772  37.082   6.559   4.697
67348W        W39773  22.513  38.355  10.550
67349W        W39774   6.380   2.877   1.250
67350W        W39775  43.291  24.044   3.189
67351W        W39776   3.769  32.270  10.729
67352W        W39777  11.230  22.923   5.080
67353W        W39778  15.131   0.539   3.134
67354W        W39779  24.357  16.247  12.033
67355W        W39780  37.895   4.780   2.586
67356W        W39781  34.977  28.627  13.474
67357W        W39782  17.147   6.424  14.873
67358W        W39783  15.592   9.812   2.672
67359W        W39784   1.935  17.322   2.366
67360W        W39785  22.205  29.385  11.106
67361W        W39786  18.049   2.829   1.915
67362W        W39787  39.921  25.250   4.159
67363W        W39788  14.869  43.391  10.735
67364W        W39789  20.023   2.772   4.182
67365W        W39790  20.644  10.333  14.441
67366W        W39791  31.376   0.321  13.214
67367W        W39792   7.008   4.769  11.147
67368W        W39793  11.554   4.738   1.434
67369W        W39794  14.120  28.129  10.619
67370W        W39795  16.664  41.527   1.337
67371W        W39796  42.869  16.971   0.971
67372W        W39797  40.024  27.143   2.627
67373W        W39798  26.451  11.840   0.727
67374W        W39799  38.386  33.072   3.904
67375W        W39800  18.538  21.736   4.504
67376W        W39801   9.224   7.313   0.297
67377W        W39802  34.684  22.025   1.158
67378W        W39803  10.853   7.682   2.124
67379W        W39804   1.950  40.368   2.849
67380W        W39805  25.199  35.092  11.009
67381W        W39806  20.519  25.936  12.141
67382W        W39807  19.229  34.161   0.325
67383W        W39808  12.857   2.940  13.451
67384W        W39809  31.260   7.948  13.277
67385W        W39810   9.539   8.158   3.763
67386W        W39811  26.157  11.907  14.365
67387W        W39812  31.715  27.607  13.444
67388W        W39813  31.054  20.756   3.799
67389W        W39814   4.728  32.156  10.567
67390W        W39815   1.236  43.019   3.322
67391W        W39816  11.866  40.810  10.227
67392W        W39817  15.524  25.751   4.564
67393W        W39818  23.401  20.194  13.368
67394W        W39819  39.406  30.183   4.145
67395W        W39820  36.935   7.655   3.356
67396W        W39821  32.514   4.455   0.476
67397W        W39822  41.511  34.501  13.428
67398W        W39823   7.429  37.594   3.685
67399W        W39824  38.418  43.314  13.067
67400W        W39825   4.447  42.810   5.065
67401W        W39826  27.136   7.257   2.715
67402W        W39827   2.431  39.944  13.173
67403W        W39828  30.047  38.266   3.616
67404W        W39829  23.932  35.950   3.060
67405W        W39830  13.928  36.374   2.765
67406W        W39831  22.505  13.216  13.435
67407W        W39832  32.535  18.957  13.461
67408W        W39833  27.695  28.682   3.845
67409W        W39834  41.076  30.302  14.936
67410W        W39835   4.142  33.473  14.983
67411W        W39836   8.663  41.131   2.176
67412W        W39837   5.891  35.400   1.892
67413W        W39838  31.136  36.054   2.148
67414W        W39839   2.825  28.004   0.915
67415W        W39840   5.331  20.150  14.637
67416W        W39841  29.665  27.676  14.280
67417W        W39842  37.320   3.231   4.501
67418W        W39843  35.447  22.750  11.561
67419W        W39844  42.034  28.444  11.195
67420W        W39845  44.407  17.866   0.779
67421W        W39846  25.533  30.665   3.586
67422W        W39847  16.838  24.289   0.085
67423W        W39848   5.300   9.651  10.535
67424W        W39849  27.080   3.869   3.647
67425W        W39850  42.910  33.879  11.273
67426W        W39851   3.931  22.719   0.832
67427W        W39852  16.379  34.702   4.095
67428W        W39853  31.004  34.802  10.529
67429W        W39854  14.324  43.570  12.927
67430W        W39855  36.385  14.079   1.690
67431W        W39856  34.082   3.916   0.217
67432W        W39857  25.148  33.721   1.361
67433W        W39858  12.787   3.364  13.847
67434W        W39859  38.107  24.125  12.382
67435W        W39860  14.052  23.644  12.559
67436W        W39861   8.383  21.194  10.603
67437W        W39862  35.555   1.960   2.250
67438W        W39863   1.230  32.155   2.201
67439W        W39864  18.253  10.908  11.413
67440W        W39865   2.906   4.012  13.583
67441W        W39866  25.886  13.409  12.887
67442W        W39867   7.494  40.544  10.948
67443W        W39868  37.128   1.433  14.428
67444W        W39869  18.709  41.525  10.716
67445W        W39870  16.155  31.539   1.972
67446W        W39871  27.266  35.158   2.217
67447W        W39872  38.922  15.728  13.560
67448W        W39873   4.199   4.953   2.447
67449W        W39874  10.370  35.059   4.222
67450W        W39875  40.392   9.889  14.947
67451W        W39876  37.050  34.872  14.379
67452W        W39877  16.569   6.542   0.953
67453W        W39878  20.007  43.412  14.347
67454W        W39879  23.543   8.493  11.241
67455W        W39880  43.900  21.489   9.870
67456W        W39881  23.234  22.655  13.469
67457W        W39882  18.806  32.630   0.754
67458W        W39883  16.286   0.172  12.513
67459W        W39884   4.708  11.595   5.016
67460W        W39885   7.194  34.163   2.702
67461W        W39886   5.454  22.608  13.298
67462W        W39887  31.385   0.611   0.869
67463W        W39888  44.865  30.502   2.076
67464W        W39889  19.080  18.074  14.727
67465W        W39890  37.925   6.618   1.277
67466W        W39891  43.451   8.962  10.865
67467W        W39892   6.784  25.443   1.922
67468W        W39893  28.612  32.061  12.912
67469W        W39894  25.997  20.791  10.563
67470W        W39895  32.661  15.615   3.294
67471W        W39896  28.094  28.584   4.214
67472W        W39897  12.660  12.241   3.138
67473W        W39898  22.171  14.449  10.685
67474W        W39899  12.291  19.427  10.386
67475W        W39900   5.188   4.394   3.385
67476W        W39901  43.505  10.278   0.032
67477W        W39902  41.524  31.223  14.735
67478W        W39903  19.584  37.027   2.339
67479W        W39904  39.497  25.460  13.416
67480W        W39905   5.788  25.721   2.319
67481W        W39906   1.108  37.603  14.839
67482W        W39907  37.888   8.280   4.100
67483W        W39908  22.213  37.839  14.490
67484W        W39909  36.176  39.763   0.053
67485W        W39910  42.014  27.778  13.839
67486W        W39911  38.640   9.332  10.988
67487W        W39912  13.299  33.256   3.969
67488W        W39913   2.232  44.154  11.482
67489W        W39914   9.211  26.994   4.122
67490W        W39915  37.854   6.847   4.153
67491W        W39916  17.326  33.212   4.120
67492W        W39917  10.424  30.158   2.862
67493W        W39918  11.698  32.918   2.703
67494W        W39919   0.356  18.526  14.807
67495W        W39920  12.567  30.450   2.349
67496W        W39921  41.458  40.288   1.243
67497W        W39922  41.992   9.946   2.190
67498W        W39923  12.281  28.562   4.638
67499W        W39924  37.972   7.710   1.381
67500W        W39925  13.541  41.654   4.129
67501W        W39926  20.842  17.063   0.944
67502W        W39927  39.238   0.227  12.945
67503W        W39928  15.042  33.127   3.093
67504W        W39929  29.247  38.592  12.660
67505W        W39930  16.774  19.981  14.972
67506W        W39931  38.399  15.566  13.643
67507W        W39932  12.625   2.701  12.095
67508W        W39933  43.442  17.950   0.176
67509W        W39934  11.022  30.706   2.323
67510W        W39935  37.843  23.050  12.349
67511W        W39936  32.378  18.163  14.226
67512W        W39937   6.993  40.481  11.064
67513W        W39938  34.581  21.839  11.570
67514W        W39939   8.160  36.070   0.464
67515W        W39940  28.507  35.956   0.396
67516W        W39941  35.117  21.903  11.782
67517W        W39942   8.626   7.802   1.443
67518W        W39943  27.225   7.672   3.635
67519W        W39944  36.905  20.256  10.695
67520W        W39945  24.238  29.745   4.142
67521W        W39946  39.778  29.533   1.352
67522W        W39947   4.885  42.598   1.270
67523W        W39948  19.228  24.141   4.526
67524W        W39949  22.714  44.876  11.675
67525W        W39950   0.778  36.153  12.041
67526W        W39951  10.434  13.301   4.578
67527W        W39952  13.843   6.200  11.998
67528W        W39953  29.106   9.148   2.356
67529W        W39954  38.528   9.176   3.145
67530W        W39955  21.939  39.058  13.062
67531W        W39956  44.030   7.715  10.869
67532W        W39957  31.468  32.660  14.375
67533W        W39958  18.103  41.982  10.993
67534W        W39959   5.171  18.653   2.751
67535W        W39960  16.175  31.955   5.479
67536W        W39961  11.258  10.378  13.230
67537W        W39962   9.249  15.326  13.812
67538W        W39963  40.777  27.545  14.053
67539W        W39964  20.078  27.471   4.082
67540W        W39965  17.700   0.029  14.399
67541W        W39966  34.837  39.046   3.188
67542W        W39967  31.365   9.622   4.117
67543W        W39968  21.246  15.665  12.923
67544W        W39969  38.540  26.457   1.905
67545W        W39970   6.629  29.432  12.836
67546W        W39971   1.595  13.546  14.480
67547W        W39972  34.604  35.860  14.896
67548W        W39973  38.879  10.832  12.483
67549W        W39974  21.361  39.952  13.430
67550W        W39975  39.486  11.576  12.513
67551W        W39976  30.329  20.365  13.911
67552W        W39977  24.537  15.388  14.865
67553W        W39978  35.088  34.016  12.838
67554W        W39979  43.330  30.904   1.158
67555W        W39980  10.283  27.995  14.285
67556W        W39981   4.347  40.509   3.248
67557W        W39982   2.947  28.122   3.968
67558W        W39983  37.507  30.478  12.131
67559W        W39984  44.916  17.555  10.529
67560W        W39985  44.982  17.052  10.367
67561W        W39986  18.548  19.608  14.766
67562W        W39987  22.465  41.876   2.727
67563W        W39988  13.192  23.526   3.236
67564W        W39989   8.572  30.717   0.676
67565W        W39990  10.591  34.858   1.494
67566W        W39991  24.724   4.835  10.513
67567W        W39992   6.860   8.242  14.364
67568W        W39993  41.126   8.977   3.885
67569W        W39994  13.576  10.275  14.475
67570W        W39995  12.568  23.474   4.226
67571W        W39996  13.626  14.172   1.709
67572W        W39997  31.921  11.810  14.966
67573W        W39998  13.290   0.561  13.814
67574W        W39999  43.957  14.510  11.598
67575W        W40000   8.420  25.688  14.904
67576W        W40001  22.560  36.344   1.288
67577W        W40002   0.399  30.715   4.175
67578W        W40003   1.913  43.831   4.910
67579W        W40004  23.110  13.288  14.418
67580W        W40005  42.414  10.245  13.353
67581W        W40006   2.867  29.097  12.886
67582W        W40007   3.761  44.240   3.853
67583W        W40008  22.770  14.589   3.461
67584W        W40009   3.769   0.132   3.202
67585W        W40010   4.893   7.625   2.725
67586W        W40011  44.688  32.031   2.123
67587W        W40012  25.717   5.427  11.915
67588W        W40013  42.225  37.854  13.404
67589W        W40014   2.152   9.447   3.827
67590W        W40015  43.518   2.289   0.989
67591W        W40016  42.983  16.046   4.761
67592W        W40017  38.048  33.008   2.333
67593W        W40018  13.215   6.355   3.403
67594W        W40019  26.532  20.509   4.185
67595W        W40020  37.003  22.915  12.536
67596W        W40021  35.991  14.763   3.760
67597W        W40022  39.085  29.469   2.138
67598W        W40023   0.663  29.100  12.155
67599W        W40024  17.269   6.211  13.872
67600W        W40025  31.163  10.305   0.020
67601W        W40026  13.936  18.846   0.229
67602W        W40027   9.946  36.302  12.878
67603W        W40028  38.073  27.987   0.064
67604W        W40029  37.124  42.512   2.209
67605W        W40030  23.734   3.858   2.835
67606W        W40031  12.359  27.306  12.966
67607W        W40032  39.341  18.669  14.303
67608W        W40033  11.395  31.652   0.269
67609W        W40034  26.260  19.167  11.600
67610W        W40035  39.559   8.842   2.312
67611W        W40036   4.414  43.972   4.549
67612W        W40037   6.840  14.647   0.219
67613W        W40038  13.916  40.911   0.548
67614W        W40039  10.684  38.704   4.361
67615W        W40040  10.844  17.800  12.179
67616W        W40041   9.407   3.762   0.831
67617W        W40042  15.284   4.259  13.163
67618W        W40043  32.100  36.663   5.234
67619W        W40044  35.335  37.340   4.051
67620W        W40045  38.509   6.235  10.670
67621W        W40046  22.038  13.498  13.449
67622W        W40047  34.157  29.813  14.739
67623W        W40048  39.013   4.236  14.451
67624W        W40049  38.444  23.555  11.374
67625W        W40050  18.655   2.168  14.381
67626W        W40051   4.281  12.525   2.941
67627W        W40052  10.351  27.473  14.977
67628W        W40053  24.252  13.893  10.656
67629W        W40054  42.071  44.969   1.003
67630W        W40055  10.479  21.570  11.525
67631W        W40056  22.259  36.526  12.001
67632W        W40057  17.276  17.233  10.921
67633W        W40058  23.022   2.807   0.643
67634W        W40059  43.284  30.192   3.556
67635W        W40060  26.367  29.914  11.521
67636W        W40061   5.892   4.996   0.340
67637W        W40062  16.982  22.521  11.044
67638W        W40063  23.248  13.327   3.114
67639W        W40064  19.061  21.152  14.464
67640W        W40065   3.706  14.801   1.262
67641W        W40066  37.425  42.097  13.435
67642W        W40067  15.721  43.426  10.997
67643W        W40068  37.958  18.286   3.190
67644W        W40069  40.805  22.458  12.095
67645W        W40070   6.341  11.124   2.048
67646W        W40071  42.294  28.686   3.538
67647W        W40072   0.627  43.831   3.084
67648W        W40073  44.286  44.269   4.126
67649W        W40074  42.487  40.777   0.213
67650W        W40075  38.993  23.535   2.775
67651W        W40076  10.848   8.411  10.467
67652W        W40077  31.256   3.149  12.146
67653W        W40078  21.283   5.434  14.361
67654W        W40079  12.853  26.719  13.944
67655W        W40080   4.177   0.406  12.569
67656W        W40081  34.381  39.617   4.561
67657W        W40082  12.163   6.921  11.389
67658W        W40083  39.952  26.660  14.577
67659W        W40084   0.757  38.845  10.457
67660W        W40085  18.181  22.136  11.982
67661W        W40086  27.281  27.174  13.888
67662W        W40087  42.281  41.872   2.896
67663W        W40088  37.680   1.925   5.045
67664W        W40089   4.296   4.882  13.898
67665W        W40090  13.809   6.978   2.751
67666W        W40091  44.798   1.747  11.895
67667W        W40092  29.862  15.684  14.393
67668W        W40093  40.823  22.581   2.158
67669W        W40094   1.733  34.590  13.341
67670W        W40095   8.911   6.827   1.959
67671W        W40096  16.883  15.686  14.819
67672W        W40097  30.201   2.841   1.953
67673W        W40098  33.532  23.938  11.434
67674W        W40099  38.707  26.338   0.166
67675W        W40100  30.950   3.360   0.460
67676W        W40101  37.327  37.399   1.469
67677W        W40102  41.526   0.772  11.152
67678W        W40103  38.545  39.904  12.589
67679W        W40104  32.413  36.446  10.636
67680W        W40105  36.394   3.706  12.068
67681W        W40106  41.770   8.025  11.528
67682W        W40107  15.933  35.390   3.595
67683W        W40108  23.564  37.126   2.865
67684W        W40109  41.375  35.062  13.018
67685W        W40110  40.191  28.637  14.990
67686W        W40111  34.352  14.671  10.899
67687W        W40112   8.510  32.146   2.869
67688W        W40113   9.718  10.806  10.376
67689W        W40114  29.576  16.658  10.815
67690W        W40115  11.250  22.743  12.729
67691W        W40116   6.258  25.499  10.370
67692W        W40117   0.204  31.958  10.208
67693W        W40118  25.334   4.520   4.945
67694W        W40119  43.509  20.279   3.051
67695W        W40120   8.686   7.201   0.262
67696W        W40121   8.466   9.296  12.148
67697W        W40122  42.030  39.881   1.773
67698W        W40123  23.233  18.252   0.448
67699W        W40124  28.604  30.497  10.598
67700W        W40125  41.419  15.271   1.279
67701W        W40126  25.991  20.754  13.037
67702W        W40127   6.139  27.715   0.880
67703W        W40128  11.395  16.075  14.821
67704W        W40129  22.710  19.971  10.713
67705W        W40130   1.158  26.177   4.563
67706W        W40131  42.577  16.826   3.104
67707W        W40132   9.866  36.075  13.341
67708W        W40133  20.863  33.554  14.997
67709W        W40134  14.164  14.156   4.729
67710W        W40135  34.493  29.207  11.520
67711W        W40136  24.256  39.422  11.067
67712W        W40137  23.469   9.768   9.735
67713W        W40138  37.268   6.372   3.636
67714W        W40139  26.567   0.649  12.828
67715W        W40140   8.227  39.357   2.626
67716W        W40141  17.822  26.555  13.823
67717W        W40142  27.297  16.827   2.760
67718W        W40143  44.367  20.874  11.475
67719W        W40144  28.432  28.675  13.435
67720W        W40145   6.156  42.294  14.077
67721W        W40146  15.552  43.366  12.913
67722W        W40147  22.432  13.579  12.757
67723W        W40148  44.882   8.751  14.366
67724W        W40149  11.884  40.613   1.168
67725W        W40150  27.701  42.897   1.067
67726W        W40151  34.497  16.214   4.577
67727W        W40152  36.464  16.085  10.898
67728W        W40153  28.006   9.171   4.934
67729W        W40154   8.419   0.565   0.197
67730W        W40155  40.894  35.879   0.159
67731W        W40156  19.179  40.659   2.805
67732W        W40157  36.943  18.821   0.983
67733W        W40158  28.932  31.918   1.821
67734W        W40159  21.378  36.751   1.836
67735W        W40160  12.198  39.615  12.296
67736W        W40161  15.146  38.526   0.318
67737W        W40162  18.894  10.270  12.067
67738W        W40163   8.754  26.075   4.412
67739W        W40164  34.370  26.551   0.808
67740W        W40165  13.391  36.563  14.987
67741W        W40166  42.327  16.113   0.425
67742W        W40167  22.035   0.791  12.085
67743W        W40168  20.694  32.885  11.129
67744W        W40169  20.105   4.124   3.667
67745W        W40170  31.210   0.003  13.791
67746W        W40171  40.301  19.683  13.358
67747W        W40172  14.620  41.281   4.930
67748W        W40173  15.168  16.799  12.400
67749W        W40174  33.605  44.498   0.940
67750W        W40175  40.976  20.056   0.863
67751W        W40176  26.766   6.138  12.089
67752W        W40177  23.329  23.590  14.316
67753W        W40178  13.231  13.107  10.453
67754W        W40179  42.416   7.750  14.557
67755W        W40180  11.656  11.146   3.009
67756W        W40181  40.999  13.191   0.915
67757W        W40182  37.799  34.952   1.800
67758W        W40183  40.165  27.652   4.184
67759W        W40184   8.229   8.470   4.629
67760W        W40185   6.015  43.015  12.516
67761W        W40186  17.793  35.155  11.650
67762W        W40187  30.926  40.901   2.383
67763W        W40188   3.464  18.639   1.533
67764W        W40189  30.433   1.461   0.813
67765W        W40190  31.412  30.158  10.833
67766W        W40191  11.307  39.829   1.689
67767W        W40192  19.465   2.253   1.774
67768W        W40193  30.494  31.841  10.492
67769W        W40194  15.568  35.779   4.452
67770W        W40195   7.224  33.053   2.936
67771W        W40196  21.728   7.192  12.410
67772W        W40197  35.591   2.836   2.292
67773W        W40198  15.154  15.696   4.568
67774W        W40199  28.853  19.573  12.127
67775W        W40200  18.185  28.902   0.446
67776W        W40201  14.884  11.168  13.845
67777W        W40202   3.776  34.849  14.918
67778W        W40203  18.105   5.342   3.854
67779W        W40204  12.319  27.701   2.873
67780W        W40205  27.036  44.908  12.219
67781W        W40206  15.569  26.674   3.710
67782W        W40207   3.646  21.706   1.530
67783W        W40208  32.681  38.049  13.932
67784W        W40209  29.639  41.439  10.055
67785W        W40210  41.394  25.081  13.152
67786W        W40211  32.347  32.987  14.880
67787W        W40212  24.688  20.158   4.624
67788W        W40213  29.155  32.542   3.377
67789W        W40214  10.142  11.822  12.424
67790W        W40215   6.588  28.140  14.209
67791W        W40216  31.410  42.507  14.202
67792W        W40217  39.716  28.983  11.591
67793W        W40218  32.708  14.238   1.788
67794W        W40219  44.259   6.668   5.007
67795W        W40220  16.022  16.684   1.334
67796W        W40221  27.205  19.982   1.836
67797W        W40222   4.123  33.297  14.463
67798W        W40223  20.117  37.162  10.953
67799W        W40224   2.186  21.117   4.560
67800W        W40225  23.035  18.787   1.272
67801W        W40226  37.918  39.869   1.301
67802W        W40227  29.543  40.735  11.221
67803W        W40228  22.326   9.767   1.811
67804W        W40229  16.628  11.591   2.637
67805W        W40230  10.816  29.105   1.222
67806W        W40231   9.419   0.041  13.608
67807W        W40232   9.351  42.044  10.973
67808W        W40233  22.639  21.803   2.842
67809W        W40234  43.480  35.464  14.418
67810W        W40235   7.365   1.681  13.878
67811W        W40236  35.807  44.410  12.440
67812W        W40237  31.434   6.871   0.995
67813W        W40238  27.524  20.024   0.501
67814W        W40239  40.990   2.532   3.176
67815W        W40240  10.594   7.866  14.223
67816W        W40241   9.730  29.089  13.493
67817W        W40242  35.697  42.013  12.997
67818W        W40243  16.430  38.015  14.940
67819W        W40244  25.781  31.364   0.284
67820W        W40245  11.786  42.200   3.110
67821W        W40246  34.995  15.222  10.439
67822W        W40247  15.721  38.963  12.160
67823W        W40248  12.679   8.649  13.241
67824W        W40249  41.542  15.356   2.240
67825W        W40250   2.144  24.431   5.131
67826W        W40251  42.338   7.689   3.143
67827W        W40252  37.499  32.119  14.857
67828W        W40253  12.434  32.121  13.832
67829W        W40254  19.680   7.654   4.238
67830W        W40255   2.730  30.373   0.886
67831W        W40256  23.545   8.277   1.238
67832W        W40257  43.268  26.591   1.387
67833W        W40258  18.796  19.134   1.321
67834W        W40259  14.522  11.095   1.782
67835W        W40260  13.940  38.406   0.831
67836W        W40261  39.288   6.737   4.002
67837W        W40262  10.520   5.915  12.988
67838W        W40263   5.637  13.772  11.555
67839W        W40264  17.927  25.666   3.102
67840W        W40265  38.192  21.395   0.289
67841W        W40266  16.780  35.330   2.433
67842W        W40267  14.299  22.743  12.089
67843W        W40268  37.348  21.640  13.833
67844W        W40269  15.230  14.304  10.678
67845W        W40270   4.679   8.384   4.391
67846W        W40271  44.050  40.199   4.340
67847W        W40272  15.690  43.123   1.335
67848W        W40273  11.553  37.732  12.075
67849W        W40274  35.752  28.241   2.791
67850W        W40275  22.132   1.446   2.176
67851W        W40276  16.655  27.126   1.202
67852W        W40277  34.018  14.141  12.538
67853W        W40278  31.649   4.663   2.642
67854W        W40279  13.850   7.661  11.093
67855W        W40280  42.660  22.035   2.874
67856W        W40281   2.710   9.131   2.751
67857W        W40282   8.347  15.543   1.942
67858W        W40283  10.873  19.588  12.663
67859W        W40284  30.162   5.721   0.290
67860W        W40285  19.084  38.514   0.006
67861W        W40286   2.818  18.414  12.939
67862W        W40287   2.067  23.453   2.611
67863W        W40288  10.897   6.368   3.706
67864W        W40289   3.209  16.069   2.441
67865W        W40290  24.657  21.076  14.560
67866W        W40291   0.476  39.580  12.064
67867W        W40292  32.675  19.309  11.210
67868W        W40293  22.173  43.781   4.678
67869W        W40294  12.041   5.546  14.840
67870W        W40295  11.173  19.154   1.262
67871W        W40296  16.607  10.105   0.289
67872W        W40297  14.898  40.507   3.797
67873W        W40298  32.791  32.177  12.047
67874W        W40299  17.286   5.234  10.287
67875W        W40300  19.815  21.601  11.700
67876W        W40301  31.533  44.296   0.325
67877W        W40302   4.590  40.947  12.115
67878W        W40303  28.608  43.576   0.406
67879W        W40304  34.463  36.670  13.404
67880W        W40305   7.749  34.504  14.226
67881W        W40306  11.619  39.358   0.544
67882W        W40307  22.019  13.340  13.962
67883W        W40308   9.334   6.736  14.335
67884W        W40309   3.226  36.638  14.992
67885W        W40310  11.672  32.015  13.628
67886W        W40311  27.946   3.874   2.000
67887W        W40312  28.322  11.733  12.984
67888W        W40313   4.165  23.549  14.138
67889W        W40314  23.550   3.527  10.386
67890W        W40315  37.656  37.479   0.749
67891W        W40316   1.524  43.904   3.587
67892W        W40317  13.677  14.209   4.577
67893W        W40318  12.567  44.826  13.836
67894W        W40319  23.253  43.385  12.730
67895W        W40320  26.553  20.488  11.082
67896W        W40321  24.408  38.125  11.618
67897W        W40322  33.117  13.581  11.077
67898W        W40323   8.666   1.735  10.535
67899W        W40324  38.640   6.246   3.689
67900W        W40325  27.263  44.381  14.148
67901W        W40326  13.129  32.165   1.127
67902W        W40327   0.221  35.612  12.577
67903W        W40328  44.775  14.192  13.253
67904W        W40329   3.844  17.001   4.136
67905W        W40330  27.207  34.413   1.708
67906W        W40331  37.982  18.107  11.179
67907W        W40332  24.946   9.797   3.699
67908W        W40333  32.469  44.372  10.438
67909W        W40334  39.245   7.502  13.318
67910W        W40335  24.966   4.260  14.173
67911W        W40336   2.178  10.361  12.436
67912W        W40337  44.525  10.767   1.905
67913W        W40338  31.929  16.938  11.238
67914W        W40339  24.463   9.175  13.932
67915W        W40340  23.286  38.443   3.695
67916W        W40341  21.425   6.263  11.312
67917W        W40342  44.215  11.134   1.672
67918W        W40343   4.338  16.078  12.616
67919W        W40344  43.839  36.125   3.575
67920W        W40345  35.936  36.272  12.084
67921W        W40346  37.141  40.805  12.954
67922W        W40347   4.969   5.206  11.639
67923W        W40348  26.713   6.106   2.143
67924W        W40349  17.339   5.295   2.617
67925W        W40350  31.745  37.546   3.149
67926W        W40351   1.817  26.190  13.023
67927W        W40352   7.263  22.523   0.884
67928W        W40353  44.736  39.310   2.320
67929W        W40354   1.852  14.725   4.538
67930W        W40355  36.830  21.669   4.358
67931W        W40356  39.412   9.287  11.519
67932W        W40357  22.252  40.321  11.850
67933W        W40358   2.289  27.679   3.306
67934W        W40359  20.237  26.616  11.629
67935W        W40360  20.605   0.826   4.420
67936W        W40361  26.143  36.117   0.029
67937W        W40362  10.001  27.953   2.098
67938W        W40363  20.298  44.239   3.720
67939W        W40364   3.808   7.558   3.489
67940W        W40365   4.447  12.879   4.292
67941W        W40366   6.518  12.520   1.335
67942W        W40367   1.898  18.312   4.124
67943W        W40368  24.266  20.344  14.997
67944W        W40369  28.415  34.514  14.710
67945W        W40370  41.997  36.132   1.683
67946W        W40371  31.567   0.567   2.147
67947W        W40372   4.709  22.480  11.090
67948W        W40373   8.716  21.224   0.020
67949W        W40374  19.549  12.217   2.469
67950W        W40375  11.850  31.095  14.505
67951W        W40376  42.127   3.935   1.911
67952W        W40377  37.098  37.153  14.704
67953W        W40378   3.399  36.283   1.828
67954W        W40379  18.448  25.437   0.386
67955W        W40380  23.310   3.507   1.872
67956W        W40381  15.147  33.924  11.169
67957W        W40382   3.955  25.197  11.104
67958W        W40383  19.207  23.883   0.020
67959W        W40384   0.020  31.382   1.841
67960W        W40385  19.227  34.503  14.059
67961W        W40386  41.388  36.507  12.474
67962W        W40387  39.386  25.203  12.402
67963W        W40388  12.532   6.642   3.595
67964W        W40389  30.893  39.798   1.490
67965W        W40390  12.741  32.190  10.827
67966W        W40391  42.131   9.290   4.629
67967W        W40392  24.715  35.458   1.397
67968W        W40393  41.961  18.099  10.165
67969W        W40394  14.559  10.398   1.388
67970W        W40395  33.354  21.475  14.637
67971W        W40396  42.624  33.076   0.984
67972W        W40397  14.232  23.681   2.870
67973W        W40398   5.228   1.927  12.127
67974W        W40399  15.765  18.694   1.420
67975W        W40400  17.113  19.616  12.129
67976W        W40401  17.764   2.239  13.923
67977W        W40402   2.950  40.995  13.835
67978W        W40403  26.653  11.178   1.764
67979W        W40404  33.460   4.367   4.095
67980W        W40405  14.561  32.979  12.007
67981W        W40406  33.395  31.391   4.619
67982W        W40407  33.518  24.730   1.953
67983W        W40408  30.451  27.394  13.894
67984W        W40409   1.862  17.832  10.700
67985W        W40410  29.818  25.155   5.201
67986W        W40411   3.679   8.938   4.643
67987W        W40412  37.784  16.345   2.097
67988W        W40413   6.891   7.683   3.320
67989W        W40414  40.480  21.425   5.525
67990W        W40415  25.904  33.087   4.668
67991W        W40416  44.832  44.067  13.086
67992W        W40417  17.318  39.452  10.675
67993W        W40418   5.489  38.964  11.520
67994W        W40419  27.620  11.011  12.097
67995W        W40420   8.845  39.321   4.962
67996W        W40421   4.091   2.667  12.875
67997W        W40422   8.195   9.122  12.571
67998W        W40423  35.778   5.903  13.939
67999W        W40424   3.301  23.834   1.226
68000W        W40425  24.715  22.160  11.502
68001W        W40426  23.913  26.524   1.010
68002W        W40427   8.048  18.240   0.981
68003W        W40428  31.628  37.093   0.475
68004W        W40429  28.469  39.551  10.274
68005W        W40430  30.197  27.717  13.395
68006W        W40431   5.870  39.770  11.758
68007W        W40432  40.886  41.718   3.147
68008W        W40433  20.940   9.257   4.147
68009W        W40434  41.368  36.522  13.355
68010W        W40435  38.889  22.064  11.254
68011W        W40436   9.737  16.751   1.403
68012W        W40437  20.120  16.500  13.000
68013W        W40438   5.370  35.446  12.189
68014W        W40439   0.493  42.111   4.146
68015W        W40440   6.684  10.372  13.000
68016W        W40441  21.661  27.996   1.798
68017W        W40442  11.730  30.498   4.560
68018W        W40443   5.467  39.521   1.264
68019W        W40444  25.169  35.052  12.081
68020W        W40445  29.609   0.021  11.854
68021W        W40446  34.625   7.898   1.005
68022W        W40447   3.176  11.777  13.591
68023W        W40448  33.472  28.847   1.516
68024W        W40449  14.849   4.202  14.414
68025W        W40450  44.712  24.396   0.078
68026W        W40451  29.074  32.329  10.819
68027W        W40452  43.882  31.929  10.149
68028W        W40453  23.963   1.796   0.837
68029W        W40454  26.537  13.798   1.302
68030W        W40455  39.796   3.147   4.086
68031W        W40456  24.271   4.459   1.477
68032W        W40457  23.245  10.076   3.149
68033W        W40458  18.517   9.893   2.793
68034W        W40459   0.249  30.204   3.263
68035W        W40460  14.585  34.800  11.510
68036W        W40461   6.354  18.127   4.571
68037W        W40462  31.250  29.639  11.541
68038W        W40463   1.107  39.059   2.756
68039W        W40464  25.612  22.946   0.229
68040W        W40465  29.857  18.839  14.889
68041W        W40466  23.275  43.816  11.946
68042W        W40467  42.809  19.816  14.369
68043W        W40468  14.918  15.201  12.535
68044W        W40469  33.542  23.373   3.308
68045W        W40470  41.830  21.774  10.279
68046W        W40471  10.357  14.882  11.147
68047W        W40472  31.467   5.808  13.182
68048W        W40473  34.389  33.803   1.282
68049W        W40474  31.133  22.778  12.155
68050W        W40475  26.140   5.253   2.951
68051W        W40476  40.370  26.959   2.217
68052W        W40477  17.325   3.885   0.840
68053W        W40478  25.977  37.421   4.027
68054W        W40479   1.859  15.888  14.229
68055W        W40480  11.364  28.396   1.855
68056W        W40481  14.669  18.913  11.553
68057W        W40482  13.345  18.603  10.883
68058W        W40483  20.116  27.043   4.344
68059W        W40484  36.343  23.565  14.803
68060W        W40485   4.005  42.237  14.911
68061W        W40486   7.743  38.273  11.586
68062W        W40487  40.261  12.677   0.870
68063W        W40488   8.262  27.440   4.618
68064W        W40489  17.137  28.855   4.141
68065W        W40490   2.101  13.641  14.399
68066W        W40491   2.177  27.970   0.252
68067W        W40492   3.592  15.700   3.177
68068W        W40493  16.084  44.418  10.762
68069W        W40494  39.842  36.871  11.595
68070W        W40495  18.819  14.491   1.642
68071W        W40496   6.671  44.696   4.586
68072W        W40497  16.588  26.996   3.098
68073W        W40498  18.964  23.180  11.909
68074W        W40499  29.886   9.640  13.507
68075W        W40500  27.907   1.846   0.127
68076W        W40501   8.089  20.649   2.006
68077W        W40502  15.693  30.895  13.426
68078W        W40503  29.152  20.544   3.839
68079W        W40504  27.922  16.199   4.206
68080W        W40505   5.415  18.982  14.022
68081W        W40506  29.953  30.488   0.391
68082W        W40507  15.698  32.040  11.167
68083W        W40508  43.558   5.810  14.970
68084W        W40509   5.505  43.590  12.118
68085W        W40510  39.946   5.408   0.106
68086W        W40511  32.407  20.681  11.448
68087W        W40512   2.358   5.352   3.880
68088W        W40513   7.268  43.293   4.078
68089W        W40514  37.840  42.489   5.211
68090W        W40515  35.442  12.139  13.720
68091W        W40516  11.448   5.241  14.132
68092W        W40517  25.500  31.960  11.961
68093W        W40518  41.890  10.788   0.218
68094W        W40519  37.000  29.465   2.281
68095W        W40520  44.507  39.510   4.491
68096W        W40521   3.224  21.659   4.174
68097W        W40522  11.547  43.213   2.247
68098W        W40523  10.005  40.046   3.752
68099W        W40524  38.097  21.532   1.242
68100W        W40525  15.064  19.883   0.729
68101W        W40526  37.503  12.725   4.608
68102W        W40527  36.148   1.447   2.373
68103W        W40528  26.165  11.935   1.838
68104W        W40529  32.134  17.579  11.591
68105W        W40530  24.707   1.970   3.288
68106W        W40531  18.914  41.701  14.041
68107W        W40532   6.592  19.056  12.344
68108W        W40533  41.570   1.967  11.098
68109W        W40534  36.836  44.390   2.373
68110W        W40535  30.017  25.568   1.742
68111W        W40536  31.539  36.989   2.391
68112W        W40537   8.273  40.408  13.514
68113W        W40538  13.130   6.379   1.266
68114W        W40539   9.322  16.148   2.399
68115W        W40540  32.331  39.207   3.895
68116W        W40541  43.718  29.955   0.263
68117W        W40542  37.323  10.182   2.332
68118W        W40543   7.044  33.032  10.737
68119W        W40544  40.528  24.767   2.754
68120W        W40545  25.543  21.098   3.673
68121W        W40546   8.217   7.701   3.689
68122W        W40547  44.270  31.180  14.793
68123W        W40548   6.519   2.848   3.055
68124W        W40549  25.645  22.261   2.825
68125W        W40550  12.879  33.147  10.440
68126W        W40551  22.055   7.008   1.365
68127W        W40552   9.590  22.649   4.085
68128W        W40553  42.075   7.734   4.052
68129W        W40554  20.925  44.531   1.466
68130W        W40555  20.258  22.329  11.649
68131W        W40556  29.901  10.757   2.988
68132W        W40557  39.439  22.847  13.825
68133W        W40558   8.854  38.474  10.610
68134W        W40559   8.398   6.933   1.921
68135W        W40560   6.781  12.377  13.918
68136W        W40561  19.104  29.557  11.480
68137W        W40562  30.389  28.275   2.741
68138W        W40563  30.646  17.228   0.865
68139W        W40564  28.155  44.590   4.826
68140W        W40565  36.163  26.132   0.810
68141W        W40566  28.962  36.829   0.019
68142W        W40567  26.918  22.677  11.005
68143W        W40568  36.179  10.655  12.579
68144W        W40569  43.096  16.880  14.821
68145W        W40570  27.975  23.212   9.964
68146W        W40571  31.573  20.780   0.758
68147W        W40572   9.162   4.697  10.258
68148W        W40573  43.111  14.381   2.134
68149W        W40574  35.909  37.838   1.904
68150W        W40575  16.528   2.720  12.909
68151W        W40576  12.713  33.001  13.719
68152W        W40577  27.189  36.811   1.906
68153W        W40578   5.927   3.220   1.848
68154W        W40579   6.146  35.142   4.497
68155W        W40580  44.937  41.900  14.383
68156W        W40581  15.384  24.396  14.281
68157W        W40582  10.598  32.677   3.673
68158W        W40583   8.843  20.371   2.293
68159W        W40584  26.448   1.614  11.160
68160W        W40585   2.941   3.719  13.095
68161W        W40586   3.972  10.729   3.269
68162W        W40587  25.752  29.148  10.762
68163W        W40588   5.835  17.773   1.465
68164W        W40589  41.511  20.488  12.819
68165W        W40590  40.830  15.644   0.671
68166W        W40591  30.391  31.178   0.267
68167W        W40592  26.572  24.256   0.281
68168W        W40593  11.590   6.724  13.191
68169W        W40594   1.396  11.281  12.809
68170W        W40595   0.925  34.567  12.068
68171W        W40596  36.052  44.790   0.971
68172W        W40597  26.019  26.333   4.250
68173W        W40598  27.295  24.628  14.880
68174W        W40599  44.306  42.871   0.560
68175W        W40600  27.077  30.160  12.802
68176W        W40601   6.633   6.809   3.724
68177W        W40602  13.958   4.757   0.439
68178W        W40603  38.608   2.343   1.274
68179W        W40604  35.679  38.100   3.112
68180W        W40605  39.012  43.516  14.208
68181W        W40606  36.822   2.901  12.842
68182W        W40607  32.085  12.629  10.351
68183W        W40608  27.549  42.210  11.947
68184W        W40609  12.241  23.291  12.085
68185W        W40610  25.942  36.021   3.309
68186W        W40611  29.059   7.684   4.213
68187W        W40612  40.845   9.799   4.136
68188W        W40613  40.817   6.621   1.390
68189W        W40614   6.871  11.626   4.772
68190W        W40615  27.200  11.283   1.496
68191W        W40616  17.114  33.820   2.374
68192W        W40617  20.501  10.746  13.461
68193W        W40618  14.432  34.936  10.454
68194W        W40619  23.609  41.042  11.685
68195W        W40620   3.185  16.693  10.870
68196W        W40621  38.618   7.012   0.497
68197W        W40622  32.910  36.988  14.487
68198W        W40623  17.019  36.997   1.431
68199W        W40624   1.482  14.825   4.899
68200W        W40625  12.575  32.576   2.767
68201W        W40626  15.124  40.942  12.191
68202W        W40627  37.297  19.176  13.916
68203W        W40628  33.270  18.028   1.175
68204W        W40629  19.831  10.172  13.743
68205W        W40630   5.913  11.876  14.042
68206W        W40631   0.415  19.801  11.167
68207W        W40632  28.954  32.594   3.857
68208W        W40633   5.154  13.932   4.076
68209W        W40634   5.935  26.647  14.309
68210W        W40635  41.846  37.212  14.921
68211W        W40636   4.688   2.112   0.719
68212W        W40637  15.663  23.694   3.681
68213W        W40638  10.346   2.895   2.977
68214W        W40639  18.913  40.046  12.961
68215W        W40640  24.046  33.881   2.401
68216W        W40641  34.000  41.078   3.746
68217W        W40642  40.341  16.772   0.844
68218W        W40643  36.732  27.998  13.554
68219W        W40644  25.135  16.279  10.702
68220W        W40645  23.480  25.030  11.051
68221W        W40646  17.018  18.722  12.247
68222W        W40647  31.833  34.502  12.107
68223W        W40648  37.026  40.885  11.689
68224W        W40649  27.174   5.295   1.646
68225W        W40650  22.934  14.916  14.050
68226W        W40651  27.536  26.619   1.183
68227W        W40652  24.596  20.276   4.115
68228W        W40653   5.847  19.997   0.891
68229W        W40654  36.416  26.489  10.590
68230W        W40655  29.200  36.383   2.230
68231W        W40656  26.924  41.084  11.850
68232W        W40657   0.448   1.309   4.371
68233W        W40658   8.070   5.977   1.859
68234W        W40659  25.817  10.182  11.764
68235W        W40660  35.339  34.730   1.413
68236W        W40661  24.319  13.688  13.414
68237W        W40662  17.723  17.530  14.971
68238W        W40663  12.827   1.270  12.932
68239W        W40664  42.592  34.395  10.594
68240W        W40665   3.234   3.867  11.194
68241W        W40666  20.505   4.828   2.257
68242W        W40667   7.709  13.451   3.793
68243W        W40668   4.335  38.859   0.928
68244W        W40669  37.053  11.241  10.704
68245W        W40670   5.448  34.397   0.802
68246W        W40671   8.687  41.528  13.956
68247W        W40672  19.427  10.713  12.570
68248W        W40673  19.512  39.935   1.246
68249W        W40674   1.374  36.135   0.940
68250W        W40675  27.224  12.190   3.062
68251W        W40676  38.828  31.781   4.171
68252W        W40677  23.657  15.582  11.008
68253W        W40678  41.422  42.485  13.863
68254W        W40679  25.721   5.376   4.773
68255W        W40680  14.287   3.930   3.862
68256W        W40681  17.380  17.837   3.322
68257W        W40682  31.133  24.974  14.498
68258W        W40683   2.254  19.000   3.777
68259W        W40684  41.322   8.165   0.366
68260W        W40685  25.755   4.390   3.675
68261W        W40686   7.431  20.200   2.390
68262W        W40687   6.400  42.560  10.774
68263W        W40688   4.808  21.522   3.182
68264W        W40689  41.921  36.940  13.672
68265W        W40690   0.216  34.641   4.444
68266W        W40691  11.239  11.947   1.465
68267W        W40692  36.038  39.641   3.167
68268W        W40693  17.741   3.456   3.087
68269W        W40694  42.161   3.708  12.947
68270W        W40695  11.232  36.535  12.260
68271W        W40696  43.360  30.623   2.000
68272W        W40697  11.234   5.201  12.371
68273W        W40698  14.634  25.508  10.733
68274W        W40699  39.535  37.076  12.386
68275W        W40700   2.539  36.527   4.633
68276W        W40701  13.593  33.349   0.979
68277W        W40702  13.232  14.781   3.311
68278W        W40703  29.090  33.573   0.210
68279W        W40704   5.361   2.739  10.553
68280W        W40705  11.421   3.781  11.123
68281W        W40706   4.646  44.483   0.486
68282W        W40707   2.593  35.614   3.881
68283W        W40708   1.811  40.152   4.380
68284W        W40709  23.737  21.200  10.606
68285W        W40710  30.870  37.475   4.653
68286W        W40711  41.738  18.559   0.379
68287W        W40712  30.515  10.665   4.275
68288W        W40713  32.131  44.076   1.891
68289W        W40714  11.765   6.249  11.644
68290W        W40715  36.514  11.067   1.673
68291W        W40716   9.234   1.835  11.218
68292W        W40717  16.580  10.730   0.962
68293W        W40718  15.785  11.119  12.576
68294W        W40719  12.286  36.324  13.061
68295W        W40720  27.978   6.761   1.924
68296W        W40721   4.264  42.722  12.938
68297W        W40722   5.216   9.950  14.917
68298W        W40723   9.333   0.517  12.955
68299W        W40724   4.578  29.090   0.909
68300W        W40725  38.486  28.051   3.095
68301W        W40726   7.387  39.812  12.197
68302W        W40727  32.621  24.218   4.503
68303W        W40728  34.137  22.778   3.792
68304W        W40729  29.052   5.847   4.608
68305W        W40730  30.132  40.814   3.863
68306W        W40731  19.360   1.992  11.173
68307W        W40732  21.768  24.469   2.882
68308W        W40733  32.286   2.316  12.436
68309W        W40734   6.319  27.192   3.716
68310W        W40735   5.992  27.576  13.348
68311W        W40736  25.516  27.793   0.960
68312W        W40737  39.915  33.939  13.980
68313W        W40738  13.343  23.924   5.130
68314W        W40739   5.254  28.146  14.223
68315W        W40740  14.757   2.618  13.647
68316W        W40741  44.373  12.322  12.644
68317W        W40742   9.829  29.025   3.712
68318W        W40743  25.222  19.549   3.337
68319W        W40744  40.379  20.839  10.660
68320W        W40745  25.237  32.154  11.538
68321W        W40746  15.122  18.184  11.804
68322W        W40747  43.831  14.420   2.925
68323W        W40748  32.034  42.789   4.555
68324W        W40749  19.783  44.361   2.811
68325W        W40750  40.019  13.708   0.321
68326W        W40751  10.283  31.079   4.518
68327W        W40752  39.049  33.506   5.026
68328W        W40753  17.106   3.041   1.821
68329W        W40754  16.808   3.752   1.279
68330W        W40755   8.193  19.130  11.491
68331W        W40756  28.010  36.839  11.102
68332W        W40757  44.273  15.601   4.126
68333W        W40758   3.731   6.407  11.999
68334W        W40759  14.058  10.251   4.204
68335W        W40760  40.953  16.105   2.418
68336W        W40761  43.227  43.307   3.390
68337W        W40762   7.106   7.693   0.399
68338W        W40763   9.705  27.155   2.485
68339W        W40764  29.431  42.579   0.253
68340W        W40765   1.694  37.189   4.254
68341W        W40766   6.597   2.972   1.793
68342W        W40767  20.159   6.593   3.695
68343W        W40768  22.068  35.227  13.434
68344W        W40769  24.445  19.531  14.616
68345W        W40770  10.416   9.912   4.470
68346W        W40771  19.098  38.550  13.374
68347W        W40772  20.223  34.939  13.442
68348W        W40773  34.057  30.097  13.540
68349W        W40774   7.431  19.181  13.516
68350W        W40775   0.021   2.285  11.045
68351W        W40776  36.045  26.049   4.170
68352W        W40777  22.836   9.184  10.258
68353W        W40778  29.395  34.604   4.225
68354W        W40779  38.328  26.572   2.379
68355W        W40780  31.014  25.912   4.552
68356W        W40781  43.287  17.543   4.354
68357W        W40782  24.897   2.032  11.845
68358W        W40783  16.546  28.967  13.006
68359W        W40784   2.457  21.492   1.897
68360W        W40785  27.254  31.534   2.096
68361W        W40786   8.305  19.630  11.565
68362W        W40787  18.043  22.627   3.770
68363W        W40788  35.611  24.253  14.436
68364W        W40789  32.124  42.915  10.777
68365W        W40790  43.011   2.886  13.478
68366W        W40791   7.182  22.279   3.095
68367W        W40792  37.084  44.517  11.133
68368W        W40793  27.134  40.078   1.706
68369W        W40794  33.387   2.453   3.733
68370W        W40795   4.321  32.200  11.540
68371W        W40796  19.189  29.016   4.637
68372W        W40797  34.460  11.815  14.497
68373W        W40798  18.523  43.463   3.415
68374W        W40799   1.422  21.163  12.729
68375W        W40800  44.917  33.816   3.183
68376W        W40801   3.748  36.527   4.124
68377W        W40802   9.663  36.577   2.219
68378W        W40803  38.828   4.716  12.071
68379W        W40804  17.040  12.366   3.938
68380W        W40805   1.125  34.335  11.122
68381W        W40806  30.984  25.931   1.198
68382W        W40807   7.103  14.014   4.619
68383W        W40808   0.389  21.960  12.560
68384W        W40809  39.017  35.387   1.880
68385W        W40810  14.706  32.931   1.269
68386W        W40811  10.732  15.603  12.502
68387W        W40812  11.794  20.385   1.769
68388W        W40813  14.527  20.619   1.691
68389W        W40814  18.637  18.823   3.231
68390W        W40815  42.215  14.999   3.847
68391W        W40816   6.263  31.993  10.708
68392W        W40817   3.952  39.818   0.844
68393W        W40818  16.605   3.316   3.700
68394W        W40819  41.604  39.386   4.769
68395W        W40820  10.577  41.953   3.194
68396W        W40821  14.748   2.439  12.007
68397W        W40822  38.387  17.251  11.215
68398W        W40823  35.902  20.115  11.717
68399W        W40824  42.433  42.805   3.634
68400W        W40825  31.108  21.501  13.903
68401W        W40826   5.265  16.733  12.130
68402W        W40827  22.680  18.318  13.950
68403W        W40828   2.049  15.069  12.509
68404W        W40829  25.233   3.237   1.425
68405W        W40830   8.693  39.287   2.290
68406W        W40831  21.069  44.468   2.230
68407W        W40832   9.141  39.074  14.987
68408W        W40833  28.446  39.045   4.226
68409W        W40834   9.168  36.006   5.043
68410W        W40835  27.974   8.095   3.116
68411W        W40836  29.866   6.354   1.397
68412W        W40837   0.843   1.079  13.857
68413W        W40838  29.963   1.768   1.651
68414W        W40839   6.316  17.815  10.881
68415W        W40840  23.143   3.899  14.391
68416W        W40841  17.322  31.112  14.027
68417W        W40842  40.504  26.083  12.862
68418W        W40843   6.217  37.387  10.794
68419W        W40844   9.578  15.154  10.924
68420W        W40845  30.412  21.742   1.970
68421W        W40846   3.787  12.778  11.230
68422W        W40847  11.663  31.412  14.869
68423W        W40848   3.374  23.013  11.196
68424W        W40849  17.136  32.754   3.918
68425W        W40850  10.308   3.429  13.294
68426W        W40851  35.404  17.669  13.922
68427W        W40852   8.948  20.946   0.854
68428W        W40853   5.816   3.964   3.181
68429W        W40854  44.212  23.651   0.974
68430W        W40855  10.365  25.163  14.820
68431W        W40856   8.282  17.210   0.150
68432W        W40857  21.582  21.167  10.696
68433W        W40858  15.423  10.713   1.970
68434W        W40859  12.582  14.844   4.389
68435W        W40860  19.798  43.337  12.524
68436W        W40861  32.783  17.529   3.405
68437W        W40862  28.123   7.733  10.931
68438W        W40863  15.215  26.637   4.319
68439W        W40864   8.654  16.498  14.924
68440W        W40865  27.445  21.554   0.203
68441W        W40866  22.932   7.360   2.674
68442W        W40867   5.599  36.541  11.106
68443W        W40868  28.503  38.570  13.809
68444W        W40869  28.470  14.199   2.671
68445W        W40870   1.454  25.538   4.751
68446W        W40871  27.691  11.304  11.587
68447W        W40872  15.705  11.890   3.207
68448W        W40873  11.482  36.042  11.896
68449W        W40874   3.446   2.888   4.269
68450W        W40875  16.278  15.692  14.777
68451W        W40876  26.204  43.584   3.355
68452W        W40877  12.066  41.186  11.189
68453W        W40878   5.922  33.943  14.468
68454W        W40879  14.188  33.817   1.260
68455W        W40880  28.651  13.311  13.116
68456W        W40881  21.458  23.601   0.799
68457W        W40882   9.839   4.428   1.376
68458W        W40883  36.527  33.012   2.680
68459W        W40884  22.768   8.715  14.033
68460W        W40885  20.247  11.083  11.045
68461W        W40886  30.665  31.531  14.999
68462W        W40887  36.380   6.795  12.632
68463W        W40888  22.641  38.309   4.278
68464W        W40889  24.793  18.087  10.503
68465W        W40890   9.916   5.220   0.995
68466W        W40891  36.012   7.751   3.157
68467W        W40892  30.995  13.858   1.928
68468W        W40893  44.338  28.264   0.453
68469W        W40894  14.831  41.770   2.859
68470W        W40895   9.690  15.734  12.555
68471W        W40896   2.403  14.609   0.474
68472W        W40897   8.910  24.451  14.375
68473W        W40898  21.473  11.641   1.147
68474W        W40899  39.317  26.684   2.242
68475W        W40900   3.823  22.152  11.171
68476W        W40901  27.640  30.201   1.196
68477W        W40902  16.638  30.054   4.943
68478W        W40903   4.309  30.886  13.548
68479W        W40904  24.764  39.522  13.555
68480W        W40905   0.351  23.530   0.909
68481W        W40906  14.009   9.803   0.560
68482W        W40907  19.889  13.791   4.618
68483W        W40908  34.799   3.297  10.462
68484W        W40909  28.055   5.805  10.506
68485W        W40910  30.284  44.992  14.321
68486W        W40911  14.216  28.052  12.896
68487W        W40912  38.995   5.218  14.985
68488W        W40913   9.969  27.399   2.857
68489W        W40914   0.987  20.985   3.215
68490W        W40915  23.966  30.517   2.657
68491W        W40916  26.922   1.312  14.812
68492W        W40917   4.209   6.845  10.669
68493W        W40918   1.413  18.287  14.959
68494W        W40919  41.339  27.377   2.742
68495W        W40920   8.892  37.104   4.468
68496W        W40921  17.288   3.287  13.077
68497W        W40922  37.161  15.439  11.950
68498W        W40923  19.827  27.595   4.709
68499W        W40924  25.125  30.280   4.291
68500W        W40925  40.559   5.769  13.494
68501W        W40926  10.270  19.922  13.572
68502W        W40927  34.084  28.340  13.087
68503W        W40928  24.065  44.224  11.897
68504W        W40929  30.250   5.854  13.448
68505W        W40930  36.863  44.278   3.196
68506W        W40931   8.984  13.018  14.792
68507W        W40932  29.858   6.057   1.815
68508W        W40933   0.469  32.871   2.945
68509W        W40934  31.008  31.969  12.683
68510W        W40935  28.666  41.830   3.241
68511W        W40936  42.323  38.163  12.989
68512W        W40937  23.268   7.949  11.523
68513W        W40938  43.923  22.549   0.946
68514W        W40939  37.334   8.993   0.957
68515W        W40940  14.002  27.709   4.153
68516W        W40941  26.111   6.279   2.932
68517W        W40942  44.452  20.140  12.056
68518W        W40943   7.274   8.420   2.193
68519W        W40944   8.309  32.175  13.911
68520W        W40945  18.684  44.912   0.669
68521W        W40946  30.921  15.759   1.001
68522W        W40947   5.086  41.585  13.013
68523W        W40948  34.418  29.144  12.967
68524W        W40949   5.935  27.248  10.756
68525W        W40950  26.640  29.265   0.443
68526W        W40951  10.906  31.668   2.374
68527W        W40952  38.966  15.797   4.132
68528W        W40953  16.703   3.321  11.132
68529W        W40954   2.680  42.442   3.813
68530W        W40955  20.772  21.587   0.134
68531W        W40956  14.261  10.917   3.604
68532W        W40957  35.222  29.089   4.613
68533W        W40958  34.754  12.134   2.739
68534W        W40959  42.162  25.458  11.728
68535W        W40960  27.607  17.627   1.481
68536W        W40961  20.752  36.849  10.685
68537W        W40962  18.598  42.352  12.440
68538W        W40963  24.596  20.161  14.211
68539W        W40964  29.859   1.952  13.812
68540W        W40965   3.776  33.834  11.569
68541W        W40966  14.651  38.860   2.714
68542W        W40967  12.817  39.601   3.760
68543W        W40968   5.276  31.298  11.054
68544W        W40969  17.192   5.004  12.591
68545W        W40970   2.238  22.842  11.673
68546W        W40971  19.058   2.231   1.418
68547W        W40972  29.949  22.006  10.976
68548W        W40973  42.452  17.198   0.726
68549W        W40974  36.239  35.997   1.976
68550W        W40975  21.615  31.323   1.910
68551W        W40976  15.836   4.088  14.466
68552W        W40977  12.381  42.729   2.431
68553W        W40978   5.508  31.110   4.173
68554W        W40979   0.789   1.567  11.775
68555W        W40980  34.266  37.661   0.413
68556W        W40981  20.731  16.341  12.999
68557W        W40982  38.650  36.104  11.695
68558W        W40983  18.531   3.325   0.834
68559W        W40984  34.553   5.738  12.610
68560W        W40985  27.792  11.140  13.466
68561W        W40986   1.790  26.590   1.951
68562W        W40987  41.220  42.958  11.006
68563W        W40988  20.514  19.245   3.712
68564W        W40989  43.067   2.037  11.177
68565W        W40990  25.774  41.823  13.314
68566W        W40991  42.123   6.711   2.772
68567W        W40992  41.418  38.144  14.916
68568W        W40993  14.768  11.496  10.172
68569W        W40994  17.700  34.027  10.660
68570W        W40995  42.726  35.128   2.476
68571W        W40996  33.106  20.688   1.804
68572W        W40997  33.082  13.210  12.041
68573W        W40998   7.202  28.433  14.883
68574W        W40999   7.862  26.059  10.539
68575W        W41000  10.798  23.564   1.837
68576W        W41001  29.194   7.099   1.951
68577W        W41002  38.517  35.912   1.341
68578W        W41003  16.794  33.698  12.458
68579W        W41004  14.121  25.332  11.497
68580W        W41005  10.302  20.349   4.659
68581W        W41006  23.641  40.679   0.823
68582W        W41007   9.384   4.480   3.232
68583W        W41008  17.740  35.987   4.404
68584W        W41009  13.525   6.433  11.663
68585W        W41010  16.816  43.025  12.922
68586W        W41011  34.802  38.883  10.170
68587W        W41012  25.964  25.868   3.743
68588W        W41013  40.551  29.237   2.843
68589W        W41014  27.610   3.984   0.475
68590W        W41015  41.633  34.509   2.414
68591W        W41016   2.576  28.678  11.019
68592W        W41017  14.554  30.585  13.840
68593W        W41018   4.851  38.843   3.252
68594W        W41019  44.207  29.741  12.483
68595W        W41020  20.095  24.218  14.386
68596W        W41021  27.134   5.201  10.709
68597W        W41022  12.576  24.729  13.571
68598W        W41023  38.315   6.933  14.796
68599W        W41024  29.528   2.019   2.954
68600W        W41025  32.821  20.702   2.236
68601W        W41026  23.276  20.547   3.187
68602W        W41027  13.180   1.210  10.242
68603W        W41028  10.317  22.028   1.621
68604W        W41029  25.134  31.879  14.370
68605W        W41030  12.738  26.227  13.874
68606W        W41031  34.829   4.444   4.469
68607W        W41032  27.638  19.609   2.790
68608W        W41033  27.038  40.959   0.189
68609W        W41034  26.056  11.654   4.814
68610W        W41035  22.235   1.707  14.394
68611W        W41036  25.172   7.810   4.831
68612W        W41037   2.232  11.388   4.125
68613W        W41038  37.017  26.507   0.327
68614W        W41039  25.203  18.809   0.903
68615W        W41040  22.621  23.688   0.361
68616W        W41041  40.449   0.738  13.968
68617W        W41042   0.855  21.401  13.383
68618W        W41043  21.218  32.341   0.420
68619W        W41044   7.676   4.877   3.717
68620W        W41045   6.753  24.423   1.772
68621W        W41046  27.734  40.342   2.554
68622W        W41047  28.134   4.409  11.896
68623W        W41048  32.564   1.244   4.752
68624W        W41049  38.951   8.949   4.170
68625W        W41050  27.727   4.026   3.055
68626W        W41051  44.889   1.514  13.929
68627W        W41052  15.695  18.084  10.450
68628W        W41053   9.306  24.264   1.856
68629W        W41054  36.219  13.172   0.783
68630W        W41055  41.016  11.883  11.582
68631W        W41056  38.150  15.754   2.783
68632W        W41057  34.634  17.075   3.616
68633W        W41058  14.341   6.738  14.011
68634W        W41059  25.579  21.935   4.803
68635W        W41060  38.072  13.868   1.660
68636W        W41061  19.723  34.293   1.969
68637W        W41062   6.441   5.418   1.304
68638W        W41063  34.812  35.947  12.403
68639W        W41064  38.509   7.926   0.675
68640W        W41065  20.375   8.402  11.143
68641W        W41066  21.287   5.093  12.928
68642W        W41067  17.520  12.920  12.978
68643W        W41068   9.564  12.675   4.472
68644W        W41069  35.125  15.282   3.517
68645W        W41070  31.348  39.544   3.378
68646W        W41071  24.014  19.343  11.548
68647W        W41072  40.113   4.446  13.855
68648W        W41073  19.265  35.001  14.316
68649W        W41074  37.370  42.458  12.434
68650W        W41075  14.379  24.704  14.271
68651W        W41076  22.762  40.078   4.162
68652W        W41077  35.104   0.393  13.412
68653W        W41078  39.235  30.086   3.293
68654W        W41079   8.198  35.996   1.384
68655W        W41080  38.470   0.210   0.378
68656W        W41081  17.037   6.854   2.296
68657W        W41082   6.126   1.955  11.907
68658W        W41083   8.326   9.746  14.398
68659W        W41084  30.917   3.899   2.274
68660W        W41085  33.930  29.998   0.165
68661W        W41086  32.080   1.605  13.042
68662W        W41087   0.777   5.876   2.581
68663W        W41088  12.111  27.830  13.086
68664W        W41089  24.324  39.684  11.509
68665W        W41090  42.820  23.996  10.846
68666W        W41091  12.824  12.170   0.407
68667W        W41092  15.635  40.779   1.854
68668W        W41093  17.668  25.812   1.728
68669W        W41094  27.438  12.299   1.449
68670W        W41095  39.584  27.686   0.834
68671W        W41096  37.356  36.872   1.504
68672W        W41097  12.837   6.828   1.366
68673W        W41098   5.375  13.358  11.671
68674W        W41099  12.133  13.359  12.972
68675W        W41100   6.448  24.111  11.113
68676W        W41101  34.062  41.051  14.908
68677W        W41102  37.106  33.612  14.991
68678W        W41103  36.749  33.487  13.537
68679W        W41104   1.993  43.238   2.200
68680W        W41105  27.646  44.606  13.278
68681W        W41106   5.382  25.623  14.364
68682W        W41107   5.221  14.762   3.600
68683W        W41108  12.103  42.224   3.795
68684W        W41109  42.420   5.275  12.010
68685W        W41110  30.075   6.936  11.993
68686W        W41111  33.679   9.435  13.372
68687W        W41112  33.624   9.654  14.396
68688W        W41113  17.827  22.767   4.686
68689W        W41114   3.334  26.368   4.588
68690W        W41115  34.882  13.394   1.882
68691W        W41116  36.597  13.697  14.331
68692W        W41117  41.967  30.059   2.224
68693W        W41118  32.477   5.849  13.194
68694W        W41119  10.628  32.188  13.074
68695W        W41120   5.582  37.514   4.716
68696W        W41121   2.149  37.922  12.544
68697W        W41122  30.194  12.412   2.060
68698W        W41123  40.380   6.396  10.454
68699W        W41124  38.448  20.777  13.895
68700W        W41125  17.844  28.468   0.389
68701W        W41126  41.408  36.691  12.002
68702W        W41127   7.748  22.367  10.396
68703W        W41128   5.808   9.857   2.806
68704W        W41129  42.847  43.823  12.097
68705W        W41130  22.703  23.253   4.173
68706W        W41131  38.912  30.592   1.583
68707W        W41132  17.637  41.122   4.891
68708W        W41133  28.197  39.053   2.579
68709W        W41134  25.301  11.181   1.089
68710W        W41135   0.055  43.333  12.543
68711W        W41136  40.699  22.614   2.645
68712W        W41137   7.739   8.655   4.724
68713W        W41138  23.958  37.046   4.197
68714W        W41139  43.993  22.953  11.770
68715W        W41140  35.449  14.711  11.845
68716W        W41141  23.058   9.608   1.346
68717W        W41142   0.322  33.620   1.884
68718W        W41143  37.652   6.170  14.862
68719W        W41144  29.004  24.276  10.639
68720W        W41145  13.908   3.464  12.487
68721W        W41146  31.931   5.750   0.823
68722W        W41147  20.778  12.322  12.000
68723W        W41148  42.307  44.420  11.091
68724W        W41149  28.623  31.567  13.156
68725W        W41150  14.675  36.953   4.117
68726W        W41151  13.148  10.206   0.292
68727W        W41152  11.462   1.310  11.401
68728W        W41153   4.445  16.764   3.254
68729W        W41154  11.592   3.013  13.426
68730W        W41155  14.535  14.107  12.812
68731W        W41156  16.162   5.164  10.603
68732W        W41157   5.145  21.576  12.904
68733W        W41158  23.494   9.797  14.373
68734W        W41159  34.867  18.544   5.104
68735W        W41160  23.864  42.816  12.969
68736W        W41161   1.891  13.351  14.023
68737W        W41162  42.876  42.499  12.978
68738W        W41163  31.746  24.629  10.794
68739W        W41164  20.766  12.602   4.037
68740W        W41165  12.632   5.984  12.926
68741W        W41166  33.615  16.758  13.219
68742W        W41167  19.228  29.056   0.266
68743W        W41168   2.397   3.205   2.764
68744W        W41169  35.463  12.623   0.393
68745W        W41170  28.816   8.133  12.075
68746W        W41171   8.220   4.666   1.361
68747W        W41172  39.497  39.230   4.930
68748W        W41173  11.373   5.713  12.485
68749W        W41174  43.951  34.572   5.594
68750W        W41175  23.068  29.398   0.372
68751W        W41176  31.361  20.605  13.873
68752W        W41177  36.111  31.106   1.866
68753W        W41178   5.236  37.536   4.311
68754W        W41179  27.755  31.446  13.876
68755W        W41180  17.203   0.543   3.650
68756W        W41181   5.687  28.104  10.769
68757W        W41182  28.484  23.503   3.332
68758W        W41183   8.666  22.707  11.882
68759W        W41184  17.272  40.417   2.213
68760W        W41185  31.121  22.159   2.275
68761W        W41186  37.307  42.915   1.721
68762W        W41187  35.668  31.368  11.405
68763W        W41188  11.805  43.538   4.008
68764W        W41189  24.730  13.252   2.206
68765W        W41190  15.421  32.638   2.231
68766W        W41191   9.523  23.996  10.650
68767W        W41192  39.759  20.801  14.397
68768W        W41193  44.371  33.536  12.087
68769W        W41194  37.354  38.536  10.553
68770W        W41195  41.178  16.170  13.951
68771W        W41196  13.858  26.511  10.852
68772W        W41197  41.940  38.230  14.975
68773W        W41198  39.551   8.184  11.652
68774W        W41199  34.983   3.770  13.605
68775W        W41200   9.405  11.239   3.591
68776W        W41201  10.340  37.903   4.829
68777W        W41202   0.395  40.528   4.035
68778W        W41203   0.915  27.497  14.997
68779W        W41204  34.173   3.388   4.193
68780W        W41205  12.788  12.713   2.314
68781W        W41206  19.883  32.931  13.842
68782W        W41207  23.577   7.916  10.503
68783W        W41208  19.263   2.437  11.427
68784W        W41209  19.760  29.611   3.685
68785W        W41210  18.064  38.441   4.573
68786W        W41211   4.983  13.591   5.043
68787W        W41212  35.273  35.968  13.325
68788W        W41213  32.611  32.950  13.893
68789W        W41214  40.458  13.929  12.119
68790W        W41215   2.502  17.219   1.677
68791W        W41216  13.813  18.706   1.520
68792W        W41217  43.472   6.205   4.105
68793W        W41218  31.861   5.456  10.027
68794W        W41219  28.207   0.527   3.252
68795W        W41220   9.149  28.344  14.825
68796W        W41221  36.328  27.205  11.115
68797W        W41222  10.733  31.233   3.174
68798W        W41223  13.103  17.802  13.861
68799W        W41224  37.548  35.808  13.083
68800W        W41225  35.967  23.700  13.922
68801W        W41226  36.583   3.532  11.602
68802W        W41227  16.820  23.456  11.258
68803W        W41228  21.180  24.641   2.175
68804W        W41229  31.347   6.686  13.068
68805W        W41230  37.456  41.150  14.014
68806W        W41231  31.504  23.104  14.767
68807W        W41232   2.353  22.750   3.381
68808W        W41233  39.511   9.705   4.309
68809W        W41234  35.948  11.396  13.991
68810W        W41235   9.236  24.509   3.696
68811W        W41236  28.514   4.549  12.663
68812W        W41237  24.958  31.519   2.590
68813W        W41238   2.829  35.536  14.439
68814W        W41239  12.927  40.579   0.354
68815W        W41240  38.894  28.500  10.691
68816W        W41241  22.833  12.309  10.355
68817W        W41242  11.666  23.002  14.363
68818W        W41243  43.927  11.196   4.077
68819W        W41244   0.070  12.574   2.215
68820W        W41245  37.551  21.532  10.716
68821W        W41246   1.027  15.772   4.959
68822W        W41247  43.499  12.033  14.451
68823W        W41248  41.789  13.724   3.406
68824W        W41249  19.822  40.679   0.190
68825W        W41250  24.620  23.578  10.895
68826W        W41251   3.303  26.945  11.988
68827W        W41252  32.415  30.997  11.511
68828W        W41253  26.208  27.330   2.323
68829W        W41254  33.960  33.025  11.552
68830W        W41255  15.257  10.566   3.105
68831W        W41256  15.813  40.056  11.940
68832W        W41257   9.253  10.152  10.996
68833W        W41258  37.114  17.018  12.838
68834W        W41259   8.869  10.099  11.343
68835W        W41260  19.373  12.581  10.588
68836W        W41261  31.470  18.765  11.621
68837W        W41262  10.331  30.063   1.475
68838W        W41263  42.391   5.359   2.791
68839W        W41264   8.115  34.874  14.408
68840W        W41265   9.282  27.920   4.742
68841W        W41266  44.332  26.923   3.922
68842W        W41267   3.678   9.956   1.771
68843W        W41268  18.898   0.385  11.193
68844W        W41269  10.658  29.844  14.020
68845W        W41270   3.325  13.427   1.150
68846W        W41271  41.330  22.068   5.542
68847W        W41272  19.140  18.187   1.273
68848W        W41273  17.079  32.212   3.714
68849W        W41274  39.990  37.323  12.556
68850W        W41275   8.939  25.823   1.952
68851W        W41276  11.115  36.897   0.769
68852W        W41277  28.512  18.610  12.993
68853W        W41278  31.844  42.522  13.902
68854W        W41279  39.615  30.924  10.821
68855W        W41280  39.030  37.891   3.832
68856W        W41281   0.228  25.689  14.846
68857W        W41282  20.875  41.687   2.174
68858W        W41283  40.342  40.950  13.934
68859W        W41284   5.881  34.656   0.969
68860W        W41285  18.541  30.772  13.535
68861W        W41286  24.156  32.166   4.595
68862W        W41287  24.449  24.624  14.535
68863W        W41288  24.017  33.581  14.983
68864W        W41289  14.235  22.786  10.474
68865W        W41290  33.328   4.203   3.104
68866W        W41291  23.627   6.916  10.734
68867W        W41292  24.071  19.113  14.669
68868W        W41293   2.824  38.161   3.529
68869W        W41294   0.902  19.815   0.780
68870W        W41295  10.994  40.598  10.730
68871W        W41296  41.404   9.619  12.957
68872W        W41297  37.116  44.533   2.819
68873W        W41298  40.790  29.700   4.611
68874W        W41299  39.238  42.284   1.530
68875W        W41300  21.644  13.420   2.226
68876W        W41301  30.926  31.357  11.921
68877W        W41302  15.177   6.718   2.799
68878W        W41303  16.307  11.231  14.458
68879W        W41304  32.021  31.112   2.808
68880W        W41305  40.143  21.574   1.360
68881W        W41306   4.259  28.968   2.287
68882W        W41307  40.037  18.264  10.998
68883W        W41308  31.194  20.040   3.383
68884W        W41309   4.915   4.556   4.176
68885W        W41310  30.446  33.540  10.724
68886W        W41311  35.563  22.978   2.664
68887W        W41312  39.658  38.255  11.618
68888W        W41313   3.194   3.751   3.583
68889W        W41314  23.595  34.034  10.618
68890W        W41315  29.087   9.408   0.444
68891W        W41316   2.755  24.236   0.392
68892W        W41317  21.503  28.698  12.416
68893W        W41318  40.016  18.547   0.062
68894W        W41319  16.923  18.034   0.030
68895W        W41320  43.772  40.699   1.429
68896W        W41321  25.658  16.558   3.993
68897W        W41322  22.962  31.062  12.418
68898W        W41323  38.809  25.976  13.441
68899W        W41324   4.156  37.931  13.969
68900W        W41325  10.332  44.064  12.392
68901W        W41326  28.303  13.655  11.757
68902W        W41327   3.344   5.240  10.576
68903W        W41328  42.963  10.446   1.588
68904W        W41329  34.895   6.488  12.287
68905W        W41330  41.319  18.379   2.427
68906W        W41331   7.450   8.731   1.802
68907W        W41332  17.540  15.421  12.296
68908W        W41333  25.456  35.127   3.576
68909W        W41334  40.471  27.052   3.166
68910W        W41335   7.201   9.244  10.682
68911W        W41336  40.577  36.570  14.367
68912W        W41337  30.136   7.609   1.014
68913W        W41338  22.068  18.844   1.993
68914W        W41339   5.924  25.900   0.016
68915W        W41340  12.917   9.972  13.052
68916W        W41341  23.226  44.375  11.175
68917W        W41342  32.532  36.060  13.301
68918W        W41343  17.574  25.935  12.369
68919W        W41344  37.563  34.310  11.648
68920W        W41345  19.179  31.506   2.621
68921W        W41346   6.221  22.026   4.088
68922W        W41347   6.273  17.142  12.578
68923W        W41348  38.200  42.952  14.022
68924W        W41349  41.231   8.693   2.726
68925W        W41350  17.269  16.581  10.273
68926W        W41351  39.023  23.223   2.317
68927W        W41352   5.814   8.258   0.318
68928W        W41353  41.882  35.223   2.025
68929W        W41354   1.205  16.308   3.320
68930W        W41355  22.076   8.358  10.570
68931W        W41356  33.522  19.731   1.305
68932W        W41357  10.857  15.365   2.636
68933W        W41358  43.927  32.692  11.470
68934W        W41359  43.308  19.821   2.876
68935W        W41360  36.308  34.639   0.559
68936W        W41361  10.752  43.285   3.182
68937W        W41362   1.791  27.916  14.297
68938W        W41363  36.544  33.633  14.385
68939W        W41364   9.985  16.643   2.857
68940W        W41365  17.725  17.507  13.063
68941W        W41366  41.068  26.069   1.844
68942W        W41367  36.319  24.753   1.722
68943W        W41368   8.633  22.926   4.788
68944W        W41369   5.043  41.969   3.579
68945W        W41370   6.431  39.282   2.388
68946W        W41371  19.171  35.797  11.998
68947W        W41372   1.434  40.251  13.521
68948W        W41373  39.922  44.392   3.235
68949W        W41374  32.590   0.319  10.396
68950W        W41375  38.864  42.299  12.049
68951W        W41376  16.839   2.079  11.798
68952W        W41377  29.299  42.115   0.422
68953W        W41378   4.383   2.246  13.036
68954W        W41379  20.012  11.904  10.765
68955W        W41380  39.118   2.480   2.815
68956W        W41381  32.173   4.846   3.713
68957W        W41382  10.239  30.983   3.126
68958W        W41383  40.649  35.420   2.806
68959W        W41384   2.194  31.765   3.583
68960W        W41385  28.720  14.321   1.234
68961W        W41386  38.891  25.139   4.072
68962W        W41387  17.126  18.251  14.561
68963W        W41388  10.350   0.527  13.874
68964W        W41389  40.571   9.606   0.987
68965W        W41390  29.940  24.089  13.441
68966W        W41391  15.876   1.391  10.598
68967W        W41392  25.993  36.646  14.530
68968W        W41393  28.707  39.216   0.789
68969W        W41394   6.436   3.435   2.031
68970W        W41395  28.083  21.023   1.874
68971W        W41396  42.447   4.844  13.322
68972W        W41397  31.695  36.947  10.787
68973W        W41398  12.103   8.418  10.989
68974W        W41399  34.504  28.918  12.426
68975W        W41400   8.139  27.515  11.424
68976W        W41401   3.541  15.082   0.294
68977W        W41402  36.612   3.789   2.666
68978W        W41403  22.757  33.071  10.309
68979W        W41404  41.367  19.992   4.062
68980W        W41405  10.473   0.615   4.249
68981W        W41406   9.418  21.828  11.514
68982W        W41407  28.559  11.154   0.859
68983W        W41408  42.872  27.890  13.072
68984W        W41409  17.457  31.558  14.871
68985W        W41410  42.331  33.460  13.956
68986W        W41411  34.542  42.417   2.924
68987W        W41412  27.655  19.457  13.973
68988W        W41413  22.774  19.216   0.360
68989W        W41414  41.558  42.050   5.004
68990W        W41415  11.345  30.028   1.335
68991W        W41416  43.045  11.202   4.169
68992W        W41417   1.436  22.236  14.661
68993W        W41418   2.857  37.015   1.397
68994W        W41419  15.436  43.581   3.418
68995W        W41420  19.230  25.238   2.585
68996W        W41421  25.608  18.268  11.532
68997W        W41422  35.837  41.287   2.735
68998W        W41423  37.878   6.740  11.971
68999W        W41424  18.162   6.866  13.074
69000W        W41425  20.227  37.254  11.558
69001W        W41426   6.459  43.261  12.909
69002W        W41427  44.759   0.300  14.470
69003W        W41428   7.257  23.289   1.098
69004W        W41429  11.232  25.205   2.403
69005W        W41430  11.377  15.431   3.116
69006W        W41431   4.195  14.138   1.800
69007W        W41432  30.619   0.044  11.508
69008W        W41433  12.198  16.308   2.159
69009W        W41434   2.918  26.060   4.143
69010W        W41435  30.548   0.550  11.763
69011W        W41436  39.281  21.184   3.090
69012W        W41437  37.973  16.007  12.875
69013W        W41438  32.045  17.991   2.851
69014W        W41439   7.783  38.042   3.821
69015W        W41440  41.112  42.398   0.889
69016W        W41441   1.059  16.839   1.041
69017W        W41442  18.857  36.055  14.803
69018W        W41443  18.249  28.414   3.051
69019W        W41444  41.531  21.784  12.819
69020W        W41445  27.211  12.828  13.555
69021W        W41446  12.403  31.590   4.669
69022W        W41447   7.356  22.031   0.036
69023W        W41448  18.773  26.231   4.783
69024W        W41449  44.253   9.405   1.977
69025W        W41450   5.386   3.948   4.855
69026W        W41451  30.599  38.159  12.506
69027W        W41452   1.904   5.979   2.891
69028W        W41453  17.716  21.345  12.264
69029W        W41454  42.051  32.063   4.435
69030W        W41455  39.013  18.780   1.872
69031W        W41456  39.073  33.357  10.682
69032W        W41457  29.956   1.722   3.630
69033W        W41458  42.095  30.498   1.188
69034W        W41459  15.040  20.447   1.860
69035W        W41460  29.105  13.394  11.060
69036W        W41461  22.566  23.464   3.659
69037W        W41462  30.650  43.819  13.057
69038W        W41463   8.842  26.753  12.021
69039W        W41464   5.282  11.068  10.951
69040W        W41465  18.766  36.930  11.921
69041W        W41466   8.795  30.377  12.949
69042W        W41467  31.517   2.300  13.504
69043W        W41468  33.125  34.907  13.496
69044W        W41469   1.753  42.777  12.385
69045W        W41470   9.303  40.981  12.831
69046W        W41471  21.635  13.519  11.576
69047W        W41472  37.166  20.687  10.515
69048W        W41473  32.238   3.851   2.805
69049W        W41474  33.566  18.799  13.447
69050W        W41475  36.774  25.761   4.835
69051W        W41476  19.710   4.256   3.357
69052W        W41477  16.332  33.777  10.293
69053W        W41478  34.918  12.645  12.395
69054W        W41479  40.916  22.522  10.913
69055W        W41480  12.382  33.541   2.797
69056W        W41481  12.262  42.478  11.541
69057W        W41482  34.672  15.856  12.078
69058W        W41483  18.504  16.113  13.915
69059W        W41484  15.108  27.800  12.410
69060W        W41485  14.170  38.853   1.761
69061W        W41486   7.426  43.315  14.373
69062W        W41487  37.159   1.426   0.388
69063W        W41488   1.479  16.762  14.204
69064W        W41489  10.306  10.790   0.691
69065W        W41490   6.771   9.906   0.610
69066W        W41491  23.449  40.058  11.251
69067W        W41492  25.907  13.692  11.057
69068W        W41493  22.248  14.210  13.986
69069W        W41494   0.231  18.281   3.157
69070W        W41495  10.990  20.488   2.118
69071W        W41496  22.989  41.351   4.880
69072W        W41497  11.052   3.782   2.765
69073W        W41498  21.514  41.864  14.416
69074W        W41499  43.021  24.614   2.644
69075W        W41500  30.667   2.250   1.205
69076W        W41501  27.060  24.503  14.424
69077W        W41502  37.111  31.266   4.934
69078W        W41503  27.909  43.345  14.972
69079W        W41504  20.633  30.495   2.928
69080W        W41505   2.354   7.255   4.559
69081W        W41506   2.216   7.603   1.266
69082W        W41507   3.910  39.830   4.467
69083W        W41508  35.445  14.130   2.317
69084W        W41509  19.087  10.315  12.540
69085W        W41510  35.015  22.613   0.941
69086W        W41511   2.658  17.141   3.103
69087W        W41512  12.276  12.298  12.092
69088W        W41513  24.689   2.778   0.369
69089W        W41514  27.238  23.783   2.755
69090W        W41515  20.783  32.948   2.267
69091W        W41516  17.046  39.407  13.466
69092W        W41517  33.931  27.487   1.853
69093W        W41518  44.330  24.748  13.388
69094W        W41519  43.111  41.896   2.304
69095W        W41520   3.701  12.562  12.657
69096W        W41521  10.325  19.252   0.861
69097W        W41522  33.364   2.838   1.947
69098W        W41523   9.386  35.452  12.500
69099W        W41524  40.455  14.680   2.369
69100W        W41525  28.939  10.842  11.131
69101W        W41526  24.483  25.564   1.206
69102W        W41527  35.287  24.073  11.966
69103W        W41528  28.490  12.920  12.421
69104W        W41529   9.519  27.495   4.541
69105W        W41530  25.678   7.325  11.908
69106W        W41531  16.044  25.864   1.152
69107W        W41532  44.718  32.064  10.211
69108W        W41533  11.822  28.897  11.580
69109W        W41534  41.881  19.087   3.447
69110W        W41535  26.994   9.503   3.091
69111W        W41536  29.103  38.930  11.916
69112W        W41537  42.554  11.866   0.890
69113W        W41538  24.117  21.716   3.239
69114W        W41539  25.723  15.780  13.054
69115W        W41540   5.275  24.498  12.627
69116W        W41541  32.109  34.478  13.078
69117W        W41542  18.620  13.774   2.351
69118W        W41543  36.519  17.829   3.204
69119W        W41544  27.082  14.943   2.732
69120W        W41545  44.754  11.161   1.698
69121W        W41546  18.443   8.747  12.939
69122W        W41547  32.129  21.496   1.830
69123W        W41548  11.247  15.358  11.182
69124W        W41549  17.281  19.065  13.398
69125W        W41550  13.776   9.419   1.822
69126W        W41551  13.165  44.078  14.920
69127W        W41552  26.267  29.337  12.948
69128W        W41553  35.249  21.491   4.863
69129W        W41554  33.827  32.311  13.312
69130W        W41555  38.562  32.936  12.926
69131W        W41556  28.256  39.001  14.858
69132W        W41557  25.270  31.468   0.345
69133W        W41558  33.351  40.332  12.365
69134W        W41559  12.808  28.990  11.531
69135W        W41560  18.284  39.318   2.207
69136W        W41561  41.338   2.761   4.769
69137W        W41562   6.776   0.429   2.596
69138W        W41563  32.645  44.980  13.984
69139W        W41564  44.181  24.622   3.348
69140W        W41565  39.588   8.164   3.251
69141W        W41566  10.057  28.473  13.332
69142W        W41567   1.785  18.301   3.151
69143W        W41568  21.127  44.212  10.319
69144W        W41569  25.507  23.055   1.578
69145W        W41570  38.710  30.476   4.564
69146W        W41571  14.275  12.097  12.144
69147W        W41572  14.696  32.181   4.494
69148W        W41573  34.415  19.304   4.471
69149W        W41574  24.156  39.466  13.772
69150W        W41575  19.203  35.567   1.802
69151W        W41576  35.131   1.539  12.600
69152W        W41577   0.391  27.512  14.969
69153W        W41578  29.044   5.689  14.493
69154W        W41579  18.725  25.745   1.932
69155W        W41580  40.265  26.732  12.709
69156W        W41581  15.332  20.075  12.581
69157W        W41582  40.801  16.239   4.064
69158W        W41583  21.086  15.615   0.184
69159W        W41584  27.368  21.660   2.932
69160W        W41585  16.787  22.870   0.040
69161W        W41586  36.934  20.668   4.681
69162W        W41587   9.816  33.593  10.283
69163W        W41588  41.071  14.609  14.866
69164W        W41589  29.677  30.389   1.917
69165W        W41590  24.076  22.114   4.548
69166W        W41591  38.410   3.537  11.911
69167W        W41592  19.567  30.035  14.534
69168W        W41593  37.119  25.185   0.735
69169W        W41594  33.909  15.321  11.914
69170W        W41595  38.415  17.069   1.731
69171W        W41596  20.743   5.439   3.621
69172W        W41597  16.113  34.800   0.289
69173W        W41598  33.498  15.986   5.171
69174W        W41599  12.097   7.411  12.352
69175W        W41600  37.307  41.560   4.610
69176W        W41601  33.179  14.735   2.296
69177W        W41602  40.955  18.168   2.117
69178W        W41603  30.908  37.558  11.205
69179W        W41604  32.420  17.765   3.119
69180W        W41605  30.648  15.657  11.911
69181W        W41606   2.354  42.943   4.551
69182W        W41607  31.437   7.394   1.011
69183W        W41608  13.865  34.990  12.371
69184W        W41609  22.053  38.120  13.481
69185W        W41610  18.700  26.103   3.379
69186W        W41611  14.373   0.841  11.407
69187W        W41612  37.410   8.860   2.902
69188W        W41613  27.044  29.693   2.401
69189W        W41614  22.166  39.405   0.299
69190W        W41615  37.634  11.273   9.872
69191W        W41616   4.385  33.147   4.112
69192W        W41617  14.354  20.245   0.323
69193W        W41618  15.431  19.194  11.999
69194W        W41619  43.233  14.116   0.218
69195W        W41620   8.426  23.569  14.348
69196W        W41621  12.707  44.468   2.876
69197W        W41622   0.107  19.063   1.388
69198W        W41623   8.123  28.550  12.901
69199W        W41624  42.268  31.912  11.446
69200W        W41625  42.651  14.535   0.886
69201W        W41626  44.755  29.201  11.730
69202W        W41627  28.484  16.387  12.085
69203W        W41628  36.884  24.658   4.544
69204W        W41629  30.565  32.836  14.553
69205W        W41630  27.931   4.671   0.042
69206W        W41631   3.298   2.202   2.200
69207W        W41632  44.342  30.564  13.064
69208W        W41633   3.905  10.162  11.838
69209W        W41634   6.806   1.471  14.820
69210W        W41635  32.408  40.052  12.550
69211W        W41636  40.852  33.181   2.346
69212W        W41637  17.312  16.572  13.450
69213W        W41638  17.727  30.215  13.941
69214W        W41639  43.902  36.393  12.516
69215W        W41640  29.111  12.642   2.718
69216W        W41641  15.436  10.694  12.064
69217W        W41642  22.189   6.772   2.685
69218W        W41643  36.533  41.616   1.307
69219W        W41644  20.798  39.817  13.426
69220W        W41645  42.763  33.923   1.282
69221W        W41646  42.833  23.185  11.514
69222W        W41647   4.263  27.757  13.847
69223W        W41648  24.815   6.688   3.096
69224W        W41649  36.165  26.022   2.186
69225W        W41650   7.269  14.505  11.519
69226W        W41651  14.357  37.260  13.353
69227W        W41652  11.912  11.625  10.049
69228W        W41653  25.185  17.191   1.879
69229W        W41654  15.294  41.295   3.626
69230W        W41655   6.884  21.989  14.749
69231W        W41656  27.225  40.948   2.331
69232W        W41657  22.378   8.796  12.271
69233W        W41658  27.171  29.139   4.581
69234W        W41659  16.702  31.945  10.893
69235W        W41660  39.866  16.179   3.244
69236W        W41661   5.750  26.536  12.026
69237W        W41662   7.314  11.870  12.456
69238W        W41663   8.144  24.807   3.231
69239W        W41664  36.985  17.742   0.119
69240W        W41665   3.984  20.037  13.926
69241W        W41666   1.519   2.419   3.392
69242W        W41667   6.742  16.331  13.890
69243W        W41668   5.770  22.716  11.341
69244W        W41669  39.250  27.672   3.872
69245W        W41670  16.500  37.191  12.558
69246W        W41671  29.992  28.546   4.092
69247W        W41672   0.889  41.354   0.878
69248W        W41673  31.190   0.808  13.424
69249W        W41674  20.096  42.407  13.421
69250W        W41675  27.440  14.552  13.926
69251W        W41676  25.911  20.658  12.122
69252W        W41677  30.371  23.985   4.470
69253W        W41678   9.769   7.806  14.853
69254W        W41679   1.448  19.207   0.226
69255W        W41680   8.561  39.491   1.797
69256W        W41681  22.999   5.460   2.433
69257W        W41682  18.797  41.500   2.605
69258W        W41683  29.168   5.866   0.465
69259W        W41684  12.932  38.540   0.954
69260W        W41685  40.260   4.712  13.426
69261W        W41686  42.948  37.923  12.759
69262W        W41687  30.776   6.789   0.382
69263W        W41688  21.256  42.539   4.579
69264W        W41689  34.633  14.652   4.653
69265W        W41690  24.594  24.063  10.727
69266W        W41691  10.290   4.606  14.196
69267W        W41692  27.055   1.987   0.859
69268W        W41693  15.019   0.759  12.688
69269W        W41694  25.157  20.058  12.024
69270W        W41695   4.795  14.272   0.954
69271W        W41696  25.889  18.677   4.179
69272W        W41697  20.765  11.286   1.137
69273W        W41698  42.506   1.711   2.802
69274W        W41699  40.888   5.752  10.846
69275W        W41700  38.272  26.851   2.822
69276W        W41701  32.012   8.333  12.754
69277W        W41702  23.362   6.705   4.467
69278W        W41703   0.008  16.171  12.699
69279W        W41704  12.045  32.182   3.873
69280W        W41705  20.499   2.477   1.724
69281W        W41706  32.839  36.344   3.678
69282W        W41707  44.503  36.501   3.144
69283W        W41708  21.273  32.886  11.313
69284W        W41709   6.433  30.328  13.108
69285W        W41710  31.434  26.023   1.973
69286W        W41711   5.520  37.096   4.216
69287W        W41712  25.250   1.274  13.383
69288W        W41713  33.634   8.154  14.931
69289W        W41714  41.484   5.257  12.483
69290W        W41715  34.135  39.505   2.854
69291W        W41716  33.529  12.265   4.134
69292W        W41717  42.265  33.463   3.743
69293W        W41718  33.840  15.262   2.550
69294W        W41719  35.084  21.148  11.830
69295W        W41720  42.519  40.451  13.358
69296W        W41721  24.288  38.299   3.835
69297W        W41722  13.701   9.765  14.580
69298W        W41723  16.174  15.884   3.827
69299W        W41724  16.577  31.422   3.697
69300W        W41725  24.240  35.791   0.822
69301W        W41726   1.901  17.235  12.039
69302W        W41727   5.782  28.107  14.962
69303W        W41728  22.589  13.978   0.684
69304W        W41729  28.236  24.083   3.342
69305W        W41730   7.224  27.584  13.048
69306W        W41731   2.723  20.318  13.053
69307W        W41732   1.459  14.084  11.524
69308W        W41733   5.853  27.921   2.233
69309W        W41734   2.906  26.803   0.263
69310W        W41735  38.129  28.977  14.162
69311W        W41736  31.662  31.934   4.218
69312W        W41737   0.876  39.776   4.432
69313W        W41738  40.067  13.467  11.600
69314W        W41739  19.645   8.321   4.832
69315W        W41740  44.130  41.990  13.376
69316W        W41741  28.861  42.903   2.343
69317W        W41742  40.524  10.659   0.740
69318W        W41743  36.480   1.203  10.673
69319W        W41744  28.976  39.065   2.673
69320W        W41745  12.298  40.362  11.334
69321W        W41746  29.447   7.911   4.971
69322W        W41747  24.164  40.426   1.372
69323W        W41748  36.413  13.150  10.764
69324W        W41749  24.472  22.797  14.067
69325W        W41750   0.899  44.495   2.586
69326W        W41751  27.462   7.705   0.868
69327W        W41752  14.296  29.416  12.406
69328W        W41753  38.180  36.442   3.832
69329W        W41754  44.800  13.004  14.912
69330W        W41755   7.137  29.530  12.944
69331W        W41756  16.301  22.349  11.538
69332W        W41757   5.023  44.863   2.171
69333W        W41758  26.597  36.768   5.145
69334W        W41759  39.475  26.256   3.264
69335W        W41760   6.925  42.514  14.160
69336W        W41761  14.355   6.452  11.214
69337W        W41762  14.532   8.372   1.473
69338W        W41763  31.993  44.047  11.498
69339W        W41764  28.958  12.296  14.075
69340W        W41765   3.457  10.620  11.708
69341W        W41766  42.059   4.542  14.511
69342W        W41767  13.213  17.685   3.265
69343W        W41768   0.411  35.853   0.511
69344W        W41769  43.514  34.003   2.726
69345W        W41770  27.667   9.335  13.529
69346W        W41771  43.464  31.002  10.899
69347W        W41772  30.702  25.133   4.282
69348W        W41773  20.189  21.684  10.499
69349W        W41774   9.564  12.190  10.507
69350W        W41775  29.182  42.009   4.606
69351W        W41776  18.011  30.681   1.440
69352W        W41777  26.047  11.147   4.919
69353W        W41778  23.479  15.496   4.461
69354W        W41779  23.452  36.484   0.353
69355W        W41780  26.421  23.481  10.820
69356W        W41781  30.829  16.372  12.492
69357W        W41782  21.233  16.211  12.874
69358W        W41783   1.044  41.212  10.311
69359W        W41784  23.618  35.014   3.297
69360W        W41785  28.470  41.165   0.995
69361W        W41786   9.711  34.133  14.046
69362W        W41787   2.499  31.078  13.051
69363W        W41788  44.074  10.357   0.011
69364W        W41789  15.689  24.754  12.041
69365W        W41790   6.927   3.313   3.365
69366W        W41791  39.396  15.159  14.515
69367W        W41792  24.547   0.102  13.414
69368W        W41793   8.977  30.438   5.033
69369W        W41794  25.250  35.445  12.403
69370W        W41795  15.790  16.108  12.101
69371W        W41796   6.376   7.505  14.912
69372W        W41797  22.654  35.334   4.543
69373W        W41798   1.854  20.683   0.308
69374W        W41799  10.107  22.729   3.911
69375W        W41800  11.327  29.788  14.297
69376W        W41801  12.105  18.761   1.701
69377W        W41802   3.476  17.550   3.417
69378W        W41803   5.310   3.906   1.926
69379W        W41804  16.422   7.197   0.896
69380W        W41805  25.116   5.189   1.866
69381W        W41806  31.103  39.440   5.559
69382W        W41807  26.495  35.481  11.965
69383W        W41808  39.542  22.317   4.488
69384W        W41809   0.470  20.473  12.619
69385W        W41810   3.479   8.669   3.028
69386W        W41811  21.320  19.318  14.879
69387W        W41812   1.153   9.516  12.158
69388W        W41813  29.377  17.466  13.366
69389W        W41814  11.172   5.264   1.938
69390W        W41815  13.192   7.565  14.344
69391W        W41816  10.832  21.044  14.337
69392W        W41817  36.927  41.758  14.384
69393W        W41818  26.507  23.259   0.548
69394W        W41819  40.202  35.371  14.031
69395W        W41820  20.079  15.570  11.969
69396W        W41821  39.363  13.611  14.846
69397W        W41822  32.607  44.337   3.532
69398W        W41823   5.870  40.519  14.320
69399W        W41824  44.768  30.653   2.577
69400W        W41825  29.388  41.411   1.940
69401W        W41826   8.437   2.392   0.877
69402W        W41827  23.416  34.594   4.275
69403W        W41828  21.986  26.634   3.142
69404W        W41829  27.548  44.014   2.799
69405W        W41830  23.111  42.499  10.754
69406W        W41831  38.417  10.585   4.240
69407W        W41832  20.701   6.144  13.291
69408W        W41833  14.920  38.104  13.040
69409W        W41834  23.199   6.485   0.885
69410W        W41835  34.628  10.174  11.016
69411W        W41836  43.506  24.729  13.381
69412W        W41837  11.155  41.637   0.265
69413W        W41838   4.906  31.784  11.997
69414W        W41839  33.583  28.440  14.917
69415W        W41840  32.565   8.152  10.304
69416W        W41841   4.003  11.238   3.322
69417W        W41842  19.807  24.186  14.837
69418W        W41843  28.009  41.321   0.843
69419W        W41844   6.351  40.090   3.059
69420W        W41845  24.984  35.161   0.944
69421W        W41846  11.841   8.589  12.981
69422W        W41847   3.714  10.148  14.934
69423W        W41848  31.121   3.317   4.922
69424W        W41849  27.912  11.070   2.135
69425W        W41850  36.844   3.437   0.465
69426W        W41851  24.970  40.777   1.459
69427W        W41852  17.670  43.363   4.078
69428W        W41853  11.765  40.238  12.127
69429W        W41854   7.982   8.730   4.256
69430W        W41855  44.567  34.999  12.266
69431W        W41856   2.016  42.010  12.772
69432W        W41857  16.534   7.734   0.927
69433W        W41858  35.507  18.141  12.330
69434W        W41859  10.009  29.234  10.700
69435W        W41860  24.962   8.148  12.550
69436W        W41861  34.322  39.077   3.101
69437W        W41862  11.848  26.684   2.376
69438W        W41863  35.051  10.871   0.389
69439W        W41864  20.768  14.861   1.706
69440W        W41865  14.168  16.736  13.823
69441W        W41866  20.424  21.063  13.586
69442W        W41867  36.440  19.596   4.976
69443W        W41868  41.056  28.067   4.089
69444W        W41869  33.029  23.997   2.705
69445W        W41870  11.627  17.091   1.720
69446W        W41871  12.257   7.413  13.659
69447W        W41872  21.808  14.028  11.552
69448W        W41873  17.161  29.907  12.714
69449W        W41874  39.100  11.707   1.717
69450W        W41875  10.981  24.632  10.314
69451W        W41876  13.813  12.403   0.665
69452W        W41877  34.712   7.335  10.148
69453W        W41878  36.892   1.505  10.631
69454W        W41879  16.725  13.274  11.462
69455W        W41880  38.089  13.502   0.546
69456W        W41881   6.088  32.398   1.258
69457W        W41882  39.778  39.099   3.673
69458W        W41883  27.678  12.752  14.296
69459W        W41884  17.746  14.991   1.895
69460W        W41885  23.956  14.233   1.892
69461W        W41886  23.179  10.782   4.062
69462W        W41887  44.416  16.702   2.238
69463W        W41888   0.026   1.324   4.702
69464W        W41889  17.024   2.985   0.298
69465W        W41890  21.215  27.109   0.265
69466W        W41891  11.121  24.227  13.599
69467W        W41892   4.775   9.370   0.396
69468W        W41893  43.033  24.035   2.750
69469W        W41894  26.666  40.267  10.481
69470W        W41895  21.146  33.019  14.525
69471W        W41896   5.914  12.698  12.830
69472W        W41897  15.489  17.840   0.854
69473W        W41898  30.746  29.064   5.222
69474W        W41899  25.665  14.250  14.518
69475W        W41900  43.868  13.915   2.903
69476W        W41901  29.962   4.794   2.394
69477W        W41902  38.991  22.395   5.408
69478W        W41903  13.646  40.245  10.586
69479W        W41904  43.869  23.390   1.267
69480W        W41905  13.305   5.752   4.109
69481W        W41906  31.095  18.621  12.950
69482W        W41907   8.544  29.568   2.518
69483W        W41908  13.072  42.740  12.188
69484W        W41909  25.453  41.961  12.453
69485W        W41910  41.038   3.168  12.005
69486W        W41911  34.958  16.744   0.791
69487W        W41912   7.410   7.916   2.175
69488W        W41913  17.728  36.045   1.619
69489W        W41914  40.532  30.689  13.837
69490W        W41915  30.151  19.082  12.562
69491W        W41916  43.783  22.191  12.692
69492W        W41917  42.861  31.517  14.292
69493W        W41918  44.376  44.787  14.849
69494W        W41919  28.023  19.005   4.318
69495W        W41920  23.505  32.498  13.294
69496W        W41921  41.786  15.728   4.055
69497W        W41922  34.169  40.906   3.243
69498W        W41923   6.407   2.461   2.367
69499W        W41924  44.999  30.609   5.040
69500W        W41925  40.948  42.105  13.351
69501W        W41926  34.529  18.315  12.055
69502W        W41927  11.022  14.128   2.952
69503W        W41928   1.267  20.484  13.913
69504W        W41929   1.947   9.123  13.017
69505W        W41930  40.533  24.698   1.869
69506W        W41931   4.962  30.459   1.860
69507W        W41932  23.999  27.693   2.296
69508W        W41933  31.213  21.224  12.128
69509W        W41934   4.324  11.739   2.301
69510W        W41935  25.074  10.598   1.283
69511W        W41936   0.152  34.575   3.024
69512W        W41937  32.039  10.159   3.461
69513W        W41938  40.317  16.043  10.996
69514W        W41939  36.952  25.094   1.297
69515W        W41940  18.295  35.946  14.109
69516W        W41941  13.149  10.968  10.666
69517W        W41942  13.569  31.063  12.114
69518W        W41943  17.638  36.610   1.719
69519W        W41944   9.167  39.397   1.162
69520W        W41945  33.027  43.396  10.656
69521W        W41946  43.228  21.646  10.687
69522W        W41947  41.793   6.984  11.616
69523W        W41948  25.222  28.184  10.715
69524W        W41949  10.880  23.151  10.933
69525W        W41950  10.791  13.065   0.389
69526W        W41951  29.970   2.055   4.844
69527W        W41952  39.001  28.046  13.847
69528W        W41953   8.633  13.086   0.166
69529W        W41954   6.160  38.929   0.214
69530W        W41955  42.398  19.083   1.057
69531W        W41956   1.747  44.945   4.701
69532W        W41957  17.827  19.797  12.480
69533W        W41958  15.337   9.431  12.273
69534W        W41959  28.923  13.058  14.340
69535W        W41960  43.390  15.302   3.694
69536W        W41961  37.582  22.795   4.129
69537W        W41962  17.612  28.876  14.323
69538W        W41963  13.628  28.608  13.556
69539W        W41964   0.030  44.701   3.623
69540W        W41965  22.532  16.361   3.816
69541W        W41966  16.701  11.882  10.335
69542W        W41967  14.732  35.453   4.191
69543W        W41968  37.082  33.460  11.834
69544W        W41969   8.398  41.082  13.928
69545W        W41970  20.561  17.223  12.634
69546W        W41971  27.762  32.392   4.828
69547W        W41972   5.929  32.340  13.287
69548W        W41973  20.098   4.652   3.794
69549W        W41974  40.534   5.165  12.540
69550W        W41975  19.123  14.440  14.893
69551W        W41976  37.716   8.926   4.658
69552W        W41977  35.187   0.388  10.675
69553W        W41978  36.871  42.950  14.565
69554W        W41979  16.500  27.047   2.225
69555W        W41980   3.877  24.487  14.966
69556W        W41981  36.676  38.535  12.381
69557W        W41982  41.805  34.969  10.637
69558W        W41983   3.980   9.855   0.266
69559W        W41984  22.716  21.556   0.204
69560W        W41985  35.521  18.118   0.814
69561W        W41986  44.335   5.214  13.890
69562W        W41987  35.490  19.031  11.851
69563W        W41988  42.255  44.445   3.296
69564W        W41989  17.178  34.031  12.531
69565W        W41990  24.320  36.656   3.344
69566W        W41991  25.008  43.233  12.061
69567W        W41992  27.218  24.062   0.015
69568W        W41993   1.130   3.684   0.780
69569W        W41994   4.108  44.730  13.482
69570W        W41995  36.529  43.351  12.071
69571W        W41996  27.193  25.859   0.830
69572W        W41997  29.810   9.374  10.783
69573W        W41998  26.107  32.731  11.968
69574W        W41999  31.482  21.964  14.857
69575W        W42000  42.839  31.017   1.373
69576W        W42001   2.441  10.672   3.208
69577W        W42002  11.857  34.772  13.283
69578W        W42003  29.683  26.222   1.314
69579W        W42004  41.299   3.330   3.447
69580W        W42005  23.965  22.215  10.111
69581W        W42006  13.425  12.607   4.060
69582W        W42007  25.573  39.036  13.788
69583W        W42008  17.576   5.171  12.917
69584W        W42009  26.687   4.627   2.266
69585W        W42010  31.614   6.373   3.332
69586W        W42011  40.760  23.681  14.071
69587W        W42012  13.562  27.493   4.393
69588W        W42013  42.267  42.114  14.848
69589W        W42014   4.363  15.161  13.114
69590W        W42015  34.495   7.244  13.965
69591W        W42016  24.134  37.843  13.798
69592W        W42017   4.829  13.535   3.931
69593W        W42018  32.091  16.070  10.982
69594W        W42019  13.766  40.177   1.817
69595W        W42020   5.807   4.888  14.437
69596W        W42021  23.293  20.996  14.433
69597W        W42022   1.662  23.756  11.606
69598W        W42023  21.061  38.178   4.228
69599W        W42024  33.094  29.471   0.271
69600W        W42025  30.889   6.174  14.465
69601W        W42026  43.755  38.791  11.933
69602W        W42027   3.204  42.890  14.907
69603W        W42028  16.742   3.294  13.078
69604W        W42029  22.193  14.452  13.369
69605W        W42030  39.660  31.664   2.044
69606W        W42031  34.590   9.838  13.472
69607W        W42032  37.509   7.830  10.902
69608W        W42033  16.485  32.840   1.464
69609W        W42034   8.617  33.485   0.832
69610W        W42035  10.275  32.648  12.988
69611W        W42036  32.392   7.531   4.392
69612W        W42037   2.499   2.344   3.757
69613W        W42038  25.655  16.109   0.813
69614W        W42039  14.414   0.201   2.263
69615W        W42040  37.771  13.973  13.398
69616W        W42041  33.845  44.700   1.338
69617W        W42042  27.222  22.227  11.839
69618W        W42043   1.878  35.832  12.929
69619W        W42044   2.966  22.370   2.840
69620W        W42045  31.583  32.519   1.848
69621W        W42046  20.163  26.554  13.483
69622W        W42047   6.078   4.671   4.734
69623W        W42048  20.031  15.768  13.435
69624W        W42049  44.056  20.735   3.412
69625W        W42050  21.438  30.993   0.352
69626W        W42051  39.306  19.193   4.331
69627W        W42052  15.639  19.275  12.965
69628W        W42053  18.303  38.900   4.613
69629W        W42054  15.040   4.632   4.033
69630W        W42055  42.609  43.983   1.808
69631W        W42056  24.460  16.533   3.274
69632W        W42057   0.846  12.760   1.668
69633W        W42058  26.924  29.716  10.400
69634W        W42059  12.093   1.677  10.894
69635W        W42060   8.266  39.430   4.104
69636W        W42061  39.177   0.841   1.741
69637W        W42062  14.284  25.040   4.961
69638W        W42063  40.309  40.982   1.961
69639W        W42064   1.609  42.233  12.530
69640W        W42065  11.535  26.525  12.777
69641W        W42066  18.029  33.965   0.018
69642W        W42067  38.906  30.366   4.095
69643W        W42068  30.173  30.508   0.845
69644W        W42069   2.685  37.845  12.472
69645W        W42070  36.856   6.865   0.668
69646W        W42071  40.732  16.332   0.255
69647W        W42072  13.058  37.109   2.227
69648W        W42073  17.994  33.469  11.935
69649W        W42074  40.243  25.715   4.315
69650W        W42075  18.624  36.632  10.646
69651W        W42076  36.985  28.656   2.704
69652W        W42077  15.698  30.165   4.327
69653W        W42078  27.579   5.185  11.497
69654W        W42079  39.944  44.934  11.861
69655W        W42080  14.278   7.989  11.981
69656W        W42081   4.595  28.562   2.646
69657W        W42082  20.609  26.644   2.304
69658W        W42083  29.372   6.817  11.558
69659W        W42084   1.443  41.276  14.735
69660W        W42085  34.757  43.444   2.194
69661W        W42086  41.921   5.715  11.264
69662W        W42087  38.483  37.502  14.525
69663W        W42088  39.984  43.095  11.635
69664W        W42089  38.492   7.602  12.944
69665W        W42090   8.638  40.105   0.621
69666W        W42091  15.705   4.463  14.120
69667W        W42092  15.231  21.147   0.650
69668W        W42093  34.055  44.433  14.761
69669W        W42094  40.002  21.248   5.420
69670W        W42095  35.344  42.514  13.031
69671W        W42096  25.902  41.826  12.695
69672W        W42097  20.907  34.497  13.141
69673W        W42098  42.717  43.956   4.514
69674W        W42099  30.397   3.357  12.577
69675W        W42100  15.649   7.830  14.032
69676W        W42101  17.535  15.369  12.858
69677W        W42102  21.110  23.524  11.471
69678W        W42103  17.798  13.740   0.726
69679W        W42104  37.077  36.061   2.371
69680W        W42105  36.952   6.214   3.270
69681W        W42106   6.858  40.030   3.551
69682W        W42107  37.448   7.133   5.173
69683W        W42108  44.271  11.990  13.013
69684W        W42109  18.850   6.600   2.261
69685W        W42110  39.129   8.683  10.720
69686W        W42111  36.823  17.165   3.606
69687W        W42112  39.291  35.016  11.965
69688W        W42113  11.728  34.413   3.070
69689W        W42114  16.760   7.515   1.380
69690W        W42115  42.790   0.147   2.316
69691W        W42116  20.219  12.559   4.754
69692W        W42117  13.814  42.969  10.760
69693W        W42118  36.167  23.006   1.748
69694W        W42119  30.499   7.465   2.317
69695W        W42120  27.024  19.300   1.206
69696W        W42121   3.912   3.797   2.430
69697W        W42122   4.266  35.409   1.733
69698W        W42123   3.903  25.032  11.601
69699W        W42124   0.919  15.424  12.394
69700W        W42125  21.186  36.138  13.310
69701W        W42126  35.819  35.819  13.372
69702W        W42127  17.377  18.380   4.145
69703W        W42128  34.667  27.831  11.530
69704W        W42129  24.051  38.437   2.339
69705W        W42130  13.823  41.435   3.744
69706W        W42131  16.032  32.025   1.153
69707W        W42132  30.493  35.618  11.581
69708W        W42133  26.154  18.548  13.950
69709W        W42134   4.339   2.271  12.492
69710W        W42135  33.277  17.626   0.404
69711W        W42136  22.737  42.934   3.609
69712W        W42137  27.902  10.480  11.559
69713W        W42138  18.579   3.491   3.152
69714W        W42139   4.034  36.294  13.636
69715W        W42140   4.823   7.768   1.965
69716W        W42141  35.609  33.007  10.655
69717W        W42142  33.592  11.566   4.640
69718W        W42143  10.791   2.105   0.003
69719W        W42144  40.319  14.933   1.943
69720W        W42145  38.971  14.844   0.926
69721W        W42146  19.867   5.346  13.823
69722W        W42147  37.310  42.943   3.678
69723W        W42148   0.830  34.113  13.396
69724W        W42149  22.748   0.411   4.448
69725W        W42150  17.652  26.954  11.593
69726W        W42151  18.663  18.204  11.998
69727W        W42152  18.530  13.977  12.578
69728W        W42153   2.479  20.108  14.241
69729W        W42154  33.476  11.815  13.267
69730W        W42155   8.866  28.220  14.388
69731W        W42156   7.005  18.204   2.324
69732W        W42157  13.214  22.764  14.998
69733W        W42158  16.850  22.876   0.552
69734W        W42159   2.757  33.329   3.745
69735W        W42160  16.327  27.549   2.296
69736W        W42161  18.737  38.789   3.733
69737W        W42162  38.753  13.272  14.299
69738W        W42163  30.031  40.479  11.523
69739W        W42164  33.915  10.630  14.978
69740W        W42165  37.828  36.358   4.196
69741W        W42166  44.780  27.159   3.705
69742W        W42167   4.635  29.026   1.911
69743W        W42168  37.062   5.319  14.780
69744W        W42169   6.725   2.585  12.618
69745W        W42170  35.003  16.509   1.274
69746W        W42171   0.134   8.766  10.770
69747W        W42172  18.304  10.182   0.459
69748W        W42173  38.909  40.249   2.525
69749W        W42174   7.686   1.745   5.205
69750W        W42175   3.611   0.507  14.750
69751W        W42176  28.644   5.694   2.849
69752W        W42177  26.490  40.016  14.893
69753W        W42178  15.457  11.447  11.194
69754W        W42179  25.108  20.725   2.778
69755W        W42180  31.716  22.277   1.006
69756W        W42181  31.506  28.907   3.751
69757W        W42182  17.343   7.346   2.284
69758W        W42183  12.319  28.094  14.000
69759W        W42184   6.796  33.373  12.537
69760W        W42185  32.453  33.072  12.511
69761W        W42186  41.797   4.881  10.335
69762W        W42187  27.153  41.489  12.103
69763W        W42188  21.527  11.502   3.844
69764W        W42189   5.945  28.002  13.000
69765W        W42190  25.980  31.148   1.714
69766W        W42191   8.388   5.437   3.262
69767W        W42192  41.973  18.212  13.891
69768W        W42193  10.135  38.166  14.416
69769W        W42194  38.376  34.855  13.548
69770W        W42195  16.778   8.611  13.519
69771W        W42196   0.252  27.059  14.750
69772W        W42197  13.770  41.834   4.796
69773W        W42198  17.005  22.173  13.736
69774W        W42199  17.669  28.067  11.648
69775W        W42200  26.469  36.603  13.387
69776W        W42201   0.342  36.892  14.870
69777W        W42202  33.930  21.939  14.017
69778W        W42203  30.159  13.204   3.959
69779W        W42204  22.740  15.802   5.099
69780W        W42205  41.234  34.857   3.286
69781W        W42206  18.045  15.710   3.354
69782W        W42207  32.527  39.587   0.265
69783W        W42208  33.473  13.319  10.047
69784W        W42209  25.258  20.026   1.821
69785W        W42210  19.222  17.859  14.282
69786W        W42211  36.093  18.125  10.720
69787W        W42212  30.347  19.310   4.090
69788W        W42213  23.596  31.428  13.543
69789W        W42214  39.901  27.653   2.622
69790W        W42215  33.985  15.673  11.037
69791W        W42216  18.554   4.405   1.884
69792W        W42217  36.289  20.006  12.046
69793W        W42218   4.479  23.468  13.328
69794W        W42219  28.522  43.113  14.553
69795W        W42220  41.417  33.853   3.333
69796W        W42221  21.139  15.127   3.758
69797W        W42222  31.665   9.066  10.701
69798W        W42223  11.611  38.475  11.176
69799W        W42224   0.794   1.891   0.519
69800W        W42225  40.476  27.020  10.822
69801W        W42226  28.213   8.502  14.779
69802W        W42227  11.143  11.072  11.480
69803W        W42228  36.413  19.041   2.509
69804W        W42229  34.158  25.592   1.841
69805W        W42230  42.307  38.140  10.727
69806W        W42231  22.422  43.913   4.138
69807W        W42232  44.017  14.779  12.044
69808W        W42233   6.940  43.984   1.145
69809W        W42234   7.570  44.507  11.539
69810W        W42235  21.318  43.908  11.952
69811W        W42236  44.838   8.757  13.832
69812W        W42237  41.750  41.753   2.797
69813W        W42238  22.740  26.440  12.514
69814W        W42239   7.379  15.041  14.676
69815W        W42240  29.019  15.224   0.923
69816W        W42241  29.660  18.711   1.689
69817W        W42242  21.789  33.977   0.242
69818W        W42243  41.563  35.084   5.079
69819W        W42244   1.826  35.827   0.745
69820W        W42245  30.676  21.695   0.084
69821W        W42246  12.575  41.765  13.746
69822W        W42247   1.379   9.940  11.999
69823W        W42248  36.817  23.154  13.861
69824W        W42249  36.167   6.619   4.933
69825W        W42250  41.760  21.529   2.206
69826W        W42251  27.760  13.075  11.195
69827W        W42252  21.705   0.955   1.939
69828W        W42253  31.634  10.654   2.816
69829W        W42254  32.023  25.744  11.092
69830W        W42255  39.965  12.701   1.744
69831W        W42256  12.796   7.131   4.865
69832W        W42257  13.124  31.039  12.586
69833W        W42258  22.643  25.694   2.306
69834W        W42259  21.081   0.296  10.763
69835W        W42260   6.206  44.620   2.265
69836W        W42261  31.578  36.498  11.650
69837W        W42262   2.686  12.075  11.133
69838W        W42263  23.816  24.047   4.197
69839W        W42264  41.611  16.828  14.637
69840W        W42265   8.304  24.738  11.424
69841W        W42266  12.429  37.069  12.185
69842W        W42267  22.978   0.711   4.782
69843W        W42268  19.299  24.688  14.023
69844W        W42269  20.646  26.125   0.726
69845W        W42270  27.722  13.170   1.268
69846W        W42271   0.476  42.463  10.594
69847W        W42272   4.137  22.754  14.002
69848W        W42273  33.210  11.773   0.401
69849W        W42274  12.626  41.498  13.027
69850W        W42275  15.555  26.465  11.080
69851W        W42276   5.331  16.147   3.616
69852W        W42277  34.424   0.337   0.054
69853W        W42278  39.045  39.330   1.706
69854W        W42279  26.020  10.171  13.436
69855W        W42280  14.740   6.857   4.484
69856W        W42281  36.122  40.624   3.244
69857W        W42282  29.014  35.552  12.587
69858W        W42283  22.295  26.169   0.356
69859W        W42284  19.272  29.152  13.523
69860W        W42285  34.040   1.847   4.187
69861W        W42286  40.604  25.720   3.944
69862W        W42287  24.609   0.076   3.259
69863W        W42288  19.586   1.759   1.054
69864W        W42289  22.526  44.907   0.477
69865W        W42290  31.013  37.371  12.578
69866W        W42291   8.369  17.002   3.420
69867W        W42292  42.707  37.881  13.230
69868W        W42293  21.815  26.662  10.088
69869W        W42294  44.921  15.993   0.911
69870W        W42295  18.771  42.467  13.442
69871W        W42296  35.493  33.957   0.255
69872W        W42297  40.760  38.804  11.154
69873W        W42298   6.938  24.221   3.686
69874W        W42299  41.968  25.100   1.422
69875W        W42300  43.058  10.110   9.839
69876W        W42301   8.459  34.133   3.108
69877W        W42302  11.267  25.156   1.262
69878W        W42303  28.099  14.885  13.068
69879W        W42304  27.144  43.765  11.371
69880W        W42305  43.568   5.058   0.509
69881W        W42306  31.488  40.900  10.668
69882W        W42307  42.013   1.729  11.124
69883W        W42308  21.278  30.140  12.521
69884W        W42309  44.037  21.610  11.158
69885W        W42310  41.374  13.441   1.681
69886W        W42311  29.841  37.644  12.104
69887W        W42312  32.484  44.022   2.253
69888W        W42313   5.910   1.180   4.289
69889W        W42314  36.971  17.551   1.058
69890W        W42315  28.820   4.697  11.683
69891W        W42316  41.519  42.920  11.413
69892W        W42317  29.350  23.652   3.400
69893W        W42318  13.719  42.229   0.752
69894W        W42319  15.762  27.736   0.841
69895W        W42320  31.171   1.410  11.568
69896W        W42321  33.209  12.226  13.902
69897W        W42322  20.789   0.254   1.178
69898W        W42323   0.615  38.809   2.645
69899W        W42324  34.920  31.093   3.255
69900W        W42325  14.554  42.977   1.482
69901W        W42326  32.493  30.477   0.921
69902W        W42327   5.284  33.430   2.752
69903W        W42328  31.658   4.460  10.806
69904W        W42329   7.650   2.757   1.808
69905W        W42330  21.529  38.625  14.413
69906W        W42331  33.354   7.726  11.187
69907W        W42332  18.282  24.242   2.454
69908W        W42333   2.336  44.018  10.717
69909W        W42334  30.047  27.233   1.038
69910W        W42335  32.902   0.245   2.222
69911W        W42336  19.921  14.565   1.448
69912W        W42337  22.182  18.518  10.690
69913W        W42338  30.529   2.280  11.506
69914W        W42339  24.554  37.700  10.688
69915W        W42340   6.885  14.402   3.663
69916W        W42341  40.810  43.681   4.056
69917W        W42342  22.523  29.155  10.747
69918W        W42343   4.103   9.376  11.296
69919W        W42344  23.649  25.232  13.348
69920W        W42345  32.503   0.905  13.632
69921W        W42346  43.431  12.214   2.339
69922W        W42347   9.767  11.701   2.322
69923W        W42348  23.832  22.828   2.673
69924W        W42349  42.946  33.772   3.182
69925W        W42350  10.140  21.588   0.371
69926W        W42351  32.023   3.456  11.222
69927W        W42352  19.276  19.392  12.348
69928W        W42353  11.379  17.263   0.340
69929W        W42354   2.256  42.799  10.306
69930W        W42355  30.169  38.961  13.902
69931W        W42356  32.350   0.958   3.223
69932W        W42357  19.343  43.759   2.100
69933W        W42358  35.100  23.826   2.183
69934W        W42359  19.087  28.634  11.522
69935W        W42360  14.109  20.192  13.450
69936W        W42361   2.896  39.011  13.050
69937W        W42362  11.278  13.360   4.901
69938W        W42363   7.677  16.250   3.228
69939W        W42364  17.177  10.183   5.031
69940W        W42365  19.540  21.080  14.249
69941W        W42366  29.719  38.623   5.348
69942W        W42367  27.254  22.520   1.516
69943W        W42368  42.865  18.045  12.341
69944W        W42369  16.665   0.733  11.722
69945W        W42370   9.231   9.303   3.687
69946W        W42371  14.379  41.470  14.798
69947W        W42372  42.191   1.525   3.357
69948W        W42373  14.814   5.870   4.305
69949W        W42374  43.847  29.007  10.658
69950W        W42375  33.907  39.097  10.138
69951W        W42376  29.559  39.988   4.566
69952W        W42377   2.399   1.376   2.783
69953W        W42378   4.696  35.146   4.137
69954W        W42379  14.712   2.541  11.037
69955W        W42380  21.704  44.060  10.582
69956W        W42381  33.376   1.506  11.038
69957W        W42382  30.096  34.394  13.776
69958W        W42383   3.414  36.518   4.865
69959W        W42384   9.373  18.555   2.350
69960W        W42385  40.812  37.868   3.230
69961W        W42386  17.344  35.580   3.835
69962W        W42387  16.655  32.874  11.181
69963W        W42388   7.490  13.314  13.416
69964W        W42389  36.640   6.340   0.756
69965W        W42390  18.174  41.341   0.394
69966W        W42391  40.787   2.873   2.322
69967W        W42392  14.562  11.301  12.876
69968W        W42393  18.135  23.092   3.577
69969W        W42394  11.049  44.877  14.797
69970W        W42395  22.787  34.606   9.997
69971W        W42396  13.291  36.366  13.253
69972W        W42397  37.013  22.030   3.172
69973W        W42398  24.304  36.633  11.177
69974W        W42399  41.916  41.017  13.944
69975W        W42400   5.393  16.711  10.396
69976W        W42401  30.529   1.538   0.281
69977W        W42402  21.171  40.379  14.802
69978W        W42403  39.354  43.063   4.050
69979W        W42404  38.949  44.553   4.490
69980W        W42405   8.590   5.939   1.874
69981W        W42406   1.493  38.801  10.989
69982W        W42407  32.477  34.125  13.414
69983W        W42408  30.381  28.595  12.377
69984W        W42409  25.242  36.566   1.864
69985W        W42410   3.808  39.805  11.485
69986W        W42411  40.831   4.716  11.381
69987W        W42412  34.736  21.715   0.492
69988W        W42413  29.047  13.566  14.272
69989W        W42414  36.546   3.998  14.824
69990W        W42415  24.603  23.347   0.306
69991W        W42416  10.219   1.868  13.593
69992W        W42417  34.005   1.567  13.977
69993W        W42418  32.655   3.005   3.659
69994W        W42419  20.165  44.814   2.672
69995W        W42420  40.041  18.526   0.934
69996W        W42421   8.654  27.915   0.174
69997W        W42422  41.333  11.001   0.707
69998W        W42423   0.803   6.901   0.231
69999W        W42424  25.256  23.746   4.992
70000W        W42425  26.600  19.779  14.983
70001W        W42426  33.600  33.625   0.116
70002W        W42427  38.854   7.618   3.727
70003W        W42428   6.847  13.401  11.156
70004W        W42429  15.518  25.641  14.328
70005W        W42430   7.269  35.403   0.401
70006W        W42431  42.186  39.815   0.391
70007W        W42432   8.925  38.140  14.008
70008W        W42433  36.020  12.792   1.062
70009W        W42434  33.017  34.427  12.594
70010W        W42435  19.941  14.093   3.606
70011W        W42436   4.966  26.414  14.586
70012W        W42437  43.815  33.921   1.295
70013W        W42438  15.844  24.008  13.367
70014W        W42439   8.256  24.577  12.379
70015W        W42440   4.448  41.971   2.331
70016W        W42441  19.635  11.652   0.727
70017W        W42442  33.453  39.872   3.759
70018W        W42443  20.442   3.207   3.746
70019W        W42444  24.154  18.891  11.365
70020W        W42445   1.900  10.142  12.830
70021W        W42446  39.016  32.692   2.339
70022W        W42447  36.162  32.505   1.460
70023W        W42448   0.318  15.269   1.193
70024W        W42449  25.173  11.781   3.074
70025W        W42450  20.645  29.341   0.279
70026W        W42451   1.256   0.889  12.011
70027W        W42452  18.690   7.351  10.782
70028W        W42453  38.472  27.394   1.719
70029W        W42454   6.277  16.145  13.802
70030W        W42455  25.105  13.248  13.950
70031W        W42456  16.072  34.072  12.552
70032W        W42457  38.915  40.334  10.721
70033W        W42458   3.163  39.518   0.726
70034W        W42459   3.660  17.531   2.902
70035W        W42460  33.650  37.544   2.680
70036W        W42461  38.050   6.959   4.618
70037W        W42462  42.650  10.231  12.833
70038W        W42463  40.543  29.519   1.000
70039W        W42464  32.605  44.777   3.784
70040W        W42465  17.384   5.836  11.513
70041W        W42466  34.978  42.085   1.696
70042W        W42467  13.615  16.070  10.186
70043W        W42468  12.862  36.333  12.499
70044W        W42469  29.408  24.843  11.123
70045W        W42470  20.043  20.737  12.454
70046W        W42471  30.731   5.002   1.328
70047W        W42472  43.888  22.456   2.389
70048W        W42473  13.700  44.091   4.452
70049W        W42474   1.563  43.928   3.069
70050W        W42475   8.383   0.094   0.424
70051W        W42476  38.000  34.355  10.356
70052W        W42477   6.526  38.506  12.113
70053W        W42478  18.782  16.616   4.265
70054W        W42479  25.631  10.265   0.935
70055W        W42480  40.265   1.596   0.002
70056W        W42481  21.797  31.329  14.044
70057W        W42482  44.865  27.183  12.137
70058W        W42483  27.627  20.538   1.502
70059W        W42484   1.238  32.871   4.598
70060W        W42485  35.123  17.227  13.930
70061W        W42486  30.489  23.468  13.929
70062W        W42487  26.353  27.188  14.186
70063W        W42488  44.847  28.172   3.644
70064W        W42489   1.161  15.633  10.651
70065W        W42490  13.366  15.588  11.966
70066W        W42491  39.803  36.970   2.320
70067W        W42492  10.596  17.871   2.136
70068W        W42493  25.714  31.553  12.696
70069W        W42494   8.290  12.018  13.327
70070W        W42495  14.728  26.068  11.630
70071W        W42496  38.458  38.614  12.542
70072W        W42497  21.561  22.698   4.777
70073W        W42498  16.288  41.438  12.537
70074W        W42499  42.838  24.759   3.133
70075W        W42500   4.972  34.610   0.782
70076W        W42501  30.417  13.718  10.609
70077W        W42502  40.644  10.046   4.979
70078W        W42503  31.428   3.139   2.423
70079W        W42504  25.576  23.157   2.602
70080W        W42505  41.823  17.560  11.455
70081W        W42506  35.955   2.994   1.761
70082W        W42507  25.143   1.850  13.358
70083W        W42508  28.508  17.939   2.878
70084W        W42509  23.782  36.279  11.955
70085W        W42510  11.631  16.085  12.366
70086W        W42511  39.413  12.907   1.127
70087W        W42512  12.705  30.150  13.814
70088W        W42513  38.489   1.768   3.615
70089W        W42514   2.652  38.040   4.691
70090W        W42515  19.839   5.348  13.275
70091W        W42516   5.925  34.758   4.194
70092W        W42517   7.227  20.675   0.889
70093W        W42518   9.725  42.414   0.749
70094W        W42519   4.945   7.791  12.641
70095W        W42520  14.854  43.063  11.622
70096W        W42521  36.454  31.491   1.403
70097W        W42522  30.042  16.570  10.577
70098W        W42523  40.158  27.444   1.285
70099W        W42524  37.950  14.367   1.670
70100W        W42525  33.115  37.544   2.318
70101W        W42526  24.507  11.292  13.431
70102W        W42527  29.505  38.435   1.276
70103W        W42528  18.743  17.054   2.832
70104W        W42529   4.709   3.528   4.301
70105W        W42530   1.804  17.674   4.219
70106W        W42531  15.201  19.813  14.743
70107W        W42532  32.474  29.637   4.714
70108W        W42533  35.172  17.558  14.785
70109W        W42534  36.319  18.683   2.160
70110W        W42535  22.485  23.892   1.684
70111W        W42536   0.144   8.401   0.817
70112W        W42537  33.527  26.746   4.299
70113W        W42538   0.639  29.248  11.669
70114W        W42539  44.021  15.690  11.891
70115W        W42540  37.861  25.836  10.629
70116W        W42541  17.340  27.155   3.675
70117W        W42542  21.588  37.533  10.575
70118W        W42543  34.215   0.014   1.508
70119W        W42544  24.098   2.165  12.481
70120W        W42545  33.981  34.427   1.255
70121W        W42546  16.625  20.269   3.312
70122W        W42547  31.495  21.117  10.262
70123W        W42548  19.121   9.328  14.441
70124W        W42549   3.192  31.546  11.538
70125W        W42550  16.611  10.927  10.661
70126W        W42551  19.118  18.516  13.829
70127W        W42552   2.005  41.968  12.257
70128W        W42553   6.287  36.565   3.381
70129W        W42554  12.235  24.455   0.797
70130W        W42555  15.131   3.414   4.961
70131W        W42556  34.275  25.621   2.355
70132W        W42557  27.486  42.338   3.157
70133W        W42558  25.601  11.783   2.744
70134W        W42559  32.433   8.931   4.060
70135W        W42560  32.586  14.688  10.613
70136W        W42561  30.202   7.793   0.381
70137W        W42562  18.338  41.306   2.631
70138W        W42563  15.294  28.915   3.737
70139W        W42564   7.529  30.170  12.421
70140W        W42565  14.070  21.171   2.763
70141W        W42566  38.534   9.113   3.891
70142W        W42567  27.125   3.868  14.037
70143W        W42568  38.748  17.839   3.704
70144W        W42569  41.828  12.875  12.900
70145W        W42570  25.291  39.410   4.294
70146W        W42571  15.282  32.958   2.652
70147W        W42572  27.998  36.576  13.354
70148W        W42573  38.500  24.131   1.294
70149W        W42574  11.662   7.630  11.091
70150W        W42575  10.773   6.139  10.546
70151W        W42576   5.848  10.429  10.586
70152W        W42577  22.803  22.067  12.622
70153W        W42578   8.511  35.866  11.726
70154W        W42579  41.426  10.384  13.305
70155W        W42580  22.678  44.888  13.926
70156W        W42581  39.990   0.971  14.691
70157W        W42582  14.302  37.115  12.369
70158W        W42583  33.386  22.001   4.235
70159W        W42584  42.510  22.273  10.056
70160W        W42585  29.586  39.293  13.297
70161W        W42586   0.045  34.677  12.234
70162W        W42587  43.811  34.801  12.551
70163W        W42588  21.623   7.983  10.768
70164W        W42589  37.549  41.982  12.507
70165W        W42590  26.105   1.875   4.612
70166W        W42591   2.680  39.756   1.274
70167W        W42592  13.368  40.441  12.626
70168W        W42593  32.063  21.712  13.612
70169W        W42594   2.654   3.883  10.546
70170W        W42595   0.213  22.095   1.345
70171W        W42596  15.049  33.695   1.438
70172W        W42597  13.748   7.983  11.980
70173W        W42598  41.107  33.852  12.275
70174W        W42599  34.519  30.959  12.508
70175W        W42600  25.226  13.717  12.993
70176W        W42601  21.651   8.420  12.886
70177W        W42602  41.874  21.323   4.629
70178W        W42603  25.218  36.030   1.856
70179W        W42604  39.040  29.658  11.805
70180W        W42605  20.993  19.040  12.524
70181W        W42606  16.691  10.710   1.472
70182W        W42607  37.365  36.738   2.881
70183W        W42608  17.210  17.685   0.281
70184W        W42609   4.459  36.814   3.308
70185W        W42610  36.594  34.982   0.251
70186W        W42611  18.547   9.257   0.256
70187W        W42612  26.766  41.212   5.122
70188W        W42613  37.931   1.374   2.357
70189W        W42614  15.306  33.008  10.175
70190W        W42615   5.724  37.041   0.409
70191W        W42616  11.138  22.086   5.132
70192W        W42617  37.965   2.284  10.703
70193W        W42618  20.281  34.951  11.558
70194W        W42619  44.543  14.216   0.665
70195W        W42620  35.620  14.084  13.010
70196W        W42621  14.444  42.782   5.046
70197W        W42622  26.027  40.839   0.745
70198W        W42623   8.696  32.094  12.051
70199W        W42624   9.873   3.626   1.573
70200W        W42625  13.110  11.584   1.807
70201W        W42626  39.426  11.862   1.218
70202W        W42627  26.172  34.413   1.019
70203W        W42628   4.841  23.177   4.628
70204W        W42629  22.691  11.663  14.933
70205W        W42630  18.296  17.163  10.909
70206W        W42631  23.898  41.851   4.036
70207W        W42632  41.503  17.643   0.092
70208W        W42633   2.541  33.377   0.735
70209W        W42634  27.717  14.092   4.762
70210W        W42635   2.286  26.935   4.800
70211W        W42636  36.989  26.475  11.630
70212W        W42637  17.117  16.715   3.897
70213W        W42638  29.541   1.818   0.281
70214W        W42639  32.676  42.001  11.161
70215W        W42640  11.816  25.559  12.323
70216W        W42641   7.415  32.429   1.779
70217W        W42642   1.928  20.758   3.151
70218W        W42643  31.672   3.853  13.386
70219W        W42644   7.934   7.488  13.493
70220W        W42645   1.006   2.358  10.670
70221W        W42646  25.196  20.463   3.203
70222W        W42647   1.474  40.951  11.551
70223W        W42648  31.009  44.773  12.925
70224W        W42649  14.958   7.800   2.320
70225W        W42650  22.202  30.728   2.321
70226W        W42651   3.669  40.464  13.863
70227W        W42652  19.584  25.415   1.347
70228W        W42653  44.856  24.018   0.377
70229W        W42654  19.841  22.199  12.578
70230W        W42655  11.713  16.195  11.488
70231W        W42656   9.121  33.173   4.585
70232W        W42657  26.581  18.320   2.244
70233W        W42658  33.907  41.587  14.360
70234W        W42659  16.714   3.706   4.886
70235W        W42660  15.713  16.873  11.420
70236W        W42661   3.373  10.119  11.672
70237W        W42662  26.282  25.065   2.694
70238W        W42663  31.039  34.523  10.959
70239W        W42664  16.673  21.683   1.756
70240W        W42665   6.873   7.604  11.801
70241W        W42666  17.949  21.134   1.189
70242W        W42667   3.941  19.400  12.691
70243W        W42668  23.735  31.600   0.853
70244W        W42669  28.660  21.398  12.656
70245W        W42670  30.410  29.883  12.966
70246W        W42671  26.950  34.974   4.264
70247W        W42672  41.222  40.259   1.706
70248W        W42673   4.738  30.605  13.773
70249W        W42674  21.575  41.283   4.145
70250W        W42675  38.562  33.423  10.650
70251W        W42676  41.331  20.112   1.246
70252W        W42677  34.069  38.355  13.907
70253W        W42678   2.434  22.685  14.802
70254W        W42679  14.538  12.124  11.703
70255W        W42680  13.466  25.987   1.798
70256W        W42681  39.860  38.661  11.002
70257W        W42682  16.053  38.530  10.471
70258W        W42683   1.675  17.232   3.282
70259W        W42684   8.570  20.181  12.152
70260W        W42685  17.754   3.974   4.107
70261W        W42686  31.133  42.142  13.977
70262W        W42687  17.883  36.901  11.570
70263W        W42688   2.565  30.111  14.045
70264W        W42689   9.909  28.017  13.569
70265W        W42690  15.609  13.627   4.231
70266W        W42691  30.061  38.263  10.217
70267W        W42692  24.575  44.709   0.480
70268W        W42693  20.186   6.336  11.694
70269W        W42694  23.771  11.468  10.090
70270W        W42695  39.008   8.805   0.319
70271W        W42696  14.740  17.805  14.360
70272W        W42697  43.981  40.255   3.082
70273W        W42698  20.339  27.754  10.567
70274W        W42699   9.752  10.699  11.407
70275W        W42700   5.740  29.361  12.267
70276W        W42701  20.217  40.181  14.582
70277W        W42702  33.878  22.561   0.319
70278W        W42703   0.799  35.610   3.680
70279W        W42704  35.153  20.271  13.910
70280W        W42705  24.902  31.315  14.501
70281W        W42706  43.999  14.183   2.471
70282W        W42707  20.733  44.806   4.081
70283W        W42708  44.808  36.293   0.884
70284W        W42709  42.941  39.088  13.321
70285W        W42710   0.517  20.662   0.472
70286W        W42711   8.500  21.861  12.787
70287W        W42712  23.148  29.155   2.625
70288W        W42713  14.362  44.471  13.062
70289W        W42714   0.147   6.953   2.844
70290W        W42715  11.402  43.134   4.045
70291W        W42716  22.553  40.889   0.115
70292W        W42717  42.973   0.278   1.378
70293W        W42718  23.645  17.488   2.888
70294W        W42719   1.047   3.481   1.693
70295W        W42720  40.149  28.166  12.988
70296W        W42721   1.884  11.723   2.812
70297W        W42722  23.243   4.786   2.902
70298W        W42723  10.506   5.799   4.063
70299W        W42724   2.487  32.640  12.101
70300W        W42725   4.361   0.766   2.845
70301W        W42726   4.025   2.699   0.904
70302W        W42727  11.828   6.050  12.523
70303W        W42728  26.387  26.975   2.671
70304W        W42729  21.301   7.778  13.892
70305W        W42730  21.092  11.075   2.238
70306W        W42731  41.963   2.299  11.079
70307W        W42732   0.712  18.304   3.431
70308W        W42733  33.425  18.950   0.460
70309W        W42734  43.944  32.470   0.943
70310W        W42735   9.731   3.182  12.640
70311W        W42736  29.524  34.081   4.194
70312W        W42737   1.990  21.252   4.103
70313W        W42738  33.058   4.418  13.484
70314W        W42739  10.296  40.816   0.710
70315W        W42740  38.740  10.324   2.773
70316W        W42741  39.213  35.066  13.905
70317W        W42742  23.077  28.240   2.178
70318W        W42743  39.919  13.915  12.559
70319W        W42744  38.372   5.138   4.032
70320W        W42745  27.450  30.560   3.773
70321W        W42746  25.367  20.811   4.089
70322W        W42747  21.732   7.698   3.735
70323W        W42748  20.267  32.828  12.552
70324W        W42749   5.646  14.163  14.482
70325W        W42750   6.727  43.647   3.485
70326W        W42751  17.298  32.354   4.188
70327W        W42752   3.232   6.817   1.495
70328W        W42753   6.857  41.503   2.446
70329W        W42754   6.352  18.041  13.391
70330W        W42755  42.875  19.119   0.770
70331W        W42756  23.646   7.658   2.012
70332W        W42757  26.235  22.059  11.059
70333W        W42758   2.397  44.898  14.258
70334W        W42759  22.313  44.857  12.057
70335W        W42760  34.227  34.160  13.934
70336W        W42761   0.001   9.218   4.323
70337W        W42762   9.846  40.538   4.767
70338W        W42763   0.718  41.855   1.016
70339W        W42764  10.768  28.682   3.075
70340W        W42765  35.069  26.724  14.397
70341W        W42766   2.782  26.264   0.313
70342W        W42767  20.089   8.259  14.952
70343W        W42768  28.045   5.673  14.484
70344W        W42769  43.272  31.576  11.037
70345W        W42770  33.920  35.016  10.420
70346W        W42771  31.687  38.557   1.372
70347W        W42772  25.361  32.365   2.901
70348W        W42773   0.527  32.104  14.671
70349W        W42774   9.559  20.155  12.018
70350W        W42775   7.773  21.408  13.893
70351W        W42776  13.185   4.731  14.408
70352W        W42777  29.868   5.371  14.077
70353W        W42778  25.961  16.138   3.625
70354W        W42779   4.321   2.996  14.829
70355W        W42780  35.514  20.798  12.503
70356W        W42781  38.088  34.816   4.336
70357W        W42782  15.969  38.025  11.163
70358W        W42783  28.180  13.641  14.651
70359W        W42784   3.423  39.802  12.144
70360W        W42785  21.246   6.790  11.395
70361W        W42786  16.432  20.156  11.585
70362W        W42787  29.450   2.966   0.011
70363W        W42788   9.832  21.695   4.556
70364W        W42789  14.325  30.471  11.674
70365W        W42790  37.923  27.962  12.517
70366W        W42791  23.288  29.909   2.260
70367W        W42792  30.941  34.137  14.364
70368W        W42793  28.982   0.498  14.644
70369W        W42794   9.446  26.013  13.374
70370W        W42795   2.881  12.026   0.712
70371W        W42796  39.061  16.210   1.765
70372W        W42797   0.065  25.558  13.014
70373W        W42798   5.862  29.475  14.729
70374W        W42799  44.283  44.008   4.586
70375W        W42800  27.486   1.331   4.161
70376W        W42801  39.805   2.968   3.267
70377W        W42802   8.170  43.855   3.790
70378W        W42803  27.670  21.900   0.822
70379W        W42804  28.417  26.107  12.577
70380W        W42805  13.533   9.406  14.942
70381W        W42806  32.924  20.246   1.980
70382W        W42807  33.489  43.439  11.341
70383W        W42808   8.876  36.542   4.593
70384W        W42809  33.551  13.052   0.758
70385W        W42810  32.449  16.987  14.596
70386W        W42811  15.224  23.104  14.014
70387W        W42812  15.938  23.471  13.101
70388W        W42813  36.785  37.562  10.910
70389W        W42814  10.332   7.235   3.170
70390W        W42815  37.072  30.974  11.452
70391W        W42816   5.171  27.928  11.634
70392W        W42817   4.023  15.358   3.279
70393W        W42818   4.387   9.719  13.075
70394W        W42819  25.129  11.358   0.619
70395W        W42820  39.929   9.155  11.434
70396W        W42821  23.250  27.939   3.206
70397W        W42822   0.191  23.183  14.373
70398W        W42823   8.289  10.641   1.323
70399W        W42824  16.239  32.238  12.448
70400W        W42825  25.223  20.015   0.923
70401W        W42826  33.509  36.597  12.991
70402W        W42827  22.511  31.677  12.077
70403W        W42828   4.497   9.801   0.354
70404W        W42829   7.093   1.502   1.858
70405W        W42830   7.657  41.572  13.492
70406W        W42831  11.969  21.559  11.004
70407W        W42832  39.345   5.682  14.497
70408W        W42833  25.509   3.500  14.319
70409W        W42834   0.327  25.170   1.829
70410W        W42835  37.433  34.506  13.608
70411W        W42836  14.123  10.416   4.707
70412W        W42837  11.147  38.436   2.145
70413W        W42838  36.422  20.163   4.078
70414W        W42839   7.000  19.890   2.427
70415W        W42840  31.043  43.926  10.570
70416W        W42841  10.387   6.256  11.560
70417W        W42842  39.834  38.077   0.660
70418W        W42843   2.756  38.542  13.989
70419W        W42844  26.146   9.920  11.303
70420W        W42845  44.470   4.922   3.509
70421W        W42846  17.708  14.249   4.646
70422W        W42847  21.656  25.569   3.416
70423W        W42848  24.120  11.254  11.416
70424W        W42849  30.969   0.248  12.557
70425W        W42850  15.082  33.028   2.178
70426W        W42851   9.712  14.614  12.245
70427W        W42852  14.719  35.108   0.481
70428W        W42853  11.118   0.539   1.810
70429W        W42854  30.055  18.645  13.386
70430W        W42855  10.791  17.573  11.012
70431W        W42856  30.623  38.526   4.685
70432W        W42857  36.851  10.212  11.545
70433W        W42858  38.936   8.782  10.218
70434W        W42859  32.990   8.221   4.524
70435W        W42860  27.045  41.464   0.439
70436W        W42861  24.166  33.273   2.328
70437W        W42862   0.452  16.144   4.176
70438W        W42863  27.606   8.483  13.912
70439W        W42864   2.035  14.799  10.692
70440W        W42865  39.486   2.685  12.091
70441W        W42866   4.776  32.345  13.233
70442W        W42867   7.678  23.102   4.488
70443W        W42868  38.851   3.342   2.718
70444W        W42869  34.930  26.491   2.116
70445W        W42870  35.103  42.488  14.426
70446W        W42871  24.643  22.202   2.870
70447W        W42872  43.968  36.129   4.086
70448W        W42873  18.151  37.093   0.968
70449W        W42874  42.406   8.443   2.447
70450W        W42875  17.318   6.976   3.190
70451W        W42876   4.594  14.215   4.641
70452W        W42877  22.335   0.466   1.946
70453W        W42878   1.728   0.784   0.029
70454W        W42879  22.126  21.782   1.406
70455W        W42880  11.497  31.150  13.383
70456W        W42881  13.134  22.521  12.860
70457W        W42882  13.750  24.980  13.309
70458W        W42883  37.311  41.879   4.179
70459W        W42884  28.251  39.364  14.403
70460W        W42885  20.237  20.565   0.450
70461W        W42886   3.346   7.701   3.295
70462W        W42887  12.438  14.109   4.168
70463W        W42888  12.666  30.685  13.888
70464W        W42889  32.900  27.105   1.671
70465W        W42890  41.519  16.140  12.332
70466W        W42891  10.794  34.433   1.189
70467W        W42892  26.462  30.214   9.942
70468W        W42893  39.558  18.757   2.785
70469W        W42894  29.133  29.687   3.230
70470W        W42895  40.519  25.105  11.564
70471W        W42896  29.512   0.429  11.469
70472W        W42897  27.945  23.520  11.650
70473W        W42898  41.322  31.387  11.990
70474W        W42899  27.440   9.225  13.066
70475W        W42900  19.626  23.498  12.878
70476W        W42901  44.138  29.764   4.571
70477W        W42902  11.113  14.816  12.606
70478W        W42903  18.684   1.601   3.737
70479W        W42904  23.586  25.621   1.478
70480W        W42905  32.299  41.484   0.200
70481W        W42906  13.662   6.411  14.998
70482W        W42907  13.265   6.149  12.013
70483W        W42908  43.000  16.507   0.760
70484W        W42909  29.924   1.535   0.736
70485W        W42910  21.518  29.652  12.452
70486W        W42911  23.504  19.731  14.721
70487W        W42912  24.656   5.383   2.787
70488W        W42913   8.293  35.566   4.793
70489W        W42914  40.971  40.333  13.963
70490W        W42915  32.989  25.364  13.265
70491W        W42916  32.740  14.946  13.100
70492W        W42917   1.432  33.293   5.541
70493W        W42918   7.761  43.235   4.900
70494W        W42919  15.776  36.539   2.270
70495W        W42920   3.993  14.789  13.070
70496W        W42921  39.996  44.973  13.790
70497W        W42922  10.698   9.488   1.735
70498W        W42923   0.307  31.473  13.229
70499W        W42924   6.653  20.090  10.448
70500W        W42925   7.835  23.386   1.728
70501W        W42926  25.641  32.081  13.478
70502W        W42927   7.938  32.866  10.255
70503W        W42928  32.278   0.499   3.656
70504W        W42929   9.942  37.396   4.140
70505W        W42930  38.382   9.414  11.468
70506W        W42931  33.334  10.708   4.438
70507W        W42932  16.534  33.900   0.873
70508W        W42933  27.928  41.782   2.766
70509W        W42934   1.022  33.148   0.302
70510W        W42935   7.829  25.798  13.825
70511W        W42936   1.843  20.601  11.680
70512W        W42937  25.343  25.623  11.336
70513W        W42938  10.165  28.997  14.513
70514W        W42939  21.473   5.361   0.191
70515W        W42940  25.591  25.773  13.469
70516W        W42941  35.348   2.223  13.011
70517W        W42942   8.093  24.617  12.868
70518W        W42943  43.891   4.930  13.084
70519W        W42944  12.540   7.344  12.644
70520W        W42945  15.853  37.119  14.385
70521W        W42946  36.856  20.704  11.990
70522W        W42947  32.393   5.761   2.783
70523W        W42948  14.797  18.038   4.181
70524W        W42949  44.795   2.574  14.167
70525W        W42950   3.709  18.689  10.589
70526W        W42951  43.480   9.280   3.946
70527W        W42952   4.943  20.900   2.212
70528W        W42953  31.389  18.242   2.892
70529W        W42954  14.881  18.295  12.876
70530W        W42955  10.382  14.344   0.823
70531W        W42956  22.994   8.796   2.133
70532W        W42957  27.463   7.394   1.285
70533W        W42958  21.085  15.379  10.327
70534W        W42959  35.457  32.536   3.217
70535W        W42960  28.567   5.213  13.805
70536W        W42961   1.808   2.567  12.177
70537W        W42962  10.383  35.344   2.879
70538W        W42963   3.413  29.015   3.052
70539W        W42964   4.826  33.592   0.546
70540W        W42965  11.833  31.882   0.494
70541W        W42966  25.661  20.784   0.034
70542W        W42967  29.548   0.887  10.247
70543W        W42968  15.781   8.610  13.519
70544W        W42969  13.671  28.184   1.703
70545W        W42970  11.073  14.729   4.871
70546W        W42971   8.639  29.376  13.068
70547W        W42972   0.281  33.987  10.994
70548W        W42973  13.528   0.966  12.097
70549W        W42974  27.060   3.461   1.655
70550W        W42975  32.428   0.770  13.143
70551W        W42976  12.898  29.195  10.701
70552W        W42977  17.481  25.688   4.476
70553W        W42978  12.060   3.646   3.721
70554W        W42979  37.521  24.936  13.432
70555W        W42980  33.450  10.148  14.428
70556W        W42981  15.268   8.210  10.941
70557W        W42982   5.930   8.216   1.921
70558W        W42983  12.606  10.416   2.689
70559W        W42984  24.282  33.196  12.502
70560W        W42985   5.432  21.449   0.265
70561W        W42986  40.460  38.816   2.744
70562W        W42987  42.501   5.730   3.639
70563W        W42988  35.950  23.941   3.656
70564W        W42989  12.376  37.950  11.188
70565W        W42990  39.239  27.168  14.916
70566W        W42991  11.158  33.191  12.529
70567W        W42992   0.797  43.477  12.013
70568W        W42993  33.158  19.306   4.233
70569W        W42994  20.317  25.589  10.683
70570W        W42995   3.145  44.613  14.528
70571W        W42996  15.132  25.904   3.275
70572W        W42997  34.181  21.253  11.275
70573W        W42998   1.463  40.795   2.042
70574W        W42999  23.692  34.839   3.784
70575W        W43000  35.816  42.230   0.013
70576W        W43001  34.794  43.352  13.863
70577W        W43002  31.639  21.915  13.314
70578W        W43003  41.109  29.928  10.965
70579W        W43004  12.698  17.607  14.749
70580W        W43005  12.634  28.008   3.303
70581W        W43006  32.340  35.426   2.771
70582W        W43007  18.375  30.087   4.060
70583W        W43008  43.563  29.444   9.968
70584W        W43009  31.498  10.416  10.917
70585W        W43010  31.190  24.583   3.260
70586W        W43011  23.994  25.296   4.528
70587W        W43012  21.979  35.828  11.858
70588W        W43013  10.734   8.500   1.680
70589W        W43014   1.759  41.618   0.485
70590W        W43015   0.442  12.750  10.811
70591W        W43016  21.738  20.662   2.042
70592W        W43017   7.880  43.807  11.569
70593W        W43018   6.170  30.483   1.237
70594W        W43019  27.909  30.511   0.768
70595W        W43020  20.599   0.322   3.099
70596W        W43021  15.738  41.088  12.003
70597W        W43022  23.153  17.567   1.238
70598W        W43023   9.782  36.312  10.617
70599W        W43024  26.002  21.796   0.965
70600W        W43025  38.168  41.622   4.061
70601W        W43026  42.950  24.300   3.725
70602W        W43027  23.097  28.422  12.103
70603W        W43028  14.052   8.683  13.350
70604W        W43029  34.372  43.287  12.919
70605W        W43030   7.240  10.186   0.756
70606W        W43031  11.724   4.655  14.447
70607W        W43032   2.427  13.297  12.683
70608W        W43033  30.466  41.100   4.661
70609W        W43034   4.208  34.454   3.525
70610W        W43035  41.315   7.273  12.582
70611W        W43036  12.942  26.753   0.856
70612W        W43037  14.041  25.726   2.713
70613W        W43038  30.852  20.458  13.919
70614W        W43039   3.228   2.369  10.491
70615W        W43040   7.179  35.119  14.814
70616W        W43041  11.337  16.758  14.445
70617W        W43042   9.633  26.539   0.864
70618W        W43043  32.488  33.855   3.153
70619W        W43044   8.587  10.818   3.333
70620W        W43045  37.613  29.510   3.113
70621W        W43046  19.180  31.893  13.334
70622W        W43047   8.768  16.833  13.007
70623W        W43048  26.935  38.086  12.414
70624W        W43049  35.933  30.889   3.269
70625W        W43050   8.723  18.804   0.437
70626W        W43051  12.263  34.689  11.637
70627W        W43052   3.711  13.155  13.908
70628W        W43053  10.229  23.674  11.478
70629W        W43054  39.830  16.642  13.917
70630W        W43055  18.316   3.300   1.318
70631W        W43056  23.978  31.197   0.044
70632W        W43057   8.878  20.873   2.312
70633W        W43058  29.107  17.258   0.338
70634W        W43059  24.543  34.963   1.307
70635W        W43060  35.153  22.207   1.277
70636W        W43061  18.699  35.563  14.862
70637W        W43062  44.388  22.612   0.255
70638W        W43063  12.461   0.877   4.220
70639W        W43064  33.215   4.838  13.992
70640W        W43065  13.188  25.057  14.401
70641W        W43066   5.455  32.529   3.755
70642W        W43067  15.065  26.623   3.811
70643W        W43068  37.652  35.642   0.876
70644W        W43069   1.940  20.893  12.661
70645W        W43070  15.723  33.665  14.763
70646W        W43071  37.037   8.485   2.895
70647W        W43072  31.354   1.200  12.651
70648W        W43073  44.269  42.868  13.916
70649W        W43074  14.436  15.458   0.110
70650W        W43075  11.733   9.436  12.718
70651W        W43076   2.852   7.032  11.432
70652W        W43077   9.956  35.186   2.241
70653W        W43078  40.965   7.690  10.702
70654W        W43079  10.417  34.331   2.600
70655W        W43080  40.839  31.853   2.665
70656W        W43081  41.335  29.499  11.145
70657W        W43082  24.630   3.570  14.781
70658W        W43083  30.925  33.542  13.429
70659W        W43084  16.099  20.000  11.228
70660W        W43085   5.010  17.518  12.888
70661W        W43086  17.694  31.671   4.165
70662W        W43087   3.977  15.075  10.772
70663W        W43088  34.892  26.550  14.903
70664W        W43089  33.870   8.885   3.603
70665W        W43090   5.182   1.965   0.818
70666W        W43091  20.143  21.595   2.790
70667W        W43092  34.796  10.187  14.393
70668W        W43093  25.750  19.960  11.515
70669W        W43094  13.452  19.954   3.782
70670W        W43095  24.692   9.728   4.198
70671W        W43096  13.100  40.428   4.200
70672W        W43097   0.187  31.403  12.739
70673W        W43098  30.626  40.656  14.894
70674W        W43099  28.578  30.198   1.388
70675W        W43100  27.598   6.361   4.409
70676W        W43101  29.905  44.794   2.135
70677W        W43102  43.373  34.570  13.999
70678W        W43103  18.837  11.206   3.605
70679W        W43104   6.744  29.633   1.359
70680W        W43105   8.178  40.355   4.481
70681W        W43106  11.621  14.012   3.738
70682W        W43107   3.582  41.227   0.917
70683W        W43108  35.559  44.957   1.269
70684W        W43109  19.746  30.860  13.976
70685W        W43110   2.186  10.242   1.836
70686W        W43111  33.351  43.239   0.251
70687W        W43112  35.604  17.770  13.356
70688W        W43113   0.660  34.319  10.897
70689W        W43114  14.330  26.134   4.118
70690W        W43115  41.976  33.716  10.133
70691W        W43116  34.403  34.627  10.994
70692W        W43117   4.713   2.919   2.446
70693W        W43118  38.405  23.598   0.476
70694W        W43119  42.283  10.762  11.574
70695W        W43120  38.447  20.679  11.688
70696W        W43121  21.169  38.081  13.512
70697W        W43122  16.795  19.025   0.893
70698W        W43123  36.277  22.739  11.619
70699W        W43124  16.185  22.374  13.414
70700W        W43125  24.648  22.833   0.328
70701W        W43126  21.656   6.460  14.734
70702W        W43127   8.475   3.536   1.892
70703W        W43128  42.076  37.578   2.755
70704W        W43129  41.587  11.852  11.647
70705W        W43130  18.320  31.070  13.885
70706W        W43131  39.855   8.343   2.807
70707W        W43132  28.118  35.444   2.400
70708W        W43133   1.836  22.630  14.277
70709W        W43134   7.044  32.378  14.423
70710W        W43135  27.969  30.998  11.690
70711W        W43136  42.626  23.652   1.735
70712W        W43137  44.423   3.697   4.515
70713W        W43138  29.220  36.545  12.841
70714W        W43139  22.699  23.737   3.216
70715W        W43140  31.639  21.203   2.148
70716W        W43141  21.712  15.718  14.511
70717W        W43142  17.840   3.511   4.323
70718W        W43143   3.696  32.479  13.517
70719W        W43144  16.644  43.774   4.880
70720W        W43145  35.553  39.080   4.559
70721W        W43146  38.318  42.543   1.685
70722W        W43147  31.601  16.729  11.612
70723W        W43148  14.880  20.211   2.337
70724W        W43149  16.266  20.162  14.776
70725W        W43150  17.291   2.985   3.336
70726W        W43151  31.359  44.548  13.994
70727W        W43152  20.328  16.053   0.492
70728W        W43153  31.955  31.521  13.470
70729W        W43154  35.000   6.133  13.296
70730W        W43155  23.004   9.203  10.742
70731W        W43156  20.576  39.013  14.021
70732W        W43157  25.196  10.234   3.714
70733W        W43158   0.853   0.827  13.414
70734W        W43159  27.898  11.240  13.995
70735W        W43160  42.446  13.405   2.749
70736W        W43161  19.729  39.923   1.707
70737W        W43162  21.169  28.607   2.348
70738W        W43163  41.919  23.294   4.475
70739W        W43164  17.159   9.805  13.229
70740W        W43165  28.441  19.972   1.289
70741W        W43166  41.315  27.614  14.729
70742W        W43167  44.390  25.962   3.167
70743W        W43168   8.957  44.729  12.853
70744W        W43169  16.237  35.058  10.147
70745W        W43170  13.325   5.404   4.760
70746W        W43171  30.282   2.344   3.992
70747W        W43172  13.849  38.453  14.527
70748W        W43173   9.448   2.438   4.890
70749W        W43174  14.198  11.444  14.994
70750W        W43175  23.467  31.165   2.330
70751W        W43176  18.336  22.604   4.772
70752W        W43177  23.142  44.377  11.710
70753W        W43178   8.074  22.757   4.069
70754W        W43179  35.817  14.918  11.582
70755W        W43180  31.279  35.888  12.377
70756W        W43181   0.711  27.451   4.279
70757W        W43182   7.894  14.822  14.721
70758W        W43183  21.638  26.036   3.679
70759W        W43184   8.633  24.019  14.063
70760W        W43185  15.708  10.275   3.370
70761W        W43186  27.569   2.196  14.918
70762W        W43187  43.349  20.634  11.943
70763W        W43188   3.417  10.663  12.949
70764W        W43189  31.983   2.982   2.403
70765W        W43190   9.090   7.006  14.894
70766W        W43191  43.292  41.735  14.017
70767W        W43192  18.530  37.234   0.387
70768W        W43193  37.516  26.519   2.179
70769W        W43194  25.509  15.298   1.241
70770W        W43195  40.100   4.797  14.856
70771W        W43196  34.597  10.236   2.422
70772W        W43197  18.165  33.145   0.366
70773W        W43198  27.618  40.006  10.235
70774W        W43199  13.637  19.136  10.757
70775W        W43200  25.205  21.595  11.249
70776W        W43201  29.220  13.131   4.274
70777W        W43202   1.307  16.054  12.474
70778W        W43203  12.831  40.993   4.592
70779W        W43204  42.817  36.063   1.301
70780W        W43205  36.339  34.010  14.697
70781W        W43206  37.831   6.006  13.332
70782W        W43207  24.206  28.051   3.294
70783W        W43208   7.334  43.857  10.785
70784W        W43209   7.886   6.361  14.540
70785W        W43210   1.181  15.189   0.684
70786W        W43211  30.390  20.621   1.070
70787W        W43212  14.385   6.839   4.085
70788W        W43213  24.110   5.614   0.597
70789W        W43214  35.909  36.516   3.691
70790W        W43215  43.449  29.420   4.190
70791W        W43216  40.821  39.823  14.389
70792W        W43217  10.306  38.342   1.326
70793W        W43218  31.626   2.420   3.991
70794W        W43219   7.037  10.910   4.097
70795W        W43220  10.669  19.246   1.427
70796W        W43221  15.628  16.299  13.051
70797W        W43222  27.618   0.337   2.717
70798W        W43223  27.186  43.331   1.942
70799W        W43224  36.003  32.702   4.372
70800W        W43225   0.831   7.160  12.017
70801W        W43226  10.328  12.127   2.952
70802W        W43227  41.287  43.564   1.383
70803W        W43228   5.933   1.688   4.224
70804W        W43229  40.926  38.474   2.081
70805W        W43230   6.282  30.333   4.876
70806W        W43231  33.130  32.572  10.490
70807W        W43232  39.750  16.931  13.494
70808W        W43233  24.196  34.761  11.572
70809W        W43234  19.992  30.448   4.663
70810W        W43235   4.881  31.856   9.895
70811W        W43236   0.963   1.327  13.291
70812W        W43237  23.522   0.438  14.320
70813W        W43238  20.503  18.820  12.549
70814W        W43239  18.077  27.514  11.105
70815W        W43240  23.710   3.491   3.199
70816W        W43241  22.172  40.342   0.710
70817W        W43242   9.348  32.867   0.475
70818W        W43243  43.865  20.253  10.969
70819W        W43244  40.419  13.044   4.526
70820W        W43245  32.907  14.772  14.094
70821W        W43246  24.506  44.256  13.885
70822W        W43247  27.225   6.881  14.027
70823W        W43248  21.034  10.639  11.497
70824W        W43249   5.731  39.570   1.877
70825W        W43250   1.191  37.968   4.316
70826W        W43251  15.045  33.585  11.931
70827W        W43252  15.335  32.246  10.658
70828W        W43253  44.175  11.351  10.702
70829W        W43254  31.167  30.855   1.294
70830W        W43255   7.846  30.212   2.851
70831W        W43256  42.280  22.659   2.406
70832W        W43257  36.108  19.263  11.189
70833W        W43258  44.119  39.462   4.831
70834W        W43259  23.630  37.297   1.372
70835W        W43260  33.885  12.744  12.887
70836W        W43261  29.082  24.160   2.784
70837W        W43262   4.957  35.131  11.638
70838W        W43263  15.079   4.820   1.207
70839W        W43264  21.107  19.457  13.415
70840W        W43265   1.054  39.002   5.056
70841W        W43266  20.215   8.623   3.751
70842W        W43267  25.743  12.274  12.103
70843W        W43268   8.650  27.631   1.500
70844W        W43269  26.560   8.857   2.028
70845W        W43270  43.804  39.340   4.465
70846W        W43271   5.659   2.239   1.851
70847W        W43272  27.660   5.429   2.870
70848W        W43273  41.262  13.512  10.726
70849W        W43274  31.992  18.646   4.613
70850W        W43275  43.982  19.165  11.100
70851W        W43276   8.137  38.066   0.419
70852W        W43277  39.310   4.542  13.516
70853W        W43278  33.484   1.706  10.575
70854W        W43279   1.587  40.060   2.232
70855W        W43280  37.920  42.533  13.899
70856W        W43281   0.925  21.322   0.480
70857W        W43282  24.882  10.982   3.299
70858W        W43283   5.448   9.330  12.358
70859W        W43284  22.424  40.870  13.147
70860W        W43285  12.572  13.715  13.479
70861W        W43286   6.360  12.108  13.954
70862W        W43287  33.074   1.076   4.446
70863W        W43288  19.791  21.106  10.958
70864W        W43289   4.377  12.595  11.879
70865W        W43290   2.106   5.739  14.361
70866W        W43291  14.082  14.022   0.938
70867W        W43292   3.496   5.167   0.827
70868W        W43293  23.957   0.400  10.654
70869W        W43294  16.608  43.869   4.361
70870W        W43295  28.681  26.594   3.834
70871W        W43296  32.994  28.061  10.979
70872W        W43297   6.150  26.115   2.373
70873W        W43298  14.766  35.986  11.080
70874W        W43299  23.997  41.722   0.044
70875W        W43300  33.991  28.201   4.048
70876W        W43301  11.191   3.789  11.631
70877W        W43302   3.747  28.908   4.921
70878W        W43303  12.575  14.085   2.828
70879W        W43304   1.782  31.518   0.289
70880W        W43305   6.407  28.008   1.621
70881W        W43306  39.934  31.923   2.377
70882W        W43307  30.566  22.543   1.678
70883W        W43308  24.501   8.661  11.967
70884W        W43309  18.414  11.814   4.608
70885W        W43310  27.408  43.377   0.014
70886W        W43311  37.527   4.444   1.404
70887W        W43312  25.122  23.026   3.564
70888W        W43313   7.225  41.949  13.293
70889W        W43314   2.777  21.234   3.143
70890W        W43315  28.924   4.456   3.586
70891W        W43316   8.813  27.538   0.533
70892W        W43317  37.801  37.563   1.763
70893W        W43318   2.776  42.825   2.278
70894W        W43319  42.961  26.126  10.784
70895W        W43320  29.412  44.516  13.603
70896W        W43321   6.813  25.593  12.598
70897W        W43322  25.484  41.292  12.597
70898W        W43323  14.297  27.236  14.585
70899W        W43324   2.275  28.616   4.377
70900W        W43325  33.924  28.480   2.768
70901W        W43326  32.076  30.959   5.013
70902W        W43327  32.204  44.222   3.248
70903W        W43328  39.947  31.184  11.186
70904W        W43329   8.930  24.252  11.075
70905W        W43330  32.644  20.208  11.067
70906W        W43331  33.840   5.960   4.294
70907W        W43332  36.081  16.096   4.480
70908W        W43333  20.329  44.394  12.803
70909W        W43334   1.561  35.377  13.984
70910W        W43335  31.024  32.943  11.115
70911W        W43336  43.421  27.040   2.693
70912W        W43337  27.560   6.300   2.447
70913W        W43338  33.051  32.352   0.425
70914W        W43339   1.475  23.344   3.676
70915W        W43340   1.217   1.178   3.672
70916W        W43341  21.663  13.296  12.067
70917W        W43342  36.834  41.352  11.550
70918W        W43343   5.031   2.219   4.620
70919W        W43344   1.746  24.579  10.538
70920W        W43345  16.603  14.857  12.652
70921W        W43346  30.449  31.501   2.710
70922W        W43347  21.218   6.200  14.783
70923W        W43348  43.335   1.207  12.951
70924W        W43349   8.045  40.604  14.535
70925W        W43350  27.974  25.643   4.571
70926W        W43351  18.351   7.879  13.889
70927W        W43352  31.875  20.801  11.510
70928W        W43353  40.709  14.350   4.967
70929W        W43354   6.297  17.823  11.808
70930W        W43355  28.640  34.420   0.153
70931W        W43356  21.168  38.334  12.187
70932W        W43357  41.155  30.602   1.629
70933W        W43358   6.866  33.236   2.587
70934W        W43359  29.793  22.142  10.265
70935W        W43360  35.081  40.411  11.037
70936W        W43361  44.510  35.400  13.099
70937W        W43362  31.164  11.483  12.632
70938W        W43363  12.817   2.129   1.359
70939W        W43364  41.255   0.097   3.280
70940W        W43365  36.779  15.742  12.133
70941W        W43366  33.955  24.105   3.803
70942W        W43367  36.847  41.335  12.925
70943W        W43368   2.727  30.637  12.416
70944W        W43369  43.435   1.304   0.910
70945W        W43370   3.349  15.231  12.856
70946W        W43371  31.420   5.751   0.806
70947W        W43372   6.410  26.024   4.175
70948W        W43373  41.613  26.979  10.727
70949W        W43374   6.703  44.475  10.048
70950W        W43375  22.598  13.845   1.649
70951W        W43376  40.135  31.600   0.427
70952W        W43377  22.953  40.934  12.049
70953W        W43378  33.847  37.106  12.230
70954W        W43379  42.317  15.310  14.768
70955W        W43380  10.874  13.229   1.358
70956W        W43381   3.173  23.032   0.930
70957W        W43382  39.914  38.602   3.663
70958W        W43383   9.034  11.115   3.231
70959W        W43384   0.974  39.254  10.691
70960W        W43385   9.835  21.470  12.596
70961W        W43386   4.278  29.416   0.640
70962W        W43387  14.588  39.025   3.636
70963W        W43388   6.634   9.271   0.919
70964W        W43389  30.155  35.564   0.560
70965W        W43390   2.470   7.894  11.169
70966W        W43391  35.498   5.898   0.021
70967W        W43392  31.312  31.365   0.850
70968W        W43393  33.554   2.244  10.539
70969W        W43394  36.899  26.251  10.651
70970W        W43395  32.278  33.625  13.386
70971W        W43396  44.365   3.948   4.050
70972W        W43397  42.385  28.811   2.735
70973W        W43398   3.742  36.898   2.327
70974W        W43399  33.974  42.976   4.185
70975W        W43400  21.785  23.356   4.207
70976W        W43401  17.163  32.672   2.890
70977W        W43402  44.211  15.103  10.669
70978W        W43403  38.952  16.833  11.674
70979W        W43404  40.448  34.128   0.872
70980W        W43405   7.317  32.462   3.839
70981W        W43406   8.886   0.319  11.658
70982W        W43407  18.169  41.028  12.495
70983W        W43408  25.634  42.759   4.231
70984W        W43409  25.762  13.590   0.840
70985W        W43410  17.672   2.261   0.395
70986W        W43411  25.166  21.648   3.643
70987W        W43412   0.714  26.606   3.911
70988W        W43413  40.338  19.512  11.184
70989W        W43414   4.176  20.062  13.412
70990W        W43415  36.802  43.399  14.851
70991W        W43416  24.436  38.665   3.100
70992W        W43417  17.290  17.817   0.894
70993W        W43418  17.562  18.634  13.390
70994W        W43419   6.756   5.807   2.771
70995W        W43420  42.740  30.539  12.906
70996W        W43421  40.417  24.250   3.632
70997W        W43422  42.778  21.460  11.913
70998W        W43423   2.236  42.453   0.737
70999W        W43424   9.763   8.222   5.085
71000W        W43425  29.696  26.998   0.717
71001W        W43426  37.356  44.966  12.838
71002W        W43427  11.316   0.801   0.224
71003W        W43428  19.325  19.858  12.558
71004W        W43429  12.179  26.273   1.278
71005W        W43430  24.441   6.868  11.027
71006W        W43431   6.694  23.947   1.952
71007W        W43432  29.465   2.275  10.723
71008W        W43433  40.424  16.496   2.659
71009W        W43434   9.611  17.582   0.974
71010W        W43435   6.338  27.196   0.936
71011W        W43436  30.619  24.470   1.219
71012W        W43437  23.688   0.184   3.709
71013W        W43438  42.057  28.990  11.134
71014W        W43439  25.270   1.836   4.272
71015W        W43440  35.645  26.611   5.050
71016W        W43441  33.187  40.542   2.708
71017W        W43442  42.726   3.481  14.147
71018W        W43443  35.986  38.027   0.984
71019W        W43444  26.364   5.808   4.167
71020W        W43445  35.074  14.383   4.631
71021W        W43446  14.176   8.428  11.123
71022W        W43447   3.653  26.010  14.971
71023W        W43448  20.000  23.602   1.346
71024W        W43449  27.528  14.775   3.896
71025W        W43450  12.545  44.779  12.958
71026W        W43451  23.921  40.281   1.905
71027W        W43452  43.044  25.685  13.366
71028W        W43453  14.021   3.964  12.499
71029W        W43454  27.167  34.396  11.043
71030W        W43455  25.737  20.585   0.492
71031W        W43456  26.247  13.176  12.113
71032W        W43457  35.598  42.351   1.850
71033W        W43458  30.577  44.454   3.901
71034W        W43459  34.956   4.667  11.072
71035W        W43460  35.481  30.589   0.903
71036W        W43461  41.549   2.395  11.355
71037W        W43462   6.032  23.502  12.915
71038W        W43463  17.733  43.175  12.161
71039W        W43464  44.344   2.925  10.703
71040W        W43465   0.038  24.763   5.192
71041W        W43466  39.196  31.375   0.276
71042W        W43467  31.090  23.109   5.035
71043W        W43468  11.554  32.485  13.461
71044W        W43469  33.953  19.840  11.324
71045W        W43470  36.804  14.235  13.565
71046W        W43471   6.189  36.872   0.309
71047W        W43472   6.083  18.625   2.376
71048W        W43473  43.934  10.353   4.070
71049W        W43474   7.345   5.604   4.163
71050W        W43475   4.636  25.708  14.893
71051W        W43476  30.445   9.468  13.507
71052W        W43477  25.457  31.491   2.619
71053W        W43478  15.839  21.292  11.707
71054W        W43479  19.779   7.851   0.034
71055W        W43480  25.021  28.543   4.244
71056W        W43481  10.139   2.893  12.553
71057W        W43482  28.019   6.366  12.602
71058W        W43483   0.063   7.809   2.809
71059W        W43484  43.975   3.265   2.832
71060W        W43485   1.740  25.138  11.103
71061W        W43486   5.690  36.988  11.456
71062W        W43487   7.935  16.312   2.790
71063W        W43488  38.052  10.566  10.364
71064W        W43489  28.224   8.373   2.761
71065W        W43490  14.492  41.612   2.072
71066W        W43491  10.643  28.685  12.449
71067W        W43492   7.799  24.480  13.746
71068W        W43493  18.435  10.575   1.312
71069W        W43494  35.588   3.654  11.572
71070W        W43495  20.131  32.137  11.600
71071W        W43496  33.110   8.732  12.542
71072W        W43497  17.011  21.539   4.475
71073W        W43498  44.568  16.819   2.734
71074W        W43499  21.762   4.090  14.309
71075W        W43500  10.552   7.895   4.862
71076W        W43501  33.460  25.205   3.252
71077W        W43502  33.985  14.853   3.440
71078W        W43503  16.697  37.134  12.086
71079W        W43504  34.846  43.499  12.949
71080W        W43505  39.052  31.648  11.774
71081W        W43506  38.273   8.736   3.239
71082W        W43507  25.901  14.143  11.293
71083W        W43508  26.527  28.008   0.860
71084W        W43509   8.498  31.663   1.273
71085W        W43510  10.321  11.727   0.777
71086W        W43511  19.148  10.395   2.320
71087W        W43512  22.415  29.235  14.510
71088W        W43513  33.925  38.029  12.439
71089W        W43514  20.544  19.098  12.121
71090W        W43515   4.953   5.711  11.621
71091W        W43516  22.247  39.356   1.715
71092W        W43517  28.371  23.327   5.118
71093W        W43518  16.660  11.992   0.497
71094W        W43519  18.622  31.065   1.238
71095W        W43520   4.183  44.984   3.973
71096W        W43521   6.396  39.844  14.001
71097W        W43522   5.752  11.145  11.140
71098W        W43523  35.647  36.778   1.835
71099W        W43524  11.772   9.063   9.980
71100W        W43525   0.806  11.298  14.963
71101W        W43526  31.362  24.837   0.385
71102W        W43527  20.673  17.942   0.425
71103W        W43528  30.404   4.194   1.787
71104W        W43529  22.064  34.004  14.302
71105W        W43530  20.343  23.755   0.456
71106W        W43531   1.803  21.915  12.426
71107W        W43532  31.599   9.360  11.120
71108W        W43533   0.825  20.764  13.846
71109W        W43534  15.043  29.021   4.165
71110W        W43535  12.271  42.046   4.255
71111W        W43536  37.480   5.400   1.226
71112W        W43537  13.159  28.580   4.822
71113W        W43538  29.970  19.671   3.361
71114W        W43539  38.275   9.844   0.216
71115W        W43540  15.726  13.199   0.293
71116W        W43541   0.978  30.117   0.915
71117W        W43542  10.717  35.298  14.487
71118W        W43543  26.546  25.727  12.797
71119W        W43544  11.213  30.900   1.204
71120W        W43545  25.718  25.892  11.105
71121W        W43546   4.635  36.416   4.560
71122W        W43547  37.838  34.004  11.121
71123W        W43548  12.268   9.422   4.506
71124W        W43549  21.711  15.822   3.673
71125W        W43550  30.168  33.453  12.092
71126W        W43551  17.245  35.988   2.460
71127W        W43552  29.242   6.168  11.977
71128W        W43553  42.334  37.594   4.079
71129W        W43554  32.570  19.224   0.063
71130W        W43555  28.186  25.940   1.251
71131W        W43556  14.928  30.508  14.918
71132W        W43557  32.087  26.030  12.132
71133W        W43558   7.346  26.104  10.573
71134W        W43559  31.026  23.169  14.564
71135W        W43560  30.309  23.732   5.090
71136W        W43561  31.846  25.974   3.661
71137W        W43562  43.842  29.456   0.304
71138W        W43563   1.636  32.511   2.584
71139W        W43564  26.552  11.261   2.903
71140W        W43565  23.132  16.770   1.730
71141W        W43566  25.542  35.242   1.652
71142W        W43567  18.132  26.922   1.282
71143W        W43568  44.452  30.670  11.045
71144W        W43569  17.406  14.669   4.652
71145W        W43570   0.716   5.440   4.610
71146W        W43571  42.258  21.253   3.822
71147W        W43572  25.171  39.384  14.496
71148W        W43573  22.788  43.715  12.370
71149W        W43574  27.506  19.301  12.142
71150W        W43575  30.747  11.194  12.882
71151W        W43576  14.180  43.906   2.463
71152W        W43577  12.388  28.469   0.986
71153W        W43578  43.405   7.957   4.460
71154W        W43579  12.792  18.139  11.861
71155W        W43580  44.847  21.294   1.676
71156W        W43581  38.877  27.472  10.717
71157W        W43582  44.910  35.417   4.113
71158W        W43583  38.125  31.880   3.564
71159W        W43584  32.364  14.714  11.102
71160W        W43585  25.165  35.609  12.878
71161W        W43586   4.682   9.671   4.189
71162W        W43587  14.694  15.628   2.796
71163W        W43588  16.013  42.327   2.305
71164W        W43589  32.615  19.732   4.556
71165W        W43590  36.375  37.879  13.059
71166W        W43591  20.723   6.946   3.327
71167W        W43592   8.249  31.811  12.002
71168W        W43593  35.011  27.962   2.339
71169W        W43594  32.831  44.975   1.250
71170W        W43595  37.063  37.845   2.839
71171W        W43596   8.263  17.521  10.436
71172W        W43597  13.619  25.138   0.911
71173W        W43598  15.777  28.890   3.597
71174W        W43599  19.163  23.487  14.695
71175W        W43600  12.291   8.218   3.186
71176W        W43601   4.321   8.688   0.815
71177W        W43602  28.578  22.008  10.728
71178W        W43603  19.555  35.723  11.205
71179W        W43604  10.722  36.584  14.909
71180W        W43605  39.088  40.546   1.760
71181W        W43606  13.740  26.051   0.950
71182W        W43607  38.258  30.918  14.749
71183W        W43608  36.324   6.306  11.229
71184W        W43609  23.997  44.773   0.124
71185W        W43610  40.792   3.258   3.521
71186W        W43611  39.987  37.097  11.158
71187W        W43612  37.892  32.677   0.455
71188W        W43613  12.701  26.028   1.806
71189W        W43614   1.457  15.089  13.208
71190W        W43615  36.104  23.758   3.142
71191W        W43616  41.481  32.452   2.248
71192W        W43617  21.570  19.342   3.782
71193W        W43618   5.218   8.262   2.794
71194W        W43619  18.069  24.154  10.426
71195W        W43620  33.592   7.838   0.430
71196W        W43621  14.843   0.882  14.227
71197W        W43622  23.611  31.958  10.530
71198W        W43623   5.836  33.875   3.191
71199W        W43624  38.091  22.207  10.734
71200W        W43625  12.125   9.447  14.869
71201W        W43626  36.323  25.209   2.154
71202W        W43627  38.781  12.390  14.418
71203W        W43628  39.141  30.473   1.135
71204W        W43629  12.342  10.764   4.003
71205W        W43630   5.197  26.719  14.961
71206W        W43631  33.592  39.580  13.368
71207W        W43632  37.033  27.988   1.213
71208W        W43633  28.393  39.941   1.182
71209W        W43634   1.225  12.355   2.652
71210W        W43635   3.313  12.594   3.682
71211W        W43636   5.324   2.694   1.288
71212W        W43637  12.253  16.208   4.489
71213W        W43638   8.281  37.660   1.687
71214W        W43639  16.759  41.987   3.806
71215W        W43640  26.649   3.706   3.881
71216W        W43641   5.950   0.969   1.289
71217W        W43642   6.853   8.117  11.732
71218W        W43643   5.654   1.847   2.210
71219W        W43644  19.505  24.076   1.720
71220W        W43645  35.697   2.260   0.930
71221W        W43646  11.195  12.917  14.430
71222W        W43647  11.751  22.311  11.588
71223W        W43648  36.743   7.266  10.329
71224W        W43649  41.819  16.170  11.062
71225W        W43650   7.034  19.689   3.276
71226W        W43651  38.454  39.481  11.882
71227W        W43652  27.416   0.791   1.844
71228W        W43653   8.200  36.505   1.524
71229W        W43654  32.183  20.153  13.803
71230W        W43655  12.354  19.497  14.807
71231W        W43656  33.968  29.486   4.455
71232W        W43657  13.102   7.802   1.396
71233W        W43658   5.712   9.658  11.522
71234W        W43659  19.189   6.972  12.654
71235W        W43660  30.137   6.140  10.678
71236W        W43661  25.106  19.161  10.739
71237W        W43662  41.932  23.931   3.692
71238W        W43663  43.406   5.205   2.483
71239W        W43664  21.479  34.509  10.700
71240W        W43665   3.974   6.777   2.793
71241W        W43666  21.512   9.954   0.382
71242W        W43667  44.540  26.188  10.411
71243W        W43668  44.206  12.121   3.802
71244W        W43669  24.260  36.973   4.594
71245W        W43670  12.619  16.266   3.119
71246W        W43671  37.441  13.609  11.577
71247W        W43672  36.925  21.524   3.280
71248W        W43673   4.253  11.504  13.150
71249W        W43674  33.357  42.130   0.972
71250W        W43675   6.296  37.160   5.036
71251W        W43676  17.145  29.387  14.329
71252W        W43677  44.140  32.609   4.106
71253W        W43678  14.730  17.075   3.273
71254W        W43679  31.242  20.136  14.953
71255W        W43680  31.857  16.598  10.847
71256W        W43681  18.911  14.954   1.900
71257W        W43682  30.832   9.291   2.777
71258W        W43683  44.475  24.968   4.131
71259W        W43684   0.841   0.653   0.925
71260W        W43685  22.540  10.237   4.564
71261W        W43686  26.500   9.778   3.831
71262W        W43687  35.504  42.876   2.127
71263W        W43688  29.064  36.676   3.891
71264W        W43689   2.764  44.934   1.464
71265W        W43690  39.725  21.069  13.735
71266W        W43691  32.423  43.256  13.324
71267W        W43692   6.263   9.709  14.519
71268W        W43693  16.559  34.945  13.514
71269W        W43694  33.585  34.189   1.003
71270W        W43695  10.271  11.413  10.472
71271W        W43696  27.839  29.967  14.963
71272W        W43697  40.873  36.409   3.743
71273W        W43698   8.959  36.486  13.787
71274W        W43699  11.372  31.140   0.223
71275W        W43700   6.737   8.336   4.961
71276W        W43701   7.909  37.556  14.794
71277W        W43702  29.352  17.567  11.154
71278W        W43703   1.644  38.598  11.483
71279W        W43704  19.148   2.026  14.484
71280W        W43705   1.099  40.737   1.700
71281W        W43706   2.403  40.236   4.562
71282W        W43707  25.943   2.351   4.796
71283W        W43708  35.126  14.833  12.628
71284W        W43709  34.357  13.343   1.743
71285W        W43710  15.394  31.131   2.545
71286W        W43711  17.367  21.671  13.535
71287W        W43712  40.240   2.278   2.175
71288W        W43713  22.016  30.851  14.001
71289W        W43714   9.550  32.447  11.442
71290W        W43715   5.714   8.327  11.682
71291W        W43716   4.695  35.808   2.384
71292W        W43717  24.845  19.685  14.260
71293W        W43718  30.033  16.781  11.049
71294W        W43719  42.481  18.436   5.127
71295W        W43720  39.096  41.573  13.899
71296W        W43721   0.783  41.550  14.185
71297W        W43722  19.853  18.794   1.253
71298W        W43723   7.087  21.334  12.427
71299W        W43724  25.171  17.755  10.361
71300W        W43725   5.080  16.542   2.239
71301W        W43726  42.795  30.635   2.785
71302W        W43727  42.009  26.924   1.282
71303W        W43728   8.697  10.844  10.650
71304W        W43729  34.835  12.140  14.665
71305W        W43730  10.286   0.864   0.529
71306W        W43731  14.358  11.286   3.239
71307W        W43732  15.191  20.834  14.383
71308W        W43733  16.057  42.013   0.714
71309W        W43734  24.666   2.865  10.812
71310W        W43735  23.651  13.855  12.356
71311W        W43736  22.777   0.082  12.134
71312W        W43737  44.364  44.189  13.387
71313W        W43738  31.586   4.916   3.155
71314W        W43739  19.281   2.194   2.313
71315W        W43740  15.546  12.654  10.734
71316W        W43741  24.935   8.613  11.626
71317W        W43742  27.632  31.711   0.194
71318W        W43743  14.610  10.171   0.929
71319W        W43744   1.236  31.198   2.288
71320W        W43745  43.785  31.015  12.500
71321W        W43746  14.243  18.816   2.148
71322W        W43747  30.237  28.548   1.095
71323W        W43748  27.623   6.935  12.751
71324W        W43749  36.183  13.870  10.824
71325W        W43750  11.088  32.378   0.436
71326W        W43751  16.334   5.103  13.737
71327W        W43752   9.918   2.380   4.675
71328W        W43753  10.099  40.313   2.873
71329W        W43754  30.466   1.743  10.652
71330W        W43755  35.895  44.049  11.182
71331W        W43756  35.390  22.791   3.828
71332W        W43757   8.375  34.804   2.120
71333W        W43758  33.273  25.562  11.857
71334W        W43759   3.418  36.124   4.344
71335W        W43760  25.748  42.780   3.291
71336W        W43761   5.254   3.766  11.540
71337W        W43762  34.849   5.382  13.956
71338W        W43763   0.743  43.991  14.863
71339W        W43764  39.421   4.841  11.156
71340W        W43765  32.913   8.437  13.916
71341W        W43766  41.245  17.706   4.750
71342W        W43767  41.563  25.229   3.016
71343W        W43768  14.791   6.150  12.897
71344W        W43769  38.453   4.672   3.194
71345W        W43770   9.570   3.829  14.812
71346W        W43771  19.070  27.505   3.354
71347W        W43772   3.179  15.755  14.784
71348W        W43773  21.175   8.281  13.924
71349W        W43774   7.233  41.071   3.272
71350W        W43775  12.665  43.354  14.912
71351W        W43776   3.221  17.502  11.573
71352W        W43777  23.090  25.748   1.592
71353W        W43778   4.200  21.093  12.074
71354W        W43779  25.438   6.242  14.000
71355W        W43780  25.112  23.720  11.089
71356W        W43781  10.783   3.183  10.909
71357W        W43782   7.580  36.168  12.580
71358W        W43783   4.785   5.735  12.520
71359W        W43784   7.338  41.376  12.082
71360W        W43785  39.954  37.088  14.037
71361W        W43786   5.774  31.850  14.077
71362W        W43787  41.338  41.332   1.360
71363W        W43788  14.816  11.673  11.638
71364W        W43789  40.865   3.282  13.002
71365W        W43790   4.188   2.715   0.246
71366W        W43791  42.477  20.806   0.727
71367W        W43792  23.695  32.899   4.848
71368W        W43793  12.705  43.521   0.471
71369W        W43794  40.673  15.802   1.964
71370W        W43795  41.007  33.977   2.572
71371W        W43796   8.011  16.812   9.996
71372W        W43797  32.949  40.763   0.404
71373W        W43798  25.760  30.780   4.399
71374W        W43799   4.466   8.121  14.299
71375W        W43800  42.620  15.960  14.942
71376W        W43801  22.104  21.544  11.552
71377W        W43802  24.704  37.266   4.517
71378W        W43803  42.410  35.260  14.347
71379W        W43804  30.122   4.463   3.320
71380W        W43805  38.608  37.302   0.948
71381W        W43806  29.095  41.965   0.880
71382W        W43807  20.169  42.918  13.625
71383W        W43808  29.114  41.457   5.013
71384W        W43809   4.281  32.751  11.423
71385W        W43810  18.387   4.221   0.149
71386W        W43811  28.174   8.867   3.569
71387W        W43812  37.087  22.717  10.600
71388W        W43813  43.621   2.924  10.621
71389W        W43814  24.661  40.337   1.297
71390W        W43815   7.734  13.154  12.991
71391W        W43816  34.984  37.049  12.499
71392W        W43817  16.397  33.885  12.923
71393W        W43818  44.291   1.953   4.318
71394W        W43819  39.546  32.353  11.540
71395W        W43820  11.436  22.464   4.948
71396W        W43821  44.265  20.587  11.871
71397W        W43822  41.492  22.999  11.567
71398W        W43823  34.556  28.583   1.954
71399W        W43824  18.981  43.982  14.894
71400W        W43825  29.905   4.779   1.052
71401W        W43826  19.880  30.479  14.746
71402W        W43827  29.682  43.438  10.931
71403W        W43828  25.944  24.422   3.546
71404W        W43829   3.682   6.555   1.593
71405W        W43830  35.089  44.823   1.047
71406W        W43831  28.291  32.175   4.944
71407W        W43832  27.655  14.369   4.274
71408W        W43833  36.347   1.341  12.174
71409W        W43834  23.665  44.004   2.750
71410W        W43835  33.538  17.838  13.395
71411W        W43836  41.734   9.877   1.732
71412W        W43837  12.997  16.200  12.558
71413W        W43838   2.179  32.988   3.334
71414W        W43839  13.273  14.262  11.374
71415W        W43840  20.009   8.411  10.758
71416W        W43841  37.852   1.475  14.994
71417W        W43842   0.396  28.260  13.871
71418W        W43843   1.031  24.563   2.746
71419W        W43844  12.140   3.141   3.785
71420W        W43845  31.477  33.502   2.284
71421W        W43846  36.053  35.546   3.687
71422W        W43847  26.924  40.514  11.070
71423W        W43848   0.336  26.968   1.616
71424W        W43849   9.888  43.912   2.752
71425W        W43850   4.052  32.868  13.520
71426W        W43851  34.956  37.101   4.748
71427W        W43852  43.889  39.742   3.187
71428W        W43853   8.334   7.911  14.892
71429W        W43854  44.699   2.510  10.713
71430W        W43855  34.027   2.260  14.045
71431W        W43856  34.332  31.641  12.863
71432W        W43857  37.024  35.395   1.921
71433W        W43858  12.602   5.121  11.484
71434W        W43859  18.278  25.422   4.540
71435W        W43860  22.487  11.652   0.923
71436W        W43861   9.031  27.922   1.675
71437W        W43862  26.646   2.528   1.494
71438W        W43863   7.097  37.401   4.754
71439W        W43864   5.076  20.206  11.717
71440W        W43865   7.971  36.248  14.870
71441W        W43866   2.673  14.905  13.733
71442W        W43867  28.674  22.948  12.364
71443W        W43868  25.780  35.337  13.940
71444W        W43869  22.320   7.383   0.483
71445W        W43870  15.748  21.213  14.114
71446W        W43871  44.531  31.370  11.504
71447W        W43872   0.054  31.656   3.303
71448W        W43873  27.073  11.353   4.165
71449W        W43874   2.253   9.295  11.234
71450W        W43875   4.562  44.390  14.419
71451W        W43876  11.301  39.989  12.226
71452W        W43877  17.278   2.532   0.635
71453W        W43878  32.637  20.080   2.964
71454W        W43879  25.353  43.853   4.507
71455W        W43880  37.445  25.196  12.555
71456W        W43881  22.771  16.106  14.890
71457W        W43882  43.710   2.436  10.743
71458W        W43883  27.926   4.463  14.252
71459W        W43884  13.730  28.512  10.688
71460W        W43885   8.717  20.966  11.148
71461W        W43886  10.389  27.493  11.392
71462W        W43887   9.199  41.357   3.459
71463W        W43888  10.290  43.426  11.546
71464W        W43889  36.315  22.873  13.801
71465W        W43890  40.883  20.173   4.061
71466W        W43891  39.404  41.984   0.722
71467W        W43892   9.109   5.995  11.973
71468W        W43893   0.350  24.477  14.954
71469W        W43894   5.498   1.827  11.191
71470W        W43895  37.376  23.680  14.680
71471W        W43896  35.595  18.855   4.107
71472W        W43897  32.059  33.927  12.089
71473W        W43898   2.737  26.705   4.799
71474W        W43899   8.799  17.575  13.486
71475W        W43900  13.785  34.119  11.486
71476W        W43901  18.826   5.303   2.595
71477W        W43902  23.196  17.322   2.702
71478W        W43903  36.177   1.207  14.387
71479W        W43904  38.485  39.963  13.531
71480W        W43905  28.561  25.425   1.207
71481W        W43906  34.817   7.780   5.172
71482W        W43907  44.871  17.758  13.125
71483W        W43908  44.269   6.477  11.578
71484W        W43909  22.471  34.565  12.918
71485W        W43910   0.752  16.059   0.967
71486W        W43911  20.118  38.080   4.452
71487W        W43912  26.568  24.091  12.551
71488W        W43913  21.278  33.543  12.819
71489W        W43914  42.767  37.013   0.344
71490W        W43915   4.921   7.258   1.823
71491W        W43916  35.905  38.456   3.624
71492W        W43917  36.594  43.444   3.670
71493W        W43918  24.216  32.761   2.120
71494W        W43919  29.449  34.177  10.333
71495W        W43920  14.063  39.375   1.594
71496W        W43921  33.591   2.507  10.996
71497W        W43922  43.793   9.785  12.826
71498W        W43923   1.243  43.764   2.261
71499W        W43924   2.695  16.238  12.384
71500W        W43925  31.046  41.112   3.295
71501W        W43926  31.629   3.159  12.567
71502W        W43927  24.512  41.530  12.898
71503W        W43928  38.880  15.191  14.417
71504W        W43929   3.060  29.580   4.588
71505W        W43930  13.240  36.093   1.809
71506W        W43931  22.221  38.036   4.234
71507W        W43932   9.995  23.181  13.610
71508W        W43933  17.367  17.084   3.625
71509W        W43934   5.639  11.828   3.213
71510W        W43935  26.594  16.262   3.755
71511W        W43936   3.774   1.293  12.402
71512W        W43937  37.587  19.644  13.919
71513W        W43938   8.766  13.915   2.261
71514W        W43939  20.681   0.795   2.897
71515W        W43940  33.436   2.418   4.605
71516W        W43941  21.776  10.466   0.202
71517W        W43942   8.711  33.530   3.874
71518W        W43943  15.177   6.466  10.785
71519W        W43944   5.929  12.385  13.988
71520W        W43945   4.377   8.914   1.278
71521W        W43946   2.918  19.728   0.320
71522W        W43947  40.921  15.119   1.341
71523W        W43948  29.889  17.818   4.603
71524W        W43949  18.681  37.972   4.620
71525W        W43950   2.461  12.595   1.812
71526W        W43951  14.885  30.218   4.578
71527W        W43952  21.747  44.207   9.984
71528W        W43953  16.271  12.210  13.794
71529W        W43954  21.020   0.957   0.646
71530W        W43955  41.055  13.751  13.513
71531W        W43956   8.977  31.040  12.584
71532W        W43957  15.682  15.557  10.761
71533W        W43958  34.523  35.082  14.402
71534W        W43959   0.301  19.605   4.071
71535W        W43960  36.438  42.483   5.174
71536W        W43961  39.895  39.972   0.949
71537W        W43962  16.599  38.478   0.190
71538W        W43963  19.509  40.667   0.610
71539W        W43964  40.464   3.371   4.496
71540W        W43965  26.503  36.549   3.702
71541W        W43966  25.504  20.456  11.846
71542W        W43967  31.425  21.585  11.011
71543W        W43968   5.448  41.247   0.415
71544W        W43969  12.667   1.482  14.971
71545W        W43970  25.180  17.857   2.203
71546W        W43971  39.432   4.544   2.364
71547W        W43972   8.743  21.457  13.896
71548W        W43973  15.188   9.221  11.828
71549W        W43974   5.733  10.407  11.988
71550W        W43975  18.805  27.650  12.963
71551W        W43976  39.369   5.454   2.845
71552W        W43977  28.635   1.413  12.004
71553W        W43978  16.316  14.570   2.722
71554W        W43979   8.991   6.644   2.849
71555W        W43980  19.627  27.693   4.226
71556W        W43981  35.611  18.714  11.096
71557W        W43982  24.695  18.733  12.201
71558W        W43983  17.242  25.325   1.492
71559W        W43984  27.213  13.342  12.139
71560W        W43985  40.549  32.146  12.098
71561W        W43986  20.748  10.050  14.014
71562W        W43987  15.142  22.052  13.968
71563W        W43988   3.993  44.345   2.744
71564W        W43989  12.327  36.599   1.460
71565W        W43990  15.055  34.014   9.829
71566W        W43991  12.336  37.314  10.618
71567W        W43992   5.853   9.382   3.574
71568W        W43993  16.364   4.775  12.063
71569W        W43994   5.245  16.211  12.438
71570W        W43995  27.344  33.900  11.070
71571W        W43996  25.666  12.687  12.426
71572W        W43997  30.218  13.621   1.408
71573W        W43998  16.883  10.911  11.167
71574W        W43999  20.215  12.373   0.981
71575W        W44000  19.071   1.722   2.336
71576W        W44001   7.644  28.612   4.125
71577W        W44002  41.963  44.493  10.647
71578W        W44003  17.597  35.761  14.384
71579W        W44004  44.827  21.622  14.868
71580W        W44005   4.522  18.250   4.412
71581W        W44006  26.243  27.224  10.776
71582W        W44007   7.732  39.056  11.030
71583W        W44008  17.082  35.053   2.813
71584W        W44009  11.217  41.831   4.620
71585W        W44010  41.734  36.059   2.207
71586W        W44011  24.966  34.028   2.873
71587W        W44012  20.288  28.708  13.096
71588W        W44013  30.659  14.245   3.109
71589W        W44014  30.421  22.981   1.429
71590W        W44015  43.303  28.193   1.903
71591W        W44016  13.114   3.300  14.267
71592W        W44017  38.666   0.644   1.698
71593W        W44018  39.030  25.897  11.665
71594W        W44019  32.491  31.430   4.143
71595W        W44020  25.156  42.239   4.016
71596W        W44021  14.217  17.016   3.337
71597W        W44022  40.570   0.699   1.838
71598W        W44023  32.343  43.955  10.722
71599W        W44024   0.656  34.553   3.165
71600W        W44025  11.056  33.414  10.748
71601W        W44026  44.558  42.847  12.128
71602W        W44027  41.578  35.399   4.575
71603W        W44028  39.993   6.587  10.735
71604W        W44029  40.522   7.587  14.343
71605W        W44030  19.985  28.058   0.761
71606W        W44031  13.860   3.804  13.375
71607W        W44032  35.076  42.113  11.573
71608W        W44033  35.089  18.523  14.389
71609W        W44034  29.366  42.319   4.214
71610W        W44035  37.491  29.197   1.443
71611W        W44036   2.091  31.494   1.413
71612W        W44037  21.149   1.578  13.946
71613W        W44038  25.313  37.805  10.271
71614W        W44039   6.720  39.007  11.968
71615W        W44040   8.294  15.666   3.467
71616W        W44041  18.961  33.229   2.435
71617W        W44042   2.640   4.770  11.590
71618W        W44043  23.149  39.423   4.604
71619W        W44044  11.688  18.592  10.905
71620W        W44045  13.378  29.595  14.368
71621W        W44046   3.369  17.578  12.558
71622W        W44047  44.998  33.095   2.180
71623W        W44048  33.810  29.117   2.359
71624W        W44049  41.353  14.147  14.049
71625W        W44050  15.402  18.177  13.739
71626W        W44051  43.925  30.704   2.956
71627W        W44052  18.040  14.760  12.416
71628W        W44053  16.096   0.038   1.718
71629W        W44054  42.504  29.181   0.324
71630W        W44055  14.317  19.080   4.879
71631W        W44056  21.541  25.620   4.401
71632W        W44057  10.170   6.984   2.179
71633W        W44058  24.461  28.746  13.843
71634W        W44059  39.196  24.570   1.224
71635W        W44060  28.878  13.685  12.595
71636W        W44061  35.439  15.250  11.706
71637W        W44062  11.692  11.883  12.472
71638W        W44063   8.478   3.899   0.415
71639W        W44064  44.938  38.102  12.985
71640W        W44065  13.252  33.603  13.963
71641W        W44066  43.176  39.092  10.796
71642W        W44067   3.859  31.113   2.348
71643W        W44068  26.410  36.976   3.205
71644W        W44069  20.676  34.129  11.466
71645W        W44070  32.070  12.184   2.631
71646W        W44071  41.004  17.836   0.255
71647W        W44072  25.492  11.309  13.800
71648W        W44073  42.416   8.499   3.737
71649W        W44074  12.587  42.023  11.575
71650W        W44075  27.936  33.547   0.738
71651W        W44076   9.681   5.137  11.201
71652W        W44077  43.394  29.910   2.620
71653W        W44078  35.643  19.057  13.515
71654W        W44079  22.077  26.147  14.365
71655W        W44080  22.874  30.449  10.842
71656W        W44081  20.502  18.442   0.466
71657W        W44082  20.263   3.334   3.277
71658W        W44083  39.232   7.839  11.425
71659W        W44084   7.772  41.787  13.996
71660W        W44085   7.352   1.172  13.939
71661W        W44086   7.470   8.705   4.241
71662W        W44087  15.122  16.090  14.335
71663W        W44088  26.143  42.018  13.613
71664W        W44089  19.757  34.106  14.553
71665W        W44090   8.883   6.472  14.317
71666W        W44091  22.081  42.274   1.830
71667W        W44092   5.622  40.747   3.008
71668W        W44093  42.888  22.178  11.645
71669W        W44094  17.593  40.920   2.770
71670W        W44095  21.091  32.371  12.682
71671W        W44096  26.960  16.140  13.395
71672W        W44097  13.806  12.937  13.540
71673W        W44098  14.310  14.102   3.838
71674W        W44099   9.452  17.400  11.045
71675W        W44100  32.786  36.127  14.839
71676W        W44101   7.285  18.547  12.035
71677W        W44102  11.044  34.510   1.636
71678W        W44103  35.005  19.686  14.745
71679W        W44104   5.688  32.706   1.259
71680W        W44105   5.870  25.602  14.578
71681W        W44106  30.826  31.396   0.504
71682W        W44107  23.136  13.790   3.328
71683W        W44108  29.705  34.948  12.911
71684W        W44109  34.917   3.935  12.083
71685W        W44110  31.630  15.849  10.481
71686W        W44111  39.045  24.720  10.750
71687W        W44112  37.798   6.774   2.819
71688W        W44113  34.105   3.195  11.077
71689W        W44114  11.265  28.505   3.994
71690W        W44115  35.862  17.145  10.784
71691W        W44116  14.626  23.491   3.168
71692W        W44117  10.321  30.019   0.855
71693W        W44118  32.960  30.127  13.840
71694W        W44119  16.269  18.079   1.879
71695W        W44120  28.534  38.135   1.920
71696W        W44121  18.653  10.748   3.806
71697W        W44122  30.956  37.534   1.381
71698W        W44123  27.120   7.223   1.838
71699W        W44124   5.762   9.255   4.539
71700W        W44125  32.041  23.015  11.163
71701W        W44126  24.639  17.192   3.676
71702W        W44127  36.821  42.172  14.689
71703W        W44128  42.560  27.650   1.863
71704W        W44129  39.696  30.421   1.191
71705W        W44130   6.095   2.807   4.958
71706W        W44131  37.804  44.444  13.425
71707W        W44132  32.916  25.549   0.636
71708W        W44133  13.775  12.645  11.205
71709W        W44134  37.852   5.844   1.761
71710W        W44135  32.529  15.360   2.497
71711W        W44136   9.169  21.756   0.613
71712W        W44137  23.197  43.722  13.358
71713W        W44138   6.473  42.077  14.406
71714W        W44139   3.971  16.137  14.497
71715W        W44140  10.614  41.549   5.061
71716W        W44141  39.554  32.444   0.294
71717W        W44142  23.097  19.300   1.287
71718W        W44143   4.229  44.953   4.950
71719W        W44144  27.443  43.675  12.138
71720W        W44145  30.601  15.745  11.410
71721W        W44146  32.548  16.792  11.971
71722W        W44147  24.739   1.207   4.274
71723W        W44148   7.355  37.927   4.108
71724W        W44149   1.808   7.338   3.860
71725W        W44150   1.704   7.748  10.736
71726W        W44151  40.019  28.111   4.887
71727W        W44152  17.380  28.578  10.660
71728W        W44153  22.977  21.112  12.513
71729W        W44154  16.454  27.471   3.271
71730W        W44155  41.432   3.198   1.398
71731W        W44156  24.929   9.283  14.121
71732W        W44157  40.079  39.401   0.932
71733W        W44158   5.350  33.127  13.584
71734W        W44159  18.681   1.873   4.174
71735W        W44160  32.953   7.118  10.738
71736W        W44161  11.369  34.906   0.705
71737W        W44162   1.423  39.270   4.212
71738W        W44163  21.210  38.921   1.354
71739W        W44164   8.436  25.046   2.382
71740W        W44165  30.113  12.078  14.827
71741W        W44166   0.730  35.094  13.067
71742W        W44167  22.511  37.496  12.986
71743W        W44168  37.565   3.319  12.943
71744W        W44169  10.958  37.462  14.965
71745W        W44170  41.518  43.538  10.703
71746W        W44171  44.705  11.604  10.853
71747W        W44172   1.234  37.372  11.589
71748W        W44173  21.751  18.066  11.008
71749W        W44174   7.094   8.304   0.747
71750W        W44175  16.689  13.547   0.303
71751W        W44176  20.368  42.402   3.689
71752W        W44177  22.042   8.868  14.829
71753W        W44178  33.401  12.614   1.003
71754W        W44179  30.853  36.614   1.830
71755W        W44180  17.278  20.810  11.619
71756W        W44181  27.146  15.801  14.902
71757W        W44182   9.641   0.941  11.710
71758W        W44183  14.020  27.409   1.734
71759W        W44184  27.120   2.358  11.085
71760W        W44185  36.378   4.643   3.737
71761W        W44186  11.356   7.630  11.503
71762W        W44187  39.438  38.030   3.093
71763W        W44188  14.817  37.905   1.852
71764W        W44189  23.027  25.479   3.624
71765W        W44190  23.295  16.172   3.459
71766W        W44191  14.835  29.683   3.596
71767W        W44192  27.590  23.335   0.809
71768W        W44193   6.964  18.356   4.115
71769W        W44194  23.417  37.073   4.331
71770W        W44195  29.518  37.971  13.501
71771W        W44196  20.450  12.131   5.416
71772W        W44197  14.727  16.520   2.393
71773W        W44198   3.246  23.310   4.010
71774W        W44199  27.558  26.177   2.402
71775W        W44200  17.649  17.604   0.566
71776W        W44201   2.229  20.558  12.954
71777W        W44202  34.392  31.629   1.676
71778W        W44203  33.468  27.777  11.908
71779W        W44204  16.850   5.826  14.910
71780W        W44205  43.207  18.417   3.841
71781W        W44206   6.326  30.371  10.721
71782W        W44207  39.911   5.719   3.283
71783W        W44208  35.988  10.038   3.668
71784W        W44209  19.828   5.264  12.759
71785W        W44210   7.702  22.504   2.071
71786W        W44211  14.580  24.465  10.174
71787W        W44212  19.218  12.523   0.341
71788W        W44213  12.103  17.506  11.043
71789W        W44214  19.572   7.205  12.424
71790W        W44215   4.976  38.038   0.745
71791W        W44216  26.076   4.268  14.384
71792W        W44217  29.618  18.948  13.475
71793W        W44218  22.049  32.446  11.927
71794W        W44219  41.592  22.177   9.506
71795W        W44220   6.968  33.280   1.551
71796W        W44221   5.962  25.576   3.813
71797W        W44222   3.955  38.312  12.559
71798W        W44223  19.734   6.398   2.146
71799W        W44224   9.874   8.388   3.390
71800W        W44225  22.041   5.223  13.411
71801W        W44226  25.825  32.525   4.957
71802W        W44227  20.108  28.756  12.594
71803W        W44228  15.280  44.977  10.889
71804W        W44229  19.951  33.866   3.170
71805W        W44230   1.272  26.117  13.079
71806W        W44231  34.916  11.326   2.100
71807W        W44232  29.478  25.066   4.237
71808W        W44233  37.350  20.088  13.708
71809W        W44234  35.423  12.797  12.033
71810W        W44235  21.939  40.109  11.473
71811W        W44236  20.071  26.406   3.217
71812W        W44237   7.512  25.622  10.682
71813W        W44238  10.683  43.875  10.717
71814W        W44239  37.368  25.121   0.256
71815W        W44240  13.785  29.158   0.772
71816W        W44241   5.590  40.637  12.045
71817W        W44242  14.586  41.860   0.065
71818W        W44243  10.225  25.380   5.273
71819W        W44244  26.983   2.958   2.778
71820W        W44245  12.306  39.402   4.605
71821W        W44246  36.452  24.725  13.492
71822W        W44247  22.685  32.737   2.162
71823W        W44248  42.347  12.899   2.802
71824W        W44249  14.505  38.916  13.686
71825W        W44250  36.418   1.797   0.510
71826W        W44251  28.335  41.778  13.509
71827W        W44252  30.954  33.513   3.086
71828W        W44253   0.682  32.652   4.218
71829W        W44254  10.097  17.656   1.576
71830W        W44255  27.027  30.330  13.301
71831W        W44256  20.273  43.463  11.084
71832W        W44257  33.300   7.750  14.975
71833W        W44258  36.158   4.958   4.650
71834W        W44259  34.517  29.210  13.872
71835W        W44260  37.076  13.016  11.069
71836W        W44261  16.046  33.434   0.475
71837W        W44262  13.590   1.674   5.395
71838W        W44263  30.656  41.834   0.871
71839W        W44264  10.071  21.641  13.892
71840W        W44265  27.681  32.300  10.242
71841W        W44266  26.222   6.193  12.131
71842W        W44267  14.539  30.895   4.226
71843W        W44268  18.558  22.252   0.067
71844W        W44269  25.503  15.589   0.792
71845W        W44270   9.925   7.387   4.107
71846W        W44271  18.114  33.423   2.233
71847W        W44272  35.907  31.629  13.866
71848W        W44273  42.802  10.693   1.145
71849W        W44274  13.767  43.833   2.146
71850W        W44275  36.356   6.970  12.161
71851W        W44276   4.475  16.794  10.709
71852W        W44277  18.959   3.462   3.548
71853W        W44278   9.031  22.354   2.202
71854W        W44279   7.929  43.868   1.061
71855W        W44280   3.491  41.802   2.304
71856W        W44281   5.132  35.971  12.890
71857W        W44282  35.407  33.725   1.277
71858W        W44283  13.725  34.617  11.649
71859W        W44284  38.573  17.602   0.302
71860W        W44285  24.132  29.481   3.296
71861W        W44286  39.529  24.290   4.181
71862W        W44287  32.409  37.003   3.010
71863W        W44288   9.953   9.842   0.337
71864W        W44289   4.960  12.458  11.959
71865W        W44290   5.393  23.181  13.937
71866W        W44291  24.193  28.604   0.189
71867W        W44292  30.434  13.829  13.448
71868W        W44293   5.214  17.949  13.964
71869W        W44294  30.519  14.614  12.631
71870W        W44295  31.507  28.063   1.902
71871W        W44296  41.751  36.778   0.564
71872W        W44297  37.565  35.357  12.530
71873W        W44298  31.556  23.504   0.873
71874W        W44299  32.122  13.064   3.594
71875W        W44300  17.533  22.796  11.673
71876W        W44301   4.839  28.396  12.619
71877W        W44302   9.317  23.397   5.099
71878W        W44303  20.568  24.271  11.643
71879W        W44304  38.547  38.536   2.189
71880W        W44305  22.309  32.851   4.543
71881W        W44306  39.958  12.900  12.485
71882W        W44307   7.971   2.626   0.862
71883W        W44308  43.451   3.386   3.726
71884W        W44309  30.251   3.752   4.522
71885W        W44310   5.380  26.135  14.252
71886W        W44311  38.404  23.703   4.466
71887W        W44312   4.538   1.297   2.706
71888W        W44313  22.947  37.912  14.065
71889W        W44314  36.545  28.091  14.051
71890W        W44315  31.835  37.489  10.745
71891W        W44316  17.059  30.115   2.579
71892W        W44317  19.066   5.757  11.246
71893W        W44318  33.128  31.097   0.916
71894W        W44319  40.375  10.381  10.724
71895W        W44320  20.622   2.076   1.345
71896W        W44321  43.835  22.053   1.590
71897W        W44322  43.775  26.638   1.317
71898W        W44323  11.635  29.369   1.763
71899W        W44324  43.298  31.666  14.536
71900W        W44325  12.588  28.284   3.765
71901W        W44326  25.940  26.173   3.287
71902W        W44327  21.074  10.540  10.092
71903W        W44328  37.469  18.763  10.924
71904W        W44329  28.893  35.475   2.907
71905W        W44330   4.244   3.472  11.890
71906W        W44331   6.569  13.765   2.741
71907W        W44332  13.303  27.159   1.230
71908W        W44333  22.280  41.942  14.020
71909W        W44334  11.218  29.406  12.864
71910W        W44335  42.521  33.245  11.230
71911W        W44336  27.112   1.899   1.809
71912W        W44337  12.720   7.970   3.027
71913W        W44338  28.578  37.354   4.699
71914W        W44339  19.486   0.598  12.167
71915W        W44340  11.325  21.489  11.558
71916W        W44341   2.248  12.670   2.835
71917W        W44342   4.921   1.504  12.011
71918W        W44343  14.722  32.066  14.058
71919W        W44344  39.028  36.393   2.174
71920W        W44345  40.325  19.979  12.483
71921W        W44346  36.087  30.146   1.431
71922W        W44347  39.048  36.548   3.374
71923W        W44348  41.070  35.968  13.867
71924W        W44349  39.178  37.181  10.640
71925W        W44350  17.841  39.346  10.712
71926W        W44351  36.205   5.023   0.298
71927W        W44352   3.764   5.769   2.177
71928W        W44353  23.957  14.988  12.942
71929W        W44354  24.944  25.225   1.183
71930W        W44355  30.959  37.548  12.077
71931W        W44356  33.520  41.307  13.111
71932W        W44357  23.136  29.965  12.020
71933W        W44358  18.750  25.691   4.606
71934W        W44359  12.863  26.590   2.194
71935W        W44360  33.895  38.168  13.436
71936W        W44361  18.223  29.892   0.505
71937W        W44362   6.850  40.058  14.858
71938W        W44363  37.638  42.313  12.017
71939W        W44364  37.946  39.769  12.603
71940W        W44365  20.573  42.357  11.661
71941W        W44366  31.608  19.615  12.996
71942W        W44367  10.266  13.778   4.234
71943W        W44368  44.221  33.596   0.333
71944W        W44369   2.406  20.333   1.284
71945W        W44370  40.958  42.367   4.149
71946W        W44371  17.649  40.593  13.081
71947W        W44372  43.048  42.925  12.113
71948W        W44373  32.644  44.910  14.860
71949W        W44374  27.769  10.073  11.291
71950W        W44375  39.479  12.097  12.583
71951W        W44376  10.810  20.310  10.959
71952W        W44377  32.524  27.063  14.350
71953W        W44378   2.190  15.369   2.425
71954W        W44379  19.170  43.765  10.847
71955W        W44380  20.710  13.666  11.143
71956W        W44381  42.591  13.650   3.836
71957W        W44382  37.472  20.514  10.884
71958W        W44383  37.898  30.730  11.859
71959W        W44384   2.812   7.427  12.795
71960W        W44385  12.735  36.316   1.778
71961W        W44386  24.720  32.373  13.786
71962W        W44387  18.603  21.020  11.859
71963W        W44388   5.209   0.920   2.226
71964W        W44389  32.452   1.294  11.447
71965W        W44390  19.000  41.825  11.050
71966W        W44391   5.801  37.001   4.650
71967W        W44392   0.604  10.825  13.073
71968W        W44393  25.574  18.841   2.963
71969W        W44394  36.605   2.464   0.023
71970W        W44395  13.085  32.953   4.988
71971W        W44396   9.632   0.920   3.250
71972W        W44397  37.446   7.344  11.549
71973W        W44398  38.842  26.604  11.425
71974W        W44399   8.502  28.994  11.984
71975W        W44400  19.132  10.303  10.725
71976W        W44401  44.563   2.864   0.018
71977W        W44402   8.030  10.493  10.376
71978W        W44403   6.938  44.440   0.862
71979W        W44404  29.834  24.714   9.875
71980W        W44405  22.308   9.217  10.193
71981W        W44406  38.949   5.039   1.701
71982W        W44407  13.763  20.596   3.223
71983W        W44408  24.077  42.861  13.449
71984W        W44409  15.172  19.312  10.557
71985W        W44410  43.504  28.899   1.142
71986W        W44411  12.612  44.779   3.282
71987W        W44412  23.721  40.071   0.431
71988W        W44413  16.165  35.323  14.348
71989W        W44414  11.430   6.336   2.458
71990W        W44415   9.366  18.892   0.853
71991W        W44416  27.408  27.154   3.800
71992W        W44417  32.798  13.000   2.860
71993W        W44418   8.928  29.037  13.850
71994W        W44419  24.254  30.804   1.325
71995W        W44420  13.249  14.196  10.869
71996W        W44421   0.785  43.754   0.714
71997W        W44422  37.924   6.330   0.357
71998W        W44423   9.845  20.377   3.002
71999W        W44424   6.840  22.444   0.617
72000W        W44425  34.019   2.431   0.543
72001W        W44426  19.462  17.601  13.914
72002W        W44427  29.080  16.596   1.386
72003W        W44428  15.315  39.873  10.702
72004W        W44429  13.133  26.488   4.045
72005W        W44430   2.828   3.333   1.829
72006W        W44431  28.550  13.396   1.338
72007W        W44432   7.679  26.063   0.695
72008W        W44433  13.262  16.903  10.736
72009W        W44434  12.680  10.195   0.021
72010W        W44435  36.294  31.472   4.621
72011W        W44436  14.513   2.685  12.402
72012W        W44437  23.756  32.065  11.545
72013W        W44438  23.733   6.215  11.253
72014W        W44439  41.057   3.919   3.470
72015W        W44440  19.508  42.312   3.520
72016W        W44441  41.391  16.071   4.088
72017W        W44442  29.642  41.505   5.069
72018W        W44443  17.159  24.121  12.840
72019W        W44444  39.240  31.469   1.824
72020W        W44445  35.976  38.123   4.076
72021W        W44446  36.479  26.465   1.033
72022W        W44447  13.776  26.210   3.411
72023W        W44448  24.195   2.215  13.338
72024W        W44449  15.060   3.194  14.826
72025W        W44450  13.450   1.056   9.824
72026W        W44451  12.340  14.025  11.311
72027W        W44452  23.581  34.978   0.858
72028W        W44453   5.246  12.254   3.819
72029W        W44454  24.864   8.240   3.760
72030W        W44455   1.721  14.299   1.800
72031W        W44456   3.145  22.710  14.041
72032W        W44457  30.161  38.016  11.491
72033W        W44458  37.236  24.511   2.663
72034W        W44459  16.881  25.643  14.892
72035W        W44460  31.547  37.847  14.785
72036W        W44461  23.069  21.059   1.842
72037W        W44462  34.555   4.155  10.630
72038W        W44463  39.890  43.465  11.225
72039W        W44464  10.999  37.929  13.493
72040W        W44465   4.973   9.934   0.995
72041W        W44466  29.364  40.316   3.204
72042W        W44467  19.822  12.806  10.744
72043W        W44468  15.007  42.957   1.780
72044W        W44469  24.453  27.671  10.725
72045W        W44470  28.076  24.790  14.215
72046W        W44471  36.282  22.225  13.002
72047W        W44472  17.249  28.470   2.240
72048W        W44473  41.335  28.074   1.857
72049W        W44474   9.381  25.045   0.433
72050W        W44475   0.041   3.727   4.889
72051W        W44476  43.261  36.782   1.262
72052W        W44477  28.560  23.079   4.223
72053W        W44478  33.393  34.642  12.301
72054W        W44479  40.299  21.628  12.056
72055W        W44480  44.467  20.190   0.235
72056W        W44481  11.271   9.306  13.897
72057W        W44482  19.188  32.490  14.786
72058W        W44483  39.467  37.812   3.559
72059W        W44484  11.392  10.408   4.759
72060W        W44485   7.692   0.447   0.746
72061W        W44486  24.681  40.469   3.831
72062W        W44487  14.758  12.900   0.345
72063W        W44488  43.661  41.929  14.955
72064W        W44489  13.647  40.461   1.364
72065W        W44490   9.995  22.531  12.391
72066W        W44491  10.046  18.088   1.282
72067W        W44492  36.052  43.853   3.242
72068W        W44493  16.541  40.513  12.201
72069W        W44494  41.113   7.135   2.259
72070W        W44495   7.885  27.984  12.436
72071W        W44496  16.702  32.602   3.670
72072W        W44497  15.555   4.177   3.454
72073W        W44498  26.382   4.873   2.687
72074W        W44499  26.206   7.238   0.780
72075W        W44500   2.483  38.077  12.911
72076W        W44501  34.516   2.548  10.715
72077W        W44502  33.481  44.149   4.629
72078W        W44503  44.045   5.923  14.909
72079W        W44504   6.942  43.901  11.725
72080W        W44505  29.920  18.295   1.868
72081W        W44506  11.166   5.990   1.247
72082W        W44507  33.638  30.361   2.207
72083W        W44508  11.797  28.365   4.470
72084W        W44509   4.382  35.532   4.316
72085W        W44510   8.418  38.954   4.247
72086W        W44511  19.195  17.610  10.659
72087W        W44512   4.919  22.264  12.318
72088W        W44513  28.110   8.896  14.041
72089W        W44514   4.976  21.222  14.493
72090W        W44515  23.183  44.575   3.014
72091W        W44516  37.439  24.711   1.758
72092W        W44517  26.511   5.901  12.467
72093W        W44518  33.598  15.346  11.042
72094W        W44519  31.197  38.094   2.511
72095W        W44520  13.276   1.696   0.847
72096W        W44521  28.471  29.528   1.200
72097W        W44522   6.982   3.814   0.219
72098W        W44523  36.900   6.812   2.161
72099W        W44524   3.045  33.241   0.724
72100W        W44525  19.519  44.743   3.700
72101W        W44526   5.309  32.713  13.915
72102W        W44527   1.774  43.396   4.081
72103W        W44528  27.367   9.109   2.715
72104W        W44529  30.490  12.258  11.537
72105W        W44530  26.317  13.373   1.483
72106W        W44531  29.013  35.887  13.804
72107W        W44532   9.315  32.897  12.116
72108W        W44533  38.358  34.688  11.147
72109W        W44534  41.147  42.318  12.257
72110W        W44535  27.534   8.818  13.443
72111W        W44536  11.486  36.339   0.572
72112W        W44537   1.287   6.011   0.984
72113W        W44538  41.852  13.088   2.708
72114W        W44539  37.302  33.925  11.851
72115W        W44540  14.770  22.452   0.610
72116W        W44541  15.235  44.721   0.014
72117W        W44542  22.105  36.323   3.367
72118W        W44543  30.941   9.821  14.913
72119W        W44544   1.292  42.027  10.622
72120W        W44545   0.530   5.102   3.790
72121W        W44546  32.118  38.945  10.689
72122W        W44547  28.212  31.098  13.591
72123W        W44548  33.422  21.399  13.468
72124W        W44549  16.938  22.946   1.780
72125W        W44550  41.934  15.085   1.406
72126W        W44551  28.071  23.052   5.457
72127W        W44552  25.240  36.110  11.102
72128W        W44553  28.075  13.231   3.191
72129W        W44554  12.146  24.277  11.983
72130W        W44555  36.633  34.631   2.302
72131W        W44556  27.729  13.104   4.791
72132W        W44557  30.006   8.090   1.931
72133W        W44558  25.015  31.617  13.279
72134W        W44559   7.373  23.172   3.165
72135W        W44560  30.557  11.879  13.282
72136W        W44561  24.507  40.871   4.117
72137W        W44562   4.595  16.037   1.230
72138W        W44563  11.870  10.644   4.755
72139W        W44564  10.780  27.061   1.000
72140W        W44565  40.952  28.675  11.247
72141W        W44566  42.687  42.584  11.981
72142W        W44567  10.954   0.391   4.219
72143W        W44568  24.984  38.292   2.334
72144W        W44569   1.223   1.748   4.621
72145W        W44570  25.398  24.634  10.458
72146W        W44571   0.270  10.323  13.862
72147W        W44572  24.937   9.087   1.218
72148W        W44573  32.990  15.306   3.791
72149W        W44574  27.228   5.654  12.672
72150W        W44575  20.626   1.793  14.868
72151W        W44576  27.548  12.392  14.645
72152W        W44577  44.521  43.784   0.435
72153W        W44578  13.877  15.412   0.201
72154W        W44579  10.960  34.888   1.029
72155W        W44580  17.377  41.373   1.786
72156W        W44581  22.524  20.750   2.891
72157W        W44582  38.822   1.220   4.236
72158W        W44583  18.137  21.458   0.779
72159W        W44584  33.133  28.921  14.449
72160W        W44585  21.765  24.323   1.392
72161W        W44586  34.820  23.539   1.885
72162W        W44587  23.767  11.420   5.574
72163W        W44588  35.055  27.654   3.033
72164W        W44589  29.157   9.082  13.812
72165W        W44590  39.294  16.644  10.725
72166W        W44591  29.992  16.084  13.422
72167W        W44592  32.384  39.941  13.909
72168W        W44593  26.092  15.827  14.943
72169W        W44594  27.974  39.348   5.219
72170W        W44595  18.486   6.579   3.818
72171W        W44596  39.026  43.392  10.409
72172W        W44597  43.435   7.016   3.832
72173W        W44598  16.696  11.586   0.903
72174W        W44599   5.706  22.484   3.637
72175W        W44600  23.355  28.935  14.276
72176W        W44601  34.571  42.904  14.069
72177W        W44602  22.941   0.923   1.282
72178W        W44603  20.715  43.080  13.085
72179W        W44604  40.837  27.565  14.555
72180W        W44605  20.052  35.496  14.615
72181W        W44606  39.074  39.816   1.423
72182W        W44607  22.611  10.569   0.719
72183W        W44608  33.673  15.316  12.865
72184W        W44609   9.580  36.274  11.110
72185W        W44610  11.725  17.355   4.124
72186W        W44611  13.804  36.334   3.773
72187W        W44612  28.194  33.916  12.535
72188W        W44613  22.487  33.693  11.027
72189W        W44614  19.096  42.524  10.620
72190W        W44615  10.923  37.323   3.991
72191W        W44616   5.030  19.900  11.190
72192W        W44617  18.323  44.700   1.353
72193W        W44618   0.045  16.839  11.975
72194W        W44619   8.385  11.496  13.329
72195W        W44620  32.151  43.725  11.137
72196W        W44621  39.310  39.966   0.932
72197W        W44622  32.633  17.454  11.496
72198W        W44623  20.130  15.062   3.654
72199W        W44624  33.940  40.146   0.292
72200W        W44625  43.887   8.878  12.517
72201W        W44626  11.198   8.422  11.073
72202W        W44627  11.757  26.183   1.005
72203W        W44628  35.065  20.159   4.022
72204W        W44629  14.215   1.943   3.097
72205W        W44630   2.363  34.877   2.583
72206W        W44631  21.943   2.873  13.085
72207W        W44632   4.368   0.903   1.317
72208W        W44633  31.339  26.753   3.216
72209W        W44634  42.900  10.205  14.132
72210W        W44635   2.050  18.116  11.118
72211W        W44636  23.297  25.471  14.830
72212W        W44637  12.320  34.151   4.705
72213W        W44638  13.331  21.733  11.611
72214W        W44639  18.255  15.306  11.156
72215W        W44640  36.803  16.281   1.409
72216W        W44641  12.908  21.949   3.735
72217W        W44642  30.619   7.685  14.041
72218W        W44643   4.767  23.310   5.185
72219W        W44644  31.512  34.164   1.231
72220W        W44645  40.103   9.867   2.748
72221W        W44646  44.012  26.147  14.507
72222W        W44647  44.587  26.470   1.875
72223W        W44648   1.341  32.872   3.738
72224W        W44649   9.857  30.009   4.967
72225W        W44650  13.215   1.716  10.191
72226W        W44651  21.106   6.427   0.230
72227W        W44652  10.935   7.241   4.295
72228W        W44653  38.309  37.129   3.134
72229W        W44654  34.072  12.539  11.869
72230W        W44655  40.278  25.970   2.191
72231W        W44656  31.113  35.039   4.496
72232W        W44657   0.782  24.749  12.892
72233W        W44658  33.398   8.823  14.029
72234W        W44659  12.901  18.271   3.171
72235W        W44660  37.292  27.087   1.821
72236W        W44661  10.072  43.910   0.524
72237W        W44662  30.150  31.595   0.003
72238W        W44663   6.446  38.956  12.388
72239W        W44664  13.809   5.945   2.746
72240W        W44665  10.916   6.729   1.689
72241W        W44666  17.345   2.872   1.285
72242W        W44667  10.346  24.616   3.624
72243W        W44668  34.836  15.214  12.423
72244W        W44669  30.364  30.002  10.630
72245W        W44670  36.400  19.408  12.889
72246W        W44671  16.233  19.559   2.975
72247W        W44672  29.463  19.291  11.062
72248W        W44673  26.574  17.106  12.099
72249W        W44674   5.483  37.959   4.987
72250W        W44675  34.913   0.260   2.898
72251W        W44676  14.424   8.231  11.543
72252W        W44677  33.110   8.828  14.566
72253W        W44678  14.667  15.096  14.820
72254W        W44679  32.896  37.804  13.469
72255W        W44680  19.121  26.788  13.002
72256W        W44681  15.694  41.237  13.834
72257W        W44682  22.483  14.169   2.410
72258W        W44683  27.240  10.565   1.806
72259W        W44684   9.621  17.101  13.262
72260W        W44685  29.966  41.483   2.813
72261W        W44686  43.883  34.205  11.484
72262W        W44687  27.078  44.753  14.453
72263W        W44688  20.525  11.881   1.185
72264W        W44689  34.331  10.819  11.850
72265W        W44690  36.780  10.260   1.155
72266W        W44691  44.620  10.225  14.977
72267W        W44692  43.995   7.445  11.895
72268W        W44693  38.575   2.435  14.012
72269W        W44694  21.273   3.356  12.463
72270W        W44695  37.342  25.666   0.742
72271W        W44696  19.917   7.826   3.261
72272W        W44697  25.470   2.870   2.712
72273W        W44698  10.766  25.552  13.250
72274W        W44699  36.080   4.364  14.161
72275W        W44700  30.888  17.711  11.077
72276W        W44701  30.446  16.483  14.565
72277W        W44702   8.861  43.871   2.607
72278W        W44703  13.503  36.129   4.162
72279W        W44704   7.937  40.433   0.465
72280W        W44705  43.659   2.874  14.916
72281W        W44706  13.560  15.388   3.661
72282W        W44707  21.901  12.442  11.634
72283W        W44708  17.912  12.132   3.774
72284W        W44709  14.362  39.093   4.506
72285W        W44710  31.265  33.371   4.126
72286W        W44711   1.259  33.389   3.832
72287W        W44712  44.220   3.525  12.893
72288W        W44713  34.916  15.688   2.942
72289W        W44714  31.352  14.641   3.566
72290W        W44715  13.307  19.750  14.935
72291W        W44716  12.160  31.629   1.690
72292W        W44717  23.596  28.792  14.715
72293W        W44718  19.606  12.691   1.128
72294W        W44719   0.517  22.785  14.311
72295W        W44720   3.632   4.245   2.390
72296W        W44721   9.844  17.255   1.293
72297W        W44722  32.948  22.885  14.296
72298W        W44723  44.197  32.049  11.063
72299W        W44724  44.991   5.215   2.258
72300W        W44725  44.226  27.994  14.427
72301W        W44726  21.432  21.122   2.700
72302W        W44727  31.087   1.156  11.126
72303W        W44728   4.211  13.983   4.922
72304W        W44729  15.373   7.507   5.005
72305W        W44730  29.644   5.228   0.982
72306W        W44731  42.070  36.213  11.562
72307W        W44732  39.529  19.150   2.320
72308W        W44733  34.166   3.785   4.567
72309W        W44734  35.217  18.336   3.800
72310W        W44735   2.160  29.230   1.734
72311W        W44736   7.607   7.919  10.779
72312W        W44737  37.577   1.881   0.981
72313W        W44738  20.647  10.583  13.945
72314W        W44739  17.146  11.299   0.235
72315W        W44740  20.735  26.368  14.843
72316W        W44741  22.151  32.828  11.600
72317W        W44742   0.952  20.767  12.552
72318W        W44743  28.880  28.689   3.088
72319W        W44744  38.428  32.375   1.187
72320W        W44745   7.216   9.897   1.233
72321W        W44746  13.602  11.257  10.752
72322W        W44747  17.798  11.768   2.263
72323W        W44748  26.520  27.512   0.672
72324W        W44749  28.516  21.285   0.880
72325W        W44750  19.177  39.865   0.336
72326W        W44751   1.944  13.086   2.292
72327W        W44752  34.482  34.144  12.135
72328W        W44753  15.597  36.385   0.314
72329W        W44754  35.371  44.526   3.112
72330W        W44755   8.781  34.167   1.251
72331W        W44756  29.446   6.280  12.430
72332W        W44757   8.825  20.079  11.700
72333W        W44758  13.423   2.794  10.984
72334W        W44759  39.861   7.107  10.623
72335W        W44760   5.200  28.028  11.119
72336W        W44761   6.874  31.017  14.414
72337W        W44762  41.507  37.037  13.372
72338W        W44763  26.422  28.509   0.794
72339W        W44764  34.045  43.319   0.903
72340W        W44765   0.164  11.099  14.345
72341W        W44766  41.469  21.597   4.334
72342W        W44767  18.541  36.532  11.697
72343W        W44768  21.989   7.116  10.977
72344W        W44769  11.803   3.346  11.960
72345W        W44770  28.439  26.757  14.788
72346W        W44771   0.373  42.924   1.786
72347W        W44772  15.276  21.058  13.922
72348W        W44773  17.101  34.454  14.346
72349W        W44774  19.862  33.053  11.591
72350W        W44775  28.027  14.230   2.366
72351W        W44776  38.834  26.476   4.585
72352W        W44777  39.396  37.946  13.473
72353W        W44778   3.212   9.126   1.899
72354W        W44779  44.471  25.813   3.735
72355W        W44780  37.976  36.497   2.900
72356W        W44781  42.763   0.395   3.279
72357W        W44782  21.548   0.744  13.955
72358W        W44783  27.054   4.811   3.211
72359W        W44784  21.442  20.123   2.754
72360W        W44785  36.852  31.483  14.757
72361W        W44786  19.551  30.201   0.028
72362W        W44787  43.479  14.231  11.616
72363W        W44788  24.165  16.826   0.881
72364W        W44789   0.227   3.820  14.808
72365W        W44790  30.891   4.717  10.611
72366W        W44791   5.722  32.876  12.436
72367W        W44792  23.086  23.385   1.788
72368W        W44793   4.702   5.766   2.623
72369W        W44794  16.752   0.392   4.159
72370W        W44795   0.465  31.256   4.128
72371W        W44796  16.480  10.223   0.872
72372W        W44797   4.689  27.582   1.418
72373W        W44798  18.235  23.084   4.590
72374W        W44799   5.171   6.865   3.518
72375W        W44800   6.002  27.975   1.302
72376W        W44801  42.686  17.226  10.735
72377W        W44802  40.364   7.918  12.870
72378W        W44803  37.290  20.842  14.440
72379W        W44804  14.622  34.824   4.838
72380W        W44805  19.866  19.584  13.414
72381W        W44806   1.707  19.603   2.796
72382W        W44807  38.810  39.054   0.912
72383W        W44808  43.031  19.855   4.485
72384W        W44809  25.717  28.074   3.872
72385W        W44810  24.490  18.603   1.445
72386W        W44811  26.551  30.780   0.354
72387W        W44812  28.417   3.219  10.823
72388W        W44813   0.256  19.896   4.508
72389W        W44814  16.637   7.418   0.491
72390W        W44815  28.617  12.399   3.372
72391W        W44816   2.201  14.084  11.997
72392W        W44817  34.175  14.125  13.431
72393W        W44818  29.778  44.636  10.997
72394W        W44819   2.827  19.717  14.301
72395W        W44820  13.373  26.961   0.309
72396W        W44821   9.960   5.860  10.749
72397W        W44822  33.123   3.616   2.628
72398W        W44823   8.172  34.551   1.081
72399W        W44824  15.372  37.949  12.086
72400W        W44825  23.920  43.386   4.349
72401W        W44826  43.443   0.351  10.675
72402W        W44827  23.550  34.538  10.656
72403W        W44828  32.072  35.589  11.604
72404W        W44829  41.550   8.883   4.144
72405W        W44830  26.231  12.247   0.937
72406W        W44831   9.959   2.400  12.599
72407W        W44832  44.978  39.358  10.674
72408W        W44833  23.118  27.098  12.467
72409W        W44834  26.567  43.576  11.200
72410W        W44835   3.790  22.130  12.064
72411W        W44836  32.132   4.029  13.595
72412W        W44837  14.580  36.315   3.328
72413W        W44838   9.627  38.122   0.500
72414W        W44839  36.848  24.152   0.428
72415W        W44840  16.137  18.203  10.787
72416W        W44841  10.331  27.731   3.793
72417W        W44842  34.281  28.409   3.614
72418W        W44843  24.129   6.847  10.617
72419W        W44844   6.213  21.581  14.295
72420W        W44845   0.823   4.688  10.764
72421W        W44846  27.903  31.578   2.662
72422W        W44847  37.511   0.904   4.081
72423W        W44848  11.907  28.969  13.844
72424W        W44849  12.788  34.476  11.426
72425W        W44850  29.247  30.425  14.935
72426W        W44851   6.727  16.355   0.966
72427W        W44852  39.273  36.123  14.322
72428W        W44853  43.393  42.024   1.009
72429W        W44854  34.617  20.734  12.756
72430W        W44855  21.644  20.029   0.386
72431W        W44856  37.038   8.923  14.907
72432W        W44857  41.425   1.457  14.287
72433W        W44858   2.339  36.435   4.176
72434W        W44859  38.379  42.744   1.202
72435W        W44860   0.282  20.840   4.713
72436W        W44861  26.670  24.431  12.180
72437W        W44862  19.612  13.503   0.495
72438W        W44863  26.610  13.598  11.174
72439W        W44864  42.234   7.383  11.520
72440W        W44865  41.267  14.231  13.551
72441W        W44866   3.602   7.818  12.220
72442W        W44867  31.754  17.010   3.272
72443W        W44868  40.531  15.229  10.684
72444W        W44869  23.177  44.062   0.891
72445W        W44870  16.240  13.941  11.645
72446W        W44871  36.033  18.236  14.963
72447W        W44872   3.916  34.679  11.053
72448W        W44873  16.863  17.724  14.617
72449W        W44874   8.121  20.606  10.880
72450W        W44875  14.839   4.336   4.848
72451W        W44876  16.682  39.424  14.363
72452W        W44877  40.891  29.956  13.757
72453W        W44878   9.100  19.166   0.435
72454W        W44879  38.275  16.234   1.265
72455W        W44880  43.562  40.432  12.490
72456W        W44881  34.209  14.915  12.110
72457W        W44882  30.128  30.640  14.500
72458W        W44883  37.764  26.589  13.819
72459W        W44884  21.848  37.400   1.245
72460W        W44885   0.807  32.507  14.507
72461W        W44886   5.745  22.398  11.988
72462W        W44887   4.724  20.850  11.548
72463W        W44888  11.685  14.311  14.934
72464W        W44889  10.540  19.759  13.986
72465W        W44890  15.640  42.305   1.847
72466W        W44891   0.608  23.827   3.797
72467W        W44892   7.031  41.995   1.853
72468W        W44893  15.046  26.466  11.732
72469W        W44894   9.711  12.757  13.254
72470W        W44895  32.231  15.631  14.771
72471W        W44896  23.087  19.553   0.033
72472W        W44897  39.009   7.412   1.888
72473W        W44898  31.523   8.577  10.726
72474W        W44899  29.077  36.733  14.542
72475W        W44900  10.612  40.510  11.547
72476W        W44901  41.961  19.524  14.479
72477W        W44902  31.825  12.402   0.739
72478W        W44903   6.963  38.960  14.882
72479W        W44904   9.019  25.958   0.757
72480W        W44905  39.412   8.528  13.466
72481W        W44906  39.859   7.857   0.998
72482W        W44907  12.179  19.313  12.363
72483W        W44908  12.276  37.512  11.456
72484W        W44909   9.383   3.283   4.537
72485W        W44910  29.453  32.869   2.360
72486W        W44911   0.935  22.209  14.438
72487W        W44912   7.836  42.333   4.883
72488W        W44913  44.626  20.208  14.699
72489W        W44914   2.840  39.006   0.775
72490W        W44915  27.152  16.470   3.143
72491W        W44916  27.130   5.890  11.090
72492W        W44917  14.309   2.414  11.737
72493W        W44918  44.163  19.614  13.358
72494W        W44919  24.065  40.227  13.821
72495W        W44920   7.393   3.596  10.486
72496W        W44921  26.906  22.229   1.269
72497W        W44922  34.145  35.112  12.168
72498W        W44923  12.257  16.078  14.383
72499W        W44924  20.156  23.513  11.886
72500W        W44925   6.688   3.752   3.118
72501W        W44926  12.352  38.912   3.306
72502W        W44927   3.515  21.041  14.452
72503W        W44928   7.821  32.843  14.261
72504W        W44929   6.964  22.134   3.560
72505W        W44930  16.125  21.193   2.264
72506W        W44931  20.094   5.354  14.871
72507W        W44932  22.674   3.654  14.456
72508W        W44933   0.292  11.334   4.669
72509W        W44934  39.967  28.611   4.142
72510W        W44935  19.015  22.193   0.326
72511W        W44936   8.088  11.535   2.392
72512W        W44937   1.459  44.991  10.746
72513W        W44938  43.500   1.691  12.004
72514W        W44939   7.290   5.384   2.377
72515W        W44940   7.439  37.932  10.652
72516W        W44941  15.769   8.467  10.330
72517W        W44942  16.770  30.069   3.000
72518W        W44943  27.970  38.896   4.090
72519W        W44944  32.673  22.572  10.691
72520W        W44945   8.887  31.195  11.571
72521W        W44946  22.056  27.082  14.774
72522W        W44947   0.442  44.274   3.331
72523W        W44948  14.325   8.655   4.164
72524W        W44949  41.010  29.052   3.836
72525W        W44950  15.310  32.405   1.771
72526W        W44951  11.708  23.325   4.357
72527W        W44952  13.112  41.200  10.205
72528W        W44953  19.043  40.700   4.537
72529W        W44954  38.501  28.416   1.879
72530W        W44955  26.020   9.725  10.402
72531W        W44956  33.533  10.238   4.202
72532W        W44957  43.360  31.876   4.243
72533W        W44958  10.184   8.826  11.923
72534W        W44959  16.602  44.253  12.042
72535W        W44960  40.318  31.316   0.837
72536W        W44961  12.291   7.918   1.777
72537W        W44962  12.568  35.967   4.717
72538W        W44963   7.693   7.257   2.381
72539W        W44964  29.654  27.864   0.068
72540W        W44965  18.057  20.830  13.030
72541W        W44966  28.467  15.218   3.757
72542W        W44967   6.160  24.313   2.744
72543W        W44968  33.528  21.004  10.796
72544W        W44969   0.652  15.622   2.879
72545W        W44970  40.712   8.830  13.678
72546W        W44971  31.415   7.127  12.409
72547W        W44972  36.349  42.886   3.423
72548W        W44973  22.199  29.586   1.286
72549W        W44974  32.389  28.907  11.182
72550W        W44975  32.580  43.038  13.873
72551W        W44976  31.456   8.323   0.480
72552W        W44977  44.149  28.678  11.401
72553W        W44978  28.095  16.564   2.156
72554W        W44979   9.142  15.088   3.258
72555W        W44980  14.778  34.020  10.508
72556W        W44981   3.279  23.167   2.627
72557W        W44982  19.552  39.967  11.425
72558W        W44983  35.401  37.854   2.751
72559W        W44984  17.274   1.261  11.136
72560W        W44985  18.222  34.975   3.152
72561W        W44986  35.449  20.532  12.058
72562W        W44987  41.772  21.443   3.624
72563W        W44988  23.642  34.291   1.339
72564W        W44989  16.091  32.017  11.558
72565W        W44990  39.467  11.136  14.405
72566W        W44991  10.046  12.073  12.993
72567W        W44992  14.169  19.116   4.332
72568W        W44993  42.349  18.114  13.074
72569W        W44994  44.736  38.000   0.263
72570W        W44995  28.568  26.384  11.148
72571W        W44996  36.177  44.870   3.004
72572W        W44997  27.372   9.827   3.211
72573W        W44998  27.961  34.606   3.251
72574W        W44999   2.445  40.121   1.664
72575W        W45000  39.074  22.041   3.658
72576W        W45001  30.823  12.918   0.874
72577W        W45002  30.376  44.668  12.445
72578W        W45003  27.473  11.613   0.755
72579W        W45004  25.018  39.892  12.003
72580W        W45005  15.805  16.086   4.190
72581W        W45006   7.316   6.394  13.931
72582W        W45007  12.699  18.991   1.322
72583W        W45008  40.758  26.173  10.789
72584W        W45009   3.150   7.653   0.495
72585W        W45010  16.524  15.293  14.992
72586W        W45011   6.987   1.651  11.448
72587W        W45012  20.706  12.560   4.535
72588W        W45013  29.857  28.653   0.763
72589W        W45014  38.060  13.220   3.364
72590W        W45015  15.137  14.557   3.427
72591W        W45016   9.276  16.307  14.315
72592W        W45017   5.496  10.667   2.240
72593W        W45018  44.382  26.265  13.457
72594W        W45019  32.823  37.218  12.612
72595W        W45020  13.472   5.302   1.481
72596W        W45021   1.359   9.122  11.201
72597W        W45022  28.676  27.205  12.052
72598W        W45023  18.010  34.969  12.085
72599W        W45024  41.150  37.060  12.994
72600W        W45025   8.146   5.731  10.409
72601W        W45026  13.854   1.498   2.479
72602W        W45027  15.134  19.350  13.017
72603W        W45028  30.206  29.411  12.828
72604W        W45029  30.809  38.171   3.358
72605W        W45030  39.411  37.402   3.887
72606W        W45031   3.776  30.192  14.369
72607W        W45032  33.805  37.900   4.218
72608W        W45033  16.707  18.221   0.464
72609W        W45034  14.033   7.192   4.807
72610W        W45035  23.910  12.251   2.767
72611W        W45036  16.167  21.534   1.718
72612W        W45037  44.713  32.733  11.138
72613W        W45038  44.429  21.782   1.702
72614W        W45039  31.277  34.343   0.571
72615W        W45040   8.856   4.764   3.758
72616W        W45041  16.803  30.340   3.719
72617W        W45042  10.097  41.029   3.203
72618W        W45043  33.946   9.537  11.073
72619W        W45044  21.780  38.989   0.013
72620W        W45045   1.126  18.118   2.667
72621W        W45046  26.100   7.153  12.149
72622W        W45047   8.720   8.388   4.071
72623W        W45048  26.189  20.336   4.539
72624W        W45049  20.665   2.560  12.532
72625W        W45050  34.935  12.673   1.405
72626W        W45051  29.511  31.425  11.576
72627W        W45052  23.298  20.211  14.896
72628W        W45053  17.606  28.984   2.193
72629W        W45054  27.261   9.631  11.999
72630W        W45055  37.657  38.010   0.188
72631W        W45056  16.529  26.179  11.478
72632W        W45057   2.324  22.998   4.738
72633W        W45058  30.594  34.314  11.057
72634W        W45059   3.222  14.738  14.351
72635W        W45060  10.306  34.450  11.172
72636W        W45061  40.388  44.795  14.081
72637W        W45062  21.761  31.695  14.997
72638W        W45063   5.394  38.007   4.491
72639W        W45064   0.444  29.943   1.722
72640W        W45065  37.370  40.240   4.590
72641W        W45066  18.804  17.244  11.915
72642W        W45067  43.390  15.852   1.924
72643W        W45068  19.556  25.945  11.140
72644W        W45069  14.288  44.004  12.434
72645W        W45070   0.731  34.611  13.280
72646W        W45071  39.353  43.850  14.889
72647W        W45072  35.187  27.192  13.479
72648W        W45073  22.717   2.392  14.886
72649W        W45074   0.424  43.871  12.365
72650W        W45075  36.438  24.719   4.237
72651W        W45076  34.971  28.990  12.150
72652W        W45077  17.174   5.007   3.643
72653W        W45078  37.962  38.900   1.395
72654W        W45079  14.170  10.750   3.136
72655W        W45080  38.213  16.805  12.011
72656W        W45081   0.892  13.683   1.668
72657W        W45082  39.738  12.734   0.757
72658W        W45083  41.512  29.792   0.029
72659W        W45084  18.004   8.721  12.680
72660W        W45085   4.902  17.887  11.093
72661W        W45086   5.906  43.206  11.249
72662W        W45087  40.435  40.310   4.634
72663W        W45088  41.905   3.595  11.534
72664W        W45089  39.100  37.560   0.722
72665W        W45090  33.493  41.090   0.453
72666W        W45091  18.725   2.338  12.500
72667W        W45092  31.383   3.219  14.482
72668W        W45093  26.511  30.329   3.606
72669W        W45094  42.740  27.909   1.353
72670W        W45095  20.796   6.711   0.544
72671W        W45096   8.581  17.119   0.801
72672W        W45097  43.308  36.805   3.872
72673W        W45098  28.364  15.700   3.612
72674W        W45099  20.200  17.242   2.613
72675W        W45100  39.058  26.071  13.008
72676W        W45101  26.104   7.261   2.977
72677W        W45102  41.733  34.592  13.906
72678W        W45103   3.945  12.148   1.204
72679W        W45104   6.956  42.505   1.732
72680W        W45105  42.220   0.900   0.991
72681W        W45106  21.443   7.640  11.101
72682W        W45107   5.648   1.832  11.808
72683W        W45108  33.489  34.611  10.909
72684W        W45109  35.481  20.346   0.251
72685W        W45110  32.098  41.313  13.732
72686W        W45111  24.713  38.568  14.383
72687W        W45112   0.076  37.080   1.083
72688W        W45113  22.924  13.861   4.922
72689W        W45114  39.733  18.730  12.159
72690W        W45115   3.215  35.031   3.158
72691W        W45116   7.806  40.825  10.347
72692W        W45117  28.346  41.062   3.641
72693W        W45118  39.481  16.770  12.464
72694W        W45119   3.837  22.440   2.584
72695W        W45120  43.344  30.406   4.457
72696W        W45121  42.448  21.160   1.465
72697W        W45122  31.939   1.912   4.689
72698W        W45123   7.772  10.170   3.199
72699W        W45124   8.287   6.014   4.731
72700W        W45125   8.365   4.167   1.309
72701W        W45126  14.122  11.395   3.724
72702W        W45127  43.256  29.652   3.449
72703W        W45128  36.777  31.153  11.816
72704W        W45129   3.558  34.135   1.667
72705W        W45130  37.516   1.693   2.415
72706W        W45131   7.623  20.126  11.392
72707W        W45132  37.456  27.459  11.023
72708W        W45133  17.582  27.137   0.382
72709ION    NA+45134  17.381   4.116   0.369
72710ION    NA+45135  31.624   5.168   2.690
72711ION    NA+45136  16.533   6.421  12.528
72712ION    NA+45137  26.720  14.120   4.211
72713ION    NA+45138  20.660  26.926   2.774
72714ION    NA+45139  11.380  17.920   1.511
72715ION    NA+45140  16.279   0.973   1.148
72716ION    NA+45141   5.782  41.660   2.980
72717ION    NA+45142  34.375  18.279   0.916
72718ION    NA+45143  13.342  41.921  11.159
72719ION    NA+45144  25.563  43.945  13.571
72720ION    NA+45145  26.547   9.794  14.763
72721ION    NA+45146  42.216  14.588   2.232
72722ION    NA+45147  14.203  21.715  14.409
72723ION    NA+45148  10.056   8.630   5.301
72724ION    NA+45149  11.617   7.793   4.285
72725ION    NA+45150  28.097  19.410  13.196
72726ION    NA+45151  13.777  30.501  10.807
72727ION    NA+45152  44.712  35.043   5.356
72728ION    NA+45153  23.789   0.747  11.477
72729ION    NA+45154  30.947   5.312  12.639
72730ION    NA+45155   2.300  18.514  14.904
72731ION    NA+45156  14.373  14.368   1.150
72732ION    NA+45157  36.671  39.500   3.733
72733ION    NA+45158  36.170  11.426   1.870
72734ION    NA+45159  15.113  20.046   1.532
72735ION    NA+45160  16.273   7.098  11.623
72736ION    NA+45161  15.960   3.742  10.897
72737ION    NA+45162  35.496  10.349   2.508
72738ION    NA+45163  40.642  22.641   4.087
72739ION    NA+45164   4.977  12.011  12.332
72740ION    NA+45165  23.835  27.279   3.539
72741ION    NA+45166   3.743  26.258   0.419
72742ION    NA+45167  36.597  32.832  14.404
72743ION    NA+45168  34.071  19.584  12.745
72744ION    NA+45169  10.059   1.577   2.144
72745ION    NA+45170   9.435  41.138   3.856
72746ION    NA+45171  33.519  37.167  10.690
72747ION    NA+45172  30.204  32.694   2.125
72748ION    NA+45173  10.127  28.182   5.164
72749ION    NA+45174  22.879   7.571  11.146
72750ION    NA+45175   1.289  31.160   1.387
72751ION    NA+45176  28.566   2.035   2.911
72752ION    NA+45177  36.610  35.213  11.148
72753ION    NA+45178  31.283  26.419   3.629
72754ION    NA+45179  28.534  22.323  11.149
72755ION    NA+45180  21.683  20.502   3.996
72756ION    NA+45181  18.854  15.069  13.475
72757ION    NA+45182  44.216   5.127   4.370
72758ION    NA+45183  23.755  27.275   2.125
72759ION    NA+45184  20.982  18.474   0.941
72760ION    NA+45185  16.416   0.082   1.281
72761ION    NA+45186   2.283   5.719   4.711
72762ION    NA+45187  39.626  30.550   2.386
72763ION    NA+45188  17.481  28.564   1.363
72764ION    NA+45189   1.112  29.872   0.045
72765ION    NA+45190   9.287  34.035  13.685
72766ION    NA+45191  28.876  16.415   2.708
72767ION    NA+45192  27.630   6.087  10.415
72768ION    NA+45193   3.192   3.902   4.095
72769ION    NA+45194  13.022   4.016  12.167
72770ION    NA+45195   6.808   5.007  14.711
72771ION    NA+45196  10.067  27.009   0.000
72772ION    NA+45197  34.957  36.285   2.128
72773ION    NA+45198  23.158  31.112   3.739
72774ION    NA+45199   4.014  18.397  13.928
72775ION    NA+45200  28.928   6.256  10.934
72776ION    NA+45201  10.243   5.293   2.773
72777ION    NA+45202  24.013  23.999  13.451
72778ION    NA+45203  32.925  13.699   1.830
72779ION    NA+45204  21.789  14.055  12.422
72780ION    NA+45205  21.373   6.525   1.014
72781ION    NA+45206  21.270   4.116   4.552
72782ION    NA+45207  32.463  17.606  12.365
72783ION    NA+45208   7.371  22.201  13.005
72784ION    NA+45209   3.048   1.371   2.900
72785ION    NA+45210  44.769  13.102   3.802
72786ION    NA+45211  43.300   3.572  11.691
72787ION    NA+45212   7.952  24.033  13.511
72788ION    NA+45213  18.532  15.903   4.493
72789ION    NA+45214   8.592   7.939   2.344
72790ION    NA+45215  43.318   7.442   4.561
72791ION    NA+45216  40.520  26.165   2.702
72792ION    NA+45217  31.613  33.975  10.953
72793ION    NA+45218   9.957  11.823  13.556
72794ION    NA+45219  27.786  34.630   2.410
72795ION    NA+45220   0.293  37.455   1.345
72796ION    NA+45221   5.384  19.495  11.970
72797ION    NA+45222  42.074  37.819   0.413
72798ION    NA+45223  21.316  37.173   2.703
72799ION    NA+45224   3.988   9.795  11.030
72800ION    NA+45225  26.959  28.603   4.388
72801ION    NA+45226  34.847   8.282  13.041
72802ION    NA+45227  11.678  35.897   4.591
72803ION    NA+45228  21.234  41.855   2.927
72804ION    NA+45229  39.208  28.746  13.276
72805ION    NA+45230  21.363   7.563  12.540
72806ION    NA+45231   8.266   4.422   1.852
72807ION    NA+45232  34.576  16.994   1.856
72808ION    NA+45233  35.771  25.061   0.560
72809ION    NA+45234  12.757   5.589   2.871
72810ION    NA+45235  13.908  17.283   2.878
72811ION    NA+45236  44.487  12.589  13.657
72812ION    NA+45237  37.943  30.663  11.341
72813ION    NA+45238   5.092  35.774   3.703
72814ION    NA+45239  44.776  31.260   3.137
72815ION    NA+45240  16.239  31.218  14.730
72816ION    NA+45241  43.298  27.894  11.163
72817ION    NA+45242  38.667  43.356   2.742
72818ION    NA+45243  15.307  26.175   3.705
72819ION    NA+45244  21.404  26.656   1.120
72820ION    NA+45245  26.561  21.162   5.355
72821ION    NA+45246   4.828   2.687  10.925
72822ION    NA+45247  11.213  29.541  13.803
72823ION    NA+45248  25.045  37.743   3.935
72824ION    NA+45249  38.081  25.089  13.883
72825ION    NA+45250  37.717  26.617   2.984
72826ION    NA+45251  17.001  20.700  13.331
72827ION    NA+45252  16.523  13.742  14.267
72828ION    NA+45253  22.078  35.905  11.125
72829ION    NA+45254  32.762  33.523   0.817
72830ION    NA+45255  42.183  11.667  14.006
72831ION    NA+45256  35.478  25.120   1.536
72832ION    NA+45257  36.095   4.518   0.349
72833ION    NA+45258   1.258  18.539  13.502
72834ION    NA+45259  19.229   2.484  12.374
72835ION    NA+45260   6.871  22.741   4.622
72836ION    NA+45261  22.998  14.105   2.219
72837ION    NA+45262  35.454   2.153  10.617
72838ION    NA+45263  25.375  43.403   0.715
72839ION    NA+45264  41.104  17.698   2.827
72840ION    NA+45265  31.459  37.699   3.553
72841ION    NA+45266  18.538   8.328  11.001
72842ION    NA+45267   9.798   0.727  13.005
72843ION    NA+45268   2.969  26.508   3.816
72844ION    NA+45269  27.807  26.262   1.475
72845ION    NA+45270  15.757  21.777  11.531
72846ION    NA+45271  27.493  16.330  12.097
72847ION    NA+45272   3.367   6.854   0.987
72848ION    NA+45273   2.759  22.972  14.522
72849ION    NA+45274  30.855  42.749   1.318
72850ION    NA+45275   7.490  22.506  11.448
72851ION    NA+45276   1.473  25.160  12.322
72852ION    NA+45277  25.334  35.549   0.840
72853ION    NA+45278  15.700  28.838  14.952
72854ION    NA+45279   2.363  41.166   4.026
72855ION    NA+45280  31.880   3.801   3.692
72856ION    NA+45281  15.244  12.931  11.054
72857ION    NA+45282  37.776  33.405   1.062
72858ION    NA+45283  33.274   6.238   2.802
72859ION    NA+45284  13.328   0.111   1.994
72860ION    NA+45285   7.566  40.930  12.303
72861ION    NA+45286  40.131  15.656  12.111
72862ION    NA+45287  12.505  43.963   1.972
72863ION    NA+45288  44.284   1.681  10.956
72864ION    NA+45289  41.123   1.293   4.591
72865ION    NA+45290  44.050  30.987   3.468
72866ION    NA+45291  27.815   0.716  13.966
72867ION    NA+45292  30.035  23.023  11.094
72868ION    NA+45293  11.778  35.429  13.840
72869ION    NA+45294  37.878  33.793   1.825
72870ION    NA+45295  27.082  18.447  11.057
72871ION    NA+45296   6.872   7.380   1.796
72872ION    NA+45297   5.717  41.012   3.491
72873ION    NA+45298  11.580  16.110  13.849
72874ION    NA+45299  35.798  42.947  11.856
72875ION    NA+45300  24.118   3.742  14.626
72876ION    NA+45301  16.887  12.119  12.868
72877ION    NA+45302  42.700  22.513   2.145
72878ION    NA+45303  44.781  35.904  13.959
72879ION    NA+45304   5.950  44.803  12.477
72880ION    NA+45305  21.008   1.320   2.757
72881ION    NA+45306  23.920  10.667   2.531
72882ION    NA+45307  27.107   0.772  12.959
72883ION    NA+45308  44.543  42.744   1.509
72884ION    NA+45309  25.642  21.276   4.141
72885ION    NA+45310   0.910  40.078  14.486
72886ION    NA+45311  26.896  44.961   3.494
72887ION    NA+45312  35.244  11.231  11.612
72888ION    NA+45313   1.387   7.154  10.956
72889ION    NA+45314  20.343  19.089  14.391
72890ION    NA+45315  27.629  37.985   4.050
72891ION    NA+45316  20.256   7.659   9.423
72892ION    NA+45317   4.822  26.611  11.579
72893ION    NA+45318  10.427  37.456   1.691
72894ION    NA+45319  15.511  21.689   3.213
72895ION    NA+45320  16.550  38.589   2.703
72896ION    NA+45321  33.876  21.282  12.247
72897ION    NA+45322  32.279  13.222  14.074
72898ION    NA+45323  15.457  14.243  11.157
72899ION    NA+45324  24.381  42.874  13.011
72900ION    NA+45325  32.388  24.624   4.237
72901ION    NA+45326   9.716  27.082   4.266
72902ION    NA+45327   5.201  37.113  13.661
72903ION    NA+45328  11.845  14.751   2.715
72904ION    NA+45329  14.873   7.524   9.973
72905ION    NA+45330  16.121  27.043   4.472
72906ION    NA+45331  16.743  44.620   3.399
72907ION    NA+45332   3.333   9.312  12.159
72908ION    NA+45333   8.074  41.644  12.119
72909ION    NA+45334  25.041  29.770   3.448
72910ION    NA+45335  18.845  32.241   9.621
72911ION    NA+45336  21.084  28.442   0.076
72912ION    NA+45337  44.001   0.075  13.630
72913ION    NA+45338  33.305  25.598  11.016
72914ION    NA+45339  15.926  44.329   4.677
72915ION    NA+45340  17.030  23.632  14.829
72916ION    NA+45341  18.175  21.640  10.748
72917ION    NA+45342  20.693  44.826   4.706
72918ION    NA+45343  37.708  21.804   4.544
72919ION    NA+45344  21.709  12.855   3.661
72920ION    NA+45345  24.324  31.630  12.266
72921ION    NA+45346  15.322  36.545   4.698
72922ION    NA+45347   2.433   1.283  12.178
72923ION    NA+45348  31.793  19.206   0.163
72924ION    NA+45349  19.249  17.719   2.680
72925ION    NA+45350  13.559  38.385   3.044
72926ION    NA+45351  15.475  43.162   0.770
72927ION    NA+45352  31.350  44.290  11.584
72928ION    NA+45353  29.015   6.642  11.979
72929ION    NA+45354  15.849   2.030   1.183
72930ION    NA+45355  43.259  33.647  12.861
72931ION    NA+45356  28.959  23.999   2.307
72932ION    NA+45357  37.317   8.660  13.642
72933ION    NA+45358  42.610   0.484   1.705
72934ION    NA+45359  30.016  37.924  10.613
72935ION    NA+45360  26.942  11.386   3.212
72936ION    NA+45361  12.715   9.744  14.318
72937ION    NA+45362  28.607  17.116   1.888
72938ION    NA+45363  44.692  21.489  10.993
72939ION    NA+45364  33.369  20.198  11.683
72940ION    NA+45365  30.815  39.869   3.628
72941ION    NA+45366  16.276  38.247  10.827
72942ION    NA+45367  44.741  19.498   4.958
72943ION    NA+45368   8.490  19.541   5.142
72944ION    NA+45369   4.990  25.358   1.206
72945ION    NA+45370  22.056  20.761  12.856
72946ION    NA+45371  28.609   9.778  14.153
72947ION    NA+45372  17.625  20.991   4.048
72948ION    NA+45373  22.529  39.410  11.721
72949ION    NA+45374  11.255  15.041   1.334
72950ION    NA+45375   3.739  25.171  14.343
72951ION    NA+45376  20.578  18.054   2.255
72952ION    NA+45377  15.745  10.208   3.895
72953ION    NA+45378  35.417   6.501  13.548
72954ION    NA+45379   5.367  12.678  14.627
72955ION    NA+45380  18.362   9.575   3.147
72956ION    NA+45381  28.198  17.858   2.226
72957ION    NA+45382  17.831  24.659  12.974
72958ION    NA+45383  24.294  17.214  12.563
72959ION    NA+45384   0.197  32.389  13.631
72960ION    NA+45385  35.925  34.247   3.159
72961ION    NA+45386   5.277   6.989   2.468
72962ION    NA+45387  24.719  24.607  13.916
72963ION    NA+45388  33.473  26.907   2.239
72964ION    NA+45389  25.582  19.529   4.578
72965ION    NA+45390  12.240  39.758   1.175
72966ION    NA+45391  14.054  30.201  12.071
72967ION    NA+45392  16.434  15.319   1.290
72968ION    NA+45393  19.604   9.774  13.967
72969ION    NA+45394  36.003  26.640   0.883
72970ION    NA+45395   2.383  10.577   4.576
72971ION    NA+45396  21.801  16.094  10.478
72972ION    NA+45397  43.580  35.809   4.184
72973ION    NA+45398  43.000   1.665   4.091
72974ION    NA+45399  16.760  43.276   0.818
72975ION    NA+45400  18.113   1.236  13.399
72976ION    NA+45401   9.160  22.629  13.761
72977ION    NA+45402   6.200  11.091  12.311
72978ION    NA+45403  32.942   7.704  11.972
72979ION    NA+45404  24.471  15.081  12.942
72980ION    NA+45405  41.818  32.420   3.200
72981ION    NA+45406  12.520  34.368  10.975
72982ION    NA+45407  43.371  31.092  11.891
72983ION    NA+45408  36.456  16.153  11.968
72984ION    NA+45409   0.878  31.809  14.180
72985ION    NA+45410   7.563  13.762  13.173
72986ION    NA+45411  19.638  37.343   3.837
72987ION    NA+45412   4.606  16.226  13.636
72988ION    NA+45413  28.582   3.823   0.445
72989ION    NA+45414   4.668  17.937  14.603
72990ION    NA+45415   2.958  25.173   4.206
72991ION    NA+45416  23.756  30.431   2.173
72992ION    NA+45417   4.062   5.297   3.982
72993ION    NA+45418  39.899  27.144   2.090
72994ION    NA+45419  17.236  19.615  14.118
72995ION    NA+45420  36.397   5.312   5.658
72996ION    NA+45421  14.187  14.076  12.379
72997ION    NA+45422  10.144  41.767   2.773
72998ION    NA+45423  17.267   8.866   4.079
72999ION    NA+45424  42.917   6.442  10.912
73000ION    NA+45425  31.934  26.475   1.160
73001ION    NA+45426  30.491   3.383  10.603
73002ION    NA+45427  38.542  28.836  10.878
73003ION    NA+45428   6.300  40.744   2.090
73004ION    NA+45429  26.446  25.678   3.744
73005ION    NA+45430  43.529  15.575  14.928
73006ION    NA+45431  16.112  37.830   1.327
73007ION    NA+45432  23.003  39.177   4.152
73008ION    NA+45433   3.329  33.838   1.999
73009ION    NA+45434  41.086  19.222  12.546
73010ION    NA+45435  35.775   3.287  10.651
73011ION    NA+45436  44.702   8.204   0.658
73012ION    NA+45437  12.727  28.775   3.730
73013ION    NA+45438  41.080  14.603  13.048
73014ION    NA+45439  18.775  14.181   2.057
73015ION    NA+45440  21.733  34.386  13.464
73016ION    NA+45441  30.580  16.158   0.971
73017ION    NA+45442  25.735  41.302   0.751
73018ION    NA+45443  12.175   0.368   3.614
73019ION    NA+45444  43.815   9.224   1.720
73020ION    NA+45445  36.491   6.847  14.884
73021ION    NA+45446  26.828  13.139  13.318
73022ION    NA+45447  34.708  36.411  14.396
73023ION    NA+45448  12.829  28.084  13.906
73024ION    NA+45449  30.011   6.667   3.741
73025ION    NA+45450   6.008  10.175   4.140
73026ION    NA+45451  10.902  35.888  11.086
73027ION    NA+45452   8.287  30.393   0.385
73028ION    NA+45453  22.644  20.117  13.347
73029ION    NA+45454  26.358  13.291   5.429
73030ION    NA+45455  13.574   6.176  11.208
73031ION    NA+45456  29.825  25.098   1.978
73032ION    NA+45457   2.211   0.240   4.118
73033ION    NA+45458  37.638   6.423   4.867
73034ION    NA+45459   3.223  35.342   1.934
73035ION    NA+45460  12.796  41.617  12.220
73036ION    NA+45461  13.191   1.205  11.070
73037ION    NA+45462  28.159  25.022   2.900
73038ION    NA+45463  41.748  17.371  13.458
73039ION    NA+45464  36.443  22.141  12.517
73040ION    NA+45465  22.197  26.712  11.700
73041ION    NA+45466  31.881  10.957  10.915
73042ION    NA+45467   7.101  33.638   2.378
73043ION    NA+45468  40.875  31.470  13.015
73044ION    NA+45469  27.547  15.794   1.871
73045ION    NA+45470   0.196  39.075  14.270
73046ION    NA+45471   6.874  11.301   3.813
73047ION    NA+45472  22.536  41.015   2.150
73048ION    NA+45473  25.595  21.313  14.169
73049ION    NA+45474  35.927  21.497  12.894
73050ION    NA+45475  28.576  39.802   2.726
73051ION    NA+45476  18.422  17.282  13.686
73052ION    NA+45477  40.920  15.108  14.821
73053ION    NA+45478   8.564  20.716  10.667
73054ION    NA+45479  33.321  28.659   3.603
73055ION    NA+45480  32.575  18.996   0.921
73056ION    NA+45481  38.609   3.236  14.397
73057ION    NA+45482  27.033  10.384   9.906
73058ION    NA+45483  11.453  34.260  10.699
73059ION    NA+45484  34.635  32.424   3.781
73060ION    NA+45485  44.479   9.579  13.952
73061ION    NA+45486   1.528  18.065  12.532
73062ION    NA+45487  34.108   3.865   4.063
73063ION    NA+45488  26.706  41.654   1.689
73064ION    NA+45489   6.060  11.679  11.635
73065ION    NA+45490   2.975  23.166   1.392
73066ION    NA+45491  31.179   2.727  12.911
73067ION    NA+45492  20.008  14.168   5.339
73068ION    NA+45493  23.801   6.866   1.944
73069ION    NA+45494  37.575   3.168   1.223
73070ION    NA+45495  36.988  20.943  13.428
73071ION    NA+45496  12.766  17.718  14.256
73072ION    NA+45497  27.467   4.506   0.218
73073ION    NA+45498  23.723   1.229  13.810
73074ION    NA+45499  26.675  43.896   1.286
73075ION    NA+45500  27.899  31.570  12.447
73076ION    NA+45501  19.770  44.227  12.780
73077ION    NA+45502  21.236  35.996   1.945
73078ION    NA+45503  31.902   3.721   0.055
73079ION    NA+45504  12.502  24.131   5.482
73080ION    NA+45505  24.135  13.153  13.532
73081ION    NA+45506   9.373  25.154  14.901
73082ION    NA+45507  36.018   8.651  13.768
73083ION    NA+45508  19.886  26.474  12.273
73084ION    NA+45509  11.246   7.034   4.643
73085ION    NA+45510  10.060  41.138  11.304
73086ION    NA+45511   9.758   8.385   0.895
73087ION    NA+45512  11.780  17.029   2.215
73088ION    NA+45513   9.770  29.948  13.659
73089ION    NA+45514  42.048  13.176   0.675
73090ION    NA+45515  34.650   8.192   2.647
73091ION    NA+45516  18.230  15.836   1.022
73092ION    NA+45517  30.355   9.969  13.519
73093ION    NA+45518  21.958  39.407  14.776
73094ION    NA+45519  15.959  33.109   3.177
73095ION    NA+45520   9.510  40.136   3.675
73096ION    NA+45521  18.913  34.208   0.763
73097ION    NA+45522  16.792  23.433   1.957
73098ION    NA+45523  23.055   8.455  11.040
73099ION    NA+45524   9.000  16.417  12.147
73100ION    NA+45525  15.538   2.508   4.755
73101ION    NA+45526   5.432   0.017   1.313
73102ION    NA+45527  15.000  18.838  12.783
73103ION    NA+45528  22.630  41.283  10.855
73104ION    NA+45529   7.220  39.961  12.672
73105ION    NA+45530  24.059   7.645  12.623
73106ION    NA+45531  26.648  38.702   0.093
73107ION    NA+45532  35.511  16.637   0.840
73108ION    NA+45533  38.430  43.034  13.557
73109ION    NA+45534  28.179  15.068   1.597
73110ION    NA+45535  38.344   4.161   3.092
73111ION    NA+45536  22.912  19.451  11.181
73112ION    NA+45537  10.702  20.287   2.547
73113ION    NA+45538   8.197  31.176   3.489
73114ION    NA+45539  37.733  18.082   3.608
73115ION    NA+45540  42.696  28.446   3.838
73116ION    NA+45541  21.018  26.413  13.305
73117ION    NA+45542   4.432   9.820   2.591
73118ION    NA+45543  33.950  33.261  13.696
73119ION    NA+45544  15.025  22.129  12.113
73120ION    NA+45545  13.082   4.574   5.558
73121ION    NA+45546  10.839  14.956  12.180
73122ION    NA+45547  17.565  19.680   4.432
73123ION    NA+45548  21.014  41.714   3.783
73124ION    NA+45549  11.845  29.971  10.741
73125ION    NA+45550  18.942  23.721   4.349
73126ION    NA+45551  38.807  11.264   1.586
73127ION    NA+45552   1.717  33.532  10.995
73128ION    NA+45553  18.823  37.091   1.927
73129ION    NA+45554  29.709  13.693   1.401
73130ION    NA+45555  44.762   9.780  12.453
73131ION    NA+45556  25.559   4.690   3.281
73132ION    NA+45557   1.384   3.800   1.219
73133ION    NA+45558  15.123   0.706  13.192
73134ION    NA+45559  27.950  13.306   0.512
73135ION    NA+45560  42.196   9.616  14.882
73136ION    NA+45561  21.690   5.985   4.240
73137ION    NA+45562  36.017  21.737  14.070
73138ION    NA+45563  35.320  13.053   1.239
73139ION    NA+45564   1.372   1.286   4.766
73140ION    NA+45565  39.979  31.379  14.977
73141ION    NA+45566  32.251  27.950   1.273
73142ION    NA+45567  39.879  14.551  10.585
73143ION    NA+45568  23.804  36.795  12.084
73144ION    NA+45569  20.409  12.951   3.980
73145ION    NA+45570  29.052  26.839  11.898
73146ION    NA+45571   1.330  30.467   4.054
73147ION    NA+45572  17.349  29.664   2.573
73148ION    NA+45573  37.929  36.004  14.361
73149ION    NA+45574  15.828   9.620  13.516
73150ION    NA+45575  30.172   7.897   2.391
73151ION    NA+45576  32.864  29.778   0.648
73152ION    NA+45577  34.530   6.865   5.006
73153ION    NA+45578  30.828   7.383   2.955
73154ION    NA+45579   4.925  17.285   2.897
73155ION    NA+45580  38.165  41.314  11.468
73156ION    NA+45581  30.202  38.186  14.960
73157ION    NA+45582  11.581   3.496  13.213
73158ION    NA+45583  16.462  15.109  11.214
73159ION    NA+45584  13.292  24.622   1.886
73160ION    NA+45585   0.070  44.559   3.120
73161ION    NA+45586   1.242   2.798  10.676
73162ION    NA+45587  23.022   3.364  14.090
73163ION    NA+45588  35.138   0.652   3.801
73164ION    NA+45589  40.524  36.949  11.029
73165ION    NA+45590  11.718   2.129   4.101
73166ION    NA+45591  18.763  24.256   2.193
73167ION    NA+45592  41.518   4.336  11.926
73168ION    NA+45593   6.026   6.225   3.234
73169ION    NA+45594  10.710  10.630   0.972
73170ION    NA+45595  36.495  27.660   3.542
73171ION    NA+45596  16.366   3.037   3.337
73172ION    NA+45597  33.763  34.209   2.716
73173ION    NA+45598  34.603  26.041  14.814
73174ION    NA+45599   4.460  18.160   3.039
73175ION    NA+45600   2.413  22.623  11.228
73176ION    NA+45601  35.795  12.373   2.912
73177ION    NA+45602  32.605  22.926  13.897
73178ION    NA+45603  35.916  37.868  11.197
73179ION    NA+45604  11.522  18.833  12.680
73180ION    NA+45605  19.011  28.687  14.354
73181ION    NA+45606  30.491  25.785   1.685
73182ION    NA+45607  11.771  43.880   1.589
73183ION    NA+45608  10.924  26.810  10.338
73184ION    NA+45609  14.558  13.440  11.828
73185ION    NA+45610  18.609  11.916  12.626
73186ION    NA+45611  37.003  37.843   0.832
73187ION    NA+45612   8.245  25.550   4.408
73188ION    NA+45613  37.469  38.054   2.622
73189ION    NA+45614  22.617  38.198  12.470
73190ION    NA+45615  29.560  25.819  11.888
73191ION    NA+45616   8.086  29.166  14.779
73192ION    NA+45617  44.488  34.054   2.728
73193ION    NA+45618  20.657  34.071  14.818
73194ION    NA+45619  38.533  16.931   2.650
73195ION    NA+45620  35.464  28.620   4.312
73196ION    NA+45621  20.421  33.555  12.340
73197ION    NA+45622  28.159   0.633   1.970
73198ION    NA+45623  17.519  18.704  12.131
73199ION    NA+45624  35.745  30.597  12.843
73200ION    NA+45625  33.617  27.994  14.413
73201ION    NA+45626  36.412   6.654   2.808
73202ION    NA+45627   8.541  22.599  12.352
73203ION    NA+45628  34.516  19.672   4.111
73204ION    NA+45629  15.369   3.476  11.370
73205ION    NA+45630   5.138  22.507   1.701
73206ION    NA+45631   8.055  16.682   0.255
73207ION    NA+45632  29.892  22.998   3.712
73208ION    NA+45633   0.503   4.613   2.861
73209ION    NA+45634  35.621  25.147   4.405
73210ION    NA+45635  34.435  33.237   4.111
73211ION    NA+45636  31.577  29.633   1.694
73212ION    NA+45637  26.917  43.290  14.302
73213ION    NA+45638  44.825   3.087  14.329
73214ION    NA+45639  20.867  32.283   2.894
73215ION    NA+45640   1.510  17.593  14.346
73216ION    NA+45641   7.985   4.191  14.276
73217ION    NA+45642  27.099   5.488  11.700
73218ION    NA+45643  25.011  28.720   2.489
73219ION    NA+45644  34.045  44.307   3.202
73220ION    NA+45645   2.562   7.937   1.514
73221ION    NA+45646   4.911  44.577   2.898
73222ION    NA+45647  39.601   9.085  12.687
73223ION    NA+45648  28.279  18.381  13.427
73224ION    NA+45649  35.258  17.772   3.423
73225ION    NA+45650  19.685  16.692  12.694
73226ION    NA+45651  29.220  42.072  13.215
73227ION    NA+45652  15.373  29.320  12.389
73228ION    NA+45653   1.235  19.043  10.802
73229ION    NA+45654  32.014  28.951   3.835
73230ION    NA+45655  15.881   0.787  13.839
73231ION    NA+45656   4.516  40.770  13.895
73232ION    NA+45657   0.994  39.441   1.465
73233ION    NA+45658   1.518   3.986  13.486
73234ION    NA+45659  32.399   0.268  13.002
73235ION    NA+45660  16.012  42.810   0.140
73236ION    NA+45661  31.567  39.369   5.342
73237ION    NA+45662  35.674   9.401   0.343
73238ION    NA+45663  34.384  35.565   0.274
73239ION    NA+45664  21.732  42.389   3.611
73240ION    NA+45665  14.353  40.204   2.485
73241ION    NA+45666  27.075  22.135   3.888
73242ION    NA+45667  17.040   1.678   0.119
73243ION    NA+45668  10.060  36.513   0.292
73244ION    NA+45669  26.004  23.495  11.813
73245ION    NA+45670  31.386  20.100   4.271
73246ION    NA+45671  10.889  31.581   4.216
73247ION    NA+45672  24.132   8.096   3.149
73248ION    NA+45673  15.961  28.685   4.584
73249ION    NA+45674  35.531  25.094  11.658
73250ION    NA+45675  18.291  42.283   2.738
73251ION    NA+45676  23.800  41.521   4.523
73252ION    NA+45677  42.040  13.281  10.874
73253ION    NA+45678   0.731  16.180   1.492
73254ION    NA+45679  38.523  29.096  14.466
73255ION    NA+45680  18.924  39.753   2.904
73256ION    NA+45681   4.044  24.543   1.384
73257ION    NA+45682   6.314  15.911   5.194
73258ION    NA+45683  15.197  10.202  14.028
73259ION    NA+45684  31.402  30.537  12.374
73260ION    NA+45685  42.896  39.543   0.418
73261ION    NA+45686   7.342   8.969   4.689
73262ION    NA+45687  38.276   7.934   3.137
73263ION    NA+45688  28.995  14.751   0.663
73264ION    NA+45689  16.459  24.238   1.666
73265ION    NA+45690  32.833   9.431   4.565
73266ION    NA+45691   7.988  36.031  13.916
73267ION    NA+45692   2.451  30.092  14.891
73268ION    NA+45693  19.980  29.959  14.840
73269ION    NA+45694  29.066  38.442  10.818
73270ION    NA+45695  36.430   3.232  12.978
73271ION    NA+45696  13.066  38.441  12.067
73272ION    NA+45697  21.457  39.858   3.696
73273ION    NA+45698   1.617  43.002  11.370
73274ION    NA+45699  16.151  28.575  13.865
73275ION    NA+45700  22.245  38.335   1.713
73276ION    NA+45701  40.080  40.129  14.028
73277ION    NA+45702  41.420  26.782   3.667
73278ION    NA+45703  14.317   8.725   3.297
73279ION    NA+45704  16.933  37.948  12.418
73280ION    NA+45705   1.728  14.442  10.948
73281ION    NA+45706   3.355  37.832  13.099
73282ION    NA+45707  36.118  24.889  14.639
73283ION    NA+45708  39.763  19.629   2.221
73284ION    NA+45709  18.253  19.585  11.128
73285ION    NA+45710  35.576  19.120   0.749
73286ION    NA+45711  21.380   3.800   0.838
73287ION    NA+45712  37.893  21.594   3.526
73288ION    NA+45713  18.023  23.273   3.090
73289ION    NA+45714  16.839  13.654   4.168
73290ION    NA+45715  30.207   5.934  12.045
73291ION    NA+45716   0.763  17.688   0.004
73292ION    NA+45717   5.633  31.872   2.582
73293ION    NA+45718  12.224  43.224   1.672
73294ION    NA+45719  43.850  42.689  12.701
73295ION    NA+45720  26.808  40.643  13.375
73296ION    NA+45721   3.178   8.660   3.892
73297ION    NA+45722  29.001  40.284  11.798
73298ION    NA+45723   9.832  29.848  12.666
73299ION    NA+45724  31.744  15.493   3.858
73300ION    NA+45725  24.726  16.933   0.240
73301ION    NA+45726  18.033  16.209  14.847
73302ION    NA+45727  17.724   3.856   1.643
73303ION    NA+45728  17.999  10.754   3.646
73304ION    NA+45729  13.067   8.049  12.922
73305ION    NA+45730   9.278  35.245  14.951
73306ION    NA+45731  13.916  13.135  11.069
73307ION    NA+45732  25.000  33.063   3.745
73308ION    NA+45733   7.434  12.847   5.280
73309ION    NA+45734  12.216  31.195  14.866
73310ION    NA+45735  23.281  39.581  11.084
73311ION    NA+45736  42.233  12.554  13.813
73312ION    NA+45737   8.085  14.929   3.788
73313ION    NA+45738  29.462   4.512   5.068
73314ION    NA+45739   5.572  20.331  12.486
73315ION    NA+45740   3.856  33.161   4.071
73316ION    NA+45741  37.858  16.551   0.413
73317ION    NA+45742  36.351  23.376   0.530
73318ION    NA+45743  25.783  11.208   3.594
73319ION    NA+45744  24.717  10.358   0.415
73320ION    NA+45745  44.192  28.816   9.837
73321ION    NA+45746  18.338  41.562   1.661
73322ION    NA+45747  16.160   7.478   2.901
73323ION    NA+45748  34.942   6.109   4.497
73324ION    NA+45749  15.474  21.204  14.618
73325ION    NA+45750   4.265  19.854   1.593
73326ION    NA+45751  13.759   4.832  11.306
73327ION    NA+45752  42.607  16.391  10.909
73328ION    NA+45753  34.629  40.015  14.094
73329ION    NA+45754  19.152  20.747  13.542
73330ION    NA+45755  26.598  21.718   2.221
73331ION    NA+45756   8.606  38.072   1.732
73332ION    NA+45757   3.629  11.655   2.884
73333ION    NA+45758  39.051   4.174   2.314
73334ION    NA+45759  38.864  27.186  13.553
73335ION    NA+45760  20.389  13.690   4.548
73336ION    NA+45761   9.820  18.096  11.390
73337ION    NA+45762  25.173  34.002  14.991
73338ION    NA+45763  15.069  22.240   2.787
73339ION    NA+45764  22.824  36.968  11.794
73340ION    NA+45765  31.709  42.975   4.155
73341ION    NA+45766   6.072  18.304   3.741
73342ION    NA+45767  37.187  33.311  11.223
73343ION    NA+45768  29.521  44.852   3.704
73344ION    NA+45769  33.568  27.007  11.162
73345ION    NA+45770  17.418  23.939  12.414
73346ION    NA+45771  23.077  16.581  11.933
73347ION    NA+45772  22.778  10.461   0.250
73348ION    NA+45773  12.703  32.208  11.858
73349ION    NA+45774  21.930  19.756  12.184
73350ION    NA+45775  27.958  10.336   4.259
73351ION    NA+45776   0.712   7.543   1.687
73352ION    NA+45777   4.216   2.827  11.958
73353ION    NA+45778  13.059  32.118   5.205
73354ION    NA+45779  31.283  17.278  12.363
73355ION    NA+45780  10.863  26.584   1.188
73356ION    NA+45781  28.533   9.832   4.152
73357ION    NA+45782   7.862   4.461   4.033
73358ION    NA+45783  19.055  38.786   2.266
73359ION    NA+45784  41.393  31.067   4.977
73360ION    NA+45785  19.383  22.511   3.911
73361ION    NA+45786  12.178  43.382   2.811
73362ION    NA+45787  28.796   7.542   2.114
73363ION    NA+45788  20.535  34.639   2.292
73364ION    NA+45789   2.306  14.869   2.251
73365ION    NA+45790  26.611  42.582  10.749
73366ION    NA+45791  26.923  22.526  11.514
73367ION    NA+45792  22.764  37.487   2.562
73368ION    NA+45793  40.973   4.357  11.055
73369ION    NA+45794  26.064  33.387  12.490
73370ION    NA+45795   0.828   8.581   1.584
73371ION    NA+45796  17.472   4.457   2.923
73372ION    NA+45797   2.245  38.475   0.727
73373ION    NA+45798  29.688   4.239  12.970
73374ION    NA+45799   1.381   7.193   1.815
73375ION    NA+45800   6.489  42.244  12.075
73376ION    NA+45801  36.522  13.885   4.536
73377ION    NA+45802  22.577  16.379   2.157
73378ION    NA+45803   6.164  24.492  12.448
73379ION    NA+45804  36.933  39.995   4.439
73380ION    NA+45805  44.046  31.212  13.543
73381ION    NA+45806   8.283   7.259  12.526
73382ION    NA+45807   6.184  19.465   9.761
73383ION    NA+45808  43.069  14.884  11.636
73384ION    NA+45809  26.383  15.804   1.641
73385ION    NA+45810   2.753  34.933   4.333
73386ION    NA+45811  13.161  38.900  10.734
73387ION    NA+45812  41.081  34.339   1.285
73388ION    NA+45813  13.492  27.943  12.911
73389ION    NA+45814  25.350  37.623   1.334
73390ION    NA+45815  23.833   4.026  11.764
73391ION    NA+45816  23.955   8.805   0.902
73392ION    NA+45817  16.781   6.964   3.202
73393ION    NA+45818  23.755  41.180  13.979
73394ION    NA+45819  16.858  11.040  14.027
73395ION    NA+45820  22.726  35.025   1.716
73396ION    NA+45821  20.637  17.040   2.404
73397ION    NA+45822  15.787   3.859   3.912
73398ION    NA+45823  42.078  27.847  10.761
73399ION    NA+45824   2.996  22.225  12.463
73400ION    NA+45825  36.786  30.236   4.142
73401ION    NA+45826  19.155  13.399   0.228
73402ION    NA+45827   8.844  11.698  10.194
73403ION    NA+45828  13.346  14.563   1.043
73404ION    NA+45829   1.430  25.185   1.883
73405ION    NA+45830  38.052  38.877  13.850
73406ION    NA+45831  40.511  26.225   0.723
73407ION    NA+45832  10.025  22.538  13.197
73408ION    NA+45833  42.514  36.961   3.584
73409ION    NA+45834  33.257  22.404  11.990
73410ION    NA+45835  12.161  25.848  12.018
73411ION    NA+45836  28.138  15.088   2.596
73412ION    NA+45837  23.291   4.025   1.743
73413ION    NA+45838   4.234  38.098   0.398
73414ION    NA+45839  20.702  24.790   1.396
73415ION    NA+45840  29.363   4.553  14.731
73416ION    NA+45841  33.765   2.035   0.307
73417ION    NA+45842  22.033   1.919  10.786
73418ION    NA+45843  37.539  41.409  12.190
73419ION    NA+45844  18.543  36.066   4.330
73420ION    NA+45845  38.028   1.901   1.720
73421ION    NA+45846  34.637  31.554   3.288
73422ION    NA+45847  23.412   2.994   1.774
73423ION    NA+45848  40.841  13.159   1.991
73424ION    NA+45849   1.418  22.699  11.168
73425ION    NA+45850  13.621  18.925  11.219
73426ION    NA+45851  33.179  42.691  11.940
73427ION    NA+45852   0.018  35.185  12.128
73428ION    NA+45853  38.921  15.259   3.435
73429ION    NA+45854  14.404  17.161   1.953
73430ION    NA+45855  22.350  42.981  10.099
73431ION    NA+45856  15.209  34.729   9.854
73432ION    NA+45857  32.386  25.556  14.412
73433ION    NA+45858   4.820  34.123   0.646
73434ION    NA+45859  10.721  21.515  14.526
73435ION    NA+45860  28.245  34.212   3.085
73436ION    NA+45861   9.807  13.266  13.487
73437ION    NA+45862   9.861   7.259  11.072
73438ION    NA+45863  38.708  17.327   3.551
73439ION    NA+45864  24.032  15.682   0.682
73440ION    NA+45865  10.914  42.364   3.389
73441ION    NA+45866  14.495  26.289  12.738
73442ION    NA+45867   4.475   9.270   3.923
73443ION    NA+45868  31.308  19.306  14.294
73444ION    NA+45869  22.734  35.876   2.244
73445ION    NA+45870  14.233  41.332   1.735
73446ION    NA+45871  41.563  41.726   3.683
73447ION    NA+45872   9.721   1.299   2.925
73448ION    NA+45873  35.535   0.588   2.207
73449ION    NA+45874  32.671  28.261   2.149
73450ION    NA+45875  10.542  27.989   0.776
73451ION    NA+45876  24.957  25.813   1.760
73452ION    NA+45877  21.438  20.560   3.028
73453ION    NA+45878  37.122  24.164   4.783
73454ION    NA+45879   9.899  26.371  10.926
73455ION    NA+45880  38.637  44.595  12.739
73456ION    NA+45881  18.284  28.447   0.678
73457ION    NA+45882  33.069  10.970   3.052
73458ION    NA+45883  37.470  10.677   4.440
73459ION    NA+45884   7.228  17.380  11.044
73460ION    NA+45885  20.244   0.797  11.679
73461ION    NA+45886  23.682   2.346   2.558
73462ION    NA+45887  18.553  31.384  13.548
73463ION    NA+45888   5.245   3.231  11.653
73464ION    NA+45889  38.979  36.300  10.800
73465ION    NA+45890  34.013  25.267  14.428
73466ION    NA+45891  37.414  29.530  13.267
73467ION    NA+45892   5.135  33.781  12.103
73468ION    NA+45893  16.395  38.816  13.530
73469ION    NA+45894  15.198   1.048  11.735
73470ION    NA+45895  34.341  42.893   2.770
73471ION    NA+45896  32.899  19.946   1.091
73472ION    NA+45897  14.583  23.311  12.728
73473ION    NA+45898  17.729  33.343   1.212
73474ION    NA+45899   6.512  18.803  11.520
73475ION    NA+45900   4.363  22.711   1.289
73476ION    NA+45901  14.573  18.712  14.680
73477ION    NA+45902  17.805   5.076   0.214
73478ION    NA+45903  37.775  16.595   3.010
73479ION    NA+45904  44.136  36.561  12.011
73480ION    NA+45905   8.345  13.313  13.348
73481ION    NA+45906   1.552  13.579  10.836
73482ION    NA+45907  34.982  35.652  11.567
73483ION    NA+45908  25.074  11.147   5.340
73484ION    NA+45909  26.758  41.787   5.142
73485ION    NA+45910  11.861  12.661   4.301
73486ION    NA+45911  28.100  29.050   3.128
73487ION    NA+45912   6.286  10.584   4.674
73488ION    NA+45913  31.591  14.765   3.106
73489ION    NA+45914   8.838  42.074  12.179
73490ION    NA+45915  18.564  26.880   0.435
73491ION    NA+45916  13.267  15.158  13.861
73492ION    NA+45917  21.317   2.950  12.096
73493ION    NA+45918  26.521  41.592  13.507
73494ION    NA+45919  13.934   9.665  11.512
73495ION    NA+45920  11.740  33.962   3.429
73496ION    NA+45921  26.936  18.767   1.198
73497ION    NA+45922   1.246  17.521  13.385
73498ION    NA+45923  41.882  25.044  11.894
73499ION    NA+45924  36.030  19.695   1.521
73500ION    NA+45925  16.671   7.703   4.589
73501ION    NA+45926   8.584   9.672  11.242
73502ION    NA+45927  30.551  28.500   3.437
73503ION    NA+45928  14.701   9.553   0.928
73504ION    NA+45929   9.241   5.731  11.541
73505ION    NA+45930   6.778  12.730   3.222
73506ION    NA+45931  14.711  38.715   4.632
73507ION    NA+45932  35.345   5.237   3.188
73508ION    NA+45933  39.559  43.933  14.425
73509ION    NA+45934  20.225   9.185   2.821
73510ION    NA+45935  36.631   5.444  13.041
73511ION    NA+45936  23.084  38.278   4.581
73512ION    NA+45937  19.085   5.460  10.809
73513ION    NA+45938   3.053   4.606   1.392
73514ION    NA+45939  24.164   2.410   1.466
73515ION    NA+45940  26.906  43.479   2.916
73516ION    NA+45941   9.823   0.962   0.050
73517ION    NA+45942  21.121  27.396  12.971
73518ION    NA+45943  15.506  35.794  12.726
73519ION    NA+45944  13.229  12.664  11.622
73520ION    NA+45945   1.344   5.127   2.649
73521ION    NA+45946   4.859  32.787   0.924
73522ION    NA+45947  20.787   8.958  12.015
73523ION    NA+45948  14.062   0.036  13.918
73524ION    NA+45949  27.683   6.133  14.703
73525ION    NA+45950  32.140   0.007   3.779
73526ION    NA+45951  28.076  44.680   1.622
73527ION    NA+45952  44.783  31.090  10.876
73528ION    NA+45953  18.051  15.743  13.360
73529ION    NA+45954   8.898  41.088  12.014
73530ION    NA+45955  31.197  25.648  11.102
73531ION    NA+45956  23.136  18.365  13.099
73532ION    NA+45957  14.449  32.799   1.795
73533ION    NA+45958  42.925   6.669   4.584
73534ION    NA+45959  42.740  21.802   3.335
73535ION    NA+45960  43.966  38.276  14.347
73536ION    NA+45961  19.735  15.544   3.605
73537ION    NA+45962  33.465  42.255   1.466
73538ION    NA+45963  14.314   4.898   4.850
73539ION    NA+45964  16.215   0.919  14.772
73540ION    NA+45965   8.097  41.558   1.204
73541ION    NA+45966  16.252  29.285   2.782
73542ION    NA+45967  21.517  25.144  11.060
73543ION    NA+45968   7.616  39.774   2.908
73544ION    NA+45969  30.955  24.698  11.298
73545ION    NA+45970  18.327  11.083  14.076
73546ION    NA+45971  12.131  30.633   4.836
73547ION    NA+45972  12.784  32.356   3.288
73548ION    NA+45973  36.849  13.228   0.119
73549ION    NA+45974  30.495  12.307  12.038
73550ION    NA+45975  30.313  25.746  11.295
73551ION    NA+45976  22.368  32.078  13.901
73552ION    NA+45977  30.923  44.952   4.628
73553ION    NA+45978  32.294  13.254   1.037
73554ION    NA+45979  29.413  42.428   0.848
73555ION    NA+45980   0.963   5.253   1.733
73556ION    NA+45981  30.265  30.572   1.572
73557ION    NA+45982  38.657  33.964   5.021
73558ION    NA+45983  20.547  16.549   3.317
73559ION    NA+45984   9.037   8.093   4.375
73560ION    NA+45985  31.437  18.980   3.671
73561ION    NA+45986  35.793  37.506   3.813
73562ION    NA+45987  15.077  40.584  10.794
73563ION    NA+45988  37.463  39.782  14.521
73564ION    NA+45989  19.456  40.446  14.305
73565ION    NA+45990  32.175  44.198  12.460
73566ION    NA+45991  26.729  15.276   4.705
73567ION    NA+45992   4.660   4.718  11.557
73568ION    NA+45993  10.681  31.738  14.989
73569ION    NA+45994  24.232  34.984  12.060
73570ION    NA+45995  44.322  19.258  12.027
73571ION    NA+45996  29.892  20.167  13.635
73572ION    NA+45997   3.267   4.866   2.437
73573ION    NA+45998  37.825  36.635   1.351
73574ION    NA+45999   1.419  23.656   0.872
73575ION    NA+46000  19.800  13.625  13.620
73576ION    NA+46001  34.809  26.441   1.218
73577ION    NA+46002  23.903  31.225   2.575
73578ION    NA+46003   8.552  17.821   3.003
73579ION    NA+46004  23.820   1.057  14.980
73580ION    NA+46005  10.054   3.439  12.099
73581ION    NA+46006   7.645  30.703   2.934
73582ION    NA+46007  14.801  23.255  13.702
73583ION    NA+46008  32.411  38.035   3.368
73584ION    NA+46009   1.424  16.113  13.468
73585ION    NA+46010  44.498  39.386  11.910
73586ION    NA+46011   2.223   9.128   2.970
73587ION    NA+46012  31.092  32.496   3.120
73588ION    NA+46013  11.878  16.213   0.264
73589ION    NA+46014  10.485  15.299  11.467
73590ION    NA+46015  28.473  28.529  12.031
73591ION    NA+46016  22.976  20.132   3.639
73592ION    NA+46017  42.912  16.561   3.429
73593ION    NA+46018  34.791  25.094   0.755
73594ION    NA+46019  11.870   1.130   2.019
73595ION    NA+46020  14.037  43.348   4.295
73596ION    NA+46021  17.215  29.061  10.729
73597ION    NA+46022  26.946   2.969  12.112
73598ION    NA+46023  25.882   3.738   0.680
73599ION    NA+46024   2.085  12.385   0.225
73600ION    NA+46025  32.452  35.118  14.896
73601ION    NA+46026  42.239  44.519  12.994
73602ION    NA+46027  34.251  18.075   4.488
73603ION    NA+46028  30.002   3.213  14.318
73604ION    NA+46029  38.504  12.502  13.535
73605ION    NA+46030  15.464  44.911  14.085
73606ION    NA+46031  38.987   6.934  10.357
73607ION    NA+46032  12.621  29.527   4.470
73608ION    NA+46033   1.340   8.429   2.314
73609ION    NA+46034   7.631  39.438  13.419
73610ION    NA+46035  18.091  15.199   2.687
73611ION    NA+46036  25.052  33.953   4.751
73612ION    NA+46037   1.379  12.527  12.561
73613ION    NA+46038  16.477   5.419   2.400
73614ION    NA+46039  10.782  39.867   1.788
73615ION    NA+46040  13.747  32.183  12.001
73616ION    NA+46041  43.081  36.802  10.736
73617ION    NA+46042  31.232  38.809   4.738
73618ION    NA+46043   5.999  34.918  13.385
73619ION    NA+46044   7.349  20.686   4.130
73620ION    NA+46045  32.592  42.729  10.596
73621ION    NA+46046  14.709   9.141  14.933
73622ION    NA+46047  31.431  29.902   3.927
73623ION    NA+46048  26.047  43.382   3.781
73624ION    NA+46049  31.424   5.335   0.492
73625ION    NA+46050  14.556  29.589   4.862
73626ION    NA+46051  27.926  10.241  10.394
73627ION    NA+46052  42.018  27.106  14.515
73628ION    NA+46053  25.180   1.288   2.872
73629ION    NA+46054  24.429   1.868  11.049
73630ION    NA+46055   9.985  33.992  13.099
73631ION    NA+46056  14.056  15.864  10.542
73632ION    NA+46057  16.712   6.582   0.116
73633ION    NA+46058  20.040  42.962  14.660
73634ION    NA+46059  17.601  32.962  13.303
73635ION    NA+46060  34.785   5.585  13.250
73636ION    NA+46061  15.630  42.799   3.092
73637ION    NA+46062  21.451  26.295  12.021
73638ION    NA+46063  13.807  21.915   9.883
73639ION    NA+46064  26.586  28.623   1.266
73640ION    NA+46065   0.260  40.173   4.790
73641ION    NA+46066  38.860  20.034   2.365
73642ION    NA+46067   2.906  15.771  11.143
73643ION    NA+46068   3.926  37.026   4.175
73644ION    NA+46069  28.761   7.842  14.566
73645ION    NA+46070  26.259  43.437   1.947
73646ION    NA+46071  14.540  29.449   0.290
73647ION    NA+46072  13.162  33.701   3.487
73648ION    NA+46073   1.119  11.716  12.935
73649ION    NA+46074  16.671   9.157  11.148
73650ION    NA+46075  12.911   9.824  11.599
73651ION    NA+46076  10.660  20.794   1.230
73652ION    NA+46077   6.756   4.506  11.519
73653ION    NA+46078  26.143  18.001  13.025
73654ION    NA+46079  15.589  41.415  11.010
73655ION    NA+46080  12.279  33.185   0.053
73656ION    NA+46081  31.159  15.290   0.884
73657ION    NA+46082  19.634  15.234  10.579
73658ION    NA+46083  42.867  19.015  12.708
73659ION    NA+46084  43.729  20.005   1.363
73660ION    NA+46085   3.531  11.250   3.710
73661ION    NA+46086  36.302  29.865   3.349
73662ION    NA+46087  10.804   3.887   1.386
73663ION    NA+46088   7.766  17.574  14.681
73664ION    NA+46089   6.863  41.037   0.083
73665ION    NA+46090  33.756   7.114   2.793
73666ION    NA+46091  29.745  40.760  14.355
73667ION    NA+46092  34.138  27.191  13.379
73668ION    NA+46093  17.084  29.553  14.834
73669ION    NA+46094   2.284   1.426   0.316
73670ION    NA+46095  11.286  10.181   2.204
73671ION    NA+46096   9.162  30.627  12.275
73672ION    NA+46097  29.394  31.968   2.292
73673ION    NA+46098  17.723  34.360   4.743
73674ION    NA+46099  21.429  11.904  10.935
73675ION    NA+46100   9.703  33.390   3.373
73676ION    NA+46101   9.428  22.644  12.484
73677ION    NA+46102   9.493  37.824   4.637
73678ION    NA+46103  10.148  10.351   4.541
73679ION    NA+46104  21.586   4.217   3.609
73680ION    NA+46105  34.358  17.737  13.778
73681ION    NA+46106  21.374  41.723   2.021
73682ION    NA+46107  26.567   4.342   0.733
73683ION    NA+46108   5.430   5.544  14.821
73684ION    NA+46109  39.589  20.265   1.361
73685ION    NA+46110  10.837  27.734  12.627
73686ION    NA+46111  14.348  17.107  12.806
73687ION    NA+46112  42.903  37.091  13.360
73688ION    NA+46113  16.140  28.646  12.867
73689ION    NA+46114  35.898  24.731  12.977
73690ION    NA+46115  42.732  28.140  14.599
73691ION    NA+46116  28.334  41.148  11.724
73692ION    NA+46117   2.532  10.176  11.055
73693ION    NA+46118   0.070   2.149  10.553
73694ION    NA+46119  33.047  34.333  14.722
73695ION    NA+46120  30.448  11.998  11.003
73696ION    NA+46121  17.056  42.397   2.220
73697ION    NA+46122  38.789  39.895  13.111
73698ION    NA+46123  10.509  44.057   3.655
73699ION    NA+46124  31.600  38.496  11.491
73700ION    NA+46125  22.474  36.339   0.425
73701ION    NA+46126   9.360  14.677  13.143
73702ION    NA+46127   4.956  31.614   3.496
73703ION    NA+46128  35.211  17.175   2.608
73704ION    NA+46129  42.401  30.315  12.091
73705ION    NA+46130  14.125  25.203   0.468
73706ION    NA+46131   1.326   2.090   1.816
73707ION    NA+46132  43.838  34.155  10.105
73708ION    NA+46133   7.169   5.166  12.548
73709ION    NA+46134  31.779  30.663  10.067
73710ION    NA+46135   3.793   3.950   1.537
73711ION    NA+46136  19.577  35.524  10.728
73712ION    NA+46137  26.904   0.316   1.399
73713ION    NA+46138  35.920  30.726   4.277
73714ION    NA+46139  30.786  11.582   4.507
73715ION    NA+46140  29.868   6.379  13.358
73716ION    NA+46141  32.809  29.806  11.202
73717ION    NA+46142  33.931  41.427  13.446
73718ION    NA+46143  28.413  20.824   4.685
73719ION    NA+46144  13.632  37.425   4.505
73720ION    NA+46145  32.571   0.648  12.093
73721ION    NA+46146  43.771  18.222   0.475
73722ION    NA+46147  16.856  16.479  11.208
73723ION    NA+46148  22.112   3.014  13.871
73724ION    NA+46149   8.921  32.559  12.135
73725ION    NA+46150  29.147  31.596   3.760
73726ION    NA+46151  41.797  38.894   3.600
73727ION    NA+46152  14.235  10.145   0.234
73728ION    NA+46153  34.292   5.933   2.710
73729ION    NA+46154   6.435  20.821  14.848
73730ION    NA+46155  40.060  29.609   4.679
73731ION    NA+46156  31.504  11.778  12.907
73732ION    NA+46157  40.321  26.616  14.026
73733ION    NA+46158  13.138  10.582  10.988
73734ION    NA+46159  26.704  19.141  12.814
73735ION    NA+46160  34.435  28.407   0.952
73736ION    NA+46161   5.167   9.886   1.819
73737ION    NA+46162  17.955  13.507   4.042
73738ION    NA+46163  34.991   2.256   1.476
73739ION    NA+46164  40.339  31.180   4.670
73740ION    NA+46165  28.229   3.767  12.455
73741ION    NA+46166  35.916  28.161  11.224
73742ION    NA+46167  34.840  27.555  12.722
73743ION    NA+46168  26.090  35.353   1.853
73744ION    NA+46169  33.501   3.192  13.781
73745ION    NA+46170  36.388  35.730   5.337
73746ION    NA+46171  31.780  13.303  13.327
73747ION    NA+46172  26.726  21.014   4.212
73748ION    NA+46173  23.081  34.511   4.678
73749ION    NA+46174  23.711  13.580   2.819
73750ION    NA+46175   1.203  12.288  11.737
73751ION    NA+46176  26.947  25.749   1.293
73752ION    NA+46177  22.560  30.027   3.358
73753ION    NA+46178   0.157  41.873  11.214
73754ION    NA+46179  33.992   8.099   4.710
73755ION    NA+46180   0.920   2.405   2.564
73756ION    NA+46181  16.049  28.310   2.877
73757ION    NA+46182  15.618  14.011  13.938
73758ION    NA+46183  15.372   2.304   2.787
73759ION    NA+46184  13.185   8.865  11.532
73760ION    NA+46185  37.380  19.358   4.036
73761ION    NA+46186   4.735  21.128   3.654
73762ION    NA+46187  21.033   2.681  14.256
73763ION    NA+46188   5.178   7.679   1.007
73764ION    NA+46189   8.955  12.555   0.002
73765ION    NA+46190  10.377   7.919   1.971
73766ION    NA+46191  18.602  36.266  13.409
73767ION    NA+46192  22.511   9.857  11.473
73768ION    NA+46193  38.160  14.376   4.056
73769ION    NA+46194  18.727  33.357   1.274
73770ION    NA+46195  27.032  41.373   3.897
73771ION    NA+46196  26.628  40.944  11.139
73772ION    NA+46197  33.715  20.293   0.629
73773ION    NA+46198  27.792   3.768  14.833
73774ION    NA+46199  20.009  30.269   1.859
73775ION    NA+46200   4.892  40.198   5.120
73776ION    NA+46201   3.829  38.899  14.956
73777ION    NA+46202  38.289  33.402   2.963
73778ION    NA+46203  22.273   4.844  13.022
73779ION    NA+46204  26.988   7.608  10.761
73780ION    NA+46205  27.563  15.177  13.299
73781ION    NA+46206  17.597  28.687  13.824
73782ION    NA+46207  38.986  14.123  10.726
73783ION    NA+46208  17.795   7.355   0.429
73784ION    NA+46209  36.915  27.556   4.444
73785ION    NA+46210   8.989  38.933   3.578
73786ION    NA+46211  23.560  33.876   0.114
73787ION    NA+46212  41.942   7.150   0.869
73788ION    NA+46213  34.879  24.357   3.356
73789ION    NA+46214  36.409  42.718   0.132
73790ION    NA+46215   9.724  19.022   4.616
73791ION    NA+46216  12.116  35.941   1.045
73792ION    NA+46217   7.130  15.025  11.599
73793ION    NA+46218   7.229  38.790  12.772
73794ION    NA+46219  37.970   4.600   4.565
73795ION    NA+46220  41.478  27.993   0.854
73796ION    NA+46221  41.032  29.462   4.180
73797ION    NA+46222  15.188  35.738   4.083
73798ION    NA+46223  32.098  36.937   1.685
73799ION    NA+46224  17.005  18.028   1.489
73800ION    NA+46225  11.291  39.228   0.176
73801ION    NA+46226  36.056   8.806   2.523
73802ION    NA+46227   3.018  35.057  14.387
73803ION    NA+46228  16.212  43.721  11.703
73804ION    NA+46229  30.594  15.301  13.291
73805ION    NA+46230   4.485  15.027   4.805
73806ION    NA+46231  24.850   4.382   2.646
73807ION    NA+46232  20.548  28.794   4.658
73808ION    NA+46233  24.969   6.440   0.789
73809ION    NA+46234  18.953  12.792   4.257
73810ION    NA+46235  10.841   4.868  12.436
73811ION    NA+46236   0.649   7.722   4.133
73812ION    NA+46237  29.835  26.414  11.443
73813ION    NA+46238  17.300  35.149  14.476
73814ION    NA+46239   9.665  11.225   1.715
73815ION    NA+46240  37.355  10.378   0.671
73816ION    NA+46241  21.968  10.338  13.706
73817ION    NA+46242  26.633  30.024   1.308
73818ION    NA+46243  39.118  10.015  11.022
73819ION    NA+46244  23.471  42.458  12.996
73820ION    NA+46245   7.068  37.290   3.448
73821ION    NA+46246   8.209  40.583   1.391
73822ION    NA+46247  27.535  27.784   0.805
73823ION    NA+46248  17.590   6.095   4.384
73824ION    NA+46249  28.996   3.126  12.438
73825ION    NA+46250  30.148   6.166   0.913
73826ION    NA+46251  33.261  42.805  13.508
73827ION    NA+46252  35.420  19.308   4.335
73828ION    NA+46253   3.506  35.398   4.799
73829ION    NA+46254  33.448  44.657  10.754
73830ION    NA+46255   1.316  29.589  12.847
73831ION    NA+46256  25.970  41.088   3.002
73832ION    NA+46257  29.866   2.620   4.161
73833ION    NA+46258   0.958   3.670   4.373
73834ION    NA+46259  32.098   5.904  11.083
73835ION    NA+46260  36.830  16.464   4.652
73836ION    NA+46261  34.210  34.407  11.652
73837ION    NA+46262  34.562  18.040   1.882
73838ION    NA+46263   4.846  14.275   3.855
73839ION    NA+46264  16.575  13.898  12.560
73840ION    NA+46265   4.439   3.208   1.213
73841ION    NA+46266  39.304  28.143  10.724
73842ION    NA+46267  13.844  17.764   1.284
73843ION    NA+46268  17.150  31.862   4.148
73844ION    NA+46269  15.987  14.956   4.909
73845ION    NA+46270   5.295  30.630  14.506
73846ION    NA+46271   4.976  10.713   0.276
73847ION    NA+46272  18.506  21.224   0.310
73848ION    NA+46273  38.907  38.982   2.892
73849ION    NA+46274  29.454  42.384  12.007
73850ION    NA+46275   0.104  18.528  11.196
73851ION    NA+46276  37.329   9.055  12.724
73852ION    NA+46277  22.540  30.974  14.691
73853ION    NA+46278  41.820  26.217  11.436
73854ION    NA+46279  24.040  16.323  12.940
73855ION    NA+46280  34.780  19.079  13.237
73856ION    NA+46281  33.906  40.805   1.366
73857ION    NA+46282  30.240  18.214   1.466
73858ION    NA+46283  26.015  27.505   3.325
73859ION    NA+46284  29.660  15.946  11.178
73860ION    NA+46285  41.269  19.809   0.426
73861ION    NA+46286  34.406  42.789  14.940
73862ION    NA+46287  11.495  20.042   0.546
73863ION    NA+46288  26.598   2.056  11.715
73864ION    NA+46289  26.915   9.199  11.983
73865ION    NA+46290  12.701   9.015  12.881
73866ION    NA+46291  37.752  29.244  11.335
73867ION    NA+46292  41.507  33.181   2.786
73868ION    NA+46293   3.722  16.738  12.788
73869ION    NA+46294  25.504  30.329   4.984
73870ION    NA+46295  12.168   4.463   2.308
73871ION    NA+46296  19.187  23.629  12.091
73872ION    NA+46297  20.106  38.836  14.782
73873ION    NA+46298   7.014  27.994  12.182
73874ION    NA+46299  16.957  19.089  11.391
73875ION    NA+46300   4.371  34.404  14.587
73876ION    NA+46301  24.971  28.019  13.855
73877ION    NA+46302  17.923  37.572  11.981
73878ION    NA+46303  15.817  27.563   2.222
73879ION    NA+46304  26.118   1.454   2.565
73880ION    NA+46305   0.199   1.337   2.410
73881ION    NA+46306  24.213  26.912   1.251
73882ION    NA+46307  43.503  37.500   1.853
73883ION    NA+46308  18.974  35.231   4.672
73884ION    NA+46309  14.909  41.281  11.490
73885ION    NA+46310  17.849   8.033  14.816
73886ION    NA+46311  20.871  26.366  11.210
73887ION    NA+46312  42.258  13.756  14.884
73888ION    NA+46313  16.632  43.894  12.782
73889ION    NA+46314  34.805  27.720  13.707
73890ION    NA+46315  33.306  39.713  10.900
73891ION    NA+46316  21.794  24.174   3.774
73892ION    NA+46317  12.550  23.003   3.086
73893ION    NA+46318  35.432  13.198  14.086
73894ION    NA+46319  30.325  34.402   2.692
73895ION    NA+46320  36.170  39.534   1.049
73896ION    NA+46321  18.129   3.631   3.404
73897ION    NA+46322  28.549   8.588   0.197
73898ION    NA+46323  12.735   1.121  11.956
73899ION    NA+46324  26.082  11.602  12.160
73900ION    NA+46325  34.787  38.337  11.043
73901ION    NA+46326  25.781  29.464  12.928
73902ION    NA+46327  17.573  14.021   0.242
73903ION    NA+46328  10.789  11.480   1.845
73904ION    NA+46329  41.334   9.052  14.069
73905ION    NA+46330  28.103  14.377  12.993
73906ION    NA+46331  37.172  10.304  12.010
73907ION    NA+46332  18.503  25.280  14.128
73908ION    NA+46333  24.740  44.352  14.752
73909ION    NA+46334  11.970  40.334   3.638
73910ION    NA+46335  17.350  22.217  13.339
73911ION    NA+46336  21.186  39.359   0.432
73912ION    NA+46337   4.673  44.459  11.427
73913ION    NA+46338  31.144  12.704  11.270
73914ION    NA+46339  39.259  17.198   1.433
73915ION    NA+46340  42.009  36.327   3.167
73916ION    NA+46341  19.490  32.663   0.198
73917ION    NA+46342  32.056  44.283   1.150
73918ION    NA+46343  33.667  23.023  11.462
73919ION    NA+46344  33.919  29.100   0.259
73920ION    NA+46345  18.130  12.521  14.867
73921ION    NA+46346  41.814   2.290  14.823
73922ION    NA+46347  21.685  12.778  14.530
73923ION    NA+46348  29.042  40.943  11.047
73924ION    NA+46349  33.793   1.858  13.610
73925ION    NA+46350  16.892  24.060  11.700
73926ION    NA+46351  15.548  38.086  13.785
73927ION    NA+46352   5.901  23.471  13.864
73928ION    NA+46353  14.374  14.866  12.795
73929ION    NA+46354  25.642  42.830  10.740
73930ION    NA+46355  31.153  13.560   2.927
73931ION    NA+46356   1.930  18.363   0.940
73932ION    NA+46357  26.977  25.514  14.993
73933ION    NA+46358  20.495  29.698   0.976
73934ION    NA+46359  23.265  15.493   1.138
73935ION    NA+46360   2.743  34.429   3.093
73936ION    NA+46361  26.517  26.705   4.731
73937ION    NA+46362  38.133  37.306   2.628
73938ION    NA+46363  18.973  40.831   1.410
73939ION    NA+46364  24.755   8.717   4.595
73940ION    NA+46365   4.391  11.095  10.876
73941ION    NA+46366  38.040  44.415  11.956
73942ION    NA+46367  36.190  14.729  10.854
73943ION    NA+46368   3.889  15.486   4.145
73944ION    NA+46369  31.789  39.773  10.452
73945ION    NA+46370   4.646  10.887   4.497
73946ION    NA+46371  34.442  38.857  13.537
73947ION    NA+46372  35.885   2.212   3.785
73948ION    NA+46373  37.356  25.756  13.262
73949ION    NA+46374  20.368   3.896   0.794
73950ION    NA+46375  38.691  43.227  14.503
73951ION    NA+46376   3.165  31.827  12.097
73952ION    NA+46377  21.531  27.089  12.238
73953ION    NA+46378  19.553  39.958  13.437
73954ION    NA+46379  44.066  30.235  12.803
73955ION    NA+46380  33.738  36.854   3.405
73956ION    NA+46381  17.895  24.783  11.984
73957ION    NA+46382  43.594  16.975   2.782
73958ION    NA+46383  41.540  17.672  12.481
73959ION    NA+46384  28.133   6.937  10.262
73960ION    NA+46385  43.794  25.893  14.953
73961ION    NA+46386  23.212  27.986   1.530
73962ION    NA+46387  28.601   8.042  13.599
73963ION    NA+46388  15.123  13.968   9.589
73964ION    NA+46389  42.998  43.391  11.477
73965ION    NA+46390  17.177  25.282   3.319
73966ION    NA+46391  27.906  35.180  13.407
73967ION    NA+46392  32.554  21.221   3.771
73968ION    NA+46393  44.191  18.512   4.548
73969ION    NA+46394  36.287  14.030  11.702
73970ION    NA+46395  22.744  16.252  13.555
73971ION    NA+46396  19.151  24.080  11.191
73972ION    NA+46397   4.682  33.374   2.979
73973ION    NA+46398  17.713  40.827  12.584
73974ION    NA+46399  24.389  29.820  14.414
73975ION    NA+46400   0.776   3.264  13.456
73976ION    NA+46401  32.847   4.710   4.830
73977ION    NA+46402  43.429  30.137  10.740
73978ION    NA+46403  32.547   9.154   2.134
73979ION    NA+46404  42.169  26.904   0.388
73980ION    NA+46405   5.011  23.210   3.586
73981ION    NA+46406  36.384  26.211  14.487
73982ION    NA+46407  33.759  38.720   1.006
73983ION    NA+46408  21.418   9.618  13.587
73984ION    NA+46409  42.713  22.131  13.727
73985ION    NA+46410  14.617  37.467  12.002
73986ION    NA+46411  14.179  43.843   1.203
73987ION    NA+46412   8.642  27.675   4.329
73988ION    NA+46413  33.083   0.777   3.581
73989ION    NA+46414  28.615  17.059  14.447
73990ION    NA+46415  23.213  32.593   0.493
73991ION    NA+46416  27.408  11.605  12.938
73992ION    NA+46417   1.383  24.927   3.379
73993ION    NA+46418   9.933  39.797   1.265
73994ION    NA+46419  37.569   7.189  10.583
73995ION    NA+46420  18.435   2.522   0.642
73996ION    NA+46421  17.361  42.861   5.184
73997ION    NA+46422   3.886   6.381   0.427
73998ION    NA+46423  12.515  26.897   3.339
73999ION    NA+46424  15.440  25.242   4.432
74000ION    NA+46425  44.017  23.388  10.701
74001ION    NA+46426  16.059  12.448   3.513
74002ION    NA+46427  15.287  23.485  12.017
74003ION    NA+46428   4.094  44.858  12.138
74004ION    NA+46429  32.307  19.265  14.270
74005ION    NA+46430   9.776  33.982   1.004
74006ION    NA+46431   5.830   4.941   3.535
74007ION    NA+46432   9.539  37.220   3.622
74008ION    NA+46433  23.548   8.941   2.917
74009ION    NA+46434  22.096  28.046   0.517
74010ION    NA+46435  10.307  23.836   2.921
74011ION    NA+46436  21.357   2.772  11.022
74012ION    NA+46437  13.577  17.680  14.844
74013ION    NA+46438  39.284  38.904   4.548
74014ION    NA+46439   7.635   3.126  12.202
74015ION    NA+46440  12.400   0.650   0.454
74016ION    NA+46441   9.669  12.742  14.328
74017ION    NA+46442  42.026  17.331   1.002
74018ION    NA+46443   1.164  35.601  11.597
74019ION    NA+46444   4.068  36.411  11.167
74020ION    NA+46445   1.959  40.572   4.722
74021ION    NA+46446  35.392  44.344  11.447
74022ION    NA+46447  22.257  15.883   0.435
74023ION    NA+46448  33.149   6.967  13.748
74024ION    NA+46449   5.085  34.675  14.123
74025ION    NA+46450   6.245   0.851   1.988
74026ION    NA+46451   3.726   3.532   2.836
74027ION    NA+46452   2.730  12.723  14.711
74028ION    NA+46453   4.405  11.644   0.570
74029ION    NA+46454  44.567   3.149  11.155
74030ION    NA+46455  38.534  41.388  14.823
74031ION    NA+46456  33.050  44.510  12.963
74032ION    NA+46457  29.178   7.401   3.310
74033ION    NA+46458  38.757  22.267   2.148
74034ION    NA+46459   0.950   7.520   2.463
74035ION    NA+46460  22.251  19.035   3.153
74036ION    NA+46461  33.185  28.580  11.648
74037ION    NA+46462   1.045  44.302  13.286
74038ION    NA+46463  13.590   4.831   4.164
74039ION    NA+46464  40.050  20.594  14.799
74040ION    NA+46465   7.422  37.259   2.677
74041ION    NA+46466  16.028   4.954  13.338
74042ION    NA+46467  18.370   1.885   2.929
74043ION    NA+46468  43.936  27.117  10.655
74044ION    NA+46469  41.719  27.528   4.794
74045ION    NA+46470  34.033  36.934   0.950
74046ION    NA+46471  27.977  22.071   1.965
74047ION    NA+46472  37.465  19.096   0.279
74048ION    NA+46473  36.540  36.154  13.816
74049ION    NA+46474  43.483  29.742   1.446
74050ION    NA+46475  42.754  10.979  13.981
74051ION    NA+46476  13.440  35.572  13.010
74052ION    NA+46477  43.573  16.966  14.707
74053ION    NA+46478  34.412  37.938  14.981
74054ION    NA+46479   2.279  28.595   3.358
74055ION    NA+46480   2.847  27.071   0.712
74056ION    NA+46481  33.351  18.617  12.449
74057ION    NA+46482   0.797  33.516   1.708
74058ION    NA+46483   3.939  41.323   0.035
74059ION    NA+46484  10.115   8.638  12.424
74060ION    NA+46485   9.497  38.930  10.742
74061ION    NA+46486   9.218   1.881   0.908
74062ION    NA+46487  24.247  10.932   1.623
74063ION    NA+46488  19.264  23.583   2.738
74064ION    NA+46489   1.394  22.413   1.338
74065ION    NA+46490   6.776  44.224   3.382
74066ION    NA+46491  35.530  32.392   1.711
74067ION    NA+46492  17.995  43.973   0.963
74068ION    NA+46493   5.311  21.559   4.692
74069ION    NA+46494  31.416  41.192  12.514
74070ION    NA+46495  19.720  33.082  14.320
74071ION    NA+46496   1.225  22.285   3.624
74072ION    NA+46497  34.255  26.561  11.466
74073ION    NA+46498  38.324  42.195  11.690
74074ION    NA+46499  26.685  17.294   1.939
74075ION    NA+46500  10.782  39.814  11.121
74076ION    NA+46501   1.047  20.549   2.339
74077ION    NA+46502  12.936  20.730  12.430
74078ION    NA+46503  22.524  23.205   3.057
74079ION    NA+46504  36.422  10.632   0.926
74080ION    NA+46505  22.763   2.560  11.025
74081ION    NA+46506  31.749   7.666   5.415
74082ION    NA+46507   6.545  42.801   3.361
74083ION    NA+46508   8.917  41.681   4.355
74084ION    NA+46509  23.960   3.131  13.792
74085ION    NA+46510  28.704  23.082   0.308
74086ION    NA+46511   3.269  31.392   2.802
74087ION    NA+46512  14.012  42.259  13.739
74088ION    NA+46513   9.819  40.478   1.989
74089ION    NA+46514   2.134  25.884   3.562
74090ION    NA+46515   8.599   4.938   1.061
74091ION    NA+46516  11.922  38.831  11.413
74092ION    NA+46517  44.723  26.644  13.468
74093ION    NA+46518  23.059  27.171  13.423
74094ION    NA+46519  11.723  39.919   4.514
74095ION    NA+46520  19.607  42.995   0.561
74096ION    NA+46521  12.221  22.497   0.005
74097ION    NA+46522   4.371  32.749   2.017
74098ION    NA+46523  33.043  13.899   5.104
74099ION    NA+46524  27.091   5.165   2.175
74100ION    NA+46525  14.769  34.582  14.761
74101ION    NA+46526  28.647   8.054   1.738
74102ION    NA+46527  11.194  18.542   4.173
74103ION    NA+46528   3.516  36.502   1.380
74104ION    NA+46529  43.250   6.241  14.844
74105ION    NA+46530  29.368  12.391  12.561
74106ION    NA+46531  25.633  26.883  14.168
74107ION    NA+46532   9.620  43.722  11.085
74108ION    NA+46533  44.527  29.491  11.002
74109ION    NA+46534  35.321   5.652  14.092
74110ION    NA+46535  38.923   5.255   2.707
74111ION    NA+46536   5.736   5.470   2.645
74112ION    NA+46537   0.030  44.670  11.804
74113ION    NA+46538  35.393  39.694  12.182
74114ION    NA+46539  16.844  21.261  12.030
74115ION    NA+46540  30.625  13.926   5.080
74116ION    NA+46541  14.319  33.539   0.823
74117ION    NA+46542   8.923   9.670   3.924
74118ION    NA+46543  15.198  14.167   1.679
74119ION    NA+46544  29.534   2.458  13.099
74120ION    NA+46545  41.388  33.401   1.447
74121ION    NA+46546   3.670  30.225   1.157
74122ION    NA+46547  32.725  17.277   2.422
74123ION    NA+46548   4.949   9.169  10.911
74124ION    NA+46549  36.962  35.794  14.509
74125ION    NA+46550  19.291  40.143   0.758
74126ION    NA+46551  28.546  39.904  14.309
74127ION    NA+46552  42.461  26.759   2.231
74128ION    NA+46553  27.425  30.913  14.946
74129ION    NA+46554  10.073  18.447  13.791
74130ION    NA+46555  29.068  21.141   9.347
74131ION    NA+46556  41.744  12.484   0.020
74132ION    NA+46557  42.843  25.844   0.258
74133ION    NA+46558  43.405  29.222   3.716
74134ION    NA+46559  10.116  39.153   0.520
74135ION    NA+46560   4.819  32.394   2.837
74136ION    NA+46561   0.235  27.329   4.434
74137ION    NA+46562   6.090  22.457   4.332
74138ION    NA+46563   8.770   3.341  10.649
74139ION    NA+46564   6.587  22.376  11.334
74140ION    NA+46565  21.421  12.293   5.049
74141ION    NA+46566  26.177  17.581   0.319
74142ION    NA+46567   1.480  42.933   0.958
74143ION    NA+46568  34.926  37.918   2.879
74144ION    NA+46569   3.358  23.077  10.682
74145ION    NA+46570  27.185  33.082  14.232
74146ION    NA+46571  23.640  44.346  12.999
74147ION    NA+46572  17.572  22.620  12.177
74148ION    NA+46573  10.859  42.437   1.955
74149ION    NA+46574  40.576  10.247  13.925
74150ION    NA+46575  33.915  33.562  12.743
74151ION    NA+46576  20.768   4.707  11.300
74152ION    NA+46577   1.262  29.275  10.777
74153ION    NA+46578   7.381  12.226   1.941
74154ION    NA+46579  17.107   5.843   0.485
74155ION    NA+46580  24.251  17.685  14.725
74156ION    NA+46581  17.538  36.382   0.747
74157ION    NA+46582  14.657  14.665   3.227
74158ION    NA+46583  28.270   9.842   5.071
74159ION    NA+46584  26.170  34.950   0.767
74160ION    NA+46585  39.362  17.128   0.440
74161ION    NA+46586  31.054  40.928  10.969
74162ION    NA+46587   8.231   5.726  11.425
74163ION    NA+46588  40.982  43.990  12.162
74164ION    NA+46589  24.944  37.141  12.831
74165ION    NA+46590  18.053  19.418   0.574
74166ION    NA+46591  15.948   9.718   3.047
74167ION    NA+46592  23.623  21.489  12.660
74168ION    NA+46593  26.281  33.224   4.312
74169ION    NA+46594  20.301  41.042   0.870
74170ION    NA+46595  17.278  13.621  13.051
74171ION    NA+46596  22.415  31.722   2.441
74172ION    NA+46597  14.490  30.564   4.646
74173ION    NA+46598   8.633  35.773  14.536
74174ION    NA+46599  25.676  12.550  11.485
74175ION    NA+46600   8.204  10.888  12.142
74176ION    NA+46601  14.972  27.367  10.342
74177ION    NA+46602  14.556  43.435   2.309
74178ION    NA+46603  37.887   7.075  13.247
74179ION    NA+46604  20.670  23.593  12.047
74180ION    NA+46605  44.429  28.031  13.447
74181ION    NA+46606  20.787  33.635   1.329
74182ION    NA+46607  14.513  43.420  13.531
74183ION    NA+46608  33.724  30.236   2.759
74184ION    NA+46609  10.652   4.662  11.421
74185ION    NA+46610   3.418   0.048  11.131
74186ION    NA+46611  27.100  39.827   2.623
74187ION    NA+46612   6.345  19.040   0.376
74188ION    NA+46613  24.009  37.800  11.718
74189ION    NA+46614  35.172   4.875   0.490
74190ION    NA+46615   8.207  16.178  11.018
74191ION    NA+46616  23.213  22.974   2.069
74192ION    NA+46617  24.676   1.435  14.485
74193ION    NA+46618  21.319   1.801   4.760
74194ION    NA+46619   3.747  18.430   4.636
74195ION    NA+46620  17.631  35.516   1.707
74196ION    NA+46621  10.651  29.229  11.548
74197ION    NA+46622  39.461  41.837   2.394
74198ION    NA+46623  10.827   5.172   4.642
74199ION    NA+46624  34.736  17.592   0.285
74200ION    NA+46625  11.481  23.772   4.564
74201ION    NA+46626  44.311  32.804  12.455
74202ION    NA+46627  16.077  16.317   0.964
74203ION    NA+46628   8.900  39.747   1.487
74204ION    NA+46629  29.203   5.506   3.600
74205ION    NA+46630   1.713   9.433   4.123
74206ION    NA+46631  30.819  44.859  13.454
74207ION    NA+46632   3.332  33.390  11.164
74208ION    NA+46633  35.271  35.492   0.441
74209ION    NA+46634   1.846  22.967   4.277
74210ION    NA+46635   3.308  14.179   1.834
74211ION    NA+46636  16.012   5.931   5.046
74212ION    NA+46637   9.425  25.512   1.806
74213ION    NA+46638  22.093   2.725  11.749
74214ION    NA+46639  17.763  18.475   0.334
74215ION    NA+46640   2.665  27.431   2.876
74216ION    NA+46641  44.449   6.816   0.442
74217ION    NA+46642  11.055  34.589   5.034
74218ION    NA+46643   4.979  18.876  14.458
74219ION    NA+46644  43.053  40.451  12.390
74220ION    NA+46645  23.390  15.054   0.458
74221ION    NA+46646  18.352   0.083   0.048
74222ION    NA+46647  32.414  31.430  14.764
74223ION    NA+46648  19.770   6.394  12.172
74224ION    NA+46649   9.432  34.502   4.257
74225ION    NA+46650   9.396  29.635  11.177
74226ION    NA+46651  35.142  42.001   4.098
74227ION    NA+46652  10.734  19.046  11.510
74228ION    NA+46653  13.695  16.381  14.797
74229ION    NA+46654  30.731  20.109   3.188
74230ION    NA+46655  18.917  39.127  14.121
74231ION    NA+46656  21.256  14.101   0.707
74232ION    NA+46657   1.164  11.768   3.394
74233ION    NA+46658  16.243   2.212  10.851
74234ION    NA+46659  40.333  18.856  11.741
74235ION    NA+46660  28.718  15.238   3.282
74236ION    NA+46661  10.117  15.541   0.760
74237ION    NA+46662  25.052  43.285   3.790
74238ION    NA+46663  29.160  23.121  12.406
74239ION    NA+46664   9.182  13.036   1.439
74240ION    NA+46665  34.191  44.947  14.787
74241ION    NA+46666   9.679  13.749   1.175
74242ION    NA+46667   8.715  20.002  12.957
74243ION    NA+46668   0.410  43.988   1.772
74244ION    NA+46669  29.015  21.311   4.214
74245ION    NA+46670  20.239   1.493  13.733
74246ION    NA+46671  33.615  11.650  14.315
74247ION    NA+46672  23.487  36.341   4.388
74248ION    NA+46673  37.455  35.307  10.438
74249ION    NA+46674   7.844  36.537  11.964
74250ION    NA+46675  11.148  33.662  11.704
74251ION    NA+46676  36.615  39.067   4.633
74252ION    NA+46677  42.866  23.918   1.319
74253ION    NA+46678  26.480  27.116  12.008
74254ION    NA+46679  11.936  36.938  10.178
74255ION    NA+46680  30.892  39.760  12.443
74256ION    NA+46681   1.307   9.120   3.371
74257ION    NA+46682  30.158  18.863   2.897
74258ION    NA+46683  19.614  44.315   1.483
74259ION    NA+46684  27.740   2.860  13.320
74260ION    NA+46685   4.908  39.040  12.331
74261ION    NA+46686  11.392  40.469   1.264
74262ION    NA+46687  24.551   0.014  12.346
74263ION    NA+46688  18.384   4.189   2.613
74264ION    NA+46689  34.346   7.118  14.908
74265ION    NA+46690  14.497  43.961   0.229
74266ION    NA+46691  32.917  30.115   2.122
74267ION    NA+46692  39.743  37.869   2.320
74268ION    NA+46693   7.658  24.527   0.827
74269ION    NA+46694  40.970  28.876  13.961
74270ION    NA+46695  25.092  31.006  12.324
74271ION    NA+46696   3.440   9.517   3.823
74272ION    NA+46697  38.733  36.477  12.116
74273ION    NA+46698   8.324  22.516   3.670
74274ION    NA+46699  16.021  39.628   3.803
74275ION    NA+46700  38.876  33.063  11.485
74276ION    NA+46701  37.987  14.840  13.308
74277ION    NA+46702  14.753   1.579   9.683
74278ION    NA+46703  13.855  22.480  13.867
74279ION    NA+46704  30.023  24.115  10.677
74280ION    NA+46705   4.438  12.835   0.076
74281ION    NA+46706  42.156  13.696   2.128
74282ION    NA+46707   2.164   0.911   2.807
74283ION    NA+46708  21.032  33.306  13.821
74284ION    NA+46709  39.370  13.621   3.784
74285ION    NA+46710  20.086  42.260   2.668
74286ION    NA+46711  16.891  21.088   1.123
74287ION    NA+46712  13.300  43.220   1.857
74288ION    NA+46713   2.754   2.667  14.922
74289ION    NA+46714  43.086   0.367  13.910
74290ION    NA+46715   2.352   2.017  11.504
74291ION    NA+46716  25.060  34.387  11.904
74292ION    NA+46717  38.441   5.667   4.111
74293ION    NA+46718  28.122   8.251  10.323
74294ION    NA+46719   4.456  42.048   0.104
74295ION    NA+46720  27.578  23.925  11.640
74296ION    NA+46721  23.673  33.088  10.362
74297ION    NA+46722  12.913  12.803   4.186
74298ION    NA+46723  22.517  14.899   1.846
74299ION    NA+46724  23.312  19.429  13.756
74300ION    NA+46725  20.551  28.591   3.194
74301ION    NA+46726  43.052  10.237  11.037
74302ION    NA+46727  28.990  18.918   4.962
74303ION    NA+46728  33.914  10.944   0.421
74304ION    NA+46729  24.611   6.404  14.345
74305ION    NA+46730   1.541   7.903   5.027
74306ION    NA+46731   8.764  11.050   1.317
74307ION    NA+46732  43.222  21.560   0.013
74308ION    NA+46733  10.205  32.398   2.460
74309ION    NA+46734   1.825  21.055   1.379
74310ION    NA+46735   2.249  13.583   5.009
74311ION    NA+46736   7.243  30.556  12.614
74312ION    NA+46737  34.926  31.556  10.064
74313ION    NA+46738  11.666  19.213  14.276
74314ION    NA+46739  14.074   4.201  12.043
74315ION    NA+46740   8.287  26.800  13.243
74316ION    NA+46741  29.645  23.889   5.511
74317ION    NA+46742   5.481  39.425   4.630
74318ION    NA+46743  40.589  36.460   3.318
74319ION    NA+46744  37.344  12.849   3.135
74320ION    NA+46745  31.163  35.260   4.027
74321ION    NA+46746  13.378  28.883   2.158
74322ION    NA+46747  28.933  44.268   3.145
74323ION    NA+46748  25.565   0.995  12.951
74324ION    NA+46749  41.259   4.128  14.916
74325ION    NA+46750   7.029  24.948   4.159
74326ION    NA+46751  38.884   9.763   1.420
74327ION    NA+46752  36.325  29.564   1.410
74328ION    NA+46753  42.118  27.446  12.556
74329ION    NA+46754   1.009  37.105   0.686
74330ION    NA+46755  31.435  14.567   4.076
74331ION    NA+46756  28.657   4.671  13.635
74332ION    NA+46757  33.196  36.080   1.051
74333ION    NA+46758  37.015   6.292   2.097
74334ION    NA+46759  14.301  18.202   2.840
74335ION    NA+46760  42.085  31.255   1.688
74336ION    NA+46761   0.454  30.628   5.492
74337ION    NA+46762  26.388   8.151  14.397
74338ION    NA+46763  17.894  20.136   3.605
74339ION    NA+46764  16.144  20.908  10.962
74340ION    NA+46765  30.767   5.942  13.395
74341ION    NA+46766  28.140  10.365   0.989
74342ION    NA+46767  14.554  22.647  14.563
74343ION    NA+46768  15.523  24.745   0.503
74344ION    NA+46769  36.560  24.017  14.990
74345ION    NA+46770  12.961  31.354   3.269
74346ION    NA+46771  30.243  38.566   5.039
74347ION    NA+46772  37.667  33.526  10.373
74348ION    NA+46773   2.968  27.765  14.397
74349ION    NA+46774  17.409   0.090   1.158
74350ION    NA+46775  11.823  32.518   0.773
74351ION    NA+46776   9.938  41.447  13.411
74352ION    NA+46777  39.804  30.579   0.297
74353ION    NA+46778  19.943  20.289  13.682
74354ION    NA+46779  37.884  13.637  13.025
74355ION    NA+46780  26.128   7.595  13.608
74356ION    NA+46781  21.358   9.646  12.167
74357ION    NA+46782  20.449  39.946   3.339
74358ION    NA+46783  20.689  37.791   3.178
74359ION    NA+46784  32.924   7.997  13.014
74360ION    NA+46785  27.875  42.304   3.506
74361ION    NA+46786  31.320   8.334   0.985
74362ION    NA+46787   1.829  14.147  13.470
74363ION    NA+46788  13.060  38.064   0.769
74364ION    NA+46789   9.143   1.514  14.386
74365ION    NA+46790  37.297  14.203  12.439
74366ION    NA+46791  33.349  36.779   4.331
74367ION    NA+46792   4.008  31.864   3.089
74368ION    NA+46793  39.307  43.749  13.045
74369ION    NA+46794  13.786  22.004   9.364
74370ION    NA+46795  36.276  13.183   4.062
74371ION    NA+46796   2.851  14.773   0.730
74372ION    NA+46797  43.713   4.779  13.945
74373ION    NA+46798  43.025   9.761  14.341
74374ION    NA+46799  10.900  18.051  11.718
74375ION    NA+46800   1.376  30.461   3.184
74376ION    NA+46801  25.766  36.498   3.225
74377ION    NA+46802  43.979  34.624  13.523
74378ION    NA+46803  40.738  17.639   4.609
74379ION    NA+46804  20.308  22.921  14.668
74380ION    NA+46805  19.295   7.793  14.836
74381ION    NA+46806  26.109  29.249  14.544
74382ION    NA+46807   7.639  40.905   3.579
74383ION    NA+46808   7.255  31.962  14.706
74384ION    NA+46809  23.847  26.478   5.442
74385ION    NA+46810  11.282  42.452   1.157
74386ION    NA+46811  16.762  23.530  13.048
74387ION    NA+46812   8.856   7.420  13.374
74388ION    NA+46813  25.656   8.448  13.386
74389ION    NA+46814  13.726  12.442   4.644
74390ION    NA+46815  44.987   7.866  12.018
74391ION    NA+46816  10.729  23.022  14.427
74392ION    NA+46817  43.020  34.966  13.417
74393ION    NA+46818  33.948  35.982   4.403
74394ION    NA+46819  35.159   6.431   2.687
74395ION    NA+46820  38.066  39.143  11.983
74396ION    NA+46821  29.446  21.685   1.905
74397ION    NA+46822  16.242  34.248   1.136
74398ION    NA+46823  23.998  28.351  12.081
74399ION    NA+46824  43.778  16.228  10.772
74400ION    NA+46825   7.072  17.635   0.238
74401ION    NA+46826  28.707  15.420  10.696
74402ION    NA+46827   0.350   9.302   2.546
74403ION    NA+46828  38.385  42.466  12.735
74404ION    NA+46829   8.163  28.217   0.850
74405ION    NA+46830  35.681   9.318   1.396
74406ION    NA+46831  25.326  26.134  11.406
74407ION    NA+46832  25.065   7.816  14.548
74408ION    NA+46833  16.911   2.826   2.390
74409ION    NA+46834  12.567  44.509  13.411
74410ION    NA+46835  38.476  31.407   4.278
74411ION    NA+46836   1.247  34.897   4.322
74412ION    NA+46837  30.832  21.573  11.448
74413ION    NA+46838  27.032  29.766  13.144
74414ION    NA+46839  26.297  37.832   4.984
74415ION    NA+46840  16.994  37.337  11.697
74416ION    NA+46841   2.667  40.653   3.196
74417ION    NA+46842  24.042  11.909  10.803
74418ION    NA+46843   5.886  42.493  10.812
74419ION    NA+46844  41.130  42.888  14.031
74420ION    NA+46845  24.281  43.023  14.392
74421ION    NA+46846  18.564  36.100  11.432
74422ION    NA+46847  28.727   7.613  12.809
74423ION    NA+46848  11.990  32.869  14.149
74424ION    NA+46849   5.789   6.619  14.756
74425ION    NA+46850  16.928   4.959   4.089
74426ION    NA+46851  40.365  23.472  11.121
74427ION    NA+46852   6.991  20.868   2.844
74428ION    NA+46853  42.450  31.062  11.429
74429ION    NA+46854  15.615  21.760   2.415
74430ION    NA+46855  12.288  13.541  13.993
74431ION    NA+46856  32.272   5.582  13.665
74432ION    NA+46857  27.115  25.070  11.984
74433ION    NA+46858  24.877  22.295   4.150
74434ION    NA+46859   1.821  43.421  14.347
74435ION    NA+46860  38.341  17.000  10.759
74436ION    NA+46861  34.086  19.693  14.735
74437ION    NA+46862  13.003  21.269  13.879
74438ION    NA+46863  10.846  27.378   2.718
74439ION    NA+46864  11.797  31.243  11.128
74440ION    NA+46865  40.761  33.614   4.572
74441ION    NA+46866   6.385   9.833  14.016
74442ION    NA+46867  29.495  29.479   0.936
74443ION    NA+46868  16.296  37.260  10.984
74444ION    NA+46869  44.393   4.429   3.278
74445ION    NA+46870  11.698  22.430   4.508
74446ION    NA+46871  20.046  10.333   1.760
74447ION    NA+46872  18.476  33.227   2.653
74448ION    NA+46873   2.403  36.318   2.838
74449ION    NA+46874  31.459  23.479  12.217
74450ION    NA+46875  42.391  33.049  11.783
74451ION    NA+46876   2.236  24.520  10.733
74452ION    NA+46877  18.471  39.616  13.494
74453ION    NA+46878   1.744  28.661   1.707
74454ION    NA+46879  40.920  13.495  14.464
74455ION    NA+46880  23.779  31.741  10.941
74456ION    NA+46881  18.549  37.475   2.820
74457ION    NA+46882  16.726  13.401   2.463
74458ION    NA+46883  39.939  11.438   1.803
74459ION    NA+46884  33.989  19.539  13.741
74460ION    NA+46885  43.758   7.680  12.934
74461ION    NA+46886   3.117  16.172   1.438
74462ION    NA+46887   3.950  34.892   3.729
74463ION    NA+46888  14.738  19.730   4.672
74464ION    NA+46889  43.734  30.775  14.386
74465ION    NA+46890  27.150  33.169   0.997
74466ION    NA+46891  41.511   8.426  11.746
74467ION    NA+46892  31.913  19.780   1.062
74468ION    NA+46893  10.526  17.575  14.954
74469ION    NA+46894   3.050  24.303   1.331
74470ION    NA+46895  40.309  28.217   2.846
74471ION    NA+46896  20.549   9.888  13.174
74472ION    NA+46897  40.942  31.101   3.256
74473ION    NA+46898  22.005   5.157   3.315
74474ION    NA+46899  19.628  11.522  11.728
74475ION    NA+46900  37.974  42.316  10.721
74476ION    NA+46901  13.146  34.003   4.347
74477ION    NA+46902  24.291  11.428  14.554
74478ION    NA+46903  23.458  36.625  13.703
74479ION    NA+46904   6.739  40.326  14.315
74480ION    NA+46905  33.772  17.504   0.537
74481ION    NA+46906  43.327  44.355   4.328
74482ION    NA+46907   7.605  35.188   1.852
74483ION    NA+46908  36.742  19.539  14.290
74484ION    NA+46909  22.445  23.375   1.898
74485ION    NA+46910  36.088  13.389  12.470
74486ION    NA+46911  30.492  26.912   0.854
74487ION    NA+46912  25.087  41.067  14.008
74488ION    NA+46913   0.088  39.773   3.601
74489ION    NA+46914  12.728   1.903   2.653
74490ION    NA+46915  19.274   8.072  13.772
74491ION    NA+46916  16.365  26.685  11.907
74492ION    NA+46917   5.213  40.292  11.976
74493ION    NA+46918  35.950   1.584  14.670
74494ION    NA+46919  40.769  27.176   4.316
74495ION    NA+46920  32.616  34.389  12.965
74496ION    NA+46921  17.177   1.743   1.939
74497ION    NA+46922  11.612  41.580  12.904
74498ION    NA+46923  15.484   6.634   2.157
74499ION    NA+46924  10.703  37.288  12.042
74500ION    NA+46925  22.167  21.951   4.239
74501ION    NA+46926  20.800   1.153   1.434
74502ION    NA+46927  10.474  24.573   1.203
74503ION    NA+46928  15.737   1.691  13.426
74504ION    NA+46929  14.549   2.143   0.033
74505ION    NA+46930  13.552   7.287  12.409
74506ION    NA+46931   9.217  40.829  14.568
74507ION    NA+46932  33.109   3.452   0.905
74508ION    NA+46933  38.703  18.869   1.070
74509ION    NA+46934  28.863  32.466   0.851
74510ION    NA+46935   5.883  11.364   3.928
74511ION    NA+46936  40.300  23.735  13.833
74512ION    NA+46937  44.099   6.374  14.616
74513ION    NA+46938  29.534  19.181   3.455
74514ION    NA+46939  24.590  30.929  11.603
74515ION    NA+46940  29.755  40.248  11.142
74516ION    NA+46941  34.586  37.037  11.738
74517ION    NA+46942  35.569  29.069  14.505
74518ION    NA+46943   9.908  15.205   2.766
74519ION    NA+46944  20.943  24.469   3.628
74520ION    NA+46945  38.650  40.116   4.586
74521ION    NA+46946  11.736  20.528   3.263
74522ION    NA+46947   9.697   1.717   4.879
74523ION    NA+46948  35.337  18.997  12.365
74524ION    NA+46949  22.040  16.963  13.422
74525ION    NA+46950  26.380   7.391   1.268
74526ION    NA+46951  35.901  23.431  11.909
74527ION    NA+46952  24.898  36.872   4.168
74528ION    NA+46953  19.903  15.149   0.390
74529ION    NA+46954  25.010  29.528   5.910
74530ION    NA+46955  12.831  40.325   3.780
74531ION    NA+46956  11.351  11.548  11.511
74532ION    NA+46957  26.998  20.616  11.840
74533ION    NA+46958   1.451  41.900  14.050
74534ION    NA+46959  16.874  32.402  13.166
74535ION    NA+46960  41.881  21.796  11.702
74536ION    NA+46961  24.703  32.385   9.708
74537ION    NA+46962  37.100  14.271  11.094
74538ION    NA+46963  17.980  14.555   1.842
74539ION    NA+46964  35.062  38.974  12.615
74540ION    NA+46965  25.922   9.806   0.543
74541ION    NA+46966   2.137  34.343   0.265
74542ION    CL-46967   7.035  22.375  11.468
74543ION    CL-46968  15.662  44.400   1.655
74544ION    CL-46969  39.646  28.648  13.271
74545ION    CL-46970   3.835  16.973   1.348
74546ION    CL-46971  31.588  18.084  13.550
74547ION    CL-46972  23.506  13.204   2.690
74548ION    CL-46973  44.906   7.430  11.964
74549ION    CL-46974  24.169  19.228   0.911
74550ION    CL-46975  28.682  20.993  14.432
74551ION    CL-46976   4.738  32.269  11.871
74552ION    CL-46977  31.239  38.064  13.849
74553ION    CL-46978  29.386   7.293   9.778
74554ION    CL-46979  12.432  41.915   2.880
74555ION    CL-46980  10.256   0.542  11.924
74556ION    CL-46981  27.966  34.423   2.771
74557ION    CL-46982  31.266  17.113   5.063
74558ION    CL-46983  10.542  15.144  11.891
74559ION    CL-46984  22.673  10.904   0.215
74560ION    CL-46985  28.972  33.083   3.210
74561ION    CL-46986  18.101   8.223  13.587
74562ION    CL-46987  41.190  20.521  14.175
74563ION    CL-46988  31.363  36.164  12.822
74564ION    CL-46989  24.652  11.914  11.931
74565ION    CL-46990  29.138  19.410   3.437
74566ION    CL-46991  44.954  36.649   4.905
74567ION    CL-46992  31.524  34.626   3.279
74568ION    CL-46993  21.347   5.980   3.954
74569ION    CL-46994   8.729  10.709   1.031
74570ION    CL-46995  18.067  32.073   2.356
74571ION    CL-46996  10.951  36.533   3.719
74572ION    CL-46997  21.691   5.731  10.673
74573ION    CL-46998   2.943  31.190   2.556
74574ION    CL-46999   8.365  35.497   3.740
74575ION    CL-47000  20.358  23.250  14.355
74576ION    CL-47001  30.030  16.452   2.726
74577ION    CL-47002   5.344   1.438   3.758
74578ION    CL-47003  27.569   4.138  14.975
74579ION    CL-47004  23.501  17.229   1.050
74580ION    CL-47005  30.551  32.256   0.403
74581ION    CL-47006  10.777  36.937  13.369
74582ION    CL-47007  28.785  32.111   0.574
74583ION    CL-47008  41.061  29.951  13.267
74584ION    CL-47009   8.708  40.056   0.100
74585ION    CL-47010  36.842  17.737  14.582
74586ION    CL-47011  27.914   2.511  12.087
74587ION    CL-47012  10.838  22.232  12.446
74588ION    CL-47013  35.930  39.296   0.742
74589ION    CL-47014   1.515  15.055  12.492
74590ION    CL-47015  32.790  42.562  11.736
74591ION    CL-47016  14.747  27.424  10.725
74592ION    CL-47017  29.198  37.394  13.916
74593ION    CL-47018   4.657  38.551   9.870
74594ION    CL-47019   0.187   5.713  12.909
74595ION    CL-47020   5.646  27.614   2.610
74596ION    CL-47021  21.799  38.997   2.763
74597ION    CL-47022  37.024  15.737   3.625
74598ION    CL-47023   7.411  17.489  14.973
74599ION    CL-47024   9.700   2.878  13.489
74600ION    CL-47025   4.466   8.255   3.447
74601ION    CL-47026  40.763  32.496  14.263
74602ION    CL-47027   1.439  41.029  10.731
74603ION    CL-47028  43.834  33.531   4.366
74604ION    CL-47029  13.278  26.118  14.351
74605ION    CL-47030  44.547  17.490   4.071
74606ION    CL-47031  27.056  35.270  14.895
74607ION    CL-47032   8.876  11.312  13.501
74608ION    CL-47033  28.361  37.283  12.549
74609ION    CL-47034  12.679  22.775   3.447
74610ION    CL-47035  32.549   9.870   3.211
74611ION    CL-47036  38.042   2.393   0.709
74612ION    CL-47037  11.015  31.853   3.884
74613ION    CL-47038   2.225  14.977  14.504
74614ION    CL-47039   1.948  38.194   0.547
74615ION    CL-47040   1.471  44.465  13.293
74616ION    CL-47041  42.397  27.116  12.440
74617ION    CL-47042  40.460   9.191  11.543
74618ION    CL-47043  18.908  38.031  14.932
74619ION    CL-47044   1.043   7.453   2.006
74620ION    CL-47045  32.346  23.457  11.139
74621ION    CL-47046  26.739  15.249  14.469
74622ION    CL-47047  42.314   6.558   3.219
74623ION    CL-47048  38.634  11.070   1.221
74624ION    CL-47049  20.366  22.708   0.071
74625ION    CL-47050  15.264   6.426   1.829
74626ION    CL-47051   8.759  11.773  10.638
74627ION    CL-47052  36.433  36.435   2.775
74628ION    CL-47053   8.641  23.885   9.955
74629ION    CL-47054   4.857  41.143  12.954
74630ION    CL-47055  26.880  11.832   2.284
74631ION    CL-47056  16.374  13.553   2.692
74632ION    CL-47057  37.596  34.095  13.868
74633ION    CL-47058   4.759   4.128   3.243
74634ION    CL-47059  12.617  41.320  11.930
74635ION    CL-47060  28.476  19.935   2.163
74636ION    CL-47061   4.277   6.658   4.124
74637ION    CL-47062  30.011   4.449   2.799
74638ION    CL-47063  25.559  10.962  10.724
74639ION    CL-47064  18.532  13.182  13.714
74640ION    CL-47065  34.462  12.763  12.629
74641ION    CL-47066  21.766  10.667   3.186
74642ION    CL-47067  14.630  14.188   0.833
74643ION    CL-47068  34.652  24.917  12.553
74644ION    CL-47069   9.108   0.302   3.817
74645ION    CL-47070   0.223  44.895   2.869
74646ION    CL-47071  21.545  37.316  12.865
74647ION    CL-47072   8.947  28.202  11.904
74648ION    CL-47073  38.272   4.491  14.798
74649ION    CL-47074  31.872  39.449   3.350
74650ION    CL-47075  29.898  18.964   3.259
74651ION    CL-47076  10.669  24.009  13.485
74652ION    CL-47077  24.204  33.035   1.111
74653ION    CL-47078   7.454  38.287  14.979
74654ION    CL-47079  28.053   0.497  10.992
74655ION    CL-47080  38.845  17.965  13.422
74656ION    CL-47081  28.937   3.922  11.179
74657ION    CL-47082  43.374  15.204  11.580
74658ION    CL-47083  34.314  29.163   2.263
74659ION    CL-47084   8.775  34.539   1.918
74660ION    CL-47085   3.526  16.050   1.579
74661ION    CL-47086  37.270  26.505   3.094
74662ION    CL-47087  13.028  41.884  14.976
74663ION    CL-47088  22.283  33.532   3.222
74664ION    CL-47089  35.220  13.020   1.673
74665ION    CL-47090  13.588  38.897  13.796
74666ION    CL-47091  28.240  26.726   2.873
74667ION    CL-47092  43.398   7.732   4.921
74668ION    CL-47093  24.035  12.172  11.167
74669ION    CL-47094  32.510   8.165  13.007
74670ION    CL-47095   6.853   1.157  13.082
74671ION    CL-47096  32.098  22.015   1.919
74672ION    CL-47097  29.443  31.562   4.111
74673ION    CL-47098  29.032  25.549  11.239
74674ION    CL-47099   0.209  40.206   3.616
74675ION    CL-47100  40.033  15.259   2.405
74676ION    CL-47101   7.831  21.505   2.245
74677ION    CL-47102  27.466  28.023  10.694
74678ION    CL-47103   3.665  15.410  14.048
74679ION    CL-47104   7.736   2.071   2.671
74680ION    CL-47105  44.408  40.442   2.632
74681ION    CL-47106  21.557   0.224  13.978
74682ION    CL-47107  12.784  19.748  13.812
74683ION    CL-47108  31.382   7.443  13.365
74684ION    CL-47109  24.614  42.585  13.259
74685ION    CL-47110   8.545  17.143  13.365
74686ION    CL-47111  26.641  25.469   4.090
74687ION    CL-47112  40.668  29.867   0.024
74688ION    CL-47113  17.458  14.403   0.040
74689ION    CL-47114   8.922  37.213  12.548
74690ION    CL-47115   4.657  41.684  11.592
74691ION    CL-47116   1.291  43.226  11.157
74692ION    CL-47117  24.964  14.088   3.153
74693ION    CL-47118  37.161   3.298   3.222
74694ION    CL-47119   3.424   8.355   3.646
74695ION    CL-47120  31.911  40.706   1.542
74696ION    CL-47121  33.995  24.632   2.490
74697ION    CL-47122  12.853   5.947   1.293
74698ION    CL-47123   8.482  20.401  10.345
74699ION    CL-47124  30.950   9.770  10.683
74700ION    CL-47125  21.045  43.514   3.067
74701ION    CL-47126   6.005  43.547  12.910
74702ION    CL-47127  44.421   4.830   4.650
74703ION    CL-47128  27.443  21.884   5.409
74704ION    CL-47129  28.652  39.726   0.771
74705ION    CL-47130  17.140  23.918  12.056
74706ION    CL-47131   6.472   4.209  11.335
74707ION    CL-47132  39.419   2.617   3.272
74708ION    CL-47133  10.734  43.541   0.922
74709ION    CL-47134  28.817  14.986  10.645
74710ION    CL-47135   7.359  15.240  11.282
74711ION    CL-47136   7.766  22.859  11.367
74712ION    CL-47137   3.680   6.606   0.767
74713ION    CL-47138  17.283  32.632  13.291
74714ION    CL-47139  36.833  38.361  11.911
74715ION    CL-47140  13.673  28.765   2.472
74716ION    CL-47141  21.137  28.144  13.737
74717ION    CL-47142  11.694  11.978   1.731
74718ION    CL-47143   2.812  14.811   4.457
74719ION    CL-47144  39.272   3.277   0.585
74720ION    CL-47145  27.718  23.710  13.317
74721ION    CL-47146  13.487  31.569   1.773
74722ION    CL-47147  16.363  24.681   1.733
74723ION    CL-47148  23.052  30.003  11.512
74724ION    CL-47149  19.454  11.852  11.473
74725ION    CL-47150  18.252  37.530  14.260
74726ION    CL-47151  17.704   0.691   3.474
74727ION    CL-47152   8.914  35.934  13.004
74728ION    CL-47153  22.702  13.647   3.086
74729ION    CL-47154  10.356  11.659   3.213
74730ION    CL-47155  28.465  15.153   2.914
74731ION    CL-47156  30.606  11.409   4.906
74732ION    CL-47157  10.019  13.942   5.161
74733ION    CL-47158  43.505  17.414   2.793
74734ION    CL-47159  11.045  44.781  13.840
74735ION    CL-47160  15.554  29.159  12.015
74736ION    CL-47161  16.649  32.243  12.790
74737ION    CL-47162  24.090   9.635  12.575
74738ION    CL-47163   3.152   5.630  10.106
74739ION    CL-47164   7.944  42.852  11.576
74740ION    CL-47165  43.867   8.956   1.364
74741ION    CL-47166  18.417  31.975   3.288
74742ION    CL-47167  44.100  39.937   0.016
74743ION    CL-47168   7.959  23.656   4.318
74744ION    CL-47169  43.330  12.204  12.299
74745ION    CL-47170  21.261  26.228   1.270
74746ION    CL-47171  39.890  30.502   2.741
74747ION    CL-47172  30.941  35.332  11.561
74748ION    CL-47173  29.752  42.311   0.581
74749ION    CL-47174  11.813   5.728  13.463
74750ION    CL-47175   3.884  41.838  13.224
74751ION    CL-47176  10.749  43.944  14.485
74752ION    CL-47177  11.050  18.238   1.480
74753ION    CL-47178  39.301  25.191  10.670
74754ION    CL-47179  33.553  38.652   0.616
74755ION    CL-47180   3.543  29.923   0.852
74756ION    CL-47181  19.837  36.511   0.403
74757ION    CL-47182  35.625   9.764  13.521
74758ION    CL-47183  44.070  16.630  13.400
74759ION    CL-47184  16.996  25.650  13.335
74760ION    CL-47185  29.199  33.435  12.956
74761ION    CL-47186  29.748   8.683  11.042
74762ION    CL-47187  33.183  20.208   2.893
74763ION    CL-47188  40.971  40.013  10.707
74764ION    CL-47189  31.965  32.864  14.395
74765ION    CL-47190  15.987  12.333   3.089
74766ION    CL-47191  31.784  36.341  14.980
74767ION    CL-47192  40.874  19.026   3.567
74768ION    CL-47193   1.451   0.481  10.506
74769ION    CL-47194  22.787  27.065   4.024
74770ION    CL-47195   6.910  27.540  10.720
74771ION    CL-47196  40.058  14.731   4.169
74772ION    CL-47197  40.131   4.539   1.439
74773ION    CL-47198  35.819  24.036   4.989
74774ION    CL-47199  34.798  43.975   4.127
74775ION    CL-47200  23.147  30.606  12.304
74776ION    CL-47201  20.884   5.726  12.550
74777ION    CL-47202  10.202   8.301  13.491
74778ION    CL-47203  26.753  13.688   4.103
74779ION    CL-47204  13.275  43.362   3.219
74780ION    CL-47205   1.715  25.542  12.388
74781ION    CL-47206  36.008  21.175  11.813
74782ION    CL-47207  29.869  36.557   3.272
74783ION    CL-47208  18.837  22.777   2.263
74784ION    CL-47209  21.058   7.672  12.228
74785ION    CL-47210  35.595   6.978   1.402
74786ION    CL-47211  20.709  25.029  12.973
74787ION    CL-47212  35.476  13.615   2.537
74788ION    CL-47213  39.873   8.625   3.247
74789ION    CL-47214   6.322  36.961   1.232
74790ION    CL-47215  40.461  25.010   5.016
74791ION    CL-47216   3.487   1.264   4.950
74792ION    CL-47217  10.596  41.884  14.875
74793ION    CL-47218  21.159   6.510   1.415
74794ION    CL-47219  17.627  14.314  11.749
74795ION    CL-47220  29.927  36.834  14.607
74796ION    CL-47221  42.125  14.148   2.160
74797ION    CL-47222  15.883  25.984   0.109
74798ION    CL-47223  42.190  27.106  14.094
74799ION    CL-47224  31.008  24.081   1.279
74800ION    CL-47225  22.120  34.604  13.524
74801ION    CL-47226  44.987  26.199  10.685
74802ION    CL-47227  11.538  24.210   4.627
74803ION    CL-47228  34.569  43.256   2.642
74804ION    CL-47229   8.532  41.738  12.159
74805ION    CL-47230   9.626  29.651  11.559
74806ION    CL-47231  35.818   5.846   1.847
74807ION    CL-47232   1.970  24.152   1.854
74808ION    CL-47233  15.155  24.466   0.567
74809ION    CL-47234  38.248  26.598  10.514
74810ION    CL-47235   6.236  29.995  11.871
74811ION    CL-47236  37.670  23.283   1.853
74812ION    CL-47237  42.597  15.928  10.920
74813ION    CL-47238  24.745  31.579   4.569
74814ION    CL-47239  19.168  16.716   3.602
74815ION    CL-47240  34.114  28.181   1.164
74816ION    CL-47241  14.332  13.731  12.098
74817ION    CL-47242   9.067   4.914   4.213
74818ION    CL-47243  22.944   8.019  11.102
74819ION    CL-47244  15.842  24.625  14.930
74820ION    CL-47245   5.307  23.406   3.860
74821ION    CL-47246  39.474  39.056  13.839
74822ION    CL-47247  10.881  27.375   3.165
74823ION    CL-47248   7.145   5.249  14.882
74824ION    CL-47249  26.535  38.893  14.702
74825ION    CL-47250  16.365   0.534   1.235
74826ION    CL-47251  31.470  27.019  12.466
74827ION    CL-47252   2.941  44.022   1.746
74828ION    CL-47253  28.663   0.571  10.203
74829ION    CL-47254  33.285  36.399   4.584
74830ION    CL-47255  26.558   5.007   5.010
74831ION    CL-47256  26.502  20.639  12.945
74832ION    CL-47257  27.590  12.560  12.074
74833ION    CL-47258  16.852   5.572   2.595
74834ION    CL-47259   4.982  33.367  11.982
74835ION    CL-47260  23.742  10.574  12.368
74836ION    CL-47261  32.975  14.333  11.862
74837ION    CL-47262  31.058  21.151   3.469
74838ION    CL-47263  43.008  39.346   3.332
74839ION    CL-47264   0.912   4.468  11.639
74840ION    CL-47265   0.203   8.927   2.745
74841ION    CL-47266   9.418  13.424   1.373
74842ION    CL-47267   2.949  18.126   2.180
74843ION    CL-47268  10.378  22.286  13.333
74844ION    CL-47269  26.857  33.032  10.309
74845ION    CL-47270  40.805  30.338  14.152
74846ION    CL-47271  40.555  41.914   0.256
74847ION    CL-47272  39.982   2.152   4.093
74848ION    CL-47273  14.896  21.983  12.515
74849ION    CL-47274  10.645   0.386   0.198
74850ION    CL-47275  38.032  10.324  13.994
74851ION    CL-47276  42.808   6.621  13.120
74852ION    CL-47277  17.718   1.086  11.947
74853ION    CL-47278  32.811  28.756  11.454
74854ION    CL-47279  42.482  31.412   1.556
74855ION    CL-47280  23.734   5.826   4.262
74856ION    CL-47281  44.257  40.943   1.386
74857ION    CL-47282  17.512  11.207  11.944
74858ION    CL-47283  39.427  14.804  13.032
74859ION    CL-47284   1.629  22.255   0.994
74860ION    CL-47285   0.478  12.884   2.329
74861ION    CL-47286  20.115   7.334   1.874
74862ION    CL-47287  43.673   6.237  14.680
74863ION    CL-47288  42.627  37.384   3.710
74864ION    CL-47289  34.465   4.347  14.002
74865ION    CL-47290  28.683  23.577   4.315
74866ION    CL-47291  21.149  23.574  14.875
74867ION    CL-47292  36.203  23.167  10.154
74868ION    CL-47293  35.918  11.952  12.998
74869ION    CL-47294  20.556  42.745   1.390
74870ION    CL-47295  19.516  22.469   3.477
74871ION    CL-47296  33.091  14.376   4.998
74872ION    CL-47297  37.835  26.709   2.543
74873ION    CL-47298  34.723   9.676   3.865
74874ION    CL-47299   6.796  18.517  11.304
74875ION    CL-47300  37.384  43.875  14.374
74876ION    CL-47301  25.439  26.472  14.209
74877ION    CL-47302  44.719  39.777  13.337
74878ION    CL-47303  40.687  14.761  13.192
74879ION    CL-47304  34.874  11.256  11.366
74880ION    CL-47305  20.893  38.601  13.947
74881ION    CL-47306  33.617  33.674  12.433
74882ION    CL-47307  34.631   8.379  12.662
74883ION    CL-47308  43.908   4.710   9.890
74884ION    CL-47309   0.367  35.040  12.386
74885ION    CL-47310  40.567  13.140  13.335
74886ION    CL-47311  13.901  44.832  10.760
74887ION    CL-47312  43.431  30.461  14.293
74888ION    CL-47313  15.090  35.636  12.745
74889ION    CL-47314  30.526  21.412  11.731
74890ION    CL-47315  40.854   0.082  13.409
74891ION    CL-47316  25.649  42.577  11.108
74892ION    CL-47317  33.180   0.052   0.343
74893ION    CL-47318  29.096  32.839   0.972
74894ION    CL-47319  33.121  41.457  12.532
74895ION    CL-47320  34.400  22.086  12.908
74896ION    CL-47321  16.719  34.043   2.695
74897ION    CL-47322  11.241  23.487  10.411
74898ION    CL-47323  32.936  42.452  10.526
74899ION    CL-47324  28.974  44.139   1.819
74900ION    CL-47325  12.864   5.294   0.197
74901ION    CL-47326  11.802  42.506  13.916
74902ION    CL-47327   3.138  12.765  14.515
74903ION    CL-47328  17.479  39.892  14.947
74904ION    CL-47329  33.532   6.786  13.894
74905ION    CL-47330  15.513  30.713  10.409
74906ION    CL-47331  20.386  20.329  13.790
74907ION    CL-47332  12.080  11.179   3.306
74908ION    CL-47333   7.293   6.630   0.263
74909ION    CL-47334  17.670   9.084  12.808
74910ION    CL-47335  17.389  25.673   3.224
74911ION    CL-47336  23.240  33.923  14.805
74912ION    CL-47337  24.395  13.124   0.820
74913ION    CL-47338  28.061  39.868   1.664
74914ION    CL-47339  25.736  12.337  11.097
74915ION    CL-47340  10.790   2.618   0.773
74916ION    CL-47341  31.977  35.631  13.980
74917ION    CL-47342  11.663  41.717   2.273
74918ION    CL-47343  31.326  22.252   4.669
74919ION    CL-47344  14.349   0.684   2.083
74920ION    CL-47345  41.316  19.030   2.614
74921ION    CL-47346   4.926  14.367   3.425
74922ION    CL-47347  16.096  14.722  14.861
74923ION    CL-47348   4.219  41.665   0.128
74924ION    CL-47349  35.580  25.448   4.746
74925ION    CL-47350  22.742  11.328  13.070
74926ION    CL-47351  30.323  10.055   0.360
74927ION    CL-47352  16.213   4.570  10.718
74928ION    CL-47353  13.260  39.773   0.251
74929ION    CL-47354  16.907   6.214   0.306
74930ION    CL-47355  15.023  12.845   2.874
74931ION    CL-47356   6.721  23.303  14.839
74932ION    CL-47357   6.774  25.442   0.963
74933ION    CL-47358  41.638   9.077  12.833
74934ION    CL-47359  20.638   0.168   5.034
74935ION    CL-47360   9.620  33.901  13.384
74936ION    CL-47361  12.600  38.305   1.924
74937ION    CL-47362  40.893  19.372  12.918
74938ION    CL-47363  13.147  35.829  13.232
74939ION    CL-47364   3.953  32.138   0.467
74940ION    CL-47365  37.676  29.624   1.695
74941ION    CL-47366  38.345  30.461  12.956
74942ION    CL-47367   9.749  44.153  11.151
74943ION    CL-47368   0.458  22.559  11.625
74944ION    CL-47369  31.120  39.162  12.969
74945ION    CL-47370  28.797  31.743   3.504
74946ION    CL-47371  34.622  33.467  14.994
74947ION    CL-47372  12.732  28.031   1.169
74948ION    CL-47373  10.580  20.421   5.101
74949ION    CL-47374  17.683  37.538   1.180
74950ION    CL-47375  43.729   5.941   2.543
74951ION    CL-47376  18.386  15.116   0.850
74952ION    CL-47377  21.625  15.298  13.819
74953ION    CL-47378  23.527  15.510  14.032
74954ION    CL-47379  14.639   1.708  14.927
74955ION    CL-47380  39.712  21.317   3.348
74956ION    CL-47381  14.750   7.778   5.227
74957ION    CL-47382  25.812   0.473   3.637
74958ION    CL-47383   8.252  12.385  11.959
74959ION    CL-47384   1.159  19.891  12.841
74960ION    CL-47385  14.602  44.181   3.710
74961ION    CL-47386   8.616  27.099  13.206
74962ION    CL-47387   3.642   0.454   1.241
74963ION    CL-47388   8.681  42.846   0.424
74964ION    CL-47389  16.242   3.562  11.202
74965ION    CL-47390  28.817  24.260   9.429
74966ION    CL-47391  20.514  24.850   2.772
74967ION    CL-47392  42.021   2.679  14.724
74968ION    CL-47393   5.550  34.141   4.925
74969ION    CL-47394  39.082  10.258   0.368
74970ION    CL-47395  10.172  44.203   3.911
74971ION    CL-47396  28.994  22.772   0.169
74972ION    CL-47397  17.122  39.095   9.994
74973ION    CL-47398  14.018   5.159  11.145
74974ION    CL-47399  12.898  34.091   4.733
74975ION    CL-47400   4.101  19.903   2.009
74976ION    CL-47401  23.644  22.158  10.632
74977ION    CL-47402  30.937  40.558  13.598
74978ION    CL-47403  18.663  41.272  12.563
74979ION    CL-47404  28.489  34.035  10.807
74980ION    CL-47405  22.574  38.139   1.485
74981ION    CL-47406   0.235   7.842   4.012
74982ION    CL-47407  14.422  30.466   0.090
74983ION    CL-47408  23.454  27.258   3.304
74984ION    CL-47409  13.013   1.031  12.294
74985ION    CL-47410   3.412  32.102   4.823
74986ION    CL-47411  38.002  24.047   2.751
74987ION    CL-47412  43.670   3.815  11.752
74988ION    CL-47413  40.577  11.750  12.981
74989ION    CL-47414  15.665  17.944   3.503
74990ION    CL-47415   3.327  17.725  13.075
74991ION    CL-47416  44.985  42.750   1.439
74992ION    CL-47417  24.800  31.096  11.980
74993ION    CL-47418  40.073   3.927   0.637
74994ION    CL-47419  35.403  16.184  12.489
74995ION    CL-47420  22.605  32.387  14.138
74996ION    CL-47421  23.405  21.443  13.862
74997ION    CL-47422  35.355  44.674  11.741
74998ION    CL-47423  21.822   7.687   0.956
74999ION    CL-47424  23.636  24.238  13.464
75000ION    CL-47425   0.679  20.068  14.807
75001ION    CL-47426  26.966   4.863   1.857
75002ION    CL-47427  20.198  11.571   5.223
75003ION    CL-47428  17.759  17.847   3.693
75004ION    CL-47429  11.591  37.625   0.503
75005ION    CL-47430  11.964  18.877  12.615
75006ION    CL-47431  41.584  40.326  13.335
75007ION    CL-47432  25.206  31.246   1.327
75008ION    CL-47433  22.685  12.898  11.121
75009ION    CL-47434   8.378  31.364   3.867
75010ION    CL-47435   7.897  33.800   1.498
75011ION    CL-47436  28.064   1.143   4.693
75012ION    CL-47437  16.555  17.594  12.104
75013ION    CL-47438  23.816   0.688   3.655
75014ION    CL-47439  26.330  33.167  12.207
75015ION    CL-47440  15.793  42.976   0.503
75016ION    CL-47441   2.948  15.420  10.856
75017ION    CL-47442  24.776   0.796  11.698
75018ION    CL-47443  29.986  39.129  11.175
75019ION    CL-47444  14.517   4.605  14.331
75020ION    CL-47445   6.476  22.510   4.566
75021ION    CL-47446  32.059  36.144   3.261
75022ION    CL-47447  37.575  44.047   1.386
75023ION    CL-47448  43.458  20.635   4.542
75024ION    CL-47449  34.912  24.030   0.257
75025ION    CL-47450   5.145  26.313  11.502
75026ION    CL-47451  41.344  37.544  13.513
75027ION    CL-47452  12.490  35.035   4.952
75028ION    CL-47453   7.082  37.322   2.995
75029ION    CL-47454  35.996  29.669   3.085
75030ION    CL-47455  15.723  29.991   4.873
75031ION    CL-47456  38.495  12.890  12.583
75032ION    CL-47457  21.554  24.054   2.571
75033ION    CL-47458   7.733   4.067   3.865
75034ION    CL-47459  33.467  28.285  11.848
75035ION    CL-47460  12.102   3.024   2.221
75036ION    CL-47461  34.841  16.095   3.272
75037ION    CL-47462  17.103  15.069   4.931
75038ION    CL-47463  40.911  24.258   4.777
75039ION    CL-47464  16.688  11.390   3.106
75040ION    CL-47465  33.724  37.416   5.068
75041ION    CL-47466   1.856   3.034  12.396
75042ION    CL-47467  44.676  24.923  14.980
75043ION    CL-47468  20.398  14.162   4.577
75044ION    CL-47469  33.170  36.010  12.013
75045ION    CL-47470   2.411   2.041   4.171
75046ION    CL-47471  21.376  27.334  12.602
75047ION    CL-47472  10.610  10.236   1.158
75048ION    CL-47473  28.439   7.833   2.086
75049ION    CL-47474  43.200   7.006   4.438
75050ION    CL-47475  22.479   1.948   1.324
75051ION    CL-47476  31.270  36.164   2.648
75052ION    CL-47477  37.651   7.292  12.936
75053ION    CL-47478  40.868  17.149   1.623
75054ION    CL-47479  24.762  43.268   1.860
75055ION    CL-47480  42.106  27.779  10.310
75056ION    CL-47481  43.430  35.338  11.976
75057ION    CL-47482  29.998  23.555   2.271
75058ION    CL-47483  26.303  24.557  10.884
75059ION    CL-47484  13.328  16.307   1.339
75060ION    CL-47485  25.828  27.267  14.309
75061ION    CL-47486  17.292  35.691  12.072
75062ION    CL-47487   7.740   0.164   2.820
75063ION    CL-47488  22.844  32.784   2.696
75064ION    CL-47489  35.967  37.400   3.415
75065ION    CL-47490  30.071  31.623  14.490
75066ION    CL-47491  32.562  37.872   1.910
75067ION    CL-47492  37.933  37.943  10.718
75068ION    CL-47493  22.565  19.169   4.572
75069ION    CL-47494  15.641   8.348  13.968
75070ION    CL-47495   5.465  25.458   3.788
75071ION    CL-47496  39.962  12.101  10.946
75072ION    CL-47497  21.083   9.294  12.082
75073ION    CL-47498  23.326  31.735  10.925
75074ION    CL-47499  23.210   4.559  10.394
75075ION    CL-47500  22.176  12.163  12.548
75076ION    CL-47501  12.681  33.102  12.333
75077ION    CL-47502  21.167  22.923   5.034
75078ION    CL-47503  29.983   3.051   4.206
75079ION    CL-47504  42.023  39.222   3.823
75080ION    CL-47505  39.510   4.120  13.945
75081ION    CL-47506  12.740  15.607  14.963
75082ION    CL-47507  19.269  12.681  12.570
75083ION    CL-47508  30.681  42.467   0.245
75084ION    CL-47509  36.025  43.130  11.519
75085ION    CL-47510   8.993  22.648  12.305
75086ION    CL-47511  37.082  19.448  11.658
75087ION    CL-47512   9.796  18.197   4.902
75088ION    CL-47513  43.341  20.496   0.462
75089ION    CL-47514  24.296   8.367  13.344
75090ION    CL-47515  17.537  30.025   2.757
75091ION    CL-47516  16.644  27.031  11.866
75092ION    CL-47517  11.101  37.478  11.967
75093ION    CL-47518   5.419  32.359  11.113
75094ION    CL-47519   4.594  18.154   3.467
75095ION    CL-47520  27.396  42.029  11.471
75096ION    CL-47521  24.216  37.991  12.066
75097ION    CL-47522  27.386  43.228  14.366
75098ION    CL-47523  24.675   7.591   4.082
75099ION    CL-47524  12.134  30.438   1.362
75100ION    CL-47525   5.249   4.468  13.813
75101ION    CL-47526  23.793  33.211   2.784
75102ION    CL-47527  33.553  42.654  12.202
75103ION    CL-47528  31.461  10.422   1.844
75104ION    CL-47529   8.381  34.983  12.213
75105ION    CL-47530  29.261  30.779   1.777
75106ION    CL-47531   0.797   6.237   0.852
75107ION    CL-47532   0.719   2.282   2.948
75108ION    CL-47533  24.189  22.534   0.308
75109ION    CL-47534  19.979   4.912   4.217
75110ION    CL-47535  10.710  14.217   2.154
75111ION    CL-47536  43.751  16.279   5.215
75112ION    CL-47537  31.404  12.753  11.628
75113ION    CL-47538   6.465  44.365  13.440
75114ION    CL-47539  12.322  36.991   1.799
75115ION    CL-47540  24.287  17.264   1.667
75116ION    CL-47541  12.317  42.452  13.057
75117ION    CL-47542  36.981  22.305   1.179
75118ION    CL-47543   7.926   2.603   3.497
75119ION    CL-47544  19.212   8.883   2.030
75120ION    CL-47545   1.537   9.284   3.729
75121ION    CL-47546  19.790  26.478   1.895
75122ION    CL-47547  17.553  24.648  14.003
75123ION    CL-47548  15.970  12.108  14.496
75124ION    CL-47549  27.356  10.308  13.830
75125ION    CL-47550  22.151  31.758  13.662
75126ION    CL-47551   2.814  21.455  11.490
75127ION    CL-47552   8.194   0.528   0.693
75128ION    CL-47553  26.524  42.060   1.738
75129ION    CL-47554  42.253  18.772   3.736
75130ION    CL-47555   5.932   3.928   0.390
75131ION    CL-47556   7.727  37.095   2.381
75132ION    CL-47557  17.175   9.423  14.786
75133ION    CL-47558   2.113  11.938  13.875
75134ION    CL-47559  33.547  32.991  10.300
75135ION    CL-47560  38.019  19.800  11.661
75136ION    CL-47561  40.530  24.047   0.343
75137ION    CL-47562   3.859  30.333  10.062
75138ION    CL-47563  15.471   4.154   4.024
75139ION    CL-47564  12.289  25.192   3.186
75140ION    CL-47565  15.609  31.627  10.854
75141ION    CL-47566  18.337  43.950   2.413
75142ION    CL-47567   9.297  14.912  10.557
75143ION    CL-47568  23.197  13.122  14.905
75144ION    CL-47569  23.899   4.477  11.748
75145ION    CL-47570  38.489  11.616   3.324
75146ION    CL-47571  15.606  31.073   3.809
75147ION    CL-47572   7.971  29.248  11.957
75148ION    CL-47573  44.273   8.738  11.204
75149ION    CL-47574  14.014  23.286   1.383
75150ION    CL-47575  29.419  44.655  14.081
75151ION    CL-47576  38.920  39.346   3.149
75152ION    CL-47577  31.669  26.399   3.399
75153ION    CL-47578  18.921   0.339   0.489
75154ION    CL-47579  37.975   5.343   3.250
75155ION    CL-47580  20.558   1.602  13.443
75156ION    CL-47581  13.611  31.089  14.797
75157ION    CL-47582  38.996  13.070   2.822
75158ION    CL-47583  41.269  40.373  12.032
75159ION    CL-47584  25.685   6.759   3.676
75160ION    CL-47585  26.475  14.335  13.529
75161ION    CL-47586  20.815  29.667   0.667
75162ION    CL-47587  13.247  10.194   3.006
75163ION    CL-47588  33.708  42.805  13.475
75164ION    CL-47589  12.948  41.836  12.584
75165ION    CL-47590  17.138  27.640  12.486
75166ION    CL-47591  17.477  16.957   4.215
75167ION    CL-47592  11.753   3.504  13.625
75168ION    CL-47593  33.990  17.934  13.618
75169ION    CL-47594  25.594  27.453   3.468
75170ION    CL-47595  28.382  21.869  14.054
75171ION    CL-47596  42.390   8.056   2.778
75172ION    CL-47597  14.188   0.071   3.903
75173ION    CL-47598  16.850  27.953   3.947
75174ION    CL-47599  41.464  30.128   0.571
75175ION    CL-47600  42.727  17.693  11.994
75176ION    CL-47601  28.549  26.132   0.516
75177ION    CL-47602  37.014  32.868   2.731
75178ION    CL-47603  34.520  32.802   4.000
75179ION    CL-47604   1.453  30.340   3.632
75180ION    CL-47605  19.522  20.487  13.621
75181ION    CL-47606   8.964  30.406   4.132
75182ION    CL-47607  37.027  35.368  12.437
75183ION    CL-47608  22.662  16.771   1.959
75184ION    CL-47609   9.157   7.805   4.059
75185ION    CL-47610  10.097  36.866   0.021
75186ION    CL-47611  40.986  29.270   0.761
75187ION    CL-47612  20.398  22.804   3.144
75188ION    CL-47613  27.371  34.312   4.556
75189ION    CL-47614  21.227  38.575  11.251
75190ION    CL-47615   8.857   5.303  13.585
75191ION    CL-47616  13.106  23.166  14.366
75192ION    CL-47617   1.327   5.282  14.513
75193ION    CL-47618  22.365  27.727   4.995
75194ION    CL-47619  17.561   4.210  13.832
75195ION    CL-47620   7.246   7.613   1.708
75196ION    CL-47621  30.423   8.408  14.458
75197ION    CL-47622  16.296  44.040  13.039
75198ION    CL-47623  42.333  36.594   3.355
75199ION    CL-47624  22.768  23.114   2.084
75200ION    CL-47625  15.708   9.263  11.927
75201ION    CL-47626   1.158  23.318   2.883
75202ION    CL-47627  22.131  23.550  12.855
75203ION    CL-47628   7.598  17.509   4.052
75204ION    CL-47629   1.530  14.035  10.947
75205ION    CL-47630  44.947  17.899   1.953
75206ION    CL-47631  35.250  39.340  12.428
75207ION    CL-47632   4.182   2.923   3.667
75208ION    CL-47633   2.385  25.708  14.925
75209ION    CL-47634  35.385   2.722  12.781
75210ION    CL-47635  42.345  22.071  13.478
75211ION    CL-47636  19.784  29.095   3.610
75212ION    CL-47637  43.050  32.231   1.472
75213ION    CL-47638  28.517  25.449  14.763
75214ION    CL-47639  27.741  11.568  14.868
75215ION    CL-47640  39.581  36.391   4.026
75216ION    CL-47641  16.838  34.801  11.385
75217ION    CL-47642  28.731  23.790   2.631
75218ION    CL-47643  41.012  15.304  10.510
75219ION    CL-47644  17.680   1.032   4.414
75220ION    CL-47645  26.834   1.106  12.847
75221ION    CL-47646  25.038  27.598   1.748
75222ION    CL-47647  35.877  16.069  14.237
75223ION    CL-47648  24.646  43.921  14.861
75224ION    CL-47649  32.181  25.607   3.914
75225ION    CL-47650   9.315  44.505  10.054
75226ION    CL-47651   1.723   8.120  12.933
75227ION    CL-47652  28.684  21.081   4.426
75228ION    CL-47653  35.555  19.443  13.926
75229ION    CL-47654  30.097  24.927  13.074
75230ION    CL-47655  36.633   0.492   3.698
75231ION    CL-47656  18.601  24.844  14.112
75232ION    CL-47657  10.330  17.375   4.237
75233ION    CL-47658  34.821  35.494   0.379
75234ION    CL-47659  31.441   1.798   1.168
75235ION    CL-47660  17.799  34.572   5.146
75236ION    CL-47661  36.317  23.749   0.272
75237ION    CL-47662  37.840  33.411   9.954
75238ION    CL-47663  28.524  33.966   3.347
75239ION    CL-47664  18.182  13.148   4.195
75240ION    CL-47665  37.214   0.364   0.917
75241ION    CL-47666  35.016  20.804  10.844
75242ION    CL-47667  44.036  33.997   5.355
75243ION    CL-47668  24.040  16.460  13.362
75244ION    CL-47669  15.652  19.685   9.858
75245ION    CL-47670   0.256  12.714   5.050
75246ION    CL-47671  37.934  39.562  12.041
75247ION    CL-47672  44.247   9.186   3.381
75248ION    CL-47673  28.271  27.900   2.316
75249ION    CL-47674  16.991  39.742   2.155
75250ION    CL-47675  25.497  34.096   2.671
75251ION    CL-47676  18.063  22.238   0.298
75252ION    CL-47677  38.980  19.045  11.737
75253ION    CL-47678  29.777  18.650  12.022
75254ION    CL-47679  43.889  11.743   3.295
75255ION    CL-47680  26.616   1.340   5.139
75256ION    CL-47681  10.989   3.972   0.980
75257ION    CL-47682   8.040  17.882  14.488
75258ION    CL-47683   6.770  24.131   3.213
75259ION    CL-47684  12.302  39.840  11.133
75260ION    CL-47685  31.394  20.541  11.479
75261ION    CL-47686  22.063   5.683  14.984
75262ION    CL-47687   7.295  10.139  13.327
75263ION    CL-47688   6.208  22.394  11.087
75264ION    CL-47689  11.805  27.907  12.415
75265ION    CL-47690  19.057   8.913   4.161
75266ION    CL-47691  43.112  30.512   3.180
75267ION    CL-47692  16.205  19.543   4.670
75268ION    CL-47693   3.933  20.570  13.902
75269ION    CL-47694  34.395  25.859  12.337
75270ION    CL-47695  11.817  31.617  10.873
75271ION    CL-47696   0.340  10.338   0.438
75272ION    CL-47697  11.190  12.324   3.230
75273ION    CL-47698  25.775  23.257  11.514
75274ION    CL-47699  37.452  28.557   3.872
75275ION    CL-47700   9.805  41.490  11.403
75276ION    CL-47701   6.411   2.879  12.922
75277ION    CL-47702   5.361  39.784  14.125
75278ION    CL-47703  21.363  24.301   3.704
75279ION    CL-47704   7.963  30.951   3.150
75280ION    CL-47705  17.190  20.744   1.078
75281ION    CL-47706   1.084  29.717  13.221
75282ION    CL-47707  19.282   7.614  12.051
75283ION    CL-47708  14.314  13.101  13.453
75284ION    CL-47709  42.509  41.469  14.481
75285ION    CL-47710   6.667  33.634   2.256
75286ION    CL-47711  40.832  33.224   4.368
75287ION    CL-47712  36.940  16.283  10.782
75288ION    CL-47713  10.314  34.123  12.811
75289ION    CL-47714  19.413  31.910   3.344
75290ION    CL-47715  37.817   6.789   5.060
75291ION    CL-47716  31.099  17.011   0.056
75292ION    CL-47717  41.543  35.483  13.357
75293ION    CL-47718  10.790  30.676  11.708
75294ION    CL-47719  36.961   8.167   3.316
75295ION    CL-47720  13.942   6.233  11.456
75296ION    CL-47721  34.204  44.590   2.884
75297ION    CL-47722  10.527  24.483   1.637
75298ION    CL-47723  13.234   4.834   3.894
75299ION    CL-47724  28.944  22.190  11.029
75300ION    CL-47725  23.500  15.408   0.744
75301ION    CL-47726  42.142  13.283  10.439
75302ION    CL-47727  42.024  16.762  14.269
75303ION    CL-47728  18.547  23.096  14.443
75304ION    CL-47729  12.038  17.255   4.850
75305ION    CL-47730  18.480  35.102  14.977
75306ION    CL-47731   5.744  15.386   2.892
75307ION    CL-47732  31.247   7.539   2.958
75308ION    CL-47733  19.649  35.508   1.286
75309ION    CL-47734   5.890  17.911   3.625
75310ION    CL-47735  35.502  34.382   1.011
75311ION    CL-47736   0.152  36.569  12.984
75312ION    CL-47737   4.506  21.590  12.106
75313ION    CL-47738  35.812  11.021  12.649
75314ION    CL-47739   3.472  18.923  11.597
75315ION    CL-47740   8.617  22.515   1.901
75316ION    CL-47741  21.281  41.855   2.449
75317ION    CL-47742  14.149   8.489   9.951
75318ION    CL-47743  24.716  24.939  14.215
75319ION    CL-47744   7.659  15.057   3.794
75320ION    CL-47745   3.786  44.477   0.476
75321ION    CL-47746  30.061  34.909  13.825
75322ION    CL-47747  23.198  19.148  14.087
75323ION    CL-47748   0.853  20.702   2.710
75324ION    CL-47749  16.852  44.804  11.355
75325ION    CL-47750   6.006   5.834  11.673
75326ION    CL-47751  42.440  29.821   2.915
75327ION    CL-47752  29.602  11.593   3.643
75328ION    CL-47753  10.730  23.476  14.425
75329ION    CL-47754  44.459   0.755   2.783
75330ION    CL-47755  16.142  19.509  13.848
75331ION    CL-47756   3.333  44.720   5.002
75332ION    CL-47757  17.542  22.115  13.732
75333ION    CL-47758  44.399  39.945   1.386
75334ION    CL-47759  19.981  18.837  14.314
75335ION    CL-47760  36.346  26.818   0.661
75336ION    CL-47761  18.731   9.427   2.940
75337ION    CL-47762   3.205  33.760  14.041
75338ION    CL-47763  31.324   6.711   4.507
75339ION    CL-47764  35.450  35.159   4.736
75340ION    CL-47765  29.874  25.973  11.571
75341ION    CL-47766  43.032  28.302  14.891
75342ION    CL-47767  15.278  41.167  11.239
75343ION    CL-47768  32.598  30.367   1.937
75344ION    CL-47769   7.651  12.941   3.797
75345ION    CL-47770  10.257  25.552   3.687
75346ION    CL-47771  11.208   7.263  12.391
75347ION    CL-47772   3.721  14.302  13.107
75348ION    CL-47773   8.959  35.528  14.778
75349ION    CL-47774  22.854  10.070   0.470
75350ION    CL-47775  38.216  41.751  11.683
75351ION    CL-47776  22.267  22.054  12.501
75352ION    CL-47777  20.127  33.236  12.220
75353ION    CL-47778   0.012  15.601   5.173
75354ION    CL-47779  16.336  10.919  11.121
75355ION    CL-47780  38.115   9.709  10.586
75356ION    CL-47781  35.304  21.365   9.935
75357ION    CL-47782   4.279  36.563  14.484
75358ION    CL-47783  31.681   7.075  10.988
75359ION    CL-47784   3.571  12.134  12.381
75360ION    CL-47785  34.526  37.040  12.184
75361ION    CL-47786  19.644   3.853   3.686
75362ION    CL-47787  26.222   4.046   0.696
75363ION    CL-47788  34.291  43.778   0.985
75364ION    CL-47789  34.883  33.099  12.921
75365ION    CL-47790  31.988  18.951  12.434
75366ION    CL-47791  19.468  23.285  12.029
75367ION    CL-47792   0.530  24.352   3.700
75368ION    CL-47793  41.396  28.649   2.641
75369ION    CL-47794  37.603  42.886   0.021
75370ION    CL-47795  32.163   8.494   2.957
75371ION    CL-47796  22.247  38.391  12.314
75372ION    CL-47797   7.333  27.684  12.128
75373ION    CL-47798  35.341  31.876  12.183
75374ION    CL-47799   3.136  44.690  11.129
75375ION    CL-47800  42.857   2.065   1.572
75376ION    CL-47801  35.833  23.075  11.648
75377ION    CL-47802  14.679  34.865  14.429
75378ION    CL-47803  18.780  16.999  13.664
75379ION    CL-47804   3.462  10.907   4.005
75380ION    CL-47805   7.812  22.881  13.979
75381ION    CL-47806  16.830  25.955   4.670
75382ION    CL-47807  11.595   3.214   3.845
75383ION    CL-47808  35.701   1.221  14.582
75384ION    CL-47809  28.880  19.327  11.585
75385ION    CL-47810   1.250  23.902   1.206
75386ION    CL-47811  31.581  37.941   2.881
75387ION    CL-47812  23.884  31.414   2.987
75388ION    CL-47813  12.861   8.256   2.295
75389ION    CL-47814  23.789  21.896  12.750
75390ION    CL-47815  42.861   2.431   2.502
75391ION    CL-47816  16.446  28.212   3.057
75392ION    CL-47817  35.495  15.210  10.243
75393ION    CL-47818   9.500  43.283  11.018
75394ION    CL-47819  38.175  16.709   2.825
75395ION    CL-47820  44.539  21.528   1.263
75396ION    CL-47821   3.147  44.389  13.812
75397ION    CL-47822  34.859  11.176  13.038
75398ION    CL-47823  40.913   3.850  14.874
75399ION    CL-47824  26.142  14.601   2.757
75400ION    CL-47825  13.806  34.371   4.422
75401ION    CL-47826  26.558  33.827  13.519
75402ION    CL-47827  21.112   3.123  14.239
75403ION    CL-47828  36.489   8.719   2.455
75404ION    CL-47829  17.992  17.401  13.589
75405ION    CL-47830  42.212  18.611   2.354
75406ION    CL-47831  13.878  41.956   3.884
75407ION    CL-47832  24.886  17.051   2.440
75408ION    CL-47833   3.863  27.446   4.202
75409ION    CL-47834  25.953   8.140   4.434
75410ION    CL-47835  11.424   7.404   4.427
75411ION    CL-47836  17.528   3.728   0.204
75412ION    CL-47837  21.188  21.808  13.454
75413ION    CL-47838  36.884  39.113  13.273
75414ION    CL-47839   2.956   8.445   4.525
75415ION    CL-47840  31.690  43.144  14.784
75416ION    CL-47841   1.869  42.605   3.405
75417ION    CL-47842  26.695  44.098   9.769
75418ION    CL-47843   9.298  38.615  13.976
75419ION    CL-47844  14.553  17.031  10.239
75420ION    CL-47845  18.738  29.519   1.226
75421ION    CL-47846  35.556  44.367   3.605
75422ION    CL-47847  41.366   9.406  13.781
75423ION    CL-47848   1.086   2.277   2.151
75424ION    CL-47849   3.781   5.010   3.764
75425ION    CL-47850  13.376  16.839   4.221
75426ION    CL-47851   0.709  14.361   3.338
75427ION    CL-47852  26.244  33.906   3.308
75428ION    CL-47853   4.042   1.279  12.872
75429ION    CL-47854  26.707   9.197  13.401
75430ION    CL-47855  41.731  35.920  14.522
75431ION    CL-47856  21.162  35.970  14.257
75432ION    CL-47857  24.650  23.072   5.047
75433ION    CL-47858  17.829   3.785   5.127
75434ION    CL-47859  18.367  35.155   9.921
75435ION    CL-47860  32.007   2.309  13.763
75436ION    CL-47861   8.186  44.991  10.752
75437ION    CL-47862  32.730  19.406  14.238
75438ION    CL-47863  42.156  27.072  14.966
75439ION    CL-47864  28.386  17.434   2.134
75440ION    CL-47865  37.158  25.287   4.071
75441ION    CL-47866  26.590  32.165  12.583
75442ION    CL-47867   7.258  37.934  12.132
75443ION    CL-47868  42.146   0.811   0.467
75444ION    CL-47869   8.137  41.785  11.067
75445ION    CL-47870  29.632  33.480  11.216
75446ION    CL-47871  31.484  42.589   4.136
75447ION    CL-47872   0.874  15.869   1.797
75448ION    CL-47873  41.481   8.432  13.583
75449ION    CL-47874   3.272  28.071  10.934
75450ION    CL-47875   8.894  40.640  11.994
75451ION    CL-47876  21.538  43.611   1.899
75452ION    CL-47877  24.204  11.408  12.669
75453ION    CL-47878   9.446  14.267  14.876
75454ION    CL-47879  39.151  18.727  14.790
75455ION    CL-47880  36.399  39.721   1.399
75456ION    CL-47881  37.471  41.680  14.078
75457ION    CL-47882  39.579  13.472   2.058
75458ION    CL-47883  14.727  37.240  14.836
75459ION    CL-47884  21.216  18.101   3.188
75460ION    CL-47885  36.535   4.207  13.962
75461ION    CL-47886  32.226   5.411  14.076
75462ION    CL-47887  34.145  16.816  11.351
75463ION    CL-47888  38.612  36.641   4.038
75464ION    CL-47889  24.910  17.994  12.148
75465ION    CL-47890  27.070  21.428  12.709
75466ION    CL-47891   2.413  41.312  10.831
75467ION    CL-47892  13.567   6.178  13.750
75468ION    CL-47893   1.417  12.091   3.575
75469ION    CL-47894   5.614  25.484   0.013
75470ION    CL-47895  16.793   5.398  10.411
75471ION    CL-47896   8.444  19.068  10.986
75472ION    CL-47897  30.142  41.593  12.284
75473ION    CL-47898   2.922  28.041  14.049
75474ION    CL-47899  24.775  12.465   2.666
75475ION    CL-47900  27.792  27.545   1.084
75476ION    CL-47901  32.058   7.336   2.100
75477ION    CL-47902  10.240  29.877  10.258
75478ION    CL-47903   6.975   9.348  11.845
75479ION    CL-47904  35.526  24.973  13.035
75480ION    CL-47905  21.023  22.530  11.416
75481ION    CL-47906  17.695  28.911  13.449
75482ION    CL-47907  20.808   4.467  10.915
75483ION    CL-47908  25.505  24.763  11.681
75484ION    CL-47909  31.908   7.454   0.201
75485ION    CL-47910  34.065  15.187  10.855
75486ION    CL-47911  38.867  23.716  13.628
75487ION    CL-47912   9.899  43.645  10.267
75488ION    CL-47913  13.347   0.512   2.191
75489ION    CL-47914  39.849  15.825   0.612
75490ION    CL-47915  16.387   7.098   3.015
75491ION    CL-47916  36.446  25.974  12.113
75492ION    CL-47917   3.501  34.217   2.175
75493ION    CL-47918  23.106  38.483  11.171
75494ION    CL-47919  19.243  21.852   2.260
75495ION    CL-47920  25.344  40.609   1.866
75496ION    CL-47921  23.831  18.511   4.649
75497ION    CL-47922  13.560  10.995  13.877
75498ION    CL-47923  11.437  23.156   0.432
75499ION    CL-47924  22.095   7.996  14.447
75500ION    CL-47925  27.908  43.972   3.795
75501ION    CL-47926  27.304  40.171   2.827
75502ION    CL-47927  26.409  32.966   4.667
75503ION    CL-47928  41.635  20.763   0.037
75504ION    CL-47929  19.592  22.468  12.961
75505ION    CL-47930  26.640  30.432  13.947
75506ION    CL-47931   5.384  13.736  11.102
75507ION    CL-47932   5.458  40.520  13.455
75508ION    CL-47933  40.726  10.662  13.843
75509ION    CL-47934  17.326  30.247   3.709
75510ION    CL-47935  12.630  41.494   1.706
75511ION    CL-47936  31.625  23.873  12.346
75512ION    CL-47937   0.793  35.932   3.283
75513ION    CL-47938  41.324   3.726   2.222
75514ION    CL-47939  34.478  27.503  13.467
75515ION    CL-47940  25.742  37.801   1.464
75516ION    CL-47941   5.403  34.099  12.293
75517ION    CL-47942  32.201  39.470  13.349
75518ION    CL-47943  26.881  20.253   0.011
75519ION    CL-47944  33.479  22.712  11.738
75520ION    CL-47945  20.101  17.129  10.932
75521ION    CL-47946  17.429  18.825  12.549
75522ION    CL-47947  27.436  20.658  10.519
75523ION    CL-47948  31.893  14.519   5.020
75524ION    CL-47949   4.965  21.191  10.636
75525ION    CL-47950  39.173  19.479  12.962
75526ION    CL-47951  23.781   9.276   3.098
75527ION    CL-47952   6.985  25.872   3.318
75528ION    CL-47953  29.345  14.266  12.474
75529ION    CL-47954  10.433  42.126   4.556
75530ION    CL-47955  29.165   2.602  13.327
75531ION    CL-47956   2.883  20.961   2.196
75532ION    CL-47957  41.217   2.466   0.278
75533ION    CL-47958  44.519  15.357  12.511
75534ION    CL-47959  10.214  18.855  13.944
75535ION    CL-47960  12.979   9.304  12.683
75536ION    CL-47961  24.945  26.951  14.962
75537ION    CL-47962  10.372  21.243  14.568
75538ION    CL-47963   0.941  36.506   4.836
75539ION    CL-47964  11.335  39.079   3.744
75540ION    CL-47965  13.775   3.489   0.911
75541ION    CL-47966   9.218  11.372  11.441
75542ION    CL-47967  38.354  36.241  12.100
75543ION    CL-47968   3.184   9.139   3.842
75544ION    CL-47969  19.009  28.511   2.004
75545ION    CL-47970  33.989   3.513   2.650
75546ION    CL-47971  38.062   7.764  12.137
75547ION    CL-47972  26.805  38.041   1.188
75548ION    CL-47973  25.846  21.139  13.839
75549ION    CL-47974  28.150  29.541  13.810
75550ION    CL-47975   4.016  11.171  13.541
75551ION    CL-47976  15.519  26.540  14.333
75552ION    CL-47977  32.260  26.244   0.956
75553ION    CL-47978   7.698  21.185   9.837
75554ION    CL-47979  43.777  41.093   3.188
75555ION    CL-47980  24.540  22.576  10.787
75556ION    CL-47981   9.072  13.937  10.625
75557ION    CL-47982  43.783  43.810   2.305
75558ION    CL-47983  37.640   1.935   1.502
75559ION    CL-47984  11.712   4.184   4.058
75560ION    CL-47985  25.899   0.778   0.829
75561ION    CL-47986   3.406  33.167   0.325
75562ION    CL-47987  25.463   4.675   0.866
75563ION    CL-47988  35.327  42.286   1.373
75564ION    CL-47989  36.216  35.003  11.168
75565ION    CL-47990  44.357  15.336   3.693
75566ION    CL-47991  10.828  33.925   1.457
75567ION    CL-47992  39.438  40.544  12.055
75568ION    CL-47993   0.224  38.112   2.196
75569ION    CL-47994  28.393  43.944  10.340
75570ION    CL-47995  10.849  30.802  13.556
75571ION    CL-47996  27.552  43.800   9.999
75572ION    CL-47997  19.462   4.024   1.780
75573ION    CL-47998  10.166  13.604  11.557
75574ION    CL-47999  36.791  39.641   4.155
75575ION    CL-48000   7.625  38.506   1.119
75576ION    CL-48001  39.441  14.457   2.160
75577ION    CL-48002  36.342  42.630   0.567
75578ION    CL-48003  11.839  20.632   3.697
75579ION    CL-48004  23.551  44.712   1.842
75580ION    CL-48005  43.183  29.727   1.779
75581ION    CL-48006  14.363  39.743  14.269
75582ION    CL-48007  18.366  35.913  13.575
75583ION    CL-48008  25.560  16.103  14.896
75584ION    CL-48009  43.574   6.779   1.434
75585ION    CL-48010  32.057  11.002   5.118
75586ION    CL-48011   6.597  27.397   2.943
75587ION    CL-48012  38.136  31.195   4.063
75588ION    CL-48013  23.151  27.058   0.308
75589ION    CL-48014  41.901   7.173  11.157
75590ION    CL-48015   4.986  39.288  14.937
75591ION    CL-48016   8.787  30.802   1.527
75592ION    CL-48017  32.740  25.415   1.324
75593ION    CL-48018   7.913  41.831  14.490
75594ION    CL-48019  23.828  28.014   5.212
75595ION    CL-48020  39.589  19.788  13.857
75596ION    CL-48021  23.692  41.628  13.951
75597ION    CL-48022  32.888  39.613  11.029
75598ION    CL-48023   2.877  40.522   0.862
75599ION    CL-48024  14.187  25.226   2.737
75600ION    CL-48025  24.197  24.218   4.643
75601ION    CL-48026  35.145  10.119  11.896
75602ION    CL-48027   1.357  40.609   0.887
75603ION    CL-48028   3.504  26.598  11.087
75604ION    CL-48029   9.108  27.608   1.235
75605ION    CL-48030  18.564  15.998   1.273
75606ION    CL-48031  43.519  41.339   0.841
75607ION    CL-48032  10.823  31.781  13.354
75608ION    CL-48033  33.659   1.887  13.184
75609ION    CL-48034  27.667   7.817  13.291
75610ION    CL-48035  25.026  22.614   3.877
75611ION    CL-48036   7.009  12.576  11.303
75612ION    CL-48037  20.654  23.772  11.639
75613ION    CL-48038  19.133  19.330  14.512
75614ION    CL-48039  37.480  41.235  11.779
75615ION    CL-48040  34.788  14.121  14.184
75616ION    CL-48041  13.814  34.117   2.339
75617ION    CL-48042  34.642  34.290  11.669
75618ION    CL-48043  18.853  26.545   3.582
75619ION    CL-48044  15.483   2.164   0.966
75620ION    CL-48045  16.387  32.489  13.712
75621ION    CL-48046  27.452  40.930   0.946
75622ION    CL-48047  15.369   6.104   5.034
75623ION    CL-48048  24.811  24.056   4.980
75624ION    CL-48049  24.044  28.483   1.215
75625ION    CL-48050  15.647  10.263  11.856
75626ION    CL-48051  41.062   0.260   4.956
75627ION    CL-48052  27.903  26.099  12.641
75628ION    CL-48053  10.923   0.751   3.539
75629ION    CL-48054  32.162   8.259  10.641
75630ION    CL-48055  16.228  40.928   4.385
75631ION    CL-48056  13.982  11.570  11.024
75632ION    CL-48057   7.959  13.548  13.264
75633ION    CL-48058  25.220  15.375   4.657
75634ION    CL-48059   5.802  33.005  13.824
75635ION    CL-48060   1.808  14.610   3.443
75636ION    CL-48061  32.097  13.276  13.657
75637ION    CL-48062  31.832  24.138   0.094
75638ION    CL-48063   9.195  26.767   1.798
75639ION    CL-48064  23.861   3.586  11.873
75640ION    CL-48065  32.150  41.561   1.082
75641ION    CL-48066   0.268  14.290  10.389
75642ION    CL-48067  36.331  14.102   4.923
75643ION    CL-48068   2.178  37.311   4.318
75644ION    CL-48069   1.664  25.813  11.037
75645ION    CL-48070  17.126  33.004  14.516
75646ION    CL-48071   6.409  16.129  11.064
75647ION    CL-48072  35.865  13.219  13.946
75648ION    CL-48073  25.372  39.479  13.960
75649ION    CL-48074  18.018  22.633  12.144
75650ION    CL-48075   9.957   1.451   2.568
75651ION    CL-48076  24.033   0.664  14.965
75652ION    CL-48077  28.410   9.039   3.124
75653ION    CL-48078  41.252   8.838  14.467
75654ION    CL-48079  40.955  28.220  12.490
75655ION    CL-48080   5.610  30.511  14.797
75656ION    CL-48081  41.281  31.258  13.030
75657ION    CL-48082  43.034  24.725  13.642
75658ION    CL-48083  30.091  26.726   0.896
75659ION    CL-48084  44.335  17.231  11.560
75660ION    CL-48085  25.641  17.764  10.715
75661ION    CL-48086  35.827  34.915   1.792
75662ION    CL-48087  27.194   5.374   2.564
75663ION    CL-48088   7.015  30.183  12.519
75664ION    CL-48089  43.016  34.342   0.490
75665ION    CL-48090  41.308   1.221  12.886
75666ION    CL-48091  21.302  26.828   0.692
75667ION    CL-48092  31.700   6.075  10.977
75668ION    CL-48093  30.174  13.540  11.421
75669ION    CL-48094   1.309  31.803  14.060
75670ION    CL-48095   3.473  13.181  11.283
75671ION    CL-48096   4.525  15.790  13.707
75672ION    CL-48097  21.239   9.660   1.856
75673ION    CL-48098  17.469   2.386  12.250
75674ION    CL-48099  12.664  10.051   4.904
75675ION    CL-48100   2.493  27.136   0.446
75676ION    CL-48101  30.777   9.867  13.661
75677ION    CL-48102  16.598  23.806   1.786
75678ION    CL-48103  42.071  27.712   2.007
75679ION    CL-48104   7.901   2.837  11.985
75680ION    CL-48105  43.062  13.253  12.559
75681ION    CL-48106  22.977   9.877   3.551
75682ION    CL-48107  37.350  43.435   2.320
75683ION    CL-48108   6.808   2.796   2.245
75684ION    CL-48109  19.506   9.933   5.038
75685ION    CL-48110   8.310  35.902  14.216
75686ION    CL-48111  12.019  40.460   2.170
75687ION    CL-48112  24.437  15.711  10.327
75688ION    CL-48113  15.898  31.378  11.785
75689ION    CL-48114  41.241  26.374   3.715
75690ION    CL-48115  39.793   8.270   0.221
75691ION    CL-48116  30.722   3.542   0.921
75692ION    CL-48117   4.648  35.764   3.631
75693ION    CL-48118  44.325  38.509  14.482
75694ION    CL-48119   6.091  20.058   3.287
75695ION    CL-48120  12.068  35.805   1.468
75696ION    CL-48121  17.994   2.588   0.659
75697ION    CL-48122  19.158  14.310  11.213
75698ION    CL-48123  44.852  27.527   4.320
75699ION    CL-48124  28.224  10.013   4.453
75700ION    CL-48125   6.674  23.125   2.889
75701ION    CL-48126  24.240  44.023  10.728
75702ION    CL-48127   3.903   8.235  13.547
75703ION    CL-48128  12.067   6.214   0.716
75704ION    CL-48129  42.156  12.106  13.847
75705ION    CL-48130  12.491  19.069   0.456
75706ION    CL-48131   3.563  11.477   3.298
75707ION    CL-48132   4.712  22.567   1.546
75708ION    CL-48133  31.055  14.207  11.220
75709ION    CL-48134   5.696  23.389   0.715
75710ION    CL-48135  19.098  22.115  11.519
75711ION    CL-48136  15.905  27.271  13.769
75712ION    CL-48137  11.792  20.538   2.809
75713ION    CL-48138  10.069  18.031  13.604
75714ION    CL-48139  36.497  13.548   4.215
75715ION    CL-48140  31.821  39.489  10.807
75716ION    CL-48141  33.848  42.453   1.588
75717ION    CL-48142  39.833  30.960   0.056
75718ION    CL-48143  20.458  15.680  11.077
75719ION    CL-48144  14.886   0.700   4.991
75720ION    CL-48145  21.697  29.646  14.231
75721ION    CL-48146  39.819  15.426   5.195
75722ION    CL-48147   9.147  41.456   4.019
75723ION    CL-48148   6.321  10.498   4.216
75724ION    CL-48149  29.381  38.184   5.466
75725ION    CL-48150  21.214  41.849   3.392
75726ION    CL-48151   1.059   8.474   1.960
75727ION    CL-48152  22.295  23.944  14.798
75728ION    CL-48153  38.059  22.208  12.957
75729ION    CL-48154  42.529   9.437  13.110
75730ION    CL-48155   0.528  32.942   5.189
75731ION    CL-48156  26.504  43.620   1.608
75732ION    CL-48157  34.627  16.698   4.264
75733ION    CL-48158  41.183  15.736   2.148
75734ION    CL-48159  44.477  25.629  11.713
75735ION    CL-48160  35.420   4.006  13.474
75736ION    CL-48161  10.451  36.541   2.754
75737ION    CL-48162  18.642  17.334  10.551
75738ION    CL-48163   0.674  44.044  13.230
75739ION    CL-48164   6.373  10.178  14.299
75740ION    CL-48165   3.153  31.868   1.314
75741ION    CL-48166  34.118  32.469  14.871
75742ION    CL-48167  23.575  36.761  14.111
75743ION    CL-48168   2.909   5.002   2.668
75744ION    CL-48169   5.818  41.209   3.080
75745ION    CL-48170  31.467  20.662  13.039
75746ION    CL-48171  31.445  29.916   2.014
75747ION    CL-48172  19.741  16.749   0.270
75748ION    CL-48173   3.231   5.861  14.065
75749ION    CL-48174  23.907   1.289  13.405
75750ION    CL-48175  25.456  26.051  11.827
75751ION    CL-48176  20.382  13.296   4.277
75752ION    CL-48177  25.147  25.432   1.612
75753ION    CL-48178  42.292   0.823  10.699
75754ION    CL-48179  17.980  11.847  11.233
75755ION    CL-48180  40.720  22.876   3.714
75756ION    CL-48181  28.575  24.376  10.393
75757ION    CL-48182  10.853  41.844  11.940
75758ION    CL-48183   8.957  34.252  13.906
75759ION    CL-48184  36.649  27.746   4.763
75760ION    CL-48185  28.382  13.819  10.678
75761ION    CL-48186  41.783   5.650  12.960
75762ION    CL-48187  19.323  44.481  14.560
75763ION    CL-48188  11.852  36.853  11.577
75764ION    CL-48189  38.292  31.235   0.482
75765ION    CL-48190   4.032   5.686   4.231
75766ION    CL-48191   4.078   3.116  12.270
75767ION    CL-48192   9.739  22.592  12.832
75768ION    CL-48193  24.545  20.254  13.685
75769ION    CL-48194   3.645  31.597   3.009
75770ION    CL-48195  39.615  10.070  13.551
75771ION    CL-48196  42.501  11.340  14.097
75772ION    CL-48197   1.261  12.150  12.868
75773ION    CL-48198   2.023  13.600   2.496
75774ION    CL-48199  28.989   7.740   1.747
75775ION    CL-48200  25.652  19.850  13.850
75776ION    CL-48201  43.506  40.106   2.904
75777ION    CL-48202  43.618  22.691  13.843
75778ION    CL-48203  18.988  42.135  11.997
75779ION    CL-48204  11.466  23.249  13.431
75780ION    CL-48205  43.881  44.760   1.262
75781ION    CL-48206  28.950  31.990   2.331
75782ION    CL-48207  23.840  28.449  11.666
75783ION    CL-48208  41.611   7.276   2.680
75784ION    CL-48209  39.804  22.529   1.535
75785ION    CL-48210  29.185  42.128  13.659
75786ION    CL-48211  16.578  21.324   1.360
75787ION    CL-48212  33.142  18.416   2.097
75788ION    CL-48213  21.761   2.860  12.030
75789ION    CL-48214  12.303   1.419  13.075
75790ION    CL-48215   4.993  33.625   3.178
75791ION    CL-48216  24.049  33.935  11.954
75792ION    CL-48217   5.190   3.210  12.960
75793ION    CL-48218  36.688  35.878  14.159
75794ION    CL-48219  44.694  35.267  11.813
75795ION    CL-48220  30.714   2.832   0.216
75796ION    CL-48221  19.114  38.575   0.856
75797ION    CL-48222  37.110  12.851   2.755
75798ION    CL-48223  18.545  27.500   3.436
75799ION    CL-48224   6.235  24.702   0.079
75800ION    CL-48225  33.976  36.762   3.038
75801ION    CL-48226   5.680  44.825   4.886
75802ION    CL-48227  44.753  44.744   4.828
75803ION    CL-48228  33.803  41.231   1.278
75804ION    CL-48229   3.728  23.057  10.432
75805ION    CL-48230  18.052   2.325   1.647
75806ION    CL-48231  20.747   1.249   1.001
75807ION    CL-48232  21.722   9.958  13.641
75808ION    CL-48233  31.522  12.133  14.803
75809ION    CL-48234   4.700  34.617  14.356
75810ION    CL-48235  42.581  13.943   0.135
75811ION    CL-48236  13.106  25.281   2.616
75812ION    CL-48237   9.435  29.439  14.749
75813ION    CL-48238  32.516  34.814  13.053
75814ION    CL-48239   1.677  29.557  12.568
75815ION    CL-48240   8.335   2.684   2.156
75816ION    CL-48241  33.189  23.693   1.305
75817ION    CL-48242  21.598   9.735   5.467
75818ION    CL-48243  18.680  13.597   1.206
75819ION    CL-48244  16.833  38.890  13.598
75820ION    CL-48245   0.982  41.881   4.140
75821ION    CL-48246  19.825   1.505   4.628
75822ION    CL-48247   7.364  39.252  14.729
75823ION    CL-48248  37.535  31.999   3.194
75824ION    CL-48249  41.692  32.814   2.981
75825ION    CL-48250  25.597   8.618   3.625
75826ION    CL-48251  15.010  11.719  11.160
75827ION    CL-48252  40.918  25.439  12.150
75828ION    CL-48253  23.904  17.685  14.445
75829ION    CL-48254  28.199   8.248  10.776
75830ION    CL-48255  13.838  35.160   0.427
75831ION    CL-48256  33.962  28.512   4.491
75832ION    CL-48257  15.333  20.616   3.315
75833ION    CL-48258  28.691  13.688   3.042
75834ION    CL-48259   8.850  13.089  11.574
75835ION    CL-48260  33.927  26.730  11.199
75836ION    CL-48261  31.715  33.584  10.766
75837ION    CL-48262   6.138  11.328  11.929
75838ION    CL-48263  43.019  33.734   2.191
75839ION    CL-48264   6.241  35.698  11.749
75840ION    CL-48265  30.663   6.806  11.154
75841ION    CL-48266  32.460  42.829   0.707
75842ION    CL-48267   3.104  11.345  14.538
75843ION    CL-48268  32.029  14.043  12.959
75844ION    CL-48269   0.632  16.513   1.193
75845ION    CL-48270  25.731  13.022   4.550
75846ION    CL-48271  18.019  43.482  14.449
75847ION    CL-48272  37.918  37.051  13.366
75848ION    CL-48273   1.298  30.774   2.862
75849ION    CL-48274  29.441  12.511   1.452
75850ION    CL-48275  28.661   7.855  13.188
75851ION    CL-48276   0.597   4.181   2.932
75852ION    CL-48277   2.975  16.019  11.517
75853ION    CL-48278  16.961  24.889   3.406
75854ION    CL-48279  31.196  43.126   2.788
75855ION    CL-48280  10.883   7.841  10.547
75856ION    CL-48281   1.327  12.550  12.088
75857ION    CL-48282  34.179  24.031  13.933
75858ION    CL-48283   4.799  17.299   0.428
75859ION    CL-48284  18.771  36.633  13.195
75860ION    CL-48285  32.456  16.510   0.358
75861ION    CL-48286  19.294   0.447   1.472
75862ION    CL-48287  19.018  40.188   2.934
75863ION    CL-48288   8.468  24.253   1.778
75864ION    CL-48289  24.596  36.372   1.141
75865ION    CL-48290  25.813  17.119  12.475
75866ION    CL-48291   2.999  21.881   1.218
75867ION    CL-48292  38.594  40.440   4.273
75868ION    CL-48293  17.672  36.125   2.735
75869ION    CL-48294   8.437   0.960  10.858
75870ION    CL-48295  33.797  43.387   5.011
75871ION    CL-48296   4.977   6.925  12.987
75872ION    CL-48297  17.320  35.715   4.538
75873ION    CL-48298  37.822  31.972   2.237
75874ION    CL-48299  28.246  33.601  11.917
75875ION    CL-48300  39.711   1.052  11.409
75876ION    CL-48301  34.991  36.158   3.222
75877ION    CL-48302   6.397  16.667   3.215
75878ION    CL-48303  25.029   3.376   3.363
75879ION    CL-48304   5.328   6.539  11.454
75880ION    CL-48305  34.661   1.353  11.199
75881ION    CL-48306   0.930  25.324   4.750
75882ION    CL-48307   3.081  27.452   2.711
75883ION    CL-48308  31.043  37.789   3.710
75884ION    CL-48309   9.415  25.094   1.964
75885ION    CL-48310   7.991  37.864   4.999
75886ION    CL-48311  44.482  26.629  11.718
75887ION    CL-48312   9.174   6.460  14.770
75888ION    CL-48313  31.996  38.001   0.680
75889ION    CL-48314  42.411  16.796  10.836
75890ION    CL-48315  21.607  20.609   0.371
75891ION    CL-48316   3.588   0.472  11.117
75892ION    CL-48317   2.755  21.146   3.661
75893ION    CL-48318   6.676   0.829   2.104
75894ION    CL-48319   8.772  18.157   4.205
75895ION    CL-48320  38.577  18.705   0.673
75896ION    CL-48321  23.430   4.126   2.153
75897ION    CL-48322  29.351  19.231  12.716
75898ION    CL-48323   1.223   1.028   0.884
75899ION    CL-48324  38.608  29.661   2.209
75900ION    CL-48325  10.696   3.619   1.738
75901ION    CL-48326  24.508  18.475  10.745
75902ION    CL-48327  13.759  14.505  11.473
75903ION    CL-48328  24.476  15.600   0.637
75904ION    CL-48329  43.319  16.869  14.348
75905ION    CL-48330  31.543  35.315   2.085
75906ION    CL-48331  22.970  25.136  11.104
75907ION    CL-48332  26.480   0.322   1.534
75908ION    CL-48333  40.005  20.319   0.147
75909ION    CL-48334   5.355   7.018   2.028
75910ION    CL-48335  39.918  18.707  11.662
75911ION    CL-48336  38.680  31.499   4.689
75912ION    CL-48337  24.437  36.678   2.079
75913ION    CL-48338  24.065   3.618   0.054
75914ION    CL-48339  28.494   1.892  12.715
75915ION    CL-48340  15.783  41.527   3.633
75916ION    CL-48341  26.476  15.342   3.354
75917ION    CL-48342  15.034  33.619   3.258
75918ION    CL-48343  34.341   0.290  14.543
75919ION    CL-48344   5.611   3.050  11.471
75920ION    CL-48345  30.942  40.846  10.545
75921ION    CL-48346  41.240  19.340  10.136
75922ION    CL-48347   0.785  25.790  11.513
75923ION    CL-48348  12.135  35.814   2.473
75924ION    CL-48349   4.754   3.009   0.966
75925ION    CL-48350  13.639  37.206   0.450
75926ION    CL-48351   7.921  42.780  12.991
75927ION    CL-48352  43.828  13.751  12.153
75928ION    CL-48353  30.756  25.696  11.188
75929ION    CL-48354   8.368  13.822   1.371
75930ION    CL-48355  35.350  31.345  10.168
75931ION    CL-48356  17.268  38.237  12.553
75932ION    CL-48357  17.741  42.921   4.895
75933ION    CL-48358  27.970  42.484   3.105
75934ION    CL-48359  44.519  23.820   3.426
75935ION    CL-48360  11.997   0.375   4.025
75936ION    CL-48361  32.837   9.377   4.113
75937ION    CL-48362  18.679  42.615   4.065
75938ION    CL-48363  32.616  15.438  14.086
75939ION    CL-48364  36.558  32.623  14.010
75940ION    CL-48365   7.849   1.488  13.904
75941ION    CL-48366  33.772  26.918  13.385
75942ION    CL-48367  23.613   5.087   4.925
75943ION    CL-48368  32.649  10.830   2.951
75944ION    CL-48369  21.475   6.580   0.572
75945ION    CL-48370  29.052   4.777  14.961
75946ION    CL-48371   1.710   4.086  10.009
75947ION    CL-48372  23.725  36.913   0.140
75948ION    CL-48373   0.512  21.629   0.539
75949ION    CL-48374  34.565  15.642  12.551
75950ION    CL-48375   7.836  28.131   1.143
75951ION    CL-48376  36.050  10.668  13.555
75952ION    CL-48377  42.865  29.586  12.993
75953ION    CL-48378  26.750  25.313  11.880
75954ION    CL-48379  31.930  39.962  10.017
75955ION    CL-48380   8.568  16.304  12.126
75956ION    CL-48381  33.947   6.380  12.373
75957ION    CL-48382  14.016  40.116   2.769
75958ION    CL-48383   5.639  17.132  10.560
75959ION    CL-48384   2.349  12.652  14.968
75960ION    CL-48385  40.666  35.356  13.819
75961ION    CL-48386  41.747  32.047   3.455
75962ION    CL-48387  23.649  22.954   1.940
75963ION    CL-48388  44.328  31.270   3.215
75964ION    CL-48389  18.278  21.786   3.188
75965ION    CL-48390  27.043  35.983   1.327
75966ION    CL-48391  20.016  16.983  12.775
75967ION    CL-48392   8.168   9.507  11.227
75968ION    CL-48393  33.733  24.669  12.027
75969ION    CL-48394  20.166  39.063   9.779
75970ION    CL-48395  19.387  13.023   0.301
75971ION    CL-48396  14.610  16.997  14.420
75972ION    CL-48397  10.722  23.747  11.585
75973ION    CL-48398  24.997  14.949   3.780
75974ION    CL-48399  20.585  41.548  10.032
75975ION    CL-48400  16.202  20.332   4.032
75976ION    CL-48401  33.980   2.470   2.647
75977ION    CL-48402   1.331  24.833  11.162
75978ION    CL-48403   4.283  28.843   1.305
75979ION    CL-48404  20.516   1.123  11.542
75980ION    CL-48405  39.400  19.584  10.877
75981ION    CL-48406  42.835  27.011   2.290
75982ION    CL-48407  23.121  19.306  12.397
75983ION    CL-48408   6.433   6.932   5.028
75984ION    CL-48409  21.480  43.961  11.071
75985ION    CL-48410   2.823   9.876  13.000
75986ION    CL-48411  16.882  11.644  14.948
75987ION    CL-48412  32.465  30.171   3.850
75988ION    CL-48413  31.290  16.318  11.568
75989ION    CL-48414   6.581  18.506   2.394
75990ION    CL-48415   1.411  34.325  12.011
75991ION    CL-48416  43.313  23.377  11.822
75992ION    CL-48417  13.170  33.772   3.935
75993ION    CL-48418  16.899  13.810  12.883
75994ION    CL-48419  16.355  25.646  10.746
75995ION    CL-48420  23.282   2.145   2.564
75996ION    CL-48421  16.339  22.600  14.853
75997ION    CL-48422  13.703  29.901  14.658
75998ION    CL-48423  22.641  36.984  11.385
75999ION    CL-48424  44.051  42.238   4.200
76000ION    CL-48425  13.167  21.476  13.518
76001ION    CL-48426  43.638  30.218  12.931
76002ION    CL-48427   5.864  10.070   4.573
76003ION    CL-48428  37.595  17.245  12.343
76004ION    CL-48429  41.676  38.698   3.206
76005ION    CL-48430  21.959  31.750  11.172
76006ION    CL-48431   4.155  34.946   3.335
76007ION    CL-48432  36.936  41.120   2.881
76008ION    CL-48433  39.164   9.571  11.036
76009ION    CL-48434  28.674  41.829   5.653
76010ION    CL-48435  42.241   3.315  10.337
76011ION    CL-48436  17.742   5.935   1.333
76012ION    CL-48437  15.514   3.680  10.987
76013ION    CL-48438  12.775   3.846  13.566
76014ION    CL-48439  17.221  25.932  10.335
76015ION    CL-48440  23.268  36.063   4.116
76016ION    CL-48441  44.750  19.768  14.444
76017ION    CL-48442   6.351  34.689  11.526
76018ION    CL-48443   0.915  30.274   0.022
76019ION    CL-48444  41.246   1.356   4.155
76020ION    CL-48445  27.923  31.165  12.633
76021ION    CL-48446  25.208  21.326   4.049
76022ION    CL-48447  19.340  24.171  14.078
76023ION    CL-48448  15.575  32.020   9.787
76024ION    CL-48449  35.247  14.843  14.702
76025ION    CL-48450  36.072   7.385  12.981
76026ION    CL-48451  13.635   6.768  14.560
76027ION    CL-48452  16.295  38.030  12.655
76028ION    CL-48453   9.502  26.170  10.984
76029ION    CL-48454  23.097  29.032  13.828
76030ION    CL-48455  17.591   5.993   3.950
76031ION    CL-48456   0.273  24.773  11.988
76032ION    CL-48457   1.199  24.802  12.365
76033ION    CL-48458  19.779   8.887  10.668
76034ION    CL-48459   7.025  30.875  10.715
76035ION    CL-48460  35.036  33.384   1.832
76036ION    CL-48461  25.710  39.679   1.875
76037ION    CL-48462  11.077   1.253  12.502
76038ION    CL-48463   6.160  12.055  11.401
76039ION    CL-48464  21.255  37.673  13.859
76040ION    CL-48465   1.711  17.558   1.960
76041ION    CL-48466  41.661  29.796  14.117
76042ION    CL-48467  38.456   8.378  11.037
76043ION    CL-48468  35.801   8.634   3.662
76044ION    CL-48469  39.321  38.546   0.735
76045ION    CL-48470  21.742  42.737   2.341
76046ION    CL-48471  18.374   9.171  12.007
76047ION    CL-48472  39.805   4.985  11.469
76048ION    CL-48473  43.798   4.105   1.836
76049ION    CL-48474   8.941  13.095   3.234
76050ION    CL-48475  36.974   6.756  11.955
76051ION    CL-48476  25.003  37.300   4.052
76052ION    CL-48477  13.427  22.410  13.763
76053ION    CL-48478  30.896  35.562  13.870
76054ION    CL-48479   7.689  37.301   0.311
76055ION    CL-48480  10.057  26.574  12.898
76056ION    CL-48481   2.664  13.438   4.844
76057ION    CL-48482  11.845  37.085  10.604
76058ION    CL-48483  21.932  18.546  11.153
76059ION    CL-48484  26.823  43.603  13.951
76060ION    CL-48485   0.329  12.434   0.395
76061ION    CL-48486  15.369  21.876   2.802
76062ION    CL-48487  23.874  30.862   2.276
76063ION    CL-48488  11.940  20.016   0.589
76064ION    CL-48489  10.721  22.623  14.209
76065ION    CL-48490  35.516  44.473  14.798
76066ION    CL-48491   5.563  12.190  10.334
76067ION    CL-48492  19.733   2.466   2.213
76068ION    CL-48493  29.241  27.199  12.081
76069ION    CL-48494   8.659   8.380   2.288
76070ION    CL-48495  14.214  14.483  12.603
76071ION    CL-48496   8.961  35.477   2.937
76072ION    CL-48497  25.772   3.223  11.960
76073ION    CL-48498  11.334  26.475   3.809
76074ION    CL-48499  12.179  27.402  11.636
76075ION    CL-48500  42.537   6.380  11.142
76076ION    CL-48501  20.904  28.047  14.967
76077ION    CL-48502  18.694  39.391  13.821
76078ION    CL-48503  40.279  37.307   0.346
76079ION    CL-48504   2.280  10.970  14.064
76080ION    CL-48505  40.983   3.186   1.090
76081ION    CL-48506  11.721  30.929  11.449
76082ION    CL-48507  35.901  23.152   2.249
76083ION    CL-48508  14.698  10.770   3.821
76084ION    CL-48509   4.747   1.417  11.494
76085ION    CL-48510  19.842  11.280  12.046
76086ION    CL-48511  17.371   4.985   4.127
76087ION    CL-48512  21.236   4.745   2.765
76088ION    CL-48513  40.562   6.333   4.230
76089ION    CL-48514  19.169  15.115  13.790
76090ION    CL-48515  31.911  39.244   2.210
76091ION    CL-48516  18.806   5.235  12.982
76092ION    CL-48517  41.525  23.105   1.362
76093ION    CL-48518   1.707  13.179  10.993
76094ION    CL-48519  13.913  41.894  13.981
76095ION    CL-48520  11.424  29.366  13.446
76096ION    CL-48521  28.193  33.533  12.920
76097ION    CL-48522  12.481  21.420   9.812
76098ION    CL-48523  43.732  44.270   3.192
76099ION    CL-48524  16.930  18.078   4.202
76100ION    CL-48525  27.994  18.268   2.204
76101ION    CL-48526  38.244  40.952  11.199
76102ION    CL-48527  26.616  43.045  14.572
76103ION    CL-48528  21.706  26.872   1.408
76104ION    CL-48529  13.312  40.366  13.497
76105ION    CL-48530   3.063   6.783   9.672
76106ION    CL-48531  29.383  44.321  10.934
76107ION    CL-48532   5.532   5.729   2.955
76108ION    CL-48533  12.571  15.642   1.966
76109ION    CL-48534  21.469  14.156  11.152
76110ION    CL-48535  18.385  44.625   0.040
76111ION    CL-48536  13.695  35.253  14.277
76112ION    CL-48537  20.558  29.132  10.594
76113ION    CL-48538  29.079  18.396  11.281
76114ION    CL-48539  20.852   5.042  11.596
76115ION    CL-48540  36.278   3.537  13.265
76116ION    CL-48541  27.585  25.990  11.004
76117ION    CL-48542  25.574   9.655   0.305
76118ION    CL-48543  18.734  31.770  13.690
76119ION    CL-48544   8.239  25.506   4.873
76120ION    CL-48545   1.322  29.702  10.897
76121ION    CL-48546  44.408   4.641   5.331
76122ION    CL-48547   6.662  44.986  10.033
76123ION    CL-48548  25.019  40.467  12.638
76124ION    CL-48549  12.801   5.152   2.951
76125ION    CL-48550  36.947  40.070   4.936
76126ION    CL-48551  19.469  37.753   3.777
76127ION    CL-48552  32.535  12.661  10.639
76128ION    CL-48553  21.189  19.322   2.328
76129ION    CL-48554  34.405   4.526  13.020
76130ION    CL-48555  30.339  33.081   1.949
76131ION    CL-48556  14.897   0.359  13.022
76132ION    CL-48557  43.948  18.394   4.193
76133ION    CL-48558  36.485  36.499  13.527
76134ION    CL-48559   1.420   7.144  11.402
76135ION    CL-48560  35.451  39.092   1.596
76136ION    CL-48561   1.697   6.976   0.017
76137ION    CL-48562  42.698  43.374   1.170
76138ION    CL-48563  24.201  31.763  10.772
76139ION    CL-48564   4.307  28.007  14.303
76140ION    CL-48565  40.651  31.029   2.075
76141ION    CL-48566  22.317  26.813  11.276
76142ION    CL-48567  31.193  42.555   1.100
76143ION    CL-48568  32.372   4.394  13.116
76144ION    CL-48569  35.091  17.367   4.845
76145ION    CL-48570   7.826  41.251  12.115
76146ION    CL-48571  25.058   1.842   0.950
76147ION    CL-48572   1.449   7.389  13.589
76148ION    CL-48573  29.090  17.374   3.621
76149ION    CL-48574  37.066  15.088   4.399
76150ION    CL-48575   5.740   5.121   3.935
76151ION    CL-48576  27.116   6.357   2.732
76152ION    CL-48577   8.774  18.158   3.205
76153ION    CL-48578  38.084  26.594   3.279
76154ION    CL-48579  14.384  20.287  14.378
76155ION    CL-48580   1.104  13.537  12.177
76156ION    CL-48581  16.688  23.914  14.761
76157ION    CL-48582  22.268  31.300   2.440
76158ION    CL-48583  31.117  21.269   2.478
76159ION    CL-48584  21.041  19.543  12.614
76160ION    CL-48585  32.246  22.669  13.822
76161ION    CL-48586   9.894  39.016   0.154
76162ION    CL-48587  29.046  17.188   4.941
76163ION    CL-48588  16.073  34.322   1.543
76164ION    CL-48589  28.465  11.093  14.105
76165ION    CL-48590   0.254  30.115  13.845
76166ION    CL-48591  14.149   2.931  11.729
76167ION    CL-48592  14.531  27.424   3.326
76168ION    CL-48593  25.049  34.351   0.239
76169ION    CL-48594  29.377  30.439  12.531
76170ION    CL-48595  26.225   1.927   4.101
76171ION    CL-48596  29.843  11.084  12.078
76172ION    CL-48597   0.402   5.020   4.605
76173ION    CL-48598  11.738  26.097  14.552
76174ION    CL-48599  32.062  15.639  12.414
76175ION    CL-48600  25.079  21.210   0.749
76176ION    CL-48601  33.467  11.174   2.980
76177ION    CL-48602   4.296   0.359   0.490
76178ION    CL-48603  30.358  32.502  11.061
76179ION    CL-48604   0.436  17.013   3.666
76180ION    CL-48605  19.239  24.134   1.250
76181ION    CL-48606  31.026  26.149  12.224
76182ION    CL-48607  31.020  29.172  11.435
76183ION    CL-48608  37.987  25.826   5.034
76184ION    CL-48609  14.297   1.424   2.754
76185ION    CL-48610  39.786  16.807  10.822
76186ION    CL-48611  11.475  17.493   1.380
76187ION    CL-48612  19.767  23.647  13.341
76188ION    CL-48613  28.751  10.007  13.792
76189ION    CL-48614  41.452  32.335  11.608
76190ION    CL-48615  19.638  41.462  10.340
76191ION    CL-48616  41.249  35.542  10.743
76192ION    CL-48617  17.718  43.721   1.206
76193ION    CL-48618  38.697  32.017   5.155
76194ION    CL-48619  16.196  31.438   9.711
76195ION    CL-48620   4.746   5.017   4.027
76196ION    CL-48621  32.338  37.406  10.757
76197ION    CL-48622  32.508  24.830   2.101
76198ION    CL-48623   1.787  27.108   1.925
76199ION    CL-48624   0.391  25.337   3.598
76200ION    CL-48625   5.758  42.110   2.976
76201ION    CL-48626  13.162  21.664   1.657
76202ION    CL-48627  43.711  25.708  12.513
76203ION    CL-48628  11.836   0.994   1.595
76204ION    CL-48629  39.736   0.329  12.099
76205ION    CL-48630  33.569  13.195  12.835
76206ION    CL-48631  14.044  35.090   1.403
76207ION    CL-48632   8.210  27.236  12.302
76208ION    CL-48633  40.426  28.391   2.451
76209ION    CL-48634  29.849   2.410  12.772
76210ION    CL-48635  22.194  32.720  11.105
76211ION    CL-48636  39.561  36.563   0.495
76212ION    CL-48637  40.990  11.294   5.145
76213ION    CL-48638  34.988  13.118  14.131
76214ION    CL-48639  18.390  14.382   1.923
76215ION    CL-48640  27.415  15.826  10.735
76216ION    CL-48641  39.335  18.587  10.851
76217ION    CL-48642  19.304  44.037   1.645
76218ION    CL-48643  30.455  39.660  12.413
76219ION    CL-48644   0.254  40.575  12.045
76220ION    CL-48645  18.881  23.918   3.952
76221ION    CL-48646  19.338   6.960   3.839
76222ION    CL-48647   6.315  13.148  13.770
76223ION    CL-48648  34.966  20.218   3.021
76224ION    CL-48649  42.427  31.760   4.626
76225ION    CL-48650  30.372   7.112   0.472
76226ION    CL-48651  39.474   8.691  12.518
76227ION    CL-48652  40.470  31.682  13.023
76228ION    CL-48653  21.696  26.680  12.048
76229ION    CL-48654  24.862  28.122   3.779
76230ION    CL-48655  19.520  30.756  12.035
76231ION    CL-48656   2.416   5.243  11.664
76232ION    CL-48657   8.261  30.381   5.036
76233ION    CL-48658  21.810  42.980  12.484
76234ION    CL-48659  36.357   9.280  11.653
76235ION    CL-48660  26.068  20.200   3.542
76236ION    CL-48661  11.274  43.734  11.502
76237ION    CL-48662  22.200   4.278   0.228
76238ION    CL-48663  24.004   3.499  10.626
76239ION    CL-48664  28.502  44.359   3.065
76240ION    CL-48665  21.254  33.475  14.173
76241ION    CL-48666  18.148  21.205  12.028
76242ION    CL-48667  27.802   7.905  14.278
76243ION    CL-48668   2.449   8.022   1.940
76244ION    CL-48669  19.748  29.734  12.968
76245ION    CL-48670  24.860  44.758  14.581
76246ION    CL-48671  24.278   8.657   0.630
76247ION    CL-48672  33.387   0.758  11.508
76248ION    CL-48673   9.074  43.165   9.970
76249ION    CL-48674  27.676  21.788   2.138
76250ION    CL-48675   0.178  42.196   5.076
76251ION    CL-48676  11.735  32.843  13.783
76252ION    CL-48677   6.919  12.392  14.993
76253ION    CL-48678   2.193  42.039  11.481
76254ION    CL-48679  12.182  43.693   1.736
76255ION    CL-48680  28.108  13.737   2.231
76256ION    CL-48681   0.861  34.066   3.230
76257ION    CL-48682  38.267   1.980   3.178
76258ION    CL-48683   5.032   5.069   1.205
76259ION    CL-48684  37.884  33.473   1.500
76260ION    CL-48685  43.986   1.932   1.615
76261ION    CL-48686   2.674  32.691  10.881
76262ION    CL-48687  13.780  44.940   0.239
76263ION    CL-48688  37.070  40.303   2.320
76264ION    CL-48689  27.649  21.442  13.523
76265ION    CL-48690   9.940  23.050  10.724
76266ION    CL-48691  17.365  37.127   5.085
76267ION    CL-48692  30.738  35.165   4.131
76268ION    CL-48693  19.282  22.683   4.322
76269ION    CL-48694  14.873   9.111  14.517
76270ION    CL-48695   0.919   4.700  12.612
76271ION    CL-48696  41.520  16.823   2.307
76272ION    CL-48697  14.665  26.661  12.920
76273ION    CL-48698  31.938  23.435   3.611
76274ION    CL-48699  18.120   0.454  14.901
76275ION    CL-48700  43.900  30.685   3.772
76276ION    CL-48701   5.602  41.077   3.928
76277ION    CL-48702  25.608  31.593   5.075
76278ION    CL-48703  40.425   0.780   0.549
76279ION    CL-48704  13.873  23.604  14.834
76280ION    CL-48705  16.980  37.605  12.065
76281ION    CL-48706  11.964   8.474  14.301
76282ION    CL-48707  21.193  44.387   0.755
76283ION    CL-48708  37.401  28.385   2.323
76284ION    CL-48709  22.331  37.601   2.583
76285ION    CL-48710  42.153  26.428   2.212
76286ION    CL-48711  29.739  19.828  12.013
76287ION    CL-48712  38.179  35.071  13.051
76288ION    CL-48713  38.279  27.223   5.207
76289ION    CL-48714  29.427  37.214   1.857
76290ION    CL-48715  11.043  42.405   1.542
76291ION    CL-48716  39.605   3.684   4.051
76292ION    CL-48717  16.170  39.864  13.058
76293ION    CL-48718  37.108  39.912  14.759
76294ION    CL-48719   8.657   6.777   0.566
76295ION    CL-48720  40.396  38.023   1.443
76296ION    CL-48721  22.992  22.382  13.107
76297ION    CL-48722  16.814  22.117  10.670
76298ION    CL-48723  27.932  26.468   1.851
76299ION    CL-48724  20.404   6.837   0.847
76300ION    CL-48725   0.548  22.613  10.455
76301ION    CL-48726   4.691  37.898   4.935
76302ION    CL-48727   9.169  37.507   4.662
76303ION    CL-48728  15.454  13.163  11.372
76304ION    CL-48729  14.591  42.454   0.840
76305ION    CL-48730  13.513  36.057  11.117
76306ION    CL-48731  19.276  20.773   1.419
76307ION    CL-48732   1.749   3.964  11.852
76308ION    CL-48733  31.253  34.458   0.060
76309ION    CL-48734  41.974  31.616   0.301
76310ION    CL-48735  18.188  24.608  13.232
76311ION    CL-48736  14.393  32.521   2.142
76312ION    CL-48737   8.101   1.008   3.314
76313ION    CL-48738  10.855   0.990   1.849
76314ION    CL-48739  14.443   2.548   0.218
76315ION    CL-48740   6.791   2.422  10.753
76316ION    CL-48741  30.054  43.941  11.571
76317ION    CL-48742  19.520  20.272  11.628
76318ION    CL-48743  14.440  18.771   0.101
76319ION    CL-48744  32.497  38.669  10.423
76320ION    CL-48745  44.523  10.821  14.525
76321ION    CL-48746  29.050  37.362  14.996
76322ION    CL-48747  33.901  44.009   3.516
76323ION    CL-48748  10.766  13.799  10.745
76324ION    CL-48749  42.539  19.557   2.260
76325ION    CL-48750  27.127  22.916  11.434
76326ION    CL-48751  23.102  16.395  13.781
76327ION    CL-48752  16.794  19.437   2.269
76328ION    CL-48753  42.820   5.782   2.144
76329ION    CL-48754  18.663  43.878  10.216
76330ION    CL-48755  21.300   5.740   2.832
76331ION    CL-48756  42.245  13.822  12.468
76332ION    CL-48757  23.357  42.883  12.907
76333ION    CL-48758  19.157  36.969   0.976
76334ION    CL-48759  38.775  21.978  12.298
76335ION    CL-48760  12.392  40.209   3.760
76336ION    CL-48761  29.958  10.154  13.385
76337ION    CL-48762  11.710   0.424  14.378
76338ION    CL-48763  16.336  13.880  12.174
76339ION    CL-48764   8.387  17.556   2.674
76340ION    CL-48765  28.429  31.559  13.612
76341ION    CL-48766  24.154  28.026  12.357
76342ION    CL-48767   1.075  13.474  14.744
76343ION    CL-48768  20.069   4.490  13.700
76344ION    CL-48769  43.270  41.705   5.056
76345ION    CL-48770  30.900  24.517  14.462
76346ION    CL-48771  17.829   7.658   0.080
76347ION    CL-48772   4.847   6.404  13.860
76348ION    CL-48773  28.151  16.029  14.376
76349ION    CL-48774  36.067  28.507   0.686
76350ION    CL-48775  35.334  44.151   4.953
76351ION    CL-48776  26.725  17.206  10.728
76352ION    CL-48777  14.293  33.065   3.637
76353ION    CL-48778  23.914  40.778  13.828
76354ION    CL-48779  16.065  25.677   2.384
76355ION    CL-48780  33.324  34.125   2.761
76356ION    CL-48781  38.856   1.376   2.357
76357ION    CL-48782  28.355  20.169  14.951
76358ION    CL-48783  44.764   2.223  13.322
76359ION    CL-48784   5.974  33.141  12.085
76360ION    CL-48785  16.747  31.116   0.859
76361ION    CL-48786  20.184  19.801   4.154
76362ION    CL-48787  36.663  29.821   4.017
76363ION    CL-48788  30.664  35.103   5.127
76364ION    CL-48789  15.647  25.112   0.769
76365ION    CL-48790  16.505   7.363   4.342
76366ION    CL-48791  44.534  19.365  11.650
76367ION    CL-48792   8.697  13.791   4.087
76368ION    CL-48793  36.206  21.801  12.704
76369ION    CL-48794  16.152   2.851   0.682
76370ION    CL-48795  29.518  34.001   3.233
76371ION    CL-48796  11.494  33.897  11.860
76372ION    CL-48797   6.545  19.142  11.822
76373ION    CL-48798  35.272   0.253   2.340
76374ION    CL-48799  42.370  42.001   0.811
  45.00000  45.00000  15.00000
